<LesHouchesEvents version="3.0">
<header>
<!--
#*********************************************************************
#                                                                    *
#                        MadGraph5_aMC@NLO                           *
#                                                                    *
#                           Going Beyond                             *
#                                                                    *
#                   http://madgraph.hep.uiuc.edu                     *
#                   http://madgraph.phys.ucl.ac.be                   *
#                   http://amcatnlo.cern.ch                          *
#                                                                    *
#                     The MadGraph5_aMC@NLO team                     *
#                                                                    *
#....................................................................*
#                                                                    *
# This file contains all the information necessary to reproduce      *
# the events generated:                                              *
#                                                                    *
# 1. software version                                                *
# 2. proc_card          : code generation info including model       *
# 3. param_card         : model primary parameters in the LH format  *
# 4. run_card           : running parameters (collider and cuts)     *
# 5. pythia_card        : present only if pythia has been run        *
# 6. pgs_card           : present only if pgs has been run           *
# 7. delphes_cards      : present only if delphes has been run       *
#                                                                    *
#                                                                    *
#*********************************************************************
-->
<MGVersion>
#3.5.0_lo_vect
</MGVersion>
<MG5ProcCard>
<![CDATA[
#************************************************************
#*                     MadGraph5_aMC@NLO                    *
#*                                                          *
#*                *                       *                 *
#*                  *        * *        *                   *
#*                    * * * * 5 * * * *                     *
#*                  *        * *        *                   *
#*                *                       *                 *
#*                                                          *
#*                                                          *
#*         VERSION 3.5.0_lo_vect         2023-06-09         *
[1;31m#*                                                          *[1;0m
[1;31m#*          WARNING: UNKNOWN DEVELOPMENT VERSION.           *[1;0m
[1;31m#*            WARNING: DO NOT USE FOR PRODUCTION            *[1;0m
[1;31m#*                                                          *[1;0m
#*                                                          *
#*    The MadGraph5_aMC@NLO Development Team - Find us at   *
#*    https://server06.fynu.ucl.ac.be/projects/madgraph     *
#*                                                          *
#************************************************************
#*                                                          *
#*               Command File for MadGraph5_aMC@NLO         *
#*                                                          *
#*     run as ./bin/mg5_aMC  filename                       *
#*                                                          *
#************************************************************
set group_subprocesses Auto
set ignore_six_quark_processes False
set low_mem_multicore_nlo_generation False
set complex_mass_scheme False
set include_lepton_initiated_processes False
set gauge unitary
set loop_optimized_output True
set loop_color_flows False
set max_npoint_for_channel 0
set default_unset_couplings 99
set max_t_for_channel 99
set nlo_mixed_expansion True
set stdout_level DEBUG
set zerowidth_tchannel F
generate g g > t t~ g g
define p = g u c d s u~ c~ d~ s~
define j = g u c d s u~ c~ d~ s~
define l+ = e+ mu+
define l- = e- mu-
define vl = ve vm vt
define vl~ = ve~ vm~ vt~
output madevent CODEGEN_mad_gg_ttgg --hel_recycling=False --vector_siz\
e=16384 --me_exporter=standalone_cudacpp
]]>
</MG5ProcCard>
<MGProcCard>
#*********************************************************************
#                        MadGraph/MadEvent                           *
#                   http://madgraph.hep.uiuc.edu                     *
#                                                                    *
#                          proc_card.dat                             *
#*********************************************************************
#                                                                    *
#            This Files is generated by MADGRAPH 5                   *
#                                                                    *
# WARNING: This Files is generated for MADEVENT (compatibility issue)*
#          This files is NOT a valid MG4 proc_card.dat               *
#          Running this in MG4 will NEVER reproduce the result of MG5*
#                                                                    *
#*********************************************************************
#*********************************************************************
# Process(es) requested : mg2 input                                  *
#*********************************************************************
# Begin PROCESS # This is TAG. Do not modify this line
g g > t t~ g g           #Process
# Be carefull the coupling are here in MG5 convention
          
end_coup           # End the couplings input

done               # this tells MG there are no more procs
# End PROCESS  # This is TAG. Do not modify this line
#*********************************************************************
# Model information                                                  *
#*********************************************************************
# Begin MODEL  # This is TAG. Do not modify this line
sm
# End   MODEL  # This is TAG. Do not modify this line
#*********************************************************************
# Start multiparticle definitions                                    *
#*********************************************************************
# Begin MULTIPARTICLES # This is TAG. Do not modify this line

# End  MULTIPARTICLES # This is TAG. Do not modify this line
</MGProcCard>
<MGRunCard>
<![CDATA[
#*********************************************************************
#                       MadGraph5_aMC@NLO                            *
#                                                                    *
#                     run_card.dat MadEvent                          *
#                                                                    *
#  This file is used to set the parameters of the run.               *
#                                                                    *
#  Some notation/conventions:                                        *
#                                                                    *
#   Lines starting with a '# ' are info or comments                  *
#                                                                    *
#   mind the format:   value    = variable     ! comment             *
#                                                                    *
#   To display more options, you can type the command:               *
#      update to_full                                                *
#*********************************************************************
#                                                                    
#*********************************************************************
# Tag name for the run (one word)                                    *
#*********************************************************************
  tag_1     = run_tag ! name of the run 
#*********************************************************************
# Number of events and rnd seed                                      *
# Warning: Do not generate more than 1M events in a single run       *
#*********************************************************************
  100 = nevents ! Number of unweighted events requested 
 21 = iseed   ! rnd seed (0=assigned automatically=default))
#*********************************************************************
# Collider type and energy                                           *
# lpp: 0=No PDF, 1=proton, -1=antiproton,                            *
#                2=elastic photon of proton/ion beam                 *
#             +/-3=PDF of electron/positron beam                     *
#             +/-4=PDF of muon/antimuon beam                         *
#*********************************************************************
     1        = lpp1    ! beam 1 type 
     1        = lpp2    ! beam 2 type
     6500.0     = ebeam1  ! beam 1 total energy in GeV
     6500.0     = ebeam2  ! beam 2 total energy in GeV
# To see polarised beam options: type "update beam_pol"

#*********************************************************************
# PDF CHOICE: this automatically fixes alpha_s and its evol.         *
# pdlabel: lhapdf=LHAPDF (installation needed) [1412.7420]           *
#          iww=Improved Weizsaecker-Williams Approx.[hep-ph/9310350] *
#          eva=Effective W/Z/A Approx.       [2111.02442]            *
#          edff=EDFF in gamma-UPC            [eq.(11) in 2207.03012] *
#          chff=ChFF in gamma-UPC            [eq.(13) in 2207.03012] *
#          none=No PDF, same as lhapdf with lppx=0                   *
#*********************************************************************
     nn23lo1    = pdlabel     ! PDF set 
     230000    = lhaid     ! if pdlabel=lhapdf, this is the lhapdf number
# To see heavy ion options: type "update ion_pdf"
#*********************************************************************
# Renormalization and factorization scales                           *
#*********************************************************************
 False = fixed_ren_scale  ! if .true. use fixed ren scale
     False = fixed_fac_scale  ! if .true. use fixed fac scale
 91.188  = scale            ! fixed ren scale
 91.188  = dsqrt_q2fact1    ! fixed fact scale for pdf1
 91.188  = dsqrt_q2fact2    ! fixed fact scale for pdf2
 -1 = dynamical_scale_choice ! Choose one of the preselected dynamical choices
 1.0  = scalefact        ! scale factor for event-by-event scales

 
#*********************************************************************
# Type and output format
#*********************************************************************
  False     = gridpack  !True = setting up the grid pack
  -1.0 = time_of_flight ! threshold (in mm) below which the invariant livetime is not written (-1 means not written)
  average =  event_norm       ! average/sum. Normalization of the weight in the LHEF
# To see MLM/CKKW  merging options: type "update MLM" or "update CKKW"

#*********************************************************************
#
#*********************************************************************
# Phase-Space Optimization strategy (basic options)
#*********************************************************************
   0  = nhel          ! using helicities importance sampling or not.
                             ! 0: sum over helicity, 1: importance sampling
   1  = sde_strategy  ! default integration strategy (hep-ph/2021.00773)
                             ! 1 is old strategy (using amp square)
			     ! 2 is new strategy (using only the denominator)
# To see advanced option for Phase-Space optimization: type "update psoptim"			     
#*********************************************************************
# Customization (custom cuts/scale/bias/...)                         *
# list of files containing fortran function that overwrite default   *
#*********************************************************************
  = custom_fcts ! List of files containing user hook function
#*******************************                                                 
# Parton level cuts definition *
#*******************************
  0.0  = dsqrt_shat ! minimal shat for full process
#                                                                    
#
#*********************************************************************
# BW cutoff (M+/-bwcutoff*Gamma) ! Define on/off-shell for "$" and decay  
#*********************************************************************
  15.0  = bwcutoff      ! (M+/-bwcutoff*Gamma)
#*********************************************************************
# Standard Cuts                                                      *
#*********************************************************************
# Minimum and maximum pt's (for max, -1 means no cut)                *
#*********************************************************************
 20.0  = ptj       ! minimum pt for the jets 
 -1.0  = ptjmax    ! maximum pt for the jets
 {} = pt_min_pdg ! pt cut for other particles (use pdg code). Applied on particle and anti-particle
 {}	= pt_max_pdg ! pt cut for other particles (syntax e.g. {6: 100, 25: 50}) 
#
# For display option for energy cut in the partonic center of mass frame type 'update ecut'
#
#*********************************************************************
# Maximum and minimum absolute rapidity (for max, -1 means no cut)   *
#*********************************************************************
 5.0 = etaj    ! max rap for the jets 
 {} = eta_min_pdg ! rap cut for other particles (use pdg code). Applied on particle and anti-particle
 {} = eta_max_pdg ! rap cut for other particles (syntax e.g. {6: 2.5, 23: 5})
#*********************************************************************
# Minimum and maximum DeltaR distance                                *
#*********************************************************************
 0.4 = drjj    ! min distance between jets 
 -1.0  = drjjmax ! max distance between jets
#*********************************************************************
# Minimum and maximum invariant mass for pairs                       *
#*********************************************************************
 0.0   = mmjj    ! min invariant mass of a jet pair 
 -1.0  = mmjjmax ! max invariant mass of a jet pair
 {} = mxx_min_pdg ! min invariant mass of a pair of particles X/X~ (e.g. {6:250})
 {'default': False} = mxx_only_part_antipart ! if True the invariant mass is applied only 
                       ! to pairs of particle/antiparticle and not to pairs of the same pdg codes.  
#*********************************************************************
# Inclusive cuts                                                     *
#*********************************************************************
 0.0  = ptheavy   ! minimum pt for at least one heavy final state
 0.0  = xptj ! minimum pt for at least one jet  
 #*********************************************************************
 # Control the pt's of the jets sorted by pt                          *
 #*********************************************************************
 0.0   = ptj1min ! minimum pt for the leading jet in pt
 0.0   = ptj2min ! minimum pt for the second jet in pt
 -1.0  = ptj1max ! maximum pt for the leading jet in pt 
 -1.0  = ptj2max ! maximum pt for the second jet in pt
 0   = cutuse  ! reject event if fails any (0) / all (1) jet pt cuts
 #*********************************************************************
 # Control the Ht(k)=Sum of k leading jets                            *
 #*********************************************************************
 0.0   = htjmin ! minimum jet HT=Sum(jet pt)
 -1.0  = htjmax ! maximum jet HT=Sum(jet pt)
 0.0   = ihtmin  !inclusive Ht for all partons (including b)
 -1.0  = ihtmax  !inclusive Ht for all partons (including b)
 #*********************************************************************
 # WBF cuts                                                           *
 #*********************************************************************
 0.0   = xetamin ! minimum rapidity for two jets in the WBF case  
 0.0   = deltaeta ! minimum rapidity for two jets in the WBF case 
#*********************************************************************
# maximal pdg code for quark to be considered as a light jet         *
# (otherwise b cuts are applied)                                     *
#*********************************************************************
 4 = maxjetflavor    ! Maximum jet pdg code
#*********************************************************************
#
#*********************************************************************
# Store info for systematics studies                                 *
# WARNING: Do not use for interference type of computation           *
#*********************************************************************
   True  = use_syst      ! Enable systematics studies
#
systematics = systematics_program ! none, systematics [python], SysCalc [depreceted, C++]
['--mur=0.5,1,2', '--muf=0.5,1,2', '--pdf=errorset'] = systematics_arguments ! see: https://cp3.irmp.ucl.ac.be/projects/madgraph/wiki/Systematics#Systematicspythonmodule

#*********************************************************************
# Options for the cudacpp plugin
#*********************************************************************

# Set cudacpp-specific values of non-cudacpp-specific options
-O3 -ffast-math -fbounds-check = global_flag ! build flags for Fortran code (for a fair comparison to cudacpp)

# New cudacpp-specific options (default values are defined in banner.py)
CPP = cudacpp_backend ! valid backends are FORTRAN, CPP, CUDA
]]>
</MGRunCard>
<slha>
######################################################################
## PARAM_CARD AUTOMATICALY GENERATED BY MG5 FOLLOWING UFO MODEL   ####
######################################################################
##                                                                  ##
##  Width set on Auto will be computed following the information    ##
##        present in the decay.py files of the model.               ##
##        See  arXiv:1402.1178 for more details.                    ##
##                                                                  ##
######################################################################

###################################
## INFORMATION FOR MASS
###################################
Block mass 
    5 4.700000e+00 # MB 
    6 1.730000e+02 # MT 
   15 1.777000e+00 # MTA 
   23 9.118800e+01 # MZ 
   25 1.250000e+02 # MH 
## Dependent parameters, given by model restrictions.
## Those values should be edited following the 
## analytical expression. MG5 ignores those values 
## but they are important for interfacing the output of MG5
## to external program such as Pythia.
  1 0.000000e+00 # d : 0.0 
  2 0.000000e+00 # u : 0.0 
  3 0.000000e+00 # s : 0.0 
  4 0.000000e+00 # c : 0.0 
  11 0.000000e+00 # e- : 0.0 
  12 0.000000e+00 # ve : 0.0 
  13 0.000000e+00 # mu- : 0.0 
  14 0.000000e+00 # vm : 0.0 
  16 0.000000e+00 # vt : 0.0 
  21 0.000000e+00 # g : 0.0 
  22 0.000000e+00 # a : 0.0 
  24 8.041900e+01 # w+ : cmath.sqrt(MZ__exp__2/2. + cmath.sqrt(MZ__exp__4/4. - (aEW*cmath.pi*MZ__exp__2)/(Gf*sqrt__2))) 

###################################
## INFORMATION FOR SMINPUTS
###################################
Block sminputs 
    1 1.325070e+02 # aEWM1 
    2 1.166390e-05 # Gf 
    3 1.180000e-01 # aS (Note that Parameter not used if you use a PDF set) 

###################################
## INFORMATION FOR YUKAWA
###################################
Block yukawa 
    5 4.700000e+00 # ymb 
    6 1.730000e+02 # ymt 
   15 1.777000e+00 # ymtau 

###################################
## INFORMATION FOR DECAY
###################################
DECAY   6 1.491500e+00 # WT 
DECAY  23 2.441404e+00 # WZ 
DECAY  24 2.047600e+00 # WW 
DECAY  25 6.382339e-03 # WH 
## Dependent parameters, given by model restrictions.
## Those values should be edited following the 
## analytical expression. MG5 ignores those values 
## but they are important for interfacing the output of MG5
## to external program such as Pythia.
DECAY  1 0.000000e+00 # d : 0.0 
DECAY  2 0.000000e+00 # u : 0.0 
DECAY  3 0.000000e+00 # s : 0.0 
DECAY  4 0.000000e+00 # c : 0.0 
DECAY  5 0.000000e+00 # b : 0.0 
DECAY  11 0.000000e+00 # e- : 0.0 
DECAY  12 0.000000e+00 # ve : 0.0 
DECAY  13 0.000000e+00 # mu- : 0.0 
DECAY  14 0.000000e+00 # vm : 0.0 
DECAY  15 0.000000e+00 # ta- : 0.0 
DECAY  16 0.000000e+00 # vt : 0.0 
DECAY  21 0.000000e+00 # g : 0.0 
DECAY  22 0.000000e+00 # a : 0.0
</slha>
<MGGenerationInfo>
#  Number of Events        :       100
#  Integrated weight (pb)  :       251.68421346000002
</MGGenerationInfo>
</header>
<init>
2212 2212 6.500000e+03 6.500000e+03 0 0 247000 247000 -4 1
2.516842e+02 5.918385e-01 2.516842e+02 1
<generator name='MadGraph5_aMC@NLO' version='3.5.0_lo_vect'>please cite 1405.0301 </generator>
</init>
<event>
 6      1 +2.5168421e+02 3.27789400e+02 7.54677100e-03 1.16820100e-01
       21 -1    0    0  505  502 +0.0000000000e+00 +0.0000000000e+00 +3.6635434473e+02 3.6635434473e+02 0.0000000000e+00 0.0000e+00 -1.0000e+00
       21 -1    0    0  504  503 -0.0000000000e+00 -0.0000000000e+00 -5.7746491207e+02 5.7746491207e+02 0.0000000000e+00 0.0000e+00 -1.0000e+00
        6  1    1    2  501    0 -1.6106265589e+02 -1.9486318842e+02 -1.1289855985e+02 3.2647806380e+02 1.7300000000e+02 0.0000e+00 -1.0000e+00
       -6  1    1    2    0  503 +2.5927061339e+02 +1.6311724025e+02 -3.5563369920e+01 3.5358483892e+02 1.7300000000e+02 0.0000e+00 -1.0000e+00
       21  1    1    2  504  502 -6.6077941969e+01 -4.7993251501e+01 -1.3069708236e+02 1.5411480767e+02 0.0000000000e+00 0.0000e+00 -1.0000e+00
       21  1    1    2  505  501 -3.2130015538e+01 +7.9739199669e+01 +6.8048444792e+01 1.0964154642e+02 0.0000000000e+00 0.0000e+00 -1.0000e+00
<mgrwt>
<rscale>  4 0.32778940E+03</rscale>
<asrwt>0</asrwt>
<pdfrwt beam="1">  1       21 0.56362207E-01 0.32778940E+03</pdfrwt>
<pdfrwt beam="2">  1       21 0.88840756E-01 0.32778940E+03</pdfrwt>
<totfact> 0.29337916E+03</totfact>
</mgrwt>
</event>
<event>
 6      1 +2.5168421e+02 4.35920500e+02 7.54677100e-03 1.16519500e-01
       21 -1    0    0  505  502 +0.0000000000e+00 +0.0000000000e+00 +1.3466680543e+03 1.3466680543e+03 0.0000000000e+00 0.0000e+00 -1.0000e+00
       21 -1    0    0  504  503 -0.0000000000e+00 -0.0000000000e+00 -3.3374472269e+02 3.3374472269e+02 0.0000000000e+00 0.0000e+00 1.0000e+00
        6  1    1    2  501    0 -7.9615298359e+01 +4.2848595612e+02 -5.4382713057e+01 4.7204373717e+02 1.7300000000e+02 0.0000e+00 1.0000e+00
       -6  1    1    2    0  503 +1.3688207337e+02 -2.4015561575e+02 +7.6751031819e+02 8.3391397057e+02 1.7300000000e+02 0.0000e+00 -1.0000e+00
       21  1    1    2  504  502 -1.7890288770e+01 -5.1630293748e+01 +1.8115751526e+02 1.8921890761e+02 0.0000000000e+00 0.0000e+00 -1.0000e+00
       21  1    1    2  505  501 -3.9376486242e+01 -1.3670004662e+02 +1.1863821122e+02 1.8523616163e+02 0.0000000000e+00 0.0000e+00 1.0000e+00
<mgrwt>
<rscale>  4 0.43592051E+03</rscale>
<asrwt>0</asrwt>
<pdfrwt beam="1">  1       21 0.20717970E+00 0.43592051E+03</pdfrwt>
<pdfrwt beam="2">  1       21 0.51345343E-01 0.43592051E+03</pdfrwt>
<totfact> 0.35824178E+02</totfact>
</mgrwt>
</event>
<event>
 6      1 +2.5168421e+02 2.69100300e+02 7.54677100e-03 1.05831300e-01
       21 -1    0    0  504  502 +0.0000000000e+00 +0.0000000000e+00 +2.9538534489e+02 2.9538534489e+02 0.0000000000e+00 0.0000e+00 -1.0000e+00
       21 -1    0    0  501  503 -0.0000000000e+00 -0.0000000000e+00 -5.3821576528e+02 5.3821576528e+02 0.0000000000e+00 0.0000e+00 1.0000e+00
        6  1    1    2  501    0 -1.4380520936e+02 -1.2428612948e+02 -3.0870320525e+02 4.0168849766e+02 1.7300000000e+02 0.0000e+00 1.0000e+00
       -6  1    1    2    0  505 +2.0506255838e+02 +1.6027890223e+02 -1.2252348587e-01 3.1252039031e+02 1.7300000000e+02 0.0000e+00 -1.0000e+00
       21  1    1    2  504  503 -9.7877871394e+00 +1.9443527158e+01 +5.2935706144e+00 2.2402531448e+01 0.0000000000e+00 0.0000e+00 -1.0000e+00
       21  1    1    2  505  502 -5.1469561883e+01 -5.5436299907e+01 +6.0701737730e+01 9.6989690747e+01 0.0000000000e+00 0.0000e+00 1.0000e+00
<mgrwt>
<rscale>  4 0.26910029E+03</rscale>
<asrwt>0</asrwt>
<pdfrwt beam="1">  1       21 0.45443900E-01 0.26910029E+03</pdfrwt>
<pdfrwt beam="2">  1       21 0.82802425E-01 0.26910029E+03</pdfrwt>
<totfact> 0.56147950E+03</totfact>
</mgrwt>
</event>
<event>
 6      1 +2.5168421e+02 2.10539500e+02 7.54677100e-03 1.12989000e-01
       21 -1    0    0  501  502 +0.0000000000e+00 +0.0000000000e+00 +3.8201027954e+02 3.8201027954e+02 0.0000000000e+00 0.0000e+00 1.0000e+00
       21 -1    0    0  502  503 -0.0000000000e+00 -0.0000000000e+00 -4.3053127678e+02 4.3053127678e+02 0.0000000000e+00 0.0000e+00 -1.0000e+00
        6  1    1    2  501    0 -1.2495212980e+02 -3.1231972995e+01 +2.2190817021e+02 3.0945226915e+02 1.7300000000e+02 0.0000e+00 1.0000e+00
       -6  1    1    2    0  505 +9.8217275770e+01 +2.7514319754e+01 +2.2953574417e+01 2.0213742264e+02 1.7300000000e+02 0.0000e+00 1.0000e+00
       21  1    1    2  504  503 +1.3765202920e+01 +2.0719025201e+01 -2.6077046729e+02 2.6195418574e+02 0.0000000000e+00 0.0000e+00 -1.0000e+00
       21  1    1    2  505  504 +1.2969651110e+01 -1.7001371960e+01 -3.2612274576e+01 3.8997678796e+01 0.0000000000e+00 0.0000e+00 -1.0000e+00
<mgrwt>
<rscale>  4 0.21053951E+03</rscale>
<asrwt>0</asrwt>
<pdfrwt beam="1">  1       21 0.58770813E-01 0.21053951E+03</pdfrwt>
<pdfrwt beam="2">  1       21 0.66235581E-01 0.21053951E+03</pdfrwt>
<totfact> 0.55905081E+03</totfact>
</mgrwt>
</event>
<event>
 6      1 +2.5168421e+02 1.90959700e+02 7.54677100e-03 1.16820100e-01
       21 -1    0    0  503  502 +0.0000000000e+00 +0.0000000000e+00 +2.4732351095e+02 2.4732351095e+02 0.0000000000e+00 0.0000e+00 -1.0000e+00
       21 -1    0    0  501  503 -0.0000000000e+00 -0.0000000000e+00 -4.1622931279e+02 4.1622931279e+02 0.0000000000e+00 0.0000e+00 -1.0000e+00
        6  1    1    2  501    0 -3.4968460689e+01 +5.0114849083e+01 -3.8940401467e+01 1.8756237951e+02 1.7300000000e+02 0.0000e+00 -1.0000e+00
       -6  1    1    2    0  504 -9.9920955019e+01 -9.0962822195e+01 +1.9389008310e+01 2.2037097340e+02 1.7300000000e+02 0.0000e+00 -1.0000e+00
       21  1    1    2  504  505 +1.1321222410e+02 +6.5212089712e+01 -1.7194283375e+02 2.1594898103e+02 0.0000000000e+00 0.0000e+00 -1.0000e+00
       21  1    1    2  505  502 +2.1677191609e+01 -2.4364116600e+01 +2.2588425069e+01 3.9670489798e+01 0.0000000000e+00 0.0000e+00 -1.0000e+00
<mgrwt>
<rscale>  4 0.19095972E+03</rscale>
<asrwt>0</asrwt>
<pdfrwt beam="1">  1       21 0.38049771E-01 0.19095972E+03</pdfrwt>
<pdfrwt beam="2">  1       21 0.64035278E-01 0.19095972E+03</pdfrwt>
<totfact> 0.15014011E+04</totfact>
</mgrwt>
</event>
<event>
 6      1 +2.5168421e+02 1.82310700e+02 7.54677100e-03 1.06249800e-01
       21 -1    0    0  504  502 +0.0000000000e+00 +0.0000000000e+00 +2.2975644979e+01 2.2975644979e+01 0.0000000000e+00 0.0000e+00 1.0000e+00
       21 -1    0    0  501  503 -0.0000000000e+00 -0.0000000000e+00 -2.7389891426e+03 2.7389891426e+03 0.0000000000e+00 0.0000e+00 1.0000e+00
        6  1    1    2  501    0 -3.9774343668e+01 +7.1860697376e+01 -1.5645874547e+03 1.5762642106e+03 1.7300000000e+02 0.0000e+00 -1.0000e+00
       -6  1    1    2    0  505 +1.6956162126e+01 -2.2147607062e+01 -1.0768420705e+03 1.0910068161e+03 1.7300000000e+02 0.0000e+00 1.0000e+00
       21  1    1    2  504  503 +1.5964357093e+00 -2.0302213228e+01 -1.6470743515e+01 2.6191866311e+01 0.0000000000e+00 0.0000e+00 -1.0000e+00
       21  1    1    2  505  502 +2.1221745833e+01 -2.9410877086e+01 -5.8113228909e+01 6.8501894583e+01 0.0000000000e+00 0.0000e+00 -1.0000e+00
<mgrwt>
<rscale>  4 0.18231074E+03</rscale>
<asrwt>0</asrwt>
<pdfrwt beam="1">  1       21 0.35347129E-02 0.18231074E+03</pdfrwt>
<pdfrwt beam="2">  1       21 0.42138315E+00 0.18231074E+03</pdfrwt>
<totfact> 0.31261454E+03</totfact>
</mgrwt>
</event>
<event>
 6      1 +2.5168421e+02 2.91976700e+02 7.54677100e-03 1.16820100e-01
       21 -1    0    0  505  502 +0.0000000000e+00 +0.0000000000e+00 +2.8670372683e+02 2.8670372683e+02 0.0000000000e+00 0.0000e+00 1.0000e+00
       21 -1    0    0  501  503 -0.0000000000e+00 -0.0000000000e+00 -5.4763628547e+02 5.4763628547e+02 0.0000000000e+00 0.0000e+00 1.0000e+00
        6  1    1    2  501    0 +2.4454185144e+02 +7.4059564785e+01 -2.4428536054e+02 3.9356050821e+02 1.7300000000e+02 0.0000e+00 1.0000e+00
       -6  1    1    2    0  502 -2.5540689048e+01 -4.3822335888e+01 -2.0681202145e+01 1.8146469641e+02 1.7300000000e+02 0.0000e+00 -1.0000e+00
       21  1    1    2  504  503 -2.5672006986e+00 -3.5327463160e+01 -2.1319058615e+01 4.1341533994e+01 0.0000000000e+00 0.0000e+00 -1.0000e+00
       21  1    1    2  505  504 -2.1643396170e+02 +5.0902342627e+00 +2.5353062659e+01 2.1797327370e+02 0.0000000000e+00 0.0000e+00 1.0000e+00
<mgrwt>
<rscale>  4 0.25949162E+03</rscale>
<asrwt>0</asrwt>
<pdfrwt beam="1">  1       21 0.44108266E-01 0.29197671E+03</pdfrwt>
<pdfrwt beam="2">  1       21 0.84251736E-01 0.29197671E+03</pdfrwt>
<totfact> 0.56684212E+03</totfact>
</mgrwt>
</event>
<event>
 6      1 +2.5168421e+02 3.31911700e+02 7.54677100e-03 1.06249800e-01
       21 -1    0    0  501  502 +0.0000000000e+00 +0.0000000000e+00 +1.6886407886e+02 1.6886407886e+02 0.0000000000e+00 0.0000e+00 1.0000e+00
       21 -1    0    0  502  503 -0.0000000000e+00 -0.0000000000e+00 -1.3277964369e+03 1.3277964369e+03 0.0000000000e+00 0.0000e+00 1.0000e+00
        6  1    1    2  501    0 -2.3552816819e+02 +4.3009320989e+01 -5.3510543129e+02 6.1122020770e+02 1.7300000000e+02 0.0000e+00 1.0000e+00
       -6  1    1    2    0  504 -6.4353600753e+01 -1.8191090908e+02 -3.6145559490e+02 4.4476073552e+02 1.7300000000e+02 0.0000e+00 -1.0000e+00
       21  1    1    2  504  505 +2.9148817895e+02 +1.5744061390e+02 -2.5790975253e+02 4.1984562142e+02 0.0000000000e+00 0.0000e+00 1.0000e+00
       21  1    1    2  505  503 +8.3935899965e+00 -1.8539025809e+01 -4.4615793513e+00 2.0833951168e+01 0.0000000000e+00 0.0000e+00 -1.0000e+00
<mgrwt>
<rscale>  4 0.31286251E+03</rscale>
<asrwt>0</asrwt>
<pdfrwt beam="1">  1       21 0.25979089E-01 0.33191173E+03</pdfrwt>
<pdfrwt beam="2">  1       21 0.20427637E+00 0.33191173E+03</pdfrwt>
<totfact> 0.15846775E+03</totfact>
</mgrwt>
</event>
<event>
 6      1 +2.5168421e+02 1.75160600e+02 7.54677100e-03 1.15942100e-01
       21 -1    0    0  504  502 +0.0000000000e+00 +0.0000000000e+00 +1.5205350496e+03 1.5205350496e+03 0.0000000000e+00 0.0000e+00 1.0000e+00
       21 -1    0    0  501  503 -0.0000000000e+00 -0.0000000000e+00 -6.0395179068e+01 6.0395179068e+01 0.0000000000e+00 0.0000e+00 1.0000e+00
        6  1    1    2  501    0 -8.3246417882e-01 +9.2377084432e+00 +8.1138398907e+02 8.2967403598e+02 1.7300000000e+02 0.0000e+00 -1.0000e+00
       -6  1    1    2    0  502 +1.9225043605e+01 -4.8769438976e+01 +6.4723225937e+02 6.7200197771e+02 1.7300000000e+02 0.0000e+00 1.0000e+00
       21  1    1    2  504  505 -1.6750675886e+01 +1.3731351310e+01 -3.0931476142e+01 3.7760976785e+01 0.0000000000e+00 0.0000e+00 1.0000e+00
       21  1    1    2  505  503 -1.6419035403e+00 +2.5800379223e+01 +3.2455098271e+01 4.1493238233e+01 0.0000000000e+00 0.0000e+00 1.0000e+00
<mgrwt>
<rscale>  4 0.17516065E+03</rscale>
<asrwt>0</asrwt>
<pdfrwt beam="1">  1       21 0.23392844E+00 0.17516065E+03</pdfrwt>
<pdfrwt beam="2">  1       21 0.92915672E-02 0.17516065E+03</pdfrwt>
<totfact> 0.77821404E+03</totfact>
</mgrwt>
</event>
<event>
 6      1 +2.5168421e+02 3.70255400e+02 7.54677100e-03 1.16820100e-01
       21 -1    0    0  504  502 +0.0000000000e+00 +0.0000000000e+00 +1.3004420688e+03 1.3004420688e+03 0.0000000000e+00 0.0000e+00 1.0000e+00
       21 -1    0    0  501  503 -0.0000000000e+00 -0.0000000000e+00 -3.8715794577e+02 3.8715794577e+02 0.0000000000e+00 0.0000e+00 1.0000e+00
        6  1    1    2  501    0 +2.6988101130e+01 +2.6676327920e+02 +1.2771290637e+02 3.4370131101e+02 1.7300000000e+02 0.0000e+00 -1.0000e+00
       -6  1    1    2    0  505 +2.3191888244e+02 +6.6367805211e+01 +7.1358626437e+02 7.7286830074e+02 1.7300000000e+02 0.0000e+00 1.0000e+00
       21  1    1    2  504  503 -2.3333617979e+02 -3.0289265924e+02 -9.9459295791e+01 3.9507200273e+02 0.0000000000e+00 0.0000e+00 1.0000e+00
       21  1    1    2  505  502 -2.5570803772e+01 -3.0238425173e+01 +1.7144424807e+02 1.7595840008e+02 0.0000000000e+00 0.0000e+00 1.0000e+00
<mgrwt>
<rscale>  4 0.34523748E+03</rscale>
<asrwt>0</asrwt>
<pdfrwt beam="1">  1       21 0.20006801E+00 0.37025542E+03</pdfrwt>
<pdfrwt beam="2">  1       21 0.59562762E-01 0.37025542E+03</pdfrwt>
<totfact> 0.30104287E+02</totfact>
</mgrwt>
</event>
<event>
 6      1 +2.5168421e+02 2.49189300e+02 7.54677100e-03 1.03924000e-01
       21 -1    0    0  504  502 +0.0000000000e+00 +0.0000000000e+00 +6.3158194226e+02 6.3158194226e+02 0.0000000000e+00 0.0000e+00 1.0000e+00
       21 -1    0    0  501  503 -0.0000000000e+00 -0.0000000000e+00 -7.1033853838e+02 7.1033853838e+02 0.0000000000e+00 0.0000e+00 1.0000e+00
        6  1    1    2  501    0 -6.6005369083e+01 +2.0073754265e+02 -2.4792239736e+02 3.6884520451e+02 1.7300000000e+02 0.0000e+00 -1.0000e+00
       -6  1    1    2    0  505 +1.9119979675e+02 -5.0869420540e+01 -3.3556710660e+02 4.2623859898e+02 1.7300000000e+02 0.0000e+00 1.0000e+00
       21  1    1    2  504  503 -1.0569933322e+02 -1.1843592916e+02 +3.0635644397e+02 3.4504157593e+02 0.0000000000e+00 0.0000e+00 1.0000e+00
       21  1    1    2  505  502 -1.9495094447e+01 -3.1432192950e+01 +1.9837646387e+02 2.0179510123e+02 0.0000000000e+00 0.0000e+00 -1.0000e+00
<mgrwt>
<rscale>  4 0.24918934E+03</rscale>
<asrwt>0</asrwt>
<pdfrwt beam="1">  1       21 0.97166453E-01 0.24918934E+03</pdfrwt>
<pdfrwt beam="2">  1       21 0.10928285E+00 0.24918934E+03</pdfrwt>
<totfact> 0.55159294E+02</totfact>
</mgrwt>
</event>
<event>
 6      1 +2.5168421e+02 2.53370600e+02 7.54677100e-03 1.11471900e-01
       21 -1    0    0  503  502 +0.0000000000e+00 +0.0000000000e+00 +1.1648114441e+02 1.1648114441e+02 0.0000000000e+00 0.0000e+00 -1.0000e+00
       21 -1    0    0  501  503 -0.0000000000e+00 -0.0000000000e+00 -1.1126233966e+03 1.1126233966e+03 0.0000000000e+00 0.0000e+00 1.0000e+00
        6  1    1    2  501    0 -2.2806614475e+02 +1.8133944503e+00 -1.9575651904e+02 3.4679542893e+02 1.7300000000e+02 0.0000e+00 1.0000e+00
       -6  1    1    2    0  504 +1.3219917574e+02 -1.5144588306e+01 -7.0184141683e+02 7.3499411902e+02 1.7300000000e+02 0.0000e+00 1.0000e+00
       21  1    1    2  504  505 +5.9003078340e+01 +4.1472657641e+00 -9.1075666342e+01 1.0859714576e+02 0.0000000000e+00 0.0000e+00 -1.0000e+00
       21  1    1    2  505  502 +3.6863890667e+01 +9.1839280918e+00 -7.4686500180e+00 3.8717847350e+01 0.0000000000e+00 0.0000e+00 1.0000e+00
<mgrwt>
<rscale>  4 0.25337059E+03</rscale>
<asrwt>0</asrwt>
<pdfrwt beam="1">  1       21 0.17920177E-01 0.25337059E+03</pdfrwt>
<pdfrwt beam="2">  1       21 0.17117282E+00 0.25337059E+03</pdfrwt>
<totfact> 0.56577611E+03</totfact>
</mgrwt>
</event>
<event>
 6      1 +2.5168421e+02 2.15554500e+02 7.54677100e-03 1.11471900e-01
       21 -1    0    0  503  502 +0.0000000000e+00 +0.0000000000e+00 +1.3702087658e+02 1.3702087658e+02 0.0000000000e+00 0.0000e+00 1.0000e+00
       21 -1    0    0  501  503 -0.0000000000e+00 -0.0000000000e+00 -6.3678744050e+02 6.3678744050e+02 0.0000000000e+00 0.0000e+00 -1.0000e+00
        6  1    1    2  501    0 -7.1312632199e+01 +1.0286342137e+02 -3.8368626528e+01 2.1695051618e+02 1.7300000000e+02 0.0000e+00 1.0000e+00
       -6  1    1    2    0  504 +1.3825638953e+01 -1.5189452544e+02 -3.3036703028e+02 4.0290752022e+02 1.7300000000e+02 0.0000e+00 -1.0000e+00
       21  1    1    2  504  505 +3.3224517331e+01 +4.4622527560e+01 -9.8554883398e+01 1.1317289233e+02 0.0000000000e+00 0.0000e+00 -1.0000e+00
       21  1    1    2  505  502 +2.4262475915e+01 +4.4085765033e+00 -3.2476023716e+01 4.0777388351e+01 0.0000000000e+00 0.0000e+00 -1.0000e+00
<mgrwt>
<rscale>  4 0.21555449E+03</rscale>
<asrwt>0</asrwt>
<pdfrwt beam="1">  1       21 0.21080135E-01 0.21555449E+03</pdfrwt>
<pdfrwt beam="2">  1       21 0.97967299E-01 0.21555449E+03</pdfrwt>
<totfact> 0.17772513E+04</totfact>
</mgrwt>
</event>
<event>
 6      1 +2.5168421e+02 2.18242900e+02 7.54677100e-03 1.16820100e-01
       21 -1    0    0  505  502 +0.0000000000e+00 +0.0000000000e+00 +1.2957519124e+02 1.2957519124e+02 0.0000000000e+00 0.0000e+00 -1.0000e+00
       21 -1    0    0  501  503 -0.0000000000e+00 -0.0000000000e+00 -2.7358264595e+03 2.7358264595e+03 0.0000000000e+00 0.0000e+00 -1.0000e+00
        6  1    1    2  501    0 +1.1417654204e+02 -2.1040004919e+01 -1.3575596126e+03 1.3734540641e+03 1.7300000000e+02 0.0000e+00 -1.0000e+00
       -6  1    1    2    0  502 -1.8979878020e+01 +1.8670399718e+02 -5.7490570178e+02 6.2901842920e+02 1.7300000000e+02 0.0000e+00 1.0000e+00
       21  1    1    2  504  503 +4.7550561460e+01 +2.0402010290e+00 -6.3804461674e+02 6.3981727959e+02 0.0000000000e+00 0.0000e+00 -1.0000e+00
       21  1    1    2  505  504 -1.4274722548e+02 -1.6770419329e+02 -3.5741337129e+01 2.2311187779e+02 0.0000000000e+00 0.0000e+00 -1.0000e+00
<mgrwt>
<rscale>  4 0.21710585E+03</rscale>
<asrwt>0</asrwt>
<pdfrwt beam="1">  1       21 0.19934647E-01 0.21824286E+03</pdfrwt>
<pdfrwt beam="2">  1       21 0.42089634E+00 0.21824286E+03</pdfrwt>
<totfact> 0.14307555E+02</totfact>
</mgrwt>
</event>
<event>
 6      1 +2.5168421e+02 3.55374100e+02 7.54677100e-03 1.03924000e-01
       21 -1    0    0  504  502 +0.0000000000e+00 +0.0000000000e+00 +4.2605128230e+02 4.2605128230e+02 0.0000000000e+00 0.0000e+00 -1.0000e+00
       21 -1    0    0  501  503 -0.0000000000e+00 -0.0000000000e+00 -9.0410214148e+02 9.0410214148e+02 0.0000000000e+00 0.0000e+00 1.0000e+00
        6  1    1    2  501    0 -3.6136844865e+02 -1.0181691401e+01 -4.6125020313e+02 6.1104138355e+02 1.7300000000e+02 0.0000e+00 1.0000e+00
       -6  1    1    2    0  505 +2.5728290792e+02 +6.3672042814e+01 -2.7835331411e+02 4.2149518529e+02 1.7300000000e+02 0.0000e+00 -1.0000e+00
       21  1    1    2  504  503 +9.3938839556e+01 -8.3422912999e+00 +1.9435199754e+02 2.1602499473e+02 0.0000000000e+00 0.0000e+00 -1.0000e+00
       21  1    1    2  505  502 +1.0146701179e+01 -4.5148060113e+01 +6.7200660525e+01 8.1591860205e+01 0.0000000000e+00 0.0000e+00 1.0000e+00
<mgrwt>
<rscale>  4 0.35537409E+03</rscale>
<asrwt>0</asrwt>
<pdfrwt beam="1">  1       21 0.65546352E-01 0.35537409E+03</pdfrwt>
<pdfrwt beam="2">  1       21 0.13909264E+00 0.35537409E+03</pdfrwt>
<totfact> 0.68541646E+02</totfact>
</mgrwt>
</event>
<event>
 6      1 +2.5168421e+02 1.76992900e+02 7.54677100e-03 1.16820100e-01
       21 -1    0    0  501  502 +0.0000000000e+00 +0.0000000000e+00 +6.6484439914e+02 6.6484439914e+02 0.0000000000e+00 0.0000e+00 -1.0000e+00
       21 -1    0    0  504  503 -0.0000000000e+00 -0.0000000000e+00 -1.5444317062e+02 1.5444317062e+02 0.0000000000e+00 0.0000e+00 -1.0000e+00
        6  1    1    2  501    0 -3.2420332962e+00 -2.8758676081e+01 +3.8619321342e+02 4.2416007629e+02 1.7300000000e+02 0.0000e+00 -1.0000e+00
       -6  1    1    2    0  503 +1.6285487001e+00 +1.9248690691e+01 +4.6916334274e+01 1.8028673464e+02 1.7300000000e+02 0.0000e+00 -1.0000e+00
       21  1    1    2  504  505 -1.6201761977e+00 +2.9450965906e+01 -6.4864800574e+01 7.1256064424e+01 0.0000000000e+00 0.0000e+00 -1.0000e+00
       21  1    1    2  505  502 +3.2336607938e+00 -1.9940980517e+01 +1.4215648139e+02 1.4358469441e+02 0.0000000000e+00 0.0000e+00 -1.0000e+00
<mgrwt>
<rscale>  4 0.17699285E+03</rscale>
<asrwt>0</asrwt>
<pdfrwt beam="1">  1       21 0.10228375E+00 0.17699285E+03</pdfrwt>
<pdfrwt beam="2">  1       21 0.23760488E-01 0.17699285E+03</pdfrwt>
<totfact> 0.13120804E+04</totfact>
</mgrwt>
</event>
<event>
 6      1 +2.5168421e+02 1.90169000e+02 7.54677100e-03 1.03924000e-01
       21 -1    0    0  501  502 +0.0000000000e+00 +0.0000000000e+00 +2.5209774397e+02 2.5209774397e+02 0.0000000000e+00 0.0000e+00 -1.0000e+00
       21 -1    0    0  502  503 -0.0000000000e+00 -0.0000000000e+00 -2.3443485539e+02 2.3443485539e+02 0.0000000000e+00 0.0000e+00 1.0000e+00
        6  1    1    2  501    0 +6.2186845094e+01 -1.7640343623e+01 +5.4576919852e+01 1.9257732371e+02 1.7300000000e+02 0.0000e+00 -1.0000e+00
       -6  1    1    2    0  505 -1.0465975938e+02 -4.7316106453e+01 -1.0966330599e+01 2.0794648247e+02 1.7300000000e+02 0.0000e+00 -1.0000e+00
       21  1    1    2  504  503 +2.4857931326e+01 +3.4445253122e+01 -2.7737746772e+01 5.0732384218e+01 0.0000000000e+00 0.0000e+00 1.0000e+00
       21  1    1    2  505  504 +1.7614982961e+01 +3.0511196954e+01 +1.7900461043e+00 3.5276408963e+01 0.0000000000e+00 0.0000e+00 1.0000e+00
<mgrwt>
<rscale>  4 0.19016900E+03</rscale>
<asrwt>0</asrwt>
<pdfrwt beam="1">  1       21 0.38784268E-01 0.19016900E+03</pdfrwt>
<pdfrwt beam="2">  1       21 0.36066901E-01 0.19016900E+03</pdfrwt>
<totfact> 0.47577400E+04</totfact>
</mgrwt>
</event>
<event>
 6      1 +2.5168421e+02 2.04242400e+02 7.54677100e-03 1.16820100e-01
       21 -1    0    0  504  502 +0.0000000000e+00 +0.0000000000e+00 +2.3973727138e+02 2.3973727138e+02 0.0000000000e+00 0.0000e+00 -1.0000e+00
       21 -1    0    0  501  503 -0.0000000000e+00 -0.0000000000e+00 -1.6934698124e+03 1.6934698124e+03 0.0000000000e+00 0.0000e+00 -1.0000e+00
        6  1    1    2  501    0 -1.3420189391e+02 -2.7821603268e+01 -2.4791143891e+02 3.3192359284e+02 1.7300000000e+02 0.0000e+00 1.0000e+00
       -6  1    1    2    0  505 +8.9933237114e+01 +2.1568927287e+01 -8.5075571491e-04 1.9616881955e+02 1.7300000000e+02 0.0000e+00 1.0000e+00
       21  1    1    2  504  503 +2.9172670304e+01 +4.6346428875e+01 -1.3002595655e+03 1.3014122997e+03 0.0000000000e+00 0.0000e+00 -1.0000e+00
       21  1    1    2  505  502 +1.5095986488e+01 -4.0093752895e+01 +9.4439314165e+01 1.0370237167e+02 0.0000000000e+00 0.0000e+00 1.0000e+00
<mgrwt>
<rscale>  4 0.20424240E+03</rscale>
<asrwt>0</asrwt>
<pdfrwt beam="1">  1       21 0.36882656E-01 0.20424240E+03</pdfrwt>
<pdfrwt beam="2">  1       21 0.26053383E+00 0.20424240E+03</pdfrwt>
<totfact> 0.40272661E+02</totfact>
</mgrwt>
</event>
<event>
 6      1 +2.5168421e+02 2.03366400e+02 7.54677100e-03 1.11910500e-01
       21 -1    0    0  501  502 +0.0000000000e+00 +0.0000000000e+00 +2.1448747364e+02 2.1448747364e+02 0.0000000000e+00 0.0000e+00 1.0000e+00
       21 -1    0    0  504  503 -0.0000000000e+00 -0.0000000000e+00 -8.5116606653e+02 8.5116606653e+02 0.0000000000e+00 0.0000e+00 1.0000e+00
        6  1    1    2  501    0 -3.3380950433e+01 -9.5152132296e+01 +7.3433042674e+01 2.1328297609e+02 1.7300000000e+02 0.0000e+00 1.0000e+00
       -6  1    1    2    0  503 -5.2734439698e+01 +1.4873362460e+02 -2.4060809876e+02 3.3574375557e+02 1.7300000000e+02 0.0000e+00 1.0000e+00
       21  1    1    2  504  505 -4.9937029740e+01 +7.1368251910e+00 -2.2269045241e+02 2.2833238668e+02 0.0000000000e+00 0.0000e+00 1.0000e+00
       21  1    1    2  505  502 +1.3605241987e+02 -6.0718317496e+01 -2.4681308439e+02 2.8829442183e+02 0.0000000000e+00 0.0000e+00 1.0000e+00
<mgrwt>
<rscale>  4 0.20336642E+03</rscale>
<asrwt>0</asrwt>
<pdfrwt beam="1">  1       21 0.32998073E-01 0.20336642E+03</pdfrwt>
<pdfrwt beam="2">  1       21 0.13094863E+00 0.20336642E+03</pdfrwt>
<totfact> 0.37182223E+03</totfact>
</mgrwt>
</event>
<event>
 6      1 +2.5168421e+02 2.38695500e+02 7.54677100e-03 1.16820100e-01
       21 -1    0    0  505  502 +0.0000000000e+00 +0.0000000000e+00 +1.0368567140e+03 1.0368567140e+03 0.0000000000e+00 0.0000e+00 -1.0000e+00
       21 -1    0    0  504  503 -0.0000000000e+00 -0.0000000000e+00 -1.2934083192e+02 1.2934083192e+02 0.0000000000e+00 0.0000e+00 -1.0000e+00
        6  1    1    2  501    0 -1.1701974000e+02 -9.6587225204e+01 +5.1086787019e+02 5.6030142996e+02 1.7300000000e+02 0.0000e+00 -1.0000e+00
       -6  1    1    2    0  503 +1.0660164781e+02 +1.3109094675e+02 +1.5390993343e+02 2.8664614988e+02 1.7300000000e+02 0.0000e+00 -1.0000e+00
       21  1    1    2  504  502 -1.3324403923e+01 +1.5423610194e+01 -3.2583141517e+01 3.8432910409e+01 0.0000000000e+00 0.0000e+00 -1.0000e+00
       21  1    1    2  505  501 +2.3742496121e+01 -4.9927331741e+01 +2.7532121994e+02 2.8081705562e+02 0.0000000000e+00 0.0000e+00 -1.0000e+00
<mgrwt>
<rscale>  4 0.23869547E+03</rscale>
<asrwt>0</asrwt>
<pdfrwt beam="1">  1       21 0.15951641E+00 0.23869547E+03</pdfrwt>
<pdfrwt beam="2">  1       21 0.19898590E-01 0.23869547E+03</pdfrwt>
<totfact> 0.57060124E+03</totfact>
</mgrwt>
</event>
<event>
 6      1 +2.5168421e+02 1.75504100e+02 7.54677100e-03 1.03924000e-01
       21 -1    0    0  504  502 +0.0000000000e+00 +0.0000000000e+00 +1.5613773347e+03 1.5613773347e+03 0.0000000000e+00 0.0000e+00 -1.0000e+00
       21 -1    0    0  501  503 -0.0000000000e+00 -0.0000000000e+00 -6.6035116390e+01 6.6035116390e+01 0.0000000000e+00 0.0000e+00 -1.0000e+00
        6  1    1    2  501    0 +1.6497012923e+01 +2.6791874787e+01 +8.0171486774e+01 1.9325222711e+02 1.7300000000e+02 0.0000e+00 -1.0000e+00
       -6  1    1    2    0  505 -3.8689090350e+01 +7.7918512278e+00 +9.0547689407e+02 9.2269982354e+02 1.7300000000e+02 0.0000e+00 -1.0000e+00
       21  1    1    2  504  503 +1.4559617715e+01 -1.5157267623e+01 +2.1346458856e+02 2.1449675009e+02 0.0000000000e+00 0.0000e+00 1.0000e+00
       21  1    1    2  505  502 +7.6324597130e+00 -1.9426458391e+01 +2.9622924890e+02 2.9696365035e+02 0.0000000000e+00 0.0000e+00 -1.0000e+00
<mgrwt>
<rscale>  4 0.17550414E+03</rscale>
<asrwt>0</asrwt>
<pdfrwt beam="1">  1       21 0.24021187E+00 0.17550414E+03</pdfrwt>
<pdfrwt beam="2">  1       21 0.10159250E-01 0.17550414E+03</pdfrwt>
<totfact> 0.61012241E+03</totfact>
</mgrwt>
</event>
<event>
 6      1 +2.5168421e+02 1.82317600e+02 7.54677100e-03 1.03924000e-01
       21 -1    0    0  504  502 +0.0000000000e+00 +0.0000000000e+00 +6.3761397255e+02 6.3761397255e+02 0.0000000000e+00 0.0000e+00 -1.0000e+00
       21 -1    0    0  501  503 -0.0000000000e+00 -0.0000000000e+00 -1.3634300342e+03 1.3634300342e+03 0.0000000000e+00 0.0000e+00 -1.0000e+00
        6  1    1    2  501    0 +3.0203981643e+01 +3.0610438216e+01 -9.1032866842e+01 2.0016308921e+02 1.7300000000e+02 0.0000e+00 1.0000e+00
       -6  1    1    2    0  505 -2.3936909655e+01 -5.4693867538e+01 -1.2098317368e+03 1.2235956139e+03 1.7300000000e+02 0.0000e+00 -1.0000e+00
       21  1    1    2  504  503 -2.4682632043e+01 +1.2888811519e+01 +3.8835856496e+02 3.8935553003e+02 0.0000000000e+00 0.0000e+00 -1.0000e+00
       21  1    1    2  505  502 +1.8415560055e+01 +1.1194617804e+01 +1.8668997703e+02 1.8792977370e+02 0.0000000000e+00 0.0000e+00 1.0000e+00
<mgrwt>
<rscale>  4 0.18231762E+03</rscale>
<asrwt>0</asrwt>
<pdfrwt beam="1">  1       21 0.98094458E-01 0.18231762E+03</pdfrwt>
<pdfrwt beam="2">  1       21 0.20975846E+00 0.18231762E+03</pdfrwt>
<totfact> 0.10161829E+02</totfact>
</mgrwt>
</event>
<event>
 6      1 +2.5168421e+02 2.01742700e+02 7.54677100e-03 1.12989000e-01
       21 -1    0    0  503  502 +0.0000000000e+00 +0.0000000000e+00 +2.4436587106e+02 2.4436587106e+02 0.0000000000e+00 0.0000e+00 1.0000e+00
       21 -1    0    0  505  503 -0.0000000000e+00 -0.0000000000e+00 -8.2705196346e+02 8.2705196346e+02 0.0000000000e+00 0.0000e+00 1.0000e+00
        6  1    1    2  501    0 -1.0145952312e+01 +1.5769310399e+02 -5.1858731274e+01 2.3997579754e+02 1.7300000000e+02 0.0000e+00 1.0000e+00
       -6  1    1    2    0  502 -9.5522388282e-01 -8.0932745495e+01 +8.5941978234e+01 2.0944222442e+02 1.7300000000e+02 0.0000e+00 1.0000e+00
       21  1    1    2  504  501 -1.5910356597e+00 -5.5752768420e+01 -4.0889256520e+02 4.1267909137e+02 0.0000000000e+00 0.0000e+00 1.0000e+00
       21  1    1    2  505  504 +1.2692211854e+01 -2.1007590077e+01 -2.0787677416e+02 2.0932072119e+02 0.0000000000e+00 0.0000e+00 1.0000e+00
<mgrwt>
<rscale>  4 0.20174272E+03</rscale>
<asrwt>0</asrwt>
<pdfrwt beam="1">  1       21 0.37594749E-01 0.20174272E+03</pdfrwt>
<pdfrwt beam="2">  1       21 0.12723876E+00 0.20174272E+03</pdfrwt>
<totfact> 0.30887632E+03</totfact>
</mgrwt>
</event>
<event>
 6      1 +2.5168421e+02 2.93469000e+02 7.54677100e-03 1.15942100e-01
       21 -1    0    0  504  502 +0.0000000000e+00 +0.0000000000e+00 +1.9252217013e+03 1.9252217013e+03 0.0000000000e+00 0.0000e+00 -1.0000e+00
       21 -1    0    0  501  503 -0.0000000000e+00 -0.0000000000e+00 -2.4241059435e+02 2.4241059435e+02 0.0000000000e+00 0.0000e+00 -1.0000e+00
        6  1    1    2  501    0 +8.7430063463e+01 +1.3154410232e+02 +3.0437006527e+01 2.3622717502e+02 1.7300000000e+02 0.0000e+00 1.0000e+00
       -6  1    1    2    0  502 -4.5778219193e+01 -2.4462990079e+02 +1.7000537227e+03 1.7268616313e+03 1.7300000000e+02 0.0000e+00 -1.0000e+00
       21  1    1    2  504  505 +3.8476205715e+01 -1.3868257415e+01 +1.2557078014e+01 4.2783491889e+01 0.0000000000e+00 0.0000e+00 -1.0000e+00
       21  1    1    2  505  503 -8.0128049985e+01 +1.2695405589e+02 -6.0236700285e+01 1.6175999741e+02 0.0000000000e+00 0.0000e+00 -1.0000e+00
<mgrwt>
<rscale>  4 0.29346900E+03</rscale>
<asrwt>0</asrwt>
<pdfrwt beam="1">  1       21 0.29618794E+00 0.29346900E+03</pdfrwt>
<pdfrwt beam="2">  1       21 0.37293939E-01 0.29346900E+03</pdfrwt>
<totfact> 0.22009208E+02</totfact>
</mgrwt>
</event>
<event>
 6      1 +2.5168421e+02 2.70675100e+02 7.54677100e-03 1.16820100e-01
       21 -1    0    0  504  502 +0.0000000000e+00 +0.0000000000e+00 +1.9604221679e+03 1.9604221679e+03 0.0000000000e+00 0.0000e+00 -1.0000e+00
       21 -1    0    0  501  503 -0.0000000000e+00 -0.0000000000e+00 -3.4001740454e+02 3.4001740454e+02 0.0000000000e+00 0.0000e+00 -1.0000e+00
        6  1    1    2  501    0 -1.6927735255e+02 +5.5834853602e+01 +2.5308696297e+02 3.5461861737e+02 1.7300000000e+02 0.0000e+00 -1.0000e+00
       -6  1    1    2    0  505 -3.6429493772e+01 -1.3310621447e+02 +9.1945150817e+02 9.4570843722e+02 1.7300000000e+02 0.0000e+00 -1.0000e+00
       21  1    1    2  504  503 -1.8015177689e+01 +9.6906503608e+01 -2.4908095131e+02 2.6787448064e+02 0.0000000000e+00 0.0000e+00 -1.0000e+00
       21  1    1    2  505  502 +2.2372202401e+02 -1.9635142738e+01 +6.9694724354e+02 7.3223803721e+02 0.0000000000e+00 0.0000e+00 -1.0000e+00
<mgrwt>
<rscale>  4 0.25487548E+03</rscale>
<asrwt>0</asrwt>
<pdfrwt beam="1">  1       21 0.30160340E+00 0.27067509E+03</pdfrwt>
<pdfrwt beam="2">  1       21 0.52310371E-01 0.27067509E+03</pdfrwt>
<totfact> 0.10408777E+02</totfact>
</mgrwt>
</event>
<event>
 6      1 +2.5168421e+02 3.16108300e+02 7.54677100e-03 1.05831300e-01
       21 -1    0    0  504  502 +0.0000000000e+00 +0.0000000000e+00 +9.9707064906e+02 9.9707064906e+02 0.0000000000e+00 0.0000e+00 1.0000e+00
       21 -1    0    0  501  503 -0.0000000000e+00 -0.0000000000e+00 -4.2764987043e+02 4.2764987043e+02 0.0000000000e+00 0.0000e+00 -1.0000e+00
        6  1    1    2  501    0 +2.6300839910e+02 -5.7675797054e+01 +7.1937007974e+02 7.8735140006e+02 1.7300000000e+02 0.0000e+00 1.0000e+00
       -6  1    1    2    0  505 -2.3644819467e+02 +5.6525681498e+01 -2.8013500622e+02 4.0927682947e+02 1.7300000000e+02 0.0000e+00 -1.0000e+00
       21  1    1    2  504  503 -2.9003108119e+01 -2.9438180780e+01 -3.8594759522e+01 5.6545046032e+01 0.0000000000e+00 0.0000e+00 1.0000e+00
       21  1    1    2  505  502 +2.4429036885e+00 +3.0588296336e+01 +1.6878046464e+02 1.7154724392e+02 0.0000000000e+00 0.0000e+00 1.0000e+00
<mgrwt>
<rscale>  4 0.31610833E+03</rscale>
<asrwt>0</asrwt>
<pdfrwt beam="1">  1       21 0.15339548E+00 0.31610833E+03</pdfrwt>
<pdfrwt beam="2">  1       21 0.65792288E-01 0.31610833E+03</pdfrwt>
<totfact> 0.53659468E+02</totfact>
</mgrwt>
</event>
<event>
 6      1 +2.5168421e+02 3.11310100e+02 7.54677100e-03 1.16820100e-01
       21 -1    0    0  501  502 +0.0000000000e+00 +0.0000000000e+00 +5.0178103753e+02 5.0178103753e+02 0.0000000000e+00 0.0000e+00 1.0000e+00
       21 -1    0    0  504  503 -0.0000000000e+00 -0.0000000000e+00 -3.2552346645e+02 3.2552346645e+02 0.0000000000e+00 0.0000e+00 1.0000e+00
        6  1    1    2  501    0 +3.9116911669e+01 +2.2633050371e+02 +1.6913738573e+02 3.3360468363e+02 1.7300000000e+02 0.0000e+00 1.0000e+00
       -6  1    1    2    0  503 -2.8820878456e+01 -2.8671688519e+02 -1.0426673764e+02 3.5190590769e+02 1.7300000000e+02 0.0000e+00 1.0000e+00
       21  1    1    2  504  505 -9.4858419142e+00 +2.7103292386e+01 +3.5491814184e+00 2.8933826981e+01 0.0000000000e+00 0.0000e+00 1.0000e+00
       21  1    1    2  505  502 -8.1019129896e-01 +3.3283089090e+01 +1.0783774159e+02 1.1286008568e+02 0.0000000000e+00 0.0000e+00 1.0000e+00
<mgrwt>
<rscale>  4 0.31131006E+03</rscale>
<asrwt>0</asrwt>
<pdfrwt beam="1">  1       21 0.77197082E-01 0.31131006E+03</pdfrwt>
<pdfrwt beam="2">  1       21 0.50080533E-01 0.31131006E+03</pdfrwt>
<totfact> 0.52611942E+03</totfact>
</mgrwt>
</event>
<event>
 6      1 +2.5168421e+02 1.75524400e+02 7.54677100e-03 1.03924000e-01
       21 -1    0    0  504  502 +0.0000000000e+00 +0.0000000000e+00 +2.0887631486e+02 2.0887631486e+02 0.0000000000e+00 0.0000e+00 -1.0000e+00
       21 -1    0    0  501  503 -0.0000000000e+00 -0.0000000000e+00 -3.3549200227e+02 3.3549200227e+02 0.0000000000e+00 0.0000e+00 -1.0000e+00
        6  1    1    2  501    0 +1.0803198035e+01 -6.6421392018e+01 -1.1360452779e+02 2.1763156742e+02 1.7300000000e+02 0.0000e+00 -1.0000e+00
       -6  1    1    2    0  505 -2.8461673145e+01 -2.4162594626e+01 -8.6785162357e+01 1.9711560624e+02 1.7300000000e+02 0.0000e+00 -1.0000e+00
       21  1    1    2  504  503 -1.5471658453e+01 +4.6531761701e+01 +4.8546310821e+01 6.9002328632e+01 0.0000000000e+00 0.0000e+00 -1.0000e+00
       21  1    1    2  505  502 +3.3130133563e+01 +4.4052224943e+01 +2.5227691912e+01 6.0618814831e+01 0.0000000000e+00 0.0000e+00 -1.0000e+00
<mgrwt>
<rscale>  4 0.17552440E+03</rscale>
<asrwt>0</asrwt>
<pdfrwt beam="1">  1       21 0.32134818E-01 0.17552440E+03</pdfrwt>
<pdfrwt beam="2">  1       21 0.51614153E-01 0.17552440E+03</pdfrwt>
<totfact> 0.33517121E+04</totfact>
</mgrwt>
</event>
<event>
 6      1 +2.5168421e+02 2.51831200e+02 7.54677100e-03 1.11896800e-01
       21 -1    0    0  501  502 +0.0000000000e+00 +0.0000000000e+00 +4.6595367225e+02 4.6595367225e+02 0.0000000000e+00 0.0000e+00 -1.0000e+00
       21 -1    0    0  502  503 -0.0000000000e+00 -0.0000000000e+00 -2.6171128785e+02 2.6171128785e+02 0.0000000000e+00 0.0000e+00 -1.0000e+00
        6  1    1    2  501    0 -1.4149587792e+01 +1.2854796583e+02 +1.3916980261e+02 2.5694751275e+02 1.7300000000e+02 0.0000e+00 -1.0000e+00
       -6  1    1    2    0  505 +1.3181978858e+02 +6.8121532575e+01 +4.2944421113e+01 2.3192719368e+02 1.7300000000e+02 0.0000e+00 1.0000e+00
       21  1    1    2  504  503 -2.3380977613e+01 -1.8715129015e+01 +2.2400590424e+01 3.7399366565e+01 0.0000000000e+00 0.0000e+00 -1.0000e+00
       21  1    1    2  505  504 -9.4289223175e+01 -1.7795436939e+02 -2.7242974607e-01 2.0139088710e+02 0.0000000000e+00 0.0000e+00 -1.0000e+00
<mgrwt>
<rscale>  4 0.24235003E+03</rscale>
<asrwt>0</asrwt>
<pdfrwt beam="1">  1       21 0.71685180E-01 0.25183124E+03</pdfrwt>
<pdfrwt beam="2">  1       21 0.40263275E-01 0.25183124E+03</pdfrwt>
<totfact> 0.10072588E+04</totfact>
</mgrwt>
</event>
<event>
 6      1 +2.5168421e+02 2.69611500e+02 7.54677100e-03 1.16820100e-01
       21 -1    0    0  504  502 +0.0000000000e+00 +0.0000000000e+00 +4.1449127036e+02 4.1449127036e+02 0.0000000000e+00 0.0000e+00 -1.0000e+00
       21 -1    0    0  501  503 -0.0000000000e+00 -0.0000000000e+00 -9.2980476094e+02 9.2980476094e+02 0.0000000000e+00 0.0000e+00 1.0000e+00
        6  1    1    2  501    0 -5.5336910735e+01 +6.5921412264e+01 -3.1009015196e+02 3.6536654010e+02 1.7300000000e+02 0.0000e+00 1.0000e+00
       -6  1    1    2    0  505 +1.2420687894e+02 +8.3869995871e+01 -6.2375614582e+01 2.3723667988e+02 1.7300000000e+02 0.0000e+00 -1.0000e+00
       21  1    1    2  504  503 +3.6375913017e+01 +5.2323772908e+01 -3.9599468524e+02 4.0108948502e+02 0.0000000000e+00 0.0000e+00 1.0000e+00
       21  1    1    2  505  502 -1.0524588123e+02 -2.0211518104e+02 +2.5314696120e+02 3.4060332630e+02 0.0000000000e+00 0.0000e+00 -1.0000e+00
<mgrwt>
<rscale>  4 0.25083713E+03</rscale>
<asrwt>0</asrwt>
<pdfrwt beam="1">  1       21 0.63767889E-01 0.26961151E+03</pdfrwt>
<pdfrwt beam="2">  1       21 0.14304688E+00 0.26961151E+03</pdfrwt>
<totfact> 0.71611133E+02</totfact>
</mgrwt>
</event>
<event>
 6      1 +2.5168421e+02 1.98735200e+02 7.54677100e-03 1.12068800e-01
       21 -1    0    0  504  502 +0.0000000000e+00 +0.0000000000e+00 +1.1366661876e+03 1.1366661876e+03 0.0000000000e+00 0.0000e+00 1.0000e+00
       21 -1    0    0  502  503 -0.0000000000e+00 -0.0000000000e+00 -5.5127654903e+01 5.5127654903e+01 0.0000000000e+00 0.0000e+00 1.0000e+00
        6  1    1    2  501    0 -6.2337290588e+01 +9.8201320019e+01 +5.7827975500e+02 6.1470798928e+02 1.7300000000e+02 0.0000e+00 1.0000e+00
       -6  1    1    2    0  505 +6.1574908617e+01 -4.6761833825e+01 +3.6153813764e+02 4.0818741216e+02 1.7300000000e+02 0.0000e+00 1.0000e+00
       21  1    1    2  504  501 -3.2847844295e+01 -4.7252645095e+01 +9.7201024335e+01 1.1295942845e+02 0.0000000000e+00 0.0000e+00 -1.0000e+00
       21  1    1    2  505  503 +3.3610226266e+01 -4.1868410980e+00 +4.4519615723e+01 5.5939012613e+01 0.0000000000e+00 0.0000e+00 1.0000e+00
<mgrwt>
<rscale>  4 0.19873518E+03</rscale>
<asrwt>0</asrwt>
<pdfrwt beam="1">  1       21 0.17487170E+00 0.19873518E+03</pdfrwt>
<pdfrwt beam="2">  1       21 0.84811785E-02 0.19873518E+03</pdfrwt>
<totfact> 0.21294732E+04</totfact>
</mgrwt>
</event>
<event>
 6      1 +2.5168421e+02 2.39622200e+02 7.54677100e-03 1.06249800e-01
       21 -1    0    0  505  502 +0.0000000000e+00 +0.0000000000e+00 +5.4089581327e+02 5.4089581327e+02 0.0000000000e+00 0.0000e+00 1.0000e+00
       21 -1    0    0  501  503 -0.0000000000e+00 -0.0000000000e+00 -3.2895106925e+02 3.2895106925e+02 0.0000000000e+00 0.0000e+00 1.0000e+00
        6  1    1    2  501    0 +1.0076149617e+02 +1.1736968685e+02 +5.1811497469e+01 2.3778552053e+02 1.7300000000e+02 0.0000e+00 1.0000e+00
       -6  1    1    2    0  502 -1.5289579428e+02 -8.3117453829e+01 -1.6761874912e+02 2.9717112931e+02 1.7300000000e+02 0.0000e+00 1.0000e+00
       21  1    1    2  504  503 +3.1039899073e+01 -2.2076135766e+01 +1.2483474947e+02 1.3051645789e+02 0.0000000000e+00 0.0000e+00 -1.0000e+00
       21  1    1    2  505  504 +2.1094399035e+01 -1.2176097253e+01 +2.0291724620e+02 2.0437377479e+02 0.0000000000e+00 0.0000e+00 -1.0000e+00
<mgrwt>
<rscale>  4 0.23962217E+03</rscale>
<asrwt>0</asrwt>
<pdfrwt beam="1">  1       21 0.83214741E-01 0.23962217E+03</pdfrwt>
<pdfrwt beam="2">  1       21 0.50607857E-01 0.23962217E+03</pdfrwt>
<totfact> 0.45147071E+03</totfact>
</mgrwt>
</event>
<event>
 6      1 +2.5168421e+02 1.80236400e+02 7.54677100e-03 1.16820100e-01
       21 -1    0    0  505  502 +0.0000000000e+00 +0.0000000000e+00 +1.1659665096e+03 1.1659665096e+03 0.0000000000e+00 0.0000e+00 1.0000e+00
       21 -1    0    0  501  503 -0.0000000000e+00 -0.0000000000e+00 -9.0662788628e+01 9.0662788628e+01 0.0000000000e+00 0.0000e+00 1.0000e+00
        6  1    1    2  501    0 -1.3295502481e+01 -3.0256557968e+01 +6.0475428922e+01 1.8622166144e+02 1.7300000000e+02 0.0000e+00 1.0000e+00
       -6  1    1    2    0  502 +7.5035761622e+01 -9.9133391413e+00 +7.9896160433e+02 8.2097337655e+02 1.7300000000e+02 0.0000e+00 1.0000e+00
       21  1    1    2  504  503 -3.9465994065e+01 +3.2352094030e+01 +2.4483913998e+01 5.6601101759e+01 0.0000000000e+00 0.0000e+00 1.0000e+00
       21  1    1    2  505  504 -2.2274265075e+01 +7.8178030793e+00 +1.9138277370e+02 1.9283315845e+02 0.0000000000e+00 0.0000e+00 1.0000e+00
<mgrwt>
<rscale>  4 0.18023637E+03</rscale>
<asrwt>0</asrwt>
<pdfrwt beam="1">  1       21 0.17937945E+00 0.18023637E+03</pdfrwt>
<pdfrwt beam="2">  1       21 0.13948122E-01 0.18023637E+03</pdfrwt>
<totfact> 0.83113738E+03</totfact>
</mgrwt>
</event>
<event>
 6      1 +2.5168421e+02 1.84399000e+02 7.54677100e-03 1.11910500e-01
       21 -1    0    0  501  502 +0.0000000000e+00 +0.0000000000e+00 +2.3800413221e+02 2.3800413221e+02 0.0000000000e+00 0.0000e+00 1.0000e+00
       21 -1    0    0  504  503 -0.0000000000e+00 -0.0000000000e+00 -1.2349787094e+03 1.2349787094e+03 0.0000000000e+00 0.0000e+00 1.0000e+00
        6  1    1    2  501    0 -6.1722644746e+01 -1.2077923453e+01 +1.4487352281e+02 2.3424965042e+02 1.7300000000e+02 0.0000e+00 1.0000e+00
       -6  1    1    2    0  503 +3.9635116256e+01 +1.4751469899e+02 -6.0986994110e+02 6.5207505237e+02 1.7300000000e+02 0.0000e+00 1.0000e+00
       21  1    1    2  504  505 +2.9318989142e+01 +3.3846080257e+01 -2.7648187083e+02 2.8008460359e+02 0.0000000000e+00 0.0000e+00 1.0000e+00
       21  1    1    2  505  502 -7.2314606513e+00 -1.6928285579e+02 -2.5549628804e+02 3.0657353521e+02 0.0000000000e+00 0.0000e+00 1.0000e+00
<mgrwt>
<rscale>  4 0.18439898E+03</rscale>
<asrwt>0</asrwt>
<pdfrwt beam="1">  1       21 0.36616020E-01 0.18439898E+03</pdfrwt>
<pdfrwt beam="2">  1       21 0.18999673E+00 0.18439898E+03</pdfrwt>
<totfact> 0.11323789E+03</totfact>
</mgrwt>
</event>
<event>
 6      1 +2.5168421e+02 2.58983200e+02 7.54677100e-03 1.07064900e-01
       21 -1    0    0  505  502 +0.0000000000e+00 +0.0000000000e+00 +3.5653458040e+02 3.5653458040e+02 0.0000000000e+00 0.0000e+00 -1.0000e+00
       21 -1    0    0  504  503 -0.0000000000e+00 -0.0000000000e+00 -4.8526592876e+02 4.8526592876e+02 0.0000000000e+00 0.0000e+00 -1.0000e+00
        6  1    1    2  501    0 +1.9052887122e+02 -4.0017537398e+01 -3.2040312901e+02 4.1290412827e+02 1.7300000000e+02 0.0000e+00 -1.0000e+00
       -6  1    1    2    0  503 -1.7465724335e+02 +6.4849890267e+01 +1.0601191595e+02 2.7545995579e+02 1.7300000000e+02 0.0000e+00 -1.0000e+00
       21  1    1    2  504  502 -4.6163879347e+01 -1.1908246395e+00 -1.2652682099e+01 4.7881229976e+01 0.0000000000e+00 0.0000e+00 -1.0000e+00
       21  1    1    2  505  501 +3.0292251483e+01 -2.3641528230e+01 +9.8312546806e+01 1.0555519512e+02 0.0000000000e+00 0.0000e+00 -1.0000e+00
<mgrwt>
<rscale>  4 0.25898316E+03</rscale>
<asrwt>0</asrwt>
<pdfrwt beam="1">  1       21 0.54851474E-01 0.25898316E+03</pdfrwt>
<pdfrwt beam="2">  1       21 0.74656297E-01 0.25898316E+03</pdfrwt>
<totfact> 0.48125447E+03</totfact>
</mgrwt>
</event>
<event>
 6      1 +2.5168421e+02 1.80063700e+02 7.54677100e-03 1.16820100e-01
       21 -1    0    0  501  502 +0.0000000000e+00 +0.0000000000e+00 +1.1126018782e+03 1.1126018782e+03 0.0000000000e+00 0.0000e+00 -1.0000e+00
       21 -1    0    0  504  503 -0.0000000000e+00 -0.0000000000e+00 -7.6498132665e+01 7.6498132665e+01 0.0000000000e+00 0.0000e+00 -1.0000e+00
        6  1    1    2  501    0 +3.5787893876e+01 +4.8198047908e+01 +4.9815005093e+02 5.3074127257e+02 1.7300000000e+02 0.0000e+00 1.0000e+00
       -6  1    1    2    0  503 -6.0940229917e+01 +2.2430466279e+01 +4.5993040810e+02 4.9566300824e+02 1.7300000000e+02 0.0000e+00 -1.0000e+00
       21  1    1    2  504  505 +9.4151382963e-01 -3.1046384555e+01 -3.1200250017e+01 4.4025220537e+01 0.0000000000e+00 0.0000e+00 -1.0000e+00
       21  1    1    2  505  502 +2.4210822212e+01 -3.9582129633e+01 +1.0922353649e+02 1.1867050948e+02 0.0000000000e+00 0.0000e+00 -1.0000e+00
<mgrwt>
<rscale>  4 0.18006375E+03</rscale>
<asrwt>0</asrwt>
<pdfrwt beam="1">  1       21 0.17116951E+00 0.18006375E+03</pdfrwt>
<pdfrwt beam="2">  1       21 0.11768944E-01 0.18006375E+03</pdfrwt>
<totfact> 0.12845938E+04</totfact>
</mgrwt>
</event>
<event>
 6      1 +2.5168421e+02 2.10564600e+02 7.54677100e-03 1.11910500e-01
       21 -1    0    0  501  502 +0.0000000000e+00 +0.0000000000e+00 +1.0964935323e+02 1.0964935323e+02 0.0000000000e+00 0.0000e+00 1.0000e+00
       21 -1    0    0  504  503 -0.0000000000e+00 -0.0000000000e+00 -1.3585446997e+03 1.3585446997e+03 0.0000000000e+00 0.0000e+00 -1.0000e+00
        6  1    1    2  501    0 +1.1579233661e+02 +1.9771933564e+01 -3.6124315646e+01 2.1220923815e+02 1.7300000000e+02 0.0000e+00 1.0000e+00
       -6  1    1    2    0  503 -1.4351312584e+02 +5.4606657113e+01 -7.4621818992e+02 7.8124803441e+02 1.7300000000e+02 0.0000e+00 -1.0000e+00
       21  1    1    2  504  505 +2.4469875304e+01 -3.1945966789e+01 -1.4874191978e+02 1.5408918941e+02 0.0000000000e+00 0.0000e+00 -1.0000e+00
       21  1    1    2  505  502 +3.2509139335e+00 -4.2432623887e+01 -3.1781092116e+02 3.2064759101e+02 0.0000000000e+00 0.0000e+00 -1.0000e+00
<mgrwt>
<rscale>  4 0.21056461E+03</rscale>
<asrwt>0</asrwt>
<pdfrwt beam="1">  1       21 0.16869131E-01 0.21056461E+03</pdfrwt>
<pdfrwt beam="2">  1       21 0.20900689E+00 0.21056461E+03</pdfrwt>
<totfact> 0.36616346E+03</totfact>
</mgrwt>
</event>
<event>
 6      1 +2.5168421e+02 2.50470800e+02 7.54677100e-03 1.06249800e-01
       21 -1    0    0  504  502 +0.0000000000e+00 +0.0000000000e+00 +1.1040821593e+03 1.1040821593e+03 0.0000000000e+00 0.0000e+00 -1.0000e+00
       21 -1    0    0  501  503 -0.0000000000e+00 -0.0000000000e+00 -1.0346377736e+03 1.0346377736e+03 0.0000000000e+00 0.0000e+00 1.0000e+00
        6  1    1    2  501    0 +2.5336460015e+01 -1.5585766298e+01 -8.1806882162e+02 8.3669017516e+02 1.7300000000e+02 0.0000e+00 1.0000e+00
       -6  1    1    2    0  505 -7.8253450451e+01 +1.8785840807e+02 -1.0913865045e+02 2.8853878251e+02 1.7300000000e+02 0.0000e+00 1.0000e+00
       21  1    1    2  504  503 +6.3634925820e+00 -3.1945816320e+01 +2.6946081618e+02 2.7142247636e+02 0.0000000000e+00 0.0000e+00 -1.0000e+00
       21  1    1    2  505  502 +4.6553497855e+01 -1.4032682545e+02 +7.2719104161e+02 7.4206849893e+02 0.0000000000e+00 0.0000e+00 -1.0000e+00
<mgrwt>
<rscale>  4 0.22917173E+03</rscale>
<asrwt>0</asrwt>
<pdfrwt beam="1">  1       21 0.16985879E+00 0.25047078E+03</pdfrwt>
<pdfrwt beam="2">  1       21 0.15917504E+00 0.25047078E+03</pdfrwt>
<totfact> 0.50477637E+01</totfact>
</mgrwt>
</event>
<event>
 6      1 +2.5168421e+02 3.03954300e+02 7.54677100e-03 1.05831300e-01
       21 -1    0    0  504  502 +0.0000000000e+00 +0.0000000000e+00 +1.1820306055e+03 1.1820306055e+03 0.0000000000e+00 0.0000e+00 -1.0000e+00
       21 -1    0    0  501  503 -0.0000000000e+00 -0.0000000000e+00 -3.2527205352e+02 3.2527205352e+02 0.0000000000e+00 0.0000e+00 -1.0000e+00
        6  1    1    2  501    0 +1.7457560242e+02 -3.6351822483e+01 +2.5018710958e+02 3.5259138639e+02 1.7300000000e+02 0.0000e+00 -1.0000e+00
       -6  1    1    2    0  505 -2.6219693433e+02 +3.8723841170e+01 -7.6646445368e+01 3.2565387428e+02 1.7300000000e+02 0.0000e+00 -1.0000e+00
       21  1    1    2  504  503 -2.6945654747e+01 +1.4917390146e+01 -6.4996797334e+01 7.1924825354e+01 0.0000000000e+00 0.0000e+00 -1.0000e+00
       21  1    1    2  505  502 +1.1456698665e+02 -1.7289408833e+01 +7.4821468507e+02 7.5713257296e+02 0.0000000000e+00 0.0000e+00 -1.0000e+00
<mgrwt>
<rscale>  4 0.30395426E+03</rscale>
<asrwt>0</asrwt>
<pdfrwt beam="1">  1       21 0.18185086E+00 0.30395426E+03</pdfrwt>
<pdfrwt beam="2">  1       21 0.50041855E-01 0.30395426E+03</pdfrwt>
<totfact> 0.60710496E+02</totfact>
</mgrwt>
</event>
<event>
 6      1 +2.5168421e+02 1.73308700e+02 7.54677100e-03 1.12989000e-01
       21 -1    0    0  501  502 +0.0000000000e+00 +0.0000000000e+00 +1.5048235642e+02 1.5048235642e+02 0.0000000000e+00 0.0000e+00 1.0000e+00
       21 -1    0    0  502  503 -0.0000000000e+00 -0.0000000000e+00 -9.1703350062e+02 9.1703350062e+02 0.0000000000e+00 0.0000e+00 1.0000e+00
        6  1    1    2  501    0 +9.4455876429e+00 -1.9754480464e+01 -4.8306408684e+01 1.8094741707e+02 1.7300000000e+02 0.0000e+00 -1.0000e+00
       -6  1    1    2    0  504 -1.4782242863e-01 -3.3895694275e+01 -1.6229731593e+01 1.7703486699e+02 1.7300000000e+02 0.0000e+00 1.0000e+00
       21  1    1    2  504  505 -3.7872354247e+01 +1.4559156407e+01 -5.0608724399e+02 5.0771112139e+02 0.0000000000e+00 0.0000e+00 1.0000e+00
       21  1    1    2  505  503 +2.8574589033e+01 +3.9091018332e+01 -1.9592775994e+02 2.0182245159e+02 0.0000000000e+00 0.0000e+00 1.0000e+00
<mgrwt>
<rscale>  4 0.17330866E+03</rscale>
<asrwt>0</asrwt>
<pdfrwt beam="1">  1       21 0.23151132E-01 0.17330866E+03</pdfrwt>
<pdfrwt beam="2">  1       21 0.14108208E+00 0.17330866E+03</pdfrwt>
<totfact> 0.62485022E+03</totfact>
</mgrwt>
</event>
<event>
 6      1 +2.5168421e+02 2.17390300e+02 7.54677100e-03 1.16820100e-01
       21 -1    0    0  505  502 +0.0000000000e+00 +0.0000000000e+00 +1.7311887760e+02 1.7311887760e+02 0.0000000000e+00 0.0000e+00 -1.0000e+00
       21 -1    0    0  501  503 -0.0000000000e+00 -0.0000000000e+00 -1.4695583711e+03 1.4695583711e+03 0.0000000000e+00 0.0000e+00 1.0000e+00
        6  1    1    2  501    0 -8.6023332920e+01 -6.9546842913e+01 -5.1054561280e+02 5.5029319450e+02 1.7300000000e+02 0.0000e+00 1.0000e+00
       -6  1    1    2    0  502 +9.0972758209e+01 +1.2754901076e+02 -5.5368183921e+02 6.0086385475e+02 1.7300000000e+02 0.0000e+00 1.0000e+00
       21  1    1    2  504  503 -7.3622459736e+00 -2.0886677349e+01 -3.5885027133e+02 3.5953299319e+02 0.0000000000e+00 0.0000e+00 -1.0000e+00
       21  1    1    2  505  504 +2.4128206844e+00 -3.7115490501e+01 +1.2663822988e+02 1.3198720622e+02 0.0000000000e+00 0.0000e+00 -1.0000e+00
<mgrwt>
<rscale>  4 0.21739027E+03</rscale>
<asrwt>0</asrwt>
<pdfrwt beam="1">  1       21 0.26633673E-01 0.21739027E+03</pdfrwt>
<pdfrwt beam="2">  1       21 0.22608591E+00 0.21739027E+03</pdfrwt>
<totfact> 0.12057112E+03</totfact>
</mgrwt>
</event>
<event>
 6      1 +2.5168421e+02 1.73444900e+02 7.54677100e-03 1.16820100e-01
       21 -1    0    0  504  502 +0.0000000000e+00 +0.0000000000e+00 +5.8685315049e+02 5.8685315049e+02 0.0000000000e+00 0.0000e+00 -1.0000e+00
       21 -1    0    0  501  503 -0.0000000000e+00 -0.0000000000e+00 -1.4499482444e+02 1.4499482444e+02 0.0000000000e+00 0.0000e+00 -1.0000e+00
        6  1    1    2  501    0 +2.4628552655e+01 -2.3856044125e+01 +5.0424029702e+01 1.8343189259e+02 1.7300000000e+02 0.0000e+00 1.0000e+00
       -6  1    1    2    0  505 +3.6779668032e+01 -1.7290299666e+01 +1.8162417225e+02 2.5410241713e+02 1.7300000000e+02 0.0000e+00 -1.0000e+00
       21  1    1    2  504  503 +3.9461980722e+01 +2.3797189754e+01 -1.4040617451e+01 4.8173572642e+01 0.0000000000e+00 0.0000e+00 -1.0000e+00
       21  1    1    2  505  502 -1.0087020141e+02 +1.7349154037e+01 +2.2385074155e+02 2.4614009257e+02 0.0000000000e+00 0.0000e+00 -1.0000e+00
<mgrwt>
<rscale>  4 0.17344491E+03</rscale>
<asrwt>0</asrwt>
<pdfrwt beam="1">  1       21 0.90285099E-01 0.17344491E+03</pdfrwt>
<pdfrwt beam="2">  1       21 0.22306896E-01 0.17344491E+03</pdfrwt>
<totfact> 0.19848156E+04</totfact>
</mgrwt>
</event>
<event>
 6      1 +2.5168421e+02 1.73217200e+02 7.54677100e-03 1.12989000e-01
       21 -1    0    0  501  502 +0.0000000000e+00 +0.0000000000e+00 +3.3956214498e+02 3.3956214498e+02 0.0000000000e+00 0.0000e+00 -1.0000e+00
       21 -1    0    0  502  503 -0.0000000000e+00 -0.0000000000e+00 -3.6151694245e+02 3.6151694245e+02 0.0000000000e+00 0.0000e+00 -1.0000e+00
        6  1    1    2  501    0 +1.2795465209e+01 +1.1488089346e+01 +2.1289622871e+02 2.7486270086e+02 1.7300000000e+02 0.0000e+00 -1.0000e+00
       -6  1    1    2    0  504 +6.4387896681e+01 +6.4111112474e+00 -3.0280013594e+01 1.8717046458e+02 1.7300000000e+02 0.0000e+00 1.0000e+00
       21  1    1    2  504  505 -2.5381975900e+01 -5.4497492295e+01 -9.4216028346e+01 1.1176261166e+02 0.0000000000e+00 0.0000e+00 -1.0000e+00
       21  1    1    2  505  503 -5.1801385990e+01 +3.6598291702e+01 -1.1035498423e+02 1.2728331034e+02 0.0000000000e+00 0.0000e+00 1.0000e+00
<mgrwt>
<rscale>  4 0.17321722E+03</rscale>
<asrwt>0</asrwt>
<pdfrwt beam="1">  1       21 0.52240330E-01 0.17321722E+03</pdfrwt>
<pdfrwt beam="2">  1       21 0.55617991E-01 0.17321722E+03</pdfrwt>
<totfact> 0.10734368E+04</totfact>
</mgrwt>
</event>
<event>
 6      1 +2.5168421e+02 2.02107200e+02 7.54677100e-03 1.11671100e-01
       21 -1    0    0  503  502 +0.0000000000e+00 +0.0000000000e+00 +7.4321202117e+02 7.4321202117e+02 0.0000000000e+00 0.0000e+00 -1.0000e+00
       21 -1    0    0  501  503 -0.0000000000e+00 -0.0000000000e+00 -3.4245690102e+02 3.4245690102e+02 0.0000000000e+00 0.0000e+00 -1.0000e+00
        6  1    1    2  501    0 -8.0182549851e+01 -8.1510150994e+01 +2.0474145018e+02 2.9141243528e+02 1.7300000000e+02 0.0000e+00 -1.0000e+00
       -6  1    1    2    0  504 +6.1170104746e+01 +8.3184827294e+01 -2.5757317730e+02 3.2700831621e+02 1.7300000000e+02 0.0000e+00 -1.0000e+00
       21  1    1    2  504  505 +6.3292857392e+01 +9.9506352360e+00 +2.1648969281e+02 2.2577153946e+02 0.0000000000e+00 0.0000e+00 -1.0000e+00
       21  1    1    2  505  502 -4.4280412287e+01 -1.1625311537e+01 +2.3709715445e+02 2.4147663123e+02 0.0000000000e+00 0.0000e+00 1.0000e+00
<mgrwt>
<rscale>  4 0.20210724E+03</rscale>
<asrwt>0</asrwt>
<pdfrwt beam="1">  1       21 0.11434031E+00 0.20210724E+03</pdfrwt>
<pdfrwt beam="2">  1       21 0.52685677E-01 0.20210724E+03</pdfrwt>
<totfact> 0.20129422E+03</totfact>
</mgrwt>
</event>
<event>
 6      1 +2.5168421e+02 2.05093700e+02 7.54677100e-03 1.07064900e-01
       21 -1    0    0  505  502 +0.0000000000e+00 +0.0000000000e+00 +1.3548043815e+02 1.3548043815e+02 0.0000000000e+00 0.0000e+00 -1.0000e+00
       21 -1    0    0  501  503 -0.0000000000e+00 -0.0000000000e+00 -7.2470563182e+02 7.2470563182e+02 0.0000000000e+00 0.0000e+00 -1.0000e+00
        6  1    1    2  501    0 -5.7088574431e+01 -1.2981893002e+02 -4.8190931136e+02 5.3129807481e+02 1.7300000000e+02 0.0000e+00 -1.0000e+00
       -6  1    1    2    0  502 +2.6099919000e+00 +2.3914866878e+01 -4.4227176793e+01 1.8017706869e+02 1.7300000000e+02 0.0000e+00 -1.0000e+00
       21  1    1    2  504  503 +9.8924521559e-01 +4.1868566705e+01 +3.4064589231e+00 4.2018560737e+01 0.0000000000e+00 0.0000e+00 1.0000e+00
       21  1    1    2  505  504 +5.3489337315e+01 +6.4035496439e+01 -6.6495164441e+01 1.0669236573e+02 0.0000000000e+00 0.0000e+00 -1.0000e+00
<mgrwt>
<rscale>  4 0.20509368E+03</rscale>
<asrwt>0</asrwt>
<pdfrwt beam="1">  1       21 0.20843145E-01 0.20509368E+03</pdfrwt>
<pdfrwt beam="2">  1       21 0.11149317E+00 0.20509368E+03</pdfrwt>
<totfact> 0.13392813E+04</totfact>
</mgrwt>
</event>
<event>
 6      1 +2.5168421e+02 2.15163300e+02 7.54677100e-03 1.17132900e-01
       21 -1    0    0  503  502 +0.0000000000e+00 +0.0000000000e+00 +7.4272565209e+01 7.4272565209e+01 0.0000000000e+00 0.0000e+00 1.0000e+00
       21 -1    0    0  504  503 -0.0000000000e+00 -0.0000000000e+00 -2.4882037267e+03 2.4882037267e+03 0.0000000000e+00 0.0000e+00 -1.0000e+00
        6  1    1    2  501    0 -7.3342078330e+01 -7.4339389361e+01 -8.3762955848e+02 8.6165984153e+02 1.7300000000e+02 0.0000e+00 -1.0000e+00
       -6  1    1    2    0  505 +1.5162971343e+02 +3.1260285317e+01 -1.4654098216e+03 1.4836858565e+03 1.7300000000e+02 0.0000e+00 -1.0000e+00
       21  1    1    2  504  501 -4.5574739695e+01 +3.4782547657e+01 -1.5287079810e+02 1.6326776605e+02 0.0000000000e+00 0.0000e+00 1.0000e+00
       21  1    1    2  505  502 -3.2712895404e+01 +8.2965563866e+00 +4.1979016740e+01 5.3862827813e+01 0.0000000000e+00 0.0000e+00 1.0000e+00
<mgrwt>
<rscale>  4 0.21516326E+03</rscale>
<asrwt>0</asrwt>
<pdfrwt beam="1">  1       21 0.11426547E-01 0.21516326E+03</pdfrwt>
<pdfrwt beam="2">  1       21 0.38280064E+00 0.21516326E+03</pdfrwt>
<totfact> 0.68873240E+02</totfact>
</mgrwt>
</event>
<event>
 6      1 +2.5168421e+02 2.05284100e+02 7.54677100e-03 1.12989000e-01
       21 -1    0    0  501  502 +0.0000000000e+00 +0.0000000000e+00 +1.6552342909e+02 1.6552342909e+02 0.0000000000e+00 0.0000e+00 1.0000e+00
       21 -1    0    0  502  503 -0.0000000000e+00 -0.0000000000e+00 -7.3515170119e+02 7.3515170119e+02 0.0000000000e+00 0.0000e+00 1.0000e+00
        6  1    1    2  501    0 -4.2088244746e+01 +9.9938857458e+01 -6.6202453535e+01 2.1464146950e+02 1.7300000000e+02 0.0000e+00 1.0000e+00
       -6  1    1    2    0  505 +1.3939930502e+02 -2.8759366859e+01 -6.9464190329e+01 2.3454965607e+02 1.7300000000e+02 0.0000e+00 -1.0000e+00
       21  1    1    2  504  503 -1.9866609180e+01 -2.9784757338e+01 -1.0185999755e+02 1.0796885213e+02 0.0000000000e+00 0.0000e+00 -1.0000e+00
       21  1    1    2  505  504 -7.7444451094e+01 -4.1394733260e+01 -3.3210163069e+02 3.4351515258e+02 0.0000000000e+00 0.0000e+00 1.0000e+00
<mgrwt>
<rscale>  4 0.20528413E+03</rscale>
<asrwt>0</asrwt>
<pdfrwt beam="1">  1       21 0.25465143E-01 0.20528413E+03</pdfrwt>
<pdfrwt beam="2">  1       21 0.11310026E+00 0.20528413E+03</pdfrwt>
<totfact> 0.88457380E+03</totfact>
</mgrwt>
</event>
<event>
 6      1 +2.5168421e+02 2.39467400e+02 7.54677100e-03 1.03924000e-01
       21 -1    0    0  501  502 +0.0000000000e+00 +0.0000000000e+00 +1.3035046820e+02 1.3035046820e+02 0.0000000000e+00 0.0000e+00 1.0000e+00
       21 -1    0    0  502  503 -0.0000000000e+00 -0.0000000000e+00 -6.2537144194e+02 6.2537144194e+02 0.0000000000e+00 0.0000e+00 -1.0000e+00
        6  1    1    2  501    0 -9.0417778642e+01 -1.1684265776e+02 -1.5957309233e+02 2.7788514383e+02 1.7300000000e+02 0.0000e+00 1.0000e+00
       -6  1    1    2    0  505 +1.5215246326e+02 +1.0052536469e+02 -3.1938154013e+02 4.0643485234e+02 1.7300000000e+02 0.0000e+00 -1.0000e+00
       21  1    1    2  504  503 -2.5783807710e+01 +2.3385480426e-01 +5.6935245046e+00 2.6405977531e+01 0.0000000000e+00 0.0000e+00 1.0000e+00
       21  1    1    2  505  504 -3.5950876906e+01 +1.6083438271e+01 -2.1759865791e+01 4.4995936440e+01 0.0000000000e+00 0.0000e+00 -1.0000e+00
<mgrwt>
<rscale>  4 0.23946743E+03</rscale>
<asrwt>0</asrwt>
<pdfrwt beam="1">  1       21 0.20053918E-01 0.23946743E+03</pdfrwt>
<pdfrwt beam="2">  1       21 0.96210993E-01 0.23946743E+03</pdfrwt>
<totfact> 0.20105335E+04</totfact>
</mgrwt>
</event>
<event>
 6      1 +2.5168421e+02 2.12196200e+02 7.54677100e-03 1.16820100e-01
       21 -1    0    0  504  502 +0.0000000000e+00 +0.0000000000e+00 +3.1797661784e+02 3.1797661784e+02 0.0000000000e+00 0.0000e+00 1.0000e+00
       21 -1    0    0  501  503 -0.0000000000e+00 -0.0000000000e+00 -4.0464422231e+02 4.0464422231e+02 0.0000000000e+00 0.0000e+00 -1.0000e+00
        6  1    1    2  501    0 +1.3628558449e+02 -1.3560434541e+02 +3.6256461957e+01 2.6116245915e+02 1.7300000000e+02 0.0000e+00 1.0000e+00
       -6  1    1    2    0  505 +7.5646568164e+00 +8.6833204021e+01 -1.5325953418e+01 1.9432219174e+02 1.7300000000e+02 0.0000e+00 -1.0000e+00
       21  1    1    2  504  503 -1.2861857611e+02 -2.7304197164e+01 -1.3149434781e+02 1.8595435141e+02 0.0000000000e+00 0.0000e+00 -1.0000e+00
       21  1    1    2  505  502 -1.5231665200e+01 +7.6075338550e+01 +2.3896234796e+01 8.1181837856e+01 0.0000000000e+00 0.0000e+00 1.0000e+00
<mgrwt>
<rscale>  4 0.21219624E+03</rscale>
<asrwt>0</asrwt>
<pdfrwt beam="1">  1       21 0.48919480E-01 0.21219624E+03</pdfrwt>
<pdfrwt beam="2">  1       21 0.62252957E-01 0.21219624E+03</pdfrwt>
<totfact> 0.94174085E+03</totfact>
</mgrwt>
</event>
<event>
 6      1 +2.5168421e+02 6.61962800e+02 7.54677100e-03 1.12989000e-01
       21 -1    0    0  503  502 +0.0000000000e+00 +0.0000000000e+00 +6.9129528293e+02 6.9129528293e+02 0.0000000000e+00 0.0000e+00 1.0000e+00
       21 -1    0    0  505  503 -0.0000000000e+00 -0.0000000000e+00 -7.1038577514e+02 7.1038577514e+02 0.0000000000e+00 0.0000e+00 1.0000e+00
        6  1    1    2  501    0 -2.2189969755e+02 +2.0434299331e+02 +2.5901855723e+02 4.3360713518e+02 1.7300000000e+02 0.0000e+00 1.0000e+00
       -6  1    1    2    0  502 -2.4957101826e+02 -3.9139937017e+01 +1.1755911527e+02 3.2797373890e+02 1.7300000000e+02 0.0000e+00 -1.0000e+00
       21  1    1    2  504  501 +4.3877539204e+02 -1.5260234965e+02 -3.8533734550e+02 6.0356954166e+02 0.0000000000e+00 0.0000e+00 1.0000e+00
       21  1    1    2  505  504 +3.2695323767e+01 -1.2600706647e+01 -1.0330819201e+01 3.6530642338e+01 0.0000000000e+00 0.0000e+00 1.0000e+00
<mgrwt>
<rscale>  4 0.66196275E+03</rscale>
<asrwt>0</asrwt>
<pdfrwt beam="1">  1       21 0.10635312E+00 0.66196275E+03</pdfrwt>
<pdfrwt beam="2">  1       21 0.10929012E+00 0.66196275E+03</pdfrwt>
<totfact> 0.36085984E+02</totfact>
</mgrwt>
</event>
<event>
 6      1 +2.5168421e+02 1.73145600e+02 7.54677100e-03 1.07064900e-01
       21 -1    0    0  504  502 +0.0000000000e+00 +0.0000000000e+00 +5.0030268456e+02 5.0030268456e+02 0.0000000000e+00 0.0000e+00 1.0000e+00
       21 -1    0    0  501  503 -0.0000000000e+00 -0.0000000000e+00 -2.1110889908e+02 2.1110889908e+02 0.0000000000e+00 0.0000e+00 1.0000e+00
        6  1    1    2  501    0 +1.0156490501e+01 +1.0095934272e+01 -1.3158970951e+02 2.1783005724e+02 1.7300000000e+02 0.0000e+00 1.0000e+00
       -6  1    1    2    0  505 +1.8900263772e+01 +2.7878612329e+01 +2.0427648985e+02 2.6980052131e+02 1.7300000000e+02 0.0000e+00 1.0000e+00
       21  1    1    2  504  503 -9.3962092862e+00 -3.3612407516e+01 +1.1059182313e+02 1.1596824579e+02 0.0000000000e+00 0.0000e+00 1.0000e+00
       21  1    1    2  505  502 -1.9660544987e+01 -4.3621390859e+00 +1.0591518202e+02 1.0781275930e+02 0.0000000000e+00 0.0000e+00 -1.0000e+00
<mgrwt>
<rscale>  4 0.17314555E+03</rscale>
<asrwt>0</asrwt>
<pdfrwt beam="1">  1       21 0.76969643E-01 0.17314555E+03</pdfrwt>
<pdfrwt beam="2">  1       21 0.32478292E-01 0.17314555E+03</pdfrwt>
<totfact> 0.13864774E+04</totfact>
</mgrwt>
</event>
<event>
 6      1 +2.5168421e+02 2.47188800e+02 7.54677100e-03 1.03924000e-01
       21 -1    0    0  504  502 +0.0000000000e+00 +0.0000000000e+00 +8.4919835570e+02 8.4919835570e+02 0.0000000000e+00 0.0000e+00 -1.0000e+00
       21 -1    0    0  501  503 -0.0000000000e+00 -0.0000000000e+00 -3.9475424571e+02 3.9475424571e+02 0.0000000000e+00 0.0000e+00 -1.0000e+00
        6  1    1    2  501    0 -1.1347593410e+02 +1.0479119635e+02 +2.9448367966e+02 3.7484346071e+02 1.7300000000e+02 0.0000e+00 -1.0000e+00
       -6  1    1    2    0  505 -5.3782804697e+01 -1.5647100059e+01 -3.0954495127e+02 3.5900487278e+02 1.7300000000e+02 0.0000e+00 -1.0000e+00
       21  1    1    2  504  503 +5.0367677783e+01 -4.6124492991e+01 +1.0839882220e+02 1.2811977394e+02 0.0000000000e+00 0.0000e+00 -1.0000e+00
       21  1    1    2  505  502 +1.1689106102e+02 -4.3019603296e+01 +3.6110655939e+02 3.8198449399e+02 0.0000000000e+00 0.0000e+00 -1.0000e+00
<mgrwt>
<rscale>  4 0.22892593E+03</rscale>
<asrwt>0</asrwt>
<pdfrwt beam="1">  1       21 0.13064590E+00 0.24718880E+03</pdfrwt>
<pdfrwt beam="2">  1       21 0.60731423E-01 0.24718880E+03</pdfrwt>
<totfact> 0.10250677E+03</totfact>
</mgrwt>
</event>
<event>
 6      1 +2.5168421e+02 2.08968100e+02 7.54677100e-03 1.07064900e-01
       21 -1    0    0  504  502 +0.0000000000e+00 +0.0000000000e+00 +7.3440186314e+02 7.3440186314e+02 0.0000000000e+00 0.0000e+00 1.0000e+00
       21 -1    0    0  501  503 -0.0000000000e+00 -0.0000000000e+00 -9.5848010577e+02 9.5848010577e+02 0.0000000000e+00 0.0000e+00 -1.0000e+00
        6  1    1    2  501    0 +1.9390863444e+01 +1.0742763134e+02 -7.1193922285e+02 7.4074500241e+02 1.7300000000e+02 0.0000e+00 -1.0000e+00
       -6  1    1    2    0  505 -6.9597483250e+01 -1.3846477913e+02 -1.6909018037e+02 2.8729217503e+02 1.7300000000e+02 0.0000e+00 -1.0000e+00
       21  1    1    2  504  503 +4.1394244116e+01 +5.2945688277e+01 +5.9069956182e+02 5.9451047231e+02 0.0000000000e+00 0.0000e+00 1.0000e+00
       21  1    1    2  505  502 +8.8123756894e+00 -2.1908540487e+01 +6.6251598778e+01 7.0334319163e+01 0.0000000000e+00 0.0000e+00 1.0000e+00
<mgrwt>
<rscale>  4 0.20896812E+03</rscale>
<asrwt>0</asrwt>
<pdfrwt beam="1">  1       21 0.11298490E+00 0.20896812E+03</pdfrwt>
<pdfrwt beam="2">  1       21 0.14745848E+00 0.20896812E+03</pdfrwt>
<totfact> 0.18747126E+02</totfact>
</mgrwt>
</event>
<event>
 6      1 +2.5168421e+02 2.08325600e+02 7.54677100e-03 9.87464100e-02
       21 -1    0    0  503  502 +0.0000000000e+00 +0.0000000000e+00 +2.7641651731e+02 2.7641651731e+02 0.0000000000e+00 0.0000e+00 1.0000e+00
       21 -1    0    0  505  503 -0.0000000000e+00 -0.0000000000e+00 -3.0598786583e+02 3.0598786583e+02 0.0000000000e+00 0.0000e+00 1.0000e+00
        6  1    1    2  501    0 +6.2603635561e+01 +7.3624321887e+01 +5.6941146360e+01 2.0618207999e+02 1.7300000000e+02 0.0000e+00 1.0000e+00
       -6  1    1    2    0  504 -2.3527582434e+01 -1.6739140270e+02 -5.1700973412e+01 2.4733665212e+02 1.7300000000e+02 0.0000e+00 1.0000e+00
       21  1    1    2  504  502 -2.2786586896e+01 +7.9186678441e+00 +1.4900488481e+01 2.8354160185e+01 0.0000000000e+00 0.0000e+00 1.0000e+00
       21  1    1    2  505  501 -1.6289466231e+01 +8.5848412966e+01 -4.9712009948e+01 1.0053149085e+02 0.0000000000e+00 0.0000e+00 1.0000e+00
<mgrwt>
<rscale>  4 0.20832561E+03</rscale>
<asrwt>0</asrwt>
<pdfrwt beam="1">  1       21 0.42525618E-01 0.20832561E+03</pdfrwt>
<pdfrwt beam="2">  1       21 0.47075056E-01 0.20832561E+03</pdfrwt>
<totfact> 0.22764977E+04</totfact>
</mgrwt>
</event>
<event>
 6      1 +2.5168421e+02 2.29582700e+02 7.54677100e-03 1.11671100e-01
       21 -1    0    0  503  502 +0.0000000000e+00 +0.0000000000e+00 +1.0568550967e+02 1.0568550967e+02 0.0000000000e+00 0.0000e+00 -1.0000e+00
       21 -1    0    0  501  503 -0.0000000000e+00 -0.0000000000e+00 -7.3201380522e+02 7.3201380522e+02 0.0000000000e+00 0.0000e+00 1.0000e+00
        6  1    1    2  501    0 -9.7165302905e+01 -1.3539160601e+02 -3.5936931242e+02 4.3225835536e+02 1.7300000000e+02 0.0000e+00 1.0000e+00
       -6  1    1    2    0  504 +2.7297606189e+01 +1.3647891099e+02 -2.3276388099e+02 3.2168257140e+02 1.7300000000e+02 0.0000e+00 1.0000e+00
       21  1    1    2  504  505 +4.4955788745e+01 -2.3148509922e+00 -3.7512426948e+01 5.8596618096e+01 0.0000000000e+00 0.0000e+00 1.0000e+00
       21  1    1    2  505  502 +2.4911907971e+01 +1.2275460157e+00 +3.3173248023e+00 2.5161770046e+01 0.0000000000e+00 0.0000e+00 -1.0000e+00
<mgrwt>
<rscale>  4 0.22958271E+03</rscale>
<asrwt>0</asrwt>
<pdfrwt beam="1">  1       21 0.16259310E-01 0.22958271E+03</pdfrwt>
<pdfrwt beam="2">  1       21 0.11261750E+00 0.22958271E+03</pdfrwt>
<totfact> 0.20429872E+04</totfact>
</mgrwt>
</event>
<event>
 6      1 +2.5168421e+02 2.48236800e+02 7.54677100e-03 9.87464100e-02
       21 -1    0    0  503  502 +0.0000000000e+00 +0.0000000000e+00 +3.5325033486e+02 3.5325033486e+02 0.0000000000e+00 0.0000e+00 -1.0000e+00
       21 -1    0    0  505  503 -0.0000000000e+00 -0.0000000000e+00 -2.7679188114e+02 2.7679188114e+02 0.0000000000e+00 0.0000e+00 1.0000e+00
        6  1    1    2  501    0 +3.7860150134e+01 -1.7647030753e+02 -7.4596816441e+01 2.6090006790e+02 1.7300000000e+02 0.0000e+00 1.0000e+00
       -6  1    1    2    0  504 -5.3198078729e+01 +1.5078356931e+02 +1.6311871741e+02 2.8653522702e+02 1.7300000000e+02 0.0000e+00 -1.0000e+00
       21  1    1    2  504  502 -8.3029391504e+00 +2.9792724692e+01 +2.4098601953e+01 3.9208262639e+01 0.0000000000e+00 0.0000e+00 -1.0000e+00
       21  1    1    2  505  501 +2.3640867745e+01 -4.1059864647e+00 -3.6162049193e+01 4.3398658440e+01 0.0000000000e+00 0.0000e+00 1.0000e+00
<mgrwt>
<rscale>  4 0.24823679E+03</rscale>
<asrwt>0</asrwt>
<pdfrwt beam="1">  1       21 0.54346205E-01 0.24823679E+03</pdfrwt>
<pdfrwt beam="2">  1       21 0.42583366E-01 0.24823679E+03</pdfrwt>
<totfact> 0.16442821E+04</totfact>
</mgrwt>
</event>
<event>
 6      1 +2.5168421e+02 1.91208000e+02 7.54677100e-03 1.17132900e-01
       21 -1    0    0  505  502 +0.0000000000e+00 +0.0000000000e+00 +2.1649177639e+02 2.1649177639e+02 0.0000000000e+00 0.0000e+00 -1.0000e+00
       21 -1    0    0  504  503 -0.0000000000e+00 -0.0000000000e+00 -5.2910203902e+02 5.2910203902e+02 0.0000000000e+00 0.0000e+00 -1.0000e+00
        6  1    1    2  501    0 -7.9177428483e+01 +2.3952760591e+01 -2.0145280964e+02 2.7812773043e+02 1.7300000000e+02 0.0000e+00 -1.0000e+00
       -6  1    1    2    0  502 +8.6130077482e+01 +6.8564928012e+01 -3.4963670329e+01 2.0801682106e+02 1.7300000000e+02 0.0000e+00 -1.0000e+00
       21  1    1    2  504  501 -8.0862317440e+01 -1.2437101055e+02 -9.5829099495e+01 1.7660713167e+02 0.0000000000e+00 0.0000e+00 1.0000e+00
       21  1    1    2  505  503 +7.3909668442e+01 +3.1853321948e+01 +1.9635316840e+01 8.2842132250e+01 0.0000000000e+00 0.0000e+00 1.0000e+00
<mgrwt>
<rscale>  4 0.19120798E+03</rscale>
<asrwt>0</asrwt>
<pdfrwt beam="1">  1       21 0.33306428E-01 0.19120798E+03</pdfrwt>
<pdfrwt beam="2">  1       21 0.81400312E-01 0.19120798E+03</pdfrwt>
<totfact> 0.11491033E+04</totfact>
</mgrwt>
</event>
<event>
 6      1 +2.5168421e+02 1.99204200e+02 7.54677100e-03 1.09842800e-01
       21 -1    0    0  504  502 +0.0000000000e+00 +0.0000000000e+00 +1.3739571422e+03 1.3739571422e+03 0.0000000000e+00 0.0000e+00 1.0000e+00
       21 -1    0    0  505  503 -0.0000000000e+00 -0.0000000000e+00 -3.8657077050e+02 3.8657077050e+02 0.0000000000e+00 0.0000e+00 1.0000e+00
        6  1    1    2  501    0 +9.9524176604e+01 -5.8186183138e+01 -1.0887011612e+02 2.3467508564e+02 1.7300000000e+02 0.0000e+00 1.0000e+00
       -6  1    1    2    0  503 -9.8007117822e+01 -5.4316601886e+01 -1.5497470461e+02 2.5787952119e+02 1.7300000000e+02 0.0000e+00 -1.0000e+00
       21  1    1    2  504  501 -2.6049740983e+01 +1.0702989280e+02 +3.6204057447e+02 3.7842748912e+02 0.0000000000e+00 0.0000e+00 1.0000e+00
       21  1    1    2  505  502 +2.4532682201e+01 +5.4728922267e+00 +8.8919061795e+02 8.8954581674e+02 0.0000000000e+00 0.0000e+00 1.0000e+00
<mgrwt>
<rscale>  4 0.19920424E+03</rscale>
<asrwt>0</asrwt>
<pdfrwt beam="1">  1       21 0.21137802E+00 0.19920424E+03</pdfrwt>
<pdfrwt beam="2">  1       21 0.59472427E-01 0.19920424E+03</pdfrwt>
<totfact> 0.29787838E+02</totfact>
</mgrwt>
</event>
<event>
 6      1 +2.5168421e+02 2.18803600e+02 7.54677100e-03 1.16820100e-01
       21 -1    0    0  505  502 +0.0000000000e+00 +0.0000000000e+00 +1.2270020721e+03 1.2270020721e+03 0.0000000000e+00 0.0000e+00 -1.0000e+00
       21 -1    0    0  504  503 -0.0000000000e+00 -0.0000000000e+00 -3.1246254173e+02 3.1246254173e+02 0.0000000000e+00 0.0000e+00 1.0000e+00
        6  1    1    2  501    0 +7.6473213420e+01 +3.5123234606e+01 -1.0672506492e+01 1.9267770077e+02 1.7300000000e+02 0.0000e+00 1.0000e+00
       -6  1    1    2    0  503 -8.6575181824e+01 -1.9624229642e+02 +2.0141926299e+02 3.4132831777e+02 1.7300000000e+02 0.0000e+00 -1.0000e+00
       21  1    1    2  504  502 -3.6026916031e+00 +7.7778981440e+01 -1.2781996466e+02 1.4966794148e+02 0.0000000000e+00 0.0000e+00 1.0000e+00
       21  1    1    2  505  501 +1.3704660007e+01 +8.3340080371e+01 +8.5161273854e+02 8.5579065381e+02 0.0000000000e+00 0.0000e+00 -1.0000e+00
<mgrwt>
<rscale>  4 0.21880361E+03</rscale>
<asrwt>0</asrwt>
<pdfrwt beam="1">  1       21 0.18876955E+00 0.21880361E+03</pdfrwt>
<pdfrwt beam="2">  1       21 0.48071161E-01 0.21880361E+03</pdfrwt>
<totfact> 0.63831868E+02</totfact>
</mgrwt>
</event>
<event>
 6      1 +2.5168421e+02 1.79396700e+02 7.54677100e-03 1.04003000e-01
       21 -1    0    0  504  502 +0.0000000000e+00 +0.0000000000e+00 +2.3187415829e+02 2.3187415829e+02 0.0000000000e+00 0.0000e+00 -1.0000e+00
       21 -1    0    0  505  503 -0.0000000000e+00 -0.0000000000e+00 -5.2776938690e+02 5.2776938690e+02 0.0000000000e+00 0.0000e+00 -1.0000e+00
        6  1    1    2  501    0 +3.3795722813e+01 -3.3082470729e+01 +1.4794864571e+02 2.3249602688e+02 1.7300000000e+02 0.0000e+00 -1.0000e+00
       -6  1    1    2    0  503 +4.0158039023e-01 +4.5614063531e+00 -2.5359501781e+02 3.0701856744e+02 1.7300000000e+02 0.0000e+00 -1.0000e+00
       21  1    1    2  504  501 -5.5122443502e+01 +1.7218614344e+01 -1.8749565457e+02 1.9618762688e+02 0.0000000000e+00 0.0000e+00 -1.0000e+00
       21  1    1    2  505  502 +2.0925140300e+01 +1.1302450033e+01 -2.7532019405e+00 2.3941323986e+01 0.0000000000e+00 0.0000e+00 -1.0000e+00
<mgrwt>
<rscale>  4 0.17939666E+03</rscale>
<asrwt>0</asrwt>
<pdfrwt beam="1">  1       21 0.35672948E-01 0.17939666E+03</pdfrwt>
<pdfrwt beam="2">  1       21 0.81195290E-01 0.17939666E+03</pdfrwt>
<totfact> 0.10170984E+04</totfact>
</mgrwt>
</event>
<event>
 6      1 +2.5168421e+02 2.88955400e+02 7.54677100e-03 1.05831300e-01
       21 -1    0    0  504  502 +0.0000000000e+00 +0.0000000000e+00 +1.4605190693e+03 1.4605190693e+03 0.0000000000e+00 0.0000e+00 -1.0000e+00
       21 -1    0    0  501  503 -0.0000000000e+00 -0.0000000000e+00 -1.2602678189e+03 1.2602678189e+03 0.0000000000e+00 0.0000e+00 1.0000e+00
        6  1    1    2  501    0 -2.0187799059e+02 -1.1278040718e+02 -1.0718705958e+03 1.1100944633e+03 1.7300000000e+02 0.0000e+00 1.0000e+00
       -6  1    1    2    0  505 -4.0071142410e+01 -8.7256617684e+01 +2.6628471500e+01 1.9964340530e+02 1.7300000000e+02 0.0000e+00 -1.0000e+00
       21  1    1    2  504  503 +1.9106699616e+02 +1.3585643629e+02 +8.7618452085e+01 2.5028096502e+02 0.0000000000e+00 0.0000e+00 -1.0000e+00
       21  1    1    2  505  502 +5.0882136842e+01 +6.4180588571e+01 +1.1578749227e+03 1.1607680545e+03 0.0000000000e+00 0.0000e+00 -1.0000e+00
<mgrwt>
<rscale>  4 0.25859704E+03</rscale>
<asrwt>0</asrwt>
<pdfrwt beam="1">  1       21 0.22469524E+00 0.28895539E+03</pdfrwt>
<pdfrwt beam="2">  1       21 0.19388736E+00 0.28895539E+03</pdfrwt>
<totfact> 0.11971922E+01</totfact>
</mgrwt>
</event>
<event>
 6      1 +2.5168421e+02 2.15342300e+02 7.54677100e-03 1.15942100e-01
       21 -1    0    0  505  502 +0.0000000000e+00 +0.0000000000e+00 +1.7145092209e+02 1.7145092209e+02 0.0000000000e+00 0.0000e+00 1.0000e+00
       21 -1    0    0  501  503 -0.0000000000e+00 -0.0000000000e+00 -8.0556464757e+02 8.0556464757e+02 0.0000000000e+00 0.0000e+00 1.0000e+00
        6  1    1    2  501    0 -7.2692081585e+01 -1.2433622219e+02 +5.4904984179e+01 2.3170496792e+02 1.7300000000e+02 0.0000e+00 1.0000e+00
       -6  1    1    2    0  504 +2.8706994949e+01 +3.7327251980e+01 -4.3848592701e+02 4.7372600043e+02 1.7300000000e+02 0.0000e+00 1.0000e+00
       21  1    1    2  504  502 +3.2201223147e+01 +5.1756116172e+01 -1.0529802638e+02 1.2166876630e+02 0.0000000000e+00 0.0000e+00 1.0000e+00
       21  1    1    2  505  503 +1.1783863490e+01 +3.5252854034e+01 -1.4523475627e+02 1.4991583500e+02 0.0000000000e+00 0.0000e+00 1.0000e+00
<mgrwt>
<rscale>  4 0.21534225E+03</rscale>
<asrwt>0</asrwt>
<pdfrwt beam="1">  1       21 0.26377065E-01 0.21534225E+03</pdfrwt>
<pdfrwt beam="2">  1       21 0.12393302E+00 0.21534225E+03</pdfrwt>
<totfact> 0.65481847E+03</totfact>
</mgrwt>
</event>
<event>
 6      1 +2.5168421e+02 2.01797900e+02 7.54677100e-03 1.17132900e-01
       21 -1    0    0  503  502 +0.0000000000e+00 +0.0000000000e+00 +4.8952086415e+02 4.8952086415e+02 0.0000000000e+00 0.0000e+00 -1.0000e+00
       21 -1    0    0  504  503 -0.0000000000e+00 -0.0000000000e+00 -4.6092335417e+02 4.6092335417e+02 0.0000000000e+00 0.0000e+00 -1.0000e+00
        6  1    1    2  501    0 +1.0994519904e+02 +5.5236924922e+01 -9.4239027966e+01 2.3226936746e+02 1.7300000000e+02 0.0000e+00 -1.0000e+00
       -6  1    1    2    0  505 -6.3227660819e+01 -3.7219822296e+01 +2.2132710647e+02 2.9034073142e+02 1.7300000000e+02 0.0000e+00 -1.0000e+00
       21  1    1    2  504  501 -2.1699448789e+01 +8.1526323347e+00 -2.6065179266e+02 2.6168050846e+02 0.0000000000e+00 0.0000e+00 -1.0000e+00
       21  1    1    2  505  502 -2.5018089429e+01 -2.6169734961e+01 +1.6216122414e+02 1.6615361098e+02 0.0000000000e+00 0.0000e+00 -1.0000e+00
<mgrwt>
<rscale>  4 0.20179787E+03</rscale>
<asrwt>0</asrwt>
<pdfrwt beam="1">  1       21 0.75310902E-01 0.20179787E+03</pdfrwt>
<pdfrwt beam="2">  1       21 0.70911285E-01 0.20179787E+03</pdfrwt>
<totfact> 0.28146391E+03</totfact>
</mgrwt>
</event>
<event>
 6      1 +2.5168421e+02 3.09443600e+02 7.54677100e-03 1.15942100e-01
       21 -1    0    0  504  502 +0.0000000000e+00 +0.0000000000e+00 +6.5905145697e+02 6.5905145697e+02 0.0000000000e+00 0.0000e+00 1.0000e+00
       21 -1    0    0  501  503 -0.0000000000e+00 -0.0000000000e+00 -3.5893353421e+02 3.5893353421e+02 0.0000000000e+00 0.0000e+00 -1.0000e+00
        6  1    1    2  501    0 -8.4835564289e+01 -2.8970507019e+02 -5.4391910615e+01 3.5215561986e+02 1.7300000000e+02 0.0000e+00 1.0000e+00
       -6  1    1    2    0  502 +1.5527095923e+02 +6.0729393148e+01 +3.4884621582e+02 4.2357975904e+02 1.7300000000e+02 0.0000e+00 -1.0000e+00
       21  1    1    2  504  505 -5.3465110048e+01 +1.9640574999e+02 +1.5757700451e+01 2.0416180286e+02 0.0000000000e+00 0.0000e+00 -1.0000e+00
       21  1    1    2  505  503 -1.6970284889e+01 +3.2569927044e+01 -1.0094082909e+01 3.8087809423e+01 0.0000000000e+00 0.0000e+00 1.0000e+00
<mgrwt>
<rscale>  4 0.29047426E+03</rscale>
<asrwt>0</asrwt>
<pdfrwt beam="1">  1       21 0.10139253E+00 0.30944358E+03</pdfrwt>
<pdfrwt beam="2">  1       21 0.55220544E-01 0.30944358E+03</pdfrwt>
<totfact> 0.22614394E+03</totfact>
</mgrwt>
</event>
<event>
 6      1 +2.5168421e+02 3.44470600e+02 7.54677100e-03 1.15942100e-01
       21 -1    0    0  504  502 +0.0000000000e+00 +0.0000000000e+00 +1.2460078568e+03 1.2460078568e+03 0.0000000000e+00 0.0000e+00 -1.0000e+00
       21 -1    0    0  501  503 -0.0000000000e+00 -0.0000000000e+00 -1.7199800628e+02 1.7199800628e+02 0.0000000000e+00 0.0000e+00 -1.0000e+00
        6  1    1    2  501    0 +2.3617765712e+02 -1.6444354028e+02 +6.0811248857e+02 6.9465916996e+02 1.7300000000e+02 0.0000e+00 -1.0000e+00
       -6  1    1    2    0  502 -2.4951372579e+01 -4.6285981984e-01 +1.8818432668e+02 2.5683676926e+02 1.7300000000e+02 0.0000e+00 1.0000e+00
       21  1    1    2  504  505 +4.8648604432e+01 -1.2515404082e+01 +5.6691024532e+00 5.0551565506e+01 0.0000000000e+00 0.0000e+00 -1.0000e+00
       21  1    1    2  505  503 -2.5987488897e+02 +1.7742180418e+02 +2.7204393286e+02 4.1595835840e+02 0.0000000000e+00 0.0000e+00 -1.0000e+00
<mgrwt>
<rscale>  4 0.29022803E+03</rscale>
<asrwt>0</asrwt>
<pdfrwt beam="1">  1       21 0.19169351E+00 0.34447065E+03</pdfrwt>
<pdfrwt beam="2">  1       21 0.26461233E-01 0.34447065E+03</pdfrwt>
<totfact> 0.18388922E+03</totfact>
</mgrwt>
</event>
<event>
 6      1 +2.5168421e+02 2.00449300e+02 7.54677100e-03 1.16820100e-01
       21 -1    0    0  505  502 +0.0000000000e+00 +0.0000000000e+00 +6.2077877325e+01 6.2077877325e+01 0.0000000000e+00 0.0000e+00 1.0000e+00
       21 -1    0    0  504  503 -0.0000000000e+00 -0.0000000000e+00 -1.3922374492e+03 1.3922374492e+03 0.0000000000e+00 0.0000e+00 1.0000e+00
        6  1    1    2  501    0 -8.7901244842e+01 -5.5388304884e+01 -7.2746320066e+02 7.5493456768e+02 1.7300000000e+02 0.0000e+00 1.0000e+00
       -6  1    1    2    0  503 +1.1126687133e+02 -1.1572886637e+01 -3.7739703191e+02 4.2996717090e+02 1.7300000000e+02 0.0000e+00 1.0000e+00
       21  1    1    2  504  502 +3.4902267771e+01 +7.7200082728e+01 -1.0156101815e+02 1.3225982564e+02 0.0000000000e+00 0.0000e+00 1.0000e+00
       21  1    1    2  505  501 -5.8267894259e+01 -1.0238891207e+01 -1.2373832120e+02 1.3715376236e+02 0.0000000000e+00 0.0000e+00 1.0000e+00
<mgrwt>
<rscale>  4 0.20044934E+03</rscale>
<asrwt>0</asrwt>
<pdfrwt beam="1">  1       21 0.95504424E-02 0.20044934E+03</pdfrwt>
<pdfrwt beam="2">  1       21 0.21419038E+00 0.20044934E+03</pdfrwt>
<totfact> 0.95499533E+03</totfact>
</mgrwt>
</event>
<event>
 6      1 +2.5168421e+02 2.24400300e+02 7.54677100e-03 1.09842800e-01
       21 -1    0    0  505  502 +0.0000000000e+00 +0.0000000000e+00 +3.2535919803e+02 3.2535919803e+02 0.0000000000e+00 0.0000e+00 -1.0000e+00
       21 -1    0    0  501  503 -0.0000000000e+00 -0.0000000000e+00 -3.3275972599e+02 3.3275972599e+02 0.0000000000e+00 0.0000e+00 -1.0000e+00
        6  1    1    2  501    0 -1.2515456397e+02 +1.3053675062e+02 +4.4947188630e+01 2.5426906597e+02 1.7300000000e+02 0.0000e+00 -1.0000e+00
       -6  1    1    2    0  504 +8.6916982095e+01 -9.4166388081e+01 -1.4037550651e+02 2.5701391645e+02 1.7300000000e+02 0.0000e+00 -1.0000e+00
       21  1    1    2  504  502 +3.8746069811e+01 +2.0332699080e+01 +2.0026294036e+00 4.3802820711e+01 0.0000000000e+00 0.0000e+00 1.0000e+00
       21  1    1    2  505  503 -5.0848793897e-01 -5.6703061616e+01 +8.6025160523e+01 1.0303312089e+02 0.0000000000e+00 0.0000e+00 -1.0000e+00
<mgrwt>
<rscale>  4 0.22440031E+03</rscale>
<asrwt>0</asrwt>
<pdfrwt beam="1">  1       21 0.50055261E-01 0.22440031E+03</pdfrwt>
<pdfrwt beam="2">  1       21 0.51193804E-01 0.22440031E+03</pdfrwt>
<totfact> 0.13518929E+04</totfact>
</mgrwt>
</event>
<event>
 6      1 +2.5168421e+02 1.74784800e+02 7.54677100e-03 1.16820100e-01
       21 -1    0    0  501  502 +0.0000000000e+00 +0.0000000000e+00 +8.0866519391e+02 8.0866519391e+02 0.0000000000e+00 0.0000e+00 1.0000e+00
       21 -1    0    0  504  503 -0.0000000000e+00 -0.0000000000e+00 -1.5912353696e+02 1.5912353696e+02 0.0000000000e+00 0.0000e+00 1.0000e+00
        6  1    1    2  501    0 -7.3307976881e+01 -7.3092863257e+01 +2.4836179413e+02 3.1988936669e+02 1.7300000000e+02 0.0000e+00 1.0000e+00
       -6  1    1    2    0  503 -2.0412446604e+01 -2.4736843601e+01 +2.7408510435e+02 3.2569959140e+02 1.7300000000e+02 0.0000e+00 -1.0000e+00
       21  1    1    2  504  505 -3.8016866941e+01 +5.9331120431e+01 -5.8351465752e+01 9.1489658318e+01 0.0000000000e+00 0.0000e+00 1.0000e+00
       21  1    1    2  505  502 +1.3173729043e+02 +3.8498586426e+01 +1.8544622421e+02 2.3071011447e+02 0.0000000000e+00 0.0000e+00 1.0000e+00
<mgrwt>
<rscale>  4 0.17478481E+03</rscale>
<asrwt>0</asrwt>
<pdfrwt beam="1">  1       21 0.12441003E+00 0.17478481E+03</pdfrwt>
<pdfrwt beam="2">  1       21 0.24480545E-01 0.17478481E+03</pdfrwt>
<totfact> 0.77166757E+03</totfact>
</mgrwt>
</event>
<event>
 6      1 +2.5168421e+02 2.42064600e+02 7.54677100e-03 1.16820100e-01
       21 -1    0    0  501  502 +0.0000000000e+00 +0.0000000000e+00 +3.6954955770e+02 3.6954955770e+02 0.0000000000e+00 0.0000e+00 1.0000e+00
       21 -1    0    0  504  503 -0.0000000000e+00 -0.0000000000e+00 -2.2469152706e+03 2.2469152706e+03 0.0000000000e+00 0.0000e+00 1.0000e+00
        6  1    1    2  501    0 +4.4527556957e+01 -1.7343558158e+02 +1.0108138490e+02 2.6871741785e+02 1.7300000000e+02 0.0000e+00 1.0000e+00
       -6  1    1    2    0  503 -3.2576701108e+02 -2.2253426875e+01 -4.7327180518e+02 6.0044530316e+02 1.7300000000e+02 0.0000e+00 1.0000e+00
       21  1    1    2  504  505 +1.9561716178e+02 -1.9514831774e+01 -1.5028761207e+03 1.5156792328e+03 0.0000000000e+00 0.0000e+00 1.0000e+00
       21  1    1    2  505  502 +8.5622292346e+01 +2.1520384023e+02 -2.2991719529e+00 2.3162287449e+02 0.0000000000e+00 0.0000e+00 1.0000e+00
<mgrwt>
<rscale>  4 0.24086433E+03</rscale>
<asrwt>0</asrwt>
<pdfrwt beam="1">  1       21 0.56853777E-01 0.24206459E+03</pdfrwt>
<pdfrwt beam="2">  1       21 0.34567928E+00 0.24206459E+03</pdfrwt>
<totfact> 0.49739085E+01</totfact>
</mgrwt>
</event>
<event>
 6      1 +2.5168421e+02 1.93200000e+02 7.54677100e-03 1.03924000e-01
       21 -1    0    0  504  502 +0.0000000000e+00 +0.0000000000e+00 +3.5268603122e+02 3.5268603122e+02 0.0000000000e+00 0.0000e+00 -1.0000e+00
       21 -1    0    0  501  503 -0.0000000000e+00 -0.0000000000e+00 -5.3789847614e+02 5.3789847614e+02 0.0000000000e+00 0.0000e+00 1.0000e+00
        6  1    1    2  501    0 -7.3272977022e+01 -4.8094339087e+01 -1.5749885250e+02 2.4983371100e+02 1.7300000000e+02 0.0000e+00 1.0000e+00
       -6  1    1    2    0  505 +7.1611876912e+01 +4.5807811487e+01 -3.0173628989e+02 3.5805084157e+02 1.7300000000e+02 0.0000e+00 1.0000e+00
       21  1    1    2  504  503 -1.9251942268e+01 -2.6274731514e+01 +1.6105258381e+02 1.6431352211e+02 0.0000000000e+00 0.0000e+00 -1.0000e+00
       21  1    1    2  505  502 +2.0913042378e+01 +2.8561259114e+01 +1.1297011366e+02 1.1838643268e+02 0.0000000000e+00 0.0000e+00 -1.0000e+00
<mgrwt>
<rscale>  4 0.19320003E+03</rscale>
<asrwt>0</asrwt>
<pdfrwt beam="1">  1       21 0.54259390E-01 0.19320003E+03</pdfrwt>
<pdfrwt beam="2">  1       21 0.82753611E-01 0.19320003E+03</pdfrwt>
<totfact> 0.40870319E+03</totfact>
</mgrwt>
</event>
<event>
 6      1 +2.5168421e+02 1.92584500e+02 7.54677100e-03 1.16820100e-01
       21 -1    0    0  505  502 +0.0000000000e+00 +0.0000000000e+00 +5.4046170323e+01 5.4046170323e+01 0.0000000000e+00 0.0000e+00 -1.0000e+00
       21 -1    0    0  501  503 -0.0000000000e+00 -0.0000000000e+00 -1.0885387457e+03 1.0885387457e+03 0.0000000000e+00 0.0000e+00 -1.0000e+00
        6  1    1    2  501    0 -1.5245023253e+01 -8.9336599670e+01 -6.7406198542e+02 7.0178486658e+02 1.7300000000e+02 0.0000e+00 -1.0000e+00
       -6  1    1    2    0  504 +1.1535723610e+01 +7.2035641163e+01 -3.0082062979e+02 3.5460436803e+02 1.7300000000e+02 0.0000e+00 -1.0000e+00
       21  1    1    2  504  502 -2.4035543965e+01 -4.4757667556e+00 -3.6837670392e+01 4.4212597997e+01 0.0000000000e+00 0.0000e+00 1.0000e+00
       21  1    1    2  505  503 +2.7744843608e+01 +2.1776725263e+01 -2.2772289731e+01 4.1983083374e+01 0.0000000000e+00 0.0000e+00 -1.0000e+00
<mgrwt>
<rscale>  4 0.19258446E+03</rscale>
<asrwt>0</asrwt>
<pdfrwt beam="1">  1       21 0.83147961E-02 0.19258446E+03</pdfrwt>
<pdfrwt beam="2">  1       21 0.16746749E+00 0.19258446E+03</pdfrwt>
<totfact> 0.24949263E+04</totfact>
</mgrwt>
</event>
<event>
 6      1 +2.5168421e+02 1.92067500e+02 7.54677100e-03 1.07240600e-01
       21 -1    0    0  505  502 +0.0000000000e+00 +0.0000000000e+00 +2.2661552348e+02 2.2661552348e+02 0.0000000000e+00 0.0000e+00 -1.0000e+00
       21 -1    0    0  504  503 -0.0000000000e+00 -0.0000000000e+00 -3.4697093870e+02 3.4697093870e+02 0.0000000000e+00 0.0000e+00 -1.0000e+00
        6  1    1    2  501    0 +9.0743808354e+01 -9.8724724716e+01 -7.7724446347e+01 2.3227376000e+02 1.7300000000e+02 0.0000e+00 -1.0000e+00
       -6  1    1    2    0  502 -6.1798706641e+01 +2.1222748610e+01 +6.0985859700e+01 1.9472483222e+02 1.7300000000e+02 0.0000e+00 -1.0000e+00
       21  1    1    2  504  501 -4.1830651146e+01 +4.6433627344e+01 -3.8793933406e+01 7.3558509995e+01 0.0000000000e+00 0.0000e+00 1.0000e+00
       21  1    1    2  505  503 +1.2885549433e+01 +3.1068348762e+01 -6.4822895164e+01 7.3029359962e+01 0.0000000000e+00 0.0000e+00 1.0000e+00
<mgrwt>
<rscale>  4 0.19206748E+03</rscale>
<asrwt>0</asrwt>
<pdfrwt beam="1">  1       21 0.34863927E-01 0.19206748E+03</pdfrwt>
<pdfrwt beam="2">  1       21 0.53380144E-01 0.19206748E+03</pdfrwt>
<totfact> 0.26357624E+04</totfact>
</mgrwt>
</event>
<event>
 6      1 +2.5168421e+02 2.57593400e+02 7.54677100e-03 1.15942100e-01
       21 -1    0    0  504  502 +0.0000000000e+00 +0.0000000000e+00 +8.0368874345e+02 8.0368874345e+02 0.0000000000e+00 0.0000e+00 1.0000e+00
       21 -1    0    0  501  503 -0.0000000000e+00 -0.0000000000e+00 -4.4827596585e+02 4.4827596585e+02 0.0000000000e+00 0.0000e+00 -1.0000e+00
        6  1    1    2  501    0 -7.3740176068e+01 -4.8295202528e+01 -4.8955124008e+01 2.0023896804e+02 1.7300000000e+02 0.0000e+00 -1.0000e+00
       -6  1    1    2    0  502 +1.9987150907e+02 +7.3890529900e+01 +6.8567686031e+02 7.3857307513e+02 1.7300000000e+02 0.0000e+00 1.0000e+00
       21  1    1    2  504  505 -3.9380017579e+01 -1.1116178559e+01 -4.4080526442e+01 6.0145224429e+01 0.0000000000e+00 0.0000e+00 1.0000e+00
       21  1    1    2  505  503 -8.6751315423e+01 -1.4479148813e+01 -2.3722843227e+02 2.5300744170e+02 0.0000000000e+00 0.0000e+00 -1.0000e+00
<mgrwt>
<rscale>  4 0.25759344E+03</rscale>
<asrwt>0</asrwt>
<pdfrwt beam="1">  1       21 0.12364442E+00 0.25759344E+03</pdfrwt>
<pdfrwt beam="2">  1       21 0.68965533E-01 0.25759344E+03</pdfrwt>
<totfact> 0.88482484E+02</totfact>
</mgrwt>
</event>
<event>
 6      1 +2.5168421e+02 2.34569600e+02 7.54677100e-03 1.17132900e-01
       21 -1    0    0  505  502 +0.0000000000e+00 +0.0000000000e+00 +1.1021351948e+03 1.1021351948e+03 0.0000000000e+00 0.0000e+00 -1.0000e+00
       21 -1    0    0  504  503 -0.0000000000e+00 -0.0000000000e+00 -1.1405752662e+02 1.1405752662e+02 0.0000000000e+00 0.0000e+00 1.0000e+00
        6  1    1    2  501    0 +1.1145654742e+02 -8.2678062649e+01 +5.5966202808e+02 6.0200399474e+02 1.7300000000e+02 0.0000e+00 -1.0000e+00
       -6  1    1    2    0  502 -5.0178430342e+01 +1.6436823654e+02 +2.7574916166e+02 3.6810513744e+02 1.7300000000e+02 0.0000e+00 -1.0000e+00
       21  1    1    2  504  501 -2.7011711386e+01 +1.4236788562e+01 -2.6207589190e+01 4.0238742919e+01 0.0000000000e+00 0.0000e+00 1.0000e+00
       21  1    1    2  505  503 -3.4266405689e+01 -9.5926962450e+01 +1.7887406759e+02 2.0584484628e+02 0.0000000000e+00 0.0000e+00 -1.0000e+00
<mgrwt>
<rscale>  4 0.23456962E+03</rscale>
<asrwt>0</asrwt>
<pdfrwt beam="1">  1       21 0.16955925E+00 0.23456962E+03</pdfrwt>
<pdfrwt beam="2">  1       21 0.17547313E-01 0.23456962E+03</pdfrwt>
<totfact> 0.61183282E+03</totfact>
</mgrwt>
</event>
<event>
 6      1 +2.5168421e+02 2.01926300e+02 7.54677100e-03 1.15942100e-01
       21 -1    0    0  504  502 +0.0000000000e+00 +0.0000000000e+00 +2.1024213073e+02 2.1024213073e+02 0.0000000000e+00 0.0000e+00 1.0000e+00
       21 -1    0    0  501  503 -0.0000000000e+00 -0.0000000000e+00 -4.7465815561e+02 4.7465815561e+02 0.0000000000e+00 0.0000e+00 1.0000e+00
        6  1    1    2  501    0 -8.8933096710e+01 -7.3812833995e+01 +8.4218173212e+01 2.2445295911e+02 1.7300000000e+02 0.0000e+00 1.0000e+00
       -6  1    1    2    0  502 +4.8199028897e+01 +5.9525910332e+01 -1.2536463997e+02 2.2696205265e+02 1.7300000000e+02 0.0000e+00 1.0000e+00
       21  1    1    2  504  505 +2.1969769880e+01 -3.8041915526e+00 -2.4953698904e+01 3.3463857383e+01 0.0000000000e+00 0.0000e+00 1.0000e+00
       21  1    1    2  505  503 +1.8764297933e+01 +1.8091115216e+01 -1.9831585921e+02 2.0002141721e+02 0.0000000000e+00 0.0000e+00 1.0000e+00
<mgrwt>
<rscale>  4 0.20192633E+03</rscale>
<asrwt>0</asrwt>
<pdfrwt beam="1">  1       21 0.32344944E-01 0.20192633E+03</pdfrwt>
<pdfrwt beam="2">  1       21 0.73024331E-01 0.20192633E+03</pdfrwt>
<totfact> 0.15425755E+04</totfact>
</mgrwt>
</event>
<event>
 6      1 +2.5168421e+02 2.35593700e+02 7.54677100e-03 1.03924000e-01
       21 -1    0    0  501  502 +0.0000000000e+00 +0.0000000000e+00 +4.4313240584e+02 4.4313240584e+02 0.0000000000e+00 0.0000e+00 1.0000e+00
       21 -1    0    0  502  503 -0.0000000000e+00 -0.0000000000e+00 -3.9602083533e+02 3.9602083533e+02 0.0000000000e+00 0.0000e+00 -1.0000e+00
        6  1    1    2  501    0 -1.0187292972e+02 -8.0440876434e+01 +1.4098217902e+02 2.5817397857e+02 1.7300000000e+02 0.0000e+00 1.0000e+00
       -6  1    1    2    0  505 +1.6143597388e+02 -1.1436621817e+02 -2.0772197191e+02 3.3499048216e+02 1.7300000000e+02 0.0000e+00 -1.0000e+00
       21  1    1    2  504  503 +1.4676918520e+01 +2.7631148987e+01 +1.5043245220e+00 3.1323398983e+01 0.0000000000e+00 0.0000e+00 1.0000e+00
       21  1    1    2  505  504 -7.4239962688e+01 +1.6717594562e+02 +1.1234703888e+02 2.1466538146e+02 0.0000000000e+00 0.0000e+00 1.0000e+00
<mgrwt>
<rscale>  4 0.23559371E+03</rscale>
<asrwt>0</asrwt>
<pdfrwt beam="1">  1       21 0.68174216E-01 0.23559371E+03</pdfrwt>
<pdfrwt beam="2">  1       21 0.60926283E-01 0.23559371E+03</pdfrwt>
<totfact> 0.47713492E+03</totfact>
</mgrwt>
</event>
<event>
 6      1 +2.5168421e+02 2.11179200e+02 7.54677100e-03 1.12068800e-01
       21 -1    0    0  504  502 +0.0000000000e+00 +0.0000000000e+00 +1.3822737272e+02 1.3822737272e+02 0.0000000000e+00 0.0000e+00 -1.0000e+00
       21 -1    0    0  502  503 -0.0000000000e+00 -0.0000000000e+00 -1.1413987330e+03 1.1413987330e+03 0.0000000000e+00 0.0000e+00 -1.0000e+00
        6  1    1    2  501    0 -9.9176346249e+01 -7.4244023650e+01 -1.1572071564e+02 2.4221562033e+02 1.7300000000e+02 0.0000e+00 1.0000e+00
       -6  1    1    2    0  505 +1.4391722626e+02 -5.5290367359e+01 -1.2951441829e+02 2.6546596257e+02 1.7300000000e+02 0.0000e+00 -1.0000e+00
       21  1    1    2  504  501 -5.5940272519e+01 +1.0115583540e+02 -5.7897537459e+02 5.9040181360e+02 0.0000000000e+00 0.0000e+00 -1.0000e+00
       21  1    1    2  505  503 +1.1199392513e+01 +2.8378555605e+01 -1.7896085175e+02 1.8154270921e+02 0.0000000000e+00 0.0000e+00 -1.0000e+00
<mgrwt>
<rscale>  4 0.21117916E+03</rscale>
<asrwt>0</asrwt>
<pdfrwt beam="1">  1       21 0.21265750E-01 0.21117916E+03</pdfrwt>
<pdfrwt beam="2">  1       21 0.17559980E+00 0.21117916E+03</pdfrwt>
<totfact> 0.39478637E+03</totfact>
</mgrwt>
</event>
<event>
 6      1 +2.5168421e+02 2.11011900e+02 7.54677100e-03 1.07240600e-01
       21 -1    0    0  505  502 +0.0000000000e+00 +0.0000000000e+00 +2.8461043599e+03 2.8461043599e+03 0.0000000000e+00 0.0000e+00 1.0000e+00
       21 -1    0    0  504  503 -0.0000000000e+00 -0.0000000000e+00 -6.7713334967e+01 6.7713334967e+01 0.0000000000e+00 0.0000e+00 1.0000e+00
        6  1    1    2  501    0 +8.6739275493e+01 +1.1130318718e+02 +9.0684361040e+02 9.3391992972e+02 1.7300000000e+02 0.0000e+00 1.0000e+00
       -6  1    1    2    0  502 -7.6257411958e+01 -8.2310096032e+01 +1.8138406375e+03 1.8255237613e+03 1.7300000000e+02 0.0000e+00 1.0000e+00
       21  1    1    2  504  501 +6.0107813820e+01 +7.2507449369e+00 +4.1455604846e+01 7.3376356938e+01 0.0000000000e+00 0.0000e+00 -1.0000e+00
       21  1    1    2  505  503 -7.0589677355e+01 -3.6243836083e+01 +1.6251172132e+01 8.0997646872e+01 0.0000000000e+00 0.0000e+00 1.0000e+00
<mgrwt>
<rscale>  4 0.21101194E+03</rscale>
<asrwt>0</asrwt>
<pdfrwt beam="1">  1       21 0.43786212E+00 0.21101194E+03</pdfrwt>
<pdfrwt beam="2">  1       21 0.10417438E-01 0.21101194E+03</pdfrwt>
<totfact> 0.36633515E+02</totfact>
</mgrwt>
</event>
<event>
 6      1 +2.5168421e+02 1.91166100e+02 7.54677100e-03 1.07240600e-01
       21 -1    0    0  505  502 +0.0000000000e+00 +0.0000000000e+00 +5.0035278438e+02 5.0035278438e+02 0.0000000000e+00 0.0000e+00 1.0000e+00
       21 -1    0    0  504  503 -0.0000000000e+00 -0.0000000000e+00 -1.4048730489e+02 1.4048730489e+02 0.0000000000e+00 0.0000e+00 1.0000e+00
        6  1    1    2  501    0 -6.5987251050e-01 -4.3576333483e+01 +1.6650269440e+02 2.4403171825e+02 1.7300000000e+02 0.0000e+00 -1.0000e+00
       -6  1    1    2    0  502 -9.6053563733e-01 +1.4967445912e+02 +1.1632007738e+02 2.5663734480e+02 1.7300000000e+02 0.0000e+00 -1.0000e+00
       21  1    1    2  504  501 +2.2180226547e+01 -5.2817605512e+01 +2.3603140746e+01 6.1957809474e+01 0.0000000000e+00 0.0000e+00 1.0000e+00
       21  1    1    2  505  503 -2.0559818399e+01 -5.3280520128e+01 +5.3439566957e+01 7.8213216749e+01 0.0000000000e+00 0.0000e+00 1.0000e+00
<mgrwt>
<rscale>  4 0.19116606E+03</rscale>
<asrwt>0</asrwt>
<pdfrwt beam="1">  1       21 0.76977351E-01 0.19116606E+03</pdfrwt>
<pdfrwt beam="2">  1       21 0.21613432E-01 0.19116606E+03</pdfrwt>
<totfact> 0.29962432E+04</totfact>
</mgrwt>
</event>
<event>
 6      1 +2.5168421e+02 2.69918900e+02 7.54677100e-03 1.11471900e-01
       21 -1    0    0  503  502 +0.0000000000e+00 +0.0000000000e+00 +8.8173139850e+02 8.8173139850e+02 0.0000000000e+00 0.0000e+00 -1.0000e+00
       21 -1    0    0  501  503 -0.0000000000e+00 -0.0000000000e+00 -2.8135535390e+02 2.8135535390e+02 0.0000000000e+00 0.0000e+00 -1.0000e+00
        6  1    1    2  501    0 +1.2498672206e+02 +1.6816347288e+02 +5.7494869070e+02 6.3592108884e+02 1.7300000000e+02 0.0000e+00 -1.0000e+00
       -6  1    1    2    0  505 +1.2759887725e+02 -9.0492595906e+01 +6.5711677638e+01 2.4231675132e+02 1.7300000000e+02 0.0000e+00 -1.0000e+00
       21  1    1    2  504  502 -2.3955231579e+02 -5.2459483300e+01 -5.7196604824e+01 2.5181096281e+02 0.0000000000e+00 0.0000e+00 -1.0000e+00
       21  1    1    2  505  504 -1.3033283528e+01 -2.5211393675e+01 +1.6912281091e+01 3.3037949426e+01 0.0000000000e+00 0.0000e+00 1.0000e+00
<mgrwt>
<rscale>  4 0.26052823E+03</rscale>
<asrwt>0</asrwt>
<pdfrwt beam="1">  1       21 0.13565098E+00 0.26991889E+03</pdfrwt>
<pdfrwt beam="2">  1       21 0.43285439E-01 0.26991889E+03</pdfrwt>
<totfact> 0.18699318E+03</totfact>
</mgrwt>
</event>
<event>
 6      1 +2.5168421e+02 2.89808800e+02 7.54677100e-03 1.16820100e-01
       21 -1    0    0  504  502 +0.0000000000e+00 +0.0000000000e+00 +6.7556528025e+02 6.7556528025e+02 0.0000000000e+00 0.0000e+00 -1.0000e+00
       21 -1    0    0  501  503 -0.0000000000e+00 -0.0000000000e+00 -2.5049424296e+02 2.5049424296e+02 0.0000000000e+00 0.0000e+00 1.0000e+00
        6  1    1    2  501    0 +1.8162244172e+02 -1.9820113279e+02 +1.5386240517e+02 3.5478590742e+02 1.7300000000e+02 0.0000e+00 1.0000e+00
       -6  1    1    2    0  505 -6.9168886282e+01 +2.0091267638e+02 +2.1028788603e+02 3.4539865861e+02 1.7300000000e+02 0.0000e+00 -1.0000e+00
       21  1    1    2  504  503 -5.9865306147e+01 +1.5357155650e+01 -6.4102291159e+01 8.9043814168e+01 0.0000000000e+00 0.0000e+00 -1.0000e+00
       21  1    1    2  505  502 -5.2588249295e+01 -1.8068699246e+01 +1.2502303725e+02 1.3683114302e+02 0.0000000000e+00 0.0000e+00 -1.0000e+00
<mgrwt>
<rscale>  4 0.28980880E+03</rscale>
<asrwt>0</asrwt>
<pdfrwt beam="1">  1       21 0.10393312E+00 0.28980880E+03</pdfrwt>
<pdfrwt beam="2">  1       21 0.38537576E-01 0.28980880E+03</pdfrwt>
<totfact> 0.45559143E+03</totfact>
</mgrwt>
</event>
<event>
 6      1 +2.5168421e+02 4.79027000e+02 7.54677100e-03 1.04003000e-01
       21 -1    0    0  504  502 +0.0000000000e+00 +0.0000000000e+00 +7.8143306099e+02 7.8143306099e+02 0.0000000000e+00 0.0000e+00 -1.0000e+00
       21 -1    0    0  505  503 -0.0000000000e+00 -0.0000000000e+00 -1.3897867027e+03 1.3897867027e+03 0.0000000000e+00 0.0000e+00 -1.0000e+00
        6  1    1    2  501    0 +3.5194967152e+02 -2.9461980719e+02 +2.6114541484e+02 5.5569355743e+02 1.7300000000e+02 0.0000e+00 -1.0000e+00
       -6  1    1    2    0  503 -3.3710397280e+02 +2.7304782225e+02 +1.9588205058e+02 5.0645135941e+02 1.7300000000e+02 0.0000e+00 -1.0000e+00
       21  1    1    2  504  501 -3.4451943744e+01 +4.5160084001e+01 -1.0753300287e+03 1.0768291602e+03 0.0000000000e+00 0.0000e+00 -1.0000e+00
       21  1    1    2  505  502 +1.9606245019e+01 -2.3588099059e+01 +9.9489216549e+00 3.2245686581e+01 0.0000000000e+00 0.0000e+00 -1.0000e+00
<mgrwt>
<rscale>  4 0.47902702E+03</rscale>
<asrwt>0</asrwt>
<pdfrwt beam="1">  1       21 0.12022047E+00 0.47902702E+03</pdfrwt>
<pdfrwt beam="2">  1       21 0.21381334E+00 0.47902702E+03</pdfrwt>
<totfact> 0.44150995E+01</totfact>
</mgrwt>
</event>
<event>
 6      1 +2.5168421e+02 2.23381300e+02 7.54677100e-03 1.17132900e-01
       21 -1    0    0  503  502 +0.0000000000e+00 +0.0000000000e+00 +1.9808470899e+03 1.9808470899e+03 0.0000000000e+00 0.0000e+00 -1.0000e+00
       21 -1    0    0  504  503 -0.0000000000e+00 -0.0000000000e+00 -1.6211380186e+02 1.6211380186e+02 0.0000000000e+00 0.0000e+00 -1.0000e+00
        6  1    1    2  501    0 +6.8714792798e+01 -7.9826706261e+01 +5.7228735210e+02 6.0707152722e+02 1.7300000000e+02 0.0000e+00 -1.0000e+00
       -6  1    1    2    0  505 -1.6178202621e+02 +9.2829915310e+01 +7.1056715841e+02 7.5473538660e+02 1.7300000000e+02 0.0000e+00 1.0000e+00
       21  1    1    2  504  501 +8.7142409646e+01 +2.4034302600e+01 -1.0535707994e+02 1.3882204996e+02 0.0000000000e+00 0.0000e+00 -1.0000e+00
       21  1    1    2  505  502 +5.9248237708e+00 -3.7037511649e+01 +6.4123585744e+02 6.4233192796e+02 0.0000000000e+00 0.0000e+00 -1.0000e+00
<mgrwt>
<rscale>  4 0.22338133E+03</rscale>
<asrwt>0</asrwt>
<pdfrwt beam="1">  1       21 0.30474569E+00 0.22338133E+03</pdfrwt>
<pdfrwt beam="2">  1       21 0.24940586E-01 0.22338133E+03</pdfrwt>
<totfact> 0.46771452E+02</totfact>
</mgrwt>
</event>
<event>
 6      1 +2.5168421e+02 3.27897400e+02 7.54677100e-03 1.16820100e-01
       21 -1    0    0  501  502 +0.0000000000e+00 +0.0000000000e+00 +4.4142316307e+02 4.4142316307e+02 0.0000000000e+00 0.0000e+00 -1.0000e+00
       21 -1    0    0  504  503 -0.0000000000e+00 -0.0000000000e+00 -9.5688831827e+02 9.5688831827e+02 0.0000000000e+00 0.0000e+00 -1.0000e+00
        6  1    1    2  501    0 +1.9142383591e+02 -1.2535768159e+02 +2.2622033398e+02 3.6532488663e+02 1.7300000000e+02 0.0000e+00 -1.0000e+00
       -6  1    1    2    0  503 -2.9595858563e+02 +9.5023469810e+01 -4.2755521310e+02 5.5619547326e+02 1.7300000000e+02 0.0000e+00 -1.0000e+00
       21  1    1    2  504  505 +6.0320010773e+01 +6.9352504732e+01 -3.7849613553e+02 3.8949659591e+02 0.0000000000e+00 0.0000e+00 -1.0000e+00
       21  1    1    2  505  502 +4.4214738948e+01 -3.9018292956e+01 +6.4365859453e+01 8.7294525536e+01 0.0000000000e+00 0.0000e+00 -1.0000e+00
<mgrwt>
<rscale>  4 0.32789735E+03</rscale>
<asrwt>0</asrwt>
<pdfrwt beam="1">  1       21 0.67911256E-01 0.32789735E+03</pdfrwt>
<pdfrwt beam="2">  1       21 0.14721359E+00 0.32789735E+03</pdfrwt>
<totfact> 0.55421671E+02</totfact>
</mgrwt>
</event>
<event>
 6      1 +2.5168421e+02 2.11622100e+02 7.54677100e-03 1.16820100e-01
       21 -1    0    0  501  502 +0.0000000000e+00 +0.0000000000e+00 +5.1805542999e+02 5.1805542999e+02 0.0000000000e+00 0.0000e+00 -1.0000e+00
       21 -1    0    0  504  503 -0.0000000000e+00 -0.0000000000e+00 -1.3467107685e+02 1.3467107685e+02 0.0000000000e+00 0.0000e+00 1.0000e+00
        6  1    1    2  501    0 -1.1215256081e+01 -1.1154360500e+02 +1.3601120926e+02 2.4697329174e+02 1.7300000000e+02 0.0000e+00 1.0000e+00
       -6  1    1    2    0  503 +2.5161486357e+01 +1.2965624807e+02 +1.9298633893e+02 2.9088927459e+02 1.7300000000e+02 0.0000e+00 1.0000e+00
       21  1    1    2  504  505 +2.6680274831e+01 -1.4682482323e+01 -1.5334824170e+01 3.4096468799e+01 0.0000000000e+00 0.0000e+00 1.0000e+00
       21  1    1    2  505  502 -4.0626505107e+01 -3.4301607391e+00 +6.9721629129e+01 8.0767471721e+01 0.0000000000e+00 0.0000e+00 1.0000e+00
<mgrwt>
<rscale>  4 0.21162207E+03</rscale>
<asrwt>0</asrwt>
<pdfrwt beam="1">  1       21 0.79700835E-01 0.21162207E+03</pdfrwt>
<pdfrwt beam="2">  1       21 0.20718627E-01 0.21162207E+03</pdfrwt>
<totfact> 0.29657610E+04</totfact>
</mgrwt>
</event>
<event>
 6      1 +2.5168421e+02 1.80364100e+02 7.54677100e-03 1.17132900e-01
       21 -1    0    0  503  502 +0.0000000000e+00 +0.0000000000e+00 +2.7368057945e+03 2.7368057945e+03 0.0000000000e+00 0.0000e+00 -1.0000e+00
       21 -1    0    0  504  503 -0.0000000000e+00 -0.0000000000e+00 -4.6014965471e+01 4.6014965471e+01 0.0000000000e+00 0.0000e+00 1.0000e+00
        6  1    1    2  501    0 +1.6026209379e+01 +4.1373961792e+01 +4.4697793983e+02 4.8133867785e+02 1.7300000000e+02 0.0000e+00 1.0000e+00
       -6  1    1    2    0  505 -5.5111501993e+01 -3.3558310219e+01 +4.5793740361e+02 4.9376016796e+02 1.7300000000e+02 0.0000e+00 -1.0000e+00
       21  1    1    2  504  501 -1.9145196571e+01 +7.4650114345e+01 +1.4912772705e+02 1.6786380521e+02 0.0000000000e+00 0.0000e+00 1.0000e+00
       21  1    1    2  505  502 +5.8230489185e+01 -8.2465765918e+01 +1.6367477586e+03 1.6398581090e+03 0.0000000000e+00 0.0000e+00 -1.0000e+00
<mgrwt>
<rscale>  4 0.18036410E+03</rscale>
<asrwt>0</asrwt>
<pdfrwt beam="1">  1       21 0.42104692E+00 0.18036410E+03</pdfrwt>
<pdfrwt beam="2">  1       21 0.70792276E-02 0.18036410E+03</pdfrwt>
<totfact> 0.97188648E+02</totfact>
</mgrwt>
</event>
<event>
 6      1 +2.5168421e+02 1.73455100e+02 7.54677100e-03 1.04003000e-01
       21 -1    0    0  504  502 +0.0000000000e+00 +0.0000000000e+00 +5.4034747832e+02 5.4034747832e+02 0.0000000000e+00 0.0000e+00 1.0000e+00
       21 -1    0    0  505  503 -0.0000000000e+00 -0.0000000000e+00 -5.1974599372e+02 5.1974599372e+02 0.0000000000e+00 0.0000e+00 -1.0000e+00
        6  1    1    2  501    0 +9.0094214421e+01 +5.3551533859e+01 +3.8992662367e+02 4.3926814828e+02 1.7300000000e+02 0.0000e+00 1.0000e+00
       -6  1    1    2    0  503 -8.9907163662e+00 -4.1672305835e+01 -3.2339616612e+02 3.6923094984e+02 1.7300000000e+02 0.0000e+00 -1.0000e+00
       21  1    1    2  504  501 +2.0024599288e+00 +5.3598392979e+01 -1.1386118845e+02 1.2586170112e+02 0.0000000000e+00 0.0000e+00 1.0000e+00
       21  1    1    2  505  502 -8.3105957983e+01 -6.5477621002e+01 +6.7932215504e+01 1.2573267279e+02 0.0000000000e+00 0.0000e+00 1.0000e+00
<mgrwt>
<rscale>  4 0.17345509E+03</rscale>
<asrwt>0</asrwt>
<pdfrwt beam="1">  1       21 0.83130381E-01 0.17345509E+03</pdfrwt>
<pdfrwt beam="2">  1       21 0.79960922E-01 0.17345509E+03</pdfrwt>
<totfact> 0.17681402E+03</totfact>
</mgrwt>
</event>
<event>
 6      1 +2.5168421e+02 5.86870800e+02 7.54677100e-03 1.07240600e-01
       21 -1    0    0  505  502 +0.0000000000e+00 +0.0000000000e+00 +2.2530508738e+03 2.2530508738e+03 0.0000000000e+00 0.0000e+00 1.0000e+00
       21 -1    0    0  504  503 -0.0000000000e+00 -0.0000000000e+00 -1.0750971652e+03 1.0750971652e+03 0.0000000000e+00 0.0000e+00 -1.0000e+00
        6  1    1    2  501    0 +4.1025723730e+01 -2.3125750771e+02 +6.0689928544e+02 6.7336385970e+02 1.7300000000e+02 0.0000e+00 1.0000e+00
       -6  1    1    2    0  502 -3.6408311522e+02 +5.3299074394e+02 +2.6684767460e+02 7.1956398559e+02 1.7300000000e+02 0.0000e+00 1.0000e+00
       21  1    1    2  504  501 +3.5079533322e+02 -2.4080478916e+02 +1.0777935585e+03 1.1587421055e+03 0.0000000000e+00 0.0000e+00 1.0000e+00
       21  1    1    2  505  503 -2.7737941731e+01 -6.0928447070e+01 -7.7358680989e+02 7.7647808823e+02 0.0000000000e+00 0.0000e+00 -1.0000e+00
<mgrwt>
<rscale>  4 0.49485401E+03</rscale>
<asrwt>0</asrwt>
<pdfrwt beam="1">  1       21 0.34662321E+00 0.58687079E+03</pdfrwt>
<pdfrwt beam="2">  1       21 0.16539956E+00 0.58687079E+03</pdfrwt>
<totfact> 0.26637908E+00</totfact>
</mgrwt>
</event>
<event>
 6      1 +2.5168421e+02 1.82279800e+02 7.54677100e-03 1.11910500e-01
       21 -1    0    0  501  502 +0.0000000000e+00 +0.0000000000e+00 +1.5937149166e+02 1.5937149166e+02 0.0000000000e+00 0.0000e+00 -1.0000e+00
       21 -1    0    0  504  503 -0.0000000000e+00 -0.0000000000e+00 -4.8711477829e+02 4.8711477829e+02 0.0000000000e+00 0.0000e+00 -1.0000e+00
        6  1    1    2  501    0 -1.9525275506e+01 +1.4960902322e+01 -1.6403086227e+02 2.3966682866e+02 1.7300000000e+02 0.0000e+00 -1.0000e+00
       -6  1    1    2    0  503 +7.0357760236e+01 +2.0084766474e+01 +4.0014654738e+01 1.9205151617e+02 1.7300000000e+02 0.0000e+00 -1.0000e+00
       21  1    1    2  504  505 -2.2206467373e+01 -2.8363797389e+00 -9.9438270612e+01 1.0192714018e+02 0.0000000000e+00 0.0000e+00 -1.0000e+00
       21  1    1    2  505  502 -2.8626017357e+01 -3.2209289057e+01 -1.0428880848e+02 1.1284078494e+02 0.0000000000e+00 0.0000e+00 -1.0000e+00
<mgrwt>
<rscale>  4 0.18227977E+03</rscale>
<asrwt>0</asrwt>
<pdfrwt beam="1">  1       21 0.24518691E-01 0.18227977E+03</pdfrwt>
<pdfrwt beam="2">  1       21 0.74940735E-01 0.18227977E+03</pdfrwt>
<totfact> 0.25184375E+04</totfact>
</mgrwt>
</event>
<event>
 6      1 +2.5168421e+02 2.00535800e+02 7.54677100e-03 1.03924000e-01
       21 -1    0    0  503  502 +0.0000000000e+00 +0.0000000000e+00 +1.6401237494e+03 1.6401237494e+03 0.0000000000e+00 0.0000e+00 1.0000e+00
       21 -1    0    0  504  503 -0.0000000000e+00 -0.0000000000e+00 -9.9578040451e+01 9.9578040451e+01 0.0000000000e+00 0.0000e+00 1.0000e+00
        6  1    1    2  501    0 +7.2368080485e+01 +4.6610796309e+01 +1.1632493506e+03 1.1791894492e+03 1.7300000000e+02 0.0000e+00 1.0000e+00
       -6  1    1    2    0  505 -8.7031710627e+01 +6.5475214398e+01 +4.6763527651e+01 2.0970777256e+02 1.7300000000e+02 0.0000e+00 1.0000e+00
       21  1    1    2  504  501 +3.3842856503e+00 -3.2216685774e+01 +1.4364979537e+02 1.4725702680e+02 0.0000000000e+00 0.0000e+00 -1.0000e+00
       21  1    1    2  505  502 +1.1279344491e+01 -7.9869324932e+01 +1.8688303535e+02 2.0354754133e+02 0.0000000000e+00 0.0000e+00 1.0000e+00
<mgrwt>
<rscale>  4 0.20053585E+03</rscale>
<asrwt>0</asrwt>
<pdfrwt beam="1">  1       21 0.25232671E+00 0.20053585E+03</pdfrwt>
<pdfrwt beam="2">  1       21 0.15319700E-01 0.20053585E+03</pdfrwt>
<totfact> 0.24109718E+03</totfact>
</mgrwt>
</event>
<event>
 6      1 +2.5168421e+02 2.96001900e+02 7.54677100e-03 1.17392200e-01
       21 -1    0    0  504  502 +0.0000000000e+00 +0.0000000000e+00 +1.0539495721e+02 1.0539495721e+02 0.0000000000e+00 0.0000e+00 -1.0000e+00
       21 -1    0    0  501  503 -0.0000000000e+00 -0.0000000000e+00 -1.7628513188e+03 1.7628513188e+03 0.0000000000e+00 0.0000e+00 1.0000e+00
        6  1    1    2  501    0 +6.6354915601e+01 -2.0067459006e+02 -2.7435812914e+02 3.8713647328e+02 1.7300000000e+02 0.0000e+00 -1.0000e+00
       -6  1    1    2    0  502 -1.0582867058e+02 +2.8054454874e+02 -6.3896157409e+02 7.2670891319e+02 1.7300000000e+02 0.0000e+00 1.0000e+00
       21  1    1    2  504  505 +5.7953654641e+01 -4.9050551740e+01 -6.3447120951e+02 6.3899788608e+02 0.0000000000e+00 0.0000e+00 1.0000e+00
       21  1    1    2  505  503 -1.8479899661e+01 -3.0819406939e+01 -1.0966544887e+02 1.1540300347e+02 0.0000000000e+00 0.0000e+00 -1.0000e+00
<mgrwt>
<rscale>  4 0.29600193E+03</rscale>
<asrwt>0</asrwt>
<pdfrwt beam="1">  1       21 0.16214610E-01 0.29600193E+03</pdfrwt>
<pdfrwt beam="2">  1       21 0.27120787E+00 0.29600193E+03</pdfrwt>
<totfact> 0.15373772E+03</totfact>
</mgrwt>
</event>
<event>
 6      1 +2.5168421e+02 1.97783700e+02 7.54677100e-03 1.17132900e-01
       21 -1    0    0  503  502 +0.0000000000e+00 +0.0000000000e+00 +2.6148483952e+03 2.6148483952e+03 0.0000000000e+00 0.0000e+00 -1.0000e+00
       21 -1    0    0  504  503 -0.0000000000e+00 -0.0000000000e+00 -3.5626226748e+01 3.5626226748e+01 0.0000000000e+00 0.0000e+00 1.0000e+00
        6  1    1    2  501    0 -1.1377055678e+02 +5.7638709767e+01 +1.0482687035e+03 1.0700758082e+03 1.7300000000e+02 0.0000e+00 -1.0000e+00
       -6  1    1    2    0  505 +3.2123232304e+00 -8.7579369143e+01 +5.8380108814e+02 6.1516922504e+02 1.7300000000e+02 0.0000e+00 1.0000e+00
       21  1    1    2  504  501 +1.7779153744e+01 -3.5648047446e+01 +6.8340738620e+01 7.9103338423e+01 0.0000000000e+00 0.0000e+00 -1.0000e+00
       21  1    1    2  505  502 +9.2779079809e+01 +6.5588706822e+01 +8.7881163818e+02 8.8612625033e+02 0.0000000000e+00 0.0000e+00 -1.0000e+00
<mgrwt>
<rscale>  4 0.19778371E+03</rscale>
<asrwt>0</asrwt>
<pdfrwt beam="1">  1       21 0.40228422E+00 0.19778371E+03</pdfrwt>
<pdfrwt beam="2">  1       21 0.54809600E-02 0.19778371E+03</pdfrwt>
<totfact> 0.19257896E+03</totfact>
</mgrwt>
</event>
<event>
 6      1 +2.5168421e+02 2.18480000e+02 7.54677100e-03 1.15942100e-01
       21 -1    0    0  503  502 +0.0000000000e+00 +0.0000000000e+00 +1.9848567160e+02 1.9848567160e+02 0.0000000000e+00 0.0000e+00 1.0000e+00
       21 -1    0    0  501  503 -0.0000000000e+00 -0.0000000000e+00 -1.3405783143e+03 1.3405783143e+03 0.0000000000e+00 0.0000e+00 -1.0000e+00
        6  1    1    2  501    0 +7.1390880699e+01 -1.5976275460e+02 -1.3692181310e+01 2.4644932833e+02 1.7300000000e+02 0.0000e+00 -1.0000e+00
       -6  1    1    2    0  505 +5.6811847951e+01 +8.7657624157e+01 -1.5401368390e+02 2.5408789812e+02 1.7300000000e+02 0.0000e+00 1.0000e+00
       21  1    1    2  504  502 -1.8456160732e+02 -7.6809671065e+01 -5.5895515739e+02 5.9362747615e+02 0.0000000000e+00 0.0000e+00 -1.0000e+00
       21  1    1    2  505  504 +5.6358878668e+01 +1.4891480151e+02 -4.1543162006e+02 4.4489928328e+02 0.0000000000e+00 0.0000e+00 -1.0000e+00
<mgrwt>
<rscale>  4 0.21847998E+03</rscale>
<asrwt>0</asrwt>
<pdfrwt beam="1">  1       21 0.30536258E-01 0.21847998E+03</pdfrwt>
<pdfrwt beam="2">  1       21 0.20624281E+00 0.21847998E+03</pdfrwt>
<totfact> 0.12271341E+03</totfact>
</mgrwt>
</event>
<event>
 6      1 +2.5168421e+02 1.87123400e+02 7.54677100e-03 9.87464100e-02
       21 -1    0    0  503  502 +0.0000000000e+00 +0.0000000000e+00 +2.3239999774e+02 2.3239999774e+02 0.0000000000e+00 0.0000e+00 1.0000e+00
       21 -1    0    0  505  503 -0.0000000000e+00 -0.0000000000e+00 -4.3877402669e+02 4.3877402669e+02 0.0000000000e+00 0.0000e+00 1.0000e+00
        6  1    1    2  501    0 +4.4206283565e+01 +5.5104294868e+01 -2.9046632646e+02 3.4538437375e+02 1.7300000000e+02 0.0000e+00 1.0000e+00
       -6  1    1    2    0  504 -1.8713729114e+00 -1.0525575482e+02 +9.3593983361e+01 2.2309439635e+02 1.7300000000e+02 0.0000e+00 1.0000e+00
       21  1    1    2  504  502 +5.2246193101e+00 +4.0314793670e+01 +2.0583188794e+01 4.5565852308e+01 0.0000000000e+00 0.0000e+00 1.0000e+00
       21  1    1    2  505  501 -4.7559529964e+01 +9.8366662857e+00 -3.0084874639e+01 5.7129402028e+01 0.0000000000e+00 0.0000e+00 1.0000e+00
<mgrwt>
<rscale>  4 0.18712338E+03</rscale>
<asrwt>0</asrwt>
<pdfrwt beam="1">  1       21 0.35753846E-01 0.18712338E+03</pdfrwt>
<pdfrwt beam="2">  1       21 0.67503696E-01 0.18712338E+03</pdfrwt>
<totfact> 0.15190774E+04</totfact>
</mgrwt>
</event>
<event>
 6      1 +2.5168421e+02 2.53775900e+02 7.54677100e-03 1.16584500e-01
       21 -1    0    0  504  502 +0.0000000000e+00 +0.0000000000e+00 +5.0765870044e+02 5.0765870044e+02 0.0000000000e+00 0.0000e+00 1.0000e+00
       21 -1    0    0  501  503 -0.0000000000e+00 -0.0000000000e+00 -4.1299038823e+02 4.1299038823e+02 0.0000000000e+00 0.0000e+00 -1.0000e+00
        6  1    1    2  501    0 +1.2103936353e+02 +1.6585912471e+02 +7.9810309860e+01 2.8010437757e+02 1.7300000000e+02 0.0000e+00 1.0000e+00
       -6  1    1    2    0  505 +1.4272822384e+02 -1.8915068694e+02 -1.0141171525e+02 3.1042336291e+02 1.7300000000e+02 0.0000e+00 1.0000e+00
       21  1    1    2  504  503 -1.6877501832e+02 -3.4084960027e+01 +3.9545097546e+00 1.7222784170e+02 0.0000000000e+00 0.0000e+00 1.0000e+00
       21  1    1    2  505  502 -9.4992569052e+01 +5.7376522249e+01 +1.1231520784e+02 1.5789350650e+02 0.0000000000e+00 0.0000e+00 1.0000e+00
<mgrwt>
<rscale>  4 0.25377593E+03</rscale>
<asrwt>0</asrwt>
<pdfrwt beam="1">  1       21 0.78101338E-01 0.25377593E+03</pdfrwt>
<pdfrwt beam="2">  1       21 0.63536983E-01 0.25377593E+03</pdfrwt>
<totfact> 0.31759958E+03</totfact>
</mgrwt>
</event>
<event>
 6      1 +2.5168421e+02 2.26335400e+02 7.54677100e-03 1.15942100e-01
       21 -1    0    0  504  502 +0.0000000000e+00 +0.0000000000e+00 +4.0185484159e+02 4.0185484159e+02 0.0000000000e+00 0.0000e+00 1.0000e+00
       21 -1    0    0  501  503 -0.0000000000e+00 -0.0000000000e+00 -2.9697496372e+03 2.9697496372e+03 0.0000000000e+00 0.0000e+00 -1.0000e+00
        6  1    1    2  501    0 +8.2027997706e+01 +2.2634027944e+02 -3.4127059203e+02 4.5205434572e+02 1.7300000000e+02 0.0000e+00 -1.0000e+00
       -6  1    1    2    0  502 -1.3817859769e+02 -4.3604526420e+01 +3.0541218482e+02 3.7973712252e+02 1.7300000000e+02 0.0000e+00 1.0000e+00
       21  1    1    2  504  505 +6.0868324919e+01 -1.4454555342e+02 -2.1926391007e+03 2.1982412507e+03 0.0000000000e+00 0.0000e+00 -1.0000e+00
       21  1    1    2  505  503 -4.7177249350e+00 -3.8190199603e+01 -3.3939728768e+02 3.4157175990e+02 0.0000000000e+00 0.0000e+00 -1.0000e+00
<mgrwt>
<rscale>  4 0.22633539E+03</rscale>
<asrwt>0</asrwt>
<pdfrwt beam="1">  1       21 0.61823821E-01 0.22633539E+03</pdfrwt>
<pdfrwt beam="2">  1       21 0.45688457E+00 0.22633539E+03</pdfrwt>
<totfact> 0.84980396E+00</totfact>
</mgrwt>
</event>
<event>
 6      1 +2.5168421e+02 2.56205000e+02 7.54677100e-03 1.17132900e-01
       21 -1    0    0  503  502 +0.0000000000e+00 +0.0000000000e+00 +3.7875996974e+02 3.7875996974e+02 0.0000000000e+00 0.0000e+00 -1.0000e+00
       21 -1    0    0  504  503 -0.0000000000e+00 -0.0000000000e+00 -3.1593376687e+02 3.1593376687e+02 0.0000000000e+00 0.0000e+00 -1.0000e+00
        6  1    1    2  501    0 +1.9305844735e+02 -9.7745483128e+01 +1.9588457015e+02 3.3930150072e+02 1.7300000000e+02 0.0000e+00 -1.0000e+00
       -6  1    1    2    0  505 -1.4657445621e+02 +7.3358349909e+01 -5.7950939135e+01 2.4526073893e+02 1.7300000000e+02 0.0000e+00 -1.0000e+00
       21  1    1    2  504  501 -2.2684330920e+01 +1.3830824473e+01 -7.9415434367e+01 8.3741756553e+01 0.0000000000e+00 0.0000e+00 -1.0000e+00
       21  1    1    2  505  502 -2.3799660222e+01 +1.0556308746e+01 +4.3080062271e+00 2.6389740405e+01 0.0000000000e+00 0.0000e+00 -1.0000e+00
<mgrwt>
<rscale>  4 0.25620501E+03</rscale>
<asrwt>0</asrwt>
<pdfrwt beam="1">  1       21 0.58270765E-01 0.25620501E+03</pdfrwt>
<pdfrwt beam="2">  1       21 0.48605194E-01 0.25620501E+03</pdfrwt>
<totfact> 0.10727741E+04</totfact>
</mgrwt>
</event>
<event>
 6      1 +2.5168421e+02 2.21462300e+02 7.54677100e-03 1.15942100e-01
       21 -1    0    0  504  502 +0.0000000000e+00 +0.0000000000e+00 +2.4861228041e+02 2.4861228041e+02 0.0000000000e+00 0.0000e+00 1.0000e+00
       21 -1    0    0  501  503 -0.0000000000e+00 -0.0000000000e+00 -4.6294332712e+02 4.6294332712e+02 0.0000000000e+00 0.0000e+00 1.0000e+00
        6  1    1    2  501    0 +1.4834651311e+02 +2.6985380538e+01 +1.2530328954e+02 2.6146665769e+02 1.7300000000e+02 0.0000e+00 1.0000e+00
       -6  1    1    2    0  502 -9.0756228314e+01 -4.9891033771e+01 -1.6482346392e+02 2.6042577155e+02 1.7300000000e+02 0.0000e+00 1.0000e+00
       21  1    1    2  504  505 -3.5508688755e+01 -1.0810855960e+00 -1.2639975018e+02 1.3129711561e+02 0.0000000000e+00 0.0000e+00 1.0000e+00
       21  1    1    2  505  503 -2.2081596044e+01 +2.3986738829e+01 -4.8411122164e+01 5.8366062679e+01 0.0000000000e+00 0.0000e+00 1.0000e+00
<mgrwt>
<rscale>  4 0.22146230E+03</rscale>
<asrwt>0</asrwt>
<pdfrwt beam="1">  1       21 0.38248043E-01 0.22146230E+03</pdfrwt>
<pdfrwt beam="2">  1       21 0.71222050E-01 0.22146230E+03</pdfrwt>
<totfact> 0.11538378E+04</totfact>
</mgrwt>
</event>
<event>
 6      1 +2.5168421e+02 1.81864400e+02 7.54677100e-03 1.06249800e-01
       21 -1    0    0  504  502 +0.0000000000e+00 +0.0000000000e+00 +3.8532627620e+02 3.8532627620e+02 0.0000000000e+00 0.0000e+00 -1.0000e+00
       21 -1    0    0  501  503 -0.0000000000e+00 -0.0000000000e+00 -8.8543916084e+02 8.8543916084e+02 0.0000000000e+00 0.0000e+00 1.0000e+00
        6  1    1    2  501    0 +5.7735578680e+01 -2.1316544928e+00 -7.7771289067e+02 7.9881429714e+02 1.7300000000e+02 0.0000e+00 1.0000e+00
       -6  1    1    2    0  505 -3.2666107799e+01 +6.0796845229e+01 +4.1117794932e+01 1.9074329359e+02 1.7300000000e+02 0.0000e+00 -1.0000e+00
       21  1    1    2  504  503 -2.1216817492e+01 +1.6359724484e+01 +1.9208750989e+02 1.9394691383e+02 0.0000000000e+00 0.0000e+00 -1.0000e+00
       21  1    1    2  505  502 -3.8526533884e+00 -7.5024915220e+01 +4.4394701203e+01 8.7260932477e+01 0.0000000000e+00 0.0000e+00 -1.0000e+00
<mgrwt>
<rscale>  4 0.18186437E+03</rscale>
<asrwt>0</asrwt>
<pdfrwt beam="1">  1       21 0.59280966E-01 0.18186437E+03</pdfrwt>
<pdfrwt beam="2">  1       21 0.13622141E+00 0.18186437E+03</pdfrwt>
<totfact> 0.10325767E+03</totfact>
</mgrwt>
</event>
<event>
 6      1 +2.5168421e+02 2.21099400e+02 7.54677100e-03 1.16820100e-01
       21 -1    0    0  504  502 +0.0000000000e+00 +0.0000000000e+00 +1.5064569774e+02 1.5064569774e+02 0.0000000000e+00 0.0000e+00 1.0000e+00
       21 -1    0    0  501  503 -0.0000000000e+00 -0.0000000000e+00 -6.8033432337e+02 6.8033432337e+02 0.0000000000e+00 0.0000e+00 1.0000e+00
        6  1    1    2  501    0 +1.5396119610e+02 +1.3887565418e+01 -3.7405478485e+02 4.4016235237e+02 1.7300000000e+02 0.0000e+00 1.0000e+00
       -6  1    1    2    0  505 -1.2721034283e+02 -5.5399744635e-01 -1.7293700128e+02 2.7571540517e+02 1.7300000000e+02 0.0000e+00 1.0000e+00
       21  1    1    2  504  503 -2.4899971331e+01 +7.6864909068e+00 -4.3518432416e+01 5.0724202060e+01 0.0000000000e+00 0.0000e+00 1.0000e+00
       21  1    1    2  505  502 -1.8508819332e+00 -2.1020058878e+01 +6.0821592916e+01 6.4378061512e+01 0.0000000000e+00 0.0000e+00 1.0000e+00
<mgrwt>
<rscale>  4 0.22109937E+03</rscale>
<asrwt>0</asrwt>
<pdfrwt beam="1">  1       21 0.23176261E-01 0.22109937E+03</pdfrwt>
<pdfrwt beam="2">  1       21 0.10466682E+00 0.22109937E+03</pdfrwt>
<totfact> 0.12640467E+04</totfact>
</mgrwt>
</event>
</LesHouchesEvents>
