<LesHouchesEvents version="3.0">
<header>
<!--
#*********************************************************************
#                                                                    *
#                        MadGraph5_aMC@NLO                           *
#                                                                    *
#                           Going Beyond                             *
#                                                                    *
#                   http://madgraph.hep.uiuc.edu                     *
#                   http://madgraph.phys.ucl.ac.be                   *
#                   http://amcatnlo.cern.ch                          *
#                                                                    *
#                     The MadGraph5_aMC@NLO team                     *
#                                                                    *
#....................................................................*
#                                                                    *
# This file contains all the information necessary to reproduce      *
# the events generated:                                              *
#                                                                    *
# 1. software version                                                *
# 2. proc_card          : code generation info including model       *
# 3. param_card         : model primary parameters in the LH format  *
# 4. run_card           : running parameters (collider and cuts)     *
# 5. pythia_card        : present only if pythia has been run        *
# 6. pgs_card           : present only if pgs has been run           *
# 7. delphes_cards      : present only if delphes has been run       *
#                                                                    *
#                                                                    *
#*********************************************************************
-->
<MGVersion>
#3.5.0_lo_vect
</MGVersion>
<MG5ProcCard>
<![CDATA[
#************************************************************
#*                     MadGraph5_aMC@NLO                    *
#*                                                          *
#*                *                       *                 *
#*                  *        * *        *                   *
#*                    * * * * 5 * * * *                     *
#*                  *        * *        *                   *
#*                *                       *                 *
#*                                                          *
#*                                                          *
#*         VERSION 3.5.0_lo_vect         2023-06-09         *
[1;31m#*                                                          *[1;0m
[1;31m#*          WARNING: UNKNOWN DEVELOPMENT VERSION.           *[1;0m
[1;31m#*            WARNING: DO NOT USE FOR PRODUCTION            *[1;0m
[1;31m#*                                                          *[1;0m
#*                                                          *
#*    The MadGraph5_aMC@NLO Development Team - Find us at   *
#*    https://server06.fynu.ucl.ac.be/projects/madgraph     *
#*                                                          *
#************************************************************
#*                                                          *
#*               Command File for MadGraph5_aMC@NLO         *
#*                                                          *
#*     run as ./bin/mg5_aMC  filename                       *
#*                                                          *
#************************************************************
set group_subprocesses Auto
set ignore_six_quark_processes False
set low_mem_multicore_nlo_generation False
set complex_mass_scheme False
set include_lepton_initiated_processes False
set gauge unitary
set loop_optimized_output True
set loop_color_flows False
set max_npoint_for_channel 0
set default_unset_couplings 99
set max_t_for_channel 99
set nlo_mixed_expansion True
set stdout_level DEBUG
set zerowidth_tchannel F
generate g g > t t~ g g
define p = g u c d s u~ c~ d~ s~
define j = g u c d s u~ c~ d~ s~
define l+ = e+ mu+
define l- = e- mu-
define vl = ve vm vt
define vl~ = ve~ vm~ vt~
output madevent CODEGEN_mad_gg_ttgg --hel_recycling=False --vector_siz\
e=16384 --me_exporter=standalone_cudacpp
]]>
</MG5ProcCard>
<MGProcCard>
#*********************************************************************
#                        MadGraph/MadEvent                           *
#                   http://madgraph.hep.uiuc.edu                     *
#                                                                    *
#                          proc_card.dat                             *
#*********************************************************************
#                                                                    *
#            This Files is generated by MADGRAPH 5                   *
#                                                                    *
# WARNING: This Files is generated for MADEVENT (compatibility issue)*
#          This files is NOT a valid MG4 proc_card.dat               *
#          Running this in MG4 will NEVER reproduce the result of MG5*
#                                                                    *
#*********************************************************************
#*********************************************************************
# Process(es) requested : mg2 input                                  *
#*********************************************************************
# Begin PROCESS # This is TAG. Do not modify this line
g g > t t~ g g           #Process
# Be carefull the coupling are here in MG5 convention
          
end_coup           # End the couplings input

done               # this tells MG there are no more procs
# End PROCESS  # This is TAG. Do not modify this line
#*********************************************************************
# Model information                                                  *
#*********************************************************************
# Begin MODEL  # This is TAG. Do not modify this line
sm
# End   MODEL  # This is TAG. Do not modify this line
#*********************************************************************
# Start multiparticle definitions                                    *
#*********************************************************************
# Begin MULTIPARTICLES # This is TAG. Do not modify this line

# End  MULTIPARTICLES # This is TAG. Do not modify this line
</MGProcCard>
<MGRunCard>
<![CDATA[
#*********************************************************************
#                       MadGraph5_aMC@NLO                            *
#                                                                    *
#                     run_card.dat MadEvent                          *
#                                                                    *
#  This file is used to set the parameters of the run.               *
#                                                                    *
#  Some notation/conventions:                                        *
#                                                                    *
#   Lines starting with a '# ' are info or comments                  *
#                                                                    *
#   mind the format:   value    = variable     ! comment             *
#                                                                    *
#   To display more options, you can type the command:               *
#      update to_full                                                *
#*********************************************************************
#                                                                    
#*********************************************************************
# Tag name for the run (one word)                                    *
#*********************************************************************
  tag_1     = run_tag ! name of the run 
#*********************************************************************
# Number of events and rnd seed                                      *
# Warning: Do not generate more than 1M events in a single run       *
#*********************************************************************
  100 = nevents ! Number of unweighted events requested 
 21 = iseed   ! rnd seed (0=assigned automatically=default))
#*********************************************************************
# Collider type and energy                                           *
# lpp: 0=No PDF, 1=proton, -1=antiproton,                            *
#                2=elastic photon of proton/ion beam                 *
#             +/-3=PDF of electron/positron beam                     *
#             +/-4=PDF of muon/antimuon beam                         *
#*********************************************************************
     1        = lpp1    ! beam 1 type 
     1        = lpp2    ! beam 2 type
     6500.0     = ebeam1  ! beam 1 total energy in GeV
     6500.0     = ebeam2  ! beam 2 total energy in GeV
# To see polarised beam options: type "update beam_pol"

#*********************************************************************
# PDF CHOICE: this automatically fixes alpha_s and its evol.         *
# pdlabel: lhapdf=LHAPDF (installation needed) [1412.7420]           *
#          iww=Improved Weizsaecker-Williams Approx.[hep-ph/9310350] *
#          eva=Effective W/Z/A Approx.       [2111.02442]            *
#          edff=EDFF in gamma-UPC            [eq.(11) in 2207.03012] *
#          chff=ChFF in gamma-UPC            [eq.(13) in 2207.03012] *
#          none=No PDF, same as lhapdf with lppx=0                   *
#*********************************************************************
     nn23lo1    = pdlabel     ! PDF set 
     230000    = lhaid     ! if pdlabel=lhapdf, this is the lhapdf number
# To see heavy ion options: type "update ion_pdf"
#*********************************************************************
# Renormalization and factorization scales                           *
#*********************************************************************
 False = fixed_ren_scale  ! if .true. use fixed ren scale
     False = fixed_fac_scale  ! if .true. use fixed fac scale
 91.188  = scale            ! fixed ren scale
 91.188  = dsqrt_q2fact1    ! fixed fact scale for pdf1
 91.188  = dsqrt_q2fact2    ! fixed fact scale for pdf2
 -1 = dynamical_scale_choice ! Choose one of the preselected dynamical choices
 1.0  = scalefact        ! scale factor for event-by-event scales

 
#*********************************************************************
# Type and output format
#*********************************************************************
  False     = gridpack  !True = setting up the grid pack
  -1.0 = time_of_flight ! threshold (in mm) below which the invariant livetime is not written (-1 means not written)
  average =  event_norm       ! average/sum. Normalization of the weight in the LHEF
# To see MLM/CKKW  merging options: type "update MLM" or "update CKKW"

#*********************************************************************
#
#*********************************************************************
# Phase-Space Optimization strategy (basic options)
#*********************************************************************
   0  = nhel          ! using helicities importance sampling or not.
                             ! 0: sum over helicity, 1: importance sampling
   1  = sde_strategy  ! default integration strategy (hep-ph/2021.00773)
                             ! 1 is old strategy (using amp square)
			     ! 2 is new strategy (using only the denominator)
# To see advanced option for Phase-Space optimization: type "update psoptim"			     
#*********************************************************************
# Customization (custom cuts/scale/bias/...)                         *
# list of files containing fortran function that overwrite default   *
#*********************************************************************
  = custom_fcts ! List of files containing user hook function
#*******************************                                                 
# Parton level cuts definition *
#*******************************
  0.0  = dsqrt_shat ! minimal shat for full process
#                                                                    
#
#*********************************************************************
# BW cutoff (M+/-bwcutoff*Gamma) ! Define on/off-shell for "$" and decay  
#*********************************************************************
  15.0  = bwcutoff      ! (M+/-bwcutoff*Gamma)
#*********************************************************************
# Standard Cuts                                                      *
#*********************************************************************
# Minimum and maximum pt's (for max, -1 means no cut)                *
#*********************************************************************
 20.0  = ptj       ! minimum pt for the jets 
 -1.0  = ptjmax    ! maximum pt for the jets
 {} = pt_min_pdg ! pt cut for other particles (use pdg code). Applied on particle and anti-particle
 {}	= pt_max_pdg ! pt cut for other particles (syntax e.g. {6: 100, 25: 50}) 
#
# For display option for energy cut in the partonic center of mass frame type 'update ecut'
#
#*********************************************************************
# Maximum and minimum absolute rapidity (for max, -1 means no cut)   *
#*********************************************************************
 5.0 = etaj    ! max rap for the jets 
 {} = eta_min_pdg ! rap cut for other particles (use pdg code). Applied on particle and anti-particle
 {} = eta_max_pdg ! rap cut for other particles (syntax e.g. {6: 2.5, 23: 5})
#*********************************************************************
# Minimum and maximum DeltaR distance                                *
#*********************************************************************
 0.4 = drjj    ! min distance between jets 
 -1.0  = drjjmax ! max distance between jets
#*********************************************************************
# Minimum and maximum invariant mass for pairs                       *
#*********************************************************************
 0.0   = mmjj    ! min invariant mass of a jet pair 
 -1.0  = mmjjmax ! max invariant mass of a jet pair
 {} = mxx_min_pdg ! min invariant mass of a pair of particles X/X~ (e.g. {6:250})
 {'default': False} = mxx_only_part_antipart ! if True the invariant mass is applied only 
                       ! to pairs of particle/antiparticle and not to pairs of the same pdg codes.  
#*********************************************************************
# Inclusive cuts                                                     *
#*********************************************************************
 0.0  = ptheavy   ! minimum pt for at least one heavy final state
 0.0  = xptj ! minimum pt for at least one jet  
 #*********************************************************************
 # Control the pt's of the jets sorted by pt                          *
 #*********************************************************************
 0.0   = ptj1min ! minimum pt for the leading jet in pt
 0.0   = ptj2min ! minimum pt for the second jet in pt
 -1.0  = ptj1max ! maximum pt for the leading jet in pt 
 -1.0  = ptj2max ! maximum pt for the second jet in pt
 0   = cutuse  ! reject event if fails any (0) / all (1) jet pt cuts
 #*********************************************************************
 # Control the Ht(k)=Sum of k leading jets                            *
 #*********************************************************************
 0.0   = htjmin ! minimum jet HT=Sum(jet pt)
 -1.0  = htjmax ! maximum jet HT=Sum(jet pt)
 0.0   = ihtmin  !inclusive Ht for all partons (including b)
 -1.0  = ihtmax  !inclusive Ht for all partons (including b)
 #*********************************************************************
 # WBF cuts                                                           *
 #*********************************************************************
 0.0   = xetamin ! minimum rapidity for two jets in the WBF case  
 0.0   = deltaeta ! minimum rapidity for two jets in the WBF case 
#*********************************************************************
# maximal pdg code for quark to be considered as a light jet         *
# (otherwise b cuts are applied)                                     *
#*********************************************************************
 4 = maxjetflavor    ! Maximum jet pdg code
#*********************************************************************
#
#*********************************************************************
# Store info for systematics studies                                 *
# WARNING: Do not use for interference type of computation           *
#*********************************************************************
   True  = use_syst      ! Enable systematics studies
#
systematics = systematics_program ! none, systematics [python], SysCalc [depreceted, C++]
['--mur=0.5,1,2', '--muf=0.5,1,2', '--pdf=errorset'] = systematics_arguments ! see: https://cp3.irmp.ucl.ac.be/projects/madgraph/wiki/Systematics#Systematicspythonmodule

#*********************************************************************
# Options for the cudacpp plugin
#*********************************************************************

# Set cudacpp-specific values of non-cudacpp-specific options
-O3 -ffast-math -fbounds-check = global_flag ! build flags for Fortran code (for a fair comparison to cudacpp)

# New cudacpp-specific options (default values are defined in banner.py)
FORTRAN = cudacpp_backend ! valid backends are FORTRAN, CPP, CUDA
]]>
</MGRunCard>
<slha>
######################################################################
## PARAM_CARD AUTOMATICALY GENERATED BY MG5 FOLLOWING UFO MODEL   ####
######################################################################
##                                                                  ##
##  Width set on Auto will be computed following the information    ##
##        present in the decay.py files of the model.               ##
##        See  arXiv:1402.1178 for more details.                    ##
##                                                                  ##
######################################################################

###################################
## INFORMATION FOR MASS
###################################
Block mass 
    5 4.700000e+00 # MB 
    6 1.730000e+02 # MT 
   15 1.777000e+00 # MTA 
   23 9.118800e+01 # MZ 
   25 1.250000e+02 # MH 
## Dependent parameters, given by model restrictions.
## Those values should be edited following the 
## analytical expression. MG5 ignores those values 
## but they are important for interfacing the output of MG5
## to external program such as Pythia.
  1 0.000000e+00 # d : 0.0 
  2 0.000000e+00 # u : 0.0 
  3 0.000000e+00 # s : 0.0 
  4 0.000000e+00 # c : 0.0 
  11 0.000000e+00 # e- : 0.0 
  12 0.000000e+00 # ve : 0.0 
  13 0.000000e+00 # mu- : 0.0 
  14 0.000000e+00 # vm : 0.0 
  16 0.000000e+00 # vt : 0.0 
  21 0.000000e+00 # g : 0.0 
  22 0.000000e+00 # a : 0.0 
  24 8.041900e+01 # w+ : cmath.sqrt(MZ__exp__2/2. + cmath.sqrt(MZ__exp__4/4. - (aEW*cmath.pi*MZ__exp__2)/(Gf*sqrt__2))) 

###################################
## INFORMATION FOR SMINPUTS
###################################
Block sminputs 
    1 1.325070e+02 # aEWM1 
    2 1.166390e-05 # Gf 
    3 1.180000e-01 # aS (Note that Parameter not used if you use a PDF set) 

###################################
## INFORMATION FOR YUKAWA
###################################
Block yukawa 
    5 4.700000e+00 # ymb 
    6 1.730000e+02 # ymt 
   15 1.777000e+00 # ymtau 

###################################
## INFORMATION FOR DECAY
###################################
DECAY   6 1.491500e+00 # WT 
DECAY  23 2.441404e+00 # WZ 
DECAY  24 2.047600e+00 # WW 
DECAY  25 6.382339e-03 # WH 
## Dependent parameters, given by model restrictions.
## Those values should be edited following the 
## analytical expression. MG5 ignores those values 
## but they are important for interfacing the output of MG5
## to external program such as Pythia.
DECAY  1 0.000000e+00 # d : 0.0 
DECAY  2 0.000000e+00 # u : 0.0 
DECAY  3 0.000000e+00 # s : 0.0 
DECAY  4 0.000000e+00 # c : 0.0 
DECAY  5 0.000000e+00 # b : 0.0 
DECAY  11 0.000000e+00 # e- : 0.0 
DECAY  12 0.000000e+00 # ve : 0.0 
DECAY  13 0.000000e+00 # mu- : 0.0 
DECAY  14 0.000000e+00 # vm : 0.0 
DECAY  15 0.000000e+00 # ta- : 0.0 
DECAY  16 0.000000e+00 # vt : 0.0 
DECAY  21 0.000000e+00 # g : 0.0 
DECAY  22 0.000000e+00 # a : 0.0
</slha>
<MGGenerationInfo>
#  Number of Events        :       100
#  Integrated weight (pb)  :       251.96650290999995
</MGGenerationInfo>
</header>
<init>
2212 2212 6.500000e+03 6.500000e+03 0 0 247000 247000 -4 1
2.519665e+02 7.018341e-01 2.519665e+02 1
<generator name='MadGraph5_aMC@NLO' version='3.5.0_lo_vect'>please cite 1405.0301 </generator>
</init>
<event>
 6      1 +2.5196650e+02 3.05181500e+02 7.54677100e-03 9.49153200e-02
       21 -1    0    0  505  502 +0.0000000000e+00 +0.0000000000e+00 +7.5256773885e+02 7.5256773885e+02 0.0000000000e+00 0.0000e+00 -1.0000e+00
       21 -1    0    0  504  503 -0.0000000000e+00 -0.0000000000e+00 -3.4889167391e+02 3.4889167391e+02 0.0000000000e+00 0.0000e+00 1.0000e+00
        6  1    1    2  501    0 -8.9745956158e+01 -2.1485029871e+02 +5.4379739976e+00 2.9012679825e+02 1.7300000000e+02 0.0000e+00 1.0000e+00
       -6  1    1    2    0  502 +1.4557232267e+02 +2.2751173085e+02 -5.6687304690e+01 3.2572279521e+02 1.7300000000e+02 0.0000e+00 1.0000e+00
       21  1    1    2  504  501 -4.1970990330e+01 +2.3806198399e+00 +1.4143738538e+01 4.4353993281e+01 0.0000000000e+00 0.0000e+00 1.0000e+00
       21  1    1    2  505  503 -1.3855376186e+01 -1.5042051985e+01 +4.4078165709e+02 4.4125582603e+02 0.0000000000e+00 0.0000e+00 -1.0000e+00
<mgrwt>
<rscale>  4 0.30518150E+03</rscale>
<asrwt>0</asrwt>
<pdfrwt beam="1">  1       21 0.11577965E+00 0.30518150E+03</pdfrwt>
<pdfrwt beam="2">  1       21 0.53675642E-01 0.30518150E+03</pdfrwt>
<totfact> 0.17406389E+03</totfact>
</mgrwt>
</event>
<event>
 6      1 +2.5196650e+02 2.96300900e+02 7.54677100e-03 1.11396600e-01
       21 -1    0    0  503  502 +0.0000000000e+00 +0.0000000000e+00 +6.2500490619e+02 6.2500490619e+02 0.0000000000e+00 0.0000e+00 1.0000e+00
       21 -1    0    0  501  503 -0.0000000000e+00 -0.0000000000e+00 -9.6340429910e+02 9.6340429910e+02 0.0000000000e+00 0.0000e+00 1.0000e+00
        6  1    1    2  501    0 -4.4813722873e+01 -1.0062023260e+02 -7.2523158401e+02 7.5367270842e+02 1.7300000000e+02 0.0000e+00 -1.0000e+00
       -6  1    1    2    0  504 +8.4272602968e+01 -1.1885936750e+02 -6.1801258014e+01 2.3447348751e+02 1.7300000000e+02 0.0000e+00 1.0000e+00
       21  1    1    2  504  505 -5.8303564032e+01 -2.5924582565e+01 -2.3361492496e+01 6.7949605530e+01 0.0000000000e+00 0.0000e+00 1.0000e+00
       21  1    1    2  505  502 +1.8844683937e+01 +2.4540418267e+02 +4.7199494161e+02 5.3231340383e+02 0.0000000000e+00 0.0000e+00 1.0000e+00
<mgrwt>
<rscale>  4 0.27662845E+03</rscale>
<asrwt>0</asrwt>
<pdfrwt beam="1">  1       21 0.96154601E-01 0.29630086E+03</pdfrwt>
<pdfrwt beam="2">  1       21 0.14821605E+00 0.29630086E+03</pdfrwt>
<totfact> 0.25056562E+02</totfact>
</mgrwt>
</event>
<event>
 6      1 +2.5196650e+02 3.16918500e+02 7.54677100e-03 1.16128000e-01
       21 -1    0    0  501  502 +0.0000000000e+00 +0.0000000000e+00 +1.9573697515e+03 1.9573697515e+03 0.0000000000e+00 0.0000e+00 1.0000e+00
       21 -1    0    0  505  503 -0.0000000000e+00 -0.0000000000e+00 -5.1313930359e+02 5.1313930359e+02 0.0000000000e+00 0.0000e+00 1.0000e+00
        6  1    1    2  501    0 -5.4979455396e+01 -1.1593492605e+02 +1.7192584211e+03 1.7326979443e+03 1.7300000000e+02 0.0000e+00 1.0000e+00
       -6  1    1    2    0  503 -1.2832577405e+02 -1.4803695745e+02 -8.7119852307e+01 2.7550193053e+02 1.7300000000e+02 0.0000e+00 1.0000e+00
       21  1    1    2  504  502 -7.1146771631e+01 +4.2234817357e+01 -1.8996055176e+01 8.4891065625e+01 0.0000000000e+00 0.0000e+00 1.0000e+00
       21  1    1    2  505  504 +2.5445200108e+02 +2.2173706615e+02 -1.6891206568e+02 3.7741811468e+02 0.0000000000e+00 0.0000e+00 1.0000e+00
<mgrwt>
<rscale>  4 0.28772984E+03</rscale>
<asrwt>0</asrwt>
<pdfrwt beam="1">  1       21 0.30113380E+00 0.31691845E+03</pdfrwt>
<pdfrwt beam="2">  1       21 0.78944509E-01 0.31691845E+03</pdfrwt>
<totfact> 0.40341512E+01</totfact>
</mgrwt>
</event>
<event>
 6      1 +2.5196650e+02 6.74775400e+02 7.54677100e-03 1.02776600e-01
       21 -1    0    0  504  502 +0.0000000000e+00 +0.0000000000e+00 +2.7156994714e+02 2.7156994714e+02 0.0000000000e+00 0.0000e+00 -1.0000e+00
       21 -1    0    0  501  503 -0.0000000000e+00 -0.0000000000e+00 -1.4508463712e+03 1.4508463712e+03 0.0000000000e+00 0.0000e+00 1.0000e+00
        6  1    1    2  501    0 +3.5698639455e+02 -6.1467428845e+01 -2.3810620386e+02 4.6673450163e+02 1.7300000000e+02 0.0000e+00 -1.0000e+00
       -6  1    1    2    0  502 +1.8270033261e+02 -8.6143028635e+01 -2.6045326795e+02 3.7224311640e+02 1.7300000000e+02 0.0000e+00 -1.0000e+00
       21  1    1    2  504  505 -1.9984982034e+01 +7.7410338610e+00 -1.0463144364e+01 2.3849538824e+01 0.0000000000e+00 0.0000e+00 1.0000e+00
       21  1    1    2  505  503 -5.1970174513e+02 +1.3986942362e+02 -6.7025380787e+02 8.5958916147e+02 0.0000000000e+00 0.0000e+00 1.0000e+00
<mgrwt>
<rscale>  4 0.67477544E+03</rscale>
<asrwt>0</asrwt>
<pdfrwt beam="1">  1       21 0.41779993E-01 0.67477544E+03</pdfrwt>
<pdfrwt beam="2">  1       21 0.22320713E+00 0.67477544E+03</pdfrwt>
<totfact> 0.39416467E+02</totfact>
</mgrwt>
</event>
<event>
 6      1 +2.5196650e+02 2.65463300e+02 7.54677100e-03 1.15679100e-01
       21 -1    0    0  503  502 +0.0000000000e+00 +0.0000000000e+00 +2.0741830292e+02 2.0741830292e+02 0.0000000000e+00 0.0000e+00 1.0000e+00
       21 -1    0    0  505  503 -0.0000000000e+00 -0.0000000000e+00 -7.0460477634e+02 7.0460477634e+02 0.0000000000e+00 0.0000e+00 -1.0000e+00
        6  1    1    2  501    0 +4.2422660660e-02 -1.0441673201e+02 -2.4215050888e+02 3.1538662729e+02 1.7300000000e+02 0.0000e+00 -1.0000e+00
       -6  1    1    2    0  504 +2.3367676447e+01 +2.7178682556e+02 -7.7449532571e+01 3.3217699641e+02 1.7300000000e+02 0.0000e+00 1.0000e+00
       21  1    1    2  504  502 -3.4481869321e+01 -6.9701167656e+00 -3.1320010067e+01 4.7101219413e+01 0.0000000000e+00 0.0000e+00 -1.0000e+00
       21  1    1    2  505  501 +1.1071770213e+01 -1.6039997678e+02 -1.4626642190e+02 2.1735823615e+02 0.0000000000e+00 0.0000e+00 -1.0000e+00
<mgrwt>
<rscale>  4 0.26546329E+03</rscale>
<asrwt>0</asrwt>
<pdfrwt beam="1">  1       21 0.31910508E-01 0.26546329E+03</pdfrwt>
<pdfrwt beam="2">  1       21 0.10840074E+00 0.26546329E+03</pdfrwt>
<totfact> 0.60839489E+03</totfact>
</mgrwt>
</event>
<event>
 6      1 +2.5196650e+02 2.94205900e+02 7.54677100e-03 9.49153200e-02
       21 -1    0    0  505  502 +0.0000000000e+00 +0.0000000000e+00 +3.9361244795e+02 3.9361244795e+02 0.0000000000e+00 0.0000e+00 -1.0000e+00
       21 -1    0    0  504  503 -0.0000000000e+00 -0.0000000000e+00 -1.1499258862e+03 1.1499258862e+03 0.0000000000e+00 0.0000e+00 -1.0000e+00
        6  1    1    2  501    0 +1.7089462819e+01 +3.3445467433e+01 -3.9883478011e+02 4.3635860351e+02 1.7300000000e+02 0.0000e+00 -1.0000e+00
       -6  1    1    2    0  502 +1.3660190724e+02 +1.7666161840e+02 -3.3628597568e+02 4.3918864502e+02 1.7300000000e+02 0.0000e+00 -1.0000e+00
       21  1    1    2  504  501 -3.3236691430e+01 -2.6927778683e+00 -2.9906453722e+02 3.0091780627e+02 0.0000000000e+00 0.0000e+00 -1.0000e+00
       21  1    1    2  505  503 -1.2045467863e+02 -2.0741430796e+02 +2.7787185475e+02 3.6707327935e+02 0.0000000000e+00 0.0000e+00 -1.0000e+00
<mgrwt>
<rscale>  4 0.25872666E+03</rscale>
<asrwt>0</asrwt>
<pdfrwt beam="1">  1       21 0.60555763E-01 0.29420592E+03</pdfrwt>
<pdfrwt beam="2">  1       21 0.17691167E+00 0.29420592E+03</pdfrwt>
<totfact> 0.44006610E+02</totfact>
</mgrwt>
</event>
<event>
 6      1 +2.5196650e+02 1.80819100e+02 7.54677100e-03 1.11396600e-01
       21 -1    0    0  501  502 +0.0000000000e+00 +0.0000000000e+00 +3.3496154873e+02 3.3496154873e+02 0.0000000000e+00 0.0000e+00 1.0000e+00
       21 -1    0    0  505  503 -0.0000000000e+00 -0.0000000000e+00 -3.9932636062e+02 3.9932636062e+02 0.0000000000e+00 0.0000e+00 1.0000e+00
        6  1    1    2  501    0 +8.4346778642e+01 +4.3307109968e+01 -9.5566485106e+01 2.1920729440e+02 1.7300000000e+02 0.0000e+00 1.0000e+00
       -6  1    1    2    0  503 -3.2103871989e+01 +4.6998620217e-01 -1.9799680392e+02 2.6488226412e+02 1.7300000000e+02 0.0000e+00 1.0000e+00
       21  1    1    2  504  502 -6.8887869641e+01 -2.2001947378e+01 +1.7790970041e+02 1.9204553046e+02 0.0000000000e+00 0.0000e+00 1.0000e+00
       21  1    1    2  505  504 +1.6644962988e+01 -2.1775148792e+01 +5.1288776731e+01 5.8152820365e+01 0.0000000000e+00 0.0000e+00 1.0000e+00
<mgrwt>
<rscale>  4 0.18081914E+03</rscale>
<asrwt>0</asrwt>
<pdfrwt beam="1">  1       21 0.51532546E-01 0.18081914E+03</pdfrwt>
<pdfrwt beam="2">  1       21 0.61434825E-01 0.18081914E+03</pdfrwt>
<totfact> 0.88845790E+03</totfact>
</mgrwt>
</event>
<event>
 6      1 +2.5196650e+02 2.36035600e+02 7.54677100e-03 1.14954000e-01
       21 -1    0    0  501  502 +0.0000000000e+00 +0.0000000000e+00 +3.7140871920e+02 3.7140871920e+02 0.0000000000e+00 0.0000e+00 -1.0000e+00
       21 -1    0    0  504  503 -0.0000000000e+00 -0.0000000000e+00 -4.1935397967e+02 4.1935397967e+02 0.0000000000e+00 0.0000e+00 1.0000e+00
        6  1    1    2  501    0 +1.2970397968e+02 +1.2586250801e+02 -2.9211146213e+02 3.8460707167e+02 1.7300000000e+02 0.0000e+00 1.0000e+00
       -6  1    1    2    0  503 -3.1281784286e+01 -9.7506641754e+01 +9.3089811654e+01 2.2154188825e+02 1.7300000000e+02 0.0000e+00 -1.0000e+00
       21  1    1    2  504  505 -1.6215882623e+01 -1.6271238818e+01 +3.0597019580e+01 3.8260758867e+01 0.0000000000e+00 0.0000e+00 -1.0000e+00
       21  1    1    2  505  502 -8.2206312772e+01 -1.2084627435e+01 +1.2047937043e+02 1.4635298009e+02 0.0000000000e+00 0.0000e+00 -1.0000e+00
<mgrwt>
<rscale>  4 0.23603561E+03</rscale>
<asrwt>0</asrwt>
<pdfrwt beam="1">  1       21 0.57139803E-01 0.23603561E+03</pdfrwt>
<pdfrwt beam="2">  1       21 0.64515996E-01 0.23603561E+03</pdfrwt>
<totfact> 0.61814017E+03</totfact>
</mgrwt>
</event>
<event>
 6      1 +2.5196650e+02 2.06584100e+02 7.54677100e-03 1.16558800e-01
       21 -1    0    0  505  502 +0.0000000000e+00 +0.0000000000e+00 +7.0371255730e+02 7.0371255730e+02 0.0000000000e+00 0.0000e+00 -1.0000e+00
       21 -1    0    0  504  503 -0.0000000000e+00 -0.0000000000e+00 -1.5925618004e+02 1.5925618004e+02 0.0000000000e+00 0.0000e+00 -1.0000e+00
        6  1    1    2  501    0 -6.1697816441e+01 -9.8685242733e+01 -2.2708433744e+01 2.0973810014e+02 1.7300000000e+02 0.0000e+00 -1.0000e+00
       -6  1    1    2    0  502 -1.5251742227e+01 +9.1180027257e+01 +3.6259879353e+02 4.1225392428e+02 1.7300000000e+02 0.0000e+00 -1.0000e+00
       21  1    1    2  504  501 +2.1015428779e+01 -1.9066852203e+01 +1.2106180201e+00 2.8401737547e+01 0.0000000000e+00 0.0000e+00 -1.0000e+00
       21  1    1    2  505  503 +5.5934129889e+01 +2.6572067679e+01 +2.0335539946e+02 2.1257497538e+02 0.0000000000e+00 0.0000e+00 -1.0000e+00
<mgrwt>
<rscale>  4 0.20658407E+03</rscale>
<asrwt>0</asrwt>
<pdfrwt beam="1">  1       21 0.10826347E+00 0.20658407E+03</pdfrwt>
<pdfrwt beam="2">  1       21 0.24500951E-01 0.20658407E+03</pdfrwt>
<totfact> 0.10579579E+04</totfact>
</mgrwt>
</event>
<event>
 6      1 +2.5196650e+02 3.81480500e+02 7.54677100e-03 1.11396600e-01
       21 -1    0    0  503  502 +0.0000000000e+00 +0.0000000000e+00 +1.1626219101e+03 1.1626219101e+03 0.0000000000e+00 0.0000e+00 -1.0000e+00
       21 -1    0    0  501  503 -0.0000000000e+00 -0.0000000000e+00 -4.2759522276e+02 4.2759522276e+02 0.0000000000e+00 0.0000e+00 -1.0000e+00
        6  1    1    2  501    0 +1.6370662176e+02 +1.5135748894e+02 -1.9880343773e+02 3.4519668932e+02 1.7300000000e+02 0.0000e+00 1.0000e+00
       -6  1    1    2    0  504 +1.6735583388e+02 +1.6550435196e+02 +1.7207733068e+02 3.3902695082e+02 1.7300000000e+02 0.0000e+00 -1.0000e+00
       21  1    1    2  504  505 -2.6392480427e+02 -3.2658566104e+02 +6.1952205093e+02 7.4841303296e+02 0.0000000000e+00 0.0000e+00 -1.0000e+00
       21  1    1    2  505  502 -6.7137651373e+01 +9.7238201442e+00 +1.4223074347e+02 1.5758045976e+02 0.0000000000e+00 0.0000e+00 -1.0000e+00
<mgrwt>
<rscale>  4 0.35303253E+03</rscale>
<asrwt>0</asrwt>
<pdfrwt beam="1">  1       21 0.17886491E+00 0.38148049E+03</pdfrwt>
<pdfrwt beam="2">  1       21 0.65783881E-01 0.38148049E+03</pdfrwt>
<totfact> 0.33505662E+02</totfact>
</mgrwt>
</event>
<event>
 6      1 +2.5196650e+02 2.86665600e+02 7.54677100e-03 1.15987100e-01
       21 -1    0    0  501  502 +0.0000000000e+00 +0.0000000000e+00 +3.2177655871e+02 3.2177655871e+02 0.0000000000e+00 0.0000e+00 1.0000e+00
       21 -1    0    0  505  503 -0.0000000000e+00 -0.0000000000e+00 -8.9258053646e+02 8.9258053646e+02 0.0000000000e+00 0.0000e+00 1.0000e+00
        6  1    1    2  501    0 -1.9387092125e+02 -7.8092763458e+01 +1.3606701593e+02 3.0352536407e+02 1.7300000000e+02 0.0000e+00 1.0000e+00
       -6  1    1    2    0  503 -5.4931181559e+01 -1.2055695210e+02 -4.4107064873e+02 4.9195907409e+02 1.7300000000e+02 0.0000e+00 -1.0000e+00
       21  1    1    2  504  502 +2.0791366332e+02 +1.8910107306e+02 -2.2154550331e+02 3.5786829598e+02 0.0000000000e+00 0.0000e+00 1.0000e+00
       21  1    1    2  505  504 +4.0888439487e+01 +9.5486424936e+00 -4.4254841646e+01 6.1004361043e+01 0.0000000000e+00 0.0000e+00 1.0000e+00
<mgrwt>
<rscale>  4 0.26766769E+03</rscale>
<asrwt>0</asrwt>
<pdfrwt beam="1">  1       21 0.49504086E-01 0.28666555E+03</pdfrwt>
<pdfrwt beam="2">  1       21 0.13732008E+00 0.28666555E+03</pdfrwt>
<totfact> 0.13546577E+03</totfact>
</mgrwt>
</event>
<event>
 6      1 +2.5196650e+02 1.74329900e+02 7.54677100e-03 9.49153200e-02
       21 -1    0    0  503  502 +0.0000000000e+00 +0.0000000000e+00 +2.2299837836e+03 2.2299837836e+03 0.0000000000e+00 0.0000e+00 -1.0000e+00
       21 -1    0    0  504  503 -0.0000000000e+00 -0.0000000000e+00 -2.6217286771e+02 2.6217286771e+02 0.0000000000e+00 0.0000e+00 -1.0000e+00
        6  1    1    2  501    0 -8.5851118209e+00 +1.6233321595e+01 +3.8080483147e+02 4.1866280531e+02 1.7300000000e+02 0.0000e+00 -1.0000e+00
       -6  1    1    2    0  505 +1.7000069821e+01 -6.5299605008e+01 +2.3839006384e+02 3.0217852889e+02 1.7300000000e+02 0.0000e+00 -1.0000e+00
       21  1    1    2  504  501 -1.5780256972e+01 +1.1229279856e+02 -1.9543633797e+02 2.2595143575e+02 0.0000000000e+00 0.0000e+00 -1.0000e+00
       21  1    1    2  505  502 +7.3652989715e+00 -6.3226515143e+01 +1.5440523585e+03 1.5453638813e+03 0.0000000000e+00 0.0000e+00 -1.0000e+00
<mgrwt>
<rscale>  4 0.17432988E+03</rscale>
<asrwt>0</asrwt>
<pdfrwt beam="1">  1       21 0.34307442E+00 0.17432988E+03</pdfrwt>
<pdfrwt beam="2">  1       21 0.40334289E-01 0.17432988E+03</pdfrwt>
<totfact> 0.11762291E+02</totfact>
</mgrwt>
</event>
<event>
 6      1 +2.5196650e+02 1.93001000e+02 7.54677100e-03 1.13287100e-01
       21 -1    0    0  504  502 +0.0000000000e+00 +0.0000000000e+00 +8.2746522404e+02 8.2746522404e+02 0.0000000000e+00 0.0000e+00 1.0000e+00
       21 -1    0    0  505  503 -0.0000000000e+00 -0.0000000000e+00 -3.2975041776e+02 3.2975041776e+02 0.0000000000e+00 0.0000e+00 -1.0000e+00
        6  1    1    2  501    0 -6.1699506707e+01 +5.8087956524e+01 -2.6656493235e+02 3.2888737127e+02 1.7300000000e+02 0.0000e+00 -1.0000e+00
       -6  1    1    2    0  503 +9.1765103084e+00 -9.5573130155e+01 +6.0829415022e+02 6.3966335266e+02 1.7300000000e+02 0.0000e+00 1.0000e+00
       21  1    1    2  504  501 +2.8200230366e+01 +2.0605575900e+01 +5.5751544426e+00 3.5368419500e+01 0.0000000000e+00 0.0000e+00 -1.0000e+00
       21  1    1    2  505  502 +2.4322766032e+01 +1.6879597731e+01 +1.5041043397e+02 1.5329649837e+02 0.0000000000e+00 0.0000e+00 1.0000e+00
<mgrwt>
<rscale>  4 0.19300095E+03</rscale>
<asrwt>0</asrwt>
<pdfrwt beam="1">  1       21 0.12730234E+00 0.19300095E+03</pdfrwt>
<pdfrwt beam="2">  1       21 0.50730834E-01 0.19300095E+03</pdfrwt>
<totfact> 0.16840939E+03</totfact>
</mgrwt>
</event>
<event>
 6      1 +2.5196650e+02 2.36479500e+02 7.54677100e-03 1.06301000e-01
       21 -1    0    0  501  502 +0.0000000000e+00 +0.0000000000e+00 +2.3008449961e+02 2.3008449961e+02 0.0000000000e+00 0.0000e+00 1.0000e+00
       21 -1    0    0  505  503 -0.0000000000e+00 -0.0000000000e+00 -2.9188420832e+02 2.9188420832e+02 0.0000000000e+00 0.0000e+00 -1.0000e+00
        6  1    1    2  501    0 -1.4134346940e+02 -9.3608814301e+01 +2.5850792290e-01 2.4221819354e+02 1.7300000000e+02 0.0000e+00 -1.0000e+00
       -6  1    1    2    0  504 +1.3489955399e+02 +7.0218087565e+01 -4.5408794683e+01 2.3477527153e+02 1.7300000000e+02 0.0000e+00 -1.0000e+00
       21  1    1    2  504  503 -1.2860345479e+01 +1.7252405973e+01 -8.9270821535e+00 2.3296497451e+01 0.0000000000e+00 0.0000e+00 -1.0000e+00
       21  1    1    2  505  502 +1.9304260893e+01 +6.1383207628e+00 -7.7223397920e+00 2.1678745403e+01 0.0000000000e+00 0.0000e+00 1.0000e+00
<mgrwt>
<rscale>  4 0.23647955E+03</rscale>
<asrwt>0</asrwt>
<pdfrwt beam="1">  1       21 0.35397615E-01 0.23647955E+03</pdfrwt>
<pdfrwt beam="2">  1       21 0.44905263E-01 0.23647955E+03</pdfrwt>
<totfact> 0.35835285E+04</totfact>
</mgrwt>
</event>
<event>
 6      1 +2.5196650e+02 2.06764300e+02 7.54677100e-03 9.49153200e-02
       21 -1    0    0  504  502 +0.0000000000e+00 +0.0000000000e+00 +9.8345332472e+02 9.8345332472e+02 0.0000000000e+00 0.0000e+00 -1.0000e+00
       21 -1    0    0  501  503 -0.0000000000e+00 -0.0000000000e+00 -1.0961683471e+02 1.0961683471e+02 0.0000000000e+00 0.0000e+00 1.0000e+00
        6  1    1    2  501    0 -1.6278272082e+01 -1.1211329536e+02 +1.1099840060e+02 2.3469984677e+02 1.7300000000e+02 0.0000e+00 1.0000e+00
       -6  1    1    2    0  505 +5.8139554045e+01 +1.5043974108e+02 +4.2062965726e+02 4.8256671249e+02 1.7300000000e+02 0.0000e+00 -1.0000e+00
       21  1    1    2  504  503 +2.0565275133e+01 +2.9522753555e+01 +2.1076198627e+01 4.1698077502e+01 0.0000000000e+00 0.0000e+00 -1.0000e+00
       21  1    1    2  505  502 -6.2426557097e+01 -6.7849199273e+01 +3.2113223352e+02 3.3410552267e+02 0.0000000000e+00 0.0000e+00 -1.0000e+00
<mgrwt>
<rscale>  4 0.20676428E+03</rscale>
<asrwt>0</asrwt>
<pdfrwt beam="1">  1       21 0.15130051E+00 0.20676428E+03</pdfrwt>
<pdfrwt beam="2">  1       21 0.16864129E-01 0.20676428E+03</pdfrwt>
<totfact> 0.91516114E+03</totfact>
</mgrwt>
</event>
<event>
 6      1 +2.5196650e+02 2.63949800e+02 7.54677100e-03 1.06301000e-01
       21 -1    0    0  505  502 +0.0000000000e+00 +0.0000000000e+00 +6.4328817754e+02 6.4328817754e+02 0.0000000000e+00 0.0000e+00 1.0000e+00
       21 -1    0    0  504  503 -0.0000000000e+00 -0.0000000000e+00 -7.0128778746e+02 7.0128778746e+02 0.0000000000e+00 0.0000e+00 -1.0000e+00
        6  1    1    2  501    0 -1.1427405441e+02 +4.0885509351e+01 +7.0923057077e+00 2.1144617563e+02 1.7300000000e+02 0.0000e+00 -1.0000e+00
       -6  1    1    2    0  502 +1.9697718079e+02 -9.3345842992e+01 +4.4272324478e+02 5.2292095733e+02 1.7300000000e+02 0.0000e+00 1.0000e+00
       21  1    1    2  504  501 -1.0892071258e+02 +5.6934739473e+01 -5.4822452542e+02 5.6183219600e+02 0.0000000000e+00 0.0000e+00 -1.0000e+00
       21  1    1    2  505  503 +2.6217586209e+01 -4.4744058320e+00 +4.0409365014e+01 4.8376636044e+01 0.0000000000e+00 0.0000e+00 -1.0000e+00
<mgrwt>
<rscale>  4 0.26394985E+03</rscale>
<asrwt>0</asrwt>
<pdfrwt beam="1">  1       21 0.98967412E-01 0.26394985E+03</pdfrwt>
<pdfrwt beam="2">  1       21 0.10789043E+00 0.26394985E+03</pdfrwt>
<totfact> 0.53813057E+02</totfact>
</mgrwt>
</event>
<event>
 6      1 +2.5196650e+02 1.80283100e+02 7.54677100e-03 9.49153200e-02
       21 -1    0    0  504  502 +0.0000000000e+00 +0.0000000000e+00 +2.7003209935e+02 2.7003209935e+02 0.0000000000e+00 0.0000e+00 1.0000e+00
       21 -1    0    0  501  503 -0.0000000000e+00 -0.0000000000e+00 -8.6726079406e+02 8.6726079406e+02 0.0000000000e+00 0.0000e+00 1.0000e+00
        6  1    1    2  501    0 +2.2564392259e+01 +5.8090759487e+01 +5.7511880037e+01 1.9266630344e+02 1.7300000000e+02 0.0000e+00 1.0000e+00
       -6  1    1    2    0  505 +3.8101507246e+00 -2.6097853132e+01 -3.5910393493e+02 3.9947496952e+02 1.7300000000e+02 0.0000e+00 1.0000e+00
       21  1    1    2  504  503 -2.7731787292e+00 -2.8370941529e+01 -4.1876261322e+02 4.1973173227e+02 0.0000000000e+00 0.0000e+00 1.0000e+00
       21  1    1    2  505  502 -2.3601364254e+01 -3.6219648255e+00 +1.2312597341e+02 1.2541988818e+02 0.0000000000e+00 0.0000e+00 1.0000e+00
<mgrwt>
<rscale>  4 0.18028308E+03</rscale>
<asrwt>0</asrwt>
<pdfrwt beam="1">  1       21 0.41543400E-01 0.18028308E+03</pdfrwt>
<pdfrwt beam="2">  1       21 0.13342474E+00 0.18028308E+03</pdfrwt>
<totfact> 0.22844174E+03</totfact>
</mgrwt>
</event>
<event>
 6      1 +2.5196650e+02 1.88044700e+02 7.54677100e-03 1.16321900e-01
       21 -1    0    0  505  502 +0.0000000000e+00 +0.0000000000e+00 +8.9479263667e+02 8.9479263667e+02 0.0000000000e+00 0.0000e+00 1.0000e+00
       21 -1    0    0  504  503 -0.0000000000e+00 -0.0000000000e+00 -8.0812667550e+02 8.0812667550e+02 0.0000000000e+00 0.0000e+00 1.0000e+00
        6  1    1    2  501    0 -7.8493497688e+01 -2.3779701580e+01 +4.8565826183e+02 5.2203414703e+02 1.7300000000e+02 0.0000e+00 -1.0000e+00
       -6  1    1    2    0  502 +6.4138252700e+01 +6.1245811677e+00 +3.6593101051e+02 4.0986062315e+02 1.7300000000e+02 0.0000e+00 1.0000e+00
       21  1    1    2  504  501 +1.9083970183e+01 +3.9249005635e+01 -7.1611555321e+02 7.1744419150e+02 0.0000000000e+00 0.0000e+00 1.0000e+00
       21  1    1    2  505  503 -4.7287251946e+00 -2.1593885223e+01 -4.8807757959e+01 5.3580350484e+01 0.0000000000e+00 0.0000e+00 -1.0000e+00
<mgrwt>
<rscale>  4 0.18804466E+03</rscale>
<asrwt>0</asrwt>
<pdfrwt beam="1">  1       21 0.13766040E+00 0.18804466E+03</pdfrwt>
<pdfrwt beam="2">  1       21 0.12432718E+00 0.18804466E+03</pdfrwt>
<totfact> 0.18179876E+02</totfact>
</mgrwt>
</event>
<event>
 6      1 +2.5196650e+02 2.95957300e+02 7.54677100e-03 1.06301000e-01
       21 -1    0    0  504  502 +0.0000000000e+00 +0.0000000000e+00 +1.1829018443e+02 1.1829018443e+02 0.0000000000e+00 0.0000e+00 1.0000e+00
       21 -1    0    0  501  503 -0.0000000000e+00 -0.0000000000e+00 -9.7075636628e+02 9.7075636628e+02 0.0000000000e+00 0.0000e+00 -1.0000e+00
        6  1    1    2  501    0 +2.1957369340e+02 -8.6010248683e+01 -3.6194989904e+02 4.6534621426e+02 1.7300000000e+02 0.0000e+00 -1.0000e+00
       -6  1    1    2    0  505 -2.3711481267e+02 +6.7736112761e+01 -3.6767785602e+02 4.7531844185e+02 1.7300000000e+02 0.0000e+00 1.0000e+00
       21  1    1    2  504  503 +3.3036978660e+01 -3.0571736164e+00 -1.1668154753e+02 1.2130693222e+02 0.0000000000e+00 0.0000e+00 -1.0000e+00
       21  1    1    2  505  502 -1.5495859395e+01 +2.1331309539e+01 -6.1568792538e+00 2.7074962367e+01 0.0000000000e+00 0.0000e+00 1.0000e+00
<mgrwt>
<rscale>  4 0.29595733E+03</rscale>
<asrwt>0</asrwt>
<pdfrwt beam="1">  1       21 0.18198490E-01 0.29595733E+03</pdfrwt>
<pdfrwt beam="2">  1       21 0.14934713E+00 0.29595733E+03</pdfrwt>
<totfact> 0.77819244E+03</totfact>
</mgrwt>
</event>
<event>
 6      1 +2.5196650e+02 3.68575100e+02 7.54677100e-03 1.02776600e-01
       21 -1    0    0  503  502 +0.0000000000e+00 +0.0000000000e+00 +4.3465388778e+02 4.3465388778e+02 0.0000000000e+00 0.0000e+00 -1.0000e+00
       21 -1    0    0  504  503 -0.0000000000e+00 -0.0000000000e+00 -8.4157923828e+02 8.4157923828e+02 0.0000000000e+00 0.0000e+00 -1.0000e+00
        6  1    1    2  501    0 -1.8084278134e+02 -1.6582721124e+02 -1.1187089164e+02 3.2038550521e+02 1.7300000000e+02 0.0000e+00 -1.0000e+00
       -6  1    1    2    0  502 +2.3583943530e+02 +2.9337909444e+02 +1.8556999404e+02 4.5393474750e+02 1.7300000000e+02 0.0000e+00 -1.0000e+00
       21  1    1    2  504  505 -4.1260125477e+01 -7.0859768319e+01 -3.3836158418e+02 3.4815523315e+02 0.0000000000e+00 0.0000e+00 -1.0000e+00
       21  1    1    2  505  501 -1.3736528479e+01 -5.6692114880e+01 -1.4226286871e+02 1.5375764019e+02 0.0000000000e+00 0.0000e+00 -1.0000e+00
<mgrwt>
<rscale>  4 0.36857514E+03</rscale>
<asrwt>0</asrwt>
<pdfrwt beam="1">  1       21 0.66869830E-01 0.36857514E+03</pdfrwt>
<pdfrwt beam="2">  1       21 0.12947373E+00 0.36857514E+03</pdfrwt>
<totfact> 0.78425989E+02</totfact>
</mgrwt>
</event>
<event>
 6      1 +2.5196650e+02 3.94124300e+02 7.54677100e-03 1.02366900e-01
       21 -1    0    0  503  502 +0.0000000000e+00 +0.0000000000e+00 +4.4660108663e+02 4.4660108663e+02 0.0000000000e+00 0.0000e+00 1.0000e+00
       21 -1    0    0  504  503 -0.0000000000e+00 -0.0000000000e+00 -4.7460822458e+02 4.7460822458e+02 0.0000000000e+00 0.0000e+00 1.0000e+00
        6  1    1    2  501    0 +2.2716604204e+02 +2.4801465964e+02 +1.3138130363e+02 4.0038197886e+02 1.7300000000e+02 0.0000e+00 1.0000e+00
       -6  1    1    2    0  502 -2.7857221093e+02 -2.7462965937e+02 -1.1279341602e+02 4.4235198790e+02 1.7300000000e+02 0.0000e+00 1.0000e+00
       21  1    1    2  504  505 +2.2623245624e+01 -1.7250184381e-01 -2.4601566654e+01 3.3422718042e+01 0.0000000000e+00 0.0000e+00 1.0000e+00
       21  1    1    2  505  501 +2.8782923259e+01 +2.6787501571e+01 -2.1993458901e+01 4.5052626408e+01 0.0000000000e+00 0.0000e+00 -1.0000e+00
<mgrwt>
<rscale>  4 0.39412429E+03</rscale>
<asrwt>0</asrwt>
<pdfrwt beam="1">  1       21 0.68707859E-01 0.39412429E+03</pdfrwt>
<pdfrwt beam="2">  1       21 0.73016650E-01 0.39412429E+03</pdfrwt>
<totfact> 0.28951976E+03</totfact>
</mgrwt>
</event>
<event>
 6      1 +2.5196650e+02 2.04946300e+02 7.54677100e-03 1.02776600e-01
       21 -1    0    0  504  502 +0.0000000000e+00 +0.0000000000e+00 +8.6524562993e+02 8.6524562993e+02 0.0000000000e+00 0.0000e+00 1.0000e+00
       21 -1    0    0  501  503 -0.0000000000e+00 -0.0000000000e+00 -1.2068389669e+02 1.2068389669e+02 0.0000000000e+00 0.0000e+00 1.0000e+00
        6  1    1    2  501    0 -8.9546679473e+00 +9.0651984802e+01 +4.7006494648e+02 5.0910511914e+02 1.7300000000e+02 0.0000e+00 1.0000e+00
       -6  1    1    2    0  502 -2.1587385207e+01 -1.4625749400e+02 +3.1333126861e+02 3.8725024679e+02 1.7300000000e+02 0.0000e+00 1.0000e+00
       21  1    1    2  504  505 +2.1150601583e+01 -8.1256156422e-01 -1.3880956605e+00 2.1211671626e+01 0.0000000000e+00 0.0000e+00 1.0000e+00
       21  1    1    2  505  503 +9.3914515715e+00 +5.6418070761e+01 -3.7446386195e+01 6.8362489057e+01 0.0000000000e+00 0.0000e+00 1.0000e+00
<mgrwt>
<rscale>  4 0.20494628E+03</rscale>
<asrwt>0</asrwt>
<pdfrwt beam="1">  1       21 0.13311471E+00 0.20494628E+03</pdfrwt>
<pdfrwt beam="2">  1       21 0.18566754E-01 0.20494628E+03</pdfrwt>
<totfact> 0.10697065E+04</totfact>
</mgrwt>
</event>
<event>
 6      1 +2.5196650e+02 2.86019700e+02 7.54677100e-03 1.09711200e-01
       21 -1    0    0  505  502 +0.0000000000e+00 +0.0000000000e+00 +6.3882568342e+02 6.3882568342e+02 0.0000000000e+00 0.0000e+00 -1.0000e+00
       21 -1    0    0  504  503 -0.0000000000e+00 -0.0000000000e+00 -8.9971859531e+02 8.9971859531e+02 0.0000000000e+00 0.0000e+00 1.0000e+00
        6  1    1    2  501    0 -2.2936821965e+02 -3.0825152088e+00 -5.4411097657e+02 6.1530889552e+02 1.7300000000e+02 0.0000e+00 1.0000e+00
       -6  1    1    2    0  503 +2.4868100064e+00 -5.9296289357e+01 -2.5139395859e+02 3.1088608295e+02 1.7300000000e+02 0.0000e+00 1.0000e+00
       21  1    1    2  504  502 +6.2147091637e+01 +7.9790661820e+00 +1.4841231653e+01 6.4390905050e+01 0.0000000000e+00 0.0000e+00 -1.0000e+00
       21  1    1    2  505  501 +1.6473431800e+02 +5.4399738384e+01 +5.1977079162e+02 5.4795839521e+02 0.0000000000e+00 0.0000e+00 -1.0000e+00
<mgrwt>
<rscale>  4 0.25574838E+03</rscale>
<asrwt>0</asrwt>
<pdfrwt beam="1">  1       21 0.98280875E-01 0.28601974E+03</pdfrwt>
<pdfrwt beam="2">  1       21 0.13841825E+00 0.28601974E+03</pdfrwt>
<totfact> 0.28724494E+02</totfact>
</mgrwt>
</event>
<event>
 6      1 +2.5196650e+02 2.56346900e+02 7.54677100e-03 9.49153200e-02
       21 -1    0    0  505  502 +0.0000000000e+00 +0.0000000000e+00 +6.6400544988e+02 6.6400544988e+02 0.0000000000e+00 0.0000e+00 -1.0000e+00
       21 -1    0    0  504  503 -0.0000000000e+00 -0.0000000000e+00 -7.9183337781e+02 7.9183337781e+02 0.0000000000e+00 0.0000e+00 -1.0000e+00
        6  1    1    2  501    0 -1.1658782474e+02 +1.2807821818e+01 +3.9887503561e+02 4.5031883728e+02 1.7300000000e+02 0.0000e+00 -1.0000e+00
       -6  1    1    2    0  502 -7.8227516052e+01 -1.6367317194e+02 -5.3568056832e+02 5.9143141847e+02 1.7300000000e+02 0.0000e+00 -1.0000e+00
       21  1    1    2  504  501 +1.6610746440e+02 +1.4099349726e+02 -1.4201447362e+02 2.6007492519e+02 0.0000000000e+00 0.0000e+00 -1.0000e+00
       21  1    1    2  505  503 +2.8707876389e+01 +9.8718528631e+00 +1.5099207840e+02 1.5401364675e+02 0.0000000000e+00 0.0000e+00 -1.0000e+00
<mgrwt>
<rscale>  4 0.24014196E+03</rscale>
<asrwt>0</asrwt>
<pdfrwt beam="1">  1       21 0.10215468E+00 0.25634694E+03</pdfrwt>
<pdfrwt beam="2">  1       21 0.12182052E+00 0.25634694E+03</pdfrwt>
<totfact> 0.37204799E+02</totfact>
</mgrwt>
</event>
<event>
 6      1 +2.5196650e+02 1.86129300e+02 7.54677100e-03 9.28652600e-02
       21 -1    0    0  503  502 +0.0000000000e+00 +0.0000000000e+00 +7.8825011680e+02 7.8825011680e+02 0.0000000000e+00 0.0000e+00 1.0000e+00
       21 -1    0    0  504  503 -0.0000000000e+00 -0.0000000000e+00 -6.3912502112e+02 6.3912502112e+02 0.0000000000e+00 0.0000e+00 -1.0000e+00
        6  1    1    2  501    0 -8.3060587184e+01 +1.1284697368e+02 +3.6044006937e+02 4.2365026167e+02 1.7300000000e+02 0.0000e+00 1.0000e+00
       -6  1    1    2    0  502 +2.2074751658e+01 -1.2144839480e+01 +3.6129812734e+02 4.0137280502e+02 1.7300000000e+02 0.0000e+00 -1.0000e+00
       21  1    1    2  504  505 +1.7841087905e+01 -1.5980540748e+01 -4.3170428350e+02 4.3236821170e+02 0.0000000000e+00 0.0000e+00 -1.0000e+00
       21  1    1    2  505  501 +4.3144747621e+01 -8.4721593450e+01 -1.4090881753e+02 1.6998385953e+02 0.0000000000e+00 0.0000e+00 -1.0000e+00
<mgrwt>
<rscale>  4 0.18612933E+03</rscale>
<asrwt>0</asrwt>
<pdfrwt beam="1">  1       21 0.12126925E+00 0.18612933E+03</pdfrwt>
<pdfrwt beam="2">  1       21 0.98326926E-01 0.18612933E+03</pdfrwt>
<totfact> 0.44289896E+02</totfact>
</mgrwt>
</event>
<event>
 6      1 +2.5196650e+02 1.85650100e+02 7.54677100e-03 1.13287100e-01
       21 -1    0    0  505  502 +0.0000000000e+00 +0.0000000000e+00 +6.0971410693e+01 6.0971410693e+01 0.0000000000e+00 0.0000e+00 1.0000e+00
       21 -1    0    0  502  503 -0.0000000000e+00 -0.0000000000e+00 -1.8413104041e+03 1.8413104041e+03 0.0000000000e+00 0.0000e+00 1.0000e+00
        6  1    1    2  501    0 -1.1825012848e+01 +4.4493258633e+01 -1.2279219534e+03 1.2409032213e+03 1.7300000000e+02 0.0000e+00 1.0000e+00
       -6  1    1    2    0  503 -8.4986797908e+01 -4.1376389211e+01 -3.3029601460e+02 3.8465467456e+02 1.7300000000e+02 0.0000e+00 1.0000e+00
       21  1    1    2  504  501 +1.4091537743e+01 +4.2357449708e+01 -1.5393498921e+02 1.6027696617e+02 0.0000000000e+00 0.0000e+00 -1.0000e+00
       21  1    1    2  505  504 +8.2720273013e+01 -4.5474319130e+01 -6.8186036128e+01 1.1644695269e+02 0.0000000000e+00 0.0000e+00 1.0000e+00
<mgrwt>
<rscale>  4 0.18565015E+03</rscale>
<asrwt>0</asrwt>
<pdfrwt beam="1">  1       21 0.93802176E-02 0.18565015E+03</pdfrwt>
<pdfrwt beam="2">  1       21 0.28327851E+00 0.18565015E+03</pdfrwt>
<totfact> 0.39020189E+03</totfact>
</mgrwt>
</event>
<event>
 6      1 +2.5196650e+02 2.48337000e+02 7.54677100e-03 1.16128000e-01
       21 -1    0    0  501  502 +0.0000000000e+00 +0.0000000000e+00 +3.4755675124e+02 3.4755675124e+02 0.0000000000e+00 0.0000e+00 1.0000e+00
       21 -1    0    0  505  503 -0.0000000000e+00 -0.0000000000e+00 -4.3680493347e+02 4.3680493347e+02 0.0000000000e+00 0.0000e+00 1.0000e+00
        6  1    1    2  501    0 +1.2542135968e+02 -1.2446238338e+02 +1.5323398120e+02 2.9091417177e+02 1.7300000000e+02 0.0000e+00 1.0000e+00
       -6  1    1    2    0  503 -1.7184779020e+02 +7.8248534925e+01 -1.9840750757e+01 2.5686017910e+02 1.7300000000e+02 0.0000e+00 1.0000e+00
       21  1    1    2  504  502 +3.4286993858e+01 +5.6492286329e+00 -6.9542038919e+01 7.7740638723e+01 0.0000000000e+00 0.0000e+00 -1.0000e+00
       21  1    1    2  505  504 +1.2139436662e+01 +4.0564619818e+01 -1.5309937376e+02 1.5884669511e+02 0.0000000000e+00 0.0000e+00 1.0000e+00
<mgrwt>
<rscale>  4 0.24833703E+03</rscale>
<asrwt>0</asrwt>
<pdfrwt beam="1">  1       21 0.53470269E-01 0.24833703E+03</pdfrwt>
<pdfrwt beam="2">  1       21 0.67200759E-01 0.24833703E+03</pdfrwt>
<totfact> 0.64619029E+03</totfact>
</mgrwt>
</event>
<event>
 6      1 +2.5196650e+02 1.74107500e+02 7.54677100e-03 1.02776600e-01
       21 -1    0    0  505  502 +0.0000000000e+00 +0.0000000000e+00 +1.6286169448e+02 1.6286169448e+02 0.0000000000e+00 0.0000e+00 1.0000e+00
       21 -1    0    0  501  503 -0.0000000000e+00 -0.0000000000e+00 -3.9457021079e+02 3.9457021079e+02 0.0000000000e+00 0.0000e+00 1.0000e+00
        6  1    1    2  501    0 -3.5960422482e+01 -2.5596810238e+01 -3.1903859408e+01 1.8137035294e+02 1.7300000000e+02 0.0000e+00 1.0000e+00
       -6  1    1    2    0  502 -1.4137471033e+01 -6.2024917951e+01 -5.6582673685e+01 1.9281482696e+02 1.7300000000e+02 0.0000e+00 1.0000e+00
       21  1    1    2  504  503 +5.6752272489e+01 +5.9322390325e+01 -1.2281602802e+02 1.4772861322e+02 0.0000000000e+00 0.0000e+00 1.0000e+00
       21  1    1    2  505  504 -6.6543789738e+00 +2.8299337864e+01 -2.0405955198e+01 3.5518112149e+01 0.0000000000e+00 0.0000e+00 1.0000e+00
<mgrwt>
<rscale>  4 0.17410747E+03</rscale>
<asrwt>0</asrwt>
<pdfrwt beam="1">  1       21 0.25055646E-01 0.17410747E+03</pdfrwt>
<pdfrwt beam="2">  1       21 0.60703108E-01 0.17410747E+03</pdfrwt>
<totfact> 0.38482176E+04</totfact>
</mgrwt>
</event>
<event>
 6      1 +2.5196650e+02 1.92444200e+02 7.54677100e-03 9.49153200e-02
       21 -1    0    0  505  502 +0.0000000000e+00 +0.0000000000e+00 +8.2363685964e+01 8.2363685964e+01 0.0000000000e+00 0.0000e+00 -1.0000e+00
       21 -1    0    0  501  503 -0.0000000000e+00 -0.0000000000e+00 -2.0534512066e+03 2.0534512066e+03 0.0000000000e+00 0.0000e+00 1.0000e+00
        6  1    1    2  501    0 +7.1792302847e+01 +1.1199461871e+01 -1.3714204681e+03 1.3841974798e+03 1.7300000000e+02 0.0000e+00 1.0000e+00
       -6  1    1    2    0  502 -1.0011153310e+02 +3.6650331705e+01 -5.4888230388e+02 5.8529167890e+02 1.7300000000e+02 0.0000e+00 1.0000e+00
       21  1    1    2  504  503 +8.8816947711e+00 -1.8420561950e+01 -1.0206181153e+02 1.0409041732e+02 0.0000000000e+00 0.0000e+00 -1.0000e+00
       21  1    1    2  505  504 +1.9437535479e+01 -2.9429231626e+01 +5.1277062840e+01 6.2235316606e+01 0.0000000000e+00 0.0000e+00 -1.0000e+00
<mgrwt>
<rscale>  4 0.19244417E+03</rscale>
<asrwt>0</asrwt>
<pdfrwt beam="1">  1       21 0.12671338E-01 0.19244417E+03</pdfrwt>
<pdfrwt beam="2">  1       21 0.31591553E+00 0.19244417E+03</pdfrwt>
<totfact> 0.14712776E+03</totfact>
</mgrwt>
</event>
<event>
 6      1 +2.5196650e+02 2.09323300e+02 7.54677100e-03 1.13287100e-01
       21 -1    0    0  505  502 +0.0000000000e+00 +0.0000000000e+00 +1.2096556650e+03 1.2096556650e+03 0.0000000000e+00 0.0000e+00 1.0000e+00
       21 -1    0    0  502  503 -0.0000000000e+00 -0.0000000000e+00 -1.6252463642e+02 1.6252463642e+02 0.0000000000e+00 0.0000e+00 -1.0000e+00
        6  1    1    2  501    0 -9.7208601432e+00 -6.9022039469e+01 +3.3197077941e+02 3.8077832847e+02 1.7300000000e+02 0.0000e+00 1.0000e+00
       -6  1    1    2    0  503 -2.5768880019e+01 +2.1916486206e+02 +7.1509568358e+01 2.8937845515e+02 1.7300000000e+02 0.0000e+00 -1.0000e+00
       21  1    1    2  504  501 +1.7714184036e+01 -1.0699396996e+02 +7.5932417658e+01 1.3239046029e+02 0.0000000000e+00 0.0000e+00 1.0000e+00
       21  1    1    2  505  504 +1.7775556126e+01 -4.3148852630e+01 +5.6771826314e+02 5.6963305749e+02 0.0000000000e+00 0.0000e+00 1.0000e+00
<mgrwt>
<rscale>  4 0.20932330E+03</rscale>
<asrwt>0</asrwt>
<pdfrwt beam="1">  1       21 0.18610087E+00 0.20932330E+03</pdfrwt>
<pdfrwt beam="2">  1       21 0.25003791E-01 0.20932330E+03</pdfrwt>
<totfact> 0.24665289E+03</totfact>
</mgrwt>
</event>
<event>
 6      1 +2.5196650e+02 2.08662900e+02 7.54677100e-03 9.49153200e-02
       21 -1    0    0  505  502 +0.0000000000e+00 +0.0000000000e+00 +2.5502223642e+02 2.5502223642e+02 0.0000000000e+00 0.0000e+00 1.0000e+00
       21 -1    0    0  501  503 -0.0000000000e+00 -0.0000000000e+00 -2.1592194309e+03 2.1592194309e+03 0.0000000000e+00 0.0000e+00 1.0000e+00
        6  1    1    2  501    0 -1.3722023211e+02 +4.8295734880e+01 -1.6482079617e+03 1.6636346820e+03 1.7300000000e+02 0.0000e+00 1.0000e+00
       -6  1    1    2    0  502 +4.7838434044e+01 -4.3386360588e+01 -1.9274695167e+02 2.6692935289e+02 1.7300000000e+02 0.0000e+00 1.0000e+00
       21  1    1    2  504  503 +1.6739067317e+01 -1.4517644407e+01 -2.6660098399e+02 2.6752017314e+02 0.0000000000e+00 0.0000e+00 -1.0000e+00
       21  1    1    2  505  504 +7.2642730753e+01 +9.6082701148e+00 +2.0335870286e+02 2.1615745931e+02 0.0000000000e+00 0.0000e+00 1.0000e+00
<mgrwt>
<rscale>  4 0.20866290E+03</rscale>
<asrwt>0</asrwt>
<pdfrwt beam="1">  1       21 0.39234190E-01 0.20866290E+03</pdfrwt>
<pdfrwt beam="2">  1       21 0.33218760E+00 0.20866290E+03</pdfrwt>
<totfact> 0.13574280E+02</totfact>
</mgrwt>
</event>
<event>
 6      1 +2.5196650e+02 3.11058000e+02 7.54677100e-03 1.11396600e-01
       21 -1    0    0  505  502 +0.0000000000e+00 +0.0000000000e+00 +2.2989235403e+02 2.2989235403e+02 0.0000000000e+00 0.0000e+00 1.0000e+00
       21 -1    0    0  501  503 -0.0000000000e+00 -0.0000000000e+00 -8.3605201803e+02 8.3605201803e+02 0.0000000000e+00 0.0000e+00 1.0000e+00
        6  1    1    2  501    0 +7.6892879317e+01 -1.7983545511e+02 -1.2176985855e+02 2.8811491502e+02 1.7300000000e+02 0.0000e+00 1.0000e+00
       -6  1    1    2    0  502 -2.7338747277e+02 -1.8003220016e+01 -2.9022815618e+02 4.3500138946e+02 1.7300000000e+02 0.0000e+00 1.0000e+00
       21  1    1    2  504  503 +1.6172353268e+02 +1.5783292268e+02 -1.7722405946e+02 2.8718304225e+02 0.0000000000e+00 0.0000e+00 1.0000e+00
       21  1    1    2  505  504 +3.4771060772e+01 +4.0005752446e+01 -1.6937589815e+01 5.5645025337e+01 0.0000000000e+00 0.0000e+00 1.0000e+00
<mgrwt>
<rscale>  4 0.29774194E+03</rscale>
<asrwt>0</asrwt>
<pdfrwt beam="1">  1       21 0.35368055E-01 0.31105802E+03</pdfrwt>
<pdfrwt beam="2">  1       21 0.12862339E+00 0.31105802E+03</pdfrwt>
<totfact> 0.31529003E+03</totfact>
</mgrwt>
</event>
<event>
 6      1 +2.5196650e+02 2.53048000e+02 7.54677100e-03 1.16558800e-01
       21 -1    0    0  503  502 +0.0000000000e+00 +0.0000000000e+00 +1.1972761964e+03 1.1972761964e+03 0.0000000000e+00 0.0000e+00 -1.0000e+00
       21 -1    0    0  504  503 -0.0000000000e+00 -0.0000000000e+00 -1.3052714110e+02 1.3052714110e+02 0.0000000000e+00 0.0000e+00 1.0000e+00
        6  1    1    2  501    0 -1.1825514686e+02 +8.4167850702e+01 +4.8941790564e+02 5.3900593059e+02 1.7300000000e+02 0.0000e+00 -1.0000e+00
       -6  1    1    2    0  505 +1.2522039198e+02 -2.3871799477e+02 +2.4003547213e+02 4.0026548125e+02 1.7300000000e+02 0.0000e+00 1.0000e+00
       21  1    1    2  504  501 +1.8405745945e+01 +1.2885497552e+02 +1.5366029910e+02 2.0137989900e+02 0.0000000000e+00 0.0000e+00 1.0000e+00
       21  1    1    2  505  502 -2.5370991069e+01 +2.5695168550e+01 +1.8363537844e+02 1.8715202668e+02 0.0000000000e+00 0.0000e+00 -1.0000e+00
<mgrwt>
<rscale>  4 0.25304802E+03</rscale>
<asrwt>0</asrwt>
<pdfrwt beam="1">  1       21 0.18419633E+00 0.25304802E+03</pdfrwt>
<pdfrwt beam="2">  1       21 0.20081099E-01 0.25304802E+03</pdfrwt>
<totfact> 0.37143778E+03</totfact>
</mgrwt>
</event>
<event>
 6      1 +2.5196650e+02 1.82024300e+02 7.54677100e-03 1.06301000e-01
       21 -1    0    0  503  502 +0.0000000000e+00 +0.0000000000e+00 +5.7985889378e+02 5.7985889378e+02 0.0000000000e+00 0.0000e+00 1.0000e+00
       21 -1    0    0  504  503 -0.0000000000e+00 -0.0000000000e+00 -1.4985203099e+02 1.4985203099e+02 0.0000000000e+00 0.0000e+00 1.0000e+00
        6  1    1    2  501    0 -2.7212237433e+01 -7.6819152948e+01 +2.1806926278e+02 2.9004291319e+02 1.7300000000e+02 0.0000e+00 -1.0000e+00
       -6  1    1    2    0  505 +6.7495104685e+00 +3.2684848593e+01 +1.8254945842e+02 2.5370683867e+02 1.7300000000e+02 0.0000e+00 1.0000e+00
       21  1    1    2  504  501 +1.3611534636e+01 +1.5561234554e+01 -7.4854234158e+01 7.7656823701e+01 0.0000000000e+00 0.0000e+00 1.0000e+00
       21  1    1    2  505  502 +6.8511923285e+00 +2.8573069802e+01 +1.0424237576e+02 1.0830434921e+02 0.0000000000e+00 0.0000e+00 1.0000e+00
<mgrwt>
<rscale>  4 0.18202427E+03</rscale>
<asrwt>0</asrwt>
<pdfrwt beam="1">  1       21 0.89209059E-01 0.18202427E+03</pdfrwt>
<pdfrwt beam="2">  1       21 0.23054159E-01 0.18202427E+03</pdfrwt>
<totfact> 0.19070486E+04</totfact>
</mgrwt>
</event>
<event>
 6      1 +2.5196650e+02 1.80152000e+02 7.54677100e-03 9.49153200e-02
       21 -1    0    0  505  502 +0.0000000000e+00 +0.0000000000e+00 +1.0605700241e+03 1.0605700241e+03 0.0000000000e+00 0.0000e+00 -1.0000e+00
       21 -1    0    0  501  503 -0.0000000000e+00 -0.0000000000e+00 -7.2715363853e+01 7.2715363853e+01 0.0000000000e+00 0.0000e+00 -1.0000e+00
        6  1    1    2  501    0 +3.2660345545e+01 -1.9956001610e-01 +4.0511681671e+02 4.4171865840e+02 1.7300000000e+02 0.0000e+00 -1.0000e+00
       -6  1    1    2    0  502 -6.1775551540e+01 +4.4366535884e+01 +1.2950660666e+02 2.2909729253e+02 1.7300000000e+02 0.0000e+00 -1.0000e+00
       21  1    1    2  504  503 +1.9969417575e+01 -1.7038721066e+01 +3.7619662868e+01 4.5873027894e+01 0.0000000000e+00 0.0000e+00 -1.0000e+00
       21  1    1    2  505  504 +9.1457884196e+00 -2.7128254802e+01 +4.1561157403e+02 4.1659640916e+02 0.0000000000e+00 0.0000e+00 -1.0000e+00
<mgrwt>
<rscale>  4 0.18015200E+03</rscale>
<asrwt>0</asrwt>
<pdfrwt beam="1">  1       21 0.16316461E+00 0.18015200E+03</pdfrwt>
<pdfrwt beam="2">  1       21 0.11186980E-01 0.18015200E+03</pdfrwt>
<totfact> 0.16020992E+04</totfact>
</mgrwt>
</event>
<event>
 6      1 +2.5196650e+02 2.78491300e+02 7.54677100e-03 1.16321900e-01
       21 -1    0    0  503  502 +0.0000000000e+00 +0.0000000000e+00 +5.5066741428e+02 5.5066741428e+02 0.0000000000e+00 0.0000e+00 -1.0000e+00
       21 -1    0    0  505  503 -0.0000000000e+00 -0.0000000000e+00 -6.9292209265e+02 6.9292209265e+02 0.0000000000e+00 0.0000e+00 1.0000e+00
        6  1    1    2  501    0 -1.7728520587e+02 +1.2716929454e+01 +1.4946346577e+02 2.8958607031e+02 1.7300000000e+02 0.0000e+00 -1.0000e+00
       -6  1    1    2    0  502 +2.6269940287e+02 +2.2276228902e+01 +2.5007017210e+02 4.0245657855e+02 1.7300000000e+02 0.0000e+00 -1.0000e+00
       21  1    1    2  504  501 -6.8308940870e+01 -2.4570089576e+01 -2.8943322240e+02 2.9839804110e+02 0.0000000000e+00 0.0000e+00 1.0000e+00
       21  1    1    2  505  504 -1.7105256129e+01 -1.0423068781e+01 -2.5235509383e+02 2.5314881697e+02 0.0000000000e+00 0.0000e+00 1.0000e+00
<mgrwt>
<rscale>  4 0.27849125E+03</rscale>
<asrwt>0</asrwt>
<pdfrwt beam="1">  1       21 0.84718064E-01 0.27849125E+03</pdfrwt>
<pdfrwt beam="2">  1       21 0.10660340E+00 0.27849125E+03</pdfrwt>
<totfact> 0.78903440E+02</totfact>
</mgrwt>
</event>
<event>
 6      1 +2.5196650e+02 2.14360200e+02 7.54677100e-03 1.14954000e-01
       21 -1    0    0  505  502 +0.0000000000e+00 +0.0000000000e+00 +4.8589860899e+02 4.8589860899e+02 0.0000000000e+00 0.0000e+00 1.0000e+00
       21 -1    0    0  502  503 -0.0000000000e+00 -0.0000000000e+00 -1.5900075590e+02 1.5900075590e+02 0.0000000000e+00 0.0000e+00 1.0000e+00
        6  1    1    2  501    0 -1.4204510091e+02 +2.5292800364e+01 +1.7138166159e+02 2.8304983726e+02 1.7300000000e+02 0.0000e+00 1.0000e+00
       -6  1    1    2    0  503 +1.1665902587e+02 +3.8910400435e+01 +2.8003912653e+01 2.1409476103e+02 1.7300000000e+02 0.0000e+00 1.0000e+00
       21  1    1    2  504  501 +2.6425843584e+01 -4.3933205919e+01 +7.0003961877e+01 8.6769847700e+01 0.0000000000e+00 0.0000e+00 1.0000e+00
       21  1    1    2  505  504 -1.0397685374e+00 -2.0269994881e+01 +5.7508316969e+01 6.0984918887e+01 0.0000000000e+00 0.0000e+00 1.0000e+00
<mgrwt>
<rscale>  4 0.21436018E+03</rscale>
<asrwt>0</asrwt>
<pdfrwt beam="1">  1       21 0.74753631E-01 0.21436018E+03</pdfrwt>
<pdfrwt beam="2">  1       21 0.24461655E-01 0.21436018E+03</pdfrwt>
<totfact> 0.24977561E+04</totfact>
</mgrwt>
</event>
<event>
 6      1 +2.5196650e+02 2.14850100e+02 7.54677100e-03 1.11396600e-01
       21 -1    0    0  504  502 +0.0000000000e+00 +0.0000000000e+00 +6.8191311048e+02 6.8191311048e+02 0.0000000000e+00 0.0000e+00 1.0000e+00
       21 -1    0    0  501  503 -0.0000000000e+00 -0.0000000000e+00 -2.4908880523e+02 2.4908880523e+02 0.0000000000e+00 0.0000e+00 1.0000e+00
        6  1    1    2  501    0 -8.1350108160e+01 -9.7744730643e+01 -1.4587185272e+02 2.5957555717e+02 1.7300000000e+02 0.0000e+00 1.0000e+00
       -6  1    1    2    0  502 +8.6438255683e+01 +9.5324278433e+01 +2.4542295939e+02 3.2667984189e+02 1.7300000000e+02 0.0000e+00 1.0000e+00
       21  1    1    2  504  505 +2.1338810060e+01 +3.7275661965e+01 +1.9689837359e+02 2.0152863150e+02 0.0000000000e+00 0.0000e+00 1.0000e+00
       21  1    1    2  505  503 -2.6426957583e+01 -3.4855209755e+01 +1.3637482499e+02 1.4321788515e+02 0.0000000000e+00 0.0000e+00 1.0000e+00
<mgrwt>
<rscale>  4 0.21485006E+03</rscale>
<asrwt>0</asrwt>
<pdfrwt beam="1">  1       21 0.10490971E+00 0.21485006E+03</pdfrwt>
<pdfrwt beam="2">  1       21 0.38321355E-01 0.21485006E+03</pdfrwt>
<totfact> 0.47248704E+03</totfact>
</mgrwt>
</event>
<event>
 6      1 +2.5196650e+02 1.93641200e+02 7.54677100e-03 9.49153200e-02
       21 -1    0    0  505  502 +0.0000000000e+00 +0.0000000000e+00 +1.0586011660e+03 1.0586011660e+03 0.0000000000e+00 0.0000e+00 1.0000e+00
       21 -1    0    0  504  503 -0.0000000000e+00 -0.0000000000e+00 -1.4848648490e+02 1.4848648490e+02 0.0000000000e+00 0.0000e+00 1.0000e+00
        6  1    1    2  501    0 -9.5801501199e+00 +3.7746611441e+00 +4.0223485632e+02 4.3798162859e+02 1.7300000000e+02 0.0000e+00 1.0000e+00
       -6  1    1    2    0  502 +1.8392903761e+01 -1.2533557497e+02 +1.0710663220e+02 2.3968340769e+02 1.7300000000e+02 0.0000e+00 -1.0000e+00
       21  1    1    2  504  501 +5.1311506845e+01 +2.4439915792e+01 -4.2946708876e+01 7.1236226893e+01 0.0000000000e+00 0.0000e+00 1.0000e+00
       21  1    1    2  505  503 -6.0124260486e+01 +9.7120998031e+01 +4.4371990148e+02 4.5818638776e+02 0.0000000000e+00 0.0000e+00 1.0000e+00
<mgrwt>
<rscale>  4 0.19364122E+03</rscale>
<asrwt>0</asrwt>
<pdfrwt beam="1">  1       21 0.16286171E+00 0.19364122E+03</pdfrwt>
<pdfrwt beam="2">  1       21 0.22844075E-01 0.19364122E+03</pdfrwt>
<totfact> 0.43096348E+03</totfact>
</mgrwt>
</event>
<event>
 6      1 +2.5196650e+02 2.30270700e+02 7.54677100e-03 1.06301000e-01
       21 -1    0    0  505  502 +0.0000000000e+00 +0.0000000000e+00 +6.9529444374e+02 6.9529444374e+02 0.0000000000e+00 0.0000e+00 -1.0000e+00
       21 -1    0    0  501  503 -0.0000000000e+00 -0.0000000000e+00 -2.3422488451e+02 2.3422488451e+02 0.0000000000e+00 0.0000e+00 -1.0000e+00
        6  1    1    2  501    0 +3.2647100502e+01 +1.2856932141e+02 +1.8528782311e+02 2.8610571643e+02 1.7300000000e+02 0.0000e+00 -1.0000e+00
       -6  1    1    2    0  502 +1.2685153521e+02 -1.5459257264e+02 +3.5632570606e+02 4.4371971367e+02 1.7300000000e+02 0.0000e+00 -1.0000e+00
       21  1    1    2  504  503 -1.2709337993e+02 +1.2512044449e+00 -9.2491619543e+01 1.5719094255e+02 0.0000000000e+00 0.0000e+00 -1.0000e+00
       21  1    1    2  505  504 -3.2405255783e+01 +2.4772046779e+01 +1.1947649599e+01 4.2502955602e+01 0.0000000000e+00 0.0000e+00 1.0000e+00
<mgrwt>
<rscale>  4 0.23027074E+03</rscale>
<asrwt>0</asrwt>
<pdfrwt beam="1">  1       21 0.10696838E+00 0.23027074E+03</pdfrwt>
<pdfrwt beam="2">  1       21 0.36034598E-01 0.23027074E+03</pdfrwt>
<totfact> 0.50442703E+03</totfact>
</mgrwt>
</event>
<event>
 6      1 +2.5196650e+02 2.83395600e+02 7.54677100e-03 1.12691600e-01
       21 -1    0    0  501  502 +0.0000000000e+00 +0.0000000000e+00 +8.7366951265e+02 8.7366951265e+02 0.0000000000e+00 0.0000e+00 1.0000e+00
       21 -1    0    0  504  503 -0.0000000000e+00 -0.0000000000e+00 -3.1914559648e+02 3.1914559648e+02 0.0000000000e+00 0.0000e+00 -1.0000e+00
        6  1    1    2  501    0 +2.0707019958e+01 -1.0402578812e+02 +9.6977387366e+01 2.2490833450e+02 1.7300000000e+02 0.0000e+00 -1.0000e+00
       -6  1    1    2    0  503 +2.1323507637e+02 +8.5998037618e+01 -7.8757329998e+01 2.9832294129e+02 1.7300000000e+02 0.0000e+00 -1.0000e+00
       21  1    1    2  504  505 -7.0254454334e+01 +1.4958764833e+02 +1.2308559020e+02 2.0606361980e+02 0.0000000000e+00 0.0000e+00 1.0000e+00
       21  1    1    2  505  502 -1.6368764199e+02 -1.3155989784e+02 +4.1321826860e+02 4.6352021355e+02 0.0000000000e+00 0.0000e+00 1.0000e+00
<mgrwt>
<rscale>  4 0.25532243E+03</rscale>
<asrwt>0</asrwt>
<pdfrwt beam="1">  1       21 0.13441069E+00 0.28339565E+03</pdfrwt>
<pdfrwt beam="2">  1       21 0.49099323E-01 0.28339565E+03</pdfrwt>
<totfact> 0.14598711E+03</totfact>
</mgrwt>
</event>
<event>
 6      1 +2.5196650e+02 1.89781300e+02 7.54677100e-03 1.16558800e-01
       21 -1    0    0  503  502 +0.0000000000e+00 +0.0000000000e+00 +3.6161889887e+02 3.6161889887e+02 0.0000000000e+00 0.0000e+00 1.0000e+00
       21 -1    0    0  504  503 -0.0000000000e+00 -0.0000000000e+00 -2.0776975125e+02 2.0776975125e+02 0.0000000000e+00 0.0000e+00 1.0000e+00
        6  1    1    2  501    0 +4.6398667691e+01 -6.9086117220e+01 -7.1823517087e+01 2.0497157257e+02 1.7300000000e+02 0.0000e+00 1.0000e+00
       -6  1    1    2    0  505 -8.7861123033e+01 +1.9658741733e+01 +1.8569666874e+02 2.6929221275e+02 1.7300000000e+02 0.0000e+00 1.0000e+00
       21  1    1    2  504  501 +1.9631636813e+01 +3.2187400663e+01 -9.0355383716e+00 3.8769458071e+01 0.0000000000e+00 0.0000e+00 1.0000e+00
       21  1    1    2  505  502 +2.1830818529e+01 +1.7239974823e+01 +4.9011534340e+01 5.6355406731e+01 0.0000000000e+00 0.0000e+00 1.0000e+00
<mgrwt>
<rscale>  4 0.18978131E+03</rscale>
<asrwt>0</asrwt>
<pdfrwt beam="1">  1       21 0.55633677E-01 0.18978131E+03</pdfrwt>
<pdfrwt beam="2">  1       21 0.31964577E-01 0.18978131E+03</pdfrwt>
<totfact> 0.28701753E+04</totfact>
</mgrwt>
</event>
<event>
 6      1 +2.5196650e+02 1.97899300e+02 7.54677100e-03 1.11396600e-01
       21 -1    0    0  505  502 +0.0000000000e+00 +0.0000000000e+00 +6.4081774010e+02 6.4081774010e+02 0.0000000000e+00 0.0000e+00 -1.0000e+00
       21 -1    0    0  502  503 -0.0000000000e+00 -0.0000000000e+00 -2.4257798075e+02 2.4257798075e+02 0.0000000000e+00 0.0000e+00 1.0000e+00
        6  1    1    2  501    0 +6.0702061280e+01 +6.1253158756e+01 +3.0214521062e+02 3.5868846929e+02 1.7300000000e+02 0.0000e+00 1.0000e+00
       -6  1    1    2    0  503 -9.3810254136e+01 -3.0836721108e+01 -1.5947843571e+02 2.5517374200e+02 1.7300000000e+02 0.0000e+00 1.0000e+00
       21  1    1    2  504  501 +3.2095776144e+01 +1.7832922055e+01 +1.2701947066e+02 1.3221988459e+02 0.0000000000e+00 0.0000e+00 1.0000e+00
       21  1    1    2  505  504 +1.0124167126e+00 -4.8249359703e+01 +1.2855351377e+02 1.3731362497e+02 0.0000000000e+00 0.0000e+00 -1.0000e+00
<mgrwt>
<rscale>  4 0.19789935E+03</rscale>
<asrwt>0</asrwt>
<pdfrwt beam="1">  1       21 0.98587344E-01 0.19789935E+03</pdfrwt>
<pdfrwt beam="2">  1       21 0.37319690E-01 0.19789935E+03</pdfrwt>
<totfact> 0.58556918E+03</totfact>
</mgrwt>
</event>
<event>
 6      1 +2.5196650e+02 2.24408800e+02 7.54677100e-03 1.14954000e-01
       21 -1    0    0  504  502 +0.0000000000e+00 +0.0000000000e+00 +1.5659555141e+03 1.5659555141e+03 0.0000000000e+00 0.0000e+00 1.0000e+00
       21 -1    0    0  502  503 -0.0000000000e+00 -0.0000000000e+00 -7.4438077861e+02 7.4438077861e+02 0.0000000000e+00 0.0000e+00 1.0000e+00
        6  1    1    2  501    0 +1.2949294981e+02 +6.8196451360e+01 -7.0186122474e+02 7.3753464923e+02 1.7300000000e+02 0.0000e+00 1.0000e+00
       -6  1    1    2    0  503 -7.6676098285e+01 -2.6317513268e-01 +3.6723394584e+02 4.1312112544e+02 1.7300000000e+02 0.0000e+00 1.0000e+00
       21  1    1    2  504  505 -3.8317311765e+01 -2.8573584725e+01 +6.2464198362e+02 6.2646809482e+02 0.0000000000e+00 0.0000e+00 1.0000e+00
       21  1    1    2  505  501 -1.4499539763e+01 -3.9359691502e+01 +5.3156003074e+02 5.3321242320e+02 0.0000000000e+00 0.0000e+00 1.0000e+00
<mgrwt>
<rscale>  4 0.22440877E+03</rscale>
<asrwt>0</asrwt>
<pdfrwt beam="1">  1       21 0.24091623E+00 0.22440877E+03</pdfrwt>
<pdfrwt beam="2">  1       21 0.11452012E+00 0.22440877E+03</pdfrwt>
<totfact> 0.42435485E+01</totfact>
</mgrwt>
</event>
<event>
 6      1 +2.5196650e+02 1.86191900e+02 7.54677100e-03 1.11396600e-01
       21 -1    0    0  504  502 +0.0000000000e+00 +0.0000000000e+00 +1.4329471374e+02 1.4329471374e+02 0.0000000000e+00 0.0000e+00 1.0000e+00
       21 -1    0    0  502  503 -0.0000000000e+00 -0.0000000000e+00 -4.2703322366e+02 4.2703322366e+02 0.0000000000e+00 0.0000e+00 1.0000e+00
        6  1    1    2  501    0 +1.9928766015e+01 -3.3346692067e+01 -2.4306150686e+01 1.7896632797e+02 1.7300000000e+02 0.0000e+00 1.0000e+00
       -6  1    1    2    0  503 -1.2097203405e+01 +8.0336152244e+01 -2.7941452588e+02 3.3852875352e+02 1.7300000000e+02 0.0000e+00 1.0000e+00
       21  1    1    2  504  505 -7.3601970616e+00 -2.4187596416e+01 +5.6806733774e+00 2.5912976888e+01 0.0000000000e+00 0.0000e+00 -1.0000e+00
       21  1    1    2  505  501 -4.7136554755e-01 -2.2801863761e+01 +1.4301493267e+01 2.6919879014e+01 0.0000000000e+00 0.0000e+00 -1.0000e+00
<mgrwt>
<rscale>  4 0.18619189E+03</rscale>
<asrwt>0</asrwt>
<pdfrwt beam="1">  1       21 0.22045341E-01 0.18619189E+03</pdfrwt>
<pdfrwt beam="2">  1       21 0.65697418E-01 0.18619189E+03</pdfrwt>
<totfact> 0.41077312E+04</totfact>
</mgrwt>
</event>
<event>
 6      1 +2.5196650e+02 2.34912900e+02 7.54677100e-03 1.16726300e-01
       21 -1    0    0  504  502 +0.0000000000e+00 +0.0000000000e+00 +1.7631948463e+02 1.7631948463e+02 0.0000000000e+00 0.0000e+00 1.0000e+00
       21 -1    0    0  502  503 -0.0000000000e+00 -0.0000000000e+00 -1.1684594095e+03 1.1684594095e+03 0.0000000000e+00 0.0000e+00 1.0000e+00
        6  1    1    2  501    0 -3.1008951378e+01 -8.1574111383e+01 -5.9111317471e+02 6.2206082985e+02 1.7300000000e+02 0.0000e+00 1.0000e+00
       -6  1    1    2    0  505 +1.7033138825e+02 +4.8249299291e+01 +4.0688636655e+01 2.5084924130e+02 1.7300000000e+02 0.0000e+00 1.0000e+00
       21  1    1    2  504  501 -1.1219184876e+02 +4.1643896686e+01 -2.4014887000e+02 2.6831456319e+02 0.0000000000e+00 0.0000e+00 1.0000e+00
       21  1    1    2  505  503 -2.7130588116e+01 -8.3190845937e+00 -2.0156651678e+02 2.0355425976e+02 0.0000000000e+00 0.0000e+00 1.0000e+00
<mgrwt>
<rscale>  4 0.23491288E+03</rscale>
<asrwt>0</asrwt>
<pdfrwt beam="1">  1       21 0.27126074E-01 0.23491288E+03</pdfrwt>
<pdfrwt beam="2">  1       21 0.17976299E+00 0.23491288E+03</pdfrwt>
<totfact> 0.22759498E+03</totfact>
</mgrwt>
</event>
<event>
 6      1 +2.5196650e+02 4.30752000e+02 7.54677100e-03 9.49153200e-02
       21 -1    0    0  504  502 +0.0000000000e+00 +0.0000000000e+00 +7.5899843085e+02 7.5899843085e+02 0.0000000000e+00 0.0000e+00 -1.0000e+00
       21 -1    0    0  501  503 -0.0000000000e+00 -0.0000000000e+00 -1.0777477980e+03 1.0777477980e+03 0.0000000000e+00 0.0000e+00 1.0000e+00
        6  1    1    2  501    0 -2.8646084397e+02 -5.6223909024e+01 -3.4303591895e+01 3.4106697215e+02 1.7300000000e+02 0.0000e+00 1.0000e+00
       -6  1    1    2    0  505 +4.5135430181e+02 +2.0749855625e+02 +2.8857902022e+02 5.9998600611e+02 1.7300000000e+02 0.0000e+00 -1.0000e+00
       21  1    1    2  504  503 -1.8146309796e+02 +3.5166597079e-01 -6.8361617041e+02 7.0729063901e+02 0.0000000000e+00 0.0000e+00 1.0000e+00
       21  1    1    2  505  502 +1.6569640121e+01 -1.5162631320e+02 +1.1059137495e+02 1.8840261156e+02 0.0000000000e+00 0.0000e+00 -1.0000e+00
<mgrwt>
<rscale>  4 0.43075198E+03</rscale>
<asrwt>0</asrwt>
<pdfrwt beam="1">  1       21 0.11676899E+00 0.43075198E+03</pdfrwt>
<pdfrwt beam="2">  1       21 0.16580735E+00 0.43075198E+03</pdfrwt>
<totfact> 0.10458148E+02</totfact>
</mgrwt>
</event>
<event>
 6      1 +2.5196650e+02 2.03721500e+02 7.54677100e-03 1.06301000e-01
       21 -1    0    0  505  502 +0.0000000000e+00 +0.0000000000e+00 +3.0548634326e+02 3.0548634326e+02 0.0000000000e+00 0.0000e+00 -1.0000e+00
       21 -1    0    0  501  503 -0.0000000000e+00 -0.0000000000e+00 -2.3050511623e+02 2.3050511623e+02 0.0000000000e+00 0.0000e+00 -1.0000e+00
        6  1    1    2  501    0 +4.8695662542e+01 +9.8112545296e+01 +3.7942828712e+00 2.0479437414e+02 1.7300000000e+02 0.0000e+00 -1.0000e+00
       -6  1    1    2    0  502 -7.8242012622e+01 -7.6698886478e+01 -3.3541851567e+00 2.0480425358e+02 1.7300000000e+02 0.0000e+00 -1.0000e+00
       21  1    1    2  504  503 +2.3046663925e+01 -2.4196050596e-01 -1.9245604848e+01 3.0026664299e+01 0.0000000000e+00 0.0000e+00 1.0000e+00
       21  1    1    2  505  504 +6.4996861548e+00 -2.1171698312e+01 +9.3786734165e+01 9.6366167481e+01 0.0000000000e+00 0.0000e+00 -1.0000e+00
<mgrwt>
<rscale>  4 0.20372151E+03</rscale>
<asrwt>0</asrwt>
<pdfrwt beam="1">  1       21 0.46997899E-01 0.20372151E+03</pdfrwt>
<pdfrwt beam="2">  1       21 0.35462326E-01 0.20372151E+03</pdfrwt>
<totfact> 0.33023443E+04</totfact>
</mgrwt>
</event>
<event>
 6      1 +2.5196650e+02 1.76553300e+02 7.54677100e-03 9.49153200e-02
       21 -1    0    0  505  502 +0.0000000000e+00 +0.0000000000e+00 +7.6020481179e+02 7.6020481179e+02 0.0000000000e+00 0.0000e+00 1.0000e+00
       21 -1    0    0  504  503 -0.0000000000e+00 -0.0000000000e+00 -3.0187801680e+02 3.0187801680e+02 0.0000000000e+00 0.0000e+00 1.0000e+00
        6  1    1    2  501    0 -4.6094156945e+01 +4.4441409918e+01 +2.6410851706e+02 3.2215216747e+02 1.7300000000e+02 0.0000e+00 1.0000e+00
       -6  1    1    2    0  502 +6.5248495594e+00 -1.7368211726e+01 +4.0054308647e+02 4.3670126238e+02 1.7300000000e+02 0.0000e+00 1.0000e+00
       21  1    1    2  504  501 +3.2559391969e+00 -2.5210451771e+01 -2.4721053417e+02 2.4851401615e+02 0.0000000000e+00 0.0000e+00 1.0000e+00
       21  1    1    2  505  503 +3.6313368189e+01 -1.8627464207e+00 +4.0885725616e+01 5.4715382595e+01 0.0000000000e+00 0.0000e+00 -1.0000e+00
<mgrwt>
<rscale>  4 0.17655330E+03</rscale>
<asrwt>0</asrwt>
<pdfrwt beam="1">  1       21 0.11695459E+00 0.17655330E+03</pdfrwt>
<pdfrwt beam="2">  1       21 0.46442772E-01 0.17655330E+03</pdfrwt>
<totfact> 0.25357157E+03</totfact>
</mgrwt>
</event>
<event>
 6      1 +2.5196650e+02 2.39310900e+02 7.54677100e-03 1.16128000e-01
       21 -1    0    0  501  502 +0.0000000000e+00 +0.0000000000e+00 +1.2226889028e+03 1.2226889028e+03 0.0000000000e+00 0.0000e+00 -1.0000e+00
       21 -1    0    0  502  503 -0.0000000000e+00 -0.0000000000e+00 -4.8219342382e+02 4.8219342382e+02 0.0000000000e+00 0.0000e+00 1.0000e+00
        6  1    1    2  501    0 +3.3102689122e+01 -2.0612053399e+02 +9.3757343916e+02 9.7598894276e+02 1.7300000000e+02 0.0000e+00 -1.0000e+00
       -6  1    1    2    0  505 +1.6059169392e+01 +8.4941133900e+01 +2.1740931483e+02 2.9097887092e+02 1.7300000000e+02 0.0000e+00 -1.0000e+00
       21  1    1    2  504  503 -7.4590689103e+00 +2.8821635421e+01 -1.8031607882e+02 1.8275725063e+02 0.0000000000e+00 0.0000e+00 1.0000e+00
       21  1    1    2  505  504 -4.1702789604e+01 +9.2357764671e+01 -2.3417119621e+02 2.5515726227e+02 0.0000000000e+00 0.0000e+00 1.0000e+00
<mgrwt>
<rscale>  4 0.23931090E+03</rscale>
<asrwt>0</asrwt>
<pdfrwt beam="1">  1       21 0.18810598E+00 0.23931090E+03</pdfrwt>
<pdfrwt beam="2">  1       21 0.74183604E-01 0.23931090E+03</pdfrwt>
<totfact> 0.24761875E+02</totfact>
</mgrwt>
</event>
<event>
 6      1 +2.5196650e+02 3.39832800e+02 7.54677100e-03 1.06301000e-01
       21 -1    0    0  503  502 +0.0000000000e+00 +0.0000000000e+00 +5.5675183479e+02 5.5675183479e+02 0.0000000000e+00 0.0000e+00 -1.0000e+00
       21 -1    0    0  504  503 -0.0000000000e+00 -0.0000000000e+00 -3.8846704365e+02 3.8846704365e+02 0.0000000000e+00 0.0000e+00 -1.0000e+00
        6  1    1    2  501    0 +2.7148908086e+02 -8.4568033120e+00 +6.0191831542e+01 3.2761241603e+02 1.7300000000e+02 0.0000e+00 -1.0000e+00
       -6  1    1    2    0  505 -3.1421839070e+02 +2.2223504414e+00 +1.4603402536e+02 3.8728939110e+02 1.7300000000e+02 0.0000e+00 -1.0000e+00
       21  1    1    2  504  501 +2.2963701688e+01 -1.8031564439e+00 -1.3193551397e+02 1.3393118686e+02 0.0000000000e+00 0.0000e+00 -1.0000e+00
       21  1    1    2  505  502 +1.9765608151e+01 +8.0376093145e+00 +9.3994448207e+01 9.6385884458e+01 0.0000000000e+00 0.0000e+00 -1.0000e+00
<mgrwt>
<rscale>  4 0.33983278E+03</rscale>
<asrwt>0</asrwt>
<pdfrwt beam="1">  1       21 0.85654129E-01 0.33983278E+03</pdfrwt>
<pdfrwt beam="2">  1       21 0.59764160E-01 0.33983278E+03</pdfrwt>
<totfact> 0.27974999E+03</totfact>
</mgrwt>
</event>
<event>
 6      1 +2.5196650e+02 2.44621200e+02 7.54677100e-03 1.16321900e-01
       21 -1    0    0  504  502 +0.0000000000e+00 +0.0000000000e+00 +1.1711796893e+03 1.1711796893e+03 0.0000000000e+00 0.0000e+00 1.0000e+00
       21 -1    0    0  501  503 -0.0000000000e+00 -0.0000000000e+00 -1.0214534914e+02 1.0214534914e+02 0.0000000000e+00 0.0000e+00 1.0000e+00
        6  1    1    2  501    0 +9.4117885819e+01 +1.0896368281e+02 +3.3124203396e+02 4.0047664809e+02 1.7300000000e+02 0.0000e+00 1.0000e+00
       -6  1    1    2    0  502 +8.7678179270e+01 -1.5513931711e+01 +5.6302526484e+02 5.9569672993e+02 1.7300000000e+02 0.0000e+00 1.0000e+00
       21  1    1    2  504  505 -1.8019897898e+02 -7.2730686283e+01 +1.5789161182e+02 2.5038207970e+02 0.0000000000e+00 0.0000e+00 1.0000e+00
       21  1    1    2  505  503 -1.5970861091e+00 -2.0719064812e+01 +1.6875429556e+01 2.6769580748e+01 0.0000000000e+00 0.0000e+00 -1.0000e+00
<mgrwt>
<rscale>  4 0.23107014E+03</rscale>
<asrwt>0</asrwt>
<pdfrwt beam="1">  1       21 0.18018148E+00 0.24462115E+03</pdfrwt>
<pdfrwt beam="2">  1       21 0.15714670E-01 0.24462115E+03</pdfrwt>
<totfact> 0.62775522E+03</totfact>
</mgrwt>
</event>
<event>
 6      1 +2.5196650e+02 2.52369100e+02 7.54677100e-03 9.49153200e-02
       21 -1    0    0  505  502 +0.0000000000e+00 +0.0000000000e+00 +1.3742405268e+02 1.3742405268e+02 0.0000000000e+00 0.0000e+00 1.0000e+00
       21 -1    0    0  501  503 -0.0000000000e+00 -0.0000000000e+00 -1.6345184423e+03 1.6345184423e+03 0.0000000000e+00 0.0000e+00 1.0000e+00
        6  1    1    2  501    0 -2.0543139686e+02 -2.2033623308e+02 -3.9515603171e+02 5.2614390030e+02 1.7300000000e+02 0.0000e+00 1.0000e+00
       -6  1    1    2    0  502 +4.2165414293e+01 +6.7106516966e+01 -6.8163463615e+02 7.0769766425e+02 1.7300000000e+02 0.0000e+00 1.0000e+00
       21  1    1    2  504  503 +1.2678059583e+02 +4.8272523519e+01 -4.0353145144e+02 4.2572431022e+02 0.0000000000e+00 0.0000e+00 1.0000e+00
       21  1    1    2  505  504 +3.6485386741e+01 +1.0495719259e+02 -1.6772270325e+01 1.1237662023e+02 0.0000000000e+00 0.0000e+00 1.0000e+00
<mgrwt>
<rscale>  4 0.25236915E+03</rscale>
<asrwt>0</asrwt>
<pdfrwt beam="1">  1       21 0.21142162E-01 0.25236915E+03</pdfrwt>
<pdfrwt beam="2">  1       21 0.25146437E+00 0.25236915E+03</pdfrwt>
<totfact> 0.12728014E+03</totfact>
</mgrwt>
</event>
<event>
 6      1 +2.5196650e+02 2.19295200e+02 7.54677100e-03 1.14954000e-01
       21 -1    0    0  501  502 +0.0000000000e+00 +0.0000000000e+00 +2.0723461400e+02 2.0723461400e+02 0.0000000000e+00 0.0000e+00 -1.0000e+00
       21 -1    0    0  505  503 -0.0000000000e+00 -0.0000000000e+00 -1.2286523412e+03 1.2286523412e+03 0.0000000000e+00 0.0000e+00 1.0000e+00
        6  1    1    2  501    0 -1.6938180193e+01 +4.3244138161e+01 -1.2173149971e+02 2.1657450325e+02 1.7300000000e+02 0.0000e+00 1.0000e+00
       -6  1    1    2    0  503 +1.0880684461e+02 -1.2116754135e+02 -9.4997763883e+02 9.7923797760e+02 1.7300000000e+02 0.0000e+00 1.0000e+00
       21  1    1    2  504  502 -7.6202269209e+01 +1.2417232718e+02 +9.4952051730e+01 1.7390067509e+02 0.0000000000e+00 0.0000e+00 -1.0000e+00
       21  1    1    2  505  504 -1.5666395204e+01 -4.6248923997e+01 -4.4660640425e+01 6.6173799292e+01 0.0000000000e+00 0.0000e+00 1.0000e+00
<mgrwt>
<rscale>  4 0.21929521E+03</rscale>
<asrwt>0</asrwt>
<pdfrwt beam="1">  1       21 0.31882248E-01 0.21929521E+03</pdfrwt>
<pdfrwt beam="2">  1       21 0.18902344E+00 0.21929521E+03</pdfrwt>
<totfact> 0.14577617E+03</totfact>
</mgrwt>
</event>
<event>
 6      1 +2.5196650e+02 2.32312700e+02 7.54677100e-03 1.09079000e-01
       21 -1    0    0  503  502 +0.0000000000e+00 +0.0000000000e+00 +7.4194594267e+02 7.4194594267e+02 0.0000000000e+00 0.0000e+00 1.0000e+00
       21 -1    0    0  501  503 -0.0000000000e+00 -0.0000000000e+00 -8.5779933590e+02 8.5779933590e+02 0.0000000000e+00 0.0000e+00 1.0000e+00
        6  1    1    2  501    0 -6.4649437874e+01 +1.3874168650e+02 -7.6745693139e+02 8.0146612338e+02 1.7300000000e+02 0.0000e+00 1.0000e+00
       -6  1    1    2    0  504 +1.3095087842e+01 -2.2362311933e+02 +4.1908651791e+02 5.0570870105e+02 1.7300000000e+02 0.0000e+00 1.0000e+00
       21  1    1    2  504  505 +1.6130033548e+01 +7.1009355534e+01 +1.8409563175e+01 7.5109377390e+01 0.0000000000e+00 0.0000e+00 -1.0000e+00
       21  1    1    2  505  502 +3.5424316483e+01 +1.3872077291e+01 +2.1410745707e+02 2.1746107675e+02 0.0000000000e+00 0.0000e+00 1.0000e+00
<mgrwt>
<rscale>  4 0.23231275E+03</rscale>
<asrwt>0</asrwt>
<pdfrwt beam="1">  1       21 0.11414553E+00 0.23231275E+03</pdfrwt>
<pdfrwt beam="2">  1       21 0.13196913E+00 0.23231275E+03</pdfrwt>
<totfact> 0.23737597E+02</totfact>
</mgrwt>
</event>
<event>
 6      1 +2.5196650e+02 1.95433900e+02 7.54677100e-03 1.06301000e-01
       21 -1    0    0  505  502 +0.0000000000e+00 +0.0000000000e+00 +2.0804333160e+03 2.0804333160e+03 0.0000000000e+00 0.0000e+00 -1.0000e+00
       21 -1    0    0  501  503 -0.0000000000e+00 -0.0000000000e+00 -4.1112057239e+02 4.1112057239e+02 0.0000000000e+00 0.0000e+00 1.0000e+00
        6  1    1    2  501    0 +8.4184583612e+01 +1.2241077305e+02 -1.5659189907e+02 2.7662513323e+02 1.7300000000e+02 0.0000e+00 1.0000e+00
       -6  1    1    2    0  502 -1.1748950932e+01 -1.8337320081e+01 -2.8085423376e+01 1.7661281426e+02 1.7300000000e+02 0.0000e+00 -1.0000e+00
       21  1    1    2  504  503 +1.2911913982e+01 -1.8810964973e+01 -8.8850627865e+01 9.1733330899e+01 0.0000000000e+00 0.0000e+00 -1.0000e+00
       21  1    1    2  505  504 -8.5347546662e+01 -8.5262487995e+01 +1.9428406939e+03 1.9465826100e+03 0.0000000000e+00 0.0000e+00 -1.0000e+00
<mgrwt>
<rscale>  4 0.19543393E+03</rscale>
<asrwt>0</asrwt>
<pdfrwt beam="1">  1       21 0.32006666E+00 0.19543393E+03</pdfrwt>
<pdfrwt beam="2">  1       21 0.63249320E-01 0.19543393E+03</pdfrwt>
<totfact> 0.60180594E+01</totfact>
</mgrwt>
</event>
<event>
 6      1 +2.5196650e+02 1.90181800e+02 7.54677100e-03 1.06301000e-01
       21 -1    0    0  505  502 +0.0000000000e+00 +0.0000000000e+00 +4.6048949533e+02 4.6048949533e+02 0.0000000000e+00 0.0000e+00 1.0000e+00
       21 -1    0    0  504  503 -0.0000000000e+00 -0.0000000000e+00 -9.1746104154e+02 9.1746104154e+02 0.0000000000e+00 0.0000e+00 -1.0000e+00
        6  1    1    2  501    0 +8.2005495157e+01 +3.5251475513e+01 -3.3397038291e+02 3.8656536888e+02 1.7300000000e+02 0.0000e+00 -1.0000e+00
       -6  1    1    2    0  502 -8.1404563180e+01 -4.6280573775e+01 -1.0662128956e+02 2.2375364534e+02 1.7300000000e+02 0.0000e+00 -1.0000e+00
       21  1    1    2  504  501 -3.1309279253e+01 -1.7720001238e+00 -3.9063943036e+02 3.9189612847e+02 0.0000000000e+00 0.0000e+00 -1.0000e+00
       21  1    1    2  505  503 +3.0708347276e+01 +1.2801098385e+01 +3.7425955663e+02 3.7573539418e+02 0.0000000000e+00 0.0000e+00 1.0000e+00
<mgrwt>
<rscale>  4 0.19018177E+03</rscale>
<asrwt>0</asrwt>
<pdfrwt beam="1">  1       21 0.70844538E-01 0.19018177E+03</pdfrwt>
<pdfrwt beam="2">  1       21 0.14114785E+00 0.19018177E+03</pdfrwt>
<totfact> 0.63396506E+02</totfact>
</mgrwt>
</event>
<event>
 6      1 +2.5196650e+02 2.45666900e+02 7.54677100e-03 1.06301000e-01
       21 -1    0    0  504  502 +0.0000000000e+00 +0.0000000000e+00 +3.3512863076e+02 3.3512863076e+02 0.0000000000e+00 0.0000e+00 -1.0000e+00
       21 -1    0    0  501  503 -0.0000000000e+00 -0.0000000000e+00 -1.4737512389e+03 1.4737512389e+03 0.0000000000e+00 0.0000e+00 -1.0000e+00
        6  1    1    2  501    0 -1.6237032397e+02 -6.8245461744e+01 -1.3806807048e+02 2.8286632398e+02 1.7300000000e+02 0.0000e+00 -1.0000e+00
       -6  1    1    2    0  505 +1.5290197880e+02 +4.0076572848e+01 +7.5096592967e+00 2.3445797448e+02 1.7300000000e+02 0.0000e+00 -1.0000e+00
       21  1    1    2  504  503 -2.6893010623e+01 -9.9692475236e-01 -1.1458154109e+03 1.1461313990e+03 0.0000000000e+00 0.0000e+00 -1.0000e+00
       21  1    1    2  505  502 +3.6361355797e+01 +2.9165813648e+01 +1.3775121402e+02 1.4542417215e+02 0.0000000000e+00 0.0000e+00 -1.0000e+00
<mgrwt>
<rscale>  4 0.24566694E+03</rscale>
<asrwt>0</asrwt>
<pdfrwt beam="1">  1       21 0.51558251E-01 0.24566694E+03</pdfrwt>
<pdfrwt beam="2">  1       21 0.22673096E+00 0.24566694E+03</pdfrwt>
<totfact> 0.30710733E+02</totfact>
</mgrwt>
</event>
<event>
 6      1 +2.5196650e+02 2.41524200e+02 7.54677100e-03 9.28652600e-02
       21 -1    0    0  504  502 +0.0000000000e+00 +0.0000000000e+00 +3.5751009922e+02 3.5751009922e+02 0.0000000000e+00 0.0000e+00 1.0000e+00
       21 -1    0    0  505  503 -0.0000000000e+00 -0.0000000000e+00 -1.1636958571e+03 1.1636958571e+03 0.0000000000e+00 0.0000e+00 -1.0000e+00
        6  1    1    2  501    0 +1.9386140059e-01 -1.5940556226e+02 -7.6938481181e+02 8.0454469080e+02 1.7300000000e+02 0.0000e+00 -1.0000e+00
       -6  1    1    2    0  502 -1.7102129217e+01 +1.6821437362e+02 +2.9477301550e+02 3.8132491262e+02 1.7300000000e+02 0.0000e+00 1.0000e+00
       21  1    1    2  504  503 +1.0306599664e+00 -2.5434522043e+01 -1.3109207927e+02 1.3354066953e+02 0.0000000000e+00 0.0000e+00 -1.0000e+00
       21  1    1    2  505  501 +1.5877607850e+01 +1.6625710678e+01 -2.0048188236e+02 2.0179568341e+02 0.0000000000e+00 0.0000e+00 -1.0000e+00
<mgrwt>
<rscale>  4 0.24152418E+03</rscale>
<asrwt>0</asrwt>
<pdfrwt beam="1">  1       21 0.55001554E-01 0.24152418E+03</pdfrwt>
<pdfrwt beam="2">  1       21 0.17903013E+00 0.24152418E+03</pdfrwt>
<totfact> 0.54719160E+02</totfact>
</mgrwt>
</event>
<event>
 6      1 +2.5196650e+02 2.41463200e+02 7.54677100e-03 1.16558800e-01
       21 -1    0    0  503  502 +0.0000000000e+00 +0.0000000000e+00 +2.6413526417e+02 2.6413526417e+02 0.0000000000e+00 0.0000e+00 -1.0000e+00
       21 -1    0    0  504  503 -0.0000000000e+00 -0.0000000000e+00 -4.9361650050e+02 4.9361650050e+02 0.0000000000e+00 0.0000e+00 -1.0000e+00
        6  1    1    2  501    0 -7.1625656632e+01 +1.3863809015e+02 -2.7060172051e+02 3.5707848699e+02 1.7300000000e+02 0.0000e+00 -1.0000e+00
       -6  1    1    2    0  505 +7.2876722614e+01 -1.8545539699e+02 -6.0740640665e+01 2.7078247063e+02 1.7300000000e+02 0.0000e+00 -1.0000e+00
       21  1    1    2  504  501 +9.3690652456e+00 +1.9662241051e+01 -2.1347131202e+00 2.1884700291e+01 0.0000000000e+00 0.0000e+00 -1.0000e+00
       21  1    1    2  505  502 -1.0620131228e+01 +2.7155065788e+01 +1.0399583797e+02 1.0800610677e+02 0.0000000000e+00 0.0000e+00 -1.0000e+00
<mgrwt>
<rscale>  4 0.24146316E+03</rscale>
<asrwt>0</asrwt>
<pdfrwt beam="1">  1       21 0.40636195E-01 0.24146316E+03</pdfrwt>
<pdfrwt beam="2">  1       21 0.75940999E-01 0.24146316E+03</pdfrwt>
<totfact> 0.87377894E+03</totfact>
</mgrwt>
</event>
<event>
 6      1 +2.5196650e+02 1.76345600e+02 7.54677100e-03 1.09711200e-01
       21 -1    0    0  501  502 +0.0000000000e+00 +0.0000000000e+00 +1.1758650619e+03 1.1758650619e+03 0.0000000000e+00 0.0000e+00 -1.0000e+00
       21 -1    0    0  505  503 -0.0000000000e+00 -0.0000000000e+00 -4.9050406990e+02 4.9050406990e+02 0.0000000000e+00 0.0000e+00 -1.0000e+00
        6  1    1    2  501    0 -5.9457001803e+00 -3.9088602161e+01 -3.9852533154e+02 4.3625074218e+02 1.7300000000e+02 0.0000e+00 -1.0000e+00
       -6  1    1    2    0  503 +1.1986667856e+02 -5.9693936472e+01 +1.2038301142e+02 2.4970473788e+02 1.7300000000e+02 0.0000e+00 -1.0000e+00
       21  1    1    2  504  502 -1.3096015481e+01 +3.1664859896e+01 +5.0566955271e+02 5.0682922717e+02 0.0000000000e+00 0.0000e+00 -1.0000e+00
       21  1    1    2  505  504 -1.0082496290e+02 +6.7117678737e+01 +4.5783375939e+02 4.7358442455e+02 0.0000000000e+00 0.0000e+00 -1.0000e+00
<mgrwt>
<rscale>  4 0.17634558E+03</rscale>
<asrwt>0</asrwt>
<pdfrwt beam="1">  1       21 0.18090232E+00 0.17634558E+03</pdfrwt>
<pdfrwt beam="2">  1       21 0.75462165E-01 0.17634558E+03</pdfrwt>
<totfact> 0.28747339E+02</totfact>
</mgrwt>
</event>
<event>
 6      1 +2.5196650e+02 1.90662000e+02 7.54677100e-03 9.49153200e-02
       21 -1    0    0  505  502 +0.0000000000e+00 +0.0000000000e+00 +5.6252998389e+02 5.6252998389e+02 0.0000000000e+00 0.0000e+00 -1.0000e+00
       21 -1    0    0  504  503 -0.0000000000e+00 -0.0000000000e+00 -5.6986863107e+02 5.6986863107e+02 0.0000000000e+00 0.0000e+00 -1.0000e+00
        6  1    1    2  501    0 +3.3543203527e+01 +7.7225759383e+01 -1.8737338423e+02 2.6856423725e+02 1.7300000000e+02 0.0000e+00 -1.0000e+00
       -6  1    1    2    0  502 -5.6553437662e+01 -1.5904764587e+01 +1.1497910058e+02 2.1587136544e+02 1.7300000000e+02 0.0000e+00 1.0000e+00
       21  1    1    2  504  501 +3.3716692744e+01 -1.6343221087e+01 -2.8873909889e+02 2.9116006503e+02 0.0000000000e+00 0.0000e+00 -1.0000e+00
       21  1    1    2  505  503 -1.0706458608e+01 -4.4977773709e+01 +3.5379473535e+02 3.5680294722e+02 0.0000000000e+00 0.0000e+00 -1.0000e+00
<mgrwt>
<rscale>  4 0.19066204E+03</rscale>
<asrwt>0</asrwt>
<pdfrwt beam="1">  1       21 0.86543075E-01 0.19066204E+03</pdfrwt>
<pdfrwt beam="2">  1       21 0.87672097E-01 0.19066204E+03</pdfrwt>
<totfact> 0.12858911E+03</totfact>
</mgrwt>
</event>
<event>
 6      1 +2.5196650e+02 2.35727200e+02 7.54677100e-03 1.12691600e-01
       21 -1    0    0  505  502 +0.0000000000e+00 +0.0000000000e+00 +3.2755397592e+02 3.2755397592e+02 0.0000000000e+00 0.0000e+00 -1.0000e+00
       21 -1    0    0  504  503 -0.0000000000e+00 -0.0000000000e+00 -3.3385830390e+02 3.3385830390e+02 0.0000000000e+00 0.0000e+00 -1.0000e+00
        6  1    1    2  501    0 +1.7793399860e+02 -1.0433743457e+02 +7.8725677248e+01 2.8048803962e+02 1.7300000000e+02 0.0000e+00 -1.0000e+00
       -6  1    1    2    0  503 -1.2151891438e+02 -2.8624831445e+01 -4.2593289480e+01 2.1755324828e+02 1.7300000000e+02 0.0000e+00 1.0000e+00
       21  1    1    2  504  502 -6.9351308811e+00 +8.7510235667e+01 -3.9105900288e+01 9.6101034459e+01 0.0000000000e+00 0.0000e+00 -1.0000e+00
       21  1    1    2  505  501 -4.9479953345e+01 +4.5452030348e+01 -3.3308154582e+00 6.7269957466e+01 0.0000000000e+00 0.0000e+00 -1.0000e+00
<mgrwt>
<rscale>  4 0.23572720E+03</rscale>
<asrwt>0</asrwt>
<pdfrwt beam="1">  1       21 0.50392920E-01 0.23572720E+03</pdfrwt>
<pdfrwt beam="2">  1       21 0.51362816E-01 0.23572720E+03</pdfrwt>
<totfact> 0.13152648E+04</totfact>
</mgrwt>
</event>
<event>
 6      1 +2.5196650e+02 2.08451300e+02 7.54677100e-03 9.49153200e-02
       21 -1    0    0  505  502 +0.0000000000e+00 +0.0000000000e+00 +3.0871611210e+02 3.0871611210e+02 0.0000000000e+00 0.0000e+00 1.0000e+00
       21 -1    0    0  501  503 -0.0000000000e+00 -0.0000000000e+00 -5.2684313985e+02 5.2684313985e+02 0.0000000000e+00 0.0000e+00 1.0000e+00
        6  1    1    2  501    0 +3.0174379492e+01 -1.2560812415e+02 -3.1965140430e+02 3.8573814214e+02 1.7300000000e+02 0.0000e+00 1.0000e+00
       -6  1    1    2    0  502 -1.1813102556e+02 +3.6154307691e+01 +2.4720273523e+00 2.1259629367e+02 1.7300000000e+02 0.0000e+00 1.0000e+00
       21  1    1    2  504  503 +9.0865395203e+01 +5.1684456776e+01 -2.5028255451e+01 1.0749054232e+02 0.0000000000e+00 0.0000e+00 1.0000e+00
       21  1    1    2  505  504 -2.9087491342e+00 +3.7769359684e+01 +1.2408060464e+02 1.2973427381e+02 0.0000000000e+00 0.0000e+00 1.0000e+00
<mgrwt>
<rscale>  4 0.20845127E+03</rscale>
<asrwt>0</asrwt>
<pdfrwt beam="1">  1       21 0.47494788E-01 0.20845127E+03</pdfrwt>
<pdfrwt beam="2">  1       21 0.81052789E-01 0.20845127E+03</pdfrwt>
<totfact> 0.55937535E+03</totfact>
</mgrwt>
</event>
<event>
 6      1 +2.5196650e+02 1.94112200e+02 7.54677100e-03 1.16268000e-01
       21 -1    0    0  501  502 +0.0000000000e+00 +0.0000000000e+00 +1.9051451812e+03 1.9051451812e+03 0.0000000000e+00 0.0000e+00 -1.0000e+00
       21 -1    0    0  505  503 -0.0000000000e+00 -0.0000000000e+00 -5.5363812439e+01 5.5363812439e+01 0.0000000000e+00 0.0000e+00 -1.0000e+00
        6  1    1    2  501    0 +1.6289200692e+01 +8.9371833707e+01 +1.3891345664e+03 1.4028102175e+03 1.7300000000e+02 0.0000e+00 -1.0000e+00
       -6  1    1    2    0  503 -2.9016561987e+01 -2.6832755695e+01 +1.5207504944e+02 2.3370446789e+02 1.7300000000e+02 0.0000e+00 -1.0000e+00
       21  1    1    2  504  502 +2.7829847631e+01 +2.1067979081e+00 +1.4130826372e+02 1.4403806584e+02 0.0000000000e+00 0.0000e+00 -1.0000e+00
       21  1    1    2  505  504 -1.5102486335e+01 -6.4645875921e+01 +1.6726348921e+02 1.7995624243e+02 0.0000000000e+00 0.0000e+00 -1.0000e+00
<mgrwt>
<rscale>  4 0.19411217E+03</rscale>
<asrwt>0</asrwt>
<pdfrwt beam="1">  1       21 0.29309921E+00 0.19411217E+03</pdfrwt>
<pdfrwt beam="2">  1       21 0.85175111E-02 0.19411217E+03</pdfrwt>
<totfact> 0.40168213E+03</totfact>
</mgrwt>
</event>
<event>
 6      1 +2.5196650e+02 3.12522400e+02 7.54677100e-03 1.06301000e-01
       21 -1    0    0  501  502 +0.0000000000e+00 +0.0000000000e+00 +3.8955532430e+02 3.8955532430e+02 0.0000000000e+00 0.0000e+00 -1.0000e+00
       21 -1    0    0  504  503 -0.0000000000e+00 -0.0000000000e+00 -4.8546925955e+02 4.8546925955e+02 0.0000000000e+00 0.0000e+00 1.0000e+00
        6  1    1    2  501    0 +2.5629325709e+02 +1.0822112348e+02 +2.0040592965e+02 3.8404372386e+02 1.7300000000e+02 0.0000e+00 -1.0000e+00
       -6  1    1    2    0  503 -2.1138116798e+02 -1.1278587940e+02 -2.7708078492e+02 4.0509926455e+02 1.7300000000e+02 0.0000e+00 1.0000e+00
       21  1    1    2  504  505 -2.3738752510e+01 -2.6897120456e+00 -4.5491570828e+01 5.1383323540e+01 0.0000000000e+00 0.0000e+00 -1.0000e+00
       21  1    1    2  505  502 -2.1173336599e+01 +7.2544679624e+00 +2.6252490842e+01 3.4498271892e+01 0.0000000000e+00 0.0000e+00 -1.0000e+00
<mgrwt>
<rscale>  4 0.31252244E+03</rscale>
<asrwt>0</asrwt>
<pdfrwt beam="1">  1       21 0.59931589E-01 0.31252244E+03</pdfrwt>
<pdfrwt beam="2">  1       21 0.74687578E-01 0.31252244E+03</pdfrwt>
<totfact> 0.38586454E+03</totfact>
</mgrwt>
</event>
<event>
 6      1 +2.5196650e+02 1.85783400e+02 7.54677100e-03 1.14954000e-01
       21 -1    0    0  505  502 +0.0000000000e+00 +0.0000000000e+00 +1.2848423038e+02 1.2848423038e+02 0.0000000000e+00 0.0000e+00 -1.0000e+00
       21 -1    0    0  502  503 -0.0000000000e+00 -0.0000000000e+00 -5.9547201231e+02 5.9547201231e+02 0.0000000000e+00 0.0000e+00 -1.0000e+00
        6  1    1    2  501    0 +3.7981536042e+00 +6.4073817238e+00 -3.4900531788e+02 3.8960132497e+02 1.7300000000e+02 0.0000e+00 -1.0000e+00
       -6  1    1    2    0  503 -7.6624912584e+01 +3.9661660429e+01 -1.0349243238e+01 1.9359889300e+02 1.7300000000e+02 0.0000e+00 -1.0000e+00
       21  1    1    2  504  501 +5.3371742110e+01 -1.8165406868e+01 -7.2673189921e+01 9.1977809258e+01 0.0000000000e+00 0.0000e+00 -1.0000e+00
       21  1    1    2  505  504 +1.9455016870e+01 -2.7903635285e+01 -3.4960030898e+01 4.8778215465e+01 0.0000000000e+00 0.0000e+00 -1.0000e+00
<mgrwt>
<rscale>  4 0.18578337E+03</rscale>
<asrwt>0</asrwt>
<pdfrwt beam="1">  1       21 0.19766805E-01 0.18578337E+03</pdfrwt>
<pdfrwt beam="2">  1       21 0.91611077E-01 0.18578337E+03</pdfrwt>
<totfact> 0.23884163E+04</totfact>
</mgrwt>
</event>
<event>
 6      1 +2.5196650e+02 2.33159100e+02 7.54677100e-03 1.09711200e-01
       21 -1    0    0  501  502 +0.0000000000e+00 +0.0000000000e+00 +4.0425599710e+02 4.0425599710e+02 0.0000000000e+00 0.0000e+00 1.0000e+00
       21 -1    0    0  505  503 -0.0000000000e+00 -0.0000000000e+00 -2.7062978337e+02 2.7062978337e+02 0.0000000000e+00 0.0000e+00 -1.0000e+00
        6  1    1    2  501    0 -7.1221678203e+00 -1.4863067201e+02 +4.8982020949e+01 2.3338817518e+02 1.7300000000e+02 0.0000e+00 1.0000e+00
       -6  1    1    2    0  503 -6.5530628188e+01 +1.5330071322e+02 -8.5821401679e+01 2.5512680159e+02 1.7300000000e+02 0.0000e+00 1.0000e+00
       21  1    1    2  504  502 +2.3396315001e+01 -4.6304440487e-01 +7.9093132052e+01 8.2482273875e+01 0.0000000000e+00 0.0000e+00 1.0000e+00
       21  1    1    2  505  504 +4.9256481007e+01 -4.2069968119e+00 +9.1372462404e+01 1.0388852982e+02 0.0000000000e+00 0.0000e+00 1.0000e+00
<mgrwt>
<rscale>  4 0.23315910E+03</rscale>
<asrwt>0</asrwt>
<pdfrwt beam="1">  1       21 0.62193230E-01 0.23315910E+03</pdfrwt>
<pdfrwt beam="2">  1       21 0.41635351E-01 0.23315910E+03</pdfrwt>
<totfact> 0.12991023E+04</totfact>
</mgrwt>
</event>
<event>
 6      1 +2.5196650e+02 3.04469900e+02 7.54677100e-03 9.49153200e-02
       21 -1    0    0  504  502 +0.0000000000e+00 +0.0000000000e+00 +5.4865210465e+02 5.4865210465e+02 0.0000000000e+00 0.0000e+00 -1.0000e+00
       21 -1    0    0  501  503 -0.0000000000e+00 -0.0000000000e+00 -4.1437309563e+02 4.1437309563e+02 0.0000000000e+00 0.0000e+00 1.0000e+00
        6  1    1    2  501    0 +2.2640578057e+02 -2.4840939655e+01 -6.5274882294e+01 2.9337085747e+02 1.7300000000e+02 0.0000e+00 -1.0000e+00
       -6  1    1    2    0  505 -2.7412879590e+02 -7.6047723207e+01 -9.1900821556e+01 3.4540499989e+02 1.7300000000e+02 0.0000e+00 1.0000e+00
       21  1    1    2  504  503 +1.1193849609e+01 +1.8940409866e+01 +3.0504515351e+00 2.2211408094e+01 0.0000000000e+00 0.0000e+00 -1.0000e+00
       21  1    1    2  505  502 +3.6529165729e+01 +8.1948252996e+01 +2.8840426133e+02 3.0203793483e+02 0.0000000000e+00 0.0000e+00 -1.0000e+00
<mgrwt>
<rscale>  4 0.30446987E+03</rscale>
<asrwt>0</asrwt>
<pdfrwt beam="1">  1       21 0.84408016E-01 0.30446987E+03</pdfrwt>
<pdfrwt beam="2">  1       21 0.63749707E-01 0.30446987E+03</pdfrwt>
<totfact> 0.25601903E+03</totfact>
</mgrwt>
</event>
<event>
 6      1 +2.5196650e+02 2.24318100e+02 7.54677100e-03 1.07655700e-01
       21 -1    0    0  501  502 +0.0000000000e+00 +0.0000000000e+00 +7.2179848552e+02 7.2179848552e+02 0.0000000000e+00 0.0000e+00 1.0000e+00
       21 -1    0    0  504  503 -0.0000000000e+00 -0.0000000000e+00 -2.1946291694e+02 2.1946291694e+02 0.0000000000e+00 0.0000e+00 1.0000e+00
        6  1    1    2  501    0 +4.6681666685e+01 -1.1760459802e+02 +3.0811040591e+02 3.7532791224e+02 1.7300000000e+02 0.0000e+00 1.0000e+00
       -6  1    1    2    0  505 -2.4085671718e+02 +7.8061616375e+01 +1.1439916693e+02 3.2729458223e+02 1.7300000000e+02 0.0000e+00 1.0000e+00
       21  1    1    2  504  502 +1.9856854627e+02 +1.5806682711e+01 +7.9561695355e+01 2.1449797704e+02 0.0000000000e+00 0.0000e+00 1.0000e+00
       21  1    1    2  505  503 -4.3934957805e+00 +2.3736298932e+01 +2.6430038093e-01 2.4140930945e+01 0.0000000000e+00 0.0000e+00 1.0000e+00
<mgrwt>
<rscale>  4 0.22431807E+03</rscale>
<asrwt>0</asrwt>
<pdfrwt beam="1">  1       21 0.11104592E+00 0.22431807E+03</pdfrwt>
<pdfrwt beam="2">  1       21 0.33763526E-01 0.22431807E+03</pdfrwt>
<totfact> 0.52659155E+03</totfact>
</mgrwt>
</event>
<event>
 6      1 +2.5196650e+02 1.85251200e+02 7.54677100e-03 9.49153200e-02
       21 -1    0    0  505  502 +0.0000000000e+00 +0.0000000000e+00 +3.1820413991e+02 3.1820413991e+02 0.0000000000e+00 0.0000e+00 -1.0000e+00
       21 -1    0    0  504  503 -0.0000000000e+00 -0.0000000000e+00 -6.0111935935e+02 6.0111935935e+02 0.0000000000e+00 0.0000e+00 -1.0000e+00
        6  1    1    2  501    0 +1.0773136900e+02 -1.4797062505e+02 -9.3125810739e+01 2.6851959029e+02 1.7300000000e+02 0.0000e+00 -1.0000e+00
       -6  1    1    2    0  502 +1.9360303762e+01 +4.3363556464e+01 +1.1383152588e+02 2.1246608123e+02 1.7300000000e+02 0.0000e+00 -1.0000e+00
       21  1    1    2  504  501 +1.5062407510e+01 -1.3347571336e+01 -2.4313716956e+02 2.4396868037e+02 0.0000000000e+00 0.0000e+00 -1.0000e+00
       21  1    1    2  505  503 -1.4215408027e+02 +1.1795463992e+02 -6.0483765024e+01 1.9436914737e+02 0.0000000000e+00 0.0000e+00 -1.0000e+00
<mgrwt>
<rscale>  4 0.18525125E+03</rscale>
<asrwt>0</asrwt>
<pdfrwt beam="1">  1       21 0.48954483E-01 0.18525125E+03</pdfrwt>
<pdfrwt beam="2">  1       21 0.92479901E-01 0.18525125E+03</pdfrwt>
<totfact> 0.39515434E+03</totfact>
</mgrwt>
</event>
<event>
 6      1 +2.5196650e+02 1.78217300e+02 7.54677100e-03 1.06301000e-01
       21 -1    0    0  505  502 +0.0000000000e+00 +0.0000000000e+00 +1.8007730993e+02 1.8007730993e+02 0.0000000000e+00 0.0000e+00 1.0000e+00
       21 -1    0    0  504  503 -0.0000000000e+00 -0.0000000000e+00 -4.5168557993e+02 4.5168557993e+02 0.0000000000e+00 0.0000e+00 1.0000e+00
        6  1    1    2  501    0 +5.5663366743e+01 -1.0397677862e+01 -3.5557589011e+01 1.8547200392e+02 1.7300000000e+02 0.0000e+00 1.0000e+00
       -6  1    1    2    0  502 -2.2206260611e+01 -6.3858546733e+01 -8.4329715987e+01 2.0398905118e+02 1.7300000000e+02 0.0000e+00 -1.0000e+00
       21  1    1    2  504  501 +2.4757067097e+01 +4.1241889308e+01 -1.6688687212e+02 1.7368083916e+02 0.0000000000e+00 0.0000e+00 1.0000e+00
       21  1    1    2  505  503 -5.8214173229e+01 +3.3014335287e+01 +1.5165907118e+01 6.8620995606e+01 0.0000000000e+00 0.0000e+00 1.0000e+00
<mgrwt>
<rscale>  4 0.17821734E+03</rscale>
<asrwt>0</asrwt>
<pdfrwt beam="1">  1       21 0.27704202E-01 0.17821734E+03</pdfrwt>
<pdfrwt beam="2">  1       21 0.69490089E-01 0.17821734E+03</pdfrwt>
<totfact> 0.23614428E+04</totfact>
</mgrwt>
</event>
<event>
 6      1 +2.5196650e+02 1.76566500e+02 7.54677100e-03 1.16128000e-01
       21 -1    0    0  501  502 +0.0000000000e+00 +0.0000000000e+00 +1.9146831259e+02 1.9146831259e+02 0.0000000000e+00 0.0000e+00 1.0000e+00
       21 -1    0    0  502  503 -0.0000000000e+00 -0.0000000000e+00 -6.4351417737e+02 6.4351417737e+02 0.0000000000e+00 0.0000e+00 1.0000e+00
        6  1    1    2  501    0 +2.0245913049e+01 +3.9932215203e+01 +4.5912521188e+01 1.8450322059e+02 1.7300000000e+02 0.0000e+00 1.0000e+00
       -6  1    1    2    0  505 -2.9924569365e+01 -3.7970054596e+00 -3.8359006646e+01 1.7975068983e+02 1.7300000000e+02 0.0000e+00 -1.0000e+00
       21  1    1    2  504  503 +4.3024956292e+01 -3.0230119312e+01 -3.8773878055e+02 3.9128808941e+02 0.0000000000e+00 0.0000e+00 1.0000e+00
       21  1    1    2  505  504 -3.3346299976e+01 -5.9050904315e+00 -7.1860598776e+01 7.9440490127e+01 0.0000000000e+00 0.0000e+00 1.0000e+00
<mgrwt>
<rscale>  4 0.17656649E+03</rscale>
<asrwt>0</asrwt>
<pdfrwt beam="1">  1       21 0.29456664E-01 0.17656649E+03</pdfrwt>
<pdfrwt beam="2">  1       21 0.99002179E-01 0.17656649E+03</pdfrwt>
<totfact> 0.93918612E+03</totfact>
</mgrwt>
</event>
<event>
 6      1 +2.5196650e+02 2.33462000e+02 7.54677100e-03 1.11396600e-01
       21 -1    0    0  505  502 +0.0000000000e+00 +0.0000000000e+00 +9.0704776380e+02 9.0704776380e+02 0.0000000000e+00 0.0000e+00 -1.0000e+00
       21 -1    0    0  501  503 -0.0000000000e+00 -0.0000000000e+00 -1.0350799501e+02 1.0350799501e+02 0.0000000000e+00 0.0000e+00 -1.0000e+00
        6  1    1    2  501    0 -2.1383873135e+01 -5.1659437139e+01 +1.5361548206e+02 2.3801824259e+02 1.7300000000e+02 0.0000e+00 -1.0000e+00
       -6  1    1    2    0  502 -6.5568300627e+01 -1.1500051216e+02 +4.1378146350e+02 4.6761995186e+02 1.7300000000e+02 0.0000e+00 -1.0000e+00
       21  1    1    2  504  503 +6.2696631621e+01 +1.1947220291e+02 +1.3591790677e+02 1.9151541000e+02 0.0000000000e+00 0.0000e+00 -1.0000e+00
       21  1    1    2  505  504 +2.4255542141e+01 +4.7187746392e+01 +1.0022491647e+02 1.1340215437e+02 0.0000000000e+00 0.0000e+00 -1.0000e+00
<mgrwt>
<rscale>  4 0.21931417E+03</rscale>
<asrwt>0</asrwt>
<pdfrwt beam="1">  1       21 0.13954580E+00 0.23346196E+03</pdfrwt>
<pdfrwt beam="2">  1       21 0.15924308E-01 0.23346196E+03</pdfrwt>
<totfact> 0.12346713E+04</totfact>
</mgrwt>
</event>
<event>
 6      1 +2.5196650e+02 2.00791800e+02 7.54677100e-03 1.09711200e-01
       21 -1    0    0  501  502 +0.0000000000e+00 +0.0000000000e+00 +4.5986910924e+01 4.5986910924e+01 0.0000000000e+00 0.0000e+00 -1.0000e+00
       21 -1    0    0  505  503 -0.0000000000e+00 -0.0000000000e+00 -1.6273695996e+03 1.6273695996e+03 0.0000000000e+00 0.0000e+00 -1.0000e+00
        6  1    1    2  501    0 +3.5196726468e+01 +9.1051086386e+01 -3.8837664525e+02 4.3622761085e+02 1.7300000000e+02 0.0000e+00 -1.0000e+00
       -6  1    1    2    0  503 -5.8814964987e+01 -8.6524109769e+01 -9.5524990455e+02 9.7641026307e+02 1.7300000000e+02 0.0000e+00 -1.0000e+00
       21  1    1    2  504  502 -1.3778731438e+01 +4.3708661737e+01 -9.5803857066e+01 1.0620112796e+02 0.0000000000e+00 0.0000e+00 1.0000e+00
       21  1    1    2  505  504 +3.7396969957e+01 -4.8235638353e+01 -1.4195228175e+02 1.5451750860e+02 0.0000000000e+00 0.0000e+00 -1.0000e+00
<mgrwt>
<rscale>  4 0.20079177E+03</rscale>
<asrwt>0</asrwt>
<pdfrwt beam="1">  1       21 0.70749097E-02 0.20079177E+03</pdfrwt>
<pdfrwt beam="2">  1       21 0.25036454E+00 0.20079177E+03</pdfrwt>
<totfact> 0.97506904E+03</totfact>
</mgrwt>
</event>
<event>
 6      1 +2.5196650e+02 1.98036800e+02 7.54677100e-03 1.02776600e-01
       21 -1    0    0  501  502 +0.0000000000e+00 +0.0000000000e+00 +6.5864218954e+02 6.5864218954e+02 0.0000000000e+00 0.0000e+00 -1.0000e+00
       21 -1    0    0  505  503 -0.0000000000e+00 -0.0000000000e+00 -1.5100847446e+03 1.5100847446e+03 0.0000000000e+00 0.0000e+00 -1.0000e+00
        6  1    1    2  501    0 +5.4997428544e+01 -6.0967030148e+01 +2.7486983582e+02 3.3499869038e+02 1.7300000000e+02 0.0000e+00 1.0000e+00
       -6  1    1    2    0  503 -1.0845829636e+02 +4.2022320904e+01 +3.2179124611e+02 3.8341581028e+02 1.7300000000e+02 0.0000e+00 -1.0000e+00
       21  1    1    2  504  502 +2.5000428928e+01 -1.7579304644e+01 -3.8977347887e+02 3.9096984312e+02 0.0000000000e+00 0.0000e+00 1.0000e+00
       21  1    1    2  505  504 +2.8460438892e+01 +3.6524013888e+01 -1.0583301581e+03 1.0593425903e+03 0.0000000000e+00 0.0000e+00 -1.0000e+00
<mgrwt>
<rscale>  4 0.19803680E+03</rscale>
<asrwt>0</asrwt>
<pdfrwt beam="1">  1       21 0.10132957E+00 0.19803680E+03</pdfrwt>
<pdfrwt beam="2">  1       21 0.23232073E+00 0.19803680E+03</pdfrwt>
<totfact> 0.66812837E+01</totfact>
</mgrwt>
</event>
<event>
 6      1 +2.5196650e+02 2.32956300e+02 7.54677100e-03 9.49153200e-02
       21 -1    0    0  505  502 +0.0000000000e+00 +0.0000000000e+00 +3.6918769974e+02 3.6918769974e+02 0.0000000000e+00 0.0000e+00 -1.0000e+00
       21 -1    0    0  501  503 -0.0000000000e+00 -0.0000000000e+00 -6.6832731944e+02 6.6832731944e+02 0.0000000000e+00 0.0000e+00 -1.0000e+00
        6  1    1    2  501    0 +7.6134896590e+01 -1.8006214464e+02 -5.4059207263e+01 2.6659012791e+02 1.7300000000e+02 0.0000e+00 -1.0000e+00
       -6  1    1    2    0  502 -1.2921653281e+01 +1.4831413299e+02 -2.7784751500e+02 3.5957237486e+02 1.7300000000e+02 0.0000e+00 -1.0000e+00
       21  1    1    2  504  503 -2.0975005077e+01 -1.4477337282e+01 -1.8398256935e+02 1.8573941412e+02 0.0000000000e+00 0.0000e+00 -1.0000e+00
       21  1    1    2  505  504 -4.2238238232e+01 +4.6225348934e+01 +2.1674967191e+02 2.2561310229e+02 0.0000000000e+00 0.0000e+00 -1.0000e+00
<mgrwt>
<rscale>  4 0.23295632E+03</rscale>
<asrwt>0</asrwt>
<pdfrwt beam="1">  1       21 0.56798108E-01 0.23295632E+03</pdfrwt>
<pdfrwt beam="2">  1       21 0.10281959E+00 0.23295632E+03</pdfrwt>
<totfact> 0.21635771E+03</totfact>
</mgrwt>
</event>
<event>
 6      1 +2.5196650e+02 1.88489900e+02 7.54677100e-03 9.49153200e-02
       21 -1    0    0  504  502 +0.0000000000e+00 +0.0000000000e+00 +6.9700287057e+01 6.9700287057e+01 0.0000000000e+00 0.0000e+00 -1.0000e+00
       21 -1    0    0  501  503 -0.0000000000e+00 -0.0000000000e+00 -1.0538147256e+03 1.0538147256e+03 0.0000000000e+00 0.0000e+00 1.0000e+00
        6  1    1    2  501    0 -7.3877365546e+01 -6.4424990130e+01 -6.1928630289e+02 6.5042522202e+02 1.7300000000e+02 0.0000e+00 1.0000e+00
       -6  1    1    2    0  505 +2.2604270540e+01 +1.5583885589e+01 -2.0850637350e+02 2.7231914793e+02 1.7300000000e+02 0.0000e+00 -1.0000e+00
       21  1    1    2  504  503 +5.9439331031e+01 -6.0206860892e+00 -1.2118589026e+02 1.3511218573e+02 0.0000000000e+00 0.0000e+00 1.0000e+00
       21  1    1    2  505  502 -8.1662360248e+00 +5.4861790630e+01 -3.5135871931e+01 6.5658457020e+01 0.0000000000e+00 0.0000e+00 -1.0000e+00
<mgrwt>
<rscale>  4 0.18848994E+03</rscale>
<asrwt>0</asrwt>
<pdfrwt beam="1">  1       21 0.10723122E-01 0.18848994E+03</pdfrwt>
<pdfrwt beam="2">  1       21 0.16212533E+00 0.18848994E+03</pdfrwt>
<totfact> 0.17467626E+04</totfact>
</mgrwt>
</event>
<event>
 6      1 +2.5196650e+02 2.04002600e+02 7.54677100e-03 1.14954000e-01
       21 -1    0    0  504  502 +0.0000000000e+00 +0.0000000000e+00 +2.9947421500e+02 2.9947421500e+02 0.0000000000e+00 0.0000e+00 1.0000e+00
       21 -1    0    0  502  503 -0.0000000000e+00 -0.0000000000e+00 -7.1776324011e+02 7.1776324011e+02 0.0000000000e+00 0.0000e+00 -1.0000e+00
        6  1    1    2  501    0 +2.2139768215e+01 -1.3281309136e+02 -2.9973731549e+02 3.7135016476e+02 1.7300000000e+02 0.0000e+00 1.0000e+00
       -6  1    1    2    0  503 +9.5774364887e+01 +7.1669591833e+01 -3.2961308500e+02 3.9100261529e+02 1.7300000000e+02 0.0000e+00 -1.0000e+00
       21  1    1    2  504  505 -7.4386303552e+01 +1.9186761371e+01 +8.1989295010e+01 1.1235523336e+02 0.0000000000e+00 0.0000e+00 1.0000e+00
       21  1    1    2  505  501 -4.3527829550e+01 +4.1956738153e+01 +1.2907208036e+02 1.4252944170e+02 0.0000000000e+00 0.0000e+00 1.0000e+00
<mgrwt>
<rscale>  4 0.20400255E+03</rscale>
<asrwt>0</asrwt>
<pdfrwt beam="1">  1       21 0.46072957E-01 0.20400255E+03</pdfrwt>
<pdfrwt beam="2">  1       21 0.11042511E+00 0.20400255E+03</pdfrwt>
<totfact> 0.28925053E+03</totfact>
</mgrwt>
</event>
<event>
 6      1 +2.5196650e+02 2.23733700e+02 7.54677100e-03 9.28652600e-02
       21 -1    0    0  503  502 +0.0000000000e+00 +0.0000000000e+00 +1.5163339705e+03 1.5163339705e+03 0.0000000000e+00 0.0000e+00 1.0000e+00
       21 -1    0    0  504  503 -0.0000000000e+00 -0.0000000000e+00 -1.0550930356e+02 1.0550930356e+02 0.0000000000e+00 0.0000e+00 1.0000e+00
        6  1    1    2  501    0 -7.4067393441e+01 -1.9885381156e+01 +2.8199063865e+02 3.3960142438e+02 1.7300000000e+02 0.0000e+00 1.0000e+00
       -6  1    1    2    0  502 +1.7360198466e+02 -1.4387247125e+01 +1.1021963135e+03 1.1292078442e+03 1.7300000000e+02 0.0000e+00 1.0000e+00
       21  1    1    2  504  505 +1.8696111932e+01 -7.1200130708e+00 -1.0208870469e+01 2.2460191979e+01 0.0000000000e+00 0.0000e+00 1.0000e+00
       21  1    1    2  505  501 -1.1823070315e+02 +4.1392641352e+01 +3.6846585269e+01 1.3057381350e+02 0.0000000000e+00 0.0000e+00 1.0000e+00
<mgrwt>
<rscale>  4 0.22373368E+03</rscale>
<asrwt>0</asrwt>
<pdfrwt beam="1">  1       21 0.23328213E+00 0.22373368E+03</pdfrwt>
<pdfrwt beam="2">  1       21 0.16232202E-01 0.22373368E+03</pdfrwt>
<totfact> 0.27499802E+03</totfact>
</mgrwt>
</event>
<event>
 6      1 +2.5196650e+02 2.66254200e+02 7.54677100e-03 1.09711200e-01
       21 -1    0    0  501  502 +0.0000000000e+00 +0.0000000000e+00 +1.6348951580e+02 1.6348951580e+02 0.0000000000e+00 0.0000e+00 1.0000e+00
       21 -1    0    0  505  503 -0.0000000000e+00 -0.0000000000e+00 -8.1392434842e+02 8.1392434842e+02 0.0000000000e+00 0.0000e+00 -1.0000e+00
        6  1    1    2  501    0 +2.0079188562e+02 +8.5063723364e+00 -4.4343844556e+02 5.1667823130e+02 1.7300000000e+02 0.0000e+00 -1.0000e+00
       -6  1    1    2    0  503 -2.0037689308e+02 +1.0366866124e+02 -1.6816679059e+02 3.3031372975e+02 1.7300000000e+02 0.0000e+00 1.0000e+00
       21  1    1    2  504  502 -2.2710183450e+01 -2.2472521638e+01 -7.4249668155e+00 3.2800865740e+01 0.0000000000e+00 0.0000e+00 1.0000e+00
       21  1    1    2  505  504 +2.2295190904e+01 -8.9702511937e+01 -3.1404629647e+01 9.7621037428e+01 0.0000000000e+00 0.0000e+00 1.0000e+00
<mgrwt>
<rscale>  4 0.26625424E+03</rscale>
<asrwt>0</asrwt>
<pdfrwt beam="1">  1       21 0.25152233E-01 0.26625424E+03</pdfrwt>
<pdfrwt beam="2">  1       21 0.12521913E+00 0.26625424E+03</pdfrwt>
<totfact> 0.67662225E+03</totfact>
</mgrwt>
</event>
<event>
 6      1 +2.5196650e+02 2.25627900e+02 7.54677100e-03 9.49153200e-02
       21 -1    0    0  505  502 +0.0000000000e+00 +0.0000000000e+00 +7.6765271253e+02 7.6765271253e+02 0.0000000000e+00 0.0000e+00 1.0000e+00
       21 -1    0    0  504  503 -0.0000000000e+00 -0.0000000000e+00 -1.7637663459e+02 1.7637663459e+02 0.0000000000e+00 0.0000e+00 -1.0000e+00
        6  1    1    2  501    0 +5.8381324250e+01 -8.0471663100e+00 +1.6313814812e+02 2.4498202236e+02 1.7300000000e+02 0.0000e+00 -1.0000e+00
       -6  1    1    2    0  502 -2.1022652089e+02 +1.3268456826e+02 +1.3272701185e+02 3.3067483184e+02 1.7300000000e+02 0.0000e+00 -1.0000e+00
       21  1    1    2  504  501 +4.2799861404e+01 -3.4590587872e+01 +1.9595078921e+01 5.8414929800e+01 0.0000000000e+00 0.0000e+00 -1.0000e+00
       21  1    1    2  505  503 +1.0904533523e+02 -9.0046814075e+01 +2.7581583906e+02 3.0995756312e+02 0.0000000000e+00 0.0000e+00 1.0000e+00
<mgrwt>
<rscale>  4 0.22562793E+03</rscale>
<asrwt>0</asrwt>
<pdfrwt beam="1">  1       21 0.11810042E+00 0.22562793E+03</pdfrwt>
<pdfrwt beam="2">  1       21 0.27134867E-01 0.22562793E+03</pdfrwt>
<totfact> 0.69420323E+03</totfact>
</mgrwt>
</event>
<event>
 6      1 +2.5196650e+02 2.36104800e+02 7.54677100e-03 1.13287100e-01
       21 -1    0    0  504  502 +0.0000000000e+00 +0.0000000000e+00 +3.6057538761e+02 3.6057538761e+02 0.0000000000e+00 0.0000e+00 -1.0000e+00
       21 -1    0    0  505  503 -0.0000000000e+00 -0.0000000000e+00 -7.7094450744e+02 7.7094450744e+02 0.0000000000e+00 0.0000e+00 -1.0000e+00
        6  1    1    2  501    0 +8.4749816477e+01 -1.5303459153e+02 -4.2324086951e+02 4.8955485006e+02 1.7300000000e+02 0.0000e+00 -1.0000e+00
       -6  1    1    2    0  503 -1.1203955739e+02 +9.1462660410e+01 -1.8512717692e+02 2.9175221045e+02 1.7300000000e+02 0.0000e+00 -1.0000e+00
       21  1    1    2  504  501 +4.2389754776e+01 +3.7022490491e+01 -6.4805315372e+01 8.5832890040e+01 0.0000000000e+00 0.0000e+00 -1.0000e+00
       21  1    1    2  505  502 -1.5100013862e+01 +2.4549440627e+01 +2.6280424197e+02 2.6437994449e+02 0.0000000000e+00 0.0000e+00 -1.0000e+00
<mgrwt>
<rscale>  4 0.23610480E+03</rscale>
<asrwt>0</asrwt>
<pdfrwt beam="1">  1       21 0.55473136E-01 0.23610480E+03</pdfrwt>
<pdfrwt beam="2">  1       21 0.11860685E+00 0.23610480E+03</pdfrwt>
<totfact> 0.16025503E+03</totfact>
</mgrwt>
</event>
<event>
 6      1 +2.5196650e+02 2.38240100e+02 7.54677100e-03 1.09711200e-01
       21 -1    0    0  505  502 +0.0000000000e+00 +0.0000000000e+00 +1.8303511826e+02 1.8303511826e+02 0.0000000000e+00 0.0000e+00 -1.0000e+00
       21 -1    0    0  504  503 -0.0000000000e+00 -0.0000000000e+00 -1.0196800316e+03 1.0196800316e+03 0.0000000000e+00 0.0000e+00 1.0000e+00
        6  1    1    2  501    0 +1.0430805415e+02 +4.3835302237e+01 -3.2878240338e+02 3.8836654420e+02 1.7300000000e+02 0.0000e+00 1.0000e+00
       -6  1    1    2    0  503 -2.1279382525e+02 -5.5317938154e+01 -5.6957522847e+02 6.3457562767e+02 1.7300000000e+02 0.0000e+00 1.0000e+00
       21  1    1    2  504  502 -2.8937548103e+01 -7.6095525446e+00 +7.7829500943e+00 3.0917006523e+01 0.0000000000e+00 0.0000e+00 -1.0000e+00
       21  1    1    2  505  501 +1.3742331920e+02 +1.9092188461e+01 +5.3929768416e+01 1.4885597147e+02 0.0000000000e+00 0.0000e+00 -1.0000e+00
<mgrwt>
<rscale>  4 0.23824007E+03</rscale>
<asrwt>0</asrwt>
<pdfrwt beam="1">  1       21 0.28159249E-01 0.23824007E+03</pdfrwt>
<pdfrwt beam="2">  1       21 0.15687385E+00 0.23824007E+03</pdfrwt>
<totfact> 0.30780408E+03</totfact>
</mgrwt>
</event>
<event>
 6      1 +2.5196650e+02 1.92168500e+02 7.54677100e-03 9.49153200e-02
       21 -1    0    0  505  502 +0.0000000000e+00 +0.0000000000e+00 +7.4978901885e+01 7.4978901885e+01 0.0000000000e+00 0.0000e+00 1.0000e+00
       21 -1    0    0  501  503 -0.0000000000e+00 -0.0000000000e+00 -8.6939472110e+02 8.6939472110e+02 0.0000000000e+00 0.0000e+00 1.0000e+00
        6  1    1    2  501    0 +7.7051719122e+01 +3.4568084873e+01 -3.5955012812e+02 4.0784459607e+02 1.7300000000e+02 0.0000e+00 1.0000e+00
       -6  1    1    2    0  502 -8.7141226693e+01 +1.9406601000e+01 -1.5518423446e+02 2.4896055145e+02 1.7300000000e+02 0.0000e+00 1.0000e+00
       21  1    1    2  504  503 +4.6430940743e+00 -2.3943418304e+01 -2.1107340134e+02 2.1247782557e+02 0.0000000000e+00 0.0000e+00 1.0000e+00
       21  1    1    2  505  504 +5.4464134969e+00 -3.0031267570e+01 -6.8608055288e+01 7.5090649899e+01 0.0000000000e+00 0.0000e+00 1.0000e+00
<mgrwt>
<rscale>  4 0.19216848E+03</rscale>
<asrwt>0</asrwt>
<pdfrwt beam="1">  1       21 0.11535216E-01 0.19216848E+03</pdfrwt>
<pdfrwt beam="2">  1       21 0.13375303E+00 0.19216848E+03</pdfrwt>
<totfact> 0.25337074E+04</totfact>
</mgrwt>
</event>
<event>
 6      1 +2.5196650e+02 1.85985000e+02 7.54677100e-03 1.16128000e-01
       21 -1    0    0  501  502 +0.0000000000e+00 +0.0000000000e+00 +1.7017961408e+02 1.7017961408e+02 0.0000000000e+00 0.0000e+00 -1.0000e+00
       21 -1    0    0  504  503 -0.0000000000e+00 -0.0000000000e+00 -3.3796728949e+02 3.3796728949e+02 0.0000000000e+00 0.0000e+00 -1.0000e+00
        6  1    1    2  501    0 -7.0937317633e+01 -3.3522279318e+01 +5.0554320329e+01 1.9657208741e+02 1.7300000000e+02 0.0000e+00 -1.0000e+00
       -6  1    1    2    0  503 +2.8959263471e+01 +3.1046638927e+01 -1.6418656372e+02 2.4225763236e+02 1.7300000000e+02 0.0000e+00 -1.0000e+00
       21  1    1    2  504  505 +2.0603279133e+01 -2.2084395405e+00 -3.2409059527e+01 3.8467121749e+01 0.0000000000e+00 0.0000e+00 -1.0000e+00
       21  1    1    2  505  502 +2.1374775029e+01 +4.6840799315e+00 -2.1746372497e+01 3.0850062060e+01 0.0000000000e+00 0.0000e+00 -1.0000e+00
<mgrwt>
<rscale>  4 0.18598497E+03</rscale>
<asrwt>0</asrwt>
<pdfrwt beam="1">  1       21 0.26181479E-01 0.18598497E+03</pdfrwt>
<pdfrwt beam="2">  1       21 0.51994968E-01 0.18598497E+03</pdfrwt>
<totfact> 0.48836970E+04</totfact>
</mgrwt>
</event>
<event>
 6      1 +2.5196650e+02 2.47713400e+02 7.54677100e-03 9.49153200e-02
       21 -1    0    0  505  502 +0.0000000000e+00 +0.0000000000e+00 +3.1449632926e+02 3.1449632926e+02 0.0000000000e+00 0.0000e+00 1.0000e+00
       21 -1    0    0  501  503 -0.0000000000e+00 -0.0000000000e+00 -6.4177948668e+02 6.4177948668e+02 0.0000000000e+00 0.0000e+00 1.0000e+00
        6  1    1    2  501    0 +1.7764326656e+02 -1.9072150392e+01 +7.2530006834e+01 2.5905690295e+02 1.7300000000e+02 0.0000e+00 1.0000e+00
       -6  1    1    2    0  502 +7.8167352851e+01 +1.9047885160e+01 -4.8974880999e+01 1.9697841493e+02 1.7300000000e+02 0.0000e+00 -1.0000e+00
       21  1    1    2  504  503 -8.3720974775e+01 -3.7803361140e+01 -3.0449529443e+02 3.1804980751e+02 0.0000000000e+00 0.0000e+00 1.0000e+00
       21  1    1    2  505  504 -1.7208964463e+02 +3.7827626373e+01 -4.6342988836e+01 1.8219069055e+02 0.0000000000e+00 0.0000e+00 1.0000e+00
<mgrwt>
<rscale>  4 0.22849882E+03</rscale>
<asrwt>0</asrwt>
<pdfrwt beam="1">  1       21 0.48384051E-01 0.24771342E+03</pdfrwt>
<pdfrwt beam="2">  1       21 0.98735306E-01 0.24771342E+03</pdfrwt>
<totfact> 0.33099210E+03</totfact>
</mgrwt>
</event>
<event>
 6      1 +2.5196650e+02 1.84304300e+02 7.54677100e-03 1.06301000e-01
       21 -1    0    0  501  502 +0.0000000000e+00 +0.0000000000e+00 +3.0402049612e+01 3.0402049612e+01 0.0000000000e+00 0.0000e+00 -1.0000e+00
       21 -1    0    0  504  503 -0.0000000000e+00 -0.0000000000e+00 -2.1949244176e+03 2.1949244176e+03 0.0000000000e+00 0.0000e+00 -1.0000e+00
        6  1    1    2  501    0 +4.5280479227e+01 -2.2794647330e+01 -8.2774871553e+02 8.4715220227e+02 1.7300000000e+02 0.0000e+00 -1.0000e+00
       -6  1    1    2    0  503 -6.8542902397e+01 +2.5911256138e+01 -7.1511120997e+02 7.3937985183e+02 1.7300000000e+02 0.0000e+00 -1.0000e+00
       21  1    1    2  504  505 +1.8828272106e+01 -6.3154047370e+01 -4.8504199185e+02 4.8949838752e+02 0.0000000000e+00 0.0000e+00 -1.0000e+00
       21  1    1    2  505  502 +4.4341510635e+00 +6.0037438562e+01 -1.3662045061e+02 1.4929602556e+02 0.0000000000e+00 0.0000e+00 -1.0000e+00
<mgrwt>
<rscale>  4 0.18430429E+03</rscale>
<asrwt>0</asrwt>
<pdfrwt beam="1">  1       21 0.46772374E-02 0.18430429E+03</pdfrwt>
<pdfrwt beam="2">  1       21 0.33768075E+00 0.18430429E+03</pdfrwt>
<totfact> 0.62863222E+03</totfact>
</mgrwt>
</event>
<event>
 6      1 +2.5196650e+02 2.01284900e+02 7.54677100e-03 9.49153200e-02
       21 -1    0    0  505  502 +0.0000000000e+00 +0.0000000000e+00 +3.0058056958e+02 3.0058056958e+02 0.0000000000e+00 0.0000e+00 1.0000e+00
       21 -1    0    0  501  503 -0.0000000000e+00 -0.0000000000e+00 -8.8360879469e+02 8.8360879469e+02 0.0000000000e+00 0.0000e+00 -1.0000e+00
        6  1    1    2  501    0 -9.8315349810e+01 -1.6892894363e+02 -1.4339323011e+02 2.9781456386e+02 1.7300000000e+02 0.0000e+00 1.0000e+00
       -6  1    1    2    0  502 +9.3512178746e+01 -5.0696065066e-01 -2.2694531699e+02 3.0029645600e+02 1.7300000000e+02 0.0000e+00 -1.0000e+00
       21  1    1    2  504  503 -2.2738736835e+01 -4.8285214493e+00 -3.5724045518e+02 3.5799596030e+02 0.0000000000e+00 0.0000e+00 -1.0000e+00
       21  1    1    2  505  504 +2.7541907899e+01 +1.7426442573e+02 +1.4455077717e+02 2.2808238412e+02 0.0000000000e+00 0.0000e+00 1.0000e+00
<mgrwt>
<rscale>  4 0.20128489E+03</rscale>
<asrwt>0</asrwt>
<pdfrwt beam="1">  1       21 0.46243164E-01 0.20128489E+03</pdfrwt>
<pdfrwt beam="2">  1       21 0.13593982E+00 0.20128489E+03</pdfrwt>
<totfact> 0.17149959E+03</totfact>
</mgrwt>
</event>
<event>
 6      1 +2.5196650e+02 5.73059300e+02 7.54677100e-03 1.12691600e-01
       21 -1    0    0  504  502 +0.0000000000e+00 +0.0000000000e+00 +1.3668337749e+03 1.3668337749e+03 0.0000000000e+00 0.0000e+00 1.0000e+00
       21 -1    0    0  501  503 -0.0000000000e+00 -0.0000000000e+00 -3.1881864352e+02 3.1881864352e+02 0.0000000000e+00 0.0000e+00 1.0000e+00
        6  1    1    2  501    0 -1.8716475510e+02 -1.3642626902e+02 +1.0963000319e+02 3.0917714992e+02 1.7300000000e+02 0.0000e+00 -1.0000e+00
       -6  1    1    2    0  505 -1.9647689595e+02 +1.0631616753e+01 -4.1963043402e+01 2.6534147608e+02 1.7300000000e+02 0.0000e+00 1.0000e+00
       21  1    1    2  504  503 +3.6264300182e+02 +2.2155226051e+02 +7.9903316266e+02 9.0501345069e+02 0.0000000000e+00 0.0000e+00 1.0000e+00
       21  1    1    2  505  502 +2.0998649240e+01 -9.5757608241e+01 +1.8131500893e+02 2.0612034172e+02 0.0000000000e+00 0.0000e+00 -1.0000e+00
<mgrwt>
<rscale>  4 0.57305927E+03</rscale>
<asrwt>0</asrwt>
<pdfrwt beam="1">  1       21 0.21028211E+00 0.57305927E+03</pdfrwt>
<pdfrwt beam="2">  1       21 0.49049023E-01 0.57305927E+03</pdfrwt>
<totfact> 0.35395881E+02</totfact>
</mgrwt>
</event>
<event>
 6      1 +2.5196650e+02 1.81261500e+02 7.54677100e-03 1.16726300e-01
       21 -1    0    0  504  502 +0.0000000000e+00 +0.0000000000e+00 +1.2309232618e+03 1.2309232618e+03 0.0000000000e+00 0.0000e+00 1.0000e+00
       21 -1    0    0  505  503 -0.0000000000e+00 -0.0000000000e+00 -1.1815117995e+02 1.1815117995e+02 0.0000000000e+00 0.0000e+00 1.0000e+00
        6  1    1    2  501    0 -3.0257054273e+01 +3.9119539674e+01 +1.0209178740e+03 1.0366523685e+03 1.7300000000e+02 0.0000e+00 1.0000e+00
       -6  1    1    2    0  503 +1.1087146909e+02 -3.8528593069e+01 +5.4872619719e+01 2.1614101771e+02 1.7300000000e+02 0.0000e+00 1.0000e+00
       21  1    1    2  504  501 -3.6969451229e+01 +1.7970716870e+01 +2.1507971626e+01 4.6392670029e+01 0.0000000000e+00 0.0000e+00 1.0000e+00
       21  1    1    2  505  502 -4.3644963589e+01 -1.8561663475e+01 +1.5473616490e+01 4.9888385472e+01 0.0000000000e+00 0.0000e+00 1.0000e+00
<mgrwt>
<rscale>  4 0.18126149E+03</rscale>
<asrwt>0</asrwt>
<pdfrwt beam="1">  1       21 0.18937280E+00 0.18126149E+03</pdfrwt>
<pdfrwt beam="2">  1       21 0.18177105E-01 0.18126149E+03</pdfrwt>
<totfact> 0.43883873E+03</totfact>
</mgrwt>
</event>
<event>
 6      1 +2.5196650e+02 2.63225300e+02 7.54677100e-03 9.28652600e-02
       21 -1    0    0  501  502 +0.0000000000e+00 +0.0000000000e+00 +2.5897242376e+02 2.5897242376e+02 0.0000000000e+00 0.0000e+00 -1.0000e+00
       21 -1    0    0  505  503 -0.0000000000e+00 -0.0000000000e+00 -4.1238364458e+02 4.1238364458e+02 0.0000000000e+00 0.0000e+00 -1.0000e+00
        6  1    1    2  501    0 -6.9358514735e+01 +1.8050587212e+02 -4.2427532017e+01 2.6291076225e+02 1.7300000000e+02 0.0000e+00 -1.0000e+00
       -6  1    1    2    0  504 +6.6050274680e+01 -1.9175693725e+02 +8.2063424032e-01 2.6657650911e+02 1.7300000000e+02 0.0000e+00 -1.0000e+00
       21  1    1    2  504  503 +2.8186312133e+01 -2.1153840579e+01 -8.7505390128e+01 9.4335287483e+01 0.0000000000e+00 0.0000e+00 -1.0000e+00
       21  1    1    2  505  502 -2.4878072079e+01 +3.2404905713e+01 -2.4298932915e+01 4.7533509501e+01 0.0000000000e+00 0.0000e+00 1.0000e+00
<mgrwt>
<rscale>  4 0.26322533E+03</rscale>
<asrwt>0</asrwt>
<pdfrwt beam="1">  1       21 0.39841912E-01 0.26322533E+03</pdfrwt>
<pdfrwt beam="2">  1       21 0.63443637E-01 0.26322533E+03</pdfrwt>
<totfact> 0.13394819E+04</totfact>
</mgrwt>
</event>
<event>
 6      1 +2.5196650e+02 2.48009700e+02 7.54677100e-03 1.16558800e-01
       21 -1    0    0  503  502 +0.0000000000e+00 +0.0000000000e+00 +7.7288144601e+02 7.7288144601e+02 0.0000000000e+00 0.0000e+00 -1.0000e+00
       21 -1    0    0  504  503 -0.0000000000e+00 -0.0000000000e+00 -1.8100487232e+02 1.8100487232e+02 0.0000000000e+00 0.0000e+00 1.0000e+00
        6  1    1    2  501    0 +2.9686152590e+00 -1.7688231525e+02 +1.3010536039e+01 2.4777901479e+02 1.7300000000e+02 0.0000e+00 1.0000e+00
       -6  1    1    2    0  505 +7.3708228583e+01 +1.8350101484e+02 +3.8867535906e+02 4.6915142561e+02 1.7300000000e+02 0.0000e+00 -1.0000e+00
       21  1    1    2  504  501 -4.9340441463e+01 +1.1664682221e+01 +7.4088459628e+00 5.1238998561e+01 0.0000000000e+00 0.0000e+00 -1.0000e+00
       21  1    1    2  505  502 -2.7336402380e+01 -1.8283381815e+01 +1.8278183262e+02 1.8571687937e+02 0.0000000000e+00 0.0000e+00 -1.0000e+00
<mgrwt>
<rscale>  4 0.24800967E+03</rscale>
<asrwt>0</asrwt>
<pdfrwt beam="1">  1       21 0.11890484E+00 0.24800967E+03</pdfrwt>
<pdfrwt beam="2">  1       21 0.27846904E-01 0.24800967E+03</pdfrwt>
<totfact> 0.63983686E+03</totfact>
</mgrwt>
</event>
<event>
 6      1 +2.5196650e+02 2.55243900e+02 7.54677100e-03 9.49153200e-02
       21 -1    0    0  505  502 +0.0000000000e+00 +0.0000000000e+00 +2.3600585410e+02 2.3600585410e+02 0.0000000000e+00 0.0000e+00 1.0000e+00
       21 -1    0    0  504  503 -0.0000000000e+00 -0.0000000000e+00 -1.4565565583e+03 1.4565565583e+03 0.0000000000e+00 0.0000e+00 1.0000e+00
        6  1    1    2  501    0 -1.5184862515e+02 -8.2121156191e+01 -7.6510471086e+02 8.0319120253e+02 1.7300000000e+02 0.0000e+00 1.0000e+00
       -6  1    1    2    0  502 +2.1048429344e+02 +6.5762568265e+01 -2.9857686913e+02 4.0951861978e+02 1.7300000000e+02 0.0000e+00 1.0000e+00
       21  1    1    2  504  501 -1.8765946595e+01 +2.6954435652e+01 -3.1485806277e+02 3.1656642596e+02 0.0000000000e+00 0.0000e+00 -1.0000e+00
       21  1    1    2  505  503 -3.9869721694e+01 -1.0595847725e+01 +1.5798893855e+02 1.6328616414e+02 0.0000000000e+00 0.0000e+00 1.0000e+00
<mgrwt>
<rscale>  4 0.25524387E+03</rscale>
<asrwt>0</asrwt>
<pdfrwt beam="1">  1       21 0.36308592E-01 0.25524387E+03</pdfrwt>
<pdfrwt beam="2">  1       21 0.22408563E+00 0.25524387E+03</pdfrwt>
<totfact> 0.64953190E+02</totfact>
</mgrwt>
</event>
<event>
 6      1 +2.5196650e+02 3.20558100e+02 7.54677100e-03 1.11396600e-01
       21 -1    0    0  504  502 +0.0000000000e+00 +0.0000000000e+00 +5.1468598287e+02 5.1468598287e+02 0.0000000000e+00 0.0000e+00 1.0000e+00
       21 -1    0    0  502  503 -0.0000000000e+00 -0.0000000000e+00 -1.3137491247e+03 1.3137491247e+03 0.0000000000e+00 0.0000e+00 1.0000e+00
        6  1    1    2  501    0 -3.8138426103e+01 +1.0120753633e+01 -3.0678342605e+02 3.5440378059e+02 1.7300000000e+02 0.0000e+00 -1.0000e+00
       -6  1    1    2    0  503 -1.3876451515e+02 -2.1499484757e+02 -9.1108372029e+02 9.6201918927e+02 1.7300000000e+02 0.0000e+00 1.0000e+00
       21  1    1    2  504  505 +4.3541413740e+01 +1.2120692272e+02 +2.4976389182e+02 2.8101418912e+02 0.0000000000e+00 0.0000e+00 1.0000e+00
       21  1    1    2  505  501 +1.3336152752e+02 +8.3667171214e+01 +1.6904011267e+02 2.3099794859e+02 0.0000000000e+00 0.0000e+00 1.0000e+00
<mgrwt>
<rscale>  4 0.27649972E+03</rscale>
<asrwt>0</asrwt>
<pdfrwt beam="1">  1       21 0.79182460E-01 0.32055809E+03</pdfrwt>
<pdfrwt beam="2">  1       21 0.20211525E+00 0.32055809E+03</pdfrwt>
<totfact> 0.16024274E+02</totfact>
</mgrwt>
</event>
<event>
 6      1 +2.5196650e+02 1.95849000e+02 7.54677100e-03 9.49153200e-02
       21 -1    0    0  504  502 +0.0000000000e+00 +0.0000000000e+00 +2.2839533935e+02 2.2839533935e+02 0.0000000000e+00 0.0000e+00 1.0000e+00
       21 -1    0    0  501  503 -0.0000000000e+00 -0.0000000000e+00 -9.3224874628e+02 9.3224874628e+02 0.0000000000e+00 0.0000e+00 1.0000e+00
        6  1    1    2  501    0 -7.2480779508e+01 +5.4461950427e+00 -6.0071524222e+02 6.2934166132e+02 1.7300000000e+02 0.0000e+00 -1.0000e+00
       -6  1    1    2    0  505 +1.9141481503e+02 -1.9391060792e+01 -1.3523562583e+02 2.9194745956e+02 1.7300000000e+02 0.0000e+00 -1.0000e+00
       21  1    1    2  504  503 +1.4390657872e+00 -2.4056752171e+01 -7.1881977147e+01 7.5814357967e+01 0.0000000000e+00 0.0000e+00 1.0000e+00
       21  1    1    2  505  502 -1.2037310131e+02 +3.8001617921e+01 +1.0397943827e+02 1.6354060678e+02 0.0000000000e+00 0.0000e+00 1.0000e+00
<mgrwt>
<rscale>  4 0.19584902E+03</rscale>
<asrwt>0</asrwt>
<pdfrwt beam="1">  1       21 0.35137745E-01 0.19584902E+03</pdfrwt>
<pdfrwt beam="2">  1       21 0.14342288E+00 0.19584902E+03</pdfrwt>
<totfact> 0.26167882E+03</totfact>
</mgrwt>
</event>
<event>
 6      1 +2.5196650e+02 1.77264900e+02 7.54677100e-03 1.16321900e-01
       21 -1    0    0  504  502 +0.0000000000e+00 +0.0000000000e+00 +1.1006876681e+03 1.1006876681e+03 0.0000000000e+00 0.0000e+00 -1.0000e+00
       21 -1    0    0  501  503 -0.0000000000e+00 -0.0000000000e+00 -1.1316823739e+02 1.1316823739e+02 0.0000000000e+00 0.0000e+00 1.0000e+00
        6  1    1    2  501    0 -6.0363938855e+01 -1.2394482956e+02 +3.2831907373e+02 3.9588955538e+02 1.7300000000e+02 0.0000e+00 -1.0000e+00
       -6  1    1    2    0  502 -6.0495526800e+01 -1.0431390102e+01 +5.5142010145e+02 5.8117265158e+02 1.7300000000e+02 0.0000e+00 -1.0000e+00
       21  1    1    2  504  505 +1.3938000105e+02 +9.9246241305e+01 +8.6024179006e+01 1.9151177635e+02 0.0000000000e+00 0.0000e+00 1.0000e+00
       21  1    1    2  505  503 -1.8520535396e+01 +3.5129978357e+01 +2.1756076555e+01 4.5281922197e+01 0.0000000000e+00 0.0000e+00 1.0000e+00
<mgrwt>
<rscale>  4 0.17726487E+03</rscale>
<asrwt>0</asrwt>
<pdfrwt beam="1">  1       21 0.16933656E+00 0.17726487E+03</pdfrwt>
<pdfrwt beam="2">  1       21 0.17410499E-01 0.17726487E+03</pdfrwt>
<totfact> 0.65253961E+03</totfact>
</mgrwt>
</event>
<event>
 6      1 +2.5196650e+02 1.86399500e+02 7.54677100e-03 1.06301000e-01
       21 -1    0    0  505  502 +0.0000000000e+00 +0.0000000000e+00 +1.1351705631e+02 1.1351705631e+02 0.0000000000e+00 0.0000e+00 -1.0000e+00
       21 -1    0    0  504  503 -0.0000000000e+00 -0.0000000000e+00 -6.0082016932e+02 6.0082016932e+02 0.0000000000e+00 0.0000e+00 -1.0000e+00
        6  1    1    2  501    0 +8.3591695404e+01 -4.8017568544e+01 -3.8716336881e+02 4.3487668663e+02 1.7300000000e+02 0.0000e+00 -1.0000e+00
       -6  1    1    2    0  503 -4.8911386094e+01 -7.1175912185e+00 -5.4398404651e+01 1.8796587516e+02 1.7300000000e+02 0.0000e+00 -1.0000e+00
       21  1    1    2  504  502 -1.4107782013e+01 +3.1881353092e+01 -4.9151143324e+01 6.0260145024e+01 0.0000000000e+00 0.0000e+00 1.0000e+00
       21  1    1    2  505  501 -2.0572527297e+01 +2.3253806670e+01 +3.4098037715e+00 3.1234518818e+01 0.0000000000e+00 0.0000e+00 1.0000e+00
<mgrwt>
<rscale>  4 0.18639955E+03</rscale>
<asrwt>0</asrwt>
<pdfrwt beam="1">  1       21 0.17464163E-01 0.18639955E+03</pdfrwt>
<pdfrwt beam="2">  1       21 0.92433872E-01 0.18639955E+03</pdfrwt>
<totfact> 0.29418078E+04</totfact>
</mgrwt>
</event>
<event>
 6      1 +2.5196650e+02 2.20159900e+02 7.54677100e-03 1.12691600e-01
       21 -1    0    0  503  502 +0.0000000000e+00 +0.0000000000e+00 +6.0940517103e+01 6.0940517103e+01 0.0000000000e+00 0.0000e+00 -1.0000e+00
       21 -1    0    0  501  503 -0.0000000000e+00 -0.0000000000e+00 -1.3731928959e+03 1.3731928959e+03 0.0000000000e+00 0.0000e+00 -1.0000e+00
        6  1    1    2  501    0 -1.3848149525e+02 -8.5195466225e+01 -8.0453699800e+02 8.3883500949e+02 1.7300000000e+02 0.0000e+00 -1.0000e+00
       -6  1    1    2    0  504 +8.9846281684e+01 +5.4097782343e+01 -4.8346581646e+02 5.2408693942e+02 1.7300000000e+02 0.0000e+00 -1.0000e+00
       21  1    1    2  504  505 +2.1486296450e+01 +3.3139667066e+01 -1.1413295998e+01 4.1111577371e+01 0.0000000000e+00 0.0000e+00 -1.0000e+00
       21  1    1    2  505  502 +2.7148917120e+01 -2.0419831833e+00 -1.2836268346e+01 3.0099886730e+01 0.0000000000e+00 0.0000e+00 -1.0000e+00
<mgrwt>
<rscale>  4 0.22015992E+03</rscale>
<asrwt>0</asrwt>
<pdfrwt beam="1">  1       21 0.93754649E-02 0.22015992E+03</pdfrwt>
<pdfrwt beam="2">  1       21 0.21126043E+00 0.22015992E+03</pdfrwt>
<totfact> 0.10126342E+04</totfact>
</mgrwt>
</event>
<event>
 6      1 +2.5196650e+02 1.98259200e+02 7.54677100e-03 1.14954000e-01
       21 -1    0    0  504  502 +0.0000000000e+00 +0.0000000000e+00 +4.3219129128e+02 4.3219129128e+02 0.0000000000e+00 0.0000e+00 1.0000e+00
       21 -1    0    0  502  503 -0.0000000000e+00 -0.0000000000e+00 -2.4549511214e+02 2.4549511214e+02 0.0000000000e+00 0.0000e+00 1.0000e+00
        6  1    1    2  501    0 +9.7460243089e+01 +1.0189182634e+02 -7.4088193065e+01 2.3515633866e+02 1.7300000000e+02 0.0000e+00 1.0000e+00
       -6  1    1    2    0  503 +9.8295822304e+00 -4.8856977178e+01 +4.9622070884e+01 1.8674842657e+02 1.7300000000e+02 0.0000e+00 1.0000e+00
       21  1    1    2  504  505 -5.8977269811e+01 +1.2047938769e+01 +6.4595639941e+01 8.8295344624e+01 0.0000000000e+00 0.0000e+00 1.0000e+00
       21  1    1    2  505  501 -4.8312555509e+01 -6.5082787935e+01 +1.4656666138e+02 1.6748629357e+02 0.0000000000e+00 0.0000e+00 1.0000e+00
<mgrwt>
<rscale>  4 0.19825921E+03</rscale>
<asrwt>0</asrwt>
<pdfrwt beam="1">  1       21 0.66490968E-01 0.19825921E+03</pdfrwt>
<pdfrwt beam="2">  1       21 0.37768479E-01 0.19825921E+03</pdfrwt>
<totfact> 0.13973443E+04</totfact>
</mgrwt>
</event>
</LesHouchesEvents>
