<event>
 4    1  0.6020852E+000  0.1000000E+03  0.7546771E-02  0.1280296E+00
         21   -1    0    0  501  502  0.00000000000E+00  0.00000000000E+00  0.99021868743E+02  0.99021868743E+02  0.00000000000E+00 0.  1.
         21   -1    0    0  502  503 -0.00000000000E+00 -0.00000000000E+00 -0.82300543091E+03  0.82300543091E+03  0.00000000000E+00 0.  1.
          6    1    1    2  501    0  0.17867714236E+03 -0.37661247665E+02 -0.57998981748E+03  0.63218753480E+03  0.17300000000E+03 0.  1.
         -6    1    1    2    0  503 -0.17867714236E+03  0.37661247665E+02 -0.14399374468E+03  0.28983976485E+03  0.17300000000E+03 0.  1.
</event>
<event>
 4    1  0.6020852E+000  0.1000000E+03  0.7546771E-02  0.1280296E+00
         21   -1    0    0  501  502  0.00000000000E+00  0.00000000000E+00  0.24409125107E+03  0.24409125107E+03  0.00000000000E+00 0. -1.
         21   -1    0    0  502  503 -0.00000000000E+00 -0.00000000000E+00 -0.15710450006E+03  0.15710450006E+03  0.00000000000E+00 0. -1.
          6    1    1    2  501    0 -0.31158152661E+02  0.86293935583E+02  0.44688059429E+02  0.20085690541E+03  0.17300000000E+03 0. -1.
         -6    1    1    2    0  503  0.31158152661E+02 -0.86293935583E+02  0.42298691585E+02  0.20033884572E+03  0.17300000000E+03 0. -1.
</event>
<event>
 4    1  0.6020852E+000  0.1000000E+03  0.7546771E-02  0.1280296E+00
         21   -1    0    0  501  502  0.00000000000E+00  0.00000000000E+00  0.62741560100E+03  0.62741560100E+03  0.00000000000E+00 0. -1.
         21   -1    0    0  502  503 -0.00000000000E+00 -0.00000000000E+00 -0.39865875217E+03  0.39865875217E+03  0.00000000000E+00 0. -1.
          6    1    1    2  501    0  0.15132900886E+03 -0.21144190354E+02  0.56950922274E+03  0.61450573674E+03  0.17300000000E+03 0. -1.
         -6    1    1    2    0  503 -0.15132900886E+03  0.21144190354E+02 -0.34075237390E+03  0.41156861643E+03  0.17300000000E+03 0. -1.
</event>
<event>
 4    1  0.6020852E+000  0.1000000E+03  0.7546771E-02  0.1280296E+00
         21   -1    0    0  501  502  0.00000000000E+00  0.00000000000E+00  0.11979718913E+03  0.11979718913E+03  0.00000000000E+00 0. -1.
         21   -1    0    0  502  503 -0.00000000000E+00 -0.00000000000E+00 -0.39000951613E+03  0.39000951613E+03  0.00000000000E+00 0. -1.
          6    1    1    2  501    0 -0.14028871782E+02  0.43547619730E+02  0.78723987918E+01  0.17912057138E+03  0.17300000000E+03 0. -1.
         -6    1    1    2    0  503  0.14028871782E+02 -0.43547619730E+02 -0.27808472579E+03  0.33068613389E+03  0.17300000000E+03 0. -1.
</event>
<event>
 4    1  0.6020852E+000  0.1000000E+03  0.7546771E-02  0.1280296E+00
         21   -1    0    0  503  502  0.00000000000E+00  0.00000000000E+00  0.52165899775E+02  0.52165899775E+02  0.00000000000E+00 0.  1.
         21   -1    0    0  501  503 -0.00000000000E+00 -0.00000000000E+00 -0.59480259110E+03  0.59480259110E+03  0.00000000000E+00 0. -1.
          6    1    1    2  501    0  0.24688170468E+02 -0.78083914733E+01 -0.30935211872E+03  0.35538459462E+03  0.17300000000E+03 0. -1.
         -6    1    1    2    0  502 -0.24688170468E+02  0.78083914733E+01 -0.23328457260E+03  0.29158389625E+03  0.17300000000E+03 0.  1.
</event>
<event>
 4    1  0.6020852E+000  0.1000000E+03  0.7546771E-02  0.1280296E+00
         21   -1    0    0  503  502  0.00000000000E+00  0.00000000000E+00  0.70721201749E+02  0.70721201749E+02  0.00000000000E+00 0.  1.
         21   -1    0    0  501  503 -0.00000000000E+00 -0.00000000000E+00 -0.12291731427E+04  0.12291731427E+04  0.00000000000E+00 0. -1.
          6    1    1    2  501    0  0.75226321101E+02 -0.13191260509E+03 -0.98534234460E+03  0.10118737425E+04  0.17300000000E+03 0. -1.
         -6    1    1    2    0  502 -0.75226321101E+02  0.13191260509E+03 -0.17310959630E+03  0.28802060187E+03  0.17300000000E+03 0.  1.
</event>
<event>
 4    1  0.6020852E+000  0.1000000E+03  0.7546771E-02  0.1280296E+00
         21   -1    0    0  503  502  0.00000000000E+00  0.00000000000E+00  0.67727878585E+02  0.67727878585E+02  0.00000000000E+00 0.  1.
         21   -1    0    0  501  503 -0.00000000000E+00 -0.00000000000E+00 -0.25330475591E+04  0.25330475591E+04  0.00000000000E+00 0. -1.
          6    1    1    2  501    0  0.15573785687E+03 -0.24449936758E+03 -0.19861173646E+04  0.20146030395E+04  0.17300000000E+03 0. -1.
         -6    1    1    2    0  502 -0.15573785687E+03  0.24449936758E+03 -0.47920231590E+03  0.58617239816E+03  0.17300000000E+03 0.  1.
</event>
<event>
 4    1  0.6020852E+000  0.1000000E+03  0.7546771E-02  0.1280296E+00
         21   -1    0    0  503  502  0.00000000000E+00  0.00000000000E+00  0.99361102295E+02  0.99361102295E+02  0.00000000000E+00 0.  1.
         21   -1    0    0  501  503 -0.00000000000E+00 -0.00000000000E+00 -0.49010012547E+03  0.49010012547E+03  0.00000000000E+00 0. -1.
          6    1    1    2  501    0  0.20775690385E+02  0.68561184307E+02 -0.35132912154E+03  0.39811231700E+03  0.17300000000E+03 0. -1.
         -6    1    1    2    0  502 -0.20775690385E+02 -0.68561184307E+02 -0.39409901635E+02  0.19134891077E+03  0.17300000000E+03 0.  1.
</event>
<event>
 4    1  0.6020852E+000  0.1000000E+03  0.7546771E-02  0.1280296E+00
         21   -1    0    0  501  502  0.00000000000E+00  0.00000000000E+00  0.62589395816E+03  0.62589395816E+03  0.00000000000E+00 0. -1.
         21   -1    0    0  502  503 -0.00000000000E+00 -0.00000000000E+00 -0.82876289775E+02  0.82876289775E+02  0.00000000000E+00 0.  1.
          6    1    1    2  501    0  0.45614582505E+02  0.29464406101E+02  0.48595453477E+03  0.51868068330E+03  0.17300000000E+03 0. -1.
         -6    1    1    2    0  503 -0.45614582505E+02 -0.29464406101E+02  0.57063133610E+02  0.19008956463E+03  0.17300000000E+03 0.  1.
</event>
<event>
 4    1  0.6020852E+000  0.1000000E+03  0.7546771E-02  0.1280296E+00
         21   -1    0    0  501  502  0.00000000000E+00  0.00000000000E+00  0.30365446554E+03  0.30365446554E+03  0.00000000000E+00 0. -1.
         21   -1    0    0  502  503 -0.00000000000E+00 -0.00000000000E+00 -0.25931447725E+03  0.25931447725E+03  0.00000000000E+00 0.  1.
          6    1    1    2  501    0 -0.99201051188E+02 -0.65472778924E+02  0.20899069111E+03  0.29619865345E+03  0.17300000000E+03 0. -1.
         -6    1    1    2    0  503  0.99201051188E+02  0.65472778924E+02 -0.16465070281E+03  0.26677028934E+03  0.17300000000E+03 0.  1.
</event>
<event>
 4    1  0.6020852E+000  0.1000000E+03  0.7546771E-02  0.1280296E+00
         21   -1    0    0  503  502  0.00000000000E+00  0.00000000000E+00  0.81644803344E+03  0.81644803344E+03  0.00000000000E+00 0.  1.
         21   -1    0    0  501  503 -0.00000000000E+00 -0.00000000000E+00 -0.17532035083E+03  0.17532035083E+03  0.00000000000E+00 0.  1.
          6    1    1    2  501    0 -0.89351276063E+02 -0.73695288287E+02 -0.93490236075E+02  0.22821934688E+03  0.17300000000E+03 0.  1.
         -6    1    1    2    0  502  0.89351276063E+02  0.73695288287E+02  0.73461791868E+03  0.76354903739E+03  0.17300000000E+03 0.  1.
</event>
<event>
 4    1  0.6020852E+000  0.1000000E+03  0.7546771E-02  0.1280296E+00
         21   -1    0    0  503  502  0.00000000000E+00  0.00000000000E+00  0.36744332022E+03  0.36744332022E+03  0.00000000000E+00 0.  1.
         21   -1    0    0  501  503 -0.00000000000E+00 -0.00000000000E+00 -0.91204512506E+02  0.91204512506E+02  0.00000000000E+00 0.  1.
          6    1    1    2  501    0  0.39806582835E+02  0.53121291943E+01  0.82508885485E+02  0.19583028095E+03  0.17300000000E+03 0.  1.
         -6    1    1    2    0  502 -0.39806582835E+02 -0.53121291943E+01  0.19372992222E+03  0.26281755177E+03  0.17300000000E+03 0.  1.
</event>
<event>
 4    1  0.6020852E+000  0.1000000E+03  0.7546771E-02  0.1280296E+00
         21   -1    0    0  503  502  0.00000000000E+00  0.00000000000E+00  0.88738029816E+03  0.88738029816E+03  0.00000000000E+00 0. -1.
         21   -1    0    0  501  503 -0.00000000000E+00 -0.00000000000E+00 -0.16648757574E+03  0.16648757574E+03  0.00000000000E+00 0. -1.
          6    1    1    2  501    0  0.17347762309E+02 -0.65564970907E+02 -0.10081917059E+03  0.21140769954E+03  0.17300000000E+03 0. -1.
         -6    1    1    2    0  502 -0.17347762309E+02  0.65564970907E+02  0.82171189301E+03  0.84246017436E+03  0.17300000000E+03 0. -1.
</event>
<event>
 4    1  0.6020852E+000  0.1000000E+03  0.7546771E-02  0.1280296E+00
         21   -1    0    0  503  502  0.00000000000E+00  0.00000000000E+00  0.10957527079E+04  0.10957527079E+04  0.00000000000E+00 0. -1.
         21   -1    0    0  501  503 -0.00000000000E+00 -0.00000000000E+00 -0.33667426725E+02  0.33667426725E+02  0.00000000000E+00 0. -1.
          6    1    1    2  501    0 -0.80373481905E+02 -0.21455192498E+02  0.55008589883E+03  0.58261798631E+03  0.17300000000E+03 0. -1.
         -6    1    1    2    0  502  0.80373481905E+02  0.21455192498E+02  0.51199938230E+03  0.54680214827E+03  0.17300000000E+03 0. -1.
</event>
<event>
 4    1  0.6020852E+000  0.1000000E+03  0.7546771E-02  0.1280296E+00
         21   -1    0    0  501  502  0.00000000000E+00  0.00000000000E+00  0.23359675646E+03  0.23359675646E+03  0.00000000000E+00 0.  1.
         21   -1    0    0  502  503 -0.00000000000E+00 -0.00000000000E+00 -0.18165946279E+03  0.18165946279E+03  0.00000000000E+00 0.  1.
          6    1    1    2  501    0 -0.61855298166E+02 -0.80604283098E+01 -0.67583056297E+02  0.19592732815E+03  0.17300000000E+03 0.  1.
         -6    1    1    2    0  503  0.61855298166E+02  0.80604283098E+01  0.11952034997E+03  0.21932889110E+03  0.17300000000E+03 0.  1.
</event>
<event>
 4    1  0.6020852E+000  0.1000000E+03  0.7546771E-02  0.1280296E+00
         21   -1    0    0  503  502  0.00000000000E+00  0.00000000000E+00  0.18660265053E+03  0.18660265053E+03  0.00000000000E+00 0.  1.
         21   -1    0    0  501  503 -0.00000000000E+00 -0.00000000000E+00 -0.30267791757E+03  0.30267791757E+03  0.00000000000E+00 0.  1.
          6    1    1    2  501    0  0.71422190521E+02  0.72739071088E+02 -0.18889293250E+03  0.27568395258E+03  0.17300000000E+03 0.  1.
         -6    1    1    2    0  502 -0.71422190521E+02 -0.72739071088E+02  0.72817665454E+02  0.21359661552E+03  0.17300000000E+03 0.  1.
</event>
<event>
 4    1  0.6020852E+000  0.1000000E+03  0.7546771E-02  0.1280296E+00
         21   -1    0    0  503  502  0.00000000000E+00  0.00000000000E+00  0.11871773795E+03  0.11871773795E+03  0.00000000000E+00 0.  1.
         21   -1    0    0  501  503 -0.00000000000E+00 -0.00000000000E+00 -0.98546552595E+03  0.98546552595E+03  0.00000000000E+00 0.  1.
          6    1    1    2  501    0 -0.19191807998E+03  0.20674804059E+03 -0.57302864192E+03  0.66171604648E+03  0.17300000000E+03 0.  1.
         -6    1    1    2    0  502  0.19191807998E+03 -0.20674804059E+03 -0.29371914609E+03  0.44246721742E+03  0.17300000000E+03 0.  1.
</event>
<event>
 4    1  0.6020852E+000  0.1000000E+03  0.7546771E-02  0.1280296E+00
         21   -1    0    0  503  502  0.00000000000E+00  0.00000000000E+00  0.19427262241E+04  0.19427262241E+04  0.00000000000E+00 0.  1.
         21   -1    0    0  501  503 -0.00000000000E+00 -0.00000000000E+00 -0.19919253888E+02  0.19919253888E+02  0.00000000000E+00 0.  1.
          6    1    1    2  501    0  0.69982971162E+02  0.28893260552E+02  0.68652790716E+03  0.71202668775E+03  0.17300000000E+03 0.  1.
         -6    1    1    2    0  502 -0.69982971162E+02 -0.28893260552E+02  0.12362790631E+04  0.12506187902E+04  0.17300000000E+03 0.  1.
</event>
<event>
 4    1  0.6020852E+000  0.1000000E+03  0.7546771E-02  0.1280296E+00
         21   -1    0    0  503  502  0.00000000000E+00  0.00000000000E+00  0.13784773585E+04  0.13784773585E+04  0.00000000000E+00 0. -1.
         21   -1    0    0  501  503 -0.00000000000E+00 -0.00000000000E+00 -0.96050610259E+02  0.96050610259E+02  0.00000000000E+00 0. -1.
          6    1    1    2  501    0 -0.20254547010E+03  0.16119334066E+03  0.25963557015E+03  0.40539806341E+03  0.17300000000E+03 0. -1.
         -6    1    1    2    0  502  0.20254547010E+03 -0.16119334066E+03  0.10227911781E+04  0.10691299054E+04  0.17300000000E+03 0. -1.
</event>
<event>
 4    1  0.6020852E+000  0.1000000E+03  0.7546771E-02  0.1280296E+00
         21   -1    0    0  503  502  0.00000000000E+00  0.00000000000E+00  0.22414346001E+04  0.22414346001E+04  0.00000000000E+00 0. -1.
         21   -1    0    0  501  503 -0.00000000000E+00 -0.00000000000E+00 -0.42186523247E+02  0.42186523247E+02  0.00000000000E+00 0. -1.
          6    1    1    2  501    0 -0.19406352313E+03  0.72557330475E+02  0.55258893006E+03  0.61498678266E+03  0.17300000000E+03 0. -1.
         -6    1    1    2    0  502  0.19406352313E+03 -0.72557330475E+02  0.16466591468E+04  0.16686343407E+04  0.17300000000E+03 0. -1.
</event>
<event>
 4    1  0.6020852E+000  0.1000000E+03  0.7546771E-02  0.1280296E+00
         21   -1    0    0  503  502  0.00000000000E+00  0.00000000000E+00  0.91423928460E+02  0.91423928460E+02  0.00000000000E+00 0. -1.
         21   -1    0    0  501  503 -0.00000000000E+00 -0.00000000000E+00 -0.47436660378E+03  0.47436660378E+03  0.00000000000E+00 0. -1.
          6    1    1    2  501    0 -0.50403097445E+01  0.10454442304E+03 -0.25918241179E+03  0.32872399318E+03  0.17300000000E+03 0. -1.
         -6    1    1    2    0  502  0.50403097445E+01 -0.10454442304E+03 -0.12376026352E+03  0.23706653905E+03  0.17300000000E+03 0. -1.
</event>
<event>
 4    1  0.6020852E+000  0.1000000E+03  0.7546771E-02  0.1280296E+00
         21   -1    0    0  503  502  0.00000000000E+00  0.00000000000E+00  0.29365529001E+03  0.29365529001E+03  0.00000000000E+00 0. -1.
         21   -1    0    0  501  503 -0.00000000000E+00 -0.00000000000E+00 -0.25263388808E+03  0.25263388808E+03  0.00000000000E+00 0. -1.
          6    1    1    2  501    0 -0.20832863465E+02 -0.19194512608E+03  0.10430167096E+03  0.27943653696E+03  0.17300000000E+03 0. -1.
         -6    1    1    2    0  502  0.20832863465E+02  0.19194512608E+03 -0.63280269025E+02  0.26685264112E+03  0.17300000000E+03 0. -1.
</event>
<event>
 4    1  0.6020852E+000  0.1000000E+03  0.7546771E-02  0.1280296E+00
         21   -1    0    0  503  502  0.00000000000E+00  0.00000000000E+00  0.36329275359E+03  0.36329275359E+03  0.00000000000E+00 0. -1.
         21   -1    0    0  501  503 -0.00000000000E+00 -0.00000000000E+00 -0.12688356972E+03  0.12688356972E+03  0.00000000000E+00 0. -1.
          6    1    1    2  501    0  0.27056199148E+01 -0.64465862985E+02 -0.68642371962E+01  0.18476819429E+03  0.17300000000E+03 0. -1.
         -6    1    1    2    0  502 -0.27056199148E+01  0.64465862985E+02  0.24327342107E+03  0.30540812902E+03  0.17300000000E+03 0. -1.
</event>
<event>
 4    1  0.6020852E+000  0.1000000E+03  0.7546771E-02  0.1280296E+00
         21   -1    0    0  503  502  0.00000000000E+00  0.00000000000E+00  0.10938294862E+03  0.10938294862E+03  0.00000000000E+00 0. -1.
         21   -1    0    0  501  503 -0.00000000000E+00 -0.00000000000E+00 -0.36513923665E+03  0.36513923665E+03  0.00000000000E+00 0. -1.
          6    1    1    2  501    0 -0.55798619478E+02  0.23982201271E+02 -0.22227609513E+03  0.28813936624E+03  0.17300000000E+03 0. -1.
         -6    1    1    2    0  502  0.55798619478E+02 -0.23982201271E+02 -0.33480192901E+02  0.18638281903E+03  0.17300000000E+03 0. -1.
</event>
<event>
 4    1  0.6020852E+000  0.1000000E+03  0.7546771E-02  0.1280296E+00
         21   -1    0    0  501  502  0.00000000000E+00  0.00000000000E+00  0.26981310407E+03  0.26981310407E+03  0.00000000000E+00 0. -1.
         21   -1    0    0  502  503 -0.00000000000E+00 -0.00000000000E+00 -0.19335757000E+03  0.19335757000E+03  0.00000000000E+00 0. -1.
          6    1    1    2  501    0  0.98429158921E+02 -0.10607159412E+03  0.74811812204E+02  0.23762426149E+03  0.17300000000E+03 0. -1.
         -6    1    1    2    0  503 -0.98429158921E+02  0.10607159412E+03  0.16437218664E+01  0.22554641258E+03  0.17300000000E+03 0. -1.
</event>
<event>
 4    1  0.6020852E+000  0.1000000E+03  0.7546771E-02  0.1280296E+00
         21   -1    0    0  501  502  0.00000000000E+00  0.00000000000E+00  0.62273869095E+02  0.62273869095E+02  0.00000000000E+00 0. -1.
         21   -1    0    0  502  503 -0.00000000000E+00 -0.00000000000E+00 -0.61720855844E+03  0.61720855844E+03  0.00000000000E+00 0. -1.
          6    1    1    2  501    0  0.52433230270E+02  0.48010313592E+02 -0.17564086740E+03  0.25657932136E+03  0.17300000000E+03 0. -1.
         -6    1    1    2    0  503 -0.52433230270E+02 -0.48010313592E+02 -0.37929382195E+03  0.42290310618E+03  0.17300000000E+03 0. -1.
</event>
<event>
 4    1  0.6020852E+000  0.1000000E+03  0.7546771E-02  0.1280296E+00
         21   -1    0    0  501  502  0.00000000000E+00  0.00000000000E+00  0.60191555196E+03  0.60191555196E+03  0.00000000000E+00 0. -1.
         21   -1    0    0  502  503 -0.00000000000E+00 -0.00000000000E+00 -0.84902438721E+02  0.84902438721E+02  0.00000000000E+00 0. -1.
          6    1    1    2  501    0  0.80183905720E+02  0.31357627556E+02  0.43671567575E+03  0.47755873041E+03  0.17300000000E+03 0. -1.
         -6    1    1    2    0  503 -0.80183905720E+02 -0.31357627556E+02  0.80297437487E+02  0.20925926027E+03  0.17300000000E+03 0. -1.
</event>
<event>
 4    1  0.6020852E+000  0.1000000E+03  0.7546771E-02  0.1280296E+00
         21   -1    0    0  501  502  0.00000000000E+00  0.00000000000E+00  0.13823218205E+03  0.13823218205E+03  0.00000000000E+00 0. -1.
         21   -1    0    0  502  503 -0.00000000000E+00 -0.00000000000E+00 -0.71366771066E+03  0.71366771066E+03  0.00000000000E+00 0. -1.
          6    1    1    2  501    0  0.15176285363E+03 -0.10965992595E+03 -0.38889892962E+02  0.25787339311E+03  0.17300000000E+03 0. -1.
         -6    1    1    2    0  503 -0.15176285363E+03  0.10965992595E+03 -0.53654563564E+03  0.59402649960E+03  0.17300000000E+03 0. -1.
</event>
<event>
 4    1  0.6020852E+000  0.1000000E+03  0.7546771E-02  0.1280296E+00
         21   -1    0    0  503  502  0.00000000000E+00  0.00000000000E+00  0.11795859150E+03  0.11795859150E+03  0.00000000000E+00 0.  1.
         21   -1    0    0  501  503 -0.00000000000E+00 -0.00000000000E+00 -0.11811754716E+04  0.11811754716E+04  0.00000000000E+00 0.  1.
          6    1    1    2  501    0 -0.77576320678E+01 -0.11291412697E+03 -0.10724503503E+04  0.10921943668E+04  0.17300000000E+03 0.  1.
         -6    1    1    2    0  502  0.77576320678E+01  0.11291412697E+03  0.92334702502E+01  0.20693969628E+03  0.17300000000E+03 0.  1.
</event>
<event>
 4    1  0.6020852E+000  0.1000000E+03  0.7546771E-02  0.1280296E+00
         21   -1    0    0  503  502  0.00000000000E+00  0.00000000000E+00  0.23131774185E+03  0.23131774185E+03  0.00000000000E+00 0.  1.
         21   -1    0    0  501  503 -0.00000000000E+00 -0.00000000000E+00 -0.37750911151E+03  0.37750911151E+03  0.00000000000E+00 0.  1.
          6    1    1    2  501    0 -0.45268155187E+02 -0.14776415655E+02 -0.31496554763E+03  0.36249116476E+03  0.17300000000E+03 0.  1.
         -6    1    1    2    0  502  0.45268155187E+02  0.14776415655E+02  0.16877417797E+03  0.24633568861E+03  0.17300000000E+03 0.  1.
</event>
<event>
 4    1  0.6020852E+000  0.1000000E+03  0.7546771E-02  0.1280296E+00
         21   -1    0    0  503  502  0.00000000000E+00  0.00000000000E+00  0.19437793391E+03  0.19437793391E+03  0.00000000000E+00 0.  1.
         21   -1    0    0  501  503 -0.00000000000E+00 -0.00000000000E+00 -0.28117004388E+03  0.28117004388E+03  0.00000000000E+00 0.  1.
          6    1    1    2  501    0 -0.58678453699E+02  0.14327102053E+03 -0.71333563605E+02  0.24287285470E+03  0.17300000000E+03 0.  1.
         -6    1    1    2    0  502  0.58678453699E+02 -0.14327102053E+03 -0.15458546358E+02  0.23267512310E+03  0.17300000000E+03 0.  1.
</event>
<event>
 4    1  0.6020852E+000  0.1000000E+03  0.7546771E-02  0.1280296E+00
         21   -1    0    0  501  502  0.00000000000E+00  0.00000000000E+00  0.21150951953E+03  0.21150951953E+03  0.00000000000E+00 0. -1.
         21   -1    0    0  502  503 -0.00000000000E+00 -0.00000000000E+00 -0.35679132579E+03  0.35679132579E+03  0.00000000000E+00 0. -1.
          6    1    1    2  501    0  0.27368086929E+02  0.12745334172E+02  0.14586437981E+03  0.22829120224E+03  0.17300000000E+03 0. -1.
         -6    1    1    2    0  503 -0.27368086929E+02 -0.12745334172E+02 -0.29114618606E+03  0.34000964307E+03  0.17300000000E+03 0. -1.
</event>
<event>
 4    1  0.6020852E+000  0.1000000E+03  0.7546771E-02  0.1280296E+00
         21   -1    0    0  501  502  0.00000000000E+00  0.00000000000E+00  0.15071967069E+04  0.15071967069E+04  0.00000000000E+00 0. -1.
         21   -1    0    0  502  503 -0.00000000000E+00 -0.00000000000E+00 -0.40740870051E+02  0.40740870051E+02  0.00000000000E+00 0. -1.
          6    1    1    2  501    0  0.13987428754E+03 -0.39190055177E+01  0.10738804192E+04  0.10966897144E+04  0.17300000000E+03 0. -1.
         -6    1    1    2    0  503 -0.13987428754E+03  0.39190055177E+01  0.39257541767E+03  0.45124786258E+03  0.17300000000E+03 0. -1.
</event>
<event>
 4    1  0.6020852E+000  0.1000000E+03  0.7546771E-02  0.1280296E+00
         21   -1    0    0  501  502  0.00000000000E+00  0.00000000000E+00  0.11721792480E+03  0.11721792480E+03  0.00000000000E+00 0. -1.
         21   -1    0    0  502  503 -0.00000000000E+00 -0.00000000000E+00 -0.31950755539E+03  0.31950755539E+03  0.00000000000E+00 0. -1.
          6    1    1    2  501    0  0.39279963944E+02 -0.25924878796E+02 -0.18938285111E+02  0.18028497872E+03  0.17300000000E+03 0. -1.
         -6    1    1    2    0  503 -0.39279963944E+02  0.25924878796E+02 -0.18335134548E+03  0.25644050148E+03  0.17300000000E+03 0. -1.
</event>
<event>
 4    1  0.6020852E+000  0.1000000E+03  0.7546771E-02  0.1280296E+00
         21   -1    0    0  501  502  0.00000000000E+00  0.00000000000E+00  0.16628851836E+03  0.16628851836E+03  0.00000000000E+00 0.  1.
         21   -1    0    0  502  503 -0.00000000000E+00 -0.00000000000E+00 -0.29500491867E+03  0.29500491867E+03  0.00000000000E+00 0.  1.
          6    1    1    2  501    0 -0.27128932493E+02  0.46015761907E+02  0.68485824341E+02  0.19357876293E+03  0.17300000000E+03 0. -1.
         -6    1    1    2    0  503  0.27128932493E+02 -0.46015761907E+02 -0.19720222464E+03  0.26771467410E+03  0.17300000000E+03 0. -1.
</event>
<event>
 4    1  0.6020852E+000  0.1000000E+03  0.7546771E-02  0.1280296E+00
         21   -1    0    0  501  502  0.00000000000E+00  0.00000000000E+00  0.58373967628E+03  0.58373967628E+03  0.00000000000E+00 0.  1.
         21   -1    0    0  502  503 -0.00000000000E+00 -0.00000000000E+00 -0.20348576664E+03  0.20348576664E+03  0.00000000000E+00 0.  1.
          6    1    1    2  501    0  0.56787359305E+02 -0.76326449718E+01  0.52421037824E+03  0.55498520890E+03  0.17300000000E+03 0. -1.
         -6    1    1    2    0  503 -0.56787359305E+02  0.76326449718E+01 -0.14395646860E+03  0.23224023402E+03  0.17300000000E+03 0. -1.
</event>
<event>
 4    1  0.6020852E+000  0.1000000E+03  0.7546771E-02  0.1280296E+00
         21   -1    0    0  503  502  0.00000000000E+00  0.00000000000E+00  0.33487621262E+03  0.33487621262E+03  0.00000000000E+00 0.  1.
         21   -1    0    0  501  503 -0.00000000000E+00 -0.00000000000E+00 -0.76368247695E+03  0.76368247695E+03  0.00000000000E+00 0.  1.
          6    1    1    2  501    0 -0.68948752127E+02 -0.18007451128E+02 -0.72470511196E+03  0.74846823447E+03  0.17300000000E+03 0.  1.
         -6    1    1    2    0  502  0.68948752127E+02  0.18007451128E+02  0.29589884763E+03  0.35009045509E+03  0.17300000000E+03 0.  1.
</event>
<event>
 4    1  0.6020852E+000  0.1000000E+03  0.7546771E-02  0.1280296E+00
         21   -1    0    0  503  502  0.00000000000E+00  0.00000000000E+00  0.23197724571E+03  0.23197724571E+03  0.00000000000E+00 0.  1.
         21   -1    0    0  501  503 -0.00000000000E+00 -0.00000000000E+00 -0.21114854434E+03  0.21114854434E+03  0.00000000000E+00 0.  1.
          6    1    1    2  501    0 -0.68060673655E+02 -0.53144612938E+02 -0.97389774374E+02  0.21649566586E+03  0.17300000000E+03 0.  1.
         -6    1    1    2    0  502  0.68060673655E+02  0.53144612938E+02  0.11821847574E+03  0.22663012419E+03  0.17300000000E+03 0.  1.
</event>
<event>
 4    1  0.6020852E+000  0.1000000E+03  0.7546771E-02  0.1280296E+00
         21   -1    0    0  503  502  0.00000000000E+00  0.00000000000E+00  0.73046619233E+03  0.73046619233E+03  0.00000000000E+00 0.  1.
         21   -1    0    0  501  503 -0.00000000000E+00 -0.00000000000E+00 -0.11204324973E+03  0.11204324973E+03  0.00000000000E+00 0.  1.
          6    1    1    2  501    0 -0.44992211635E+02  0.68689660955E+02 -0.37476929003E+01  0.19153488933E+03  0.17300000000E+03 0.  1.
         -6    1    1    2    0  502  0.44992211635E+02 -0.68689660955E+02  0.62217063550E+03  0.65097455273E+03  0.17300000000E+03 0.  1.
</event>
<event>
 4    1  0.6020852E+000  0.1000000E+03  0.7546771E-02  0.1280296E+00
         21   -1    0    0  503  502  0.00000000000E+00  0.00000000000E+00  0.71200647267E+03  0.71200647267E+03  0.00000000000E+00 0. -1.
         21   -1    0    0  501  503 -0.00000000000E+00 -0.00000000000E+00 -0.79210805054E+02  0.79210805054E+02  0.00000000000E+00 0.  1.
          6    1    1    2  501    0  0.13430409977E+03 -0.19422681979E+02  0.16689195677E+03  0.27603760074E+03  0.17300000000E+03 0.  1.
         -6    1    1    2    0  502 -0.13430409977E+03  0.19422681979E+02  0.46590371084E+03  0.51517967698E+03  0.17300000000E+03 0. -1.
</event>
<event>
 4    1  0.6020852E+000  0.1000000E+03  0.7546771E-02  0.1280296E+00
         21   -1    0    0  503  502  0.00000000000E+00  0.00000000000E+00  0.73659586392E+03  0.73659586392E+03  0.00000000000E+00 0. -1.
         21   -1    0    0  501  503 -0.00000000000E+00 -0.00000000000E+00 -0.26180206139E+03  0.26180206139E+03  0.00000000000E+00 0.  1.
          6    1    1    2  501    0 -0.39421768247E+03 -0.28436018744E+02  0.33042556460E+03  0.54343927175E+03  0.17300000000E+03 0.  1.
         -6    1    1    2    0  502  0.39421768247E+03  0.28436018744E+02  0.14436823793E+03  0.45495865357E+03  0.17300000000E+03 0. -1.
</event>
<event>
 4    1  0.6020852E+000  0.1000000E+03  0.7546771E-02  0.1280296E+00
         21   -1    0    0  503  502  0.00000000000E+00  0.00000000000E+00  0.31130180972E+03  0.31130180972E+03  0.00000000000E+00 0. -1.
         21   -1    0    0  501  503 -0.00000000000E+00 -0.00000000000E+00 -0.20772609809E+03  0.20772609809E+03  0.00000000000E+00 0.  1.
          6    1    1    2  501    0 -0.14937666511E+03 -0.98380529426E+02 -0.16744345246E+01  0.24884517351E+03  0.17300000000E+03 0.  1.
         -6    1    1    2    0  502  0.14937666511E+03  0.98380529426E+02  0.10525014615E+03  0.27018273430E+03  0.17300000000E+03 0. -1.
</event>
<event>
 4    1  0.6020852E+000  0.1000000E+03  0.7546771E-02  0.1280296E+00
         21   -1    0    0  503  502  0.00000000000E+00  0.00000000000E+00  0.10891434563E+03  0.10891434563E+03  0.00000000000E+00 0.  1.
         21   -1    0    0  501  503 -0.00000000000E+00 -0.00000000000E+00 -0.96848334054E+03  0.96848334054E+03  0.00000000000E+00 0.  1.
          6    1    1    2  501    0 -0.24334379049E+03 -0.10290596385E+03 -0.55552463245E+03  0.63901678774E+03  0.17300000000E+03 0.  1.
         -6    1    1    2    0  502  0.24334379049E+03  0.10290596385E+03 -0.30404436246E+03  0.43838089843E+03  0.17300000000E+03 0.  1.
</event>
<event>
 4    1  0.6020852E+000  0.1000000E+03  0.7546771E-02  0.1280296E+00
         21   -1    0    0  501  502  0.00000000000E+00  0.00000000000E+00  0.67098996142E+03  0.67098996142E+03  0.00000000000E+00 0. -1.
         21   -1    0    0  502  503 -0.00000000000E+00 -0.00000000000E+00 -0.14446200966E+03  0.14446200966E+03  0.00000000000E+00 0.  1.
          6    1    1    2  501    0 -0.16300498200E+03  0.82754544222E+02  0.50325984694E+03  0.56268855710E+03  0.17300000000E+03 0. -1.
         -6    1    1    2    0  503  0.16300498200E+03 -0.82754544222E+02  0.23268104825E+02  0.25276341398E+03  0.17300000000E+03 0.  1.
</event>
<event>
 4    1  0.6020852E+000  0.1000000E+03  0.7546771E-02  0.1280296E+00
         21   -1    0    0  501  502  0.00000000000E+00  0.00000000000E+00  0.11957663480E+03  0.11957663480E+03  0.00000000000E+00 0. -1.
         21   -1    0    0  502  503 -0.00000000000E+00 -0.00000000000E+00 -0.38163027662E+03  0.38163027662E+03  0.00000000000E+00 0.  1.
          6    1    1    2  501    0  0.39940627236E+02 -0.73822408571E+02 -0.24019674143E+03  0.30768242768E+03  0.17300000000E+03 0. -1.
         -6    1    1    2    0  503 -0.39940627236E+02  0.73822408571E+02 -0.21856900395E+02  0.19352448374E+03  0.17300000000E+03 0.  1.
</event>
<event>
 4    1  0.6020852E+000  0.1000000E+03  0.7546771E-02  0.1280296E+00
         21   -1    0    0  503  502  0.00000000000E+00  0.00000000000E+00  0.44232836168E+03  0.44232836168E+03  0.00000000000E+00 0. -1.
         21   -1    0    0  501  503 -0.00000000000E+00 -0.00000000000E+00 -0.25980168811E+03  0.25980168811E+03  0.00000000000E+00 0. -1.
          6    1    1    2  501    0  0.21001956987E+03 -0.86334751296E+02 -0.98076168484E+02  0.30184407205E+03  0.17300000000E+03 0. -1.
         -6    1    1    2    0  502 -0.21001956987E+03  0.86334751296E+02  0.28060284206E+03  0.40028597774E+03  0.17300000000E+03 0. -1.
</event>
<event>
 4    1  0.6020852E+000  0.1000000E+03  0.7546771E-02  0.1280296E+00
         21   -1    0    0  503  502  0.00000000000E+00  0.00000000000E+00  0.13835052339E+04  0.13835052339E+04  0.00000000000E+00 0. -1.
         21   -1    0    0  501  503 -0.00000000000E+00 -0.00000000000E+00 -0.52358107955E+02  0.52358107955E+02  0.00000000000E+00 0. -1.
          6    1    1    2  501    0  0.66605399015E+02  0.10761776745E+03  0.23141466009E+03  0.31543558447E+03  0.17300000000E+03 0. -1.
         -6    1    1    2    0  502 -0.66605399015E+02 -0.10761776745E+03  0.10997324658E+04  0.11204277574E+04  0.17300000000E+03 0. -1.
</event>
<event>
 4    1  0.6020852E+000  0.1000000E+03  0.7546771E-02  0.1280296E+00
         21   -1    0    0  503  502  0.00000000000E+00  0.00000000000E+00  0.19831503812E+03  0.19831503812E+03  0.00000000000E+00 0.  1.
         21   -1    0    0  501  503 -0.00000000000E+00 -0.00000000000E+00 -0.23644009761E+03  0.23644009761E+03  0.00000000000E+00 0. -1.
          6    1    1    2  501    0 -0.61229297937E+02  0.11491669990E+03 -0.16654894718E+02  0.21716643470E+03  0.17300000000E+03 0. -1.
         -6    1    1    2    0  502  0.61229297937E+02 -0.11491669990E+03 -0.21470164769E+02  0.21758870103E+03  0.17300000000E+03 0.  1.
</event>
<event>
 4    1  0.6020852E+000  0.1000000E+03  0.7546771E-02  0.1280296E+00
         21   -1    0    0  503  502  0.00000000000E+00  0.00000000000E+00  0.33725039687E+03  0.33725039687E+03  0.00000000000E+00 0.  1.
         21   -1    0    0  501  503 -0.00000000000E+00 -0.00000000000E+00 -0.14646089622E+03  0.14646089622E+03  0.00000000000E+00 0. -1.
          6    1    1    2  501    0  0.65429590894E+02  0.81861817479E+02 -0.48320399124E+01  0.20232334797E+03  0.17300000000E+03 0. -1.
         -6    1    1    2    0  502 -0.65429590894E+02 -0.81861817479E+02  0.19562154056E+03  0.28138794512E+03  0.17300000000E+03 0.  1.
</event>
<event>
 4    1  0.6020852E+000  0.1000000E+03  0.7546771E-02  0.1280296E+00
         21   -1    0    0  503  502  0.00000000000E+00  0.00000000000E+00  0.10050855320E+04  0.10050855320E+04  0.00000000000E+00 0.  1.
         21   -1    0    0  501  503 -0.00000000000E+00 -0.00000000000E+00 -0.30727863881E+02  0.30727863881E+02  0.00000000000E+00 0. -1.
          6    1    1    2  501    0  0.30012877624E+02  0.16464687746E+01  0.46599963845E+03  0.49798408279E+03  0.17300000000E+03 0. -1.
         -6    1    1    2    0  502 -0.30012877624E+02 -0.16464687746E+01  0.50835802963E+03  0.53782931305E+03  0.17300000000E+03 0.  1.
</event>
<event>
 4    1  0.6020852E+000  0.1000000E+03  0.7546771E-02  0.1280296E+00
         21   -1    0    0  503  502  0.00000000000E+00  0.00000000000E+00  0.29681688700E+03  0.29681688700E+03  0.00000000000E+00 0.  1.
         21   -1    0    0  501  503 -0.00000000000E+00 -0.00000000000E+00 -0.19384503558E+03  0.19384503558E+03  0.00000000000E+00 0. -1.
          6    1    1    2  501    0  0.34630126795E+02 -0.16182043888E+03  0.36233866509E+02  0.24213011627E+03  0.17300000000E+03 0. -1.
         -6    1    1    2    0  502 -0.34630126795E+02  0.16182043888E+03  0.66737984911E+02  0.24853180632E+03  0.17300000000E+03 0.  1.
</event>
<event>
 4    1  0.6020852E+000  0.1000000E+03  0.7546771E-02  0.1280296E+00
         21   -1    0    0  503  502  0.00000000000E+00  0.00000000000E+00  0.99227214363E+02  0.99227214363E+02  0.00000000000E+00 0.  1.
         21   -1    0    0  501  503 -0.00000000000E+00 -0.00000000000E+00 -0.48917413008E+03  0.48917413008E+03  0.00000000000E+00 0. -1.
          6    1    1    2  501    0 -0.59957371925E+02 -0.24536033424E+02 -0.35529097883E+03  0.40044672932E+03  0.17300000000E+03 0. -1.
         -6    1    1    2    0  502  0.59957371925E+02  0.24536033424E+02 -0.34655936886E+02  0.18795461512E+03  0.17300000000E+03 0.  1.
</event>
<event>
 4    1  0.6020852E+000  0.1000000E+03  0.7546771E-02  0.1280296E+00
         21   -1    0    0  503  502  0.00000000000E+00  0.00000000000E+00  0.10439097568E+03  0.10439097568E+03  0.00000000000E+00 0.  1.
         21   -1    0    0  501  503 -0.00000000000E+00 -0.00000000000E+00 -0.99870128262E+03  0.99870128262E+03  0.00000000000E+00 0. -1.
          6    1    1    2  501    0 -0.97721921897E+02  0.15345311493E+03 -0.79399884121E+03  0.83274281285E+03  0.17300000000E+03 0. -1.
         -6    1    1    2    0  502  0.97721921897E+02 -0.15345311493E+03 -0.10031146573E+03  0.27034944546E+03  0.17300000000E+03 0.  1.
</event>
<event>
 4    1  0.6020852E+000  0.1000000E+03  0.7546771E-02  0.1280296E+00
         21   -1    0    0  503  502  0.00000000000E+00  0.00000000000E+00  0.20291367250E+03  0.20291367250E+03  0.00000000000E+00 0.  1.
         21   -1    0    0  501  503 -0.00000000000E+00 -0.00000000000E+00 -0.16977506760E+04  0.16977506760E+04  0.00000000000E+00 0. -1.
          6    1    1    2  501    0 -0.21006348754E+03 -0.23781942723E+03 -0.14962274609E+04  0.15392564320E+04  0.17300000000E+03 0. -1.
         -6    1    1    2    0  502  0.21006348754E+03  0.23781942723E+03  0.13904573425E+01  0.36140791654E+03  0.17300000000E+03 0.  1.
</event>
<event>
 4    1  0.6020852E+000  0.1000000E+03  0.7546771E-02  0.1280296E+00
         21   -1    0    0  503  502  0.00000000000E+00  0.00000000000E+00  0.27828949595E+03  0.27828949595E+03  0.00000000000E+00 0.  1.
         21   -1    0    0  501  503 -0.00000000000E+00 -0.00000000000E+00 -0.42193356620E+03  0.42193356620E+03  0.00000000000E+00 0. -1.
          6    1    1    2  501    0 -0.25640030016E+03  0.91036265201E+02 -0.19036892952E+03  0.37443029369E+03  0.17300000000E+03 0. -1.
         -6    1    1    2    0  502  0.25640030016E+03 -0.91036265201E+02  0.46724859261E+02  0.32579276846E+03  0.17300000000E+03 0.  1.
</event>
<event>
 4    1  0.6020852E+000  0.1000000E+03  0.7546771E-02  0.1280296E+00
         21   -1    0    0  503  502  0.00000000000E+00  0.00000000000E+00  0.83654880536E+03  0.83654880536E+03  0.00000000000E+00 0. -1.
         21   -1    0    0  501  503 -0.00000000000E+00 -0.00000000000E+00 -0.55870208393E+02  0.55870208393E+02  0.00000000000E+00 0. -1.
          6    1    1    2  501    0 -0.11362514879E+03 -0.30734048406E+01  0.26162582690E+03  0.33361234023E+03  0.17300000000E+03 0. -1.
         -6    1    1    2    0  502  0.11362514879E+03  0.30734048406E+01  0.51905277007E+03  0.55880667352E+03  0.17300000000E+03 0. -1.
</event>
<event>
 4    1  0.6020852E+000  0.1000000E+03  0.7546771E-02  0.1280296E+00
         21   -1    0    0  503  502  0.00000000000E+00  0.00000000000E+00  0.99765738236E+03  0.99765738236E+03  0.00000000000E+00 0. -1.
         21   -1    0    0  501  503 -0.00000000000E+00 -0.00000000000E+00 -0.70128227569E+02  0.70128227569E+02  0.00000000000E+00 0. -1.
          6    1    1    2  501    0  0.17989330092E+03 -0.75461783605E+02  0.37397522492E+03  0.45589752067E+03  0.17300000000E+03 0. -1.
         -6    1    1    2    0  502 -0.17989330092E+03  0.75461783605E+02  0.55355392987E+03  0.61188808926E+03  0.17300000000E+03 0. -1.
</event>
<event>
 4    1  0.6020852E+000  0.1000000E+03  0.7546771E-02  0.1280296E+00
         21   -1    0    0  503  502  0.00000000000E+00  0.00000000000E+00  0.43566688905E+02  0.43566688905E+02  0.00000000000E+00 0. -1.
         21   -1    0    0  501  503 -0.00000000000E+00 -0.00000000000E+00 -0.79903830973E+03  0.79903830973E+03  0.00000000000E+00 0. -1.
          6    1    1    2  501    0 -0.55641122070E+02 -0.59869674788E+00 -0.47316763011E+03  0.50686576042E+03  0.17300000000E+03 0. -1.
         -6    1    1    2    0  502  0.55641122070E+02  0.59869674788E+00 -0.28230399072E+03  0.33573923822E+03  0.17300000000E+03 0. -1.
</event>
<event>
 4    1  0.6020852E+000  0.1000000E+03  0.7546771E-02  0.1280296E+00
         21   -1    0    0  501  502  0.00000000000E+00  0.00000000000E+00  0.99230263984E+03  0.99230263984E+03  0.00000000000E+00 0.  1.
         21   -1    0    0  502  503 -0.00000000000E+00 -0.00000000000E+00 -0.54639853767E+02  0.54639853767E+02  0.00000000000E+00 0. -1.
          6    1    1    2  501    0  0.28623210041E+02  0.12451705361E+03  0.66948612324E+03  0.70318166501E+03  0.17300000000E+03 0.  1.
         -6    1    1    2    0  503 -0.28623210041E+02 -0.12451705361E+03  0.26817666283E+03  0.34376082860E+03  0.17300000000E+03 0. -1.
</event>
<event>
 4    1  0.6020852E+000  0.1000000E+03  0.7546771E-02  0.1280296E+00
         21   -1    0    0  501  502  0.00000000000E+00  0.00000000000E+00  0.68270016144E+03  0.68270016144E+03  0.00000000000E+00 0.  1.
         21   -1    0    0  502  503 -0.00000000000E+00 -0.00000000000E+00 -0.61876507944E+02  0.61876507944E+02  0.00000000000E+00 0. -1.
          6    1    1    2  501    0  0.74011779989E+02  0.82653245181E+02  0.31438005939E+03  0.37559702376E+03  0.17300000000E+03 0.  1.
         -6    1    1    2    0  503 -0.74011779989E+02 -0.82653245181E+02  0.30644359411E+03  0.36897964562E+03  0.17300000000E+03 0. -1.
</event>
<event>
 4    1  0.6020852E+000  0.1000000E+03  0.7546771E-02  0.1280296E+00
         21   -1    0    0  501  502  0.00000000000E+00  0.00000000000E+00  0.10160356632E+04  0.10160356632E+04  0.00000000000E+00 0.  1.
         21   -1    0    0  502  503 -0.00000000000E+00 -0.00000000000E+00 -0.16152249497E+03  0.16152249497E+03  0.00000000000E+00 0. -1.
          6    1    1    2  501    0  0.80883569143E+02  0.17534622047E+03  0.87966684193E+03  0.91707753302E+03  0.17300000000E+03 0.  1.
         -6    1    1    2    0  503 -0.80883569143E+02 -0.17534622047E+03 -0.25153673683E+02  0.26048062517E+03  0.17300000000E+03 0. -1.
</event>
<event>
 4    1  0.6020852E+000  0.1000000E+03  0.7546771E-02  0.1280296E+00
         21   -1    0    0  501  502  0.00000000000E+00  0.00000000000E+00  0.10097581835E+03  0.10097581835E+03  0.00000000000E+00 0. -1.
         21   -1    0    0  502  503 -0.00000000000E+00 -0.00000000000E+00 -0.30194316327E+03  0.30194316327E+03  0.00000000000E+00 0.  1.
          6    1    1    2  501    0  0.52329830852E+01 -0.69914958103E+01 -0.12585839423E+03  0.21411585771E+03  0.17300000000E+03 0. -1.
         -6    1    1    2    0  503 -0.52329830852E+01  0.69914958103E+01 -0.75108950693E+02  0.18880312391E+03  0.17300000000E+03 0.  1.
</event>
<event>
 4    1  0.6020852E+000  0.1000000E+03  0.7546771E-02  0.1280296E+00
         21   -1    0    0  501  502  0.00000000000E+00  0.00000000000E+00  0.66313311636E+03  0.66313311636E+03  0.00000000000E+00 0. -1.
         21   -1    0    0  502  503 -0.00000000000E+00 -0.00000000000E+00 -0.10828410328E+03  0.10828410328E+03  0.00000000000E+00 0.  1.
          6    1    1    2  501    0 -0.87661342231E+02 -0.63641556229E+02  0.52732664738E+03  0.56545304990E+03  0.17300000000E+03 0. -1.
         -6    1    1    2    0  503  0.87661342231E+02  0.63641556229E+02  0.27522365698E+02  0.20596416974E+03  0.17300000000E+03 0.  1.
</event>
<event>
 4    1  0.6020852E+000  0.1000000E+03  0.7546771E-02  0.1280296E+00
         21   -1    0    0  501  502  0.00000000000E+00  0.00000000000E+00  0.40281757400E+03  0.40281757400E+03  0.00000000000E+00 0. -1.
         21   -1    0    0  502  503 -0.00000000000E+00 -0.00000000000E+00 -0.29834585461E+03  0.29834585461E+03  0.00000000000E+00 0.  1.
          6    1    1    2  501    0  0.36258394468E+01 -0.11464921642E+03  0.33302527519E+03  0.39241868387E+03  0.17300000000E+03 0. -1.
         -6    1    1    2    0  503 -0.36258394468E+01  0.11464921642E+03 -0.22855355580E+03  0.30874474474E+03  0.17300000000E+03 0.  1.
</event>
<event>
 4    1  0.6020852E+000  0.1000000E+03  0.7546771E-02  0.1280296E+00
         21   -1    0    0  501  502  0.00000000000E+00  0.00000000000E+00  0.21377782394E+03  0.21377782394E+03  0.00000000000E+00 0. -1.
         21   -1    0    0  502  503 -0.00000000000E+00 -0.00000000000E+00 -0.25803807469E+03  0.25803807469E+03  0.00000000000E+00 0.  1.
          6    1    1    2  501    0 -0.17092325223E+02 -0.11652029058E+03  0.84947367927E+02  0.22586319093E+03  0.17300000000E+03 0. -1.
         -6    1    1    2    0  503  0.17092325223E+02  0.11652029058E+03 -0.12920761868E+03  0.24595270770E+03  0.17300000000E+03 0.  1.
</event>
<event>
 4    1  0.6020852E+000  0.1000000E+03  0.7546771E-02  0.1280296E+00
         21   -1    0    0  503  502  0.00000000000E+00  0.00000000000E+00  0.27761077423E+03  0.27761077423E+03  0.00000000000E+00 0.  1.
         21   -1    0    0  501  503 -0.00000000000E+00 -0.00000000000E+00 -0.60162666073E+03  0.60162666073E+03  0.00000000000E+00 0. -1.
          6    1    1    2  501    0 -0.49066877304E+01 -0.24490642543E+03 -0.46067113392E+03  0.54968184109E+03  0.17300000000E+03 0. -1.
         -6    1    1    2    0  502  0.49066877304E+01  0.24490642543E+03  0.13665524743E+03  0.32955559387E+03  0.17300000000E+03 0.  1.
</event>
<event>
 4    1  0.6020852E+000  0.1000000E+03  0.7546771E-02  0.1280296E+00
         21   -1    0    0  501  502  0.00000000000E+00  0.00000000000E+00  0.25649925914E+04  0.25649925914E+04  0.00000000000E+00 0.  1.
         21   -1    0    0  502  503 -0.00000000000E+00 -0.00000000000E+00 -0.15842928565E+02  0.15842928565E+02  0.00000000000E+00 0.  1.
          6    1    1    2  501    0  0.11428788404E+02  0.92301820433E+01  0.19302706704E+04  0.19380633824E+04  0.17300000000E+03 0.  1.
         -6    1    1    2    0  503 -0.11428788404E+02 -0.92301820433E+01  0.61887899251E+03  0.64277213757E+03  0.17300000000E+03 0.  1.
</event>
<event>
 4    1  0.6020852E+000  0.1000000E+03  0.7546771E-02  0.1280296E+00
         21   -1    0    0  501  502  0.00000000000E+00  0.00000000000E+00  0.38049229995E+03  0.38049229995E+03  0.00000000000E+00 0.  1.
         21   -1    0    0  502  503 -0.00000000000E+00 -0.00000000000E+00 -0.29463947659E+03  0.29463947659E+03  0.00000000000E+00 0.  1.
          6    1    1    2  501    0 -0.10803299811E+03  0.32185226832E+02  0.30865920913E+03  0.37135767783E+03  0.17300000000E+03 0.  1.
         -6    1    1    2    0  503  0.10803299811E+03 -0.32185226832E+02 -0.22280638576E+03  0.30377409871E+03  0.17300000000E+03 0.  1.
</event>
<event>
 4    1  0.6020852E+000  0.1000000E+03  0.7546771E-02  0.1280296E+00
         21   -1    0    0  501  502  0.00000000000E+00  0.00000000000E+00  0.60488192356E+03  0.60488192356E+03  0.00000000000E+00 0.  1.
         21   -1    0    0  502  503 -0.00000000000E+00 -0.00000000000E+00 -0.92197633764E+02  0.92197633764E+02  0.00000000000E+00 0.  1.
          6    1    1    2  501    0 -0.73965463430E+02  0.13474365815E+02  0.46604076193E+03  0.50276777949E+03  0.17300000000E+03 0.  1.
         -6    1    1    2    0  503  0.73965463430E+02 -0.13474365815E+02  0.46643527873E+02  0.19431177784E+03  0.17300000000E+03 0.  1.
</event>
<event>
 4    1  0.6020852E+000  0.1000000E+03  0.7546771E-02  0.1280296E+00
         21   -1    0    0  503  502  0.00000000000E+00  0.00000000000E+00  0.42244155343E+02  0.42244155343E+02  0.00000000000E+00 0. -1.
         21   -1    0    0  501  503 -0.00000000000E+00 -0.00000000000E+00 -0.15205120248E+04  0.15205120248E+04  0.00000000000E+00 0. -1.
          6    1    1    2  501    0 -0.28322683109E+02 -0.10343730068E+03 -0.12046903117E+04  0.12217647878E+04  0.17300000000E+03 0. -1.
         -6    1    1    2    0  502  0.28322683109E+02  0.10343730068E+03 -0.27357755769E+03  0.34099139230E+03  0.17300000000E+03 0. -1.
</event>
<event>
 4    1  0.6020852E+000  0.1000000E+03  0.7546771E-02  0.1280296E+00
         21   -1    0    0  503  502  0.00000000000E+00  0.00000000000E+00  0.31517513992E+03  0.31517513992E+03  0.00000000000E+00 0. -1.
         21   -1    0    0  501  503 -0.00000000000E+00 -0.00000000000E+00 -0.11499000832E+03  0.11499000832E+03  0.00000000000E+00 0. -1.
          6    1    1    2  501    0 -0.19890591385E+02 -0.18291936996E+02  0.15676768185E+02  0.17579815598E+03  0.17300000000E+03 0. -1.
         -6    1    1    2    0  502  0.19890591385E+02  0.18291936996E+02  0.18450836341E+03  0.25436699226E+03  0.17300000000E+03 0. -1.
</event>
<event>
 4    1  0.6020852E+000  0.1000000E+03  0.7546771E-02  0.1280296E+00
         21   -1    0    0  501  502  0.00000000000E+00  0.00000000000E+00  0.48349580998E+03  0.48349580998E+03  0.00000000000E+00 0. -1.
         21   -1    0    0  502  503 -0.00000000000E+00 -0.00000000000E+00 -0.21396313317E+03  0.21396313317E+03  0.00000000000E+00 0. -1.
          6    1    1    2  501    0  0.10031361614E+03  0.12751000312E+03  0.37032128900E+03  0.43975957018E+03  0.17300000000E+03 0. -1.
         -6    1    1    2    0  503 -0.10031361614E+03 -0.12751000312E+03 -0.10078861219E+03  0.25769937296E+03  0.17300000000E+03 0. -1.
</event>
<event>
 4    1  0.6020852E+000  0.1000000E+03  0.7546771E-02  0.1280296E+00
         21   -1    0    0  501  502  0.00000000000E+00  0.00000000000E+00  0.62714577936E+03  0.62714577936E+03  0.00000000000E+00 0.  1.
         21   -1    0    0  502  503 -0.00000000000E+00 -0.00000000000E+00 -0.16956222496E+03  0.16956222496E+03  0.00000000000E+00 0. -1.
          6    1    1    2  501    0 -0.15375462499E+03  0.18439594902E+03  0.39614712436E+03  0.49447335101E+03  0.17300000000E+03 0. -1.
         -6    1    1    2    0  503  0.15375462499E+03 -0.18439594902E+03  0.61436430039E+02  0.30223465330E+03  0.17300000000E+03 0.  1.
</event>
<event>
 4    1  0.6020852E+000  0.1000000E+03  0.7546771E-02  0.1280296E+00
         21   -1    0    0  501  502  0.00000000000E+00  0.00000000000E+00  0.93126820503E+03  0.93126820503E+03  0.00000000000E+00 0.  1.
         21   -1    0    0  502  503 -0.00000000000E+00 -0.00000000000E+00 -0.36905942958E+03  0.36905942958E+03  0.00000000000E+00 0. -1.
          6    1    1    2  501    0  0.83229557363E+02  0.61218556006E+02  0.89165638963E+03  0.91414166735E+03  0.17300000000E+03 0. -1.
         -6    1    1    2    0  503 -0.83229557363E+02 -0.61218556006E+02 -0.32944761418E+03  0.38618596726E+03  0.17300000000E+03 0.  1.
</event>
<event>
 4    1  0.6020852E+000  0.1000000E+03  0.7546771E-02  0.1280296E+00
         21   -1    0    0  501  502  0.00000000000E+00  0.00000000000E+00  0.22965453801E+03  0.22965453801E+03  0.00000000000E+00 0.  1.
         21   -1    0    0  502  503 -0.00000000000E+00 -0.00000000000E+00 -0.17411533831E+03  0.17411533831E+03  0.00000000000E+00 0.  1.
          6    1    1    2  501    0  0.17940366405E+02  0.92781314543E+02  0.61664819880E+02  0.20654728051E+03  0.17300000000E+03 0.  1.
         -6    1    1    2    0  503 -0.17940366405E+02 -0.92781314543E+02 -0.61256201808E+01  0.19722259581E+03  0.17300000000E+03 0.  1.
</event>
<event>
 4    1  0.6020852E+000  0.1000000E+03  0.7546771E-02  0.1280296E+00
         21   -1    0    0  503  502  0.00000000000E+00  0.00000000000E+00  0.73378387451E+02  0.73378387451E+02  0.00000000000E+00 0. -1.
         21   -1    0    0  501  503 -0.00000000000E+00 -0.00000000000E+00 -0.98959200005E+03  0.98959200005E+03  0.00000000000E+00 0.  1.
          6    1    1    2  501    0 -0.75392444664E+02  0.50450231020E+02 -0.82421889455E+03  0.84705078517E+03  0.17300000000E+03 0.  1.
         -6    1    1    2    0  502  0.75392444664E+02 -0.50450231020E+02 -0.91994718050E+02  0.21591960233E+03  0.17300000000E+03 0.  1.
</event>
<event>
 4    1  0.6020852E+000  0.1000000E+03  0.7546771E-02  0.1280296E+00
         21   -1    0    0  503  502  0.00000000000E+00  0.00000000000E+00  0.19006570107E+03  0.19006570107E+03  0.00000000000E+00 0. -1.
         21   -1    0    0  501  503 -0.00000000000E+00 -0.00000000000E+00 -0.50644373732E+03  0.50644373732E+03  0.00000000000E+00 0.  1.
          6    1    1    2  501    0  0.10817044148E+03  0.12476431553E+03 -0.38003653632E+03  0.44902533088E+03  0.17300000000E+03 0.  1.
         -6    1    1    2    0  502 -0.10817044148E+03 -0.12476431553E+03  0.63658500061E+02  0.24748410751E+03  0.17300000000E+03 0.  1.
</event>
<event>
 4    1  0.6020852E+000  0.1000000E+03  0.7546771E-02  0.1280296E+00
         21   -1    0    0  503  502  0.00000000000E+00  0.00000000000E+00  0.47990929985E+03  0.47990929985E+03  0.00000000000E+00 0.  1.
         21   -1    0    0  501  503 -0.00000000000E+00 -0.00000000000E+00 -0.25792141407E+03  0.25792141407E+03  0.00000000000E+00 0. -1.
          6    1    1    2  501    0 -0.20342712239E+03 -0.73533706750E+02 -0.11647903057E+03  0.30047656267E+03  0.17300000000E+03 0.  1.
         -6    1    1    2    0  502  0.20342712239E+03  0.73533706750E+02  0.33846691635E+03  0.43735415125E+03  0.17300000000E+03 0. -1.
</event>
<event>
 4    1  0.6020852E+000  0.1000000E+03  0.7546771E-02  0.1280296E+00
         21   -1    0    0  503  502  0.00000000000E+00  0.00000000000E+00  0.16464510272E+03  0.16464510272E+03  0.00000000000E+00 0. -1.
         21   -1    0    0  501  503 -0.00000000000E+00 -0.00000000000E+00 -0.26943725495E+03  0.26943725495E+03  0.00000000000E+00 0.  1.
          6    1    1    2  501    0 -0.10796049493E+02  0.96851540790E+02 -0.12479222027E+03  0.23451838708E+03  0.17300000000E+03 0.  1.
         -6    1    1    2    0  502  0.10796049493E+02 -0.96851540790E+02  0.20000068041E+02  0.19956397060E+03  0.17300000000E+03 0. -1.
</event>
<event>
 4    1  0.6020852E+000  0.1000000E+03  0.7546771E-02  0.1280296E+00
         21   -1    0    0  503  502  0.00000000000E+00  0.00000000000E+00  0.22097474139E+03  0.22097474139E+03  0.00000000000E+00 0. -1.
         21   -1    0    0  501  503 -0.00000000000E+00 -0.00000000000E+00 -0.37537820381E+03  0.37537820381E+03  0.00000000000E+00 0.  1.
          6    1    1    2  501    0  0.19336290051E+03 -0.50484598630E+01  0.52129981156E+02  0.26469082564E+03  0.17300000000E+03 0.  1.
         -6    1    1    2    0  502 -0.19336290051E+03  0.50484598630E+01 -0.20653344357E+03  0.33166211957E+03  0.17300000000E+03 0. -1.
</event>
<event>
 4    1  0.6020852E+000  0.1000000E+03  0.7546771E-02  0.1280296E+00
         21   -1    0    0  501  502  0.00000000000E+00  0.00000000000E+00  0.22624611524E+03  0.22624611524E+03  0.00000000000E+00 0.  1.
         21   -1    0    0  502  503 -0.00000000000E+00 -0.00000000000E+00 -0.34835959662E+03  0.34835959662E+03  0.00000000000E+00 0.  1.
          6    1    1    2  501    0 -0.22093475295E+03  0.85870361294E+01 -0.60727996131E+02  0.28723299213E+03  0.17300000000E+03 0.  1.
         -6    1    1    2    0  503  0.22093475295E+03 -0.85870361294E+01 -0.61385485244E+02  0.28737271974E+03  0.17300000000E+03 0.  1.
</event>
<event>
 4    1  0.6020852E+000  0.1000000E+03  0.7546771E-02  0.1280296E+00
         21   -1    0    0  503  502  0.00000000000E+00  0.00000000000E+00  0.29396865724E+04  0.29396865724E+04  0.00000000000E+00 0. -1.
         21   -1    0    0  501  503 -0.00000000000E+00 -0.00000000000E+00 -0.23290345418E+02  0.23290345418E+02  0.00000000000E+00 0. -1.
          6    1    1    2  501    0 -0.18273929459E+03 -0.44377147332E+02  0.11392014418E+04  0.11675067049E+04  0.17300000000E+03 0. -1.
         -6    1    1    2    0  502  0.18273929459E+03  0.44377147332E+02  0.17771947851E+04  0.17954702129E+04  0.17300000000E+03 0. -1.
</event>
<event>
 4    1  0.6020852E+000  0.1000000E+03  0.7546771E-02  0.1280296E+00
         21   -1    0    0  503  502  0.00000000000E+00  0.00000000000E+00  0.24064167075E+02  0.24064167075E+02  0.00000000000E+00 0. -1.
         21   -1    0    0  501  503 -0.00000000000E+00 -0.00000000000E+00 -0.14903579586E+04  0.14903579586E+04  0.00000000000E+00 0. -1.
          6    1    1    2  501    0  0.11856207414E+01  0.76052132856E+02 -0.78209918587E+03  0.80460764920E+03  0.17300000000E+03 0. -1.
         -6    1    1    2    0  502 -0.11856207414E+01 -0.76052132856E+02 -0.68419460565E+03  0.70981447647E+03  0.17300000000E+03 0. -1.
</event>
<event>
 4    1  0.6020852E+000  0.1000000E+03  0.7546771E-02  0.1280296E+00
         21   -1    0    0  501  502  0.00000000000E+00  0.00000000000E+00  0.76993087344E+02  0.76993087344E+02  0.00000000000E+00 0. -1.
         21   -1    0    0  502  503 -0.00000000000E+00 -0.00000000000E+00 -0.51132900482E+03  0.51132900482E+03  0.00000000000E+00 0.  1.
          6    1    1    2  501    0 -0.10967329130E+02  0.95918219603E+02 -0.20098088734E+03  0.28221074437E+03  0.17300000000E+03 0. -1.
         -6    1    1    2    0  503  0.10967329130E+02 -0.95918219603E+02 -0.23335503013E+03  0.30611134779E+03  0.17300000000E+03 0.  1.
</event>
<event>
 4    1  0.6020852E+000  0.1000000E+03  0.7546771E-02  0.1280296E+00
         21   -1    0    0  501  502  0.00000000000E+00  0.00000000000E+00  0.19991186470E+03  0.19991186470E+03  0.00000000000E+00 0. -1.
         21   -1    0    0  502  503 -0.00000000000E+00 -0.00000000000E+00 -0.37916853754E+03  0.37916853754E+03  0.00000000000E+00 0.  1.
          6    1    1    2  501    0  0.11420470020E+03  0.47465845810E+02  0.94262765850E+02  0.23261596913E+03  0.17300000000E+03 0. -1.
         -6    1    1    2    0  503 -0.11420470020E+03 -0.47465845810E+02 -0.27351943869E+03  0.34646443311E+03  0.17300000000E+03 0.  1.
</event>
<event>
 4    1  0.6020852E+000  0.1000000E+03  0.7546771E-02  0.1280296E+00
         21   -1    0    0  501  502  0.00000000000E+00  0.00000000000E+00  0.15820694484E+03  0.15820694484E+03  0.00000000000E+00 0.  1.
         21   -1    0    0  502  503 -0.00000000000E+00 -0.00000000000E+00 -0.21259461699E+03  0.21259461699E+03  0.00000000000E+00 0.  1.
          6    1    1    2  501    0  0.58069063883E+02 -0.10315094128E+02 -0.11978445084E+02  0.18316904895E+03  0.17300000000E+03 0.  1.
         -6    1    1    2    0  503 -0.58069063883E+02  0.10315094128E+02 -0.42409227061E+02  0.18763251287E+03  0.17300000000E+03 0.  1.
</event>
<event>
 4    1  0.6020852E+000  0.1000000E+03  0.7546771E-02  0.1280296E+00
         21   -1    0    0  501  502  0.00000000000E+00  0.00000000000E+00  0.48739097601E+03  0.48739097601E+03  0.00000000000E+00 0.  1.
         21   -1    0    0  502  503 -0.00000000000E+00 -0.00000000000E+00 -0.84046010581E+02  0.84046010581E+02  0.00000000000E+00 0.  1.
          6    1    1    2  501    0  0.30899710166E+02 -0.74106919603E+02  0.29728961172E+03  0.35320920268E+03  0.17300000000E+03 0.  1.
         -6    1    1    2    0  503 -0.30899710166E+02  0.74106919603E+02  0.10605535372E+03  0.21822778392E+03  0.17300000000E+03 0.  1.
</event>
<event>
 4    1  0.6020852E+000  0.1000000E+03  0.7546771E-02  0.1280296E+00
         21   -1    0    0  501  502  0.00000000000E+00  0.00000000000E+00  0.50921653816E+02  0.50921653816E+02  0.00000000000E+00 0. -1.
         21   -1    0    0  502  503 -0.00000000000E+00 -0.00000000000E+00 -0.72379385138E+03  0.72379385138E+03  0.00000000000E+00 0. -1.
          6    1    1    2  501    0  0.35049518912E+02 -0.52088375629E+02 -0.22617898377E+03  0.29159492511E+03  0.17300000000E+03 0. -1.
         -6    1    1    2    0  503 -0.35049518912E+02  0.52088375629E+02 -0.44669321380E+03  0.48312058009E+03  0.17300000000E+03 0. -1.
</event>
<event>
 4    1  0.6020852E+000  0.1000000E+03  0.7546771E-02  0.1280296E+00
         21   -1    0    0  501  502  0.00000000000E+00  0.00000000000E+00  0.48891274106E+03  0.48891274106E+03  0.00000000000E+00 0. -1.
         21   -1    0    0  502  503 -0.00000000000E+00 -0.00000000000E+00 -0.10514500530E+03  0.10514500530E+03  0.00000000000E+00 0. -1.
          6    1    1    2  501    0 -0.11416311138E+03 -0.61827413298E+02  0.28094708156E+03  0.35456467347E+03  0.17300000000E+03 0. -1.
         -6    1    1    2    0  503  0.11416311138E+03  0.61827413298E+02  0.10282065420E+03  0.23949307290E+03  0.17300000000E+03 0. -1.
</event>
<event>
 4    1  0.6020852E+000  0.1000000E+03  0.7546771E-02  0.1280296E+00
         21   -1    0    0  501  502  0.00000000000E+00  0.00000000000E+00  0.58308022853E+03  0.58308022853E+03  0.00000000000E+00 0.  1.
         21   -1    0    0  502  503 -0.00000000000E+00 -0.00000000000E+00 -0.42036571315E+03  0.42036571315E+03  0.00000000000E+00 0. -1.
          6    1    1    2  501    0  0.23067986004E+03 -0.17303613341E+03  0.44958064547E+03  0.56143250536E+03  0.17300000000E+03 0.  1.
         -6    1    1    2    0  503 -0.23067986004E+03  0.17303613341E+03 -0.28686613009E+03  0.44201343632E+03  0.17300000000E+03 0. -1.
</event>
<event>
 4    1  0.6020852E+000  0.1000000E+03  0.7546771E-02  0.1280296E+00
         21   -1    0    0  501  502  0.00000000000E+00  0.00000000000E+00  0.11290678079E+03  0.11290678079E+03  0.00000000000E+00 0.  1.
         21   -1    0    0  502  503 -0.00000000000E+00 -0.00000000000E+00 -0.62270699669E+03  0.62270699669E+03  0.00000000000E+00 0. -1.
          6    1    1    2  501    0  0.17761551853E+03  0.42720183397E+02 -0.13878993586E+03  0.28733940348E+03  0.17300000000E+03 0.  1.
         -6    1    1    2    0  503 -0.17761551853E+03 -0.42720183397E+02 -0.37101028004E+03  0.44827437400E+03  0.17300000000E+03 0. -1.
</event>
<event>
 4    1  0.6020852E+000  0.1000000E+03  0.7546771E-02  0.1280296E+00
         21   -1    0    0  501  502  0.00000000000E+00  0.00000000000E+00  0.17261485642E+03  0.17261485642E+03  0.00000000000E+00 0. -1.
         21   -1    0    0  502  503 -0.00000000000E+00 -0.00000000000E+00 -0.22446647766E+03  0.22446647766E+03  0.00000000000E+00 0. -1.
          6    1    1    2  501    0 -0.10049218046E+01 -0.35747162253E+02  0.61647877264E+02  0.18710513154E+03  0.17300000000E+03 0. -1.
         -6    1    1    2    0  503  0.10049218046E+01  0.35747162253E+02 -0.11349949850E+03  0.20997620255E+03  0.17300000000E+03 0. -1.
</event>
<event>
 4    1  0.6020852E+000  0.1000000E+03  0.7546771E-02  0.1280296E+00
         21   -1    0    0  501  502  0.00000000000E+00  0.00000000000E+00  0.64701006663E+03  0.64701006663E+03  0.00000000000E+00 0. -1.
         21   -1    0    0  502  503 -0.00000000000E+00 -0.00000000000E+00 -0.53407612483E+02  0.53407612483E+02  0.00000000000E+00 0. -1.
          6    1    1    2  501    0 -0.66676271024E+02  0.94489820549E+01  0.31479810718E+03  0.36546115616E+03  0.17300000000E+03 0. -1.
         -6    1    1    2    0  503  0.66676271024E+02 -0.94489820549E+01  0.27880434697E+03  0.33495652296E+03  0.17300000000E+03 0. -1.
</event>
<event>
 4    1  0.6020852E+000  0.1000000E+03  0.7546771E-02  0.1280296E+00
         21   -1    0    0  501  502  0.00000000000E+00  0.00000000000E+00  0.26058984039E+02  0.26058984039E+02  0.00000000000E+00 0. -1.
         21   -1    0    0  502  503 -0.00000000000E+00 -0.00000000000E+00 -0.11771594299E+04  0.11771594299E+04  0.00000000000E+00 0. -1.
          6    1    1    2  501    0  0.15000539505E+02  0.17570674607E+02 -0.52543858506E+03  0.55366817812E+03  0.17300000000E+03 0. -1.
         -6    1    1    2    0  503 -0.15000539505E+02 -0.17570674607E+02 -0.62566186076E+03  0.64955023578E+03  0.17300000000E+03 0. -1.
</event>
<event>
 4    1  0.6020852E+000  0.1000000E+03  0.7546771E-02  0.1280296E+00
         21   -1    0    0  501  502  0.00000000000E+00  0.00000000000E+00  0.74462826920E+03  0.74462826920E+03  0.00000000000E+00 0. -1.
         21   -1    0    0  502  503 -0.00000000000E+00 -0.00000000000E+00 -0.10692003902E+03  0.10692003902E+03  0.00000000000E+00 0. -1.
          6    1    1    2  501    0  0.62961258718E+02  0.16611563820E+03  0.52202282476E+03  0.57792331232E+03  0.17300000000E+03 0. -1.
         -6    1    1    2    0  503 -0.62961258718E+02 -0.16611563820E+03  0.11568540542E+03  0.27362499590E+03  0.17300000000E+03 0. -1.
</event>
<event>
 4    1  0.6020852E+000  0.1000000E+03  0.7546771E-02  0.1280296E+00
         21   -1    0    0  501  502  0.00000000000E+00  0.00000000000E+00  0.53151245045E+02  0.53151245045E+02  0.00000000000E+00 0. -1.
         21   -1    0    0  502  503 -0.00000000000E+00 -0.00000000000E+00 -0.27053934688E+04  0.27053934688E+04  0.00000000000E+00 0. -1.
          6    1    1    2  501    0 -0.12325163529E+03  0.26437184546E+03 -0.70903886763E+03  0.78596981754E+03  0.17300000000E+03 0. -1.
         -6    1    1    2    0  503  0.12325163529E+03 -0.26437184546E+03 -0.19432033561E+04  0.19725748963E+04  0.17300000000E+03 0. -1.
</event>
<event>
 4    1  0.6020852E+000  0.1000000E+03  0.7546771E-02  0.1280296E+00
         21   -1    0    0  501  502  0.00000000000E+00  0.00000000000E+00  0.17218762977E+04  0.17218762977E+04  0.00000000000E+00 0. -1.
         21   -1    0    0  502  503 -0.00000000000E+00 -0.00000000000E+00 -0.49252826313E+02  0.49252826313E+02  0.00000000000E+00 0. -1.
          6    1    1    2  501    0 -0.32874547253E+02 -0.20408887563E+03  0.11714370616E+04  0.12020510781E+04  0.17300000000E+03 0. -1.
         -6    1    1    2    0  503  0.32874547253E+02  0.20408887563E+03  0.50118640980E+03  0.56907804595E+03  0.17300000000E+03 0. -1.
</event>
<event>
 4    1  0.6020852E+000  0.1000000E+03  0.7546771E-02  0.1280296E+00
         21   -1    0    0  501  502  0.00000000000E+00  0.00000000000E+00  0.66158802196E+03  0.66158802196E+03  0.00000000000E+00 0.  1.
         21   -1    0    0  502  503 -0.00000000000E+00 -0.00000000000E+00 -0.98672941524E+02  0.98672941524E+02  0.00000000000E+00 0.  1.
          6    1    1    2  501    0 -0.36142980446E+02  0.51157036289E+02  0.54521303869E+03  0.57542125000E+03  0.17300000000E+03 0. -1.
         -6    1    1    2    0  503  0.36142980446E+02 -0.51157036289E+02  0.17702041745E+02  0.18483971348E+03  0.17300000000E+03 0. -1.
</event>
<event>
 4    1  0.6020852E+000  0.1000000E+03  0.7546771E-02  0.1280296E+00
         21   -1    0    0  501  502  0.00000000000E+00  0.00000000000E+00  0.38424780576E+03  0.38424780576E+03  0.00000000000E+00 0.  1.
         21   -1    0    0  502  503 -0.00000000000E+00 -0.00000000000E+00 -0.92717410559E+03  0.92717410559E+03  0.00000000000E+00 0.  1.
          6    1    1    2  501    0  0.20370245622E+02 -0.12583121187E+03  0.34027842524E+03  0.40245104978E+03  0.17300000000E+03 0. -1.
         -6    1    1    2    0  503 -0.20370245622E+02  0.12583121187E+03 -0.88320472507E+03  0.90897086156E+03  0.17300000000E+03 0. -1.
</event>
<event>
 4    1  0.6020852E+000  0.1000000E+03  0.7546771E-02  0.1280296E+00
         21   -1    0    0  501  502  0.00000000000E+00  0.00000000000E+00  0.11467421282E+04  0.11467421282E+04  0.00000000000E+00 0.  1.
         21   -1    0    0  502  503 -0.00000000000E+00 -0.00000000000E+00 -0.14455389869E+03  0.14455389869E+03  0.00000000000E+00 0.  1.
          6    1    1    2  501    0 -0.32312866299E+03 -0.12409032337E+03  0.70184960526E+03  0.80145643025E+03  0.17300000000E+03 0. -1.
         -6    1    1    2    0  503  0.32312866299E+03  0.12409032337E+03  0.30033862424E+03  0.48983959661E+03  0.17300000000E+03 0. -1.
</event>
<event>
 4    1  0.6020852E+000  0.1000000E+03  0.7546771E-02  0.1280296E+00
         21   -1    0    0  501  502  0.00000000000E+00  0.00000000000E+00  0.57398542335E+02  0.57398542335E+02  0.00000000000E+00 0.  1.
         21   -1    0    0  502  503 -0.00000000000E+00 -0.00000000000E+00 -0.10901041123E+04  0.10901041123E+04  0.00000000000E+00 0.  1.
          6    1    1    2  501    0  0.10847558394E+03 -0.13958334718E+03 -0.43080850597E+03  0.49676496650E+03  0.17300000000E+03 0. -1.
         -6    1    1    2    0  503 -0.10847558394E+03  0.13958334718E+03 -0.60189706401E+03  0.65073768816E+03  0.17300000000E+03 0. -1.
</event>
<event>
 4    1  0.6020852E+000  0.1000000E+03  0.7546771E-02  0.1280296E+00
         21   -1    0    0  501  502  0.00000000000E+00  0.00000000000E+00  0.27722316377E+03  0.27722316377E+03  0.00000000000E+00 0. -1.
         21   -1    0    0  502  503 -0.00000000000E+00 -0.00000000000E+00 -0.18437605405E+03  0.18437605405E+03  0.00000000000E+00 0.  1.
          6    1    1    2  501    0 -0.13174601981E+03  0.56739850211E+02  0.21253736341E+02  0.22573689474E+03  0.17300000000E+03 0. -1.
         -6    1    1    2    0  503  0.13174601981E+03 -0.56739850211E+02  0.71593373382E+02  0.23586232308E+03  0.17300000000E+03 0.  1.
</event>
<event>
 4    1  0.6020852E+000  0.1000000E+03  0.7546771E-02  0.1280296E+00
         21   -1    0    0  501  502  0.00000000000E+00  0.00000000000E+00  0.84394945359E+03  0.84394945359E+03  0.00000000000E+00 0. -1.
         21   -1    0    0  502  503 -0.00000000000E+00 -0.00000000000E+00 -0.48504403084E+02  0.48504403084E+02  0.00000000000E+00 0.  1.
          6    1    1    2  501    0  0.31518405048E+02  0.94397904159E+02  0.47093349462E+03  0.51147994146E+03  0.17300000000E+03 0. -1.
         -6    1    1    2    0  503 -0.31518405048E+02 -0.94397904159E+02  0.32451155589E+03  0.38097391521E+03  0.17300000000E+03 0.  1.
</event>
<event>
 4    1  0.6020852E+000  0.1000000E+03  0.7546771E-02  0.1280296E+00
         21   -1    0    0  503  502  0.00000000000E+00  0.00000000000E+00  0.31432356876E+03  0.31432356876E+03  0.00000000000E+00 0.  1.
         21   -1    0    0  501  503 -0.00000000000E+00 -0.00000000000E+00 -0.11795139263E+03  0.11795139263E+03  0.00000000000E+00 0. -1.
          6    1    1    2  501    0 -0.67158671570E+02  0.37956613950E+02  0.59383754211E+02  0.19851050847E+03  0.17300000000E+03 0.  1.
         -6    1    1    2    0  502  0.67158671570E+02 -0.37956613950E+02  0.13698842191E+03  0.23376445292E+03  0.17300000000E+03 0. -1.
</event>
<event>
 4    1  0.6020852E+000  0.1000000E+03  0.7546771E-02  0.1280296E+00
         21   -1    0    0  503  502  0.00000000000E+00  0.00000000000E+00  0.79567065276E+02  0.79567065276E+02  0.00000000000E+00 0.  1.
         21   -1    0    0  501  503 -0.00000000000E+00 -0.00000000000E+00 -0.45694430943E+03  0.45694430943E+03  0.00000000000E+00 0. -1.
          6    1    1    2  501    0 -0.74178540870E+02 -0.23000029550E+02 -0.16064795924E+03  0.24853213895E+03  0.17300000000E+03 0.  1.
         -6    1    1    2    0  502  0.74178540870E+02  0.23000029550E+02 -0.21672928492E+03  0.28797923575E+03  0.17300000000E+03 0. -1.
</event>
<event>
 4    1  0.6020852E+000  0.1000000E+03  0.7546771E-02  0.1280296E+00
         21   -1    0    0  501  502  0.00000000000E+00  0.00000000000E+00  0.20787204168E+03  0.20787204168E+03  0.00000000000E+00 0.  1.
         21   -1    0    0  502  503 -0.00000000000E+00 -0.00000000000E+00 -0.32667561297E+03  0.32667561297E+03  0.00000000000E+00 0.  1.
          6    1    1    2  501    0  0.43855524122E+02 -0.28600580549E+02  0.13312712928E+03  0.22448414811E+03  0.17300000000E+03 0.  1.
         -6    1    1    2    0  503 -0.43855524122E+02  0.28600580549E+02 -0.25193070057E+03  0.31006350655E+03  0.17300000000E+03 0.  1.
</event>
<event>
 4    1  0.6020852E+000  0.1000000E+03  0.7546771E-02  0.1280296E+00
         21   -1    0    0  503  502  0.00000000000E+00  0.00000000000E+00  0.12114877873E+03  0.12114877873E+03  0.00000000000E+00 0. -1.
         21   -1    0    0  501  503 -0.00000000000E+00 -0.00000000000E+00 -0.61579320713E+03  0.61579320713E+03  0.00000000000E+00 0. -1.
          6    1    1    2  501    0  0.29309840155E+02  0.20929575705E+03 -0.24309594654E+03  0.36563427065E+03  0.17300000000E+03 0.  1.
         -6    1    1    2    0  502 -0.29309840155E+02 -0.20929575705E+03 -0.25154848187E+03  0.37130771521E+03  0.17300000000E+03 0.  1.
</event>
<event>
 4    1  0.6020852E+000  0.1000000E+03  0.7546771E-02  0.1280296E+00
         21   -1    0    0  503  502  0.00000000000E+00  0.00000000000E+00  0.16306275517E+03  0.16306275517E+03  0.00000000000E+00 0. -1.
         21   -1    0    0  501  503 -0.00000000000E+00 -0.00000000000E+00 -0.46612242401E+03  0.46612242401E+03  0.00000000000E+00 0. -1.
          6    1    1    2  501    0 -0.56646664220E+02  0.16833838027E+03 -0.28908506217E+03  0.38084882567E+03  0.17300000000E+03 0.  1.
         -6    1    1    2    0  502  0.56646664220E+02 -0.16833838027E+03 -0.13974606666E+02  0.24833635350E+03  0.17300000000E+03 0.  1.
</event>
<event>
 4    1  0.6020852E+000  0.1000000E+03  0.7546771E-02  0.1280296E+00
         21   -1    0    0  503  502  0.00000000000E+00  0.00000000000E+00  0.51803397856E+03  0.51803397856E+03  0.00000000000E+00 0. -1.
         21   -1    0    0  501  503 -0.00000000000E+00 -0.00000000000E+00 -0.71752835616E+02  0.71752835616E+02  0.00000000000E+00 0. -1.
          6    1    1    2  501    0  0.29898395236E+02  0.72169683318E+02  0.17151867854E+03  0.25583204317E+03  0.17300000000E+03 0. -1.
         -6    1    1    2    0  502 -0.29898395236E+02 -0.72169683318E+02  0.27476246441E+03  0.33395477100E+03  0.17300000000E+03 0. -1.
</event>
<event>
 4    1  0.6020852E+000  0.1000000E+03  0.7546771E-02  0.1280296E+00
         21   -1    0    0  503  502  0.00000000000E+00  0.00000000000E+00  0.51494516744E+03  0.51494516744E+03  0.00000000000E+00 0. -1.
         21   -1    0    0  501  503 -0.00000000000E+00 -0.00000000000E+00 -0.18572166497E+03  0.18572166497E+03  0.00000000000E+00 0. -1.
          6    1    1    2  501    0 -0.14196069760E+03 -0.20974623627E+03  0.20937196816E+03  0.37136497458E+03  0.17300000000E+03 0. -1.
         -6    1    1    2    0  502  0.14196069760E+03  0.20974623627E+03  0.11985153431E+03  0.32930185783E+03  0.17300000000E+03 0. -1.
</event>
<event>
 4    1  0.6020852E+000  0.1000000E+03  0.7546771E-02  0.1280296E+00
         21   -1    0    0  503  502  0.00000000000E+00  0.00000000000E+00  0.12106883836E+04  0.12106883836E+04  0.00000000000E+00 0. -1.
         21   -1    0    0  501  503 -0.00000000000E+00 -0.00000000000E+00 -0.85689781042E+02  0.85689781042E+02  0.00000000000E+00 0.  1.
          6    1    1    2  501    0  0.16136269389E+03 -0.83144042182E+02  0.15569060095E+03  0.29515998027E+03  0.17300000000E+03 0.  1.
         -6    1    1    2    0  502 -0.16136269389E+03  0.83144042182E+02  0.96930800156E+03  0.10012181843E+04  0.17300000000E+03 0. -1.
</event>
<event>
 4    1  0.6020852E+000  0.1000000E+03  0.7546771E-02  0.1280296E+00
         21   -1    0    0  503  502  0.00000000000E+00  0.00000000000E+00  0.14489746198E+03  0.14489746198E+03  0.00000000000E+00 0.  1.
         21   -1    0    0  501  503 -0.00000000000E+00 -0.00000000000E+00 -0.37625697740E+03  0.37625697740E+03  0.00000000000E+00 0.  1.
          6    1    1    2  501    0  0.13720694273E+03  0.27836097909E+02 -0.19450663822E+03  0.29557135482E+03  0.17300000000E+03 0.  1.
         -6    1    1    2    0  502 -0.13720694273E+03 -0.27836097909E+02 -0.36852877196E+02  0.22558308456E+03  0.17300000000E+03 0.  1.
</event>
<event>
 4    1  0.6020852E+000  0.1000000E+03  0.7546771E-02  0.1280296E+00
         21   -1    0    0  503  502  0.00000000000E+00  0.00000000000E+00  0.31446807791E+03  0.31446807791E+03  0.00000000000E+00 0. -1.
         21   -1    0    0  501  503 -0.00000000000E+00 -0.00000000000E+00 -0.16664658129E+03  0.16664658129E+03  0.00000000000E+00 0. -1.
          6    1    1    2  501    0 -0.64799389020E+02 -0.21827027140E+02 -0.66289905642E+02  0.19748096496E+03  0.17300000000E+03 0. -1.
         -6    1    1    2    0  502  0.64799389020E+02  0.21827027140E+02  0.21411140226E+03  0.28363369424E+03  0.17300000000E+03 0. -1.
</event>
<event>
 4    1  0.6020852E+000  0.1000000E+03  0.7546771E-02  0.1280296E+00
         21   -1    0    0  503  502  0.00000000000E+00  0.00000000000E+00  0.77335012387E+03  0.77335012387E+03  0.00000000000E+00 0. -1.
         21   -1    0    0  501  503 -0.00000000000E+00 -0.00000000000E+00 -0.29211653441E+03  0.29211653441E+03  0.00000000000E+00 0. -1.
          6    1    1    2  501    0  0.11007023742E+02 -0.18867339798E+03 -0.20808420414E+03  0.33007096463E+03  0.17300000000E+03 0. -1.
         -6    1    1    2    0  502 -0.11007023742E+02  0.18867339798E+03  0.68931779359E+03  0.73539569365E+03  0.17300000000E+03 0. -1.
</event>
<event>
 4    1  0.6020852E+000  0.1000000E+03  0.7546771E-02  0.1280296E+00
         21   -1    0    0  503  502  0.00000000000E+00  0.00000000000E+00  0.61612324612E+02  0.61612324612E+02  0.00000000000E+00 0. -1.
         21   -1    0    0  501  503 -0.00000000000E+00 -0.00000000000E+00 -0.50012025185E+03  0.50012025185E+03  0.00000000000E+00 0. -1.
          6    1    1    2  501    0  0.26959962359E+01  0.28643167569E+02 -0.20718757514E+03  0.27144684698E+03  0.17300000000E+03 0. -1.
         -6    1    1    2    0  502 -0.26959962359E+01 -0.28643167569E+02 -0.23132035209E+03  0.29028572947E+03  0.17300000000E+03 0. -1.
</event>
<event>
 4    1  0.6020852E+000  0.1000000E+03  0.7546771E-02  0.1280296E+00
         21   -1    0    0  503  502  0.00000000000E+00  0.00000000000E+00  0.27638432241E+03  0.27638432241E+03  0.00000000000E+00 0. -1.
         21   -1    0    0  501  503 -0.00000000000E+00 -0.00000000000E+00 -0.25477727884E+03  0.25477727884E+03  0.00000000000E+00 0. -1.
          6    1    1    2  501    0 -0.11217853921E+03  0.16688296969E+03  0.34834114988E+01  0.26528302695E+03  0.17300000000E+03 0. -1.
         -6    1    1    2    0  502  0.11217853921E+03 -0.16688296969E+03  0.18123632066E+02  0.26587857430E+03  0.17300000000E+03 0. -1.
</event>
<event>
 4    1  0.6020852E+000  0.1000000E+03  0.7546771E-02  0.1280296E+00
         21   -1    0    0  503  502  0.00000000000E+00  0.00000000000E+00  0.60565362803E+02  0.60565362803E+02  0.00000000000E+00 0. -1.
         21   -1    0    0  501  503 -0.00000000000E+00 -0.00000000000E+00 -0.66663138712E+03  0.66663138712E+03  0.00000000000E+00 0. -1.
          6    1    1    2  501    0 -0.96504462982E+02 -0.23990454341E+01 -0.24228801021E+03  0.31297179855E+03  0.17300000000E+03 0. -1.
         -6    1    1    2    0  502  0.96504462982E+02  0.23990454341E+01 -0.36377801411E+03  0.41422495137E+03  0.17300000000E+03 0. -1.
</event>
<event>
 4    1  0.6020852E+000  0.1000000E+03  0.7546771E-02  0.1280296E+00
         21   -1    0    0  503  502  0.00000000000E+00  0.00000000000E+00  0.45616655481E+03  0.45616655481E+03  0.00000000000E+00 0. -1.
         21   -1    0    0  501  503 -0.00000000000E+00 -0.00000000000E+00 -0.20770831340E+03  0.20770831340E+03  0.00000000000E+00 0. -1.
          6    1    1    2  501    0  0.12571539078E+03  0.18789854204E+03 -0.20385205157E+01  0.28468118509E+03  0.17300000000E+03 0. -1.
         -6    1    1    2    0  502 -0.12571539078E+03 -0.18789854204E+03  0.25049676192E+03  0.37919368312E+03  0.17300000000E+03 0. -1.
</event>
<event>
 4    1  0.6020852E+000  0.1000000E+03  0.7546771E-02  0.1280296E+00
         21   -1    0    0  503  502  0.00000000000E+00  0.00000000000E+00  0.59773442891E+02  0.59773442891E+02  0.00000000000E+00 0. -1.
         21   -1    0    0  501  503 -0.00000000000E+00 -0.00000000000E+00 -0.68488983735E+03  0.68488983735E+03  0.00000000000E+00 0. -1.
          6    1    1    2  501    0  0.74881162147E+02 -0.69550906551E+02 -0.35628793295E+03  0.40904108377E+03  0.17300000000E+03 0. -1.
         -6    1    1    2    0  502 -0.74881162147E+02  0.69550906551E+02 -0.26882846152E+03  0.33562219648E+03  0.17300000000E+03 0. -1.
</event>
<event>
 4    1  0.6020852E+000  0.1000000E+03  0.7546771E-02  0.1280296E+00
         21   -1    0    0  501  502  0.00000000000E+00  0.00000000000E+00  0.38893104209E+02  0.38893104209E+02  0.00000000000E+00 0. -1.
         21   -1    0    0  502  503 -0.00000000000E+00 -0.00000000000E+00 -0.12581649685E+04  0.12581649685E+04  0.00000000000E+00 0. -1.
          6    1    1    2  501    0  0.56427025372E+02 -0.12460748318E+03 -0.65989673496E+03  0.69577563544E+03  0.17300000000E+03 0. -1.
         -6    1    1    2    0  503 -0.56427025372E+02  0.12460748318E+03 -0.55937512930E+03  0.60128243724E+03  0.17300000000E+03 0. -1.
</event>
<event>
 4    1  0.6020852E+000  0.1000000E+03  0.7546771E-02  0.1280296E+00
         21   -1    0    0  501  502  0.00000000000E+00  0.00000000000E+00  0.14838702038E+03  0.14838702038E+03  0.00000000000E+00 0. -1.
         21   -1    0    0  502  503 -0.00000000000E+00 -0.00000000000E+00 -0.50898754412E+03  0.50898754412E+03  0.00000000000E+00 0. -1.
          6    1    1    2  501    0 -0.17986860092E+03 -0.69317679321E+02 -0.70421130632E+02  0.26841346819E+03  0.17300000000E+03 0. -1.
         -6    1    1    2    0  503  0.17986860092E+03  0.69317679321E+02 -0.29017939310E+03  0.38896109631E+03  0.17300000000E+03 0. -1.
</event>
<event>
 4    1  0.6020852E+000  0.1000000E+03  0.7546771E-02  0.1280296E+00
         21   -1    0    0  503  502  0.00000000000E+00  0.00000000000E+00  0.15064972044E+03  0.15064972044E+03  0.00000000000E+00 0.  1.
         21   -1    0    0  501  503 -0.00000000000E+00 -0.00000000000E+00 -0.35897554165E+03  0.35897554165E+03  0.00000000000E+00 0. -1.
          6    1    1    2  501    0  0.86376034225E+02 -0.28323873822E+02 -0.24227515796E+03  0.31127048251E+03  0.17300000000E+03 0. -1.
         -6    1    1    2    0  502 -0.86376034225E+02  0.28323873822E+02  0.33949336757E+02  0.19835477958E+03  0.17300000000E+03 0.  1.
</event>
<event>
 4    1  0.6020852E+000  0.1000000E+03  0.7546771E-02  0.1280296E+00
         21   -1    0    0  503  502  0.00000000000E+00  0.00000000000E+00  0.46858246496E+03  0.46858246496E+03  0.00000000000E+00 0.  1.
         21   -1    0    0  501  503 -0.00000000000E+00 -0.00000000000E+00 -0.10462755243E+03  0.10462755243E+03  0.00000000000E+00 0. -1.
          6    1    1    2  501    0 -0.10615547749E+03  0.86566831323E+02  0.15829193337E+03  0.27156608377E+03  0.17300000000E+03 0. -1.
         -6    1    1    2    0  502  0.10615547749E+03 -0.86566831323E+02  0.20566297916E+03  0.30164393361E+03  0.17300000000E+03 0.  1.
</event>
<event>
 4    1  0.6020852E+000  0.1000000E+03  0.7546771E-02  0.1280296E+00
         21   -1    0    0  501  502  0.00000000000E+00  0.00000000000E+00  0.20805589579E+03  0.20805589579E+03  0.00000000000E+00 0. -1.
         21   -1    0    0  502  503 -0.00000000000E+00 -0.00000000000E+00 -0.33405620090E+03  0.33405620090E+03  0.00000000000E+00 0.  1.
          6    1    1    2  501    0 -0.46592538639E+02  0.12890109398E+01  0.13583811684E+03  0.22484109987E+03  0.17300000000E+03 0. -1.
         -6    1    1    2    0  503  0.46592538639E+02 -0.12890109398E+01 -0.26183842195E+03  0.31727099681E+03  0.17300000000E+03 0.  1.
</event>
<event>
 4    1  0.6020852E+000  0.1000000E+03  0.7546771E-02  0.1280296E+00
         21   -1    0    0  501  502  0.00000000000E+00  0.00000000000E+00  0.12040921391E+04  0.12040921391E+04  0.00000000000E+00 0. -1.
         21   -1    0    0  502  503 -0.00000000000E+00 -0.00000000000E+00 -0.32533290786E+03  0.32533290786E+03  0.00000000000E+00 0.  1.
          6    1    1    2  501    0  0.12151480106E+03 -0.23485934792E+03  0.10994713716E+04  0.11439803570E+04  0.17300000000E+03 0. -1.
         -6    1    1    2    0  503 -0.12151480106E+03  0.23485934792E+03 -0.22071214032E+03  0.38544469002E+03  0.17300000000E+03 0.  1.
</event>
<event>
 4    1  0.6020852E+000  0.1000000E+03  0.7546771E-02  0.1280296E+00
         21   -1    0    0  501  502  0.00000000000E+00  0.00000000000E+00  0.18145303952E+03  0.18145303952E+03  0.00000000000E+00 0. -1.
         21   -1    0    0  502  503 -0.00000000000E+00 -0.00000000000E+00 -0.32306456126E+03  0.32306456126E+03  0.00000000000E+00 0.  1.
          6    1    1    2  501    0  0.10464182335E+03 -0.97362769225E+02  0.23900481360E+02  0.22567599127E+03  0.17300000000E+03 0. -1.
         -6    1    1    2    0  503 -0.10464182335E+03  0.97362769225E+02 -0.16551200310E+03  0.27884160951E+03  0.17300000000E+03 0.  1.
</event>
<event>
 4    1  0.6020852E+000  0.1000000E+03  0.7546771E-02  0.1280296E+00
         21   -1    0    0  501  502  0.00000000000E+00  0.00000000000E+00  0.38733365610E+02  0.38733365610E+02  0.00000000000E+00 0. -1.
         21   -1    0    0  502  503 -0.00000000000E+00 -0.00000000000E+00 -0.97020170258E+03  0.97020170258E+03  0.00000000000E+00 0.  1.
          6    1    1    2  501    0  0.21584506502E+02  0.81004050844E+01 -0.24617124161E+03  0.30176280036E+03  0.17300000000E+03 0. -1.
         -6    1    1    2    0  503 -0.21584506502E+02 -0.81004050844E+01 -0.68529709536E+03  0.70717226783E+03  0.17300000000E+03 0.  1.
</event>
<event>
 4    1  0.6020852E+000  0.1000000E+03  0.7546771E-02  0.1280296E+00
         21   -1    0    0  501  502  0.00000000000E+00  0.00000000000E+00  0.12798863872E+04  0.12798863872E+04  0.00000000000E+00 0.  1.
         21   -1    0    0  502  503 -0.00000000000E+00 -0.00000000000E+00 -0.34872307883E+02  0.34872307883E+02  0.00000000000E+00 0.  1.
          6    1    1    2  501    0  0.49243558941E+02 -0.99068643458E+02  0.77696714957E+03  0.80364574019E+03  0.17300000000E+03 0.  1.
         -6    1    1    2    0  503 -0.49243558941E+02  0.99068643458E+02  0.46804692975E+03  0.51111295489E+03  0.17300000000E+03 0.  1.
</event>
<event>
 4    1  0.6020852E+000  0.1000000E+03  0.7546771E-02  0.1280296E+00
         21   -1    0    0  501  502  0.00000000000E+00  0.00000000000E+00  0.22657878005E+02  0.22657878005E+02  0.00000000000E+00 0.  1.
         21   -1    0    0  502  503 -0.00000000000E+00 -0.00000000000E+00 -0.17089838552E+04  0.17089838552E+04  0.00000000000E+00 0.  1.
          6    1    1    2  501    0  0.35481530052E+02  0.72249000725E+02 -0.63150257885E+03  0.65969944988E+03  0.17300000000E+03 0.  1.
         -6    1    1    2    0  503 -0.35481530052E+02 -0.72249000725E+02 -0.10548233984E+04  0.10719422833E+04  0.17300000000E+03 0.  1.
</event>
<event>
 4    1  0.6020852E+000  0.1000000E+03  0.7546771E-02  0.1280296E+00
         21   -1    0    0  501  502  0.00000000000E+00  0.00000000000E+00  0.11839883868E+03  0.11839883868E+03  0.00000000000E+00 0.  1.
         21   -1    0    0  502  503 -0.00000000000E+00 -0.00000000000E+00 -0.39525269562E+03  0.39525269562E+03  0.00000000000E+00 0.  1.
          6    1    1    2  501    0 -0.12565794001E+02 -0.22852962087E+02  0.12625640578E+02  0.17540970285E+03  0.17300000000E+03 0.  1.
         -6    1    1    2    0  503  0.12565794001E+02  0.22852962087E+02 -0.28947949753E+03  0.33824183145E+03  0.17300000000E+03 0.  1.
</event>
<event>
 4    1  0.6020852E+000  0.1000000E+03  0.7546771E-02  0.1280296E+00
         21   -1    0    0  503  502  0.00000000000E+00  0.00000000000E+00  0.42155211903E+03  0.42155211903E+03  0.00000000000E+00 0.  1.
         21   -1    0    0  501  503 -0.00000000000E+00 -0.00000000000E+00 -0.14177399302E+03  0.14177399302E+03  0.00000000000E+00 0.  1.
          6    1    1    2  501    0  0.75147760819E+02 -0.45419070493E+02 -0.31490053845E+02  0.19654694455E+03  0.17300000000E+03 0.  1.
         -6    1    1    2    0  502 -0.75147760819E+02  0.45419070493E+02  0.31126817986E+03  0.36677916750E+03  0.17300000000E+03 0.  1.
</event>
<event>
 4    1  0.6020852E+000  0.1000000E+03  0.7546771E-02  0.1280296E+00
         21   -1    0    0  503  502  0.00000000000E+00  0.00000000000E+00  0.14342506296E+03  0.14342506296E+03  0.00000000000E+00 0.  1.
         21   -1    0    0  501  503 -0.00000000000E+00 -0.00000000000E+00 -0.64181436907E+03  0.64181436907E+03  0.00000000000E+00 0.  1.
          6    1    1    2  501    0 -0.24470824440E+03  0.43866282186E+02 -0.27223078777E+03  0.40724068731E+03  0.17300000000E+03 0.  1.
         -6    1    1    2    0  502  0.24470824440E+03 -0.43866282186E+02 -0.22615851835E+03  0.37799874472E+03  0.17300000000E+03 0.  1.
</event>
<event>
 4    1  0.6020852E+000  0.1000000E+03  0.7546771E-02  0.1280296E+00
         21   -1    0    0  503  502  0.00000000000E+00  0.00000000000E+00  0.49855118743E+03  0.49855118743E+03  0.00000000000E+00 0.  1.
         21   -1    0    0  501  503 -0.00000000000E+00 -0.00000000000E+00 -0.83651868522E+02  0.83651868522E+02  0.00000000000E+00 0.  1.
          6    1    1    2  501    0  0.43369143909E+02 -0.20068277093E+02  0.68571678407E+02  0.19213196889E+03  0.17300000000E+03 0.  1.
         -6    1    1    2    0  502 -0.43369143909E+02  0.20068277093E+02  0.34632764050E+03  0.39007108706E+03  0.17300000000E+03 0.  1.
</event>
<event>
 4    1  0.6020852E+000  0.1000000E+03  0.7546771E-02  0.1280296E+00
         21   -1    0    0  503  502  0.00000000000E+00  0.00000000000E+00  0.35637919666E+03  0.35637919666E+03  0.00000000000E+00 0.  1.
         21   -1    0    0  501  503 -0.00000000000E+00 -0.00000000000E+00 -0.18468218096E+03  0.18468218096E+03  0.00000000000E+00 0.  1.
          6    1    1    2  501    0  0.18836953509E+03  0.16317624938E+02  0.73436658762E+02  0.26659199066E+03  0.17300000000E+03 0.  1.
         -6    1    1    2    0  502 -0.18836953509E+03 -0.16317624938E+02  0.98260356933E+02  0.27446938696E+03  0.17300000000E+03 0.  1.
</event>
<event>
 4    1  0.6020852E+000  0.1000000E+03  0.7546771E-02  0.1280296E+00
         21   -1    0    0  501  502  0.00000000000E+00  0.00000000000E+00  0.20387710420E+03  0.20387710420E+03  0.00000000000E+00 0. -1.
         21   -1    0    0  502  503 -0.00000000000E+00 -0.00000000000E+00 -0.19161611494E+03  0.19161611494E+03  0.00000000000E+00 0. -1.
          6    1    1    2  501    0 -0.46318710280E+02 -0.66991856172E+01  0.89518261822E+02  0.20033177783E+03  0.17300000000E+03 0. -1.
         -6    1    1    2    0  503  0.46318710280E+02  0.66991856172E+01 -0.77257272554E+02  0.19516144131E+03  0.17300000000E+03 0. -1.
</event>
<event>
 4    1  0.6020852E+000  0.1000000E+03  0.7546771E-02  0.1280296E+00
         21   -1    0    0  503  502  0.00000000000E+00  0.00000000000E+00  0.31096350384E+03  0.31096350384E+03  0.00000000000E+00 0.  1.
         21   -1    0    0  501  503 -0.00000000000E+00 -0.00000000000E+00 -0.40335760731E+03  0.40335760731E+03  0.00000000000E+00 0.  1.
          6    1    1    2  501    0 -0.12988384862E+03  0.82212737527E+02  0.22416314419E+03  0.32219072544E+03  0.17300000000E+03 0.  1.
         -6    1    1    2    0  502  0.12988384862E+03 -0.82212737527E+02 -0.31655724766E+03  0.39213038570E+03  0.17300000000E+03 0.  1.
</event>
<event>
 4    1  0.6020852E+000  0.1000000E+03  0.7546771E-02  0.1280296E+00
         21   -1    0    0  501  502  0.00000000000E+00  0.00000000000E+00  0.21079714519E+03  0.21079714519E+03  0.00000000000E+00 0.  1.
         21   -1    0    0  502  503 -0.00000000000E+00 -0.00000000000E+00 -0.23282925332E+03  0.23282925332E+03  0.00000000000E+00 0.  1.
          6    1    1    2  501    0  0.91215507455E+02 -0.47089592947E+02  0.81905094039E+02  0.21719839547E+03  0.17300000000E+03 0.  1.
         -6    1    1    2    0  503 -0.91215507455E+02  0.47089592947E+02 -0.10393720217E+03  0.22642800304E+03  0.17300000000E+03 0.  1.
</event>
<event>
 4    1  0.6020852E+000  0.1000000E+03  0.7546771E-02  0.1280296E+00
         21   -1    0    0  503  502  0.00000000000E+00  0.00000000000E+00  0.54792870353E+03  0.54792870353E+03  0.00000000000E+00 0.  1.
         21   -1    0    0  501  503 -0.00000000000E+00 -0.00000000000E+00 -0.74094909451E+02  0.74094909451E+02  0.00000000000E+00 0.  1.
          6    1    1    2  501    0  0.30333338789E+02 -0.88777888669E+02  0.30363152060E+03  0.36183245468E+03  0.17300000000E+03 0.  1.
         -6    1    1    2    0  502 -0.30333338789E+02  0.88777888669E+02  0.17020227347E+03  0.26019115829E+03  0.17300000000E+03 0.  1.
</event>
<event>
 4    1  0.6020852E+000  0.1000000E+03  0.7546771E-02  0.1280296E+00
         21   -1    0    0  501  502  0.00000000000E+00  0.00000000000E+00  0.64198051448E+03  0.64198051448E+03  0.00000000000E+00 0.  1.
         21   -1    0    0  502  503 -0.00000000000E+00 -0.00000000000E+00 -0.15696092655E+03  0.15696092655E+03  0.00000000000E+00 0. -1.
          6    1    1    2  501    0 -0.16477966191E+03 -0.15003863526E+03  0.42562259511E+03  0.51063443139E+03  0.17300000000E+03 0.  1.
         -6    1    1    2    0  503  0.16477966191E+03  0.15003863526E+03  0.59396992826E+02  0.28830700964E+03  0.17300000000E+03 0. -1.
</event>
<event>
 4    1  0.6020852E+000  0.1000000E+03  0.7546771E-02  0.1280296E+00
         21   -1    0    0  501  502  0.00000000000E+00  0.00000000000E+00  0.29377423978E+03  0.29377423978E+03  0.00000000000E+00 0.  1.
         21   -1    0    0  502  503 -0.00000000000E+00 -0.00000000000E+00 -0.35071434924E+03  0.35071434924E+03  0.00000000000E+00 0. -1.
          6    1    1    2  501    0 -0.15735315344E+03  0.56469710093E+02  0.18485649561E+03  0.30339704518E+03  0.17300000000E+03 0.  1.
         -6    1    1    2    0  503  0.15735315344E+03 -0.56469710093E+02 -0.24179660507E+03  0.34109154384E+03  0.17300000000E+03 0. -1.
</event>
<event>
 4    1  0.6020852E+000  0.1000000E+03  0.7546771E-02  0.1280296E+00
         21   -1    0    0  501  502  0.00000000000E+00  0.00000000000E+00  0.42949026439E+03  0.42949026439E+03  0.00000000000E+00 0.  1.
         21   -1    0    0  502  503 -0.00000000000E+00 -0.00000000000E+00 -0.32010554041E+03  0.32010554041E+03  0.00000000000E+00 0. -1.
          6    1    1    2  501    0 -0.79086421495E+02  0.21613260346E+03  0.29085519040E+03  0.40925994933E+03  0.17300000000E+03 0.  1.
         -6    1    1    2    0  503  0.79086421495E+02 -0.21613260346E+03 -0.18147046642E+03  0.34033585548E+03  0.17300000000E+03 0. -1.
</event>
<event>
 4    1  0.6020852E+000  0.1000000E+03  0.7546771E-02  0.1280296E+00
         21   -1    0    0  501  502  0.00000000000E+00  0.00000000000E+00  0.30627365882E+03  0.30627365882E+03  0.00000000000E+00 0.  1.
         21   -1    0    0  502  503 -0.00000000000E+00 -0.00000000000E+00 -0.16444569713E+03  0.16444569713E+03  0.00000000000E+00 0. -1.
          6    1    1    2  501    0  0.10151447149E+03 -0.81962485454E+02  0.13218516724E+03  0.25382071504E+03  0.17300000000E+03 0.  1.
         -6    1    1    2    0  503 -0.10151447149E+03  0.81962485454E+02  0.96427944532E+01  0.21689864091E+03  0.17300000000E+03 0. -1.
</event>
<event>
 4    1  0.6020852E+000  0.1000000E+03  0.7546771E-02  0.1280296E+00
         21   -1    0    0  501  502  0.00000000000E+00  0.00000000000E+00  0.28131629189E+04  0.28131629189E+04  0.00000000000E+00 0.  1.
         21   -1    0    0  502  503 -0.00000000000E+00 -0.00000000000E+00 -0.13996264137E+02  0.13996264137E+02  0.00000000000E+00 0. -1.
          6    1    1    2  501    0 -0.35713870331E+02  0.29345200783E+02  0.20085878021E+04  0.20165541352E+04  0.17300000000E+03 0.  1.
         -6    1    1    2    0  503  0.35713870331E+02 -0.29345200783E+02  0.79057885271E+03  0.81060504791E+03  0.17300000000E+03 0. -1.
</event>
<event>
 4    1  0.6020852E+000  0.1000000E+03  0.7546771E-02  0.1280296E+00
         21   -1    0    0  501  502  0.00000000000E+00  0.00000000000E+00  0.19214494532E+03  0.19214494532E+03  0.00000000000E+00 0.  1.
         21   -1    0    0  502  503 -0.00000000000E+00 -0.00000000000E+00 -0.17969172960E+03  0.17969172960E+03  0.00000000000E+00 0. -1.
          6    1    1    2  501    0 -0.50344979345E+01 -0.55743190717E+00 -0.61429395873E+02  0.18365246412E+03  0.17300000000E+03 0.  1.
         -6    1    1    2    0  503  0.50344979345E+01  0.55743190717E+00  0.73882611588E+02  0.18818421080E+03  0.17300000000E+03 0. -1.
</event>
<event>
 4    1  0.6020852E+000  0.1000000E+03  0.7546771E-02  0.1280296E+00
         21   -1    0    0  501  502  0.00000000000E+00  0.00000000000E+00  0.30880989742E+02  0.30880989742E+02  0.00000000000E+00 0. -1.
         21   -1    0    0  502  503 -0.00000000000E+00 -0.00000000000E+00 -0.17543933253E+04  0.17543933253E+04  0.00000000000E+00 0. -1.
          6    1    1    2  501    0  0.10513708240E+03 -0.10206823861E+03 -0.65967396223E+03  0.69754603280E+03  0.17300000000E+03 0. -1.
         -6    1    1    2    0  503 -0.10513708240E+03  0.10206823861E+03 -0.10638383733E+04  0.10877282823E+04  0.17300000000E+03 0. -1.
</event>
<event>
 4    1  0.6020852E+000  0.1000000E+03  0.7546771E-02  0.1280296E+00
         21   -1    0    0  503  502  0.00000000000E+00  0.00000000000E+00  0.10582277939E+03  0.10582277939E+03  0.00000000000E+00 0.  1.
         21   -1    0    0  501  503 -0.00000000000E+00 -0.00000000000E+00 -0.52077433580E+03  0.52077433580E+03  0.00000000000E+00 0.  1.
          6    1    1    2  501    0 -0.13216672702E+03  0.22815178663E+02 -0.32065722806E+03  0.38825073601E+03  0.17300000000E+03 0.  1.
         -6    1    1    2    0  502  0.13216672702E+03 -0.22815178663E+02 -0.94294328356E+02  0.23834637918E+03  0.17300000000E+03 0.  1.
</event>
<event>
 4    1  0.6020852E+000  0.1000000E+03  0.7546771E-02  0.1280296E+00
         21   -1    0    0  503  502  0.00000000000E+00  0.00000000000E+00  0.30635697511E+03  0.30635697511E+03  0.00000000000E+00 0.  1.
         21   -1    0    0  501  503 -0.00000000000E+00 -0.00000000000E+00 -0.12323913043E+03  0.12323913043E+03  0.00000000000E+00 0.  1.
          6    1    1    2  501    0 -0.70504656800E+01 -0.12553357593E+01 -0.59151368258E+01  0.17324916675E+03  0.17300000000E+03 0.  1.
         -6    1    1    2    0  502  0.70504656800E+01  0.12553357593E+01  0.18903298151E+03  0.25634693880E+03  0.17300000000E+03 0.  1.
</event>
<event>
 4    1  0.6020852E+000  0.1000000E+03  0.7546771E-02  0.1280296E+00
         21   -1    0    0  501  502  0.00000000000E+00  0.00000000000E+00  0.26903391315E+03  0.26903391315E+03  0.00000000000E+00 0.  1.
         21   -1    0    0  502  503 -0.00000000000E+00 -0.00000000000E+00 -0.13635037636E+03  0.13635037636E+03  0.00000000000E+00 0.  1.
          6    1    1    2  501    0  0.22076579234E+02 -0.60443772030E+02  0.12244028049E+02  0.18498578635E+03  0.17300000000E+03 0.  1.
         -6    1    1    2    0  503 -0.22076579234E+02  0.60443772030E+02  0.12043950874E+03  0.22039850316E+03  0.17300000000E+03 0.  1.
</event>
<event>
 4    1  0.6020852E+000  0.1000000E+03  0.7546771E-02  0.1280296E+00
         21   -1    0    0  501  502  0.00000000000E+00  0.00000000000E+00  0.91444234182E+03  0.91444234182E+03  0.00000000000E+00 0.  1.
         21   -1    0    0  502  503 -0.00000000000E+00 -0.00000000000E+00 -0.59002248368E+02  0.59002248368E+02  0.00000000000E+00 0.  1.
          6    1    1    2  501    0 -0.22458986069E+02  0.79595559784E+02  0.15302723709E+03  0.24532874777E+03  0.17300000000E+03 0.  1.
         -6    1    1    2    0  503  0.22458986069E+02 -0.79595559784E+02  0.70241285636E+03  0.72811584242E+03  0.17300000000E+03 0.  1.
</event>
<event>
 4    1  0.6020852E+000  0.1000000E+03  0.7546771E-02  0.1280296E+00
         21   -1    0    0  501  502  0.00000000000E+00  0.00000000000E+00  0.45487668220E+03  0.45487668220E+03  0.00000000000E+00 0.  1.
         21   -1    0    0  502  503 -0.00000000000E+00 -0.00000000000E+00 -0.75303716175E+02  0.75303716175E+02  0.00000000000E+00 0.  1.
          6    1    1    2  501    0  0.42923643311E+02 -0.49805611796E+02  0.18782968163E+03  0.26368926300E+03  0.17300000000E+03 0.  1.
         -6    1    1    2    0  503 -0.42923643311E+02  0.49805611796E+02  0.19174328439E+03  0.26649113537E+03  0.17300000000E+03 0.  1.
</event>
<event>
 4    1  0.6020852E+000  0.1000000E+03  0.7546771E-02  0.1280296E+00
         21   -1    0    0  501  502  0.00000000000E+00  0.00000000000E+00  0.11974686134E+03  0.11974686134E+03  0.00000000000E+00 0.  1.
         21   -1    0    0  502  503 -0.00000000000E+00 -0.00000000000E+00 -0.80700715759E+03  0.80700715759E+03  0.00000000000E+00 0.  1.
          6    1    1    2  501    0  0.11621453483E+03 -0.14830437436E+03 -0.80304181706E+02  0.26810029310E+03  0.17300000000E+03 0.  1.
         -6    1    1    2    0  503 -0.11621453483E+03  0.14830437436E+03 -0.60695611455E+03  0.65865372583E+03  0.17300000000E+03 0.  1.
</event>
<event>
 4    1  0.6020852E+000  0.1000000E+03  0.7546771E-02  0.1280296E+00
         21   -1    0    0  503  502  0.00000000000E+00  0.00000000000E+00  0.39847361686E+03  0.39847361686E+03  0.00000000000E+00 0. -1.
         21   -1    0    0  501  503 -0.00000000000E+00 -0.00000000000E+00 -0.19307789902E+03  0.19307789902E+03  0.00000000000E+00 0. -1.
          6    1    1    2  501    0  0.77032300751E+02  0.33060097236E+02 -0.11051855599E+03  0.22174376340E+03  0.17300000000E+03 0. -1.
         -6    1    1    2    0  502 -0.77032300751E+02 -0.33060097236E+02  0.31591427383E+03  0.36980775249E+03  0.17300000000E+03 0. -1.
</event>
<event>
 4    1  0.6020852E+000  0.1000000E+03  0.7546771E-02  0.1280296E+00
         21   -1    0    0  503  502  0.00000000000E+00  0.00000000000E+00  0.29563318138E+03  0.29563318138E+03  0.00000000000E+00 0. -1.
         21   -1    0    0  501  503 -0.00000000000E+00 -0.00000000000E+00 -0.12005737103E+04  0.12005737103E+04  0.00000000000E+00 0. -1.
          6    1    1    2  501    0 -0.10925719387E+03 -0.16635936274E+03 -0.11232939596E+04  0.11538331299E+04  0.17300000000E+03 0. -1.
         -6    1    1    2    0  502  0.10925719387E+03  0.16635936274E+03  0.21835343076E+03  0.34237376171E+03  0.17300000000E+03 0. -1.
</event>
<event>
 4    1  0.6020852E+000  0.1000000E+03  0.7546771E-02  0.1280296E+00
         21   -1    0    0  503  502  0.00000000000E+00  0.00000000000E+00  0.21397965940E+03  0.21397965940E+03  0.00000000000E+00 0. -1.
         21   -1    0    0  501  503 -0.00000000000E+00 -0.00000000000E+00 -0.19691613597E+03  0.19691613597E+03  0.00000000000E+00 0. -1.
          6    1    1    2  501    0 -0.15389355112E+02  0.53538649330E+02  0.10402812576E+03  0.20941363416E+03  0.17300000000E+03 0. -1.
         -6    1    1    2    0  502  0.15389355112E+02 -0.53538649330E+02 -0.86964602335E+02  0.20148216120E+03  0.17300000000E+03 0. -1.
</event>
<event>
 4    1  0.6020852E+000  0.1000000E+03  0.7546771E-02  0.1280296E+00
         21   -1    0    0  503  502  0.00000000000E+00  0.00000000000E+00  0.16617594260E+04  0.16617594260E+04  0.00000000000E+00 0. -1.
         21   -1    0    0  501  503 -0.00000000000E+00 -0.00000000000E+00 -0.69571288104E+02  0.69571288104E+02  0.00000000000E+00 0. -1.
          6    1    1    2  501    0 -0.24749746440E+03 -0.93534611215E+02  0.47730999081E+03  0.57250113162E+03  0.17300000000E+03 0. -1.
         -6    1    1    2    0  502  0.24749746440E+03  0.93534611215E+02  0.11148781470E+04  0.11588295824E+04  0.17300000000E+03 0. -1.
</event>
<event>
 4    1  0.6020852E+000  0.1000000E+03  0.7546771E-02  0.1280296E+00
         21   -1    0    0  503  502  0.00000000000E+00  0.00000000000E+00  0.33249105123E+03  0.33249105123E+03  0.00000000000E+00 0.  1.
         21   -1    0    0  501  503 -0.00000000000E+00 -0.00000000000E+00 -0.28400154985E+03  0.28400154985E+03  0.00000000000E+00 0.  1.
          6    1    1    2  501    0  0.61122288235E+02 -0.12065471989E+03 -0.19137784640E+03  0.29128675844E+03  0.17300000000E+03 0.  1.
         -6    1    1    2    0  502 -0.61122288235E+02  0.12065471989E+03  0.23986734778E+03  0.32520584263E+03  0.17300000000E+03 0.  1.
</event>
<event>
 4    1  0.6020852E+000  0.1000000E+03  0.7546771E-02  0.1280296E+00
         21   -1    0    0  503  502  0.00000000000E+00  0.00000000000E+00  0.11244914800E+04  0.11244914800E+04  0.00000000000E+00 0. -1.
         21   -1    0    0  501  503 -0.00000000000E+00 -0.00000000000E+00 -0.39662600578E+02  0.39662600578E+02  0.00000000000E+00 0. -1.
          6    1    1    2  501    0 -0.65048181475E+02  0.31992301163E+02  0.27495609113E+03  0.33284324433E+03  0.17300000000E+03 0. -1.
         -6    1    1    2    0  502  0.65048181475E+02 -0.31992301163E+02  0.80987278833E+03  0.83131083628E+03  0.17300000000E+03 0. -1.
</event>
<event>
 4    1  0.6020852E+000  0.1000000E+03  0.7546771E-02  0.1280296E+00
         21   -1    0    0  503  502  0.00000000000E+00  0.00000000000E+00  0.85745596892E+03  0.85745596892E+03  0.00000000000E+00 0. -1.
         21   -1    0    0  501  503 -0.00000000000E+00 -0.00000000000E+00 -0.14292061933E+03  0.14292061933E+03  0.00000000000E+00 0. -1.
          6    1    1    2  501    0  0.28389651783E+02  0.23904731507E+03  0.91223197315E+02  0.31016167220E+03  0.17300000000E+03 0. -1.
         -6    1    1    2    0  502 -0.28389651783E+02 -0.23904731507E+03  0.62331215227E+03  0.69021491605E+03  0.17300000000E+03 0. -1.
</event>
<event>
 4    1  0.6020852E+000  0.1000000E+03  0.7546771E-02  0.1280296E+00
         21   -1    0    0  503  502  0.00000000000E+00  0.00000000000E+00  0.66467746543E+02  0.66467746543E+02  0.00000000000E+00 0. -1.
         21   -1    0    0  501  503 -0.00000000000E+00 -0.00000000000E+00 -0.83892630533E+03  0.83892630533E+03  0.00000000000E+00 0. -1.
          6    1    1    2  501    0 -0.10480934219E+03 -0.12184427191E+03 -0.38858987603E+03  0.45471102533E+03  0.17300000000E+03 0. -1.
         -6    1    1    2    0  502  0.10480934219E+03  0.12184427191E+03 -0.38386868276E+03  0.45068302654E+03  0.17300000000E+03 0. -1.
</event>
<event>
 4    1  0.6020852E+000  0.1000000E+03  0.7546771E-02  0.1280296E+00
         21   -1    0    0  501  502  0.00000000000E+00  0.00000000000E+00  0.28202392119E+03  0.28202392119E+03  0.00000000000E+00 0. -1.
         21   -1    0    0  502  503 -0.00000000000E+00 -0.00000000000E+00 -0.14106522458E+03  0.14106522458E+03  0.00000000000E+00 0.  1.
          6    1    1    2  501    0 -0.10314128024E+02  0.58948295283E+02  0.15448400578E+03  0.23953202457E+03  0.17300000000E+03 0.  1.
         -6    1    1    2    0  503  0.10314128024E+02 -0.58948295283E+02 -0.13525309172E+02  0.18355712120E+03  0.17300000000E+03 0. -1.
</event>
<event>
 4    1  0.6020852E+000  0.1000000E+03  0.7546771E-02  0.1280296E+00
         21   -1    0    0  503  502  0.00000000000E+00  0.00000000000E+00  0.11215693222E+04  0.11215693222E+04  0.00000000000E+00 0. -1.
         21   -1    0    0  501  503 -0.00000000000E+00 -0.00000000000E+00 -0.41974382362E+02  0.41974382362E+02  0.00000000000E+00 0. -1.
          6    1    1    2  501    0 -0.33760287072E+02  0.70195954346E+02  0.25754614051E+03  0.31988473468E+03  0.17300000000E+03 0. -1.
         -6    1    1    2    0  502  0.33760287072E+02 -0.70195954346E+02  0.82204879935E+03  0.84365896990E+03  0.17300000000E+03 0. -1.
</event>
<event>
 4    1  0.6020852E+000  0.1000000E+03  0.7546771E-02  0.1280296E+00
         21   -1    0    0  503  502  0.00000000000E+00  0.00000000000E+00  0.38533842680E+03  0.38533842680E+03  0.00000000000E+00 0. -1.
         21   -1    0    0  501  503 -0.00000000000E+00 -0.00000000000E+00 -0.19312531195E+03  0.19312531195E+03  0.00000000000E+00 0. -1.
          6    1    1    2  501    0  0.15936629686E+03 -0.49488797358E+02  0.23288548235E+03  0.33468105044E+03  0.17300000000E+03 0. -1.
         -6    1    1    2    0  502 -0.15936629686E+03  0.49488797358E+02 -0.40672367498E+02  0.24378268830E+03  0.17300000000E+03 0. -1.
</event>
<event>
 4    1  0.6020852E+000  0.1000000E+03  0.7546771E-02  0.1280296E+00
         21   -1    0    0  503  502  0.00000000000E+00  0.00000000000E+00  0.34106639545E+03  0.34106639545E+03  0.00000000000E+00 0. -1.
         21   -1    0    0  501  503 -0.00000000000E+00 -0.00000000000E+00 -0.16552708927E+03  0.16552708927E+03  0.00000000000E+00 0. -1.
          6    1    1    2  501    0 -0.12649753172E+02 -0.64458084515E+02 -0.71109943896E+02  0.19824349935E+03  0.17300000000E+03 0. -1.
         -6    1    1    2    0  502  0.12649753172E+02  0.64458084515E+02  0.24664925008E+03  0.30834998537E+03  0.17300000000E+03 0. -1.
</event>
<event>
 4    1  0.6020852E+000  0.1000000E+03  0.7546771E-02  0.1280296E+00
         21   -1    0    0  503  502  0.00000000000E+00  0.00000000000E+00  0.99071538175E+02  0.99071538175E+02  0.00000000000E+00 0. -1.
         21   -1    0    0  501  503 -0.00000000000E+00 -0.00000000000E+00 -0.83697986477E+03  0.83697986477E+03  0.00000000000E+00 0. -1.
          6    1    1    2  501    0 -0.84367812968E+02 -0.19404228660E+03 -0.51632599597E+03  0.58420190942E+03  0.17300000000E+03 0. -1.
         -6    1    1    2    0  502  0.84367812968E+02  0.19404228660E+03 -0.22158233063E+03  0.35184949353E+03  0.17300000000E+03 0. -1.
</event>
<event>
 4    1  0.6020852E+000  0.1000000E+03  0.7546771E-02  0.1280296E+00
         21   -1    0    0  501  502  0.00000000000E+00  0.00000000000E+00  0.12512392022E+03  0.12512392022E+03  0.00000000000E+00 0. -1.
         21   -1    0    0  502  503 -0.00000000000E+00 -0.00000000000E+00 -0.29358237879E+03  0.29358237879E+03  0.00000000000E+00 0.  1.
          6    1    1    2  501    0 -0.40112598689E+02  0.53966981000E+02 -0.32029770167E+02  0.18835169707E+03  0.17300000000E+03 0. -1.
         -6    1    1    2    0  503  0.40112598689E+02 -0.53966981000E+02 -0.13642868840E+03  0.23035460193E+03  0.17300000000E+03 0.  1.
</event>
<event>
 4    1  0.6020852E+000  0.1000000E+03  0.7546771E-02  0.1280296E+00
         21   -1    0    0  501  502  0.00000000000E+00  0.00000000000E+00  0.12113333471E+03  0.12113333471E+03  0.00000000000E+00 0. -1.
         21   -1    0    0  502  503 -0.00000000000E+00 -0.00000000000E+00 -0.63447939349E+03  0.63447939349E+03  0.00000000000E+00 0.  1.
          6    1    1    2  501    0 -0.95790694515E+02 -0.12194247832E+03 -0.50527666272E+02  0.23775590473E+03  0.17300000000E+03 0. -1.
         -6    1    1    2    0  503  0.95790694515E+02  0.12194247832E+03 -0.46281839251E+03  0.51785682347E+03  0.17300000000E+03 0. -1.
</event>
<event>
 4    1  0.6020852E+000  0.1000000E+03  0.7546771E-02  0.1280296E+00
         21   -1    0    0  501  502  0.00000000000E+00  0.00000000000E+00  0.82531164024E+03  0.82531164024E+03  0.00000000000E+00 0. -1.
         21   -1    0    0  502  503 -0.00000000000E+00 -0.00000000000E+00 -0.51280700411E+02  0.51280700411E+02  0.00000000000E+00 0.  1.
          6    1    1    2  501    0  0.70034997938E+02 -0.67217760043E+01  0.57082566914E+03  0.60060055591E+03  0.17300000000E+03 0. -1.
         -6    1    1    2    0  503 -0.70034997938E+02  0.67217760043E+01  0.20320527069E+03  0.27599178474E+03  0.17300000000E+03 0. -1.
</event>
<event>
 4    1  0.6020852E+000  0.1000000E+03  0.7546771E-02  0.1280296E+00
         21   -1    0    0  501  502  0.00000000000E+00  0.00000000000E+00  0.45145410707E+02  0.45145410707E+02  0.00000000000E+00 0. -1.
         21   -1    0    0  502  503 -0.00000000000E+00 -0.00000000000E+00 -0.13237104219E+04  0.13237104219E+04  0.00000000000E+00 0.  1.
          6    1    1    2  501    0 -0.31425402046E+02  0.53437925489E+02 -0.18794143595E+03  0.26285766323E+03  0.17300000000E+03 0. -1.
         -6    1    1    2    0  503  0.31425402046E+02 -0.53437925489E+02 -0.10906235752E+04  0.11059981693E+04  0.17300000000E+03 0. -1.
</event>
<event>
 4    1  0.6020852E+000  0.1000000E+03  0.7546771E-02  0.1280296E+00
         21   -1    0    0  501  502  0.00000000000E+00  0.00000000000E+00  0.18993057597E+02  0.18993057597E+02  0.00000000000E+00 0. -1.
         21   -1    0    0  502  503 -0.00000000000E+00 -0.00000000000E+00 -0.29015098578E+04  0.29015098578E+04  0.00000000000E+00 0. -1.
          6    1    1    2  501    0 -0.13830990230E+03  0.77092167998E+02 -0.13770006322E+04  0.13968294715E+04  0.17300000000E+03 0. -1.
         -6    1    1    2    0  503  0.13830990230E+03 -0.77092167998E+02 -0.15055161680E+04  0.15236734439E+04  0.17300000000E+03 0. -1.
</event>
<event>
 4    1  0.6020852E+000  0.1000000E+03  0.7546771E-02  0.1280296E+00
         21   -1    0    0  503  502  0.00000000000E+00  0.00000000000E+00  0.26535220113E+03  0.26535220113E+03  0.00000000000E+00 0. -1.
         21   -1    0    0  501  503 -0.00000000000E+00 -0.00000000000E+00 -0.12972190776E+03  0.12972190776E+03  0.00000000000E+00 0. -1.
          6    1    1    2  501    0  0.52675789896E+01  0.26352503430E+02  0.24348559535E+01  0.17509177693E+03  0.17300000000E+03 0. -1.
         -6    1    1    2    0  502 -0.52675789896E+01 -0.26352503430E+02  0.13319543741E+03  0.21998233196E+03  0.17300000000E+03 0. -1.
</event>
<event>
 4    1  0.6020852E+000  0.1000000E+03  0.7546771E-02  0.1280296E+00
         21   -1    0    0  503  502  0.00000000000E+00  0.00000000000E+00  0.55290578100E+03  0.55290578100E+03  0.00000000000E+00 0. -1.
         21   -1    0    0  501  503 -0.00000000000E+00 -0.00000000000E+00 -0.45927354149E+03  0.45927354149E+03  0.00000000000E+00 0. -1.
          6    1    1    2  501    0  0.13662665565E+03  0.70446023380E+02 -0.40274587717E+03  0.46450266611E+03  0.17300000000E+03 0. -1.
         -6    1    1    2    0  502 -0.13662665565E+03 -0.70446023380E+02  0.49637811667E+03  0.54767665639E+03  0.17300000000E+03 0. -1.
</event>
<event>
 4    1  0.6020852E+000  0.1000000E+03  0.7546771E-02  0.1280296E+00
         21   -1    0    0  501  502  0.00000000000E+00  0.00000000000E+00  0.35365106304E+03  0.35365106304E+03  0.00000000000E+00 0.  1.
         21   -1    0    0  502  503 -0.00000000000E+00 -0.00000000000E+00 -0.10970266921E+03  0.10970266921E+03  0.00000000000E+00 0. -1.
          6    1    1    2  501    0 -0.24020214119E+01  0.81576727297E+01  0.11665902174E+02  0.17360129782E+03  0.17300000000E+03 0.  1.
         -6    1    1    2    0  503  0.24020214119E+01 -0.81576727297E+01  0.23228249165E+03  0.28975243443E+03  0.17300000000E+03 0. -1.
</event>
<event>
 4    1  0.6020852E+000  0.1000000E+03  0.7546771E-02  0.1280296E+00
         21   -1    0    0  501  502  0.00000000000E+00  0.00000000000E+00  0.18384147830E+03  0.18384147830E+03  0.00000000000E+00 0.  1.
         21   -1    0    0  502  503 -0.00000000000E+00 -0.00000000000E+00 -0.59644033966E+03  0.59644033966E+03  0.00000000000E+00 0. -1.
          6    1    1    2  501    0  0.76582760995E+02  0.19099762187E+02  0.11310103155E+03  0.22124774244E+03  0.17300000000E+03 0.  1.
         -6    1    1    2    0  503 -0.76582760995E+02 -0.19099762187E+02 -0.52569989290E+03  0.55903407552E+03  0.17300000000E+03 0. -1.
</event>
<event>
 4    1  0.6020852E+000  0.1000000E+03  0.7546771E-02  0.1280296E+00
         21   -1    0    0  501  502  0.00000000000E+00  0.00000000000E+00  0.17890722474E+04  0.17890722474E+04  0.00000000000E+00 0.  1.
         21   -1    0    0  502  503 -0.00000000000E+00 -0.00000000000E+00 -0.33262992449E+02  0.33262992449E+02  0.00000000000E+00 0. -1.
          6    1    1    2  501    0 -0.73293787649E+02 -0.57509384687E+01  0.14586616936E+04  0.14707236277E+04  0.17300000000E+03 0.  1.
         -6    1    1    2    0  503  0.73293787649E+02  0.57509384687E+01  0.29714756132E+03  0.35161161215E+03  0.17300000000E+03 0. -1.
</event>
<event>
 4    1  0.6020852E+000  0.1000000E+03  0.7546771E-02  0.1280296E+00
         21   -1    0    0  501  502  0.00000000000E+00  0.00000000000E+00  0.77083905636E+03  0.77083905636E+03  0.00000000000E+00 0.  1.
         21   -1    0    0  502  503 -0.00000000000E+00 -0.00000000000E+00 -0.10378471723E+03  0.10378471723E+03  0.00000000000E+00 0. -1.
          6    1    1    2  501    0  0.15655613802E+02  0.51415049400E+02  0.66937206910E+03  0.69345264614E+03  0.17300000000E+03 0.  1.
         -6    1    1    2    0  503 -0.15655613802E+02 -0.51415049400E+02 -0.23177299685E+01  0.18117112745E+03  0.17300000000E+03 0. -1.
</event>
<event>
 4    1  0.6020852E+000  0.1000000E+03  0.7546771E-02  0.1280296E+00
         21   -1    0    0  503  502  0.00000000000E+00  0.00000000000E+00  0.91132496866E+03  0.91132496866E+03  0.00000000000E+00 0. -1.
         21   -1    0    0  501  503 -0.00000000000E+00 -0.00000000000E+00 -0.55343053401E+03  0.55343053401E+03  0.00000000000E+00 0. -1.
          6    1    1    2  501    0 -0.31686579622E+03  0.45431510798E+03 -0.24326398911E+03  0.62921579649E+03  0.17300000000E+03 0. -1.
         -6    1    1    2    0  502  0.31686579622E+03 -0.45431510798E+03  0.60115842376E+03  0.83553970618E+03  0.17300000000E+03 0. -1.
</event>
<event>
 4    1  0.6020852E+000  0.1000000E+03  0.7546771E-02  0.1280296E+00
         21   -1    0    0  503  502  0.00000000000E+00  0.00000000000E+00  0.32006151619E+03  0.32006151619E+03  0.00000000000E+00 0. -1.
         21   -1    0    0  501  503 -0.00000000000E+00 -0.00000000000E+00 -0.21041556181E+03  0.21041556181E+03  0.00000000000E+00 0. -1.
          6    1    1    2  501    0  0.39779019597E+01  0.17787955213E+03 -0.22746504775E+02  0.24920546192E+03  0.17300000000E+03 0. -1.
         -6    1    1    2    0  502 -0.39779019597E+01 -0.17787955213E+03  0.13239245915E+03  0.28127161608E+03  0.17300000000E+03 0. -1.
</event>
<event>
 4    1  0.6020852E+000  0.1000000E+03  0.7546771E-02  0.1280296E+00
         21   -1    0    0  503  502  0.00000000000E+00  0.00000000000E+00  0.63277603280E+02  0.63277603280E+02  0.00000000000E+00 0. -1.
         21   -1    0    0  501  503 -0.00000000000E+00 -0.00000000000E+00 -0.12404100015E+04  0.12404100015E+04  0.00000000000E+00 0. -1.
          6    1    1    2  501    0 -0.18793472257E+03 -0.26041115978E+02 -0.84935712263E+03  0.88731850055E+03  0.17300000000E+03 0. -1.
         -6    1    1    2    0  502  0.18793472257E+03  0.26041115978E+02 -0.32777527561E+03  0.41636910425E+03  0.17300000000E+03 0. -1.
</event>
<event>
 4    1  0.6020852E+000  0.1000000E+03  0.7546771E-02  0.1280296E+00
         21   -1    0    0  503  502  0.00000000000E+00  0.00000000000E+00  0.21828109729E+04  0.21828109729E+04  0.00000000000E+00 0. -1.
         21   -1    0    0  501  503 -0.00000000000E+00 -0.00000000000E+00 -0.22537979399E+02  0.22537979399E+02  0.00000000000E+00 0. -1.
          6    1    1    2  501    0 -0.28503131335E+02  0.12284868343E+03  0.79183950156E+03  0.82027009195E+03  0.17300000000E+03 0. -1.
         -6    1    1    2    0  502  0.28503131335E+02 -0.12284868343E+03  0.13684334919E+04  0.13850788603E+04  0.17300000000E+03 0. -1.
</event>
<event>
 4    1  0.6020852E+000  0.1000000E+03  0.7546771E-02  0.1280296E+00
         21   -1    0    0  503  502  0.00000000000E+00  0.00000000000E+00  0.10592910824E+04  0.10592910824E+04  0.00000000000E+00 0. -1.
         21   -1    0    0  501  503 -0.00000000000E+00 -0.00000000000E+00 -0.32475614036E+02  0.32475614036E+02  0.00000000000E+00 0. -1.
          6    1    1    2  501    0 -0.56069737812E+02  0.15959598544E+02  0.41697253644E+03  0.45518525946E+03  0.17300000000E+03 0. -1.
         -6    1    1    2    0  502  0.56069737812E+02 -0.15959598544E+02  0.60984293188E+03  0.63658143694E+03  0.17300000000E+03 0. -1.
</event>
<event>
 4    1  0.6020852E+000  0.1000000E+03  0.7546771E-02  0.1280296E+00
         21   -1    0    0  503  502  0.00000000000E+00  0.00000000000E+00  0.82178823577E+03  0.82178823577E+03  0.00000000000E+00 0. -1.
         21   -1    0    0  501  503 -0.00000000000E+00 -0.00000000000E+00 -0.43581103412E+02  0.43581103412E+02  0.00000000000E+00 0.  1.
          6    1    1    2  501    0 -0.70915960490E+02  0.17235071864E+02  0.44317544006E+03  0.48131028644E+03  0.17300000000E+03 0. -1.
         -6    1    1    2    0  502  0.70915960490E+02 -0.17235071864E+02  0.33503169230E+03  0.38405905275E+03  0.17300000000E+03 0.  1.
</event>
<event>
 4    1  0.6020852E+000  0.1000000E+03  0.7546771E-02  0.1280296E+00
         21   -1    0    0  503  502  0.00000000000E+00  0.00000000000E+00  0.14943500224E+03  0.14943500224E+03  0.00000000000E+00 0. -1.
         21   -1    0    0  501  503 -0.00000000000E+00 -0.00000000000E+00 -0.24186812885E+03  0.24186812885E+03  0.00000000000E+00 0.  1.
          6    1    1    2  501    0 -0.58123859068E+02 -0.44177326201E+02 -0.15609063094E+02  0.18842150088E+03  0.17300000000E+03 0. -1.
         -6    1    1    2    0  502  0.58123859068E+02  0.44177326201E+02 -0.76824063508E+02  0.20288163021E+03  0.17300000000E+03 0.  1.
</event>
<event>
 4    1  0.6020852E+000  0.1000000E+03  0.7546771E-02  0.1280296E+00
         21   -1    0    0  503  502  0.00000000000E+00  0.00000000000E+00  0.27394681626E+04  0.27394681626E+04  0.00000000000E+00 0. -1.
         21   -1    0    0  501  503 -0.00000000000E+00 -0.00000000000E+00 -0.10856220218E+03  0.10856220218E+03  0.00000000000E+00 0.  1.
          6    1    1    2  501    0  0.19155384723E+02  0.55582074421E+02 -0.26256363559E+02  0.18459331621E+03  0.17300000000E+03 0. -1.
         -6    1    1    2    0  502 -0.19155384723E+02 -0.55582074421E+02  0.26571623240E+04  0.26634370486E+04  0.17300000000E+03 0.  1.
</event>
<event>
 4    1  0.6020852E+000  0.1000000E+03  0.7546771E-02  0.1280296E+00
         21   -1    0    0  503  502  0.00000000000E+00  0.00000000000E+00  0.64989534452E+02  0.64989534452E+02  0.00000000000E+00 0. -1.
         21   -1    0    0  501  503 -0.00000000000E+00 -0.00000000000E+00 -0.77370641934E+03  0.77370641934E+03  0.00000000000E+00 0. -1.
          6    1    1    2  501    0 -0.65110892742E+00 -0.89686790402E+02 -0.56184408234E+03  0.59467799453E+03  0.17300000000E+03 0. -1.
         -6    1    1    2    0  502  0.65110892742E+00  0.89686790402E+02 -0.14687280255E+03  0.24401795927E+03  0.17300000000E+03 0. -1.
</event>
<event>
 4    1  0.6020852E+000  0.1000000E+03  0.7546771E-02  0.1280296E+00
         21   -1    0    0  503  502  0.00000000000E+00  0.00000000000E+00  0.38091631678E+03  0.38091631678E+03  0.00000000000E+00 0. -1.
         21   -1    0    0  501  503 -0.00000000000E+00 -0.00000000000E+00 -0.13729778496E+03  0.13729778496E+03  0.00000000000E+00 0. -1.
          6    1    1    2  501    0  0.61756486995E+02  0.31218068751E+01 -0.32489334772E+02  0.18656946759E+03  0.17300000000E+03 0. -1.
         -6    1    1    2    0  502 -0.61756486995E+02 -0.31218068751E+01  0.27610786659E+03  0.33164463414E+03  0.17300000000E+03 0. -1.
</event>
<event>
 4    1  0.6020852E+000  0.1000000E+03  0.7546771E-02  0.1280296E+00
         21   -1    0    0  503  502  0.00000000000E+00  0.00000000000E+00  0.34605775051E+03  0.34605775051E+03  0.00000000000E+00 0. -1.
         21   -1    0    0  501  503 -0.00000000000E+00 -0.00000000000E+00 -0.13239891807E+03  0.13239891807E+03  0.00000000000E+00 0.  1.
          6    1    1    2  501    0  0.56704301917E+02  0.95899681819E+02  0.40931750447E+02  0.20980117975E+03  0.17300000000E+03 0.  1.
         -6    1    1    2    0  502 -0.56704301917E+02 -0.95899681819E+02  0.17272708198E+03  0.26865548883E+03  0.17300000000E+03 0.  1.
</event>
<event>
 4    1  0.6020852E+000  0.1000000E+03  0.7546771E-02  0.1280296E+00
         21   -1    0    0  503  502  0.00000000000E+00  0.00000000000E+00  0.19669638800E+03  0.19669638800E+03  0.00000000000E+00 0. -1.
         21   -1    0    0  501  503 -0.00000000000E+00 -0.00000000000E+00 -0.48115110308E+03  0.48115110308E+03  0.00000000000E+00 0.  1.
          6    1    1    2  501    0 -0.58833350037E+02  0.24606627098E+02 -0.41353371519E+03  0.45277586372E+03  0.17300000000E+03 0.  1.
         -6    1    1    2    0  502  0.58833350037E+02 -0.24606627098E+02  0.12907900011E+03  0.22507162736E+03  0.17300000000E+03 0.  1.
</event>
<event>
 4    1  0.6020852E+000  0.1000000E+03  0.7546771E-02  0.1280296E+00
         21   -1    0    0  503  502  0.00000000000E+00  0.00000000000E+00  0.14595637609E+04  0.14595637609E+04  0.00000000000E+00 0. -1.
         21   -1    0    0  501  503 -0.00000000000E+00 -0.00000000000E+00 -0.32763419992E+02  0.32763419992E+02  0.00000000000E+00 0.  1.
          6    1    1    2  501    0 -0.67932230790E+02 -0.11380855854E+03  0.77483064222E+03  0.80489670150E+03  0.17300000000E+03 0.  1.
         -6    1    1    2    0  502  0.67932230790E+02  0.11380855854E+03  0.65196969869E+03  0.68743047938E+03  0.17300000000E+03 0.  1.
</event>
<event>
 4    1  0.6020852E+000  0.1000000E+03  0.7546771E-02  0.1280296E+00
         21   -1    0    0  501  502  0.00000000000E+00  0.00000000000E+00  0.55035351913E+03  0.55035351913E+03  0.00000000000E+00 0.  1.
         21   -1    0    0  502  503 -0.00000000000E+00 -0.00000000000E+00 -0.85257010086E+02  0.85257010086E+02  0.00000000000E+00 0.  1.
          6    1    1    2  501    0 -0.75704067995E+02  0.34992350560E+02  0.37953409641E+03  0.42535949601E+03  0.17300000000E+03 0.  1.
         -6    1    1    2    0  503  0.75704067995E+02 -0.34992350560E+02  0.85562412636E+02  0.21025103321E+03  0.17300000000E+03 0.  1.
</event>
<event>
 4    1  0.6020852E+000  0.1000000E+03  0.7546771E-02  0.1280296E+00
         21   -1    0    0  501  502  0.00000000000E+00  0.00000000000E+00  0.60410270258E+03  0.60410270258E+03  0.00000000000E+00 0.  1.
         21   -1    0    0  502  503 -0.00000000000E+00 -0.00000000000E+00 -0.44861115154E+03  0.44861115154E+03  0.00000000000E+00 0.  1.
          6    1    1    2  501    0  0.37317769318E+03  0.45043141396E+02  0.39714106062E+03  0.57353334455E+03  0.17300000000E+03 0.  1.
         -6    1    1    2    0  503 -0.37317769318E+03 -0.45043141396E+02 -0.24164950958E+03  0.47918050958E+03  0.17300000000E+03 0.  1.
</event>
<event>
 4    1  0.6020852E+000  0.1000000E+03  0.7546771E-02  0.1280296E+00
         21   -1    0    0  503  502  0.00000000000E+00  0.00000000000E+00  0.25165913549E+03  0.25165913549E+03  0.00000000000E+00 0. -1.
         21   -1    0    0  501  503 -0.00000000000E+00 -0.00000000000E+00 -0.19040445193E+03  0.19040445193E+03  0.00000000000E+00 0.  1.
          6    1    1    2  501    0  0.10717834616E+03 -0.47128783896E+02 -0.35429300165E+02  0.21187863382E+03  0.17300000000E+03 0.  1.
         -6    1    1    2    0  502 -0.10717834616E+03  0.47128783896E+02  0.96683983726E+02  0.23018495361E+03  0.17300000000E+03 0. -1.
</event>
<event>
 4    1  0.6020852E+000  0.1000000E+03  0.7546771E-02  0.1280296E+00
         21   -1    0    0  503  502  0.00000000000E+00  0.00000000000E+00  0.60412710109E+03  0.60412710109E+03  0.00000000000E+00 0. -1.
         21   -1    0    0  501  503 -0.00000000000E+00 -0.00000000000E+00 -0.91520918100E+02  0.91520918100E+02  0.00000000000E+00 0.  1.
          6    1    1    2  501    0  0.11830686627E+03  0.91462758850E+02  0.17529165530E+03  0.28812864363E+03  0.17300000000E+03 0.  1.
         -6    1    1    2    0  502 -0.11830686627E+03 -0.91462758850E+02  0.33731452769E+03  0.40751937555E+03  0.17300000000E+03 0. -1.
</event>
<event>
 4    1  0.6020852E+000  0.1000000E+03  0.7546771E-02  0.1280296E+00
         21   -1    0    0  501  502  0.00000000000E+00  0.00000000000E+00  0.62091245075E+03  0.62091245075E+03  0.00000000000E+00 0.  1.
         21   -1    0    0  502  503 -0.00000000000E+00 -0.00000000000E+00 -0.21717719903E+03  0.21717719903E+03  0.00000000000E+00 0.  1.
          6    1    1    2  501    0  0.21439105036E+03 -0.59049020077E+02  0.47062614927E+03  0.54851461387E+03  0.17300000000E+03 0.  1.
         -6    1    1    2    0  503 -0.21439105036E+03  0.59049020077E+02 -0.66890897554E+02  0.28957503591E+03  0.17300000000E+03 0.  1.
</event>
<event>
 4    1  0.6020852E+000  0.1000000E+03  0.7546771E-02  0.1280296E+00
         21   -1    0    0  501  502  0.00000000000E+00  0.00000000000E+00  0.17659314351E+03  0.17659314351E+03  0.00000000000E+00 0. -1.
         21   -1    0    0  502  503 -0.00000000000E+00 -0.00000000000E+00 -0.24498672931E+03  0.24498672931E+03  0.00000000000E+00 0. -1.
          6    1    1    2  501    0  0.89652255359E+02 -0.11918224469E+02  0.38561244003E+02  0.19898628220E+03  0.17300000000E+03 0. -1.
         -6    1    1    2    0  503 -0.89652255359E+02  0.11918224469E+02 -0.10695482980E+03  0.22259359061E+03  0.17300000000E+03 0. -1.
</event>
<event>
 4    1  0.6020852E+000  0.1000000E+03  0.7546771E-02  0.1280296E+00
         21   -1    0    0  501  502  0.00000000000E+00  0.00000000000E+00  0.64389876527E+03  0.64389876527E+03  0.00000000000E+00 0. -1.
         21   -1    0    0  502  503 -0.00000000000E+00 -0.00000000000E+00 -0.76553029629E+03  0.76553029629E+03  0.00000000000E+00 0. -1.
          6    1    1    2  501    0 -0.61098302787E+03 -0.14212525319E+03  0.20379074949E+03  0.68187940100E+03  0.17300000000E+03 0. -1.
         -6    1    1    2    0  503  0.61098302787E+03  0.14212525319E+03 -0.32542228050E+03  0.72754966056E+03  0.17300000000E+03 0. -1.
</event>
<event>
 4    1  0.6020852E+000  0.1000000E+03  0.7546771E-02  0.1280296E+00
         21   -1    0    0  503  502  0.00000000000E+00  0.00000000000E+00  0.70461222255E+02  0.70461222255E+02  0.00000000000E+00 0.  1.
         21   -1    0    0  501  503 -0.00000000000E+00 -0.00000000000E+00 -0.10254643571E+04  0.10254643571E+04  0.00000000000E+00 0.  1.
          6    1    1    2  501    0 -0.33363517082E+02  0.10170968764E+03 -0.83565850630E+03  0.86006518589E+03  0.17300000000E+03 0.  1.
         -6    1    1    2    0  502  0.33363517082E+02 -0.10170968764E+03 -0.11934462850E+03  0.23586039342E+03  0.17300000000E+03 0.  1.
</event>
<event>
 4    1  0.6020852E+000  0.1000000E+03  0.7546771E-02  0.1280296E+00
         21   -1    0    0  503  502  0.00000000000E+00  0.00000000000E+00  0.12647191903E+03  0.12647191903E+03  0.00000000000E+00 0.  1.
         21   -1    0    0  501  503 -0.00000000000E+00 -0.00000000000E+00 -0.34960800757E+03  0.34960800757E+03  0.00000000000E+00 0.  1.
          6    1    1    2  501    0 -0.11787226638E+03 -0.99162054827E+01 -0.13099148229E+03  0.24714362372E+03  0.17300000000E+03 0.  1.
         -6    1    1    2    0  502  0.11787226638E+03  0.99162054827E+01 -0.92144606254E+02  0.22893630288E+03  0.17300000000E+03 0.  1.
</event>
<event>
 4    1  0.6020852E+000  0.1000000E+03  0.7546771E-02  0.1280296E+00
         21   -1    0    0  503  502  0.00000000000E+00  0.00000000000E+00  0.16059367104E+03  0.16059367104E+03  0.00000000000E+00 0. -1.
         21   -1    0    0  501  503 -0.00000000000E+00 -0.00000000000E+00 -0.83259419718E+03  0.83259419718E+03  0.00000000000E+00 0.  1.
          6    1    1    2  501    0  0.18365238409E+03 -0.19935598762E+03 -0.57243366084E+03  0.65656705982E+03  0.17300000000E+03 0. -1.
         -6    1    1    2    0  502 -0.18365238409E+03  0.19935598762E+03 -0.99566865301E+02  0.33662080840E+03  0.17300000000E+03 0. -1.
</event>
<event>
 4    1  0.6020852E+000  0.1000000E+03  0.7546771E-02  0.1280296E+00
         21   -1    0    0  503  502  0.00000000000E+00  0.00000000000E+00  0.99565885326E+03  0.99565885326E+03  0.00000000000E+00 0.  1.
         21   -1    0    0  501  503 -0.00000000000E+00 -0.00000000000E+00 -0.10693987399E+03  0.10693987399E+03  0.00000000000E+00 0. -1.
          6    1    1    2  501    0  0.11901849852E+03  0.86821869359E+02  0.48698037671E+02  0.23238747570E+03  0.17300000000E+03 0. -1.
         -6    1    1    2    0  502 -0.11901849852E+03 -0.86821869359E+02  0.84002094160E+03  0.87021125155E+03  0.17300000000E+03 0.  1.
</event>
<event>
 4    1  0.6020852E+000  0.1000000E+03  0.7546771E-02  0.1280296E+00
         21   -1    0    0  501  502  0.00000000000E+00  0.00000000000E+00  0.30931349887E+03  0.30931349887E+03  0.00000000000E+00 0.  1.
         21   -1    0    0  502  503 -0.00000000000E+00 -0.00000000000E+00 -0.11171928220E+03  0.11171928220E+03  0.00000000000E+00 0.  1.
          6    1    1    2  501    0 -0.34606662786E+02 -0.55430528968E+02  0.77396410931E+02  0.20047286369E+03  0.17300000000E+03 0. -1.
         -6    1    1    2    0  503  0.34606662786E+02  0.55430528968E+02  0.12019780573E+03  0.22055991738E+03  0.17300000000E+03 0. -1.
</event>
<event>
 4    1  0.6020852E+000  0.1000000E+03  0.7546771E-02  0.1280296E+00
         21   -1    0    0  501  502  0.00000000000E+00  0.00000000000E+00  0.13100938053E+04  0.13100938053E+04  0.00000000000E+00 0.  1.
         21   -1    0    0  502  503 -0.00000000000E+00 -0.00000000000E+00 -0.29857152730E+02  0.29857152730E+02  0.00000000000E+00 0.  1.
          6    1    1    2  501    0  0.57280694417E+02  0.26091434288E+02  0.88497931355E+03  0.90392434767E+03  0.17300000000E+03 0. -1.
         -6    1    1    2    0  503 -0.57280694417E+02 -0.26091434288E+02  0.39525733904E+03  0.43602661038E+03  0.17300000000E+03 0. -1.
</event>
<event>
 4    1  0.6020852E+000  0.1000000E+03  0.7546771E-02  0.1280296E+00
         21   -1    0    0  501  502  0.00000000000E+00  0.00000000000E+00  0.27721052253E+02  0.27721052253E+02  0.00000000000E+00 0.  1.
         21   -1    0    0  502  503 -0.00000000000E+00 -0.00000000000E+00 -0.12615016224E+04  0.12615016224E+04  0.00000000000E+00 0.  1.
          6    1    1    2  501    0 -0.68022458672E+02  0.14130818056E+02 -0.56641494199E+03  0.59630665048E+03  0.17300000000E+03 0.  1.
         -6    1    1    2    0  503  0.68022458672E+02 -0.14130818056E+02 -0.66736562813E+03  0.69291602415E+03  0.17300000000E+03 0.  1.
</event>
<event>
 4    1  0.6020852E+000  0.1000000E+03  0.7546771E-02  0.1280296E+00
         21   -1    0    0  501  502  0.00000000000E+00  0.00000000000E+00  0.71178172619E+03  0.71178172619E+03  0.00000000000E+00 0.  1.
         21   -1    0    0  502  503 -0.00000000000E+00 -0.00000000000E+00 -0.16142653636E+03  0.16142653636E+03  0.00000000000E+00 0.  1.
          6    1    1    2  501    0  0.77230630322E+02 -0.25165288502E+03  0.43645306893E+03  0.53825089519E+03  0.17300000000E+03 0.  1.
         -6    1    1    2    0  503 -0.77230630322E+02  0.25165288502E+03  0.11390212091E+03  0.33495736736E+03  0.17300000000E+03 0.  1.
</event>
<event>
 4    1  0.6020852E+000  0.1000000E+03  0.7546771E-02  0.1280296E+00
         21   -1    0    0  503  502  0.00000000000E+00  0.00000000000E+00  0.10505333639E+03  0.10505333639E+03  0.00000000000E+00 0. -1.
         21   -1    0    0  501  503 -0.00000000000E+00 -0.00000000000E+00 -0.50967521431E+03  0.50967521431E+03  0.00000000000E+00 0.  1.
          6    1    1    2  501    0  0.32344888570E+02  0.24901867039E+02 -0.39909824223E+03  0.43689209394E+03  0.17300000000E+03 0. -1.
         -6    1    1    2    0  502 -0.32344888570E+02 -0.24901867039E+02 -0.55236356878E+01  0.17783645675E+03  0.17300000000E+03 0.  1.
</event>
<event>
 4    1  0.6020852E+000  0.1000000E+03  0.7546771E-02  0.1280296E+00
         21   -1    0    0  503  502  0.00000000000E+00  0.00000000000E+00  0.10225810996E+04  0.10225810996E+04  0.00000000000E+00 0. -1.
         21   -1    0    0  501  503 -0.00000000000E+00 -0.00000000000E+00 -0.39728167240E+02  0.39728167240E+02  0.00000000000E+00 0.  1.
          6    1    1    2  501    0  0.68606168547E+02  0.21878208721E+02  0.29579866685E+03  0.35015898345E+03  0.17300000000E+03 0. -1.
         -6    1    1    2    0  502 -0.68606168547E+02 -0.21878208721E+02  0.68705426551E+03  0.71215028339E+03  0.17300000000E+03 0.  1.
</event>
<event>
 4    1  0.6020852E+000  0.1000000E+03  0.7546771E-02  0.1280296E+00
         21   -1    0    0  503  502  0.00000000000E+00  0.00000000000E+00  0.51766128575E+03  0.51766128575E+03  0.00000000000E+00 0. -1.
         21   -1    0    0  501  503 -0.00000000000E+00 -0.00000000000E+00 -0.11094607497E+03  0.11094607497E+03  0.00000000000E+00 0.  1.
          6    1    1    2  501    0  0.50048811662E+02  0.32791548651E+02  0.50463852077E+00  0.18305579442E+03  0.17300000000E+03 0.  1.
         -6    1    1    2    0  502 -0.50048811662E+02 -0.32791548651E+02  0.40621057226E+03  0.44555156630E+03  0.17300000000E+03 0.  1.
</event>
<event>
 4    1  0.6020852E+000  0.1000000E+03  0.7546771E-02  0.1280296E+00
         21   -1    0    0  503  502  0.00000000000E+00  0.00000000000E+00  0.13026868724E+04  0.13026868724E+04  0.00000000000E+00 0. -1.
         21   -1    0    0  501  503 -0.00000000000E+00 -0.00000000000E+00 -0.33877338155E+02  0.33877338155E+02  0.00000000000E+00 0.  1.
          6    1    1    2  501    0 -0.50389723815E+02  0.90320362056E+02  0.44605252667E+03  0.48947803691E+03  0.17300000000E+03 0.  1.
         -6    1    1    2    0  502  0.50389723815E+02 -0.90320362056E+02  0.82275700757E+03  0.84708617364E+03  0.17300000000E+03 0.  1.
</event>
<event>
 4    1  0.6020852E+000  0.1000000E+03  0.7546771E-02  0.1280296E+00
         21   -1    0    0  503  502  0.00000000000E+00  0.00000000000E+00  0.11347115561E+03  0.11347115561E+03  0.00000000000E+00 0. -1.
         21   -1    0    0  501  503 -0.00000000000E+00 -0.00000000000E+00 -0.55338862738E+03  0.55338862738E+03  0.00000000000E+00 0.  1.
          6    1    1    2  501    0 -0.53757310534E+02  0.12291018276E+03 -0.38220372121E+03  0.44046049309E+03  0.17300000000E+03 0.  1.
         -6    1    1    2    0  502  0.53757310534E+02 -0.12291018276E+03 -0.57713750554E+02  0.22639928990E+03  0.17300000000E+03 0.  1.
</event>
<event>
 4    1  0.6020852E+000  0.1000000E+03  0.7546771E-02  0.1280296E+00
         21   -1    0    0  501  502  0.00000000000E+00  0.00000000000E+00  0.41580701702E+03  0.41580701702E+03  0.00000000000E+00 0. -1.
         21   -1    0    0  502  503 -0.00000000000E+00 -0.00000000000E+00 -0.15987002717E+03  0.15987002717E+03  0.00000000000E+00 0. -1.
          6    1    1    2  501    0 -0.54950316723E+02 -0.10374593002E+03  0.29640542710E+03  0.36272294182E+03  0.17300000000E+03 0. -1.
         -6    1    1    2    0  503  0.54950316723E+02  0.10374593002E+03 -0.40468437249E+02  0.21295410237E+03  0.17300000000E+03 0. -1.
</event>
<event>
 4    1  0.6020852E+000  0.1000000E+03  0.7546771E-02  0.1280296E+00
         21   -1    0    0  501  502  0.00000000000E+00  0.00000000000E+00  0.66124584004E+02  0.66124584004E+02  0.00000000000E+00 0. -1.
         21   -1    0    0  502  503 -0.00000000000E+00 -0.00000000000E+00 -0.57491873274E+03  0.57491873274E+03  0.00000000000E+00 0.  1.
          6    1    1    2  501    0  0.45171450874E+02 -0.36253071137E+02 -0.14130849160E+03  0.23076359102E+03  0.17300000000E+03 0. -1.
         -6    1    1    2    0  503 -0.45171450874E+02  0.36253071137E+02 -0.36748565714E+03  0.41027972573E+03  0.17300000000E+03 0.  1.
</event>
<event>
 4    1  0.6020852E+000  0.1000000E+03  0.7546771E-02  0.1280296E+00
         21   -1    0    0  501  502  0.00000000000E+00  0.00000000000E+00  0.22931162963E+03  0.22931162963E+03  0.00000000000E+00 0.  1.
         21   -1    0    0  502  503 -0.00000000000E+00 -0.00000000000E+00 -0.41827089585E+03  0.41827089585E+03  0.00000000000E+00 0.  1.
          6    1    1    2  501    0 -0.12673292010E+03  0.28477151920E+02  0.13721841527E+03  0.25618367377E+03  0.17300000000E+03 0.  1.
         -6    1    1    2    0  503  0.12673292010E+03 -0.28477151920E+02 -0.32617768149E+03  0.39139885171E+03  0.17300000000E+03 0.  1.
</event>
<event>
 4    1  0.6020852E+000  0.1000000E+03  0.7546771E-02  0.1280296E+00
         21   -1    0    0  501  502  0.00000000000E+00  0.00000000000E+00  0.11950880275E+03  0.11950880275E+03  0.00000000000E+00 0.  1.
         21   -1    0    0  502  503 -0.00000000000E+00 -0.00000000000E+00 -0.72227430730E+03  0.72227430730E+03  0.00000000000E+00 0.  1.
          6    1    1    2  501    0  0.23106131700E+03 -0.12874538592E+02 -0.22511813941E+03  0.36628167119E+03  0.17300000000E+03 0.  1.
         -6    1    1    2    0  503 -0.23106131700E+03  0.12874538592E+02 -0.37764736514E+03  0.47550143885E+03  0.17300000000E+03 0.  1.
</event>
<event>
 4    1  0.6020852E+000  0.1000000E+03  0.7546771E-02  0.1280296E+00
         21   -1    0    0  501  502  0.00000000000E+00  0.00000000000E+00  0.12062347981E+04  0.12062347981E+04  0.00000000000E+00 0. -1.
         21   -1    0    0  502  503 -0.00000000000E+00 -0.00000000000E+00 -0.39361520027E+02  0.39361520027E+02  0.00000000000E+00 0. -1.
          6    1    1    2  501    0  0.68943441207E+02 -0.89923385547E+02  0.77961170233E+03  0.80657474530E+03  0.17300000000E+03 0. -1.
         -6    1    1    2    0  503 -0.68943441207E+02  0.89923385547E+02  0.38726157571E+03  0.43902157279E+03  0.17300000000E+03 0. -1.
</event>
<event>
 4    1  0.6020852E+000  0.1000000E+03  0.7546771E-02  0.1280296E+00
         21   -1    0    0  501  502  0.00000000000E+00  0.00000000000E+00  0.69585701913E+02  0.69585701913E+02  0.00000000000E+00 0. -1.
         21   -1    0    0  502  503 -0.00000000000E+00 -0.00000000000E+00 -0.14478172322E+04  0.14478172322E+04  0.00000000000E+00 0. -1.
          6    1    1    2  501    0  0.11831921725E+03 -0.35440791322E+02 -0.12567733402E+03  0.24693982900E+03  0.17300000000E+03 0. -1.
         -6    1    1    2    0  503 -0.11831921725E+03  0.35440791322E+02 -0.12525541963E+04  0.12704631051E+04  0.17300000000E+03 0. -1.
</event>
<event>
 4    1  0.6020852E+000  0.1000000E+03  0.7546771E-02  0.1280296E+00
         21   -1    0    0  501  502  0.00000000000E+00  0.00000000000E+00  0.18204506158E+03  0.18204506158E+03  0.00000000000E+00 0. -1.
         21   -1    0    0  502  503 -0.00000000000E+00 -0.00000000000E+00 -0.20509154586E+03  0.20509154586E+03  0.00000000000E+00 0. -1.
          6    1    1    2  501    0 -0.48441859433E+02  0.67808773115E+02 -0.33061665152E+02  0.19485049951E+03  0.17300000000E+03 0. -1.
         -6    1    1    2    0  503  0.48441859433E+02 -0.67808773115E+02  0.10015180874E+02  0.19228610793E+03  0.17300000000E+03 0. -1.
</event>
<event>
 4    1  0.6020852E+000  0.1000000E+03  0.7546771E-02  0.1280296E+00
         21   -1    0    0  503  502  0.00000000000E+00  0.00000000000E+00  0.86402383452E+03  0.86402383452E+03  0.00000000000E+00 0. -1.
         21   -1    0    0  501  503 -0.00000000000E+00 -0.00000000000E+00 -0.23550430919E+03  0.23550430919E+03  0.00000000000E+00 0.  1.
          6    1    1    2  501    0  0.27737013830E+03  0.12160419687E+03 -0.34375916719E+02  0.35047464668E+03  0.17300000000E+03 0.  1.
         -6    1    1    2    0  502 -0.27737013830E+03 -0.12160419687E+03  0.66289544206E+03  0.74905349703E+03  0.17300000000E+03 0.  1.
</event>
<event>
 4    1  0.6020852E+000  0.1000000E+03  0.7546771E-02  0.1280296E+00
         21   -1    0    0  503  502  0.00000000000E+00  0.00000000000E+00  0.80067860818E+03  0.80067860818E+03  0.00000000000E+00 0. -1.
         21   -1    0    0  501  503 -0.00000000000E+00 -0.00000000000E+00 -0.50949917603E+02  0.50949917603E+02  0.00000000000E+00 0. -1.
          6    1    1    2  501    0 -0.81794801365E+01 -0.84487920864E+02  0.24731347945E+03  0.31352522990E+03  0.17300000000E+03 0. -1.
         -6    1    1    2    0  502  0.81794801365E+01  0.84487920864E+02  0.50241521112E+03  0.53810329588E+03  0.17300000000E+03 0. -1.
</event>
<event>
 4    1  0.6020852E+000  0.1000000E+03  0.7546771E-02  0.1280296E+00
         21   -1    0    0  503  502  0.00000000000E+00  0.00000000000E+00  0.72379171743E+03  0.72379171743E+03  0.00000000000E+00 0. -1.
         21   -1    0    0  501  503 -0.00000000000E+00 -0.00000000000E+00 -0.12429117969E+03  0.12429117969E+03  0.00000000000E+00 0. -1.
          6    1    1    2  501    0  0.38712520484E+02  0.61749940128E+02 -0.30965753376E+02  0.19026190431E+03  0.17300000000E+03 0. -1.
         -6    1    1    2    0  502 -0.38712520484E+02 -0.61749940128E+02  0.63046629112E+03  0.65782099281E+03  0.17300000000E+03 0. -1.
</event>
<event>
 4    1  0.6020852E+000  0.1000000E+03  0.7546771E-02  0.1280296E+00
         21   -1    0    0  503  502  0.00000000000E+00  0.00000000000E+00  0.17900318262E+03  0.17900318262E+03  0.00000000000E+00 0.  1.
         21   -1    0    0  501  503 -0.00000000000E+00 -0.00000000000E+00 -0.57698279495E+03  0.57698279495E+03  0.00000000000E+00 0.  1.
          6    1    1    2  501    0  0.28302612372E+02 -0.83732826118E+02 -0.50010101303E+03  0.53650931704E+03  0.17300000000E+03 0.  1.
         -6    1    1    2    0  502 -0.28302612372E+02  0.83732826118E+02  0.10212140071E+03  0.21947666053E+03  0.17300000000E+03 0.  1.
</event>
<event>
 4    1  0.6020852E+000  0.1000000E+03  0.7546771E-02  0.1280296E+00
         21   -1    0    0  503  502  0.00000000000E+00  0.00000000000E+00  0.38570484443E+03  0.38570484443E+03  0.00000000000E+00 0.  1.
         21   -1    0    0  501  503 -0.00000000000E+00 -0.00000000000E+00 -0.24943914350E+03  0.24943914350E+03  0.00000000000E+00 0.  1.
          6    1    1    2  501    0  0.18100678606E+03  0.79090219874E+02 -0.10091611961E+03  0.28130371962E+03  0.17300000000E+03 0.  1.
         -6    1    1    2    0  502 -0.18100678606E+03 -0.79090219874E+02  0.23718182054E+03  0.35384026830E+03  0.17300000000E+03 0.  1.
</event>
<event>
 4    1  0.6020852E+000  0.1000000E+03  0.7546771E-02  0.1280296E+00
         21   -1    0    0  503  502  0.00000000000E+00  0.00000000000E+00  0.12850082443E+03  0.12850082443E+03  0.00000000000E+00 0.  1.
         21   -1    0    0  501  503 -0.00000000000E+00 -0.00000000000E+00 -0.26045561263E+03  0.26045561263E+03  0.00000000000E+00 0.  1.
          6    1    1    2  501    0 -0.27491781175E+01  0.49711990587E+02 -0.10060262398E+03  0.20622494500E+03  0.17300000000E+03 0.  1.
         -6    1    1    2    0  502  0.27491781175E+01 -0.49711990587E+02 -0.31352164217E+02  0.18273149206E+03  0.17300000000E+03 0.  1.
</event>
<event>
 4    1  0.6020852E+000  0.1000000E+03  0.7546771E-02  0.1280296E+00
         21   -1    0    0  501  502  0.00000000000E+00  0.00000000000E+00  0.16556483242E+03  0.16556483242E+03  0.00000000000E+00 0. -1.
         21   -1    0    0  502  503 -0.00000000000E+00 -0.00000000000E+00 -0.23215036668E+03  0.23215036668E+03  0.00000000000E+00 0. -1.
          6    1    1    2  501    0 -0.45201427867E+02 -0.80316090791E+02 -0.29622534516E+02  0.19824312869E+03  0.17300000000E+03 0. -1.
         -6    1    1    2    0  503  0.45201427867E+02  0.80316090791E+02 -0.36962999745E+02  0.19947207040E+03  0.17300000000E+03 0. -1.
</event>
<event>
 4    1  0.6020852E+000  0.1000000E+03  0.7546771E-02  0.1280296E+00
         21   -1    0    0  501  502  0.00000000000E+00  0.00000000000E+00  0.16333002409E+03  0.16333002409E+03  0.00000000000E+00 0. -1.
         21   -1    0    0  502  503 -0.00000000000E+00 -0.00000000000E+00 -0.48141840490E+03  0.48141840490E+03  0.00000000000E+00 0. -1.
          6    1    1    2  501    0  0.44580003145E-01  0.16219443758E+03  0.12996899126E+02  0.23749727778E+03  0.17300000000E+03 0. -1.
         -6    1    1    2    0  503 -0.44580003145E-01 -0.16219443758E+03 -0.33108527993E+03  0.40725115120E+03  0.17300000000E+03 0. -1.
</event>
<event>
 4    1  0.6020852E+000  0.1000000E+03  0.7546771E-02  0.1280296E+00
         21   -1    0    0  503  502  0.00000000000E+00  0.00000000000E+00  0.23365782348E+04  0.23365782348E+04  0.00000000000E+00 0. -1.
         21   -1    0    0  501  503 -0.00000000000E+00 -0.00000000000E+00 -0.50241310080E+02  0.50241310080E+02  0.00000000000E+00 0. -1.
          6    1    1    2  501    0  0.56456123942E+02 -0.73622074832E+02  0.16506003060E+03  0.25647868827E+03  0.17300000000E+03 0. -1.
         -6    1    1    2    0  502 -0.56456123942E+02  0.73622074832E+02  0.21212768941E+04  0.21303408566E+04  0.17300000000E+03 0. -1.
</event>
<event>
 4    1  0.6020852E+000  0.1000000E+03  0.7546771E-02  0.1280296E+00
         21   -1    0    0  501  502  0.00000000000E+00  0.00000000000E+00  0.31666428643E+03  0.31666428643E+03  0.00000000000E+00 0.  1.
         21   -1    0    0  502  503 -0.00000000000E+00 -0.00000000000E+00 -0.18798304092E+03  0.18798304092E+03  0.00000000000E+00 0. -1.
          6    1    1    2  501    0 -0.68964662758E+02 -0.11296762160E+03  0.17801047200E+03  0.28130861413E+03  0.17300000000E+03 0.  1.
         -6    1    1    2    0  503  0.68964662758E+02  0.11296762160E+03 -0.49329226485E+02  0.22333871323E+03  0.17300000000E+03 0. -1.
</event>
<event>
 4    1  0.6020852E+000  0.1000000E+03  0.7546771E-02  0.1280296E+00
         21   -1    0    0  501  502  0.00000000000E+00  0.00000000000E+00  0.25073639022E+03  0.25073639022E+03  0.00000000000E+00 0.  1.
         21   -1    0    0  502  503 -0.00000000000E+00 -0.00000000000E+00 -0.59038958091E+03  0.59038958091E+03  0.00000000000E+00 0.  1.
          6    1    1    2  501    0  0.49481048129E+02 -0.55267541550E+02  0.19696784967E+03  0.27244854391E+03  0.17300000000E+03 0.  1.
         -6    1    1    2    0  503 -0.49481048129E+02  0.55267541550E+02 -0.53662104036E+03  0.56867742722E+03  0.17300000000E+03 0.  1.
</event>
<event>
 4    1  0.6020852E+000  0.1000000E+03  0.7546771E-02  0.1280296E+00
         21   -1    0    0  503  502  0.00000000000E+00  0.00000000000E+00  0.16187839001E+03  0.16187839001E+03  0.00000000000E+00 0. -1.
         21   -1    0    0  501  503 -0.00000000000E+00 -0.00000000000E+00 -0.26616536981E+03  0.26616536981E+03  0.00000000000E+00 0.  1.
          6    1    1    2  501    0 -0.87063327344E+02  0.74477680755E+02 -0.46451683184E+02  0.21263514942E+03  0.17300000000E+03 0.  1.
         -6    1    1    2    0  502  0.87063327344E+02 -0.74477680755E+02 -0.57835296618E+02  0.21540861040E+03  0.17300000000E+03 0. -1.
</event>
<event>
 4    1  0.6020852E+000  0.1000000E+03  0.7546771E-02  0.1280296E+00
         21   -1    0    0  503  502  0.00000000000E+00  0.00000000000E+00  0.13276229842E+04  0.13276229842E+04  0.00000000000E+00 0. -1.
         21   -1    0    0  501  503 -0.00000000000E+00 -0.00000000000E+00 -0.38084317607E+02  0.38084317607E+02  0.00000000000E+00 0.  1.
          6    1    1    2  501    0  0.10267077932E+03 -0.34086986585E+02  0.35780468598E+03  0.41189368153E+03  0.17300000000E+03 0.  1.
         -6    1    1    2    0  502 -0.10267077932E+03  0.34086986585E+02  0.93173398058E+03  0.95381362024E+03  0.17300000000E+03 0. -1.
</event>
<event>
 4    1  0.6020852E+000  0.1000000E+03  0.7546771E-02  0.1280296E+00
         21   -1    0    0  501  502  0.00000000000E+00  0.00000000000E+00  0.36759913094E+03  0.36759913094E+03  0.00000000000E+00 0. -1.
         21   -1    0    0  502  503 -0.00000000000E+00 -0.00000000000E+00 -0.25759099712E+03  0.25759099712E+03  0.00000000000E+00 0. -1.
          6    1    1    2  501    0  0.15350309218E+03 -0.99767901640E+02  0.23456654284E+03  0.34419078507E+03  0.17300000000E+03 0. -1.
         -6    1    1    2    0  503 -0.15350309218E+03  0.99767901640E+02 -0.12455840902E+03  0.28099934300E+03  0.17300000000E+03 0. -1.
</event>
<event>
 4    1  0.6020852E+000  0.1000000E+03  0.7546771E-02  0.1280296E+00
         21   -1    0    0  503  502  0.00000000000E+00  0.00000000000E+00  0.53535610399E+03  0.53535610399E+03  0.00000000000E+00 0.  1.
         21   -1    0    0  501  503 -0.00000000000E+00 -0.00000000000E+00 -0.26206892759E+03  0.26206892759E+03  0.00000000000E+00 0. -1.
          6    1    1    2  501    0  0.10176980082E+03  0.21855986111E+03  0.37995135806E+03  0.48209702316E+03  0.17300000000E+03 0.  1.
         -6    1    1    2    0  502 -0.10176980082E+03 -0.21855986111E+03 -0.10666418167E+03  0.31532800843E+03  0.17300000000E+03 0.  1.
</event>
<event>
 4    1  0.6020852E+000  0.1000000E+03  0.7546771E-02  0.1280296E+00
         21   -1    0    0  501  502  0.00000000000E+00  0.00000000000E+00  0.51139590321E+03  0.51139590321E+03  0.00000000000E+00 0. -1.
         21   -1    0    0  502  503 -0.00000000000E+00 -0.00000000000E+00 -0.10338203157E+03  0.10338203157E+03  0.00000000000E+00 0. -1.
          6    1    1    2  501    0  0.11158130929E+02 -0.14535126865E+03  0.25894296066E+03  0.34384873427E+03  0.17300000000E+03 0. -1.
         -6    1    1    2    0  503 -0.11158130929E+02  0.14535126865E+03  0.14907091099E+03  0.27092920051E+03  0.17300000000E+03 0. -1.
</event>
<event>
 4    1  0.6020852E+000  0.1000000E+03  0.7546771E-02  0.1280296E+00
         21   -1    0    0  501  502  0.00000000000E+00  0.00000000000E+00  0.15153200025E+04  0.15153200025E+04  0.00000000000E+00 0. -1.
         21   -1    0    0  502  503 -0.00000000000E+00 -0.00000000000E+00 -0.26885415860E+02  0.26885415860E+02  0.00000000000E+00 0. -1.
          6    1    1    2  501    0 -0.37075835636E+02  0.84765974109E+02  0.92547690298E+03  0.94604248631E+03  0.17300000000E+03 0. -1.
         -6    1    1    2    0  503  0.37075835636E+02 -0.84765974109E+02  0.56295768362E+03  0.59616293201E+03  0.17300000000E+03 0. -1.
</event>
<event>
 4    1  0.6020852E+000  0.1000000E+03  0.7546771E-02  0.1280296E+00
         21   -1    0    0  501  502  0.00000000000E+00  0.00000000000E+00  0.46829705498E+02  0.46829705498E+02  0.00000000000E+00 0. -1.
         21   -1    0    0  502  503 -0.00000000000E+00 -0.00000000000E+00 -0.73925244435E+03  0.73925244435E+03  0.00000000000E+00 0. -1.
          6    1    1    2  501    0 -0.49583497153E+02 -0.34109033178E+02 -0.27717601884E+03  0.33223108637E+03  0.17300000000E+03 0. -1.
         -6    1    1    2    0  503  0.49583497153E+02  0.34109033178E+02 -0.41524672002E+03  0.45385106348E+03  0.17300000000E+03 0. -1.
</event>
<event>
 4    1  0.6020852E+000  0.1000000E+03  0.7546771E-02  0.1280296E+00
         21   -1    0    0  503  502  0.00000000000E+00  0.00000000000E+00  0.55988277060E+03  0.55988277060E+03  0.00000000000E+00 0.  1.
         21   -1    0    0  501  503 -0.00000000000E+00 -0.00000000000E+00 -0.81767611311E+02  0.81767611311E+02  0.00000000000E+00 0. -1.
          6    1    1    2  501    0  0.43581886846E+02  0.32242032699E+02  0.40944277348E+03  0.44778489735E+03  0.17300000000E+03 0.  1.
         -6    1    1    2    0  502 -0.43581886846E+02 -0.32242032699E+02  0.68672385808E+02  0.19386548457E+03  0.17300000000E+03 0. -1.
</event>
<event>
 4    1  0.6020852E+000  0.1000000E+03  0.7546771E-02  0.1280296E+00
         21   -1    0    0  503  502  0.00000000000E+00  0.00000000000E+00  0.29234889744E+03  0.29234889744E+03  0.00000000000E+00 0. -1.
         21   -1    0    0  501  503 -0.00000000000E+00 -0.00000000000E+00 -0.93870229397E+03  0.93870229397E+03  0.00000000000E+00 0. -1.
          6    1    1    2  501    0  0.74021312377E+02 -0.22759152392E+03 -0.83158249723E+03  0.88245991758E+03  0.17300000000E+03 0. -1.
         -6    1    1    2    0  502 -0.74021312377E+02  0.22759152392E+03  0.18522910069E+03  0.34859127383E+03  0.17300000000E+03 0. -1.
</event>
<event>
 4    1  0.6020852E+000  0.1000000E+03  0.7546771E-02  0.1280296E+00
         21   -1    0    0  503  502  0.00000000000E+00  0.00000000000E+00  0.14560397150E+04  0.14560397150E+04  0.00000000000E+00 0. -1.
         21   -1    0    0  501  503 -0.00000000000E+00 -0.00000000000E+00 -0.29953216637E+02  0.29953216637E+02  0.00000000000E+00 0. -1.
          6    1    1    2  501    0 -0.18676018737E+01  0.75790996044E+02  0.39609546832E+03  0.43882614216E+03  0.17300000000E+03 0. -1.
         -6    1    1    2    0  502  0.18676018737E+01 -0.75790996044E+02  0.10299910301E+04  0.10471667895E+04  0.17300000000E+03 0. -1.
</event>
<event>
 4    1  0.6020852E+000  0.1000000E+03  0.7546771E-02  0.1280296E+00
         21   -1    0    0  503  502  0.00000000000E+00  0.00000000000E+00  0.14795788140E+03  0.14795788140E+03  0.00000000000E+00 0. -1.
         21   -1    0    0  501  503 -0.00000000000E+00 -0.00000000000E+00 -0.26185921695E+03  0.26185921695E+03  0.00000000000E+00 0. -1.
          6    1    1    2  501    0 -0.57561424534E+02  0.14942163211E+02  0.18682863537E+02  0.18388756137E+03  0.17300000000E+03 0. -1.
         -6    1    1    2    0  502  0.57561424534E+02 -0.14942163211E+02 -0.13258419908E+03  0.22592953698E+03  0.17300000000E+03 0. -1.
</event>
<event>
 4    1  0.6020852E+000  0.1000000E+03  0.7546771E-02  0.1280296E+00
         21   -1    0    0  503  502  0.00000000000E+00  0.00000000000E+00  0.94598188411E+02  0.94598188411E+02  0.00000000000E+00 0. -1.
         21   -1    0    0  501  503 -0.00000000000E+00 -0.00000000000E+00 -0.10989007286E+04  0.10989007286E+04  0.00000000000E+00 0.  1.
          6    1    1    2  501    0  0.43079856203E+02 -0.22189517867E+03 -0.78242943882E+03  0.83259724421E+03  0.17300000000E+03 0. -1.
         -6    1    1    2    0  502 -0.43079856203E+02  0.22189517867E+03 -0.22187310139E+03  0.36090167282E+03  0.17300000000E+03 0.  1.
</event>
<event>
 4    1  0.6020852E+000  0.1000000E+03  0.7546771E-02  0.1280296E+00
         21   -1    0    0  501  502  0.00000000000E+00  0.00000000000E+00  0.86397987391E+02  0.86397987391E+02  0.00000000000E+00 0. -1.
         21   -1    0    0  502  503 -0.00000000000E+00 -0.00000000000E+00 -0.68660455575E+03  0.68660455575E+03  0.00000000000E+00 0.  1.
          6    1    1    2  501    0  0.10565049840E+03  0.31985818966E+02 -0.91941975114E+02  0.22487206855E+03  0.17300000000E+03 0.  1.
         -6    1    1    2    0  503 -0.10565049840E+03 -0.31985818966E+02 -0.50826459324E+03  0.54813047459E+03  0.17300000000E+03 0. -1.
</event>
<event>
 4    1  0.6020852E+000  0.1000000E+03  0.7546771E-02  0.1280296E+00
         21   -1    0    0  501  502  0.00000000000E+00  0.00000000000E+00  0.23688800653E+04  0.23688800653E+04  0.00000000000E+00 0.  1.
         21   -1    0    0  502  503 -0.00000000000E+00 -0.00000000000E+00 -0.16192284084E+02  0.16192284084E+02  0.00000000000E+00 0.  1.
          6    1    1    2  501    0  0.34047716509E+02  0.63809681900E+02  0.15206635903E+04  0.15321806934E+04  0.17300000000E+03 0.  1.
         -6    1    1    2    0  503 -0.34047716509E+02 -0.63809681900E+02  0.83202419098E+03  0.85289165601E+03  0.17300000000E+03 0.  1.
</event>
<event>
 4    1  0.6020852E+000  0.1000000E+03  0.7546771E-02  0.1280296E+00
         21   -1    0    0  501  502  0.00000000000E+00  0.00000000000E+00  0.50389627612E+03  0.50389627612E+03  0.00000000000E+00 0.  1.
         21   -1    0    0  502  503 -0.00000000000E+00 -0.00000000000E+00 -0.10246908787E+03  0.10246908787E+03  0.00000000000E+00 0.  1.
          6    1    1    2  501    0 -0.48887758964E+02  0.23753952471E+02  0.38341594610E+03  0.42413565160E+03  0.17300000000E+03 0.  1.
         -6    1    1    2    0  503  0.48887758964E+02 -0.23753952471E+02  0.18011242150E+02  0.18222971239E+03  0.17300000000E+03 0.  1.
</event>
<event>
 4    1  0.6020852E+000  0.1000000E+03  0.7546771E-02  0.1280296E+00
         21   -1    0    0  501  502  0.00000000000E+00  0.00000000000E+00  0.70825283484E+02  0.70825283484E+02  0.00000000000E+00 0. -1.
         21   -1    0    0  502  503 -0.00000000000E+00 -0.00000000000E+00 -0.24286989847E+04  0.24286989847E+04  0.00000000000E+00 0. -1.
          6    1    1    2  501    0 -0.24113371011E+03 -0.14800952603E+03 -0.19294430362E+04  0.19577363755E+04  0.17300000000E+03 0. -1.
         -6    1    1    2    0  503  0.24113371011E+03  0.14800952603E+03 -0.42843066499E+03  0.54178789268E+03  0.17300000000E+03 0. -1.
</event>
<event>
 4    1  0.6020852E+000  0.1000000E+03  0.7546771E-02  0.1280296E+00
         21   -1    0    0  501  502  0.00000000000E+00  0.00000000000E+00  0.16521667624E+03  0.16521667624E+03  0.00000000000E+00 0. -1.
         21   -1    0    0  502  503 -0.00000000000E+00 -0.00000000000E+00 -0.78576031463E+03  0.78576031463E+03  0.00000000000E+00 0. -1.
          6    1    1    2  501    0  0.25340566845E+03  0.18040684129E+03 -0.23643295106E+03  0.42730621518E+03  0.17300000000E+03 0. -1.
         -6    1    1    2    0  503 -0.25340566845E+03 -0.18040684129E+03 -0.38411068733E+03  0.52367077568E+03  0.17300000000E+03 0. -1.
</event>
<event>
 4    1  0.6020852E+000  0.1000000E+03  0.7546771E-02  0.1280296E+00
         21   -1    0    0  501  502  0.00000000000E+00  0.00000000000E+00  0.39637222240E+03  0.39637222240E+03  0.00000000000E+00 0. -1.
         21   -1    0    0  502  503 -0.00000000000E+00 -0.00000000000E+00 -0.12859251164E+03  0.12859251164E+03  0.00000000000E+00 0. -1.
          6    1    1    2  501    0  0.73450575463E+02 -0.24357240268E+01  0.27929076156E+03  0.33665003978E+03  0.17300000000E+03 0. -1.
         -6    1    1    2    0  503 -0.73450575463E+02  0.24357240268E+01 -0.11511050806E+02  0.18831469427E+03  0.17300000000E+03 0. -1.
</event>
<event>
 4    1  0.6020852E+000  0.1000000E+03  0.7546771E-02  0.1280296E+00
         21   -1    0    0  501  502  0.00000000000E+00  0.00000000000E+00  0.18729981493E+03  0.18729981493E+03  0.00000000000E+00 0. -1.
         21   -1    0    0  502  503 -0.00000000000E+00 -0.00000000000E+00 -0.10658756763E+04  0.10658756763E+04  0.00000000000E+00 0. -1.
          6    1    1    2  501    0  0.14029386832E+03 -0.23038466740E+01 -0.98245933867E+03  0.10073941777E+04  0.17300000000E+03 0. -1.
         -6    1    1    2    0  503 -0.14029386832E+03  0.23038466740E+01  0.10388347731E+03  0.24578131348E+03  0.17300000000E+03 0. -1.
</event>
<event>
 4    1  0.6020852E+000  0.1000000E+03  0.7546771E-02  0.1280296E+00
         21   -1    0    0  503  502  0.00000000000E+00  0.00000000000E+00  0.14567227104E+03  0.14567227104E+03  0.00000000000E+00 0. -1.
         21   -1    0    0  501  503 -0.00000000000E+00 -0.00000000000E+00 -0.36958162909E+03  0.36958162909E+03  0.00000000000E+00 0. -1.
          6    1    1    2  501    0  0.59614953555E+02 -0.41371394802E+01 -0.27029771531E+03  0.32643669143E+03  0.17300000000E+03 0. -1.
         -6    1    1    2    0  502 -0.59614953555E+02  0.41371394802E+01  0.46388357268E+02  0.18881720870E+03  0.17300000000E+03 0. -1.
</event>
<event>
 4    1  0.6020852E+000  0.1000000E+03  0.7546771E-02  0.1280296E+00
         21   -1    0    0  503  502  0.00000000000E+00  0.00000000000E+00  0.53488887505E+03  0.53488887505E+03  0.00000000000E+00 0. -1.
         21   -1    0    0  501  503 -0.00000000000E+00 -0.00000000000E+00 -0.56765916192E+03  0.56765916192E+03  0.00000000000E+00 0. -1.
          6    1    1    2  501    0  0.82969006319E+02 -0.19976881465E+02 -0.53277473372E+03  0.56662231574E+03  0.17300000000E+03 0. -1.
         -6    1    1    2    0  502 -0.82969006319E+02  0.19976881465E+02  0.50000444685E+03  0.53592572123E+03  0.17300000000E+03 0. -1.
</event>
<event>
 4    1  0.6020852E+000  0.1000000E+03  0.7546771E-02  0.1280296E+00
         21   -1    0    0  503  502  0.00000000000E+00  0.00000000000E+00  0.40837128473E+02  0.40837128473E+02  0.00000000000E+00 0. -1.
         21   -1    0    0  501  503 -0.00000000000E+00 -0.00000000000E+00 -0.14031717317E+04  0.14031717317E+04  0.00000000000E+00 0. -1.
          6    1    1    2  501    0  0.79267661488E+02 -0.13082265481E+03 -0.87131987396E+03  0.90140182600E+03  0.17300000000E+03 0. -1.
         -6    1    1    2    0  502 -0.79267661488E+02  0.13082265481E+03 -0.49101472925E+03  0.54260703415E+03  0.17300000000E+03 0. -1.
</event>
<event>
 4    1  0.6020852E+000  0.1000000E+03  0.7546771E-02  0.1280296E+00
         21   -1    0    0  503  502  0.00000000000E+00  0.00000000000E+00  0.29232474543E+03  0.29232474543E+03  0.00000000000E+00 0. -1.
         21   -1    0    0  501  503 -0.00000000000E+00 -0.00000000000E+00 -0.23805161627E+03  0.23805161627E+03  0.00000000000E+00 0. -1.
          6    1    1    2  501    0  0.19094505379E+03  0.56553229269E+02  0.26083747682E+02  0.26508044666E+03  0.17300000000E+03 0. -1.
         -6    1    1    2    0  502 -0.19094505379E+03 -0.56553229269E+02  0.28189381470E+02  0.26529591504E+03  0.17300000000E+03 0. -1.
</event>
<event>
 4    1  0.6020852E+000  0.1000000E+03  0.7546771E-02  0.1280296E+00
         21   -1    0    0  503  502  0.00000000000E+00  0.00000000000E+00  0.34064529175E+02  0.34064529175E+02  0.00000000000E+00 0.  1.
         21   -1    0    0  501  503 -0.00000000000E+00 -0.00000000000E+00 -0.19343912983E+04  0.19343912983E+04  0.00000000000E+00 0.  1.
          6    1    1    2  501    0 -0.55121858153E+02 -0.42390191471E+00 -0.16459007032E+04  0.16558854802E+04  0.17300000000E+03 0.  1.
         -6    1    1    2    0  502  0.55121858153E+02  0.42390191471E+00 -0.25442606594E+03  0.31257034723E+03  0.17300000000E+03 0.  1.
</event>
<event>
 4    1  0.6020852E+000  0.1000000E+03  0.7546771E-02  0.1280296E+00
         21   -1    0    0  503  502  0.00000000000E+00  0.00000000000E+00  0.47854062848E+03  0.47854062848E+03  0.00000000000E+00 0.  1.
         21   -1    0    0  501  503 -0.00000000000E+00 -0.00000000000E+00 -0.80250836656E+02  0.80250836656E+02  0.00000000000E+00 0.  1.
          6    1    1    2  501    0  0.62031437561E+02  0.38993226537E+02  0.11968822797E+03  0.22276140347E+03  0.17300000000E+03 0.  1.
         -6    1    1    2    0  502 -0.62031437561E+02 -0.38993226537E+02  0.27860156386E+03  0.33603006167E+03  0.17300000000E+03 0.  1.
</event>
<event>
 4    1  0.6020852E+000  0.1000000E+03  0.7546771E-02  0.1280296E+00
         21   -1    0    0  501  502  0.00000000000E+00  0.00000000000E+00  0.61569019717E+03  0.61569019717E+03  0.00000000000E+00 0.  1.
         21   -1    0    0  502  503 -0.00000000000E+00 -0.00000000000E+00 -0.19817389058E+03  0.19817389058E+03  0.00000000000E+00 0. -1.
          6    1    1    2  501    0  0.10223884515E+03  0.84274114745E+02  0.52679875823E+03  0.57008844888E+03  0.17300000000E+03 0.  1.
         -6    1    1    2    0  503 -0.10223884515E+03 -0.84274114745E+02 -0.10928245163E+03  0.24377563888E+03  0.17300000000E+03 0. -1.
</event>
<event>
 4    1  0.6020852E+000  0.1000000E+03  0.7546771E-02  0.1280296E+00
         21   -1    0    0  503  502  0.00000000000E+00  0.00000000000E+00  0.10593669327E+04  0.10593669327E+04  0.00000000000E+00 0. -1.
         21   -1    0    0  501  503 -0.00000000000E+00 -0.00000000000E+00 -0.21096438482E+03  0.21096438482E+03  0.00000000000E+00 0. -1.
          6    1    1    2  501    0  0.28994906974E+03  0.28148517171E+02 -0.18762073772E+02  0.33932848020E+03  0.17300000000E+03 0. -1.
         -6    1    1    2    0  502 -0.28994906974E+03 -0.28148517171E+02  0.86716462169E+03  0.93100283736E+03  0.17300000000E+03 0. -1.
</event>
<event>
 4    1  0.6020852E+000  0.1000000E+03  0.7546771E-02  0.1280296E+00
         21   -1    0    0  503  502  0.00000000000E+00  0.00000000000E+00  0.24135583866E+03  0.24135583866E+03  0.00000000000E+00 0. -1.
         21   -1    0    0  501  503 -0.00000000000E+00 -0.00000000000E+00 -0.15149417255E+04  0.15149417255E+04  0.00000000000E+00 0. -1.
          6    1    1    2  501    0  0.96115835566E+02 -0.52234296268E+03 -0.97310898892E+03  0.11220296470E+04  0.17300000000E+03 0. -1.
         -6    1    1    2    0  502 -0.96115835566E+02  0.52234296268E+03 -0.30047689793E+03  0.63426791713E+03  0.17300000000E+03 0. -1.
</event>
<event>
 4    1  0.6020852E+000  0.1000000E+03  0.7546771E-02  0.1280296E+00
         21   -1    0    0  501  502  0.00000000000E+00  0.00000000000E+00  0.10501953778E+03  0.10501953778E+03  0.00000000000E+00 0. -1.
         21   -1    0    0  502  503 -0.00000000000E+00 -0.00000000000E+00 -0.34930452512E+03  0.34930452512E+03  0.00000000000E+00 0. -1.
          6    1    1    2  501    0 -0.30446285954E+02 -0.59530257666E+02 -0.65460650833E+02  0.19668483600E+03  0.17300000000E+03 0.  1.
         -6    1    1    2    0  503  0.30446285954E+02  0.59530257666E+02 -0.17882433651E+03  0.25763922689E+03  0.17300000000E+03 0.  1.
</event>
<event>
 4    1  0.6020852E+000  0.1000000E+03  0.7546771E-02  0.1280296E+00
         21   -1    0    0  501  502  0.00000000000E+00  0.00000000000E+00  0.25851424702E+03  0.25851424702E+03  0.00000000000E+00 0. -1.
         21   -1    0    0  502  503 -0.00000000000E+00 -0.00000000000E+00 -0.14651037995E+03  0.14651037995E+03  0.00000000000E+00 0. -1.
          6    1    1    2  501    0 -0.97177573061E+01 -0.82620943496E+02  0.89322650290E+02  0.21172668931E+03  0.17300000000E+03 0.  1.
         -6    1    1    2    0  503  0.97177573061E+01  0.82620943496E+02  0.22681216776E+02  0.19329793767E+03  0.17300000000E+03 0.  1.
</event>
<event>
 4    1  0.6020852E+000  0.1000000E+03  0.7546771E-02  0.1280296E+00
         21   -1    0    0  501  502  0.00000000000E+00  0.00000000000E+00  0.18628935634E+03  0.18628935634E+03  0.00000000000E+00 0. -1.
         21   -1    0    0  502  503 -0.00000000000E+00 -0.00000000000E+00 -0.62865193061E+03  0.62865193061E+03  0.00000000000E+00 0. -1.
          6    1    1    2  501    0  0.26856884126E+03  0.10624487373E+03 -0.14812159936E+03  0.36781272937E+03  0.17300000000E+03 0. -1.
         -6    1    1    2    0  503 -0.26856884126E+03 -0.10624487373E+03 -0.29424097491E+03  0.44712855758E+03  0.17300000000E+03 0. -1.
</event>
<event>
 4    1  0.6020852E+000  0.1000000E+03  0.7546771E-02  0.1280296E+00
         21   -1    0    0  501  502  0.00000000000E+00  0.00000000000E+00  0.77844022076E+03  0.77844022076E+03  0.00000000000E+00 0.  1.
         21   -1    0    0  502  503 -0.00000000000E+00 -0.00000000000E+00 -0.74619716515E+02  0.74619716515E+02  0.00000000000E+00 0. -1.
          6    1    1    2  501    0 -0.13731117819E+03  0.93579190542E+02  0.39328455096E+03  0.46066599894E+03  0.17300000000E+03 0. -1.
         -6    1    1    2    0  503  0.13731117819E+03 -0.93579190542E+02  0.31053595329E+03  0.39239393833E+03  0.17300000000E+03 0.  1.
</event>
<event>
 4    1  0.6020852E+000  0.1000000E+03  0.7546771E-02  0.1280296E+00
         21   -1    0    0  501  502  0.00000000000E+00  0.00000000000E+00  0.20496535976E+03  0.20496535976E+03  0.00000000000E+00 0.  1.
         21   -1    0    0  502  503 -0.00000000000E+00 -0.00000000000E+00 -0.31158240146E+03  0.31158240146E+03  0.00000000000E+00 0. -1.
          6    1    1    2  501    0  0.52800138075E+02  0.12725578155E+03  0.71663777123E+02  0.23247921513E+03  0.17300000000E+03 0. -1.
         -6    1    1    2    0  503 -0.52800138075E+02 -0.12725578155E+03 -0.17828081881E+03  0.28406854609E+03  0.17300000000E+03 0.  1.
</event>
<event>
 4    1  0.6020852E+000  0.1000000E+03  0.7546771E-02  0.1280296E+00
         21   -1    0    0  501  502  0.00000000000E+00  0.00000000000E+00  0.21549113024E+03  0.21549113024E+03  0.00000000000E+00 0.  1.
         21   -1    0    0  502  503 -0.00000000000E+00 -0.00000000000E+00 -0.74804055750E+03  0.74804055750E+03  0.00000000000E+00 0. -1.
          6    1    1    2  501    0  0.10290247384E+03 -0.33619402065E+03 -0.37123852456E+03  0.53977993734E+03  0.17300000000E+03 0. -1.
         -6    1    1    2    0  503 -0.10290247384E+03  0.33619402065E+03 -0.16131090270E+03  0.42375175040E+03  0.17300000000E+03 0.  1.
</event>
<event>
 4    1  0.6020852E+000  0.1000000E+03  0.7546771E-02  0.1280296E+00
         21   -1    0    0  501  502  0.00000000000E+00  0.00000000000E+00  0.70239242901E+03  0.70239242901E+03  0.00000000000E+00 0.  1.
         21   -1    0    0  502  503 -0.00000000000E+00 -0.00000000000E+00 -0.49718821339E+02  0.49718821339E+02  0.00000000000E+00 0. -1.
          6    1    1    2  501    0  0.63814993553E+02  0.10107530009E+02  0.38391257865E+03  0.42601922916E+03  0.17300000000E+03 0. -1.
         -6    1    1    2    0  503 -0.63814993553E+02 -0.10107530009E+02  0.26876102902E+03  0.32609202119E+03  0.17300000000E+03 0.  1.
</event>
<event>
 4    1  0.6020852E+000  0.1000000E+03  0.7546771E-02  0.1280296E+00
         21   -1    0    0  503  502  0.00000000000E+00  0.00000000000E+00  0.50427739829E+02  0.50427739829E+02  0.00000000000E+00 0. -1.
         21   -1    0    0  501  503 -0.00000000000E+00 -0.00000000000E+00 -0.10963432943E+04  0.10963432943E+04  0.00000000000E+00 0. -1.
          6    1    1    2  501    0  0.28483876915E+02  0.94308400085E+01 -0.90432106028E+03  0.92120890793E+03  0.17300000000E+03 0.  1.
         -6    1    1    2    0  502 -0.28483876915E+02 -0.94308400085E+01 -0.14159449418E+03  0.22556212618E+03  0.17300000000E+03 0.  1.
</event>
<event>
 4    1  0.6020852E+000  0.1000000E+03  0.7546771E-02  0.1280296E+00
         21   -1    0    0  501  502  0.00000000000E+00  0.00000000000E+00  0.18711359142E+03  0.18711359142E+03  0.00000000000E+00 0.  1.
         21   -1    0    0  502  503 -0.00000000000E+00 -0.00000000000E+00 -0.23369247299E+03  0.23369247299E+03  0.00000000000E+00 0.  1.
          6    1    1    2  501    0  0.85258699091E+02  0.29051945562E+02 -0.99154413409E+02  0.21880050048E+03  0.17300000000E+03 0.  1.
         -6    1    1    2    0  503 -0.85258699091E+02 -0.29051945562E+02  0.52575531844E+02  0.20200556393E+03  0.17300000000E+03 0.  1.
</event>
<event>
 4    1  0.6020852E+000  0.1000000E+03  0.7546771E-02  0.1280296E+00
         21   -1    0    0  501  502  0.00000000000E+00  0.00000000000E+00  0.96395004015E+02  0.96395004015E+02  0.00000000000E+00 0.  1.
         21   -1    0    0  502  503 -0.00000000000E+00 -0.00000000000E+00 -0.86111124710E+03  0.86111124710E+03  0.00000000000E+00 0.  1.
          6    1    1    2  501    0  0.16162030553E+03  0.15438207422E+03 -0.47521882471E+03  0.55291670200E+03  0.17300000000E+03 0.  1.
         -6    1    1    2    0  503 -0.16162030553E+03 -0.15438207422E+03 -0.28949741838E+03  0.40458954911E+03  0.17300000000E+03 0.  1.
</event>
<event>
 4    1  0.6020852E+000  0.1000000E+03  0.7546771E-02  0.1280296E+00
         21   -1    0    0  501  502  0.00000000000E+00  0.00000000000E+00  0.18634462537E+03  0.18634462537E+03  0.00000000000E+00 0.  1.
         21   -1    0    0  502  503 -0.00000000000E+00 -0.00000000000E+00 -0.42779436604E+03  0.42779436604E+03  0.00000000000E+00 0.  1.
          6    1    1    2  501    0 -0.88574100287E+02  0.91136023727E+02  0.78741443614E+02  0.22864899082E+03  0.17300000000E+03 0.  1.
         -6    1    1    2    0  503  0.88574100287E+02 -0.91136023727E+02 -0.32019118428E+03  0.38549000059E+03  0.17300000000E+03 0.  1.
</event>
<event>
 4    1  0.6020852E+000  0.1000000E+03  0.7546771E-02  0.1280296E+00
         21   -1    0    0  501  502  0.00000000000E+00  0.00000000000E+00  0.10551001861E+04  0.10551001861E+04  0.00000000000E+00 0. -1.
         21   -1    0    0  502  503 -0.00000000000E+00 -0.00000000000E+00 -0.53263923704E+02  0.53263923704E+02  0.00000000000E+00 0.  1.
          6    1    1    2  501    0  0.36972648265E+02  0.15293943995E+03  0.41000808989E+03  0.47200962150E+03  0.17300000000E+03 0. -1.
         -6    1    1    2    0  503 -0.36972648265E+02 -0.15293943995E+03  0.59182817250E+03  0.63635448830E+03  0.17300000000E+03 0.  1.
</event>
<event>
 4    1  0.6020852E+000  0.1000000E+03  0.7546771E-02  0.1280296E+00
         21   -1    0    0  503  502  0.00000000000E+00  0.00000000000E+00  0.14092763387E+03  0.14092763387E+03  0.00000000000E+00 0. -1.
         21   -1    0    0  501  503 -0.00000000000E+00 -0.00000000000E+00 -0.27454892680E+03  0.27454892680E+03  0.00000000000E+00 0. -1.
          6    1    1    2  501    0  0.36622780014E+02  0.10584139844E+02 -0.15710193167E+03  0.23677683368E+03  0.17300000000E+03 0. -1.
         -6    1    1    2    0  502 -0.36622780014E+02 -0.10584139844E+02  0.23480638742E+02  0.17869972699E+03  0.17300000000E+03 0. -1.
</event>
<event>
 4    1  0.6020852E+000  0.1000000E+03  0.7546771E-02  0.1280296E+00
         21   -1    0    0  503  502  0.00000000000E+00  0.00000000000E+00  0.66770574700E+03  0.66770574700E+03  0.00000000000E+00 0. -1.
         21   -1    0    0  501  503 -0.00000000000E+00 -0.00000000000E+00 -0.81533528197E+03  0.81533528197E+03  0.00000000000E+00 0. -1.
          6    1    1    2  501    0 -0.14719501035E+03 -0.28080362559E+03 -0.72042212008E+03  0.80588713746E+03  0.17300000000E+03 0. -1.
         -6    1    1    2    0  502  0.14719501035E+03  0.28080362559E+03  0.57279258511E+03  0.67715389150E+03  0.17300000000E+03 0. -1.
</event>
<event>
 4    1  0.6020852E+000  0.1000000E+03  0.7546771E-02  0.1280296E+00
         21   -1    0    0  503  502  0.00000000000E+00  0.00000000000E+00  0.19647319754E+03  0.19647319754E+03  0.00000000000E+00 0. -1.
         21   -1    0    0  501  503 -0.00000000000E+00 -0.00000000000E+00 -0.29370024354E+03  0.29370024354E+03  0.00000000000E+00 0. -1.
          6    1    1    2  501    0  0.11201596156E+03 -0.88238738322E+02 -0.13662684501E+03  0.26254436836E+03  0.17300000000E+03 0. -1.
         -6    1    1    2    0  502 -0.11201596156E+03  0.88238738322E+02  0.39399799008E+02  0.22762907272E+03  0.17300000000E+03 0. -1.
</event>
<event>
 4    1  0.6020852E+000  0.1000000E+03  0.7546771E-02  0.1280296E+00
         21   -1    0    0  503  502  0.00000000000E+00  0.00000000000E+00  0.19669812949E+03  0.19669812949E+03  0.00000000000E+00 0.  1.
         21   -1    0    0  501  503 -0.00000000000E+00 -0.00000000000E+00 -0.38538742719E+03  0.38538742719E+03  0.00000000000E+00 0.  1.
          6    1    1    2  501    0 -0.64489422989E+02 -0.84120019847E+02 -0.29108917890E+03  0.35481963515E+03  0.17300000000E+03 0.  1.
         -6    1    1    2    0  502  0.64489422989E+02  0.84120019847E+02  0.10239988120E+03  0.22726592152E+03  0.17300000000E+03 0.  1.
</event>
<event>
 4    1  0.6020852E+000  0.1000000E+03  0.7546771E-02  0.1280296E+00
         21   -1    0    0  503  502  0.00000000000E+00  0.00000000000E+00  0.35313687313E+02  0.35313687313E+02  0.00000000000E+00 0.  1.
         21   -1    0    0  501  503 -0.00000000000E+00 -0.00000000000E+00 -0.28715076876E+04  0.28715076876E+04  0.00000000000E+00 0.  1.
          6    1    1    2  501    0  0.30833713163E+02  0.26474831002E+03 -0.13232172374E+04  0.13608362293E+04  0.17300000000E+03 0.  1.
         -6    1    1    2    0  502 -0.30833713163E+02 -0.26474831002E+03 -0.15129767628E+04  0.15459851456E+04  0.17300000000E+03 0.  1.
</event>
<event>
 4    1  0.6020852E+000  0.1000000E+03  0.7546771E-02  0.1280296E+00
         21   -1    0    0  503  502  0.00000000000E+00  0.00000000000E+00  0.89350812217E+02  0.89350812217E+02  0.00000000000E+00 0.  1.
         21   -1    0    0  501  503 -0.00000000000E+00 -0.00000000000E+00 -0.61439632713E+03  0.61439632713E+03  0.00000000000E+00 0.  1.
          6    1    1    2  501    0  0.12657147362E+03 -0.75342870305E+02 -0.34841389799E+03  0.41595448111E+03  0.17300000000E+03 0.  1.
         -6    1    1    2    0  502 -0.12657147362E+03  0.75342870305E+02 -0.17663161692E+03  0.28779265824E+03  0.17300000000E+03 0.  1.
</event>
<event>
 4    1  0.6020852E+000  0.1000000E+03  0.7546771E-02  0.1280296E+00
         21   -1    0    0  501  502  0.00000000000E+00  0.00000000000E+00  0.59831111412E+03  0.59831111412E+03  0.00000000000E+00 0. -1.
         21   -1    0    0  502  503 -0.00000000000E+00 -0.00000000000E+00 -0.78036071359E+02  0.78036071359E+02  0.00000000000E+00 0. -1.
          6    1    1    2  501    0 -0.92928397087E+02  0.23024704212E+01  0.11911036788E+03  0.22968950366E+03  0.17300000000E+03 0. -1.
         -6    1    1    2    0  503  0.92928397087E+02 -0.23024704212E+01  0.40116467488E+03  0.44665768182E+03  0.17300000000E+03 0. -1.
</event>
<event>
 4    1  0.6020852E+000  0.1000000E+03  0.7546771E-02  0.1280296E+00
         21   -1    0    0  501  502  0.00000000000E+00  0.00000000000E+00  0.47618243333E+03  0.47618243333E+03  0.00000000000E+00 0. -1.
         21   -1    0    0  502  503 -0.00000000000E+00 -0.00000000000E+00 -0.71094661811E+02  0.71094661811E+02  0.00000000000E+00 0. -1.
          6    1    1    2  501    0 -0.35110118910E+02  0.40121840972E+02  0.15361161475E+03  0.23741948268E+03  0.17300000000E+03 0. -1.
         -6    1    1    2    0  503  0.35110118910E+02 -0.40121840972E+02  0.25147615677E+03  0.30985761245E+03  0.17300000000E+03 0. -1.
</event>
<event>
 4    1  0.6020852E+000  0.1000000E+03  0.7546771E-02  0.1280296E+00
         21   -1    0    0  501  502  0.00000000000E+00  0.00000000000E+00  0.16671189730E+03  0.16671189730E+03  0.00000000000E+00 0. -1.
         21   -1    0    0  502  503 -0.00000000000E+00 -0.00000000000E+00 -0.23328293446E+03  0.23328293446E+03  0.00000000000E+00 0. -1.
          6    1    1    2  501    0  0.74319083126E+02  0.40474580697E+02  0.97472132007E+01  0.19283548938E+03  0.17300000000E+03 0. -1.
         -6    1    1    2    0  503 -0.74319083126E+02 -0.40474580697E+02 -0.76318250360E+02  0.20715934239E+03  0.17300000000E+03 0. -1.
</event>
<event>
 4    1  0.6020852E+000  0.1000000E+03  0.7546771E-02  0.1280296E+00
         21   -1    0    0  501  502  0.00000000000E+00  0.00000000000E+00  0.36665405731E+03  0.36665405731E+03  0.00000000000E+00 0. -1.
         21   -1    0    0  502  503 -0.00000000000E+00 -0.00000000000E+00 -0.11690594295E+03  0.11690594295E+03  0.00000000000E+00 0. -1.
          6    1    1    2  501    0 -0.60975568580E+02 -0.59509388740E+02  0.21285359421E+03  0.28721949774E+03  0.17300000000E+03 0. -1.
         -6    1    1    2    0  503  0.60975568580E+02  0.59509388740E+02  0.36894520153E+02  0.19634050252E+03  0.17300000000E+03 0. -1.
</event>
<event>
 4    1  0.6020852E+000  0.1000000E+03  0.7546771E-02  0.1280296E+00
         21   -1    0    0  503  502  0.00000000000E+00  0.00000000000E+00  0.25895818648E+03  0.25895818648E+03  0.00000000000E+00 0.  1.
         21   -1    0    0  501  503 -0.00000000000E+00 -0.00000000000E+00 -0.19841756492E+03  0.19841756492E+03  0.00000000000E+00 0.  1.
          6    1    1    2  501    0  0.25283634030E+02 -0.97741281879E+02 -0.76785917336E+02  0.21451735928E+03  0.17300000000E+03 0.  1.
         -6    1    1    2    0  502 -0.25283634030E+02  0.97741281879E+02  0.13732653890E+03  0.24285839211E+03  0.17300000000E+03 0.  1.
</event>
<event>
 4    1  0.6020852E+000  0.1000000E+03  0.7546771E-02  0.1280296E+00
         21   -1    0    0  503  502  0.00000000000E+00  0.00000000000E+00  0.15381071171E+03  0.15381071171E+03  0.00000000000E+00 0.  1.
         21   -1    0    0  501  503 -0.00000000000E+00 -0.00000000000E+00 -0.20748740477E+03  0.20748740477E+03  0.00000000000E+00 0.  1.
          6    1    1    2  501    0 -0.27893142305E+02  0.20545798029E+02  0.14872129369E+01  0.17644083713E+03  0.17300000000E+03 0.  1.
         -6    1    1    2    0  502  0.27893142305E+02 -0.20545798029E+02 -0.55163906002E+02  0.18485727935E+03  0.17300000000E+03 0.  1.
</event>
<event>
 4    1  0.6020852E+000  0.1000000E+03  0.7546771E-02  0.1280296E+00
         21   -1    0    0  503  502  0.00000000000E+00  0.00000000000E+00  0.41668862976E+03  0.41668862976E+03  0.00000000000E+00 0.  1.
         21   -1    0    0  501  503 -0.00000000000E+00 -0.00000000000E+00 -0.94844270771E+02  0.94844270771E+02  0.00000000000E+00 0.  1.
          6    1    1    2  501    0 -0.31255864683E+02 -0.10082462144E+02  0.42216337953E+02  0.18107955244E+03  0.17300000000E+03 0.  1.
         -6    1    1    2    0  502  0.31255864683E+02  0.10082462144E+02  0.27962802104E+03  0.33045334810E+03  0.17300000000E+03 0.  1.
</event>
<event>
 4    1  0.6020852E+000  0.1000000E+03  0.7546771E-02  0.1280296E+00
         21   -1    0    0  501  502  0.00000000000E+00  0.00000000000E+00  0.14946320143E+03  0.14946320143E+03  0.00000000000E+00 0. -1.
         21   -1    0    0  502  503 -0.00000000000E+00 -0.00000000000E+00 -0.27916118878E+03  0.27916118878E+03  0.00000000000E+00 0. -1.
          6    1    1    2  501    0  0.77468853490E+02  0.33894737789E+02  0.66578074766E+01  0.19267486321E+03  0.17300000000E+03 0. -1.
         -6    1    1    2    0  503 -0.77468853490E+02 -0.33894737789E+02 -0.13635579482E+03  0.23594952700E+03  0.17300000000E+03 0. -1.
</event>
<event>
 4    1  0.6020852E+000  0.1000000E+03  0.7546771E-02  0.1280296E+00
         21   -1    0    0  501  502  0.00000000000E+00  0.00000000000E+00  0.96782767057E+03  0.96782767057E+03  0.00000000000E+00 0.  1.
         21   -1    0    0  502  503 -0.00000000000E+00 -0.00000000000E+00 -0.41917008459E+02  0.41917008459E+02  0.00000000000E+00 0. -1.
          6    1    1    2  501    0 -0.20201064406E+02  0.25162587750E+01  0.20948937689E+03  0.27245038739E+03  0.17300000000E+03 0.  1.
         -6    1    1    2    0  503  0.20201064406E+02 -0.25162587750E+01  0.71642128522E+03  0.73729429164E+03  0.17300000000E+03 0. -1.
</event>
<event>
 4    1  0.6020852E+000  0.1000000E+03  0.7546771E-02  0.1280296E+00
         21   -1    0    0  501  502  0.00000000000E+00  0.00000000000E+00  0.48690203079E+02  0.48690203079E+02  0.00000000000E+00 0.  1.
         21   -1    0    0  502  503 -0.00000000000E+00 -0.00000000000E+00 -0.87014128607E+03  0.87014128607E+03  0.00000000000E+00 0. -1.
          6    1    1    2  501    0  0.10095515724E+03 -0.28528083199E+02 -0.32624694330E+03  0.38389043139E+03  0.17300000000E+03 0.  1.
         -6    1    1    2    0  503 -0.10095515724E+03  0.28528083199E+02 -0.49520413970E+03  0.53494105776E+03  0.17300000000E+03 0. -1.
</event>
<event>
 4    1  0.6020852E+000  0.1000000E+03  0.7546771E-02  0.1280296E+00
         21   -1    0    0  501  502  0.00000000000E+00  0.00000000000E+00  0.95621773123E+03  0.95621773123E+03  0.00000000000E+00 0.  1.
         21   -1    0    0  502  503 -0.00000000000E+00 -0.00000000000E+00 -0.45910591348E+02  0.45910591348E+02  0.00000000000E+00 0. -1.
          6    1    1    2  501    0 -0.89577205105E+02 -0.77109489007E+02  0.45815244141E+03  0.50378825765E+03  0.17300000000E+03 0.  1.
         -6    1    1    2    0  503  0.89577205105E+02  0.77109489007E+02  0.45215469846E+03  0.49834006493E+03  0.17300000000E+03 0. -1.
</event>
<event>
 4    1  0.6020852E+000  0.1000000E+03  0.7546771E-02  0.1280296E+00
         21   -1    0    0  503  502  0.00000000000E+00  0.00000000000E+00  0.54446935837E+03  0.54446935837E+03  0.00000000000E+00 0. -1.
         21   -1    0    0  501  503 -0.00000000000E+00 -0.00000000000E+00 -0.17575804366E+03  0.17575804366E+03  0.00000000000E+00 0. -1.
          6    1    1    2  501    0  0.44944749833E+02  0.54335809685E+02 -0.10267199823E+03  0.21317352080E+03  0.17300000000E+03 0. -1.
         -6    1    1    2    0  502 -0.44944749833E+02 -0.54335809685E+02  0.47138331293E+03  0.50705388122E+03  0.17300000000E+03 0. -1.
</event>
<event>
 4    1  0.6020852E+000  0.1000000E+03  0.7546771E-02  0.1280296E+00
         21   -1    0    0  503  502  0.00000000000E+00  0.00000000000E+00  0.54346399877E+03  0.54346399877E+03  0.00000000000E+00 0. -1.
         21   -1    0    0  501  503 -0.00000000000E+00 -0.00000000000E+00 -0.23134270867E+03  0.23134270867E+03  0.00000000000E+00 0.  1.
          6    1    1    2  501    0 -0.12047760321E+02  0.49583130015E+02 -0.17747602160E+03  0.25304223670E+03  0.17300000000E+03 0.  1.
         -6    1    1    2    0  502  0.12047760321E+02 -0.49583130015E+02  0.48959731169E+03  0.52176447074E+03  0.17300000000E+03 0. -1.
</event>
<event>
 4    1  0.6020852E+000  0.1000000E+03  0.7546771E-02  0.1280296E+00
         21   -1    0    0  503  502  0.00000000000E+00  0.00000000000E+00  0.24664438055E+04  0.24664438055E+04  0.00000000000E+00 0. -1.
         21   -1    0    0  501  503 -0.00000000000E+00 -0.00000000000E+00 -0.24713544543E+02  0.24713544543E+02  0.00000000000E+00 0.  1.
          6    1    1    2  501    0 -0.71870961612E+02 -0.17722995234E+02  0.41450372295E+03  0.45521629587E+03  0.17300000000E+03 0.  1.
         -6    1    1    2    0  502  0.71870961612E+02  0.17722995234E+02  0.20272265380E+04  0.20359410541E+04  0.17300000000E+03 0. -1.
</event>
<event>
 4    1  0.6020852E+000  0.1000000E+03  0.7546771E-02  0.1280296E+00
         21   -1    0    0  503  502  0.00000000000E+00  0.00000000000E+00  0.34043792034E+03  0.34043792034E+03  0.00000000000E+00 0. -1.
         21   -1    0    0  501  503 -0.00000000000E+00 -0.00000000000E+00 -0.53935914727E+03  0.53935914727E+03  0.00000000000E+00 0.  1.
          6    1    1    2  501    0 -0.13165920614E+03 -0.21653533822E+03 -0.40652357682E+03  0.50932515917E+03  0.17300000000E+03 0.  1.
         -6    1    1    2    0  502  0.13165920614E+03  0.21653533822E+03  0.20760234989E+03  0.37047190843E+03  0.17300000000E+03 0. -1.
</event>
<event>
 4    1  0.6020852E+000  0.1000000E+03  0.7546771E-02  0.1280296E+00
         21   -1    0    0  503  502  0.00000000000E+00  0.00000000000E+00  0.31333987142E+03  0.31333987142E+03  0.00000000000E+00 0. -1.
         21   -1    0    0  501  503 -0.00000000000E+00 -0.00000000000E+00 -0.13148619413E+03  0.13148619413E+03  0.00000000000E+00 0.  1.
          6    1    1    2  501    0 -0.25885655721E+01 -0.12298473952E+02 -0.24584948069E+02  0.17518953395E+03  0.17300000000E+03 0.  1.
         -6    1    1    2    0  502  0.25885655721E+01  0.12298473952E+02  0.20643862536E+03  0.26963653160E+03  0.17300000000E+03 0. -1.
</event>
<event>
 4    1  0.6020852E+000  0.1000000E+03  0.7546771E-02  0.1280296E+00
         21   -1    0    0  503  502  0.00000000000E+00  0.00000000000E+00  0.13160139107E+04  0.13160139107E+04  0.00000000000E+00 0. -1.
         21   -1    0    0  501  503 -0.00000000000E+00 -0.00000000000E+00 -0.57913183001E+02  0.57913183001E+02  0.00000000000E+00 0.  1.
          6    1    1    2  501    0 -0.72892159697E+02  0.17587051952E+03  0.37969337016E+03  0.45862813032E+03  0.17300000000E+03 0.  1.
         -6    1    1    2    0  502  0.72892159697E+02 -0.17587051952E+03  0.87840735759E+03  0.91529896342E+03  0.17300000000E+03 0. -1.
</event>
<event>
 4    1  0.6020852E+000  0.1000000E+03  0.7546771E-02  0.1280296E+00
         21   -1    0    0  501  502  0.00000000000E+00  0.00000000000E+00  0.84376608848E+03  0.84376608848E+03  0.00000000000E+00 0.  1.
         21   -1    0    0  502  503 -0.00000000000E+00 -0.00000000000E+00 -0.60703351062E+02  0.60703351062E+02  0.00000000000E+00 0.  1.
          6    1    1    2  501    0  0.11427001327E+03  0.33700270178E+02  0.55987106397E+03  0.59797822068E+03  0.17300000000E+03 0.  1.
         -6    1    1    2    0  503 -0.11427001327E+03 -0.33700270178E+02  0.22319167346E+03  0.30649121887E+03  0.17300000000E+03 0.  1.
</event>
<event>
 4    1  0.6020852E+000  0.1000000E+03  0.7546771E-02  0.1280296E+00
         21   -1    0    0  501  502  0.00000000000E+00  0.00000000000E+00  0.18420525112E+03  0.18420525112E+03  0.00000000000E+00 0.  1.
         21   -1    0    0  502  503 -0.00000000000E+00 -0.00000000000E+00 -0.41090307926E+03  0.41090307926E+03  0.00000000000E+00 0. -1.
          6    1    1    2  501    0 -0.72521844392E+01 -0.31505667275E+02  0.11535746659E+03  0.21043180926E+03  0.17300000000E+03 0. -1.
         -6    1    1    2    0  503  0.72521844392E+01  0.31505667275E+02 -0.34205529473E+03  0.38467652112E+03  0.17300000000E+03 0.  1.
</event>
<event>
 4    1  0.6020852E+000  0.1000000E+03  0.7546771E-02  0.1280296E+00
         21   -1    0    0  501  502  0.00000000000E+00  0.00000000000E+00  0.32086879010E+03  0.32086879010E+03  0.00000000000E+00 0.  1.
         21   -1    0    0  502  503 -0.00000000000E+00 -0.00000000000E+00 -0.18705413094E+03  0.18705413094E+03  0.00000000000E+00 0. -1.
          6    1    1    2  501    0 -0.64784353626E+02 -0.15470722372E+03  0.21020027908E+02  0.24187223718E+03  0.17300000000E+03 0. -1.
         -6    1    1    2    0  503  0.64784353626E+02  0.15470722372E+03  0.11279463125E+03  0.26605068386E+03  0.17300000000E+03 0.  1.
</event>
<event>
 4    1  0.6020852E+000  0.1000000E+03  0.7546771E-02  0.1280296E+00
         21   -1    0    0  501  502  0.00000000000E+00  0.00000000000E+00  0.10198142141E+03  0.10198142141E+03  0.00000000000E+00 0.  1.
         21   -1    0    0  502  503 -0.00000000000E+00 -0.00000000000E+00 -0.10937791681E+04  0.10937791681E+04  0.00000000000E+00 0. -1.
          6    1    1    2  501    0  0.16628611060E+03  0.12271022900E+03 -0.14279348908E+03  0.30500467439E+03  0.17300000000E+03 0. -1.
         -6    1    1    2    0  503 -0.16628611060E+03 -0.12271022900E+03 -0.84900425757E+03  0.89075591508E+03  0.17300000000E+03 0.  1.
</event>
<event>
 4    1  0.6020852E+000  0.1000000E+03  0.7546771E-02  0.1280296E+00
         21   -1    0    0  503  502  0.00000000000E+00  0.00000000000E+00  0.17589924494E+03  0.17589924494E+03  0.00000000000E+00 0. -1.
         21   -1    0    0  501  503 -0.00000000000E+00 -0.00000000000E+00 -0.24381088579E+03  0.24381088579E+03  0.00000000000E+00 0.  1.
          6    1    1    2  501    0  0.72356955891E+02  0.76203189307E+02 -0.78297362377E+02  0.21702979538E+03  0.17300000000E+03 0.  1.
         -6    1    1    2    0  502 -0.72356955891E+02 -0.76203189307E+02  0.10385721524E+02  0.20268033535E+03  0.17300000000E+03 0. -1.
</event>
<event>
 4    1  0.6020852E+000  0.1000000E+03  0.7546771E-02  0.1280296E+00
         21   -1    0    0  503  502  0.00000000000E+00  0.00000000000E+00  0.68597231947E+02  0.68597231947E+02  0.00000000000E+00 0. -1.
         21   -1    0    0  501  503 -0.00000000000E+00 -0.00000000000E+00 -0.89152709306E+03  0.89152709306E+03  0.00000000000E+00 0.  1.
          6    1    1    2  501    0  0.61841721423E+02 -0.12743232082E+03 -0.61657396850E+03  0.65586267886E+03  0.17300000000E+03 0.  1.
         -6    1    1    2    0  502 -0.61841721423E+02  0.12743232082E+03 -0.20635589262E+03  0.30426164615E+03  0.17300000000E+03 0. -1.
</event>
<event>
 4    1  0.6020852E+000  0.1000000E+03  0.7546771E-02  0.1280296E+00
         21   -1    0    0  501  502  0.00000000000E+00  0.00000000000E+00  0.49464019579E+03  0.49464019579E+03  0.00000000000E+00 0. -1.
         21   -1    0    0  502  503 -0.00000000000E+00 -0.00000000000E+00 -0.10943726552E+03  0.10943726552E+03  0.00000000000E+00 0.  1.
          6    1    1    2  501    0  0.87336799931E+01 -0.35989333201E+00  0.39424483794E+03  0.43062094576E+03  0.17300000000E+03 0. -1.
         -6    1    1    2    0  503 -0.87336799931E+01  0.35989333201E+00 -0.90419076681E+01  0.17345651554E+03  0.17300000000E+03 0.  1.
</event>
<event>
 4    1  0.6020852E+000  0.1000000E+03  0.7546771E-02  0.1280296E+00
         21   -1    0    0  501  502  0.00000000000E+00  0.00000000000E+00  0.21555812070E+03  0.21555812070E+03  0.00000000000E+00 0. -1.
         21   -1    0    0  502  503 -0.00000000000E+00 -0.00000000000E+00 -0.25290099424E+03  0.25290099424E+03  0.00000000000E+00 0. -1.
          6    1    1    2  501    0 -0.50168815570E+02  0.82722592292E+02  0.10511586268E+03  0.22436194401E+03  0.17300000000E+03 0. -1.
         -6    1    1    2    0  503  0.50168815570E+02 -0.82722592292E+02 -0.14245873622E+03  0.24409717093E+03  0.17300000000E+03 0. -1.
</event>
<event>
 4    1  0.6020852E+000  0.1000000E+03  0.7546771E-02  0.1280296E+00
         21   -1    0    0  501  502  0.00000000000E+00  0.00000000000E+00  0.29871396084E+02  0.29871396084E+02  0.00000000000E+00 0. -1.
         21   -1    0    0  502  503 -0.00000000000E+00 -0.00000000000E+00 -0.17176607015E+04  0.17176607015E+04  0.00000000000E+00 0. -1.
          6    1    1    2  501    0 -0.45241211942E+02  0.86558972574E+02 -0.42414783952E+03  0.46836909886E+03  0.17300000000E+03 0. -1.
         -6    1    1    2    0  503  0.45241211942E+02 -0.86558972574E+02 -0.12636414659E+04  0.12791629987E+04  0.17300000000E+03 0. -1.
</event>
<event>
 4    1  0.6020852E+000  0.1000000E+03  0.7546771E-02  0.1280296E+00
         21   -1    0    0  501  502  0.00000000000E+00  0.00000000000E+00  0.65177969984E+02  0.65177969984E+02  0.00000000000E+00 0.  1.
         21   -1    0    0  502  503 -0.00000000000E+00 -0.00000000000E+00 -0.27875988538E+04  0.27875988538E+04  0.00000000000E+00 0.  1.
          6    1    1    2  501    0 -0.15801241377E+03 -0.21317070096E+03 -0.40675717842E+03  0.51554832251E+03  0.17300000000E+03 0.  1.
         -6    1    1    2    0  503  0.15801241377E+03  0.21317070096E+03 -0.23156637054E+04  0.23372285013E+04  0.17300000000E+03 0.  1.
</event>
<event>
 4    1  0.6020852E+000  0.1000000E+03  0.7546771E-02  0.1280296E+00
         21   -1    0    0  501  502  0.00000000000E+00  0.00000000000E+00  0.19077569874E+03  0.19077569874E+03  0.00000000000E+00 0.  1.
         21   -1    0    0  502  503 -0.00000000000E+00 -0.00000000000E+00 -0.64849998478E+03  0.64849998478E+03  0.00000000000E+00 0.  1.
          6    1    1    2  501    0  0.16399309244E+03  0.12333585473E+03  0.42365772772E+02  0.27171552427E+03  0.17300000000E+03 0.  1.
         -6    1    1    2    0  503 -0.16399309244E+03 -0.12333585473E+03 -0.50009005881E+03  0.56756015924E+03  0.17300000000E+03 0.  1.
</event>
<event>
 4    1  0.6020852E+000  0.1000000E+03  0.7546771E-02  0.1280296E+00
         21   -1    0    0  501  502  0.00000000000E+00  0.00000000000E+00  0.14468335428E+04  0.14468335428E+04  0.00000000000E+00 0.  1.
         21   -1    0    0  502  503 -0.00000000000E+00 -0.00000000000E+00 -0.62456691315E+03  0.62456691315E+03  0.00000000000E+00 0.  1.
          6    1    1    2  501    0 -0.12649292064E+03  0.63680032293E+02  0.14177814754E+04  0.14353009850E+04  0.17300000000E+03 0.  1.
         -6    1    1    2    0  503  0.12649292064E+03 -0.63680032293E+02 -0.59551484574E+03  0.63609947098E+03  0.17300000000E+03 0.  1.
</event>
<event>
 4    1  0.6020852E+000  0.1000000E+03  0.7546771E-02  0.1280296E+00
         21   -1    0    0  503  502  0.00000000000E+00  0.00000000000E+00  0.17666248474E+03  0.17666248474E+03  0.00000000000E+00 0.  1.
         21   -1    0    0  501  503 -0.00000000000E+00 -0.00000000000E+00 -0.69778066724E+03  0.69778066724E+03  0.00000000000E+00 0. -1.
          6    1    1    2  501    0  0.95040287468E+02 -0.12124965277E+03 -0.58910887754E+03  0.63301848641E+03  0.17300000000E+03 0. -1.
         -6    1    1    2    0  502 -0.95040287468E+02  0.12124965277E+03  0.67990695040E+02  0.24142466558E+03  0.17300000000E+03 0.  1.
</event>
<event>
 4    1  0.6020852E+000  0.1000000E+03  0.7546771E-02  0.1280296E+00
         21   -1    0    0  501  502  0.00000000000E+00  0.00000000000E+00  0.85366680415E+02  0.85366680415E+02  0.00000000000E+00 0. -1.
         21   -1    0    0  502  503 -0.00000000000E+00 -0.00000000000E+00 -0.39887597147E+03  0.39887597147E+03  0.00000000000E+00 0.  1.
          6    1    1    2  501    0 -0.41405714438E+02 -0.20038506992E+02 -0.97991164860E+02  0.20407656245E+03  0.17300000000E+03 0. -1.
         -6    1    1    2    0  503  0.41405714438E+02  0.20038506992E+02 -0.21551812619E+03  0.28016608943E+03  0.17300000000E+03 0.  1.
</event>
<event>
 4    1  0.6020852E+000  0.1000000E+03  0.7546771E-02  0.1280296E+00
         21   -1    0    0  503  502  0.00000000000E+00  0.00000000000E+00  0.14128378151E+04  0.14128378151E+04  0.00000000000E+00 0.  1.
         21   -1    0    0  501  503 -0.00000000000E+00 -0.00000000000E+00 -0.46796832329E+02  0.46796832329E+02  0.00000000000E+00 0. -1.
          6    1    1    2  501    0 -0.43726582999E+02 -0.10119712911E+03  0.24299586685E+03  0.31800764819E+03  0.17300000000E+03 0. -1.
         -6    1    1    2    0  502  0.43726582999E+02  0.10119712911E+03  0.11230451159E+04  0.11416269992E+04  0.17300000000E+03 0.  1.
</event>
<event>
 4    1  0.6020852E+000  0.1000000E+03  0.7546771E-02  0.1280296E+00
         21   -1    0    0  503  502  0.00000000000E+00  0.00000000000E+00  0.81026329219E+03  0.81026329219E+03  0.00000000000E+00 0.  1.
         21   -1    0    0  501  503 -0.00000000000E+00 -0.00000000000E+00 -0.88625918839E+02  0.88625918839E+02  0.00000000000E+00 0. -1.
          6    1    1    2  501    0 -0.17900239186E+03 -0.80649328937E+02  0.26395947378E+03  0.37168504725E+03  0.17300000000E+03 0. -1.
         -6    1    1    2    0  502  0.17900239186E+03  0.80649328937E+02  0.45767789958E+03  0.52720416378E+03  0.17300000000E+03 0.  1.
</event>
<event>
 4    1  0.6020852E+000  0.1000000E+03  0.7546771E-02  0.1280296E+00
         21   -1    0    0  503  502  0.00000000000E+00  0.00000000000E+00  0.38446860573E+02  0.38446860573E+02  0.00000000000E+00 0.  1.
         21   -1    0    0  501  503 -0.00000000000E+00 -0.00000000000E+00 -0.20424922277E+04  0.20424922277E+04  0.00000000000E+00 0. -1.
          6    1    1    2  501    0 -0.79579922873E+02  0.13543309861E+03 -0.15763103642E+04  0.15935364610E+04  0.17300000000E+03 0. -1.
         -6    1    1    2    0  502  0.79579922873E+02 -0.13543309861E+03 -0.42773500296E+03  0.48740262728E+03  0.17300000000E+03 0.  1.
</event>
<event>
 4    1  0.6020852E+000  0.1000000E+03  0.7546771E-02  0.1280296E+00
         21   -1    0    0  503  502  0.00000000000E+00  0.00000000000E+00  0.24502280082E+03  0.24502280082E+03  0.00000000000E+00 0.  1.
         21   -1    0    0  501  503 -0.00000000000E+00 -0.00000000000E+00 -0.17126613275E+03  0.17126613275E+03  0.00000000000E+00 0. -1.
          6    1    1    2  501    0  0.72680521153E+02  0.82144282325E+02  0.39142668225E+02  0.20854565387E+03  0.17300000000E+03 0. -1.
         -6    1    1    2    0  502 -0.72680521153E+02 -0.82144282325E+02  0.34613999852E+02  0.20774327970E+03  0.17300000000E+03 0.  1.
</event>
<event>
 4    1  0.6020852E+000  0.1000000E+03  0.7546771E-02  0.1280296E+00
         21   -1    0    0  503  502  0.00000000000E+00  0.00000000000E+00  0.48052976999E+03  0.48052976999E+03  0.00000000000E+00 0.  1.
         21   -1    0    0  501  503 -0.00000000000E+00 -0.00000000000E+00 -0.17327589191E+03  0.17327589191E+03  0.00000000000E+00 0. -1.
          6    1    1    2  501    0  0.98529719771E+01  0.94976018870E+02 -0.84598168489E+02  0.21494970418E+03  0.17300000000E+03 0. -1.
         -6    1    1    2    0  502 -0.98529719771E+01 -0.94976018870E+02  0.39185204657E+03  0.43885595771E+03  0.17300000000E+03 0.  1.
</event>
<event>
 4    1  0.6020852E+000  0.1000000E+03  0.7546771E-02  0.1280296E+00
         21   -1    0    0  503  502  0.00000000000E+00  0.00000000000E+00  0.10946593942E+03  0.10946593942E+03  0.00000000000E+00 0. -1.
         21   -1    0    0  501  503 -0.00000000000E+00 -0.00000000000E+00 -0.10532272389E+04  0.10532272389E+04  0.00000000000E+00 0. -1.
          6    1    1    2  501    0  0.26148336080E+02 -0.13520922804E+03 -0.91305764817E+03  0.93945119070E+03  0.17300000000E+03 0. -1.
         -6    1    1    2    0  502 -0.26148336080E+02  0.13520922804E+03 -0.30703651297E+02  0.22324198760E+03  0.17300000000E+03 0. -1.
</event>
<event>
 4    1  0.6020852E+000  0.1000000E+03  0.7546771E-02  0.1280296E+00
         21   -1    0    0  503  502  0.00000000000E+00  0.00000000000E+00  0.33817878225E+03  0.33817878225E+03  0.00000000000E+00 0. -1.
         21   -1    0    0  501  503 -0.00000000000E+00 -0.00000000000E+00 -0.18114594349E+03  0.18114594349E+03  0.00000000000E+00 0. -1.
          6    1    1    2  501    0  0.88079980745E+02  0.13782929120E+03  0.75502851287E+01  0.23820370133E+03  0.17300000000E+03 0. -1.
         -6    1    1    2    0  502 -0.88079980745E+02 -0.13782929120E+03  0.14948255363E+03  0.28112102440E+03  0.17300000000E+03 0. -1.
</event>
<event>
 4    1  0.6020852E+000  0.1000000E+03  0.7546771E-02  0.1280296E+00
         21   -1    0    0  503  502  0.00000000000E+00  0.00000000000E+00  0.51974085706E+03  0.51974085706E+03  0.00000000000E+00 0. -1.
         21   -1    0    0  501  503 -0.00000000000E+00 -0.00000000000E+00 -0.14195677966E+03  0.14195677966E+03  0.00000000000E+00 0.  1.
          6    1    1    2  501    0 -0.14091540953E+03  0.17313531838E+02  0.13991228277E+01  0.22380319160E+03  0.17300000000E+03 0. -1.
         -6    1    1    2    0  502  0.14091540953E+03 -0.17313531838E+02  0.37638495457E+03  0.43789444511E+03  0.17300000000E+03 0. -1.
</event>
<event>
 4    1  0.6020852E+000  0.1000000E+03  0.7546771E-02  0.1280296E+00
         21   -1    0    0  503  502  0.00000000000E+00  0.00000000000E+00  0.79731669581E+03  0.79731669581E+03  0.00000000000E+00 0. -1.
         21   -1    0    0  501  503 -0.00000000000E+00 -0.00000000000E+00 -0.49531385621E+02  0.49531385621E+02  0.00000000000E+00 0.  1.
          6    1    1    2  501    0  0.84382184427E+02 -0.17642731225E+02  0.27552080556E+03  0.33655955388E+03  0.17300000000E+03 0. -1.
         -6    1    1    2    0  502 -0.84382184427E+02  0.17642731225E+02  0.47226450463E+03  0.51028852755E+03  0.17300000000E+03 0. -1.
</event>
<event>
 4    1  0.6020852E+000  0.1000000E+03  0.7546771E-02  0.1280296E+00
         21   -1    0    0  503  502  0.00000000000E+00  0.00000000000E+00  0.19029505292E+03  0.19029505292E+03  0.00000000000E+00 0. -1.
         21   -1    0    0  501  503 -0.00000000000E+00 -0.00000000000E+00 -0.40304368088E+03  0.40304368088E+03  0.00000000000E+00 0.  1.
          6    1    1    2  501    0 -0.12240363879E+03 -0.11887405928E+03 -0.24870905852E+03  0.34770517475E+03  0.17300000000E+03 0. -1.
         -6    1    1    2    0  502  0.12240363879E+03  0.11887405928E+03  0.35960430566E+02  0.24563355904E+03  0.17300000000E+03 0. -1.
</event>
<event>
 4    1  0.6020852E+000  0.1000000E+03  0.7546771E-02  0.1280296E+00
         21   -1    0    0  501  502  0.00000000000E+00  0.00000000000E+00  0.92027463043E+03  0.92027463043E+03  0.00000000000E+00 0. -1.
         21   -1    0    0  502  503 -0.00000000000E+00 -0.00000000000E+00 -0.86706463934E+02  0.86706463934E+02  0.00000000000E+00 0. -1.
          6    1    1    2  501    0 -0.54393332547E+02 -0.28838637641E+02  0.79937704245E+03  0.82019690175E+03  0.17300000000E+03 0. -1.
         -6    1    1    2    0  503  0.54393332547E+02  0.28838637641E+02  0.34191124045E+02  0.18678419261E+03  0.17300000000E+03 0. -1.
</event>
<event>
 4    1  0.6020852E+000  0.1000000E+03  0.7546771E-02  0.1280296E+00
         21   -1    0    0  501  502  0.00000000000E+00  0.00000000000E+00  0.12029871005E+04  0.12029871005E+04  0.00000000000E+00 0. -1.
         21   -1    0    0  502  503 -0.00000000000E+00 -0.00000000000E+00 -0.65637293680E+02  0.65637293680E+02  0.00000000000E+00 0. -1.
          6    1    1    2  501    0 -0.17996907204E+03  0.28708815114E+02  0.85258666818E+03  0.88884536884E+03  0.17300000000E+03 0. -1.
         -6    1    1    2    0  503  0.17996907204E+03 -0.28708815114E+02  0.28476313863E+03  0.37977902533E+03  0.17300000000E+03 0. -1.
</event>
<event>
 4    1  0.6020852E+000  0.1000000E+03  0.7546771E-02  0.1280296E+00
         21   -1    0    0  501  502  0.00000000000E+00  0.00000000000E+00  0.49309858525E+03  0.49309858525E+03  0.00000000000E+00 0. -1.
         21   -1    0    0  502  503 -0.00000000000E+00 -0.00000000000E+00 -0.72213811981E+02  0.72213811981E+02  0.00000000000E+00 0. -1.
          6    1    1    2  501    0 -0.71424778755E+02  0.23517187856E+02  0.21792757544E+03  0.28822905003E+03  0.17300000000E+03 0. -1.
         -6    1    1    2    0  503  0.71424778755E+02 -0.23517187856E+02  0.20295719783E+03  0.27708334720E+03  0.17300000000E+03 0. -1.
</event>
<event>
 4    1  0.6020852E+000  0.1000000E+03  0.7546771E-02  0.1280296E+00
         21   -1    0    0  503  502  0.00000000000E+00  0.00000000000E+00  0.64315399826E+02  0.64315399826E+02  0.00000000000E+00 0. -1.
         21   -1    0    0  501  503 -0.00000000000E+00 -0.00000000000E+00 -0.18129019009E+04  0.18129019009E+04  0.00000000000E+00 0. -1.
          6    1    1    2  501    0 -0.22879789746E+03  0.17427967115E+03 -0.10469776329E+04  0.10994603428E+04  0.17300000000E+03 0. -1.
         -6    1    1    2    0  502  0.22879789746E+03 -0.17427967115E+03 -0.70160886821E+03  0.77775695793E+03  0.17300000000E+03 0. -1.
</event>
<event>
 4    1  0.6020852E+000  0.1000000E+03  0.7546771E-02  0.1280296E+00
         21   -1    0    0  501  502  0.00000000000E+00  0.00000000000E+00  0.40510165488E+03  0.40510165488E+03  0.00000000000E+00 0.  1.
         21   -1    0    0  502  503 -0.00000000000E+00 -0.00000000000E+00 -0.11829791906E+03  0.11829791906E+03  0.00000000000E+00 0.  1.
          6    1    1    2  501    0 -0.33300878258E+02 -0.12660940969E+03  0.17835313684E+03  0.28085179817E+03  0.17300000000E+03 0.  1.
         -6    1    1    2    0  503  0.33300878258E+02  0.12660940969E+03  0.10845059897E+03  0.24254777577E+03  0.17300000000E+03 0.  1.
</event>
<event>
 4    1  0.6020852E+000  0.1000000E+03  0.7546771E-02  0.1280296E+00
         21   -1    0    0  501  502  0.00000000000E+00  0.00000000000E+00  0.18661901705E+03  0.18661901705E+03  0.00000000000E+00 0.  1.
         21   -1    0    0  502  503 -0.00000000000E+00 -0.00000000000E+00 -0.18837817843E+03  0.18837817843E+03  0.00000000000E+00 0.  1.
          6    1    1    2  501    0  0.63476397941E+02 -0.33831907627E+02 -0.80976531460E+01  0.18753245867E+03  0.17300000000E+03 0.  1.
         -6    1    1    2    0  503 -0.63476397941E+02  0.33831907627E+02  0.63384917597E+01  0.18746473681E+03  0.17300000000E+03 0.  1.
</event>
<event>
 4    1  0.6020852E+000  0.1000000E+03  0.7546771E-02  0.1280296E+00
         21   -1    0    0  503  502  0.00000000000E+00  0.00000000000E+00  0.23833311411E+02  0.23833311411E+02  0.00000000000E+00 0. -1.
         21   -1    0    0  501  503 -0.00000000000E+00 -0.00000000000E+00 -0.13436017609E+04  0.13436017609E+04  0.00000000000E+00 0. -1.
          6    1    1    2  501    0  0.43591423325E+02 -0.13781595438E+02 -0.65290716481E+03  0.67698368549E+03  0.17300000000E+03 0. -1.
         -6    1    1    2    0  502 -0.43591423325E+02  0.13781595438E+02 -0.66686128473E+03  0.69045138687E+03  0.17300000000E+03 0. -1.
</event>
<event>
 4    1  0.6020852E+000  0.1000000E+03  0.7546771E-02  0.1280296E+00
         21   -1    0    0  503  502  0.00000000000E+00  0.00000000000E+00  0.39118246495E+03  0.39118246495E+03  0.00000000000E+00 0.  1.
         21   -1    0    0  501  503 -0.00000000000E+00 -0.00000000000E+00 -0.10306600957E+03  0.10306600957E+03  0.00000000000E+00 0.  1.
          6    1    1    2  501    0  0.59332540650E+02  0.51843296368E+02  0.64481879524E+02  0.20073612168E+03  0.17300000000E+03 0. -1.
         -6    1    1    2    0  502 -0.59332540650E+02 -0.51843296368E+02  0.22363457585E+03  0.29351235285E+03  0.17300000000E+03 0. -1.
</event>
<event>
 4    1  0.6020852E+000  0.1000000E+03  0.7546771E-02  0.1280296E+00
         21   -1    0    0  503  502  0.00000000000E+00  0.00000000000E+00  0.14337449921E+03  0.14337449921E+03  0.00000000000E+00 0.  1.
         21   -1    0    0  501  503 -0.00000000000E+00 -0.00000000000E+00 -0.24469224536E+03  0.24469224536E+03  0.00000000000E+00 0.  1.
          6    1    1    2  501    0  0.69581398677E+01 -0.26308406775E+02 -0.11947675152E+03  0.21200057106E+03  0.17300000000E+03 0. -1.
         -6    1    1    2    0  502 -0.69581398677E+01  0.26308406775E+02  0.18159005365E+02  0.17606617351E+03  0.17300000000E+03 0. -1.
</event>
<event>
 4    1  0.6020852E+000  0.1000000E+03  0.7546771E-02  0.1280296E+00
         21   -1    0    0  501  502  0.00000000000E+00  0.00000000000E+00  0.15261346334E+03  0.15261346334E+03  0.00000000000E+00 0. -1.
         21   -1    0    0  502  503 -0.00000000000E+00 -0.00000000000E+00 -0.72463680040E+03  0.72463680040E+03  0.00000000000E+00 0.  1.
          6    1    1    2  501    0  0.20159855603E+03 -0.85699152491E+02 -0.47594180121E+02  0.28316166498E+03  0.17300000000E+03 0.  1.
         -6    1    1    2    0  503 -0.20159855603E+03  0.85699152491E+02 -0.52442915694E+03  0.59408859877E+03  0.17300000000E+03 0. -1.
</event>
<event>
 4    1  0.6020852E+000  0.1000000E+03  0.7546771E-02  0.1280296E+00
         21   -1    0    0  501  502  0.00000000000E+00  0.00000000000E+00  0.12923920491E+03  0.12923920491E+03  0.00000000000E+00 0. -1.
         21   -1    0    0  502  503 -0.00000000000E+00 -0.00000000000E+00 -0.29629767103E+03  0.29629767103E+03  0.00000000000E+00 0.  1.
          6    1    1    2  501    0  0.33724015943E+02  0.72138165970E+02 -0.13243379604E+03  0.23196752914E+03  0.17300000000E+03 0.  1.
         -6    1    1    2    0  503 -0.33724015943E+02 -0.72138165970E+02 -0.34624670083E+02  0.19356934680E+03  0.17300000000E+03 0. -1.
</event>
<event>
 4    1  0.6020852E+000  0.1000000E+03  0.7546771E-02  0.1280296E+00
         21   -1    0    0  503  502  0.00000000000E+00  0.00000000000E+00  0.72611143337E+03  0.72611143337E+03  0.00000000000E+00 0.  1.
         21   -1    0    0  501  503 -0.00000000000E+00 -0.00000000000E+00 -0.12706368964E+03  0.12706368964E+03  0.00000000000E+00 0.  1.
          6    1    1    2  501    0  0.64281394399E+02 -0.10877359497E+03 -0.28975273815E+01  0.21424562608E+03  0.17300000000E+03 0.  1.
         -6    1    1    2    0  502 -0.64281394399E+02  0.10877359497E+03  0.60194527111E+03  0.63892949693E+03  0.17300000000E+03 0.  1.
</event>
<event>
 4    1  0.6020852E+000  0.1000000E+03  0.7546771E-02  0.1280296E+00
         21   -1    0    0  503  502  0.00000000000E+00  0.00000000000E+00  0.17604897126E+04  0.17604897126E+04  0.00000000000E+00 0.  1.
         21   -1    0    0  501  503 -0.00000000000E+00 -0.00000000000E+00 -0.78264538440E+02  0.78264538440E+02  0.00000000000E+00 0.  1.
          6    1    1    2  501    0 -0.88912426753E+02  0.12875459779E+03  0.12595147747E+03  0.26509609722E+03  0.17300000000E+03 0.  1.
         -6    1    1    2    0  502  0.88912426753E+02 -0.12875459779E+03  0.15562736967E+04  0.15736581538E+04  0.17300000000E+03 0.  1.
</event>
<event>
 4    1  0.6020852E+000  0.1000000E+03  0.7546771E-02  0.1280296E+00
         21   -1    0    0  501  502  0.00000000000E+00  0.00000000000E+00  0.54916508120E+03  0.54916508120E+03  0.00000000000E+00 0. -1.
         21   -1    0    0  502  503 -0.00000000000E+00 -0.00000000000E+00 -0.12342204434E+03  0.12342204434E+03  0.00000000000E+00 0. -1.
          6    1    1    2  501    0 -0.81449641236E+01 -0.17923449835E+03  0.31004108372E+03  0.39780123106E+03  0.17300000000E+03 0. -1.
         -6    1    1    2    0  503  0.81449641236E+01  0.17923449835E+03  0.11570195315E+03  0.27478589448E+03  0.17300000000E+03 0. -1.
</event>
<event>
 4    1  0.6020852E+000  0.1000000E+03  0.7546771E-02  0.1280296E+00
         21   -1    0    0  501  502  0.00000000000E+00  0.00000000000E+00  0.26951241355E+03  0.26951241355E+03  0.00000000000E+00 0. -1.
         21   -1    0    0  502  503 -0.00000000000E+00 -0.00000000000E+00 -0.12803928261E+03  0.12803928261E+03  0.00000000000E+00 0. -1.
          6    1    1    2  501    0 -0.42298468946E+02  0.51679690739E+02  0.59052698722E+02  0.19461801596E+03  0.17300000000E+03 0. -1.
         -6    1    1    2    0  503  0.42298468946E+02 -0.51679690739E+02  0.82420432216E+02  0.20293368019E+03  0.17300000000E+03 0. -1.
</event>
<event>
 4    1  0.6020852E+000  0.1000000E+03  0.7546771E-02  0.1280296E+00
         21   -1    0    0  501  502  0.00000000000E+00  0.00000000000E+00  0.14269777902E+03  0.14269777902E+03  0.00000000000E+00 0.  1.
         21   -1    0    0  502  503 -0.00000000000E+00 -0.00000000000E+00 -0.39082686432E+03  0.39082686432E+03  0.00000000000E+00 0.  1.
          6    1    1    2  501    0 -0.42120227985E+02  0.14313992862E+03 -0.56496367190E+02  0.23533803831E+03  0.17300000000E+03 0.  1.
         -6    1    1    2    0  503  0.42120227985E+02 -0.14313992862E+03 -0.19163271811E+03  0.29818660503E+03  0.17300000000E+03 0.  1.
</event>
<event>
 4    1  0.6020852E+000  0.1000000E+03  0.7546771E-02  0.1280296E+00
         21   -1    0    0  501  502  0.00000000000E+00  0.00000000000E+00  0.39443029977E+03  0.39443029977E+03  0.00000000000E+00 0. -1.
         21   -1    0    0  502  503 -0.00000000000E+00 -0.00000000000E+00 -0.12491039909E+03  0.12491039909E+03  0.00000000000E+00 0.  1.
          6    1    1    2  501    0  0.11402953863E+03  0.24282883057E+02  0.22344705881E+03  0.30569589821E+03  0.17300000000E+03 0. -1.
         -6    1    1    2    0  503 -0.11402953863E+03 -0.24282883057E+02  0.46072841873E+02  0.21364480066E+03  0.17300000000E+03 0.  1.
</event>
<event>
 4    1  0.6020852E+000  0.1000000E+03  0.7546771E-02  0.1280296E+00
         21   -1    0    0  501  502  0.00000000000E+00  0.00000000000E+00  0.90311834800E+03  0.90311834800E+03  0.00000000000E+00 0. -1.
         21   -1    0    0  502  503 -0.00000000000E+00 -0.00000000000E+00 -0.50920111485E+02  0.50920111485E+02  0.00000000000E+00 0.  1.
          6    1    1    2  501    0 -0.67239519631E+02 -0.80747974619E+02  0.58364941555E+03  0.61775159140E+03  0.17300000000E+03 0. -1.
         -6    1    1    2    0  503  0.67239519631E+02  0.80747974619E+02  0.26854882097E+03  0.33628686809E+03  0.17300000000E+03 0.  1.
</event>
<event>
 4    1  0.6020852E+000  0.1000000E+03  0.7546771E-02  0.1280296E+00
         21   -1    0    0  501  502  0.00000000000E+00  0.00000000000E+00  0.15041109306E+03  0.15041109306E+03  0.00000000000E+00 0. -1.
         21   -1    0    0  502  503 -0.00000000000E+00 -0.00000000000E+00 -0.38328578151E+03  0.38328578151E+03  0.00000000000E+00 0.  1.
          6    1    1    2  501    0 -0.12587185788E+03  0.68037100032E+02 -0.21815307199E+02  0.22556081046E+03  0.17300000000E+03 0. -1.
         -6    1    1    2    0  503  0.12587185788E+03 -0.68037100032E+02 -0.21105938125E+03  0.30813606410E+03  0.17300000000E+03 0.  1.
</event>
<event>
 4    1  0.6020852E+000  0.1000000E+03  0.7546771E-02  0.1280296E+00
         21   -1    0    0  501  502  0.00000000000E+00  0.00000000000E+00  0.12688857352E+03  0.12688857352E+03  0.00000000000E+00 0. -1.
         21   -1    0    0  502  503 -0.00000000000E+00 -0.00000000000E+00 -0.40206660818E+03  0.40206660818E+03  0.00000000000E+00 0.  1.
          6    1    1    2  501    0 -0.10064709072E+03 -0.78439324002E+02 -0.56413559298E+02  0.22224773136E+03  0.17300000000E+03 0. -1.
         -6    1    1    2    0  503  0.10064709072E+03  0.78439324002E+02 -0.21876447536E+03  0.30670745035E+03  0.17300000000E+03 0.  1.
</event>
<event>
 4    1  0.6020852E+000  0.1000000E+03  0.7546771E-02  0.1280296E+00
         21   -1    0    0  501  502  0.00000000000E+00  0.00000000000E+00  0.62626092191E+03  0.62626092191E+03  0.00000000000E+00 0. -1.
         21   -1    0    0  502  503 -0.00000000000E+00 -0.00000000000E+00 -0.13501018348E+03  0.13501018348E+03  0.00000000000E+00 0.  1.
          6    1    1    2  501    0 -0.12977460692E+03  0.57311330102E+02  0.48875414048E+03  0.53752734534E+03  0.17300000000E+03 0. -1.
         -6    1    1    2    0  503  0.12977460692E+03 -0.57311330102E+02  0.24965979549E+01  0.22374376005E+03  0.17300000000E+03 0.  1.
</event>
<event>
 4    1  0.6020852E+000  0.1000000E+03  0.7546771E-02  0.1280296E+00
         21   -1    0    0  503  502  0.00000000000E+00  0.00000000000E+00  0.78766688998E+03  0.78766688998E+03  0.00000000000E+00 0. -1.
         21   -1    0    0  501  503 -0.00000000000E+00 -0.00000000000E+00 -0.15062731842E+03  0.15062731842E+03  0.00000000000E+00 0. -1.
          6    1    1    2  501    0 -0.27458823551E+03 -0.73372243242E+02  0.19720780969E+03  0.38678431375E+03  0.17300000000E+03 0. -1.
         -6    1    1    2    0  502  0.27458823551E+03  0.73372243242E+02  0.43983176186E+03  0.55150989465E+03  0.17300000000E+03 0. -1.
</event>
<event>
 4    1  0.6020852E+000  0.1000000E+03  0.7546771E-02  0.1280296E+00
         21   -1    0    0  501  502  0.00000000000E+00  0.00000000000E+00  0.72212279711E+03  0.72212279711E+03  0.00000000000E+00 0. -1.
         21   -1    0    0  502  503 -0.00000000000E+00 -0.00000000000E+00 -0.58759862978E+02  0.58759862978E+02  0.00000000000E+00 0.  1.
          6    1    1    2  501    0  0.21175274603E+02  0.10254981292E+03  0.40601508044E+03  0.45358803107E+03  0.17300000000E+03 0. -1.
         -6    1    1    2    0  503 -0.21175274603E+02 -0.10254981292E+03  0.25734785369E+03  0.32729462902E+03  0.17300000000E+03 0.  1.
</event>
<event>
 4    1  0.6020852E+000  0.1000000E+03  0.7546771E-02  0.1280296E+00
         21   -1    0    0  503  502  0.00000000000E+00  0.00000000000E+00  0.66253533010E+03  0.66253533010E+03  0.00000000000E+00 0.  1.
         21   -1    0    0  501  503 -0.00000000000E+00 -0.00000000000E+00 -0.26527846287E+03  0.26527846287E+03  0.00000000000E+00 0.  1.
          6    1    1    2  501    0 -0.23819504516E+03  0.28553724099E+03  0.10242151827E+03  0.42271451706E+03  0.17300000000E+03 0.  1.
         -6    1    1    2    0  502  0.23819504516E+03 -0.28553724099E+03  0.29483534895E+03  0.50509927591E+03  0.17300000000E+03 0.  1.
</event>
<event>
 4    1  0.6020852E+000  0.1000000E+03  0.7546771E-02  0.1280296E+00
         21   -1    0    0  503  502  0.00000000000E+00  0.00000000000E+00  0.37189878303E+03  0.37189878303E+03  0.00000000000E+00 0. -1.
         21   -1    0    0  501  503 -0.00000000000E+00 -0.00000000000E+00 -0.11696002805E+03  0.11696002805E+03  0.00000000000E+00 0.  1.
          6    1    1    2  501    0  0.11045350563E+03  0.62500551119E+01  0.84740055414E+02  0.22214616154E+03  0.17300000000E+03 0.  1.
         -6    1    1    2    0  502 -0.11045350563E+03 -0.62500551119E+01  0.17019869957E+03  0.26671264955E+03  0.17300000000E+03 0. -1.
</event>
<event>
 4    1  0.6020852E+000  0.1000000E+03  0.7546771E-02  0.1280296E+00
         21   -1    0    0  503  502  0.00000000000E+00  0.00000000000E+00  0.25206299229E+03  0.25206299229E+03  0.00000000000E+00 0. -1.
         21   -1    0    0  501  503 -0.00000000000E+00 -0.00000000000E+00 -0.24549239920E+03  0.24549239920E+03  0.00000000000E+00 0.  1.
          6    1    1    2  501    0 -0.96438705194E+00 -0.17760715008E+03 -0.16848993118E+02  0.24851180731E+03  0.17300000000E+03 0.  1.
         -6    1    1    2    0  502  0.96438705194E+00  0.17760715008E+03  0.23419586216E+02  0.24904358418E+03  0.17300000000E+03 0. -1.
</event>
<event>
 4    1  0.6020852E+000  0.1000000E+03  0.7546771E-02  0.1280296E+00
         21   -1    0    0  503  502  0.00000000000E+00  0.00000000000E+00  0.17326489646E+04  0.17326489646E+04  0.00000000000E+00 0.  1.
         21   -1    0    0  501  503 -0.00000000000E+00 -0.00000000000E+00 -0.35645507960E+02  0.35645507960E+02  0.00000000000E+00 0.  1.
          6    1    1    2  501    0  0.88621418181E+02 -0.15230747325E+03  0.74908826027E+03  0.78874174724E+03  0.17300000000E+03 0.  1.
         -6    1    1    2    0  502 -0.88621418181E+02  0.15230747325E+03  0.94791519638E+03  0.97955272533E+03  0.17300000000E+03 0.  1.
</event>
<event>
 4    1  0.6020852E+000  0.1000000E+03  0.7546771E-02  0.1280296E+00
         21   -1    0    0  501  502  0.00000000000E+00  0.00000000000E+00  0.60656512681E+02  0.60656512681E+02  0.00000000000E+00 0.  1.
         21   -1    0    0  502  503 -0.00000000000E+00 -0.00000000000E+00 -0.14235207859E+04  0.14235207859E+04  0.00000000000E+00 0.  1.
          6    1    1    2  501    0 -0.50699294598E+02 -0.16644877682E+02 -0.96920319477E+02  0.20535339966E+03  0.17300000000E+03 0.  1.
         -6    1    1    2    0  503  0.50699294598E+02  0.16644877682E+02 -0.12659439537E+04  0.12788238989E+04  0.17300000000E+03 0.  1.
</event>
<event>
 4    1  0.6020852E+000  0.1000000E+03  0.7546771E-02  0.1280296E+00
         21   -1    0    0  501  502  0.00000000000E+00  0.00000000000E+00  0.13051334796E+03  0.13051334796E+03  0.00000000000E+00 0.  1.
         21   -1    0    0  502  503 -0.00000000000E+00 -0.00000000000E+00 -0.28488669868E+03  0.28488669868E+03  0.00000000000E+00 0.  1.
          6    1    1    2  501    0 -0.83693423835E+02  0.15742102514E+02 -0.77550119684E+02  0.20783508859E+03  0.17300000000E+03 0.  1.
         -6    1    1    2    0  503  0.83693423835E+02 -0.15742102514E+02 -0.76823231032E+02  0.20756495805E+03  0.17300000000E+03 0.  1.
</event>
<event>
 4    1  0.6020852E+000  0.1000000E+03  0.7546771E-02  0.1280296E+00
         21   -1    0    0  501  502  0.00000000000E+00  0.00000000000E+00  0.91798726200E+02  0.91798726200E+02  0.00000000000E+00 0.  1.
         21   -1    0    0  502  503 -0.00000000000E+00 -0.00000000000E+00 -0.79648532253E+03  0.79648532253E+03  0.00000000000E+00 0.  1.
          6    1    1    2  501    0 -0.22010462718E+02 -0.18248000991E+03 -0.19306038252E+03  0.31778093993E+03  0.17300000000E+03 0.  1.
         -6    1    1    2    0  503  0.22010462718E+02  0.18248000991E+03 -0.51162621382E+03  0.57050310880E+03  0.17300000000E+03 0.  1.
</event>
<event>
 4    1  0.6020852E+000  0.1000000E+03  0.7546771E-02  0.1280296E+00
         21   -1    0    0  501  502  0.00000000000E+00  0.00000000000E+00  0.17366789665E+03  0.17366789665E+03  0.00000000000E+00 0.  1.
         21   -1    0    0  502  503 -0.00000000000E+00 -0.00000000000E+00 -0.70857477645E+03  0.70857477645E+03  0.00000000000E+00 0.  1.
          6    1    1    2  501    0  0.13586975218E+03 -0.49038311135E+02  0.70581409041E+02  0.23616960181E+03  0.17300000000E+03 0.  1.
         -6    1    1    2    0  503 -0.13586975218E+03  0.49038311135E+02 -0.60548828885E+03  0.64607307129E+03  0.17300000000E+03 0.  1.
</event>
<event>
 4    1  0.6020852E+000  0.1000000E+03  0.7546771E-02  0.1280296E+00
         21   -1    0    0  501  502  0.00000000000E+00  0.00000000000E+00  0.84723406652E+02  0.84723406652E+02  0.00000000000E+00 0.  1.
         21   -1    0    0  502  503 -0.00000000000E+00 -0.00000000000E+00 -0.60412883700E+03  0.60412883700E+03  0.00000000000E+00 0.  1.
          6    1    1    2  501    0  0.18984078737E+02 -0.14376528225E+03 -0.23681590569E+03  0.32716910737E+03  0.17300000000E+03 0.  1.
         -6    1    1    2    0  503 -0.18984078737E+02  0.14376528225E+03 -0.28258952466E+03  0.36168313628E+03  0.17300000000E+03 0.  1.
</event>
<event>
 4    1  0.6020852E+000  0.1000000E+03  0.7546771E-02  0.1280296E+00
         21   -1    0    0  503  502  0.00000000000E+00  0.00000000000E+00  0.91991640522E+03  0.91991640522E+03  0.00000000000E+00 0. -1.
         21   -1    0    0  501  503 -0.00000000000E+00 -0.00000000000E+00 -0.74956816298E+03  0.74956816298E+03  0.00000000000E+00 0. -1.
          6    1    1    2  501    0 -0.17403413622E+03 -0.16254584899E+02 -0.71211959449E+03  0.75338928115E+03  0.17300000000E+03 0. -1.
         -6    1    1    2    0  502  0.17403413622E+03  0.16254584899E+02  0.88246783673E+03  0.91609528705E+03  0.17300000000E+03 0. -1.
</event>
<event>
 4    1  0.6020852E+000  0.1000000E+03  0.7546771E-02  0.1280296E+00
         21   -1    0    0  503  502  0.00000000000E+00  0.00000000000E+00  0.26964195557E+04  0.26964195557E+04  0.00000000000E+00 0. -1.
         21   -1    0    0  501  503 -0.00000000000E+00 -0.00000000000E+00 -0.50214973742E+02  0.50214973742E+02  0.00000000000E+00 0. -1.
          6    1    1    2  501    0  0.19150250654E+03 -0.19034332422E+03  0.64957523801E+03  0.72441754598E+03  0.17300000000E+03 0. -1.
         -6    1    1    2    0  502 -0.19150250654E+03  0.19034332422E+03  0.19966293439E+04  0.20222169835E+04  0.17300000000E+03 0. -1.
</event>
<event>
 4    1  0.6020852E+000  0.1000000E+03  0.7546771E-02  0.1280296E+00
         21   -1    0    0  503  502  0.00000000000E+00  0.00000000000E+00  0.97827379990E+02  0.97827379990E+02  0.00000000000E+00 0. -1.
         21   -1    0    0  501  503 -0.00000000000E+00 -0.00000000000E+00 -0.14743182668E+04  0.14743182668E+04  0.00000000000E+00 0. -1.
          6    1    1    2  501    0  0.33384548369E+03 -0.18618012137E+02 -0.79174278214E+03  0.87668983707E+03  0.17300000000E+03 0. -1.
         -6    1    1    2    0  502 -0.33384548369E+03  0.18618012137E+02 -0.58474810467E+03  0.69545580972E+03  0.17300000000E+03 0. -1.
</event>
<event>
 4    1  0.6020852E+000  0.1000000E+03  0.7546771E-02  0.1280296E+00
         21   -1    0    0  503  502  0.00000000000E+00  0.00000000000E+00  0.97618045414E+03  0.97618045414E+03  0.00000000000E+00 0. -1.
         21   -1    0    0  501  503 -0.00000000000E+00 -0.00000000000E+00 -0.75346155929E+02  0.75346155929E+02  0.00000000000E+00 0. -1.
          6    1    1    2  501    0  0.29111474705E+02 -0.13244592970E+03  0.14246766759E+03  0.26194548777E+03  0.17300000000E+03 0. -1.
         -6    1    1    2    0  502 -0.29111474705E+02  0.13244592970E+03  0.75836663062E+03  0.78958112230E+03  0.17300000000E+03 0. -1.
</event>
<event>
 4    1  0.6020852E+000  0.1000000E+03  0.7546771E-02  0.1280296E+00
         21   -1    0    0  501  502  0.00000000000E+00  0.00000000000E+00  0.13574585787E+03  0.13574585787E+03  0.00000000000E+00 0.  1.
         21   -1    0    0  502  503 -0.00000000000E+00 -0.00000000000E+00 -0.45189934493E+03  0.45189934493E+03  0.00000000000E+00 0. -1.
          6    1    1    2  501    0  0.12430190529E+03 -0.28136869037E+02 -0.11953315904E+02  0.21520810584E+03  0.17300000000E+03 0.  1.
         -6    1    1    2    0  503 -0.12430190529E+03  0.28136869037E+02 -0.30420017116E+03  0.37243709696E+03  0.17300000000E+03 0. -1.
</event>
<event>
 4    1  0.6020852E+000  0.1000000E+03  0.7546771E-02  0.1280296E+00
         21   -1    0    0  501  502  0.00000000000E+00  0.00000000000E+00  0.94605489908E+03  0.94605489908E+03  0.00000000000E+00 0.  1.
         21   -1    0    0  502  503 -0.00000000000E+00 -0.00000000000E+00 -0.32944657832E+02  0.32944657832E+02  0.00000000000E+00 0. -1.
          6    1    1    2  501    0 -0.15861009293E+02 -0.30494182788E+02  0.47748631796E+03  0.50902224965E+03  0.17300000000E+03 0.  1.
         -6    1    1    2    0  503  0.15861009293E+02  0.30494182788E+02  0.43562392328E+03  0.46997730726E+03  0.17300000000E+03 0. -1.
</event>
<event>
 4    1  0.6020852E+000  0.1000000E+03  0.7546771E-02  0.1280296E+00
         21   -1    0    0  501  502  0.00000000000E+00  0.00000000000E+00  0.80461705136E+03  0.80461705136E+03  0.00000000000E+00 0.  1.
         21   -1    0    0  502  503 -0.00000000000E+00 -0.00000000000E+00 -0.63922703720E+02  0.63922703720E+02  0.00000000000E+00 0. -1.
          6    1    1    2  501    0  0.91936429480E+02 -0.96309843527E+02  0.48802015802E+03  0.53462189224E+03  0.17300000000E+03 0.  1.
         -6    1    1    2    0  503 -0.91936429480E+02  0.96309843527E+02  0.25267418962E+03  0.33391786285E+03  0.17300000000E+03 0. -1.
</event>
<event>
 4    1  0.6020852E+000  0.1000000E+03  0.7546771E-02  0.1280296E+00
         21   -1    0    0  503  502  0.00000000000E+00  0.00000000000E+00  0.23071474749E+03  0.23071474749E+03  0.00000000000E+00 0.  1.
         21   -1    0    0  501  503 -0.00000000000E+00 -0.00000000000E+00 -0.15429877802E+03  0.15429877802E+03  0.00000000000E+00 0.  1.
          6    1    1    2  501    0  0.45556408596E+02  0.50919214317E+02  0.70502487838E+02  0.19891644865E+03  0.17300000000E+03 0.  1.
         -6    1    1    2    0  502 -0.45556408596E+02 -0.50919214317E+02  0.59134816385E+01  0.18609707686E+03  0.17300000000E+03 0.  1.
</event>
<event>
 4    1  0.6020852E+000  0.1000000E+03  0.7546771E-02  0.1280296E+00
         21   -1    0    0  503  502  0.00000000000E+00  0.00000000000E+00  0.29357734479E+03  0.29357734479E+03  0.00000000000E+00 0.  1.
         21   -1    0    0  501  503 -0.00000000000E+00 -0.00000000000E+00 -0.61790103059E+03  0.61790103059E+03  0.00000000000E+00 0.  1.
          6    1    1    2  501    0  0.28584325340E+03 -0.62935124715E+02 -0.43665207951E+03  0.55340874043E+03  0.17300000000E+03 0.  1.
         -6    1    1    2    0  502 -0.28584325340E+03  0.62935124715E+02  0.11232839371E+03  0.35806963495E+03  0.17300000000E+03 0.  1.
</event>
<event>
 4    1  0.6020852E+000  0.1000000E+03  0.7546771E-02  0.1280296E+00
         21   -1    0    0  503  502  0.00000000000E+00  0.00000000000E+00  0.23788261204E+03  0.23788261204E+03  0.00000000000E+00 0.  1.
         21   -1    0    0  501  503 -0.00000000000E+00 -0.00000000000E+00 -0.31470891300E+03  0.31470891300E+03  0.00000000000E+00 0.  1.
          6    1    1    2  501    0  0.36148554030E+02 -0.16622692910E+03 -0.16613144891E+03  0.29405232227E+03  0.17300000000E+03 0.  1.
         -6    1    1    2    0  502 -0.36148554030E+02  0.16622692910E+03  0.89305147949E+02  0.25853920276E+03  0.17300000000E+03 0.  1.
</event>
<event>
 4    1  0.6020852E+000  0.1000000E+03  0.7546771E-02  0.1280296E+00
         21   -1    0    0  501  502  0.00000000000E+00  0.00000000000E+00  0.13938457091E+04  0.13938457091E+04  0.00000000000E+00 0. -1.
         21   -1    0    0  502  503 -0.00000000000E+00 -0.00000000000E+00 -0.11917800934E+03  0.11917800934E+03  0.00000000000E+00 0.  1.
          6    1    1    2  501    0 -0.12928571356E+03 -0.41234097873E+02  0.12743212133E+04  0.12931506491E+04  0.17300000000E+03 0. -1.
         -6    1    1    2    0  503  0.12928571356E+03  0.41234097873E+02  0.34648642357E+00  0.21987306931E+03  0.17300000000E+03 0.  1.
</event>
<event>
 4    1  0.6020852E+000  0.1000000E+03  0.7546771E-02  0.1280296E+00
         21   -1    0    0  501  502  0.00000000000E+00  0.00000000000E+00  0.12616693184E+03  0.12616693184E+03  0.00000000000E+00 0. -1.
         21   -1    0    0  502  503 -0.00000000000E+00 -0.00000000000E+00 -0.74619041179E+03  0.74619041179E+03  0.00000000000E+00 0.  1.
          6    1    1    2  501    0  0.33639151546E+02  0.15525877566E+02  0.46353194871E+02  0.18289413349E+03  0.17300000000E+03 0. -1.
         -6    1    1    2    0  503 -0.33639151546E+02 -0.15525877566E+02 -0.66637667482E+03  0.68946321014E+03  0.17300000000E+03 0.  1.
</event>
<event>
 4    1  0.6020852E+000  0.1000000E+03  0.7546771E-02  0.1280296E+00
         21   -1    0    0  503  502  0.00000000000E+00  0.00000000000E+00  0.23039823086E+04  0.23039823086E+04  0.00000000000E+00 0.  1.
         21   -1    0    0  501  503 -0.00000000000E+00 -0.00000000000E+00 -0.22628886451E+02  0.22628886451E+02  0.00000000000E+00 0. -1.
          6    1    1    2  501    0 -0.11557251461E+03  0.55947873667E+02  0.75534458114E+03  0.78546903629E+03  0.17300000000E+03 0. -1.
         -6    1    1    2    0  502  0.11557251461E+03 -0.55947873667E+02  0.15260088410E+04  0.15411421588E+04  0.17300000000E+03 0.  1.
</event>
<event>
 4    1  0.6020852E+000  0.1000000E+03  0.7546771E-02  0.1280296E+00
         21   -1    0    0  503  502  0.00000000000E+00  0.00000000000E+00  0.94209802408E+02  0.94209802408E+02  0.00000000000E+00 0.  1.
         21   -1    0    0  501  503 -0.00000000000E+00 -0.00000000000E+00 -0.11128260149E+04  0.11128260149E+04  0.00000000000E+00 0. -1.
          6    1    1    2  501    0  0.52390157879E+02  0.47471023240E+02 -0.10021459049E+04  0.10194231905E+04  0.17300000000E+03 0. -1.
         -6    1    1    2    0  502 -0.52390157879E+02 -0.47471023240E+02 -0.16470307583E+02  0.18761262677E+03  0.17300000000E+03 0.  1.
</event>
<event>
 4    1  0.6020852E+000  0.1000000E+03  0.7546771E-02  0.1280296E+00
         21   -1    0    0  501  502  0.00000000000E+00  0.00000000000E+00  0.94013287733E+03  0.94013287733E+03  0.00000000000E+00 0.  1.
         21   -1    0    0  502  503 -0.00000000000E+00 -0.00000000000E+00 -0.52072482797E+02  0.52072482797E+02  0.00000000000E+00 0.  1.
          6    1    1    2  501    0  0.11670088986E+02 -0.56333130288E+02  0.72512311737E+03  0.74769121159E+03  0.17300000000E+03 0.  1.
         -6    1    1    2    0  503 -0.11670088986E+02  0.56333130288E+02  0.16293727716E+03  0.24451414854E+03  0.17300000000E+03 0.  1.
</event>
<event>
 4    1  0.6020852E+000  0.1000000E+03  0.7546771E-02  0.1280296E+00
         21   -1    0    0  501  502  0.00000000000E+00  0.00000000000E+00  0.54099396255E+02  0.54099396255E+02  0.00000000000E+00 0.  1.
         21   -1    0    0  502  503 -0.00000000000E+00 -0.00000000000E+00 -0.59972854301E+03  0.59972854301E+03  0.00000000000E+00 0.  1.
          6    1    1    2  501    0 -0.17844467938E+02  0.39759371525E+02 -0.31788625143E+03  0.36452695580E+03  0.17300000000E+03 0.  1.
         -6    1    1    2    0  503  0.17844467938E+02 -0.39759371525E+02 -0.22774289533E+03  0.28930098346E+03  0.17300000000E+03 0.  1.
</event>
<event>
 4    1  0.6020852E+000  0.1000000E+03  0.7546771E-02  0.1280296E+00
         21   -1    0    0  501  502  0.00000000000E+00  0.00000000000E+00  0.24055194737E+03  0.24055194737E+03  0.00000000000E+00 0.  1.
         21   -1    0    0  502  503 -0.00000000000E+00 -0.00000000000E+00 -0.14051841379E+03  0.14051841379E+03  0.00000000000E+00 0.  1.
          6    1    1    2  501    0 -0.55441534318E+02  0.25782541158E+02  0.37998972346E+02  0.18738042869E+03  0.17300000000E+03 0.  1.
         -6    1    1    2    0  503  0.55441534318E+02 -0.25782541158E+02  0.62034561235E+02  0.19368993248E+03  0.17300000000E+03 0.  1.
</event>
<event>
 4    1  0.6020852E+000  0.1000000E+03  0.7546771E-02  0.1280296E+00
         21   -1    0    0  501  502  0.00000000000E+00  0.00000000000E+00  0.89314958697E+02  0.89314958697E+02  0.00000000000E+00 0.  1.
         21   -1    0    0  502  503 -0.00000000000E+00 -0.00000000000E+00 -0.11739994932E+04  0.11739994932E+04  0.00000000000E+00 0.  1.
          6    1    1    2  501    0  0.20751613014E+02  0.12677277048E+03 -0.70839929962E+02  0.22682429423E+03  0.17300000000E+03 0.  1.
         -6    1    1    2    0  503 -0.20751613014E+02 -0.12677277048E+03 -0.10138446045E+04  0.10364901576E+04  0.17300000000E+03 0.  1.
</event>
<event>
 4    1  0.6020852E+000  0.1000000E+03  0.7546771E-02  0.1280296E+00
         21   -1    0    0  501  502  0.00000000000E+00  0.00000000000E+00  0.22099421452E+03  0.22099421452E+03  0.00000000000E+00 0. -1.
         21   -1    0    0  502  503 -0.00000000000E+00 -0.00000000000E+00 -0.23762904043E+03  0.23762904043E+03  0.00000000000E+00 0.  1.
          6    1    1    2  501    0 -0.15489706958E+02 -0.68457885597E+02  0.12465812288E+03  0.22448844229E+03  0.17300000000E+03 0. -1.
         -6    1    1    2    0  503  0.15489706958E+02  0.68457885597E+02 -0.14129294879E+03  0.23413481266E+03  0.17300000000E+03 0.  1.
</event>
<event>
 4    1  0.6020852E+000  0.1000000E+03  0.7546771E-02  0.1280296E+00
         21   -1    0    0  501  502  0.00000000000E+00  0.00000000000E+00  0.13794989234E+04  0.13794989234E+04  0.00000000000E+00 0. -1.
         21   -1    0    0  502  503 -0.00000000000E+00 -0.00000000000E+00 -0.76291226730E+02  0.76291226730E+02  0.00000000000E+00 0.  1.
          6    1    1    2  501    0  0.14423309004E+03 -0.73977612777E+02  0.11484714599E+04  0.11726856210E+04  0.17300000000E+03 0. -1.
         -6    1    1    2    0  503 -0.14423309004E+03  0.73977612777E+02  0.15473623677E+03  0.28310452915E+03  0.17300000000E+03 0.  1.
</event>
<event>
 4    1  0.6020852E+000  0.1000000E+03  0.7546771E-02  0.1280296E+00
         21   -1    0    0  503  502  0.00000000000E+00  0.00000000000E+00  0.22116754782E+03  0.22116754782E+03  0.00000000000E+00 0.  1.
         21   -1    0    0  501  503 -0.00000000000E+00 -0.00000000000E+00 -0.26601260656E+03  0.26601260656E+03  0.00000000000E+00 0. -1.
          6    1    1    2  501    0  0.10118857456E+02 -0.16970958142E+03 -0.23214931126E+02  0.24366301797E+03  0.17300000000E+03 0. -1.
         -6    1    1    2    0  502 -0.10118857456E+02  0.16970958142E+03 -0.21630127621E+02  0.24351713640E+03  0.17300000000E+03 0.  1.
</event>
<event>
 4    1  0.6020852E+000  0.1000000E+03  0.7546771E-02  0.1280296E+00
         21   -1    0    0  503  502  0.00000000000E+00  0.00000000000E+00  0.84207441714E+02  0.84207441714E+02  0.00000000000E+00 0.  1.
         21   -1    0    0  501  503 -0.00000000000E+00 -0.00000000000E+00 -0.88586262432E+03  0.88586262432E+03  0.00000000000E+00 0. -1.
          6    1    1    2  501    0  0.49207912346E+02 -0.14532139908E+03 -0.14269745379E+03  0.27171913990E+03  0.17300000000E+03 0. -1.
         -6    1    1    2    0  502 -0.49207912346E+02  0.14532139908E+03 -0.65895772882E+03  0.69835092614E+03  0.17300000000E+03 0.  1.
</event>
<event>
 4    1  0.6020852E+000  0.1000000E+03  0.7546771E-02  0.1280296E+00
         21   -1    0    0  501  502  0.00000000000E+00  0.00000000000E+00  0.10609703975E+04  0.10609703975E+04  0.00000000000E+00 0.  1.
         21   -1    0    0  502  503 -0.00000000000E+00 -0.00000000000E+00 -0.91581450838E+02  0.91581450838E+02  0.00000000000E+00 0.  1.
          6    1    1    2  501    0  0.14525944643E+03  0.11436315143E+03  0.14856498683E+03  0.29356394958E+03  0.17300000000E+03 0. -1.
         -6    1    1    2    0  503 -0.14525944643E+03 -0.11436315143E+03  0.82082395985E+03  0.85898789878E+03  0.17300000000E+03 0. -1.
</event>
<event>
 4    1  0.6020852E+000  0.1000000E+03  0.7546771E-02  0.1280296E+00
         21   -1    0    0  501  502  0.00000000000E+00  0.00000000000E+00  0.22846289966E+03  0.22846289966E+03  0.00000000000E+00 0.  1.
         21   -1    0    0  502  503 -0.00000000000E+00 -0.00000000000E+00 -0.32407947815E+03  0.32407947815E+03  0.00000000000E+00 0.  1.
          6    1    1    2  501    0 -0.12097635906E+03  0.12111317991E+03  0.75741556352E+02  0.25489108489E+03  0.17300000000E+03 0. -1.
         -6    1    1    2    0  503  0.12097635906E+03 -0.12111317991E+03 -0.17135813484E+03  0.29765129291E+03  0.17300000000E+03 0. -1.
</event>
<event>
 4    1  0.6020852E+000  0.1000000E+03  0.7546771E-02  0.1280296E+00
         21   -1    0    0  501  502  0.00000000000E+00  0.00000000000E+00  0.20931467880E+03  0.20931467880E+03  0.00000000000E+00 0.  1.
         21   -1    0    0  502  503 -0.00000000000E+00 -0.00000000000E+00 -0.22731906234E+03  0.22731906234E+03  0.00000000000E+00 0.  1.
          6    1    1    2  501    0 -0.92934206998E+02  0.28527835020E+02  0.81637651313E+02  0.21457937998E+03  0.17300000000E+03 0.  1.
         -6    1    1    2    0  503  0.92934206998E+02 -0.28527835020E+02 -0.99642034851E+02  0.22205436116E+03  0.17300000000E+03 0.  1.
</event>
<event>
 4    1  0.6020852E+000  0.1000000E+03  0.7546771E-02  0.1280296E+00
         21   -1    0    0  503  502  0.00000000000E+00  0.00000000000E+00  0.31420109170E+03  0.31420109170E+03  0.00000000000E+00 0.  1.
         21   -1    0    0  501  503 -0.00000000000E+00 -0.00000000000E+00 -0.28367930857E+03  0.28367930857E+03  0.00000000000E+00 0. -1.
          6    1    1    2  501    0  0.65929416684E+02  0.23096789721E+03 -0.23654885391E+02  0.29695355046E+03  0.17300000000E+03 0. -1.
         -6    1    1    2    0  502 -0.65929416684E+02 -0.23096789721E+03  0.54176668523E+02  0.30092684981E+03  0.17300000000E+03 0.  1.
</event>
<event>
 4    1  0.6020852E+000  0.1000000E+03  0.7546771E-02  0.1280296E+00
         21   -1    0    0  503  502  0.00000000000E+00  0.00000000000E+00  0.40476227604E+03  0.40476227604E+03  0.00000000000E+00 0.  1.
         21   -1    0    0  501  503 -0.00000000000E+00 -0.00000000000E+00 -0.89352029586E+02  0.89352029586E+02  0.00000000000E+00 0. -1.
          6    1    1    2  501    0  0.19687860085E+02 -0.95337156351E+01  0.59119807007E+02  0.18412673665E+03  0.17300000000E+03 0. -1.
         -6    1    1    2    0  502 -0.19687860085E+02  0.95337156351E+01  0.25629043945E+03  0.30998756898E+03  0.17300000000E+03 0.  1.
</event>
<event>
 4    1  0.6020852E+000  0.1000000E+03  0.7546771E-02  0.1280296E+00
         21   -1    0    0  503  502  0.00000000000E+00  0.00000000000E+00  0.15636821603E+03  0.15636821603E+03  0.00000000000E+00 0.  1.
         21   -1    0    0  501  503 -0.00000000000E+00 -0.00000000000E+00 -0.48472417393E+03  0.48472417393E+03  0.00000000000E+00 0. -1.
          6    1    1    2  501    0  0.11728217699E+03 -0.78459165852E+02 -0.35175679219E+03  0.41662067952E+03  0.17300000000E+03 0. -1.
         -6    1    1    2    0  502 -0.11728217699E+03  0.78459165852E+02  0.23400834291E+02  0.22447171045E+03  0.17300000000E+03 0.  1.
</event>
<event>
 4    1  0.6020852E+000  0.1000000E+03  0.7546771E-02  0.1280296E+00
         21   -1    0    0  501  502  0.00000000000E+00  0.00000000000E+00  0.32136582774E+02  0.32136582774E+02  0.00000000000E+00 0. -1.
         21   -1    0    0  502  503 -0.00000000000E+00 -0.00000000000E+00 -0.12137851449E+04  0.12137851449E+04  0.00000000000E+00 0.  1.
          6    1    1    2  501    0  0.56288309559E+01 -0.65987772390E+02 -0.37477070323E+03  0.41805280748E+03  0.17300000000E+03 0. -1.
         -6    1    1    2    0  503 -0.56288309559E+01  0.65987772390E+02 -0.80687785886E+03  0.82786892015E+03  0.17300000000E+03 0.  1.
</event>
<event>
 4    1  0.6020852E+000  0.1000000E+03  0.7546771E-02  0.1280296E+00
         21   -1    0    0  501  502  0.00000000000E+00  0.00000000000E+00  0.97816991042E+03  0.97816991042E+03  0.00000000000E+00 0. -1.
         21   -1    0    0  502  503 -0.00000000000E+00 -0.00000000000E+00 -0.85706301123E+02  0.85706301123E+02  0.00000000000E+00 0. -1.
          6    1    1    2  501    0 -0.48518422792E+02 -0.54326787388E+02  0.85124547070E+03  0.87169563987E+03  0.17300000000E+03 0. -1.
         -6    1    1    2    0  503  0.48518422792E+02  0.54326787388E+02  0.41218138591E+02  0.19218057167E+03  0.17300000000E+03 0. -1.
</event>
<event>
 4    1  0.6020852E+000  0.1000000E+03  0.7546771E-02  0.1280296E+00
         21   -1    0    0  501  502  0.00000000000E+00  0.00000000000E+00  0.11293952194E+03  0.11293952194E+03  0.00000000000E+00 0.  1.
         21   -1    0    0  502  503 -0.00000000000E+00 -0.00000000000E+00 -0.12506070919E+04  0.12506070919E+04  0.00000000000E+00 0.  1.
          6    1    1    2  501    0  0.11196920777E+03 -0.15201012657E+03 -0.69813927879E+02  0.26541885124E+03  0.17300000000E+03 0.  1.
         -6    1    1    2    0  503 -0.11196920777E+03  0.15201012657E+03 -0.10678536421E+04  0.10981277626E+04  0.17300000000E+03 0.  1.
</event>
<event>
 4    1  0.6020852E+000  0.1000000E+03  0.7546771E-02  0.1280296E+00
         21   -1    0    0  503  502  0.00000000000E+00  0.00000000000E+00  0.42549169140E+03  0.42549169140E+03  0.00000000000E+00 0.  1.
         21   -1    0    0  501  503 -0.00000000000E+00 -0.00000000000E+00 -0.88227098216E+02  0.88227098216E+02  0.00000000000E+00 0.  1.
          6    1    1    2  501    0 -0.43876727589E+02  0.68826628370E+02  0.12780071002E+03  0.23005280585E+03  0.17300000000E+03 0.  1.
         -6    1    1    2    0  502  0.43876727589E+02 -0.68826628370E+02  0.20946388316E+03  0.28366598376E+03  0.17300000000E+03 0.  1.
</event>
<event>
 4    1  0.6020852E+000  0.1000000E+03  0.7546771E-02  0.1280296E+00
         21   -1    0    0  503  502  0.00000000000E+00  0.00000000000E+00  0.91025674026E+02  0.91025674026E+02  0.00000000000E+00 0.  1.
         21   -1    0    0  501  503 -0.00000000000E+00 -0.00000000000E+00 -0.66125344237E+03  0.66125344237E+03  0.00000000000E+00 0.  1.
          6    1    1    2  501    0 -0.95650228241E+02  0.13456091486E+03 -0.20105009812E+03  0.31241918623E+03  0.17300000000E+03 0.  1.
         -6    1    1    2    0  502  0.95650228241E+02 -0.13456091486E+03 -0.36917767022E+03  0.43985993016E+03  0.17300000000E+03 0.  1.
</event>
<event>
 4    1  0.6020852E+000  0.1000000E+03  0.7546771E-02  0.1280296E+00
         21   -1    0    0  503  502  0.00000000000E+00  0.00000000000E+00  0.16891592445E+03  0.16891592445E+03  0.00000000000E+00 0.  1.
         21   -1    0    0  501  503 -0.00000000000E+00 -0.00000000000E+00 -0.19160243044E+03  0.19160243044E+03  0.00000000000E+00 0.  1.
          6    1    1    2  501    0 -0.36362401600E+02  0.15836726552E+02 -0.40772917749E+02  0.18211111163E+03  0.17300000000E+03 0.  1.
         -6    1    1    2    0  502  0.36362401600E+02 -0.15836726552E+02  0.18086411763E+02  0.17840724326E+03  0.17300000000E+03 0.  1.
</event>
<event>
 4    1  0.6020852E+000  0.1000000E+03  0.7546771E-02  0.1280296E+00
         21   -1    0    0  503  502  0.00000000000E+00  0.00000000000E+00  0.69362424287E+03  0.69362424287E+03  0.00000000000E+00 0.  1.
         21   -1    0    0  501  503 -0.00000000000E+00 -0.00000000000E+00 -0.13095288582E+03  0.13095288582E+03  0.00000000000E+00 0. -1.
          6    1    1    2  501    0 -0.15155311868E+03 -0.34765668301E+02  0.19174121560E+02  0.23339590059E+03  0.17300000000E+03 0. -1.
         -6    1    1    2    0  502  0.15155311868E+03  0.34765668301E+02  0.54349723550E+03  0.59118122811E+03  0.17300000000E+03 0.  1.
</event>
<event>
 4    1  0.6020852E+000  0.1000000E+03  0.7546771E-02  0.1280296E+00
         21   -1    0    0  503  502  0.00000000000E+00  0.00000000000E+00  0.28034365261E+03  0.28034365261E+03  0.00000000000E+00 0.  1.
         21   -1    0    0  501  503 -0.00000000000E+00 -0.00000000000E+00 -0.16208257035E+03  0.16208257035E+03  0.00000000000E+00 0. -1.
          6    1    1    2  501    0 -0.78001272558E+02  0.47188005547E+02 -0.28919754374E+02  0.19767715746E+03  0.17300000000E+03 0. -1.
         -6    1    1    2    0  502  0.78001272558E+02 -0.47188005547E+02  0.14718083663E+03  0.24474906549E+03  0.17300000000E+03 0.  1.
</event>
<event>
 4    1  0.6020852E+000  0.1000000E+03  0.7546771E-02  0.1280296E+00
         21   -1    0    0  503  502  0.00000000000E+00  0.00000000000E+00  0.11148484408E+04  0.11148484408E+04  0.00000000000E+00 0.  1.
         21   -1    0    0  501  503 -0.00000000000E+00 -0.00000000000E+00 -0.10447969819E+03  0.10447969819E+03  0.00000000000E+00 0. -1.
          6    1    1    2  501    0 -0.94987133683E+02 -0.27516981102E+02  0.10232104289E+02  0.19953304431E+03  0.17300000000E+03 0. -1.
         -6    1    1    2    0  502  0.94987133683E+02  0.27516981102E+02  0.10001366383E+04  0.10197950946E+04  0.17300000000E+03 0.  1.
</event>
<event>
 4    1  0.6020852E+000  0.1000000E+03  0.7546771E-02  0.1280296E+00
         21   -1    0    0  503  502  0.00000000000E+00  0.00000000000E+00  0.54830367060E+03  0.54830367060E+03  0.00000000000E+00 0.  1.
         21   -1    0    0  501  503 -0.00000000000E+00 -0.00000000000E+00 -0.24417371629E+03  0.24417371629E+03  0.00000000000E+00 0. -1.
          6    1    1    2  501    0 -0.13954153025E+02  0.64806148402E+02 -0.18962675683E+03  0.26510726539E+03  0.17300000000E+03 0. -1.
         -6    1    1    2    0  502  0.13954153025E+02 -0.64806148402E+02  0.49375671114E+03  0.52737012150E+03  0.17300000000E+03 0.  1.
</event>
<event>
 4    1  0.6020852E+000  0.1000000E+03  0.7546771E-02  0.1280296E+00
         21   -1    0    0  503  502  0.00000000000E+00  0.00000000000E+00  0.69259139214E+03  0.69259139214E+03  0.00000000000E+00 0. -1.
         21   -1    0    0  501  503 -0.00000000000E+00 -0.00000000000E+00 -0.19769669290E+03  0.19769669290E+03  0.00000000000E+00 0. -1.
          6    1    1    2  501    0 -0.13063268715E+03  0.25135792931E+03  0.50699236972E+02  0.33577540144E+03  0.17300000000E+03 0. -1.
         -6    1    1    2    0  502  0.13063268715E+03 -0.25135792931E+03  0.44419546227E+03  0.55451268361E+03  0.17300000000E+03 0. -1.
</event>
<event>
 4    1  0.6020852E+000  0.1000000E+03  0.7546771E-02  0.1280296E+00
         21   -1    0    0  501  502  0.00000000000E+00  0.00000000000E+00  0.30393859793E+02  0.30393859793E+02  0.00000000000E+00 0. -1.
         21   -1    0    0  502  503 -0.00000000000E+00 -0.00000000000E+00 -0.14320503268E+04  0.14320503268E+04  0.00000000000E+00 0.  1.
          6    1    1    2  501    0 -0.85247013167E+02  0.88101956341E+01 -0.42369921781E+03  0.46561217765E+03  0.17300000000E+03 0. -1.
         -6    1    1    2    0  503  0.85247013167E+02 -0.88101956341E+01 -0.97795724924E+03  0.99683200899E+03  0.17300000000E+03 0.  1.
</event>
<event>
 4    1  0.6020852E+000  0.1000000E+03  0.7546771E-02  0.1280296E+00
         21   -1    0    0  501  502  0.00000000000E+00  0.00000000000E+00  0.34837439198E+02  0.34837439198E+02  0.00000000000E+00 0. -1.
         21   -1    0    0  502  503 -0.00000000000E+00 -0.00000000000E+00 -0.11171132053E+04  0.11171132053E+04  0.00000000000E+00 0. -1.
          6    1    1    2  501    0 -0.29369982525E+02 -0.86624442661E+02 -0.61395241907E+03  0.64438572518E+03  0.17300000000E+03 0. -1.
         -6    1    1    2    0  503  0.29369982525E+02  0.86624442661E+02 -0.46832334700E+03  0.50756491928E+03  0.17300000000E+03 0. -1.
</event>
<event>
 4    1  0.6020852E+000  0.1000000E+03  0.7546771E-02  0.1280296E+00
         21   -1    0    0  501  502  0.00000000000E+00  0.00000000000E+00  0.26928236945E+03  0.26928236945E+03  0.00000000000E+00 0. -1.
         21   -1    0    0  502  503 -0.00000000000E+00 -0.00000000000E+00 -0.98555729294E+03  0.98555729294E+03  0.00000000000E+00 0. -1.
          6    1    1    2  501    0 -0.17049978526E+03  0.19351196106E+03  0.14246015186E+03  0.34167374894E+03  0.17300000000E+03 0. -1.
         -6    1    1    2    0  503  0.17049978526E+03 -0.19351196106E+03 -0.85873507535E+03  0.91316591344E+03  0.17300000000E+03 0. -1.
</event>
<event>
 4    1  0.6020852E+000  0.1000000E+03  0.7546771E-02  0.1280296E+00
         21   -1    0    0  501  502  0.00000000000E+00  0.00000000000E+00  0.35327338630E+03  0.35327338630E+03  0.00000000000E+00 0. -1.
         21   -1    0    0  502  503 -0.00000000000E+00 -0.00000000000E+00 -0.21356815563E+03  0.21356815563E+03  0.00000000000E+00 0. -1.
          6    1    1    2  501    0  0.31188713279E+02 -0.36947446884E+02  0.28426743339E+03  0.33626600089E+03  0.17300000000E+03 0. -1.
         -6    1    1    2    0  503 -0.31188713279E+02  0.36947446884E+02 -0.14456220273E+03  0.23057554104E+03  0.17300000000E+03 0. -1.
</event>
<event>
 4    1  0.6020852E+000  0.1000000E+03  0.7546771E-02  0.1280296E+00
         21   -1    0    0  503  502  0.00000000000E+00  0.00000000000E+00  0.13289938594E+03  0.13289938594E+03  0.00000000000E+00 0. -1.
         21   -1    0    0  501  503 -0.00000000000E+00 -0.00000000000E+00 -0.40222358226E+03  0.40222358226E+03  0.00000000000E+00 0.  1.
          6    1    1    2  501    0 -0.48624642450E+02  0.77626919193E+02 -0.27703702420E+03  0.33921793469E+03  0.17300000000E+03 0. -1.
         -6    1    1    2    0  502  0.48624642450E+02 -0.77626919193E+02  0.77128278843E+01  0.19590503350E+03  0.17300000000E+03 0.  1.
</event>
<event>
 4    1  0.6020852E+000  0.1000000E+03  0.7546771E-02  0.1280296E+00
         21   -1    0    0  503  502  0.00000000000E+00  0.00000000000E+00  0.25644388394E+03  0.25644388394E+03  0.00000000000E+00 0. -1.
         21   -1    0    0  501  503 -0.00000000000E+00 -0.00000000000E+00 -0.23275407687E+03  0.23275407687E+03  0.00000000000E+00 0.  1.
          6    1    1    2  501    0 -0.13272404907E+03  0.99530293205E+02 -0.35511893163E+02  0.24230568921E+03  0.17300000000E+03 0. -1.
         -6    1    1    2    0  502  0.13272404907E+03 -0.99530293205E+02  0.59201700232E+02  0.24689227161E+03  0.17300000000E+03 0.  1.
</event>
<event>
 4    1  0.6020852E+000  0.1000000E+03  0.7546771E-02  0.1280296E+00
         21   -1    0    0  503  502  0.00000000000E+00  0.00000000000E+00  0.49144797293E+03  0.49144797293E+03  0.00000000000E+00 0. -1.
         21   -1    0    0  501  503 -0.00000000000E+00 -0.00000000000E+00 -0.66275369736E+02  0.66275369736E+02  0.00000000000E+00 0. -1.
          6    1    1    2  501    0  0.12609537859E+02 -0.10411870335E+02  0.28788006740E+03  0.33626082242E+03  0.17300000000E+03 0. -1.
         -6    1    1    2    0  502 -0.12609537859E+02  0.10411870335E+02  0.13729253580E+03  0.22146252025E+03  0.17300000000E+03 0. -1.
</event>
<event>
 4    1  0.6020852E+000  0.1000000E+03  0.7546771E-02  0.1280296E+00
         21   -1    0    0  503  502  0.00000000000E+00  0.00000000000E+00  0.46048930298E+03  0.46048930298E+03  0.00000000000E+00 0. -1.
         21   -1    0    0  501  503 -0.00000000000E+00 -0.00000000000E+00 -0.37923960320E+03  0.37923960320E+03  0.00000000000E+00 0. -1.
          6    1    1    2  501    0 -0.25470435896E+03  0.37265934935E+02 -0.24077352412E+03  0.39263717386E+03  0.17300000000E+03 0. -1.
         -6    1    1    2    0  502  0.25470435896E+03 -0.37265934935E+02  0.32202322390E+03  0.44709173232E+03  0.17300000000E+03 0. -1.
</event>
<event>
 4    1  0.6020852E+000  0.1000000E+03  0.7546771E-02  0.1280296E+00
         21   -1    0    0  503  502  0.00000000000E+00  0.00000000000E+00  0.70176348515E+02  0.70176348515E+02  0.00000000000E+00 0. -1.
         21   -1    0    0  501  503 -0.00000000000E+00 -0.00000000000E+00 -0.84620134186E+03  0.84620134186E+03  0.00000000000E+00 0.  1.
          6    1    1    2  501    0  0.96037813433E+02  0.90388540463E+02 -0.59450457711E+03  0.63305453324E+03  0.17300000000E+03 0. -1.
         -6    1    1    2    0  502 -0.96037813433E+02 -0.90388540463E+02 -0.18152041623E+03  0.28332315713E+03  0.17300000000E+03 0.  1.
</event>
<event>
 4    1  0.6020852E+000  0.1000000E+03  0.7546771E-02  0.1280296E+00
         21   -1    0    0  501  502  0.00000000000E+00  0.00000000000E+00  0.54532104884E+03  0.54532104884E+03  0.00000000000E+00 0. -1.
         21   -1    0    0  502  503 -0.00000000000E+00 -0.00000000000E+00 -0.23012052778E+03  0.23012052778E+03  0.00000000000E+00 0.  1.
          6    1    1    2  501    0  0.12171840656E+03 -0.80417378317E+02  0.45589533682E+03  0.50897139740E+03  0.17300000000E+03 0.  1.
         -6    1    1    2    0  503 -0.12171840656E+03  0.80417378317E+02 -0.14069481577E+03  0.26647017923E+03  0.17300000000E+03 0. -1.
</event>
<event>
 4    1  0.6020852E+000  0.1000000E+03  0.7546771E-02  0.1280296E+00
         21   -1    0    0  503  502  0.00000000000E+00  0.00000000000E+00  0.10040156479E+04  0.10040156479E+04  0.00000000000E+00 0.  1.
         21   -1    0    0  501  503 -0.00000000000E+00 -0.00000000000E+00 -0.21839495910E+03  0.21839495910E+03  0.00000000000E+00 0.  1.
          6    1    1    2  501    0 -0.93149280469E+02 -0.16405177478E+03 -0.11899831094E+03  0.28227534655E+03  0.17300000000E+03 0.  1.
         -6    1    1    2    0  502  0.93149280469E+02  0.16405177478E+03  0.90461899972E+03  0.94013526044E+03  0.17300000000E+03 0.  1.
</event>
<event>
 4    1  0.6020852E+000  0.1000000E+03  0.7546771E-02  0.1280296E+00
         21   -1    0    0  503  502  0.00000000000E+00  0.00000000000E+00  0.31576109588E+02  0.31576109588E+02  0.00000000000E+00 0.  1.
         21   -1    0    0  501  503 -0.00000000000E+00 -0.00000000000E+00 -0.13463254940E+04  0.13463254940E+04  0.00000000000E+00 0.  1.
          6    1    1    2  501    0  0.91386217277E+02  0.64367847108E+02 -0.68873103471E+03  0.71887001511E+03  0.17300000000E+03 0.  1.
         -6    1    1    2    0  502 -0.91386217277E+02 -0.64367847108E+02 -0.62601834968E+03  0.65903158846E+03  0.17300000000E+03 0.  1.
</event>
<event>
 4    1  0.6020852E+000  0.1000000E+03  0.7546771E-02  0.1280296E+00
         21   -1    0    0  503  502  0.00000000000E+00  0.00000000000E+00  0.83483575746E+02  0.83483575746E+02  0.00000000000E+00 0. -1.
         21   -1    0    0  501  503 -0.00000000000E+00 -0.00000000000E+00 -0.13270144227E+04  0.13270144227E+04  0.00000000000E+00 0. -1.
          6    1    1    2  501    0  0.16987874929E+03  0.11482861744E+03 -0.10391907550E+04  0.10732617696E+04  0.17300000000E+03 0. -1.
         -6    1    1    2    0  502 -0.16987874929E+03 -0.11482861744E+03 -0.20434009191E+03  0.33723622879E+03  0.17300000000E+03 0. -1.
</event>
<event>
 4    1  0.6020852E+000  0.1000000E+03  0.7546771E-02  0.1280296E+00
         21   -1    0    0  503  502  0.00000000000E+00  0.00000000000E+00  0.23535762030E+04  0.23535762030E+04  0.00000000000E+00 0. -1.
         21   -1    0    0  501  503 -0.00000000000E+00 -0.00000000000E+00 -0.32369889571E+02  0.32369889571E+02  0.00000000000E+00 0. -1.
          6    1    1    2  501    0 -0.88679125804E+02 -0.83037177451E+02  0.39354305526E+03  0.44672619862E+03  0.17300000000E+03 0. -1.
         -6    1    1    2    0  502  0.88679125804E+02  0.83037177451E+02  0.19276632582E+04  0.19392198940E+04  0.17300000000E+03 0. -1.
</event>
<event>
 4    1  0.6020852E+000  0.1000000E+03  0.7546771E-02  0.1280296E+00
         21   -1    0    0  503  502  0.00000000000E+00  0.00000000000E+00  0.91711586738E+02  0.91711586738E+02  0.00000000000E+00 0.  1.
         21   -1    0    0  501  503 -0.00000000000E+00 -0.00000000000E+00 -0.66533586080E+03  0.66533586080E+03  0.00000000000E+00 0.  1.
          6    1    1    2  501    0  0.11666353776E+03  0.10291223501E+03 -0.41399515259E+03  0.47489187772E+03  0.17300000000E+03 0.  1.
         -6    1    1    2    0  502 -0.11666353776E+03 -0.10291223501E+03 -0.15962912148E+03  0.28215556982E+03  0.17300000000E+03 0.  1.
</event>
<event>
 4    1  0.6020852E+000  0.1000000E+03  0.7546771E-02  0.1280296E+00
         21   -1    0    0  503  502  0.00000000000E+00  0.00000000000E+00  0.47343839621E+02  0.47343839621E+02  0.00000000000E+00 0.  1.
         21   -1    0    0  501  503 -0.00000000000E+00 -0.00000000000E+00 -0.16330766923E+04  0.16330766923E+04  0.00000000000E+00 0.  1.
          6    1    1    2  501    0 -0.21401252788E+03  0.31792666135E+02 -0.86532358928E+03  0.90858464100E+03  0.17300000000E+03 0.  1.
         -6    1    1    2    0  502  0.21401252788E+03 -0.31792666135E+02 -0.72040926339E+03  0.77183589091E+03  0.17300000000E+03 0.  1.
</event>
<event>
 4    1  0.6020852E+000  0.1000000E+03  0.7546771E-02  0.1280296E+00
         21   -1    0    0  503  502  0.00000000000E+00  0.00000000000E+00  0.15736536799E+03  0.15736536799E+03  0.00000000000E+00 0.  1.
         21   -1    0    0  501  503 -0.00000000000E+00 -0.00000000000E+00 -0.39217811514E+03  0.39217811514E+03  0.00000000000E+00 0.  1.
          6    1    1    2  501    0 -0.89429261373E+02 -0.27005396901E+02 -0.28536391899E+03  0.34653780531E+03  0.17300000000E+03 0.  1.
         -6    1    1    2    0  502  0.89429261373E+02  0.27005396901E+02  0.50551171833E+02  0.20300567781E+03  0.17300000000E+03 0.  1.
</event>
<event>
 4    1  0.6020852E+000  0.1000000E+03  0.7546771E-02  0.1280296E+00
         21   -1    0    0  501  502  0.00000000000E+00  0.00000000000E+00  0.43190928331E+03  0.43190928331E+03  0.00000000000E+00 0.  1.
         21   -1    0    0  502  503 -0.00000000000E+00 -0.00000000000E+00 -0.35643480825E+03  0.35643480825E+03  0.00000000000E+00 0.  1.
          6    1    1    2  501    0 -0.77002929694E+01  0.21804896765E+03  0.31544342396E+03  0.42075907658E+03  0.17300000000E+03 0.  1.
         -6    1    1    2    0  503  0.77002929694E+01 -0.21804896765E+03 -0.23996894890E+03  0.36758501498E+03  0.17300000000E+03 0.  1.
</event>
<event>
 4    1  0.6020852E+000  0.1000000E+03  0.7546771E-02  0.1280296E+00
         21   -1    0    0  501  502  0.00000000000E+00  0.00000000000E+00  0.17800317945E+03  0.17800317945E+03  0.00000000000E+00 0.  1.
         21   -1    0    0  502  503 -0.00000000000E+00 -0.00000000000E+00 -0.30543690634E+03  0.30543690634E+03  0.00000000000E+00 0.  1.
          6    1    1    2  501    0 -0.65536213199E+02 -0.72635572467E+02  0.62691631774E+02  0.20839904588E+03  0.17300000000E+03 0.  1.
         -6    1    1    2    0  503  0.65536213199E+02  0.72635572467E+02 -0.19012535867E+03  0.27504103991E+03  0.17300000000E+03 0.  1.
</event>
<event>
 4    1  0.6020852E+000  0.1000000E+03  0.7546771E-02  0.1280296E+00
         21   -1    0    0  503  502  0.00000000000E+00  0.00000000000E+00  0.10408511331E+04  0.10408511331E+04  0.00000000000E+00 0. -1.
         21   -1    0    0  501  503 -0.00000000000E+00 -0.00000000000E+00 -0.49997100660E+02  0.49997100660E+02  0.00000000000E+00 0. -1.
          6    1    1    2  501    0  0.22060454581E+02 -0.27020535131E+02  0.14982522914E+03  0.23150242388E+03  0.17300000000E+03 0. -1.
         -6    1    1    2    0  502 -0.22060454581E+02  0.27020535131E+02  0.84102880329E+03  0.85934580987E+03  0.17300000000E+03 0. -1.
</event>
<event>
 4    1  0.6020852E+000  0.1000000E+03  0.7546771E-02  0.1280296E+00
         21   -1    0    0  503  502  0.00000000000E+00  0.00000000000E+00  0.80456864457E+03  0.80456864457E+03  0.00000000000E+00 0. -1.
         21   -1    0    0  501  503 -0.00000000000E+00 -0.00000000000E+00 -0.71581366040E+02  0.71581366040E+02  0.00000000000E+00 0. -1.
          6    1    1    2  501    0  0.12478264539E+03 -0.83634419442E+02  0.23616076245E+03  0.32903849384E+03  0.17300000000E+03 0. -1.
         -6    1    1    2    0  502 -0.12478264539E+03  0.83634419442E+02  0.49682651608E+03  0.54711151677E+03  0.17300000000E+03 0. -1.
</event>
<event>
 4    1  0.6020852E+000  0.1000000E+03  0.7546771E-02  0.1280296E+00
         21   -1    0    0  503  502  0.00000000000E+00  0.00000000000E+00  0.68851084054E+03  0.68851084054E+03  0.00000000000E+00 0. -1.
         21   -1    0    0  501  503 -0.00000000000E+00 -0.00000000000E+00 -0.63574769766E+02  0.63574769766E+02  0.00000000000E+00 0.  1.
          6    1    1    2  501    0 -0.10967816512E+03  0.40398384461E+02  0.28824748417E+03  0.35591704301E+03  0.17300000000E+03 0.  1.
         -6    1    1    2    0  502  0.10967816512E+03 -0.40398384461E+02  0.33668858661E+03  0.39616856731E+03  0.17300000000E+03 0.  1.
</event>
<event>
 4    1  0.6020852E+000  0.1000000E+03  0.7546771E-02  0.1280296E+00
         21   -1    0    0  503  502  0.00000000000E+00  0.00000000000E+00  0.17323157769E+03  0.17323157769E+03  0.00000000000E+00 0. -1.
         21   -1    0    0  501  503 -0.00000000000E+00 -0.00000000000E+00 -0.61390668221E+03  0.61390668221E+03  0.00000000000E+00 0.  1.
          6    1    1    2  501    0  0.20710544061E+03 -0.17628343856E+03 -0.28008019854E+03  0.42701572788E+03  0.17300000000E+03 0.  1.
         -6    1    1    2    0  502 -0.20710544061E+03  0.17628343856E+03 -0.16059490598E+03  0.36012253202E+03  0.17300000000E+03 0.  1.
</event>
<event>
 4    1  0.6020852E+000  0.1000000E+03  0.7546771E-02  0.1280296E+00
         21   -1    0    0  503  502  0.00000000000E+00  0.00000000000E+00  0.71485099534E+03  0.71485099534E+03  0.00000000000E+00 0. -1.
         21   -1    0    0  501  503 -0.00000000000E+00 -0.00000000000E+00 -0.48612568065E+03  0.48612568065E+03  0.00000000000E+00 0. -1.
          6    1    1    2  501    0 -0.83545656468E+02  0.74936676043E+01 -0.45329039990E+03  0.49237914091E+03  0.17300000000E+03 0. -1.
         -6    1    1    2    0  502  0.83545656468E+02 -0.74936676043E+01  0.68201571458E+03  0.70859753507E+03  0.17300000000E+03 0. -1.
</event>
<event>
 4    1  0.6020852E+000  0.1000000E+03  0.7546771E-02  0.1280296E+00
         21   -1    0    0  503  502  0.00000000000E+00  0.00000000000E+00  0.48754490987E+03  0.48754490987E+03  0.00000000000E+00 0. -1.
         21   -1    0    0  501  503 -0.00000000000E+00 -0.00000000000E+00 -0.36727834564E+03  0.36727834564E+03  0.00000000000E+00 0. -1.
          6    1    1    2  501    0 -0.60751505171E+02  0.62203312118E+02 -0.31991231204E+03  0.37394235493E+03  0.17300000000E+03 0. -1.
         -6    1    1    2    0  502  0.60751505171E+02 -0.62203312118E+02  0.44017887628E+03  0.48088090058E+03  0.17300000000E+03 0. -1.
</event>
<event>
 4    1  0.6020852E+000  0.1000000E+03  0.7546771E-02  0.1280296E+00
         21   -1    0    0  503  502  0.00000000000E+00  0.00000000000E+00  0.52445835676E+03  0.52445835676E+03  0.00000000000E+00 0. -1.
         21   -1    0    0  501  503 -0.00000000000E+00 -0.00000000000E+00 -0.21752217665E+03  0.21752217665E+03  0.00000000000E+00 0. -1.
          6    1    1    2  501    0  0.27706532684E+03 -0.12374719207E+02  0.60047130895E+02  0.33234468093E+03  0.17300000000E+03 0. -1.
         -6    1    1    2    0  502 -0.27706532684E+03  0.12374719207E+02  0.24688904922E+03  0.40963585248E+03  0.17300000000E+03 0. -1.
</event>
<event>
 4    1  0.6020852E+000  0.1000000E+03  0.7546771E-02  0.1280296E+00
         21   -1    0    0  503  502  0.00000000000E+00  0.00000000000E+00  0.79846120660E+03  0.79846120660E+03  0.00000000000E+00 0. -1.
         21   -1    0    0  501  503 -0.00000000000E+00 -0.00000000000E+00 -0.59106160343E+02  0.59106160343E+02  0.00000000000E+00 0. -1.
          6    1    1    2  501    0  0.75096121000E+02  0.21313431990E+02  0.16106203023E+03  0.24892502356E+03  0.17300000000E+03 0. -1.
         -6    1    1    2    0  502 -0.75096121000E+02 -0.21313431990E+02  0.57829301602E+03  0.60864234338E+03  0.17300000000E+03 0. -1.
</event>
<event>
 4    1  0.6020852E+000  0.1000000E+03  0.7546771E-02  0.1280296E+00
         21   -1    0    0  503  502  0.00000000000E+00  0.00000000000E+00  0.42508879216E+03  0.42508879216E+03  0.00000000000E+00 0. -1.
         21   -1    0    0  501  503 -0.00000000000E+00 -0.00000000000E+00 -0.11636556880E+03  0.11636556880E+03  0.00000000000E+00 0. -1.
          6    1    1    2  501    0  0.62325825410E+02  0.81546474179E+02  0.38867977281E+02  0.20487570774E+03  0.17300000000E+03 0. -1.
         -6    1    1    2    0  502 -0.62325825410E+02 -0.81546474179E+02  0.26985524609E+03  0.33657865322E+03  0.17300000000E+03 0. -1.
</event>
<event>
 4    1  0.6020852E+000  0.1000000E+03  0.7546771E-02  0.1280296E+00
         21   -1    0    0  501  502  0.00000000000E+00  0.00000000000E+00  0.74409638402E+03  0.74409638402E+03  0.00000000000E+00 0.  1.
         21   -1    0    0  502  503 -0.00000000000E+00 -0.00000000000E+00 -0.32820648395E+03  0.32820648395E+03  0.00000000000E+00 0.  1.
          6    1    1    2  501    0  0.17252920907E+03 -0.44181665073E+01  0.67396040289E+03  0.71689432474E+03  0.17300000000E+03 0.  1.
         -6    1    1    2    0  503 -0.17252920907E+03  0.44181665073E+01 -0.25807050282E+03  0.35540854324E+03  0.17300000000E+03 0.  1.
</event>
<event>
 4    1  0.6020852E+000  0.1000000E+03  0.7546771E-02  0.1280296E+00
         21   -1    0    0  503  502  0.00000000000E+00  0.00000000000E+00  0.54750291808E+02  0.54750291808E+02  0.00000000000E+00 0.  1.
         21   -1    0    0  501  503 -0.00000000000E+00 -0.00000000000E+00 -0.66535497311E+03  0.66535497311E+03  0.00000000000E+00 0.  1.
          6    1    1    2  501    0  0.17039392365E+02 -0.21267337365E+02 -0.44843354156E+03  0.48141902925E+03  0.17300000000E+03 0.  1.
         -6    1    1    2    0  502 -0.17039392365E+02  0.21267337365E+02 -0.16217113974E+03  0.23868623566E+03  0.17300000000E+03 0.  1.
</event>
<event>
 4    1  0.6020852E+000  0.1000000E+03  0.7546771E-02  0.1280296E+00
         21   -1    0    0  501  502  0.00000000000E+00  0.00000000000E+00  0.26829295694E+03  0.26829295694E+03  0.00000000000E+00 0. -1.
         21   -1    0    0  502  503 -0.00000000000E+00 -0.00000000000E+00 -0.43289218078E+03  0.43289218078E+03  0.00000000000E+00 0. -1.
          6    1    1    2  501    0 -0.10700002239E+03  0.87591067701E+02  0.18416692237E+03  0.28804106518E+03  0.17300000000E+03 0. -1.
         -6    1    1    2    0  503  0.10700002239E+03 -0.87591067701E+02 -0.34876614621E+03  0.41314407254E+03  0.17300000000E+03 0. -1.
</event>
<event>
 4    1  0.6020852E+000  0.1000000E+03  0.7546771E-02  0.1280296E+00
         21   -1    0    0  503  502  0.00000000000E+00  0.00000000000E+00  0.22747800590E+04  0.22747800590E+04  0.00000000000E+00 0.  1.
         21   -1    0    0  501  503 -0.00000000000E+00 -0.00000000000E+00 -0.34271390289E+02  0.34271390289E+02  0.00000000000E+00 0.  1.
          6    1    1    2  501    0  0.77507113974E+02 -0.12661456071E+03  0.45361613244E+03  0.50767627019E+03  0.17300000000E+03 0.  1.
         -6    1    1    2    0  502 -0.77507113974E+02  0.12661456071E+03  0.17868925363E+04  0.18013751791E+04  0.17300000000E+03 0.  1.
</event>
<event>
 4    1  0.6020852E+000  0.1000000E+03  0.7546771E-02  0.1280296E+00
         21   -1    0    0  501  502  0.00000000000E+00  0.00000000000E+00  0.20298644747E+03  0.20298644747E+03  0.00000000000E+00 0. -1.
         21   -1    0    0  502  503 -0.00000000000E+00 -0.00000000000E+00 -0.89616275317E+03  0.89616275317E+03  0.00000000000E+00 0. -1.
          6    1    1    2  501    0 -0.60340401301E+02 -0.31671744342E+01  0.14967561944E+03  0.23660681748E+03  0.17300000000E+03 0. -1.
         -6    1    1    2    0  503  0.60340401301E+02  0.31671744342E+01 -0.84285192515E+03  0.86254238316E+03  0.17300000000E+03 0. -1.
</event>
<event>
 4    1  0.6020852E+000  0.1000000E+03  0.7546771E-02  0.1280296E+00
         21   -1    0    0  501  502  0.00000000000E+00  0.00000000000E+00  0.17475760150E+03  0.17475760150E+03  0.00000000000E+00 0. -1.
         21   -1    0    0  502  503 -0.00000000000E+00 -0.00000000000E+00 -0.23890696044E+03  0.23890696044E+03  0.00000000000E+00 0. -1.
          6    1    1    2  501    0 -0.66357847541E+02  0.36017650296E+02  0.47121309274E+02  0.19455090041E+03  0.17300000000E+03 0. -1.
         -6    1    1    2    0  503  0.66357847541E+02 -0.36017650296E+02 -0.11127066822E+03  0.21911366153E+03  0.17300000000E+03 0. -1.
</event>
<event>
 4    1  0.6020852E+000  0.1000000E+03  0.7546771E-02  0.1280296E+00
         21   -1    0    0  501  502  0.00000000000E+00  0.00000000000E+00  0.76621291874E+03  0.76621291874E+03  0.00000000000E+00 0. -1.
         21   -1    0    0  502  503 -0.00000000000E+00 -0.00000000000E+00 -0.80772291548E+02  0.80772291548E+02  0.00000000000E+00 0. -1.
          6    1    1    2  501    0 -0.13423665885E+02  0.76239051703E+02  0.61703706807E+03  0.64548921849E+03  0.17300000000E+03 0. -1.
         -6    1    1    2    0  503  0.13423665885E+02 -0.76239051703E+02  0.68403559119E+02  0.20149599180E+03  0.17300000000E+03 0. -1.
</event>
<event>
 4    1  0.6020852E+000  0.1000000E+03  0.7546771E-02  0.1280296E+00
         21   -1    0    0  501  502  0.00000000000E+00  0.00000000000E+00  0.41466887381E+03  0.41466887381E+03  0.00000000000E+00 0. -1.
         21   -1    0    0  502  503 -0.00000000000E+00 -0.00000000000E+00 -0.10340470335E+03  0.10340470335E+03  0.00000000000E+00 0. -1.
          6    1    1    2  501    0  0.65302539867E+02 -0.74028597488E+02  0.84811672119E+02  0.21648712360E+03  0.17300000000E+03 0. -1.
         -6    1    1    2    0  503 -0.65302539867E+02  0.74028597488E+02  0.22645249834E+03  0.30158645355E+03  0.17300000000E+03 0. -1.
</event>
<event>
 4    1  0.6020852E+000  0.1000000E+03  0.7546771E-02  0.1280296E+00
         21   -1    0    0  501  502  0.00000000000E+00  0.00000000000E+00  0.10251931013E+03  0.10251931013E+03  0.00000000000E+00 0. -1.
         21   -1    0    0  502  503 -0.00000000000E+00 -0.00000000000E+00 -0.31426641000E+03  0.31426641000E+03  0.00000000000E+00 0. -1.
          6    1    1    2  501    0 -0.44614519383E+02  0.14731031323E+02 -0.95365603808E+02  0.20305432035E+03  0.17300000000E+03 0. -1.
         -6    1    1    2    0  503  0.44614519383E+02 -0.14731031323E+02 -0.11638149607E+03  0.21373139978E+03  0.17300000000E+03 0. -1.
</event>
<event>
 4    1  0.6020852E+000  0.1000000E+03  0.7546771E-02  0.1280296E+00
         21   -1    0    0  503  502  0.00000000000E+00  0.00000000000E+00  0.22463714609E+04  0.22463714609E+04  0.00000000000E+00 0. -1.
         21   -1    0    0  501  503 -0.00000000000E+00 -0.00000000000E+00 -0.40873373365E+02  0.40873373365E+02  0.00000000000E+00 0. -1.
          6    1    1    2  501    0  0.94316203108E+02  0.68018185851E+02  0.27272506541E+03  0.34326371943E+03  0.17300000000E+03 0. -1.
         -6    1    1    2    0  502 -0.94316203108E+02 -0.68018185851E+02  0.19327730221E+04  0.19439811148E+04  0.17300000000E+03 0. -1.
</event>
<event>
 4    1  0.6020852E+000  0.1000000E+03  0.7546771E-02  0.1280296E+00
         21   -1    0    0  503  502  0.00000000000E+00  0.00000000000E+00  0.18419409430E+04  0.18419409430E+04  0.00000000000E+00 0. -1.
         21   -1    0    0  501  503 -0.00000000000E+00 -0.00000000000E+00 -0.30864176573E+02  0.30864176573E+02  0.00000000000E+00 0. -1.
          6    1    1    2  501    0  0.68385748177E+01  0.86659970959E+02  0.35902852336E+03  0.40790586813E+03  0.17300000000E+03 0. -1.
         -6    1    1    2    0  502 -0.68385748177E+01 -0.86659970959E+02  0.14520482431E+04  0.14648992515E+04  0.17300000000E+03 0. -1.
</event>
<event>
 4    1  0.6020852E+000  0.1000000E+03  0.7546771E-02  0.1280296E+00
         21   -1    0    0  501  502  0.00000000000E+00  0.00000000000E+00  0.31437324823E+03  0.31437324823E+03  0.00000000000E+00 0.  1.
         21   -1    0    0  502  503 -0.00000000000E+00 -0.00000000000E+00 -0.20776065176E+03  0.20776065176E+03  0.00000000000E+00 0.  1.
          6    1    1    2  501    0  0.70013613369E+01  0.15604316390E+03  0.16038056216E+03  0.28293004927E+03  0.17300000000E+03 0.  1.
         -6    1    1    2    0  503 -0.70013613369E+01 -0.15604316390E+03 -0.53767965691E+02  0.23920385071E+03  0.17300000000E+03 0.  1.
</event>
<event>
 4    1  0.6020852E+000  0.1000000E+03  0.7546771E-02  0.1280296E+00
         21   -1    0    0  503  502  0.00000000000E+00  0.00000000000E+00  0.53158575066E+03  0.53158575066E+03  0.00000000000E+00 0.  1.
         21   -1    0    0  501  503 -0.00000000000E+00 -0.00000000000E+00 -0.80996090632E+02  0.80996090632E+02  0.00000000000E+00 0.  1.
          6    1    1    2  501    0 -0.82312219098E+02  0.63932896496E+02  0.15504972471E+03  0.25462155015E+03  0.17300000000E+03 0. -1.
         -6    1    1    2    0  502  0.82312219098E+02 -0.63932896496E+02  0.29553993533E+03  0.35796029115E+03  0.17300000000E+03 0. -1.
</event>
<event>
 4    1  0.6020852E+000  0.1000000E+03  0.7546771E-02  0.1280296E+00
         21   -1    0    0  503  502  0.00000000000E+00  0.00000000000E+00  0.22271259734E+03  0.22271259734E+03  0.00000000000E+00 0.  1.
         21   -1    0    0  501  503 -0.00000000000E+00 -0.00000000000E+00 -0.22069168764E+03  0.22069168764E+03  0.00000000000E+00 0.  1.
          6    1    1    2  501    0 -0.62474585583E+02  0.12361301652E+03  0.72207744559E+01  0.22173044735E+03  0.17300000000E+03 0. -1.
         -6    1    1    2    0  502  0.62474585583E+02 -0.12361301652E+03 -0.51998647652E+01  0.22167383763E+03  0.17300000000E+03 0. -1.
</event>
<event>
 4    1  0.6020852E+000  0.1000000E+03  0.7546771E-02  0.1280296E+00
         21   -1    0    0  503  502  0.00000000000E+00  0.00000000000E+00  0.34475787672E+03  0.34475787672E+03  0.00000000000E+00 0.  1.
         21   -1    0    0  501  503 -0.00000000000E+00 -0.00000000000E+00 -0.12119654401E+03  0.12119654401E+03  0.00000000000E+00 0.  1.
          6    1    1    2  501    0  0.97231036099E+02 -0.30047637158E+02  0.67671612502E+02  0.21181402696E+03  0.17300000000E+03 0. -1.
         -6    1    1    2    0  502 -0.97231036099E+02  0.30047637158E+02  0.15588972020E+03  0.25414039377E+03  0.17300000000E+03 0. -1.
</event>
<event>
 4    1  0.6020852E+000  0.1000000E+03  0.7546771E-02  0.1280296E+00
         21   -1    0    0  501  502  0.00000000000E+00  0.00000000000E+00  0.12350320859E+04  0.12350320859E+04  0.00000000000E+00 0.  1.
         21   -1    0    0  502  503 -0.00000000000E+00 -0.00000000000E+00 -0.79670386978E+02  0.79670386978E+02  0.00000000000E+00 0.  1.
          6    1    1    2  501    0 -0.14132059209E+03 -0.44259306517E+01  0.10390733558E+04  0.10628233801E+04  0.17300000000E+03 0.  1.
         -6    1    1    2    0  503  0.14132059209E+03  0.44259306517E+01  0.11628834309E+03  0.25187909272E+03  0.17300000000E+03 0.  1.
</event>
<event>
 4    1  0.6020852E+000  0.1000000E+03  0.7546771E-02  0.1280296E+00
         21   -1    0    0  503  502  0.00000000000E+00  0.00000000000E+00  0.55894091434E+03  0.55894091434E+03  0.00000000000E+00 0. -1.
         21   -1    0    0  501  503 -0.00000000000E+00 -0.00000000000E+00 -0.70098412199E+02  0.70098412199E+02  0.00000000000E+00 0. -1.
          6    1    1    2  501    0 -0.58910528216E+02  0.38924155201E+02  0.14063543495E+03  0.23386505886E+03  0.17300000000E+03 0. -1.
         -6    1    1    2    0  502  0.58910528216E+02 -0.38924155201E+02  0.34820706719E+03  0.39517426768E+03  0.17300000000E+03 0. -1.
</event>
<event>
 4    1  0.6020852E+000  0.1000000E+03  0.7546771E-02  0.1280296E+00
         21   -1    0    0  503  502  0.00000000000E+00  0.00000000000E+00  0.42817267399E+03  0.42817267399E+03  0.00000000000E+00 0. -1.
         21   -1    0    0  501  503 -0.00000000000E+00 -0.00000000000E+00 -0.12537202304E+03  0.12537202304E+03  0.00000000000E+00 0. -1.
          6    1    1    2  501    0  0.11154758565E+03  0.41292131074E+02  0.34332294245E+02  0.21273366067E+03  0.17300000000E+03 0. -1.
         -6    1    1    2    0  502 -0.11154758565E+03 -0.41292131074E+02  0.26846835670E+03  0.34081103636E+03  0.17300000000E+03 0. -1.
</event>
<event>
 4    1  0.6020852E+000  0.1000000E+03  0.7546771E-02  0.1280296E+00
         21   -1    0    0  503  502  0.00000000000E+00  0.00000000000E+00  0.10138024592E+03  0.10138024592E+03  0.00000000000E+00 0. -1.
         21   -1    0    0  501  503 -0.00000000000E+00 -0.00000000000E+00 -0.70854837348E+03  0.70854837348E+03  0.00000000000E+00 0. -1.
          6    1    1    2  501    0 -0.10248121999E+03 -0.17595513665E+03 -0.33532151079E+03  0.42875648819E+03  0.17300000000E+03 0. -1.
         -6    1    1    2    0  502  0.10248121999E+03  0.17595513665E+03 -0.27184661677E+03  0.38117213121E+03  0.17300000000E+03 0. -1.
</event>
<event>
 4    1  0.6020852E+000  0.1000000E+03  0.7546771E-02  0.1280296E+00
         21   -1    0    0  501  502  0.00000000000E+00  0.00000000000E+00  0.31626412171E+02  0.31626412171E+02  0.00000000000E+00 0. -1.
         21   -1    0    0  502  503 -0.00000000000E+00 -0.00000000000E+00 -0.16730699924E+04  0.16730699924E+04  0.00000000000E+00 0.  1.
          6    1    1    2  501    0 -0.65539956781E+02  0.93701312686E+02 -0.45187576505E+03  0.49718822289E+03  0.17300000000E+03 0.  1.
         -6    1    1    2    0  503  0.65539956781E+02 -0.93701312686E+02 -0.11895678152E+04  0.12075081817E+04  0.17300000000E+03 0.  1.
</event>
<event>
 4    1  0.6020852E+000  0.1000000E+03  0.7546771E-02  0.1280296E+00
         21   -1    0    0  501  502  0.00000000000E+00  0.00000000000E+00  0.95730280543E+02  0.95730280543E+02  0.00000000000E+00 0. -1.
         21   -1    0    0  502  503 -0.00000000000E+00 -0.00000000000E+00 -0.57501961146E+03  0.57501961146E+03  0.00000000000E+00 0.  1.
          6    1    1    2  501    0 -0.29274160658E+02 -0.39121295515E+02 -0.24134602479E+02  0.18138062543E+03  0.17300000000E+03 0.  1.
         -6    1    1    2    0  503  0.29274160658E+02  0.39121295515E+02 -0.45515472843E+03  0.48936926657E+03  0.17300000000E+03 0.  1.
</event>
<event>
 4    1  0.6020852E+000  0.1000000E+03  0.7546771E-02  0.1280296E+00
         21   -1    0    0  503  502  0.00000000000E+00  0.00000000000E+00  0.90441054668E+03  0.90441054668E+03  0.00000000000E+00 0. -1.
         21   -1    0    0  501  503 -0.00000000000E+00 -0.00000000000E+00 -0.50514213606E+02  0.50514213606E+02  0.00000000000E+00 0.  1.
          6    1    1    2  501    0  0.58977846411E+02 -0.52316583819E+02  0.20875029481E+03  0.28234924631E+03  0.17300000000E+03 0. -1.
         -6    1    1    2    0  502 -0.58977846411E+02  0.52316583819E+02  0.64514603827E+03  0.67257551398E+03  0.17300000000E+03 0. -1.
</event>
<event>
 4    1  0.6020852E+000  0.1000000E+03  0.7546771E-02  0.1280296E+00
         21   -1    0    0  503  502  0.00000000000E+00  0.00000000000E+00  0.17731600577E+03  0.17731600577E+03  0.00000000000E+00 0. -1.
         21   -1    0    0  501  503 -0.00000000000E+00 -0.00000000000E+00 -0.28131567983E+03  0.28131567983E+03  0.00000000000E+00 0.  1.
          6    1    1    2  501    0 -0.11638096993E+03 -0.21821898298E+02  0.27079937610E+02  0.21138365223E+03  0.17300000000E+03 0. -1.
         -6    1    1    2    0  502  0.11638096993E+03  0.21821898298E+02 -0.13107961167E+03  0.24724803337E+03  0.17300000000E+03 0. -1.
</event>
<event>
 4    1  0.6020852E+000  0.1000000E+03  0.7546771E-02  0.1280296E+00
         21   -1    0    0  501  502  0.00000000000E+00  0.00000000000E+00  0.15815848533E+04  0.15815848533E+04  0.00000000000E+00 0.  1.
         21   -1    0    0  502  503 -0.00000000000E+00 -0.00000000000E+00 -0.95779569799E+02  0.95779569799E+02  0.00000000000E+00 0. -1.
          6    1    1    2  501    0 -0.30924063203E+03 -0.16047881995E+03  0.77110524729E+03  0.86366401022E+03  0.17300000000E+03 0.  1.
         -6    1    1    2    0  503  0.30924063203E+03  0.16047881995E+03  0.71470003617E+03  0.81370041284E+03  0.17300000000E+03 0. -1.
</event>
<event>
 4    1  0.6020852E+000  0.1000000E+03  0.7546771E-02  0.1280296E+00
         21   -1    0    0  501  502  0.00000000000E+00  0.00000000000E+00  0.30141502488E+03  0.30141502488E+03  0.00000000000E+00 0.  1.
         21   -1    0    0  502  503 -0.00000000000E+00 -0.00000000000E+00 -0.20648454853E+03  0.20648454853E+03  0.00000000000E+00 0. -1.
          6    1    1    2  501    0  0.57495539721E+01 -0.41613382811E+02  0.22536823344E+03  0.28720127375E+03  0.17300000000E+03 0.  1.
         -6    1    1    2    0  503 -0.57495539721E+01  0.41613382811E+02 -0.13043775709E+03  0.22069829966E+03  0.17300000000E+03 0. -1.
</event>
<event>
 4    1  0.6020852E+000  0.1000000E+03  0.7546771E-02  0.1280296E+00
         21   -1    0    0  501  502  0.00000000000E+00  0.00000000000E+00  0.51465983277E+03  0.51465983277E+03  0.00000000000E+00 0.  1.
         21   -1    0    0  502  503 -0.00000000000E+00 -0.00000000000E+00 -0.91955396996E+02  0.91955396996E+02  0.00000000000E+00 0. -1.
          6    1    1    2  501    0 -0.89011682433E+02  0.27623183187E+02  0.34147679547E+03  0.39398162610E+03  0.17300000000E+03 0.  1.
         -6    1    1    2    0  503  0.89011682433E+02 -0.27623183187E+02  0.81227640304E+02  0.21263360367E+03  0.17300000000E+03 0. -1.
</event>
<event>
 4    1  0.6020852E+000  0.1000000E+03  0.7546771E-02  0.1280296E+00
         21   -1    0    0  501  502  0.00000000000E+00  0.00000000000E+00  0.38376209637E+03  0.38376209637E+03  0.00000000000E+00 0.  1.
         21   -1    0    0  502  503 -0.00000000000E+00 -0.00000000000E+00 -0.72985092793E+03  0.72985092793E+03  0.00000000000E+00 0.  1.
          6    1    1    2  501    0 -0.73869985373E+02 -0.37319952161E+03  0.16856430280E+03  0.45064130064E+03  0.17300000000E+03 0.  1.
         -6    1    1    2    0  503  0.73869985373E+02  0.37319952161E+03 -0.51465313435E+03  0.66297172366E+03  0.17300000000E+03 0.  1.
</event>
<event>
 4    1  0.6020852E+000  0.1000000E+03  0.7546771E-02  0.1280296E+00
         21   -1    0    0  501  502  0.00000000000E+00  0.00000000000E+00  0.31579204366E+03  0.31579204366E+03  0.00000000000E+00 0.  1.
         21   -1    0    0  502  503 -0.00000000000E+00 -0.00000000000E+00 -0.16211652597E+03  0.16211652597E+03  0.00000000000E+00 0.  1.
          6    1    1    2  501    0  0.60051957028E+02 -0.92097362575E+02  0.17801279457E+03  0.27148796799E+03  0.17300000000E+03 0.  1.
         -6    1    1    2    0  503 -0.60051957028E+02  0.92097362575E+02 -0.24337276875E+02  0.20642060164E+03  0.17300000000E+03 0.  1.
</event>
<event>
 4    1  0.6020852E+000  0.1000000E+03  0.7546771E-02  0.1280296E+00
         21   -1    0    0  501  502  0.00000000000E+00  0.00000000000E+00  0.70761006997E+02  0.70761006997E+02  0.00000000000E+00 0.  1.
         21   -1    0    0  502  503 -0.00000000000E+00 -0.00000000000E+00 -0.49099262407E+03  0.49099262407E+03  0.00000000000E+00 0.  1.
          6    1    1    2  501    0  0.19034116620E+02 -0.42347553910E+02 -0.28781228764E+03  0.33899930064E+03  0.17300000000E+03 0.  1.
         -6    1    1    2    0  503 -0.19034116620E+02  0.42347553910E+02 -0.13241932944E+03  0.22275433043E+03  0.17300000000E+03 0.  1.
</event>
<event>
 4    1  0.6020852E+000  0.1000000E+03  0.7546771E-02  0.1280296E+00
         21   -1    0    0  501  502  0.00000000000E+00  0.00000000000E+00  0.36260300168E+03  0.36260300168E+03  0.00000000000E+00 0. -1.
         21   -1    0    0  502  503 -0.00000000000E+00 -0.00000000000E+00 -0.99762415032E+02  0.99762415032E+02  0.00000000000E+00 0. -1.
          6    1    1    2  501    0 -0.37584510540E+02 -0.59181740709E+02  0.17574997476E+03  0.25638277535E+03  0.17300000000E+03 0. -1.
         -6    1    1    2    0  503  0.37584510540E+02  0.59181740709E+02  0.87090611891E+02  0.20598264137E+03  0.17300000000E+03 0. -1.
</event>
<event>
 4    1  0.6020852E+000  0.1000000E+03  0.7546771E-02  0.1280296E+00
         21   -1    0    0  501  502  0.00000000000E+00  0.00000000000E+00  0.39021925538E+03  0.39021925538E+03  0.00000000000E+00 0. -1.
         21   -1    0    0  502  503 -0.00000000000E+00 -0.00000000000E+00 -0.38388446475E+03  0.38388446475E+03  0.00000000000E+00 0. -1.
          6    1    1    2  501    0 -0.13114226070E+03  0.30392939870E+03 -0.98318701195E+02  0.38622136002E+03  0.17300000000E+03 0. -1.
         -6    1    1    2    0  503  0.13114226070E+03 -0.30392939870E+03  0.10465349182E+03  0.38788236011E+03  0.17300000000E+03 0. -1.
</event>
<event>
 4    1  0.6020852E+000  0.1000000E+03  0.7546771E-02  0.1280296E+00
         21   -1    0    0  501  502  0.00000000000E+00  0.00000000000E+00  0.29793202599E+03  0.29793202599E+03  0.00000000000E+00 0. -1.
         21   -1    0    0  502  503 -0.00000000000E+00 -0.00000000000E+00 -0.21396811052E+03  0.21396811052E+03  0.00000000000E+00 0. -1.
          6    1    1    2  501    0  0.47126914723E+02 -0.58907760979E+02  0.21199829148E+03  0.28383682986E+03  0.17300000000E+03 0. -1.
         -6    1    1    2    0  503 -0.47126914723E+02  0.58907760979E+02 -0.12803437602E+03  0.22806330664E+03  0.17300000000E+03 0. -1.
</event>
<event>
 4    1  0.6020852E+000  0.1000000E+03  0.7546771E-02  0.1280296E+00
         21   -1    0    0  503  502  0.00000000000E+00  0.00000000000E+00  0.73529600640E+02  0.73529600640E+02  0.00000000000E+00 0. -1.
         21   -1    0    0  501  503 -0.00000000000E+00 -0.00000000000E+00 -0.62760176233E+03  0.62760176233E+03  0.00000000000E+00 0.  1.
          6    1    1    2  501    0  0.89236327591E+02  0.48546632424E+02 -0.40236857125E+03  0.44961023655E+03  0.17300000000E+03 0. -1.
         -6    1    1    2    0  502 -0.89236327591E+02 -0.48546632424E+02 -0.15170359043E+03  0.25152112641E+03  0.17300000000E+03 0.  1.
</event>
<event>
 4    1  0.6020852E+000  0.1000000E+03  0.7546771E-02  0.1280296E+00
         21   -1    0    0  503  502  0.00000000000E+00  0.00000000000E+00  0.97285364490E+03  0.97285364490E+03  0.00000000000E+00 0. -1.
         21   -1    0    0  501  503 -0.00000000000E+00 -0.00000000000E+00 -0.49893286016E+02  0.49893286016E+02  0.00000000000E+00 0.  1.
          6    1    1    2  501    0  0.12810025275E+03 -0.23888477513E+02  0.36778339224E+03  0.42681841305E+03  0.17300000000E+03 0. -1.
         -6    1    1    2    0  502 -0.12810025275E+03  0.23888477513E+02  0.55517696665E+03  0.59592851787E+03  0.17300000000E+03 0.  1.
</event>
<event>
 4    1  0.6020852E+000  0.1000000E+03  0.7546771E-02  0.1280296E+00
         21   -1    0    0  501  502  0.00000000000E+00  0.00000000000E+00  0.60054483142E+02  0.60054483142E+02  0.00000000000E+00 0. -1.
         21   -1    0    0  502  503 -0.00000000000E+00 -0.00000000000E+00 -0.73868652570E+03  0.73868652570E+03  0.00000000000E+00 0.  1.
          6    1    1    2  501    0 -0.34999061946E+02 -0.11067015530E+03 -0.39805451465E+03  0.44927632281E+03  0.17300000000E+03 0. -1.
         -6    1    1    2    0  503  0.34999061946E+02  0.11067015530E+03 -0.28057752791E+03  0.34946468602E+03  0.17300000000E+03 0.  1.
</event>
<event>
 4    1  0.6020852E+000  0.1000000E+03  0.7546771E-02  0.1280296E+00
         21   -1    0    0  503  502  0.00000000000E+00  0.00000000000E+00  0.42175674704E+03  0.42175674704E+03  0.00000000000E+00 0.  1.
         21   -1    0    0  501  503 -0.00000000000E+00 -0.00000000000E+00 -0.37838132324E+03  0.37838132324E+03  0.00000000000E+00 0.  1.
          6    1    1    2  501    0 -0.18108940769E+03 -0.27157232558E+03 -0.13055909822E+03  0.39181574717E+03  0.17300000000E+03 0. -1.
         -6    1    1    2    0  502  0.18108940769E+03  0.27157232558E+03  0.17393452202E+03  0.40832232311E+03  0.17300000000E+03 0. -1.
</event>
<event>
 4    1  0.6020852E+000  0.1000000E+03  0.7546771E-02  0.1280296E+00
         21   -1    0    0  503  502  0.00000000000E+00  0.00000000000E+00  0.27682179307E+04  0.27682179307E+04  0.00000000000E+00 0.  1.
         21   -1    0    0  501  503 -0.00000000000E+00 -0.00000000000E+00 -0.12898953808E+02  0.12898953808E+02  0.00000000000E+00 0.  1.
          6    1    1    2  501    0 -0.74346973798E+02  0.71213889500E+01  0.12736077733E+04  0.12874719208E+04  0.17300000000E+03 0. -1.
         -6    1    1    2    0  502  0.74346973798E+02 -0.71213889500E+01  0.14817112036E+04  0.14936449637E+04  0.17300000000E+03 0. -1.
</event>
<event>
 4    1  0.6020852E+000  0.1000000E+03  0.7546771E-02  0.1280296E+00
         21   -1    0    0  503  502  0.00000000000E+00  0.00000000000E+00  0.39377120696E+03  0.39377120696E+03  0.00000000000E+00 0.  1.
         21   -1    0    0  501  503 -0.00000000000E+00 -0.00000000000E+00 -0.39218564150E+03  0.39218564150E+03  0.00000000000E+00 0. -1.
          6    1    1    2  501    0  0.52111911338E+02  0.24965137791E+03 -0.24305387729E+03  0.39248649539E+03  0.17300000000E+03 0.  1.
         -6    1    1    2    0  502 -0.52111911338E+02 -0.24965137791E+03  0.24463944275E+03  0.39347035307E+03  0.17300000000E+03 0.  1.
</event>
<event>
 4    1  0.6020852E+000  0.1000000E+03  0.7546771E-02  0.1280296E+00
         21   -1    0    0  503  502  0.00000000000E+00  0.00000000000E+00  0.78185773848E+03  0.78185773848E+03  0.00000000000E+00 0.  1.
         21   -1    0    0  501  503 -0.00000000000E+00 -0.00000000000E+00 -0.26546991034E+03  0.26546991034E+03  0.00000000000E+00 0. -1.
          6    1    1    2  501    0  0.20647299890E+02 -0.47973419105E+02 -0.22251216207E+03  0.28665034834E+03  0.17300000000E+03 0.  1.
         -6    1    1    2    0  502 -0.20647299890E+02  0.47973419105E+02  0.73889999021E+03  0.76067730048E+03  0.17300000000E+03 0.  1.
</event>
<event>
 4    1  0.6020852E+000  0.1000000E+03  0.7546771E-02  0.1280296E+00
         21   -1    0    0  501  502  0.00000000000E+00  0.00000000000E+00  0.72453409631E+02  0.72453409631E+02  0.00000000000E+00 0. -1.
         21   -1    0    0  502  503 -0.00000000000E+00 -0.00000000000E+00 -0.80148538629E+03  0.80148538629E+03  0.00000000000E+00 0.  1.
          6    1    1    2  501    0  0.46866428341E+02 -0.16041806214E+03 -0.33818026289E+03  0.41500036985E+03  0.17300000000E+03 0.  1.
         -6    1    1    2    0  503 -0.46866428341E+02  0.16041806214E+03 -0.39085171377E+03  0.45893842607E+03  0.17300000000E+03 0.  1.
</event>
<event>
 4    1  0.6020852E+000  0.1000000E+03  0.7546771E-02  0.1280296E+00
         21   -1    0    0  501  502  0.00000000000E+00  0.00000000000E+00  0.28305148768E+03  0.28305148768E+03  0.00000000000E+00 0. -1.
         21   -1    0    0  502  503 -0.00000000000E+00 -0.00000000000E+00 -0.22006893504E+03  0.22006893504E+03  0.00000000000E+00 0.  1.
          6    1    1    2  501    0  0.15511618458E+03 -0.67246638997E+02  0.93449786594E+02  0.25931641635E+03  0.17300000000E+03 0.  1.
         -6    1    1    2    0  503 -0.15511618458E+03  0.67246638997E+02 -0.30467233946E+02  0.24380400637E+03  0.17300000000E+03 0.  1.
</event>
<event>
 4    1  0.6020852E+000  0.1000000E+03  0.7546771E-02  0.1280296E+00
         21   -1    0    0  501  502  0.00000000000E+00  0.00000000000E+00  0.37754519691E+03  0.37754519691E+03  0.00000000000E+00 0. -1.
         21   -1    0    0  502  503 -0.00000000000E+00 -0.00000000000E+00 -0.20308128133E+03  0.20308128133E+03  0.00000000000E+00 0.  1.
          6    1    1    2  501    0 -0.12523028152E+03 -0.60972414222E+02  0.26060090959E+03  0.34240632702E+03  0.17300000000E+03 0.  1.
         -6    1    1    2    0  503  0.12523028152E+03  0.60972414222E+02 -0.86136994010E+02  0.23822015121E+03  0.17300000000E+03 0.  1.
</event>
<event>
 4    1  0.6020852E+000  0.1000000E+03  0.7546771E-02  0.1280296E+00
         21   -1    0    0  503  502  0.00000000000E+00  0.00000000000E+00  0.29085430877E+03  0.29085430877E+03  0.00000000000E+00 0.  1.
         21   -1    0    0  501  503 -0.00000000000E+00 -0.00000000000E+00 -0.16090924883E+03  0.16090924883E+03  0.00000000000E+00 0.  1.
          6    1    1    2  501    0 -0.10699546589E+03 -0.71366836845E+02  0.45979385172E+02  0.22041859945E+03  0.17300000000E+03 0.  1.
         -6    1    1    2    0  502  0.10699546589E+03  0.71366836845E+02  0.83965674766E+02  0.23134495815E+03  0.17300000000E+03 0.  1.
</event>
<event>
 4    1  0.6020852E+000  0.1000000E+03  0.7546771E-02  0.1280296E+00
         21   -1    0    0  501  502  0.00000000000E+00  0.00000000000E+00  0.20810371243E+03  0.20810371243E+03  0.00000000000E+00 0. -1.
         21   -1    0    0  502  503 -0.00000000000E+00 -0.00000000000E+00 -0.30754462294E+03  0.30754462294E+03  0.00000000000E+00 0. -1.
          6    1    1    2  501    0 -0.15290638191E+02 -0.81462149287E+02  0.11836587423E+03  0.22540932892E+03  0.17300000000E+03 0. -1.
         -6    1    1    2    0  503  0.15290638191E+02  0.81462149287E+02 -0.21780678474E+03  0.29023900644E+03  0.17300000000E+03 0. -1.
</event>
<event>
 4    1  0.6020852E+000  0.1000000E+03  0.7546771E-02  0.1280296E+00
         21   -1    0    0  501  502  0.00000000000E+00  0.00000000000E+00  0.81186032142E+03  0.81186032142E+03  0.00000000000E+00 0. -1.
         21   -1    0    0  502  503 -0.00000000000E+00 -0.00000000000E+00 -0.10162442955E+03  0.10162442955E+03  0.00000000000E+00 0.  1.
          6    1    1    2  501    0 -0.29770165592E+02 -0.35094625113E+02  0.71230554621E+03  0.73445632044E+03  0.17300000000E+03 0. -1.
         -6    1    1    2    0  503  0.29770165592E+02  0.35094625113E+02 -0.20696543375E+01  0.17902843054E+03  0.17300000000E+03 0. -1.
</event>
<event>
 4    1  0.6020852E+000  0.1000000E+03  0.7546771E-02  0.1280296E+00
         21   -1    0    0  501  502  0.00000000000E+00  0.00000000000E+00  0.87869546155E+02  0.87869546155E+02  0.00000000000E+00 0. -1.
         21   -1    0    0  502  503 -0.00000000000E+00 -0.00000000000E+00 -0.95045250940E+03  0.95045250940E+03  0.00000000000E+00 0. -1.
          6    1    1    2  501    0 -0.85565667989E+02  0.12359157037E+02 -0.45522345695E+02  0.19868446406E+03  0.17300000000E+03 0. -1.
         -6    1    1    2    0  503  0.85565667989E+02 -0.12359157037E+02 -0.81706061755E+03  0.83963759150E+03  0.17300000000E+03 0. -1.
</event>
<event>
 4    1  0.6020852E+000  0.1000000E+03  0.7546771E-02  0.1280296E+00
         21   -1    0    0  501  502  0.00000000000E+00  0.00000000000E+00  0.60074465120E+03  0.60074465120E+03  0.00000000000E+00 0. -1.
         21   -1    0    0  502  503 -0.00000000000E+00 -0.00000000000E+00 -0.95715044226E+02  0.95715044226E+02  0.00000000000E+00 0. -1.
          6    1    1    2  501    0 -0.49511216148E+02  0.83551818579E+02  0.44810091441E+03  0.49005682977E+03  0.17300000000E+03 0. -1.
         -6    1    1    2    0  503  0.49511216148E+02 -0.83551818579E+02  0.56928692561E+02  0.20640286565E+03  0.17300000000E+03 0. -1.
</event>
<event>
 4    1  0.6020852E+000  0.1000000E+03  0.7546771E-02  0.1280296E+00
         21   -1    0    0  501  502  0.00000000000E+00  0.00000000000E+00  0.28974767245E+03  0.28974767245E+03  0.00000000000E+00 0. -1.
         21   -1    0    0  502  503 -0.00000000000E+00 -0.00000000000E+00 -0.13378603124E+03  0.13378603124E+03  0.00000000000E+00 0. -1.
          6    1    1    2  501    0 -0.40962067877E+02  0.26458563900E+02  0.16441116316E+03  0.24359387755E+03  0.17300000000E+03 0. -1.
         -6    1    1    2    0  503  0.40962067877E+02 -0.26458563900E+02 -0.84495219472E+01  0.17993982614E+03  0.17300000000E+03 0. -1.
</event>
<event>
 4    1  0.6020852E+000  0.1000000E+03  0.7546771E-02  0.1280296E+00
         21   -1    0    0  503  502  0.00000000000E+00  0.00000000000E+00  0.69904823350E+03  0.69904823350E+03  0.00000000000E+00 0.  1.
         21   -1    0    0  501  503 -0.00000000000E+00 -0.00000000000E+00 -0.10833715306E+03  0.10833715306E+03  0.00000000000E+00 0.  1.
          6    1    1    2  501    0 -0.91688184609E+02  0.25276971464E+02  0.14109767188E+02  0.19792355598E+03  0.17300000000E+03 0.  1.
         -6    1    1    2    0  502  0.91688184609E+02 -0.25276971464E+02  0.57660131325E+03  0.60946183057E+03  0.17300000000E+03 0.  1.
</event>
<event>
 4    1  0.6020852E+000  0.1000000E+03  0.7546771E-02  0.1280296E+00
         21   -1    0    0  503  502  0.00000000000E+00  0.00000000000E+00  0.35687476112E+03  0.35687476112E+03  0.00000000000E+00 0.  1.
         21   -1    0    0  501  503 -0.00000000000E+00 -0.00000000000E+00 -0.11232131196E+03  0.11232131196E+03  0.00000000000E+00 0.  1.
          6    1    1    2  501    0 -0.50698415833E+01 -0.24553452723E+02  0.79059770686E+01  0.17498594174E+03  0.17300000000E+03 0.  1.
         -6    1    1    2    0  502  0.50698415833E+01  0.24553452723E+02  0.23664747210E+03  0.29421013134E+03  0.17300000000E+03 0.  1.
</event>
<event>
 4    1  0.6020852E+000  0.1000000E+03  0.7546771E-02  0.1280296E+00
         21   -1    0    0  501  502  0.00000000000E+00  0.00000000000E+00  0.42729732708E+03  0.42729732708E+03  0.00000000000E+00 0. -1.
         21   -1    0    0  502  503 -0.00000000000E+00 -0.00000000000E+00 -0.10730595576E+03  0.10730595576E+03  0.00000000000E+00 0.  1.
          6    1    1    2  501    0  0.38241051204E+02 -0.10735057353E+03  0.22763581935E+03  0.30778822246E+03  0.17300000000E+03 0. -1.
         -6    1    1    2    0  503 -0.38241051204E+02  0.10735057353E+03  0.92355551968E+02  0.22681506038E+03  0.17300000000E+03 0.  1.
</event>
<event>
 4    1  0.6020852E+000  0.1000000E+03  0.7546771E-02  0.1280296E+00
         21   -1    0    0  501  502  0.00000000000E+00  0.00000000000E+00  0.80830983382E+02  0.80830983382E+02  0.00000000000E+00 0. -1.
         21   -1    0    0  502  503 -0.00000000000E+00 -0.00000000000E+00 -0.91801390661E+03  0.91801390661E+03  0.00000000000E+00 0.  1.
          6    1    1    2  501    0  0.10943851001E+03 -0.14907994720E+03 -0.23458146004E+03  0.34519426346E+03  0.17300000000E+03 0. -1.
         -6    1    1    2    0  503 -0.10943851001E+03  0.14907994720E+03 -0.60260146319E+03  0.65365062654E+03  0.17300000000E+03 0.  1.
</event>
<event>
 4    1  0.6020852E+000  0.1000000E+03  0.7546771E-02  0.1280296E+00
         21   -1    0    0  501  502  0.00000000000E+00  0.00000000000E+00  0.15466028416E+03  0.15466028416E+03  0.00000000000E+00 0. -1.
         21   -1    0    0  502  503 -0.00000000000E+00 -0.00000000000E+00 -0.54406751495E+03  0.54406751495E+03  0.00000000000E+00 0.  1.
          6    1    1    2  501    0  0.68821660745E+02 -0.13032748701E+03  0.22401592166E+02  0.22836923214E+03  0.17300000000E+03 0. -1.
         -6    1    1    2    0  503 -0.68821660745E+02  0.13032748701E+03 -0.41180882296E+03  0.47035856697E+03  0.17300000000E+03 0.  1.
</event>
<event>
 4    1  0.6020852E+000  0.1000000E+03  0.7546771E-02  0.1280296E+00
         21   -1    0    0  501  502  0.00000000000E+00  0.00000000000E+00  0.10450763559E+04  0.10450763559E+04  0.00000000000E+00 0. -1.
         21   -1    0    0  502  503 -0.00000000000E+00 -0.00000000000E+00 -0.76899192840E+02  0.76899192840E+02  0.00000000000E+00 0.  1.
          6    1    1    2  501    0  0.40174851737E+02 -0.20481346044E+03  0.64815581942E+03  0.70256497105E+03  0.17300000000E+03 0. -1.
         -6    1    1    2    0  503 -0.40174851737E+02  0.20481346044E+03  0.32002134360E+03  0.41941057766E+03  0.17300000000E+03 0.  1.
</event>
<event>
 4    1  0.6020852E+000  0.1000000E+03  0.7546771E-02  0.1280296E+00
         21   -1    0    0  503  502  0.00000000000E+00  0.00000000000E+00  0.15128661828E+03  0.15128661828E+03  0.00000000000E+00 0. -1.
         21   -1    0    0  501  503 -0.00000000000E+00 -0.00000000000E+00 -0.42922434688E+03  0.42922434688E+03  0.00000000000E+00 0. -1.
          6    1    1    2  501    0 -0.13984474533E+03  0.66779606275E+02 -0.25838232126E+03  0.34742839917E+03  0.17300000000E+03 0.  1.
         -6    1    1    2    0  502  0.13984474533E+03 -0.66779606275E+02 -0.19555407341E+02  0.23308256599E+03  0.17300000000E+03 0.  1.
</event>
<event>
 4    1  0.6020852E+000  0.1000000E+03  0.7546771E-02  0.1280296E+00
         21   -1    0    0  501  502  0.00000000000E+00  0.00000000000E+00  0.92476939101E+03  0.92476939101E+03  0.00000000000E+00 0. -1.
         21   -1    0    0  502  503 -0.00000000000E+00 -0.00000000000E+00 -0.36107396015E+03  0.36107396015E+03  0.00000000000E+00 0. -1.
          6    1    1    2  501    0  0.19856967759E+03  0.84292201927E+02  0.84637687557E+03  0.89040322757E+03  0.17300000000E+03 0. -1.
         -6    1    1    2    0  503 -0.19856967759E+03 -0.84292201927E+02 -0.28268144470E+03  0.39544012359E+03  0.17300000000E+03 0. -1.
</event>
<event>
 4    1  0.6020852E+000  0.1000000E+03  0.7546771E-02  0.1280296E+00
         21   -1    0    0  501  502  0.00000000000E+00  0.00000000000E+00  0.87928751674E+03  0.87928751674E+03  0.00000000000E+00 0. -1.
         21   -1    0    0  502  503 -0.00000000000E+00 -0.00000000000E+00 -0.10462589940E+03  0.10462589940E+03  0.00000000000E+00 0. -1.
          6    1    1    2  501    0  0.18215020111E+03 -0.16767773538E+03  0.34224339612E+03  0.45645816993E+03  0.17300000000E+03 0. -1.
         -6    1    1    2    0  503 -0.18215020111E+03  0.16767773538E+03  0.43241822122E+03  0.52745524621E+03  0.17300000000E+03 0. -1.
</event>
<event>
 4    1  0.6020852E+000  0.1000000E+03  0.7546771E-02  0.1280296E+00
         21   -1    0    0  503  502  0.00000000000E+00  0.00000000000E+00  0.21551683159E+03  0.21551683159E+03  0.00000000000E+00 0.  1.
         21   -1    0    0  501  503 -0.00000000000E+00 -0.00000000000E+00 -0.20280138741E+03  0.20280138741E+03  0.00000000000E+00 0.  1.
          6    1    1    2  501    0  0.10729045817E+03 -0.32793209696E+02 -0.28175990779E+02  0.20810940266E+03  0.17300000000E+03 0.  1.
         -6    1    1    2    0  502 -0.10729045817E+03  0.32793209696E+02  0.40891434960E+02  0.21020881635E+03  0.17300000000E+03 0.  1.
</event>
<event>
 4    1  0.6020852E+000  0.1000000E+03  0.7546771E-02  0.1280296E+00
         21   -1    0    0  503  502  0.00000000000E+00  0.00000000000E+00  0.93982655235E+03  0.93982655235E+03  0.00000000000E+00 0.  1.
         21   -1    0    0  501  503 -0.00000000000E+00 -0.00000000000E+00 -0.14814218666E+03  0.14814218666E+03  0.00000000000E+00 0.  1.
          6    1    1    2  501    0 -0.16028239873E+02  0.58295239961E+02 -0.78012345564E+02  0.19917370694E+03  0.17300000000E+03 0.  1.
         -6    1    1    2    0  502  0.16028239873E+02 -0.58295239961E+02  0.86969671125E+03  0.88879503207E+03  0.17300000000E+03 0.  1.
</event>
<event>
 4    1  0.6020852E+000  0.1000000E+03  0.7546771E-02  0.1280296E+00
         21   -1    0    0  503  502  0.00000000000E+00  0.00000000000E+00  0.25845390917E+03  0.25845390917E+03  0.00000000000E+00 0.  1.
         21   -1    0    0  501  503 -0.00000000000E+00 -0.00000000000E+00 -0.14029564924E+03  0.14029564924E+03  0.00000000000E+00 0.  1.
          6    1    1    2  501    0  0.95787113474E+01 -0.69007671391E+02  0.18838140236E+02  0.18745048933E+03  0.17300000000E+03 0.  1.
         -6    1    1    2    0  502 -0.95787113474E+01  0.69007671391E+02  0.99320119694E+02  0.21129906909E+03  0.17300000000E+03 0.  1.
</event>
<event>
 4    1  0.6020852E+000  0.1000000E+03  0.7546771E-02  0.1280296E+00
         21   -1    0    0  501  502  0.00000000000E+00  0.00000000000E+00  0.13563096529E+04  0.13563096529E+04  0.00000000000E+00 0. -1.
         21   -1    0    0  502  503 -0.00000000000E+00 -0.00000000000E+00 -0.38735571869E+02  0.38735571869E+02  0.00000000000E+00 0. -1.
          6    1    1    2  501    0  0.82495805285E+02 -0.19212313395E+02  0.28072790378E+03  0.34045826005E+03  0.17300000000E+03 0. -1.
         -6    1    1    2    0  503 -0.82495805285E+02  0.19212313395E+02  0.10368461772E+04  0.10545869647E+04  0.17300000000E+03 0. -1.
</event>
<event>
 4    1  0.6020852E+000  0.1000000E+03  0.7546771E-02  0.1280296E+00
         21   -1    0    0  501  502  0.00000000000E+00  0.00000000000E+00  0.75550561884E+03  0.75550561884E+03  0.00000000000E+00 0. -1.
         21   -1    0    0  502  503 -0.00000000000E+00 -0.00000000000E+00 -0.11011521169E+03  0.11011521169E+03  0.00000000000E+00 0. -1.
          6    1    1    2  501    0 -0.18109342179E+03 -0.74627234827E+01  0.53708796486E+03  0.59265757538E+03  0.17300000000E+03 0. -1.
         -6    1    1    2    0  503  0.18109342179E+03  0.74627234827E+01  0.10830244229E+03  0.27296325515E+03  0.17300000000E+03 0. -1.
</event>
<event>
 4    1  0.6020852E+000  0.1000000E+03  0.7546771E-02  0.1280296E+00
         21   -1    0    0  501  502  0.00000000000E+00  0.00000000000E+00  0.76032920883E+03  0.76032920883E+03  0.00000000000E+00 0. -1.
         21   -1    0    0  502  503 -0.00000000000E+00 -0.00000000000E+00 -0.15182364287E+03  0.15182364287E+03  0.00000000000E+00 0.  1.
          6    1    1    2  501    0  0.10353333664E+03 -0.45008202973E+02  0.66634532251E+03  0.69763169291E+03  0.17300000000E+03 0. -1.
         -6    1    1    2    0  503 -0.10353333664E+03  0.45008202973E+02 -0.57839756548E+02  0.21452115879E+03  0.17300000000E+03 0.  1.
</event>
<event>
 4    1  0.6020852E+000  0.1000000E+03  0.7546771E-02  0.1280296E+00
         21   -1    0    0  501  502  0.00000000000E+00  0.00000000000E+00  0.12784683898E+03  0.12784683898E+03  0.00000000000E+00 0. -1.
         21   -1    0    0  502  503 -0.00000000000E+00 -0.00000000000E+00 -0.52685444530E+03  0.52685444530E+03  0.00000000000E+00 0.  1.
          6    1    1    2  501    0 -0.52088783767E+02 -0.64428381523E+02  0.21003934685E+02  0.19296223209E+03  0.17300000000E+03 0. -1.
         -6    1    1    2    0  503  0.52088783767E+02  0.64428381523E+02 -0.42001154100E+03  0.46173905219E+03  0.17300000000E+03 0.  1.
</event>
<event>
 4    1  0.6020852E+000  0.1000000E+03  0.7546771E-02  0.1280296E+00
         21   -1    0    0  503  502  0.00000000000E+00  0.00000000000E+00  0.16672971674E+03  0.16672971674E+03  0.00000000000E+00 0. -1.
         21   -1    0    0  501  503 -0.00000000000E+00 -0.00000000000E+00 -0.28380846649E+03  0.28380846649E+03  0.00000000000E+00 0.  1.
          6    1    1    2  501    0  0.28043563022E+00  0.11449964484E+03 -0.12628905526E+03  0.24287480889E+03  0.17300000000E+03 0. -1.
         -6    1    1    2    0  502 -0.28043563022E+00 -0.11449964484E+03  0.92103055100E+01  0.20766337434E+03  0.17300000000E+03 0.  1.
</event>
<event>
 4    1  0.6020852E+000  0.1000000E+03  0.7546771E-02  0.1280296E+00
         21   -1    0    0  503  502  0.00000000000E+00  0.00000000000E+00  0.31598702336E+04  0.31598702336E+04  0.00000000000E+00 0.  1.
         21   -1    0    0  501  503 -0.00000000000E+00 -0.00000000000E+00 -0.11323936251E+02  0.11323936251E+02  0.00000000000E+00 0.  1.
          6    1    1    2  501    0 -0.48207910062E+02  0.77876520966E+01  0.10806090510E+04  0.10954586123E+04  0.17300000000E+03 0.  1.
         -6    1    1    2    0  502  0.48207910062E+02 -0.77876520966E+01  0.20679372463E+04  0.20757355576E+04  0.17300000000E+03 0.  1.
</event>
<event>
 4    1  0.6020852E+000  0.1000000E+03  0.7546771E-02  0.1280296E+00
         21   -1    0    0  501  502  0.00000000000E+00  0.00000000000E+00  0.39443650244E+02  0.39443650244E+02  0.00000000000E+00 0. -1.
         21   -1    0    0  502  503 -0.00000000000E+00 -0.00000000000E+00 -0.11121117555E+04  0.11121117555E+04  0.00000000000E+00 0. -1.
          6    1    1    2  501    0  0.21524086723E+02 -0.10061237725E+03 -0.37720332800E+03  0.42754822818E+03  0.17300000000E+03 0. -1.
         -6    1    1    2    0  503 -0.21524086723E+02  0.10061237725E+03 -0.69546477729E+03  0.72400717760E+03  0.17300000000E+03 0. -1.
</event>
<event>
 4    1  0.6020852E+000  0.1000000E+03  0.7546771E-02  0.1280296E+00
         21   -1    0    0  501  502  0.00000000000E+00  0.00000000000E+00  0.47889779515E+03  0.47889779515E+03  0.00000000000E+00 0. -1.
         21   -1    0    0  502  503 -0.00000000000E+00 -0.00000000000E+00 -0.11790517997E+03  0.11790517997E+03  0.00000000000E+00 0. -1.
          6    1    1    2  501    0 -0.38865659039E+02 -0.15228274606E+03  0.23428933809E+03  0.33093967448E+03  0.17300000000E+03 0. -1.
         -6    1    1    2    0  503  0.38865659039E+02  0.15228274606E+03  0.12670327709E+03  0.26586330064E+03  0.17300000000E+03 0. -1.
</event>
<event>
 4    1  0.6020852E+000  0.1000000E+03  0.7546771E-02  0.1280296E+00
         21   -1    0    0  503  502  0.00000000000E+00  0.00000000000E+00  0.31441327576E+03  0.31441327576E+03  0.00000000000E+00 0. -1.
         21   -1    0    0  501  503 -0.00000000000E+00 -0.00000000000E+00 -0.17626873669E+03  0.17626873669E+03  0.00000000000E+00 0. -1.
          6    1    1    2  501    0 -0.12905691985E+03 -0.13972261769E+02 -0.27805037660E+02  0.21806657877E+03  0.17300000000E+03 0.  1.
         -6    1    1    2    0  502  0.12905691985E+03  0.13972261769E+02  0.16594957673E+03  0.27261543367E+03  0.17300000000E+03 0.  1.
</event>
<event>
 4    1  0.6020852E+000  0.1000000E+03  0.7546771E-02  0.1280296E+00
         21   -1    0    0  503  502  0.00000000000E+00  0.00000000000E+00  0.46332581291E+03  0.46332581291E+03  0.00000000000E+00 0. -1.
         21   -1    0    0  501  503 -0.00000000000E+00 -0.00000000000E+00 -0.80297575814E+02  0.80297575814E+02  0.00000000000E+00 0. -1.
          6    1    1    2  501    0 -0.33604295806E+02 -0.66701590019E+02  0.13346949914E+03  0.23091439541E+03  0.17300000000E+03 0.  1.
         -6    1    1    2    0  502  0.33604295806E+02  0.66701590019E+02  0.24955873795E+03  0.31270899331E+03  0.17300000000E+03 0.  1.
</event>
<event>
 4    1  0.6020852E+000  0.1000000E+03  0.7546771E-02  0.1280296E+00
         21   -1    0    0  503  502  0.00000000000E+00  0.00000000000E+00  0.12555370291E+04  0.12555370291E+04  0.00000000000E+00 0. -1.
         21   -1    0    0  501  503 -0.00000000000E+00 -0.00000000000E+00 -0.54026270610E+02  0.54026270610E+02  0.00000000000E+00 0. -1.
          6    1    1    2  501    0 -0.43145305052E+02  0.91687821096E+02  0.18282159525E+03  0.27133173345E+03  0.17300000000E+03 0. -1.
         -6    1    1    2    0  502  0.43145305052E+02 -0.91687821096E+02  0.10186891633E+04  0.10382315663E+04  0.17300000000E+03 0. -1.
</event>
<event>
 4    1  0.6020852E+000  0.1000000E+03  0.7546771E-02  0.1280296E+00
         21   -1    0    0  501  502  0.00000000000E+00  0.00000000000E+00  0.39291487480E+02  0.39291487480E+02  0.00000000000E+00 0. -1.
         21   -1    0    0  502  503 -0.00000000000E+00 -0.00000000000E+00 -0.10117967299E+04  0.10117967299E+04  0.00000000000E+00 0. -1.
          6    1    1    2  501    0 -0.71793799752E+02  0.21308108577E+02 -0.31507511944E+03  0.36716442647E+03  0.17300000000E+03 0. -1.
         -6    1    1    2    0  503  0.71793799752E+02 -0.21308108577E+02 -0.65743012298E+03  0.68392379091E+03  0.17300000000E+03 0. -1.
</event>
<event>
 4    1  0.6020852E+000  0.1000000E+03  0.7546771E-02  0.1280296E+00
         21   -1    0    0  501  502  0.00000000000E+00  0.00000000000E+00  0.87041816257E+02  0.87041816257E+02  0.00000000000E+00 0. -1.
         21   -1    0    0  502  503 -0.00000000000E+00 -0.00000000000E+00 -0.10120275498E+04  0.10120275498E+04  0.00000000000E+00 0. -1.
          6    1    1    2  501    0 -0.66200653638E+01  0.53667698663E+02 -0.27337066871E+02  0.18330401624E+03  0.17300000000E+03 0. -1.
         -6    1    1    2    0  503  0.66200653638E+01 -0.53667698663E+02 -0.89764866670E+03  0.91576534984E+03  0.17300000000E+03 0. -1.
</event>
<event>
 4    1  0.6020852E+000  0.1000000E+03  0.7546771E-02  0.1280296E+00
         21   -1    0    0  501  502  0.00000000000E+00  0.00000000000E+00  0.65377225716E+03  0.65377225716E+03  0.00000000000E+00 0. -1.
         21   -1    0    0  502  503 -0.00000000000E+00 -0.00000000000E+00 -0.51903764634E+03  0.51903764634E+03  0.00000000000E+00 0. -1.
          6    1    1    2  501    0 -0.17256240687E+02 -0.31906239647E+01  0.62703632327E+03  0.65070078272E+03  0.17300000000E+03 0. -1.
         -6    1    1    2    0  503  0.17256240687E+02  0.31906239647E+01 -0.49230171245E+03  0.52210912079E+03  0.17300000000E+03 0. -1.
</event>
<event>
 4    1  0.6020852E+000  0.1000000E+03  0.7546771E-02  0.1280296E+00
         21   -1    0    0  501  502  0.00000000000E+00  0.00000000000E+00  0.26166604691E+03  0.26166604691E+03  0.00000000000E+00 0.  1.
         21   -1    0    0  502  503 -0.00000000000E+00 -0.00000000000E+00 -0.25798580667E+03  0.25798580667E+03  0.00000000000E+00 0. -1.
          6    1    1    2  501    0  0.96297246773E+02 -0.97670396627E+02  0.13882698549E+03  0.26079608512E+03  0.17300000000E+03 0.  1.
         -6    1    1    2    0  503 -0.96297246773E+02  0.97670396627E+02 -0.13514674525E+03  0.25885576846E+03  0.17300000000E+03 0. -1.
</event>
<event>
 4    1  0.6020852E+000  0.1000000E+03  0.7546771E-02  0.1280296E+00
         21   -1    0    0  503  502  0.00000000000E+00  0.00000000000E+00  0.13074640676E+04  0.13074640676E+04  0.00000000000E+00 0. -1.
         21   -1    0    0  501  503 -0.00000000000E+00 -0.00000000000E+00 -0.79615156526E+02  0.79615156526E+02  0.00000000000E+00 0.  1.
          6    1    1    2  501    0  0.10494352336E+03 -0.17477575620E+02  0.75036427749E+02  0.21651345047E+03  0.17300000000E+03 0.  1.
         -6    1    1    2    0  502 -0.10494352336E+03  0.17477575620E+02  0.11528124833E+04  0.11705657736E+04  0.17300000000E+03 0. -1.
</event>
<event>
 4    1  0.6020852E+000  0.1000000E+03  0.7546771E-02  0.1280296E+00
         21   -1    0    0  503  502  0.00000000000E+00  0.00000000000E+00  0.63770044372E+02  0.63770044372E+02  0.00000000000E+00 0. -1.
         21   -1    0    0  501  503 -0.00000000000E+00 -0.00000000000E+00 -0.92333384958E+03  0.92333384958E+03  0.00000000000E+00 0.  1.
          6    1    1    2  501    0 -0.11483162508E+03  0.87083325965E+02 -0.61376632200E+03  0.65376441154E+03  0.17300000000E+03 0.  1.
         -6    1    1    2    0  502  0.11483162508E+03 -0.87083325965E+02 -0.24579748321E+03  0.33333948241E+03  0.17300000000E+03 0. -1.
</event>
<event>
 4    1  0.6020852E+000  0.1000000E+03  0.7546771E-02  0.1280296E+00
         21   -1    0    0  501  502  0.00000000000E+00  0.00000000000E+00  0.25428707539E+03  0.25428707539E+03  0.00000000000E+00 0.  1.
         21   -1    0    0  502  503 -0.00000000000E+00 -0.00000000000E+00 -0.30525028884E+03  0.30525028884E+03  0.00000000000E+00 0.  1.
          6    1    1    2  501    0  0.74213236778E+02  0.38498024041E+02  0.17710907171E+03  0.26131652388E+03  0.17300000000E+03 0.  1.
         -6    1    1    2    0  503 -0.74213236778E+02 -0.38498024041E+02 -0.22807228516E+03  0.29822084036E+03  0.17300000000E+03 0.  1.
</event>
<event>
 4    1  0.6020852E+000  0.1000000E+03  0.7546771E-02  0.1280296E+00
         21   -1    0    0  501  502  0.00000000000E+00  0.00000000000E+00  0.37871687462E+02  0.37871687462E+02  0.00000000000E+00 0.  1.
         21   -1    0    0  502  503 -0.00000000000E+00 -0.00000000000E+00 -0.96429264045E+03  0.96429264045E+03  0.00000000000E+00 0.  1.
          6    1    1    2  501    0 -0.65728032806E+02  0.15324537483E+02 -0.34491469027E+03  0.39172714906E+03  0.17300000000E+03 0.  1.
         -6    1    1    2    0  503  0.65728032806E+02 -0.15324537483E+02 -0.58150626272E+03  0.61043717885E+03  0.17300000000E+03 0.  1.
</event>
<event>
 4    1  0.6020852E+000  0.1000000E+03  0.7546771E-02  0.1280296E+00
         21   -1    0    0  501  502  0.00000000000E+00  0.00000000000E+00  0.62719429438E+02  0.62719429438E+02  0.00000000000E+00 0. -1.
         21   -1    0    0  502  503 -0.00000000000E+00 -0.00000000000E+00 -0.66322591868E+03  0.66322591868E+03  0.00000000000E+00 0.  1.
          6    1    1    2  501    0 -0.43227978568E+02 -0.95459928626E+02 -0.25361015105E+03  0.32438921810E+03  0.17300000000E+03 0. -1.
         -6    1    1    2    0  503  0.43227978568E+02  0.95459928626E+02 -0.34689633819E+03  0.40155613002E+03  0.17300000000E+03 0.  1.
</event>
<event>
 4    1  0.6020852E+000  0.1000000E+03  0.7546771E-02  0.1280296E+00
         21   -1    0    0  501  502  0.00000000000E+00  0.00000000000E+00  0.25305103006E+03  0.25305103006E+03  0.00000000000E+00 0. -1.
         21   -1    0    0  502  503 -0.00000000000E+00 -0.00000000000E+00 -0.18258151897E+03  0.18258151897E+03  0.00000000000E+00 0.  1.
          6    1    1    2  501    0  0.75187183740E+02  0.44096269823E+02  0.12962211273E+03  0.23308471790E+03  0.17300000000E+03 0. -1.
         -6    1    1    2    0  503 -0.75187183740E+02 -0.44096269823E+02 -0.59152601648E+02  0.20254783112E+03  0.17300000000E+03 0.  1.
</event>
<event>
 4    1  0.6020852E+000  0.1000000E+03  0.7546771E-02  0.1280296E+00
         21   -1    0    0  501  502  0.00000000000E+00  0.00000000000E+00  0.14388695654E+03  0.14388695654E+03  0.00000000000E+00 0. -1.
         21   -1    0    0  502  503 -0.00000000000E+00 -0.00000000000E+00 -0.96803411135E+03  0.96803411135E+03  0.00000000000E+00 0.  1.
          6    1    1    2  501    0 -0.14598438467E+03  0.19267430854E+03 -0.75912294990E+02  0.30680043395E+03  0.17300000000E+03 0. -1.
         -6    1    1    2    0  503  0.14598438467E+03 -0.19267430854E+03 -0.74823485982E+03  0.80512063394E+03  0.17300000000E+03 0.  1.
</event>
<event>
 4    1  0.6020852E+000  0.1000000E+03  0.7546771E-02  0.1280296E+00
         21   -1    0    0  501  502  0.00000000000E+00  0.00000000000E+00  0.14559927199E+04  0.14559927199E+04  0.00000000000E+00 0.  1.
         21   -1    0    0  502  503 -0.00000000000E+00 -0.00000000000E+00 -0.39786466021E+02  0.39786466021E+02  0.00000000000E+00 0. -1.
          6    1    1    2  501    0  0.19911685887E+02  0.94074233824E+02  0.28257345795E+03  0.34499738527E+03  0.17300000000E+03 0.  1.
         -6    1    1    2    0  503 -0.19911685887E+02 -0.94074233824E+02  0.11336327959E+04  0.11507818007E+04  0.17300000000E+03 0. -1.
</event>
<event>
 4    1  0.6020852E+000  0.1000000E+03  0.7546771E-02  0.1280296E+00
         21   -1    0    0  501  502  0.00000000000E+00  0.00000000000E+00  0.79293081567E+03  0.79293081567E+03  0.00000000000E+00 0. -1.
         21   -1    0    0  502  503 -0.00000000000E+00 -0.00000000000E+00 -0.54697943575E+02  0.54697943575E+02  0.00000000000E+00 0. -1.
          6    1    1    2  501    0 -0.89869335556E+02  0.40507537560E+02  0.49332591414E+03  0.53199324773E+03  0.17300000000E+03 0. -1.
         -6    1    1    2    0  503  0.89869335556E+02 -0.40507537560E+02  0.24490695796E+03  0.31563551151E+03  0.17300000000E+03 0. -1.
</event>
<event>
 4    1  0.6020852E+000  0.1000000E+03  0.7546771E-02  0.1280296E+00
         21   -1    0    0  503  502  0.00000000000E+00  0.00000000000E+00  0.52640437130E+03  0.52640437130E+03  0.00000000000E+00 0. -1.
         21   -1    0    0  501  503 -0.00000000000E+00 -0.00000000000E+00 -0.72716255313E+02  0.72716255313E+02  0.00000000000E+00 0.  1.
          6    1    1    2  501    0 -0.43985212076E+02 -0.39309908467E+02  0.12000329001E+03  0.21865442460E+03  0.17300000000E+03 0.  1.
         -6    1    1    2    0  502  0.43985212076E+02  0.39309908467E+02  0.33368482598E+03  0.38046620202E+03  0.17300000000E+03 0. -1.
</event>
<event>
 4    1  0.6020852E+000  0.1000000E+03  0.7546771E-02  0.1280296E+00
         21   -1    0    0  503  502  0.00000000000E+00  0.00000000000E+00  0.40289070307E+03  0.40289070307E+03  0.00000000000E+00 0. -1.
         21   -1    0    0  501  503 -0.00000000000E+00 -0.00000000000E+00 -0.21098649290E+03  0.21098649290E+03  0.00000000000E+00 0.  1.
          6    1    1    2  501    0 -0.21671502291E+03  0.42854497013E+02  0.12566990163E+02  0.28087156907E+03  0.17300000000E+03 0.  1.
         -6    1    1    2    0  502  0.21671502291E+03 -0.42854497013E+02  0.17933722001E+03  0.33300562690E+03  0.17300000000E+03 0. -1.
</event>
<event>
 4    1  0.6020852E+000  0.1000000E+03  0.7546771E-02  0.1280296E+00
         21   -1    0    0  503  502  0.00000000000E+00  0.00000000000E+00  0.54932283469E+03  0.54932283469E+03  0.00000000000E+00 0. -1.
         21   -1    0    0  501  503 -0.00000000000E+00 -0.00000000000E+00 -0.74505265809E+02  0.74505265809E+02  0.00000000000E+00 0.  1.
          6    1    1    2  501    0 -0.92846575373E+01  0.11844656073E+02  0.77388642104E+02  0.19011707622E+03  0.17300000000E+03 0.  1.
         -6    1    1    2    0  502  0.92846575373E+01 -0.11844656073E+02  0.39742892678E+03  0.43371102428E+03  0.17300000000E+03 0. -1.
</event>
<event>
 4    1  0.6020852E+000  0.1000000E+03  0.7546771E-02  0.1280296E+00
         21   -1    0    0  503  502  0.00000000000E+00  0.00000000000E+00  0.72823753802E+02  0.72823753802E+02  0.00000000000E+00 0.  1.
         21   -1    0    0  501  503 -0.00000000000E+00 -0.00000000000E+00 -0.73650943595E+03  0.73650943595E+03  0.00000000000E+00 0.  1.
          6    1    1    2  501    0  0.11053934424E+03 -0.94045575032E+02 -0.24201537298E+03  0.33100446759E+03  0.17300000000E+03 0.  1.
         -6    1    1    2    0  502 -0.11053934424E+03  0.94045575032E+02 -0.42167030917E+03  0.47832872216E+03  0.17300000000E+03 0.  1.
</event>
<event>
 4    1  0.6020852E+000  0.1000000E+03  0.7546771E-02  0.1280296E+00
         21   -1    0    0  503  502  0.00000000000E+00  0.00000000000E+00  0.20236955154E+03  0.20236955154E+03  0.00000000000E+00 0.  1.
         21   -1    0    0  501  503 -0.00000000000E+00 -0.00000000000E+00 -0.66360598679E+03  0.66360598679E+03  0.00000000000E+00 0.  1.
          6    1    1    2  501    0 -0.28712718685E+02  0.17051351818E+03 -0.55304050911E+03  0.60471653261E+03  0.17300000000E+03 0.  1.
         -6    1    1    2    0  502  0.28712718685E+02 -0.17051351818E+03  0.91804073860E+02  0.26125900573E+03  0.17300000000E+03 0.  1.
</event>
<event>
 4    1  0.6020852E+000  0.1000000E+03  0.7546771E-02  0.1280296E+00
         21   -1    0    0  503  502  0.00000000000E+00  0.00000000000E+00  0.16157663396E+03  0.16157663396E+03  0.00000000000E+00 0.  1.
         21   -1    0    0  501  503 -0.00000000000E+00 -0.00000000000E+00 -0.53688649249E+03  0.53688649249E+03  0.00000000000E+00 0.  1.
          6    1    1    2  501    0 -0.46218886894E+02  0.31609976904E+02 -0.46238433476E+03  0.49685375029E+03  0.17300000000E+03 0.  1.
         -6    1    1    2    0  502  0.46218886894E+02 -0.31609976904E+02  0.87074476233E+02  0.20160937616E+03  0.17300000000E+03 0.  1.
</event>
<event>
 4    1  0.6020852E+000  0.1000000E+03  0.7546771E-02  0.1280296E+00
         21   -1    0    0  503  502  0.00000000000E+00  0.00000000000E+00  0.44513484218E+03  0.44513484218E+03  0.00000000000E+00 0.  1.
         21   -1    0    0  501  503 -0.00000000000E+00 -0.00000000000E+00 -0.74048678109E+02  0.74048678109E+02  0.00000000000E+00 0.  1.
          6    1    1    2  501    0  0.19094312873E+02 -0.31388235601E+02  0.12688783042E+03  0.21766794809E+03  0.17300000000E+03 0.  1.
         -6    1    1    2    0  502 -0.19094312873E+02  0.31388235601E+02  0.24419833366E+03  0.30151557220E+03  0.17300000000E+03 0.  1.
</event>
<event>
 4    1  0.6020852E+000  0.1000000E+03  0.7546771E-02  0.1280296E+00
         21   -1    0    0  503  502  0.00000000000E+00  0.00000000000E+00  0.12996654066E+03  0.12996654066E+03  0.00000000000E+00 0.  1.
         21   -1    0    0  501  503 -0.00000000000E+00 -0.00000000000E+00 -0.42165036935E+03  0.42165036935E+03  0.00000000000E+00 0.  1.
          6    1    1    2  501    0 -0.10109561320E+03 -0.78695226335E+02 -0.25419816497E+03  0.33310504159E+03  0.17300000000E+03 0.  1.
         -6    1    1    2    0  502  0.10109561320E+03  0.78695226335E+02 -0.37485663717E+02  0.21851186842E+03  0.17300000000E+03 0.  1.
</event>
<event>
 4    1  0.6020852E+000  0.1000000E+03  0.7546771E-02  0.1280296E+00
         21   -1    0    0  501  502  0.00000000000E+00  0.00000000000E+00  0.40573921261E+03  0.40573921261E+03  0.00000000000E+00 0. -1.
         21   -1    0    0  502  503 -0.00000000000E+00 -0.00000000000E+00 -0.27005246116E+03  0.27005246116E+03  0.00000000000E+00 0.  1.
          6    1    1    2  501    0  0.11420942267E+03 -0.21240647416E+02  0.33038011033E+03  0.39060846718E+03  0.17300000000E+03 0.  1.
         -6    1    1    2    0  503 -0.11420942267E+03  0.21240647416E+02 -0.19469335888E+03  0.28518320659E+03  0.17300000000E+03 0. -1.
</event>
<event>
 4    1  0.6020852E+000  0.1000000E+03  0.7546771E-02  0.1280296E+00
         21   -1    0    0  503  502  0.00000000000E+00  0.00000000000E+00  0.31164084403E+03  0.31164084403E+03  0.00000000000E+00 0. -1.
         21   -1    0    0  501  503 -0.00000000000E+00 -0.00000000000E+00 -0.10953766701E+03  0.10953766701E+03  0.00000000000E+00 0. -1.
          6    1    1    2  501    0 -0.21838549404E+02 -0.54809411595E+02  0.13177152599E+03  0.22533026628E+03  0.17300000000E+03 0. -1.
         -6    1    1    2    0  502  0.21838549404E+02  0.54809411595E+02  0.70331651030E+02  0.19584824476E+03  0.17300000000E+03 0. -1.
</event>
<event>
 4    1  0.6020852E+000  0.1000000E+03  0.7546771E-02  0.1280296E+00
         21   -1    0    0  503  502  0.00000000000E+00  0.00000000000E+00  0.98957371913E+02  0.98957371913E+02  0.00000000000E+00 0. -1.
         21   -1    0    0  501  503 -0.00000000000E+00 -0.00000000000E+00 -0.38316075275E+03  0.38316075275E+03  0.00000000000E+00 0. -1.
          6    1    1    2  501    0 -0.69966010296E+02 -0.25167127108E+02 -0.20348977743E+03  0.27724667068E+03  0.17300000000E+03 0. -1.
         -6    1    1    2    0  502  0.69966010296E+02  0.25167127108E+02 -0.80713603412E+02  0.20487145399E+03  0.17300000000E+03 0. -1.
</event>
<event>
 4    1  0.6020852E+000  0.1000000E+03  0.7546771E-02  0.1280296E+00
         21   -1    0    0  503  502  0.00000000000E+00  0.00000000000E+00  0.19607844364E+03  0.19607844364E+03  0.00000000000E+00 0. -1.
         21   -1    0    0  501  503 -0.00000000000E+00 -0.00000000000E+00 -0.23328516271E+03  0.23328516271E+03  0.00000000000E+00 0. -1.
          6    1    1    2  501    0  0.27201200273E+02 -0.30792491142E+02 -0.13790121894E+03  0.22501961913E+03  0.17300000000E+03 0. -1.
         -6    1    1    2    0  502 -0.27201200273E+02  0.30792491142E+02  0.10069449987E+03  0.20434398722E+03  0.17300000000E+03 0. -1.
</event>
<event>
 4    1  0.6020852E+000  0.1000000E+03  0.7546771E-02  0.1280296E+00
         21   -1    0    0  503  502  0.00000000000E+00  0.00000000000E+00  0.18164970267E+03  0.18164970267E+03  0.00000000000E+00 0. -1.
         21   -1    0    0  501  503 -0.00000000000E+00 -0.00000000000E+00 -0.17784341401E+03  0.17784341401E+03  0.00000000000E+00 0. -1.
          6    1    1    2  501    0  0.23511731353E+02  0.40121266110E+02 -0.12715669874E+02  0.17959177533E+03  0.17300000000E+03 0. -1.
         -6    1    1    2    0  502 -0.23511731353E+02 -0.40121266110E+02  0.16521958543E+02  0.17990134135E+03  0.17300000000E+03 0. -1.
</event>
<event>
 4    1  0.6020852E+000  0.1000000E+03  0.7546771E-02  0.1280296E+00
         21   -1    0    0  503  502  0.00000000000E+00  0.00000000000E+00  0.99141654945E+02  0.99141654945E+02  0.00000000000E+00 0. -1.
         21   -1    0    0  501  503 -0.00000000000E+00 -0.00000000000E+00 -0.65082699784E+03  0.65082699784E+03  0.00000000000E+00 0. -1.
          6    1    1    2  501    0 -0.11958346352E+03  0.11736751443E+03 -0.15664521888E+03  0.28730134491E+03  0.17300000000E+03 0. -1.
         -6    1    1    2    0  502  0.11958346352E+03 -0.11736751443E+03 -0.39504012402E+03  0.46266730787E+03  0.17300000000E+03 0. -1.
</event>
<event>
 4    1  0.6020852E+000  0.1000000E+03  0.7546771E-02  0.1280296E+00
         21   -1    0    0  501  502  0.00000000000E+00  0.00000000000E+00  0.89471625795E+03  0.89471625795E+03  0.00000000000E+00 0.  1.
         21   -1    0    0  502  503 -0.00000000000E+00 -0.00000000000E+00 -0.13713512626E+03  0.13713512626E+03  0.00000000000E+00 0.  1.
          6    1    1    2  501    0 -0.29993536510E+03  0.12949437196E+02  0.45445631945E+03  0.57147918374E+03  0.17300000000E+03 0.  1.
         -6    1    1    2    0  503  0.29993536510E+03 -0.12949437196E+02  0.30312481224E+03  0.46037220046E+03  0.17300000000E+03 0.  1.
</event>
<event>
 4    1  0.6020852E+000  0.1000000E+03  0.7546771E-02  0.1280296E+00
         21   -1    0    0  501  502  0.00000000000E+00  0.00000000000E+00  0.20130190020E+03  0.20130190020E+03  0.00000000000E+00 0.  1.
         21   -1    0    0  502  503 -0.00000000000E+00 -0.00000000000E+00 -0.21084106864E+03  0.21084106864E+03  0.00000000000E+00 0. -1.
          6    1    1    2  501    0  0.51538748565E+02  0.34489659789E+02  0.88357073938E+02  0.20391604094E+03  0.17300000000E+03 0.  1.
         -6    1    1    2    0  503 -0.51538748565E+02 -0.34489659789E+02 -0.97896242376E+02  0.20822692791E+03  0.17300000000E+03 0. -1.
</event>
<event>
 4    1  0.6020852E+000  0.1000000E+03  0.7546771E-02  0.1280296E+00
         21   -1    0    0  501  502  0.00000000000E+00  0.00000000000E+00  0.83890104558E+02  0.83890104558E+02  0.00000000000E+00 0. -1.
         21   -1    0    0  502  503 -0.00000000000E+00 -0.00000000000E+00 -0.57669412217E+03  0.57669412217E+03  0.00000000000E+00 0. -1.
          6    1    1    2  501    0  0.46849374741E+02 -0.65043605135E+02 -0.81736855150E+02  0.20744986858E+03  0.17300000000E+03 0. -1.
         -6    1    1    2    0  503 -0.46849374741E+02  0.65043605135E+02 -0.41106716247E+03  0.45313435815E+03  0.17300000000E+03 0. -1.
</event>
<event>
 4    1  0.6020852E+000  0.1000000E+03  0.7546771E-02  0.1280296E+00
         21   -1    0    0  501  502  0.00000000000E+00  0.00000000000E+00  0.35831355011E+02  0.35831355011E+02  0.00000000000E+00 0. -1.
         21   -1    0    0  502  503 -0.00000000000E+00 -0.00000000000E+00 -0.17359411757E+04  0.17359411757E+04  0.00000000000E+00 0. -1.
          6    1    1    2  501    0 -0.10557771951E+02  0.67622061335E+02 -0.26007355334E+03  0.31976782652E+03  0.17300000000E+03 0. -1.
         -6    1    1    2    0  503  0.10557771951E+02 -0.67622061335E+02 -0.14400362674E+04  0.14520047042E+04  0.17300000000E+03 0. -1.
</event>
<event>
 4    1  0.6020852E+000  0.1000000E+03  0.7546771E-02  0.1280296E+00
         21   -1    0    0  501  502  0.00000000000E+00  0.00000000000E+00  0.11273146112E+03  0.11273146112E+03  0.00000000000E+00 0. -1.
         21   -1    0    0  502  503 -0.00000000000E+00 -0.00000000000E+00 -0.99244515027E+03  0.99244515027E+03  0.00000000000E+00 0. -1.
          6    1    1    2  501    0  0.71145693493E+02  0.11433950903E+03 -0.22517669477E+02  0.22038892546E+03  0.17300000000E+03 0. -1.
         -6    1    1    2    0  503 -0.71145693493E+02 -0.11433950903E+03 -0.85719601967E+03  0.88478768592E+03  0.17300000000E+03 0. -1.
</event>
<event>
 4    1  0.6020852E+000  0.1000000E+03  0.7546771E-02  0.1280296E+00
         21   -1    0    0  501  502  0.00000000000E+00  0.00000000000E+00  0.77851090664E+02  0.77851090664E+02  0.00000000000E+00 0. -1.
         21   -1    0    0  502  503 -0.00000000000E+00 -0.00000000000E+00 -0.73367552510E+03  0.73367552510E+03  0.00000000000E+00 0.  1.
          6    1    1    2  501    0 -0.10738002894E+03 -0.82432718772E+02 -0.48774809649E+03  0.53493254656E+03  0.17300000000E+03 0. -1.
         -6    1    1    2    0  503  0.10738002894E+03  0.82432718772E+02 -0.16807633794E+03  0.27659406920E+03  0.17300000000E+03 0.  1.
</event>
<event>
 4    1  0.6020852E+000  0.1000000E+03  0.7546771E-02  0.1280296E+00
         21   -1    0    0  501  502  0.00000000000E+00  0.00000000000E+00  0.32999370068E+03  0.32999370068E+03  0.00000000000E+00 0. -1.
         21   -1    0    0  502  503 -0.00000000000E+00 -0.00000000000E+00 -0.10460035091E+03  0.10460035091E+03  0.00000000000E+00 0.  1.
          6    1    1    2  501    0 -0.23833990382E+02 -0.40301377511E+02  0.55444020716E+02  0.18760410326E+03  0.17300000000E+03 0. -1.
         -6    1    1    2    0  503  0.23833990382E+02  0.40301377511E+02  0.16994932906E+03  0.24698994833E+03  0.17300000000E+03 0.  1.
</event>
<event>
 4    1  0.6020852E+000  0.1000000E+03  0.7546771E-02  0.1280296E+00
         21   -1    0    0  501  502  0.00000000000E+00  0.00000000000E+00  0.15345271187E+04  0.15345271187E+04  0.00000000000E+00 0. -1.
         21   -1    0    0  502  503 -0.00000000000E+00 -0.00000000000E+00 -0.11491468316E+03  0.11491468316E+03  0.00000000000E+00 0.  1.
          6    1    1    2  501    0  0.67031155173E+02  0.11459287403E+03  0.14146068324E+04  0.14313162449E+04  0.17300000000E+03 0. -1.
         -6    1    1    2    0  503 -0.67031155173E+02 -0.11459287403E+03  0.50056031133E+01  0.21812555697E+03  0.17300000000E+03 0.  1.
</event>
<event>
 4    1  0.6020852E+000  0.1000000E+03  0.7546771E-02  0.1280296E+00
         21   -1    0    0  503  502  0.00000000000E+00  0.00000000000E+00  0.12741141259E+03  0.12741141259E+03  0.00000000000E+00 0.  1.
         21   -1    0    0  501  503 -0.00000000000E+00 -0.00000000000E+00 -0.68807045398E+03  0.68807045398E+03  0.00000000000E+00 0. -1.
          6    1    1    2  501    0  0.29695300381E+02 -0.23018679252E+03 -0.36601155339E+03  0.46664893392E+03  0.17300000000E+03 0. -1.
         -6    1    1    2    0  502 -0.29695300381E+02  0.23018679252E+03 -0.19464748801E+03  0.34883293265E+03  0.17300000000E+03 0.  1.
</event>
<event>
 4    1  0.6020852E+000  0.1000000E+03  0.7546771E-02  0.1280296E+00
         21   -1    0    0  501  502  0.00000000000E+00  0.00000000000E+00  0.54628732633E+03  0.54628732633E+03  0.00000000000E+00 0.  1.
         21   -1    0    0  502  503 -0.00000000000E+00 -0.00000000000E+00 -0.85228090674E+02  0.85228090674E+02  0.00000000000E+00 0.  1.
          6    1    1    2  501    0  0.51763836351E+02  0.26076120067E+02  0.39910601150E+03  0.43883261867E+03  0.17300000000E+03 0.  1.
         -6    1    1    2    0  503 -0.51763836351E+02 -0.26076120067E+02  0.61953224157E+02  0.19268279834E+03  0.17300000000E+03 0.  1.
</event>
<event>
 4    1  0.6020852E+000  0.1000000E+03  0.7546771E-02  0.1280296E+00
         21   -1    0    0  501  502  0.00000000000E+00  0.00000000000E+00  0.61446084472E+03  0.61446084472E+03  0.00000000000E+00 0.  1.
         21   -1    0    0  502  503 -0.00000000000E+00 -0.00000000000E+00 -0.23281018359E+03  0.23281018359E+03  0.00000000000E+00 0.  1.
          6    1    1    2  501    0  0.31495203042E+02  0.21818069399E+03  0.47535113777E+03  0.55179929977E+03  0.17300000000E+03 0.  1.
         -6    1    1    2    0  503 -0.31495203042E+02 -0.21818069399E+03 -0.93700476638E+02  0.29547172854E+03  0.17300000000E+03 0.  1.
</event>
<event>
 4    1  0.6020852E+000  0.1000000E+03  0.7546771E-02  0.1280296E+00
         21   -1    0    0  501  502  0.00000000000E+00  0.00000000000E+00  0.52981205091E+03  0.52981205091E+03  0.00000000000E+00 0.  1.
         21   -1    0    0  502  503 -0.00000000000E+00 -0.00000000000E+00 -0.12948356604E+04  0.12948356604E+04  0.00000000000E+00 0.  1.
          6    1    1    2  501    0  0.33981949455E+02  0.90481548674E+02  0.50331460234E+03  0.54092168793E+03  0.17300000000E+03 0.  1.
         -6    1    1    2    0  503 -0.33981949455E+02 -0.90481548674E+02 -0.12683382118E+04  0.12837260234E+04  0.17300000000E+03 0.  1.
</event>
<event>
 4    1  0.6020852E+000  0.1000000E+03  0.7546771E-02  0.1280296E+00
         21   -1    0    0  501  502  0.00000000000E+00  0.00000000000E+00  0.12576218454E+03  0.12576218454E+03  0.00000000000E+00 0.  1.
         21   -1    0    0  502  503 -0.00000000000E+00 -0.00000000000E+00 -0.90170645875E+03  0.90170645875E+03  0.00000000000E+00 0.  1.
          6    1    1    2  501    0 -0.56625943509E+02 -0.11076559191E+02  0.43906865547E+02  0.18757931785E+03  0.17300000000E+03 0.  1.
         -6    1    1    2    0  503  0.56625943509E+02  0.11076559191E+02 -0.81985113976E+03  0.83988932545E+03  0.17300000000E+03 0.  1.
</event>
<event>
 4    1  0.6020852E+000  0.1000000E+03  0.7546771E-02  0.1280296E+00
         21   -1    0    0  501  502  0.00000000000E+00  0.00000000000E+00  0.67635641145E+03  0.67635641145E+03  0.00000000000E+00 0.  1.
         21   -1    0    0  502  503 -0.00000000000E+00 -0.00000000000E+00 -0.53159661840E+03  0.53159661840E+03  0.00000000000E+00 0.  1.
          6    1    1    2  501    0  0.66748402374E+02  0.11038793149E+03  0.63588609377E+03  0.67150649207E+03  0.17300000000E+03 0.  1.
         -6    1    1    2    0  503 -0.66748402374E+02 -0.11038793149E+03 -0.49112630072E+03  0.53644653778E+03  0.17300000000E+03 0.  1.
</event>
<event>
 4    1  0.6020852E+000  0.1000000E+03  0.7546771E-02  0.1280296E+00
         21   -1    0    0  503  502  0.00000000000E+00  0.00000000000E+00  0.24082425807E+03  0.24082425807E+03  0.00000000000E+00 0.  1.
         21   -1    0    0  501  503 -0.00000000000E+00 -0.00000000000E+00 -0.32096559589E+03  0.32096559589E+03  0.00000000000E+00 0. -1.
          6    1    1    2  501    0  0.11296316997E+03 -0.11318895697E+03 -0.18922704294E+03  0.30217261876E+03  0.17300000000E+03 0.  1.
         -6    1    1    2    0  502 -0.11296316997E+03  0.11318895697E+03  0.10908570512E+03  0.25961723520E+03  0.17300000000E+03 0. -1.
</event>
<event>
 4    1  0.6020852E+000  0.1000000E+03  0.7546771E-02  0.1280296E+00
         21   -1    0    0  503  502  0.00000000000E+00  0.00000000000E+00  0.68894568771E+02  0.68894568771E+02  0.00000000000E+00 0. -1.
         21   -1    0    0  501  503 -0.00000000000E+00 -0.00000000000E+00 -0.63524263578E+03  0.63524263578E+03  0.00000000000E+00 0. -1.
          6    1    1    2  501    0  0.79293389738E+02  0.71548719727E+02 -0.36611866121E+03  0.41878220477E+03  0.17300000000E+03 0. -1.
         -6    1    1    2    0  502 -0.79293389738E+02 -0.71548719727E+02 -0.20022940580E+03  0.28535499978E+03  0.17300000000E+03 0. -1.
</event>
<event>
 4    1  0.6020852E+000  0.1000000E+03  0.7546771E-02  0.1280296E+00
         21   -1    0    0  503  502  0.00000000000E+00  0.00000000000E+00  0.22293402586E+04  0.22293402586E+04  0.00000000000E+00 0. -1.
         21   -1    0    0  501  503 -0.00000000000E+00 -0.00000000000E+00 -0.34397198445E+02  0.34397198445E+02  0.00000000000E+00 0. -1.
          6    1    1    2  501    0 -0.20056344882E+03 -0.17328537691E+01  0.76729319960E+03  0.81172443226E+03  0.17300000000E+03 0. -1.
         -6    1    1    2    0  502  0.20056344882E+03  0.17328537691E+01  0.14276498606E+04  0.14520130248E+04  0.17300000000E+03 0. -1.
</event>
<event>
 4    1  0.6020852E+000  0.1000000E+03  0.7546771E-02  0.1280296E+00
         21   -1    0    0  503  502  0.00000000000E+00  0.00000000000E+00  0.19238899326E+03  0.19238899326E+03  0.00000000000E+00 0. -1.
         21   -1    0    0  501  503 -0.00000000000E+00 -0.00000000000E+00 -0.35518205251E+03  0.35518205251E+03  0.00000000000E+00 0. -1.
          6    1    1    2  501    0 -0.63273433450E+02  0.16327828380E+02 -0.27489984250E+03  0.33131412401E+03  0.17300000000E+03 0. -1.
         -6    1    1    2    0  502  0.63273433450E+02 -0.16327828380E+02  0.11210678325E+03  0.21625692176E+03  0.17300000000E+03 0. -1.
</event>
<event>
 4    1  0.6020852E+000  0.1000000E+03  0.7546771E-02  0.1280296E+00
         21   -1    0    0  503  502  0.00000000000E+00  0.00000000000E+00  0.17568483172E+03  0.17568483172E+03  0.00000000000E+00 0. -1.
         21   -1    0    0  501  503 -0.00000000000E+00 -0.00000000000E+00 -0.27921680313E+03  0.27921680313E+03  0.00000000000E+00 0. -1.
          6    1    1    2  501    0 -0.12521034808E+03 -0.40690906430E+02 -0.95236166188E+02  0.23734428260E+03  0.17300000000E+03 0. -1.
         -6    1    1    2    0  502  0.12521034808E+03  0.40690906430E+02 -0.82958052269E+01  0.21755735225E+03  0.17300000000E+03 0. -1.
</event>
<event>
 4    1  0.6020852E+000  0.1000000E+03  0.7546771E-02  0.1280296E+00
         21   -1    0    0  503  502  0.00000000000E+00  0.00000000000E+00  0.19574453243E+03  0.19574453243E+03  0.00000000000E+00 0. -1.
         21   -1    0    0  501  503 -0.00000000000E+00 -0.00000000000E+00 -0.33323371711E+03  0.33323371711E+03  0.00000000000E+00 0. -1.
          6    1    1    2  501    0  0.16455558859E+03 -0.90608439240E+02 -0.65271552573E+02  0.26358643093E+03  0.17300000000E+03 0. -1.
         -6    1    1    2    0  502 -0.16455558859E+03  0.90608439240E+02 -0.72217632109E+02  0.26539181861E+03  0.17300000000E+03 0. -1.
</event>
<event>
 4    1  0.6020852E+000  0.1000000E+03  0.7546771E-02  0.1280296E+00
         21   -1    0    0  503  502  0.00000000000E+00  0.00000000000E+00  0.97988603817E+02  0.97988603817E+02  0.00000000000E+00 0. -1.
         21   -1    0    0  501  503 -0.00000000000E+00 -0.00000000000E+00 -0.35298040190E+03  0.35298040190E+03  0.00000000000E+00 0. -1.
          6    1    1    2  501    0 -0.12340014673E+02  0.61945745447E+02 -0.15886706532E+03  0.24322272876E+03  0.17300000000E+03 0. -1.
         -6    1    1    2    0  502  0.12340014673E+02 -0.61945745447E+02 -0.96124732763E+02  0.20774627696E+03  0.17300000000E+03 0. -1.
</event>
<event>
 4    1  0.6020852E+000  0.1000000E+03  0.7546771E-02  0.1280296E+00
         21   -1    0    0  503  502  0.00000000000E+00  0.00000000000E+00  0.40585245851E+03  0.40585245851E+03  0.00000000000E+00 0.  1.
         21   -1    0    0  501  503 -0.00000000000E+00 -0.00000000000E+00 -0.49549496122E+03  0.49549496122E+03  0.00000000000E+00 0.  1.
          6    1    1    2  501    0  0.11096797591E+03  0.12057535772E+03 -0.42660423343E+03  0.48864351070E+03  0.17300000000E+03 0.  1.
         -6    1    1    2    0  502 -0.11096797591E+03 -0.12057535772E+03  0.33696173071E+03  0.41270390903E+03  0.17300000000E+03 0.  1.
</event>
<event>
 4    1  0.6020852E+000  0.1000000E+03  0.7546771E-02  0.1280296E+00
         21   -1    0    0  503  502  0.00000000000E+00  0.00000000000E+00  0.89475998327E+02  0.89475998327E+02  0.00000000000E+00 0.  1.
         21   -1    0    0  501  503 -0.00000000000E+00 -0.00000000000E+00 -0.84754318990E+03  0.84754318990E+03  0.00000000000E+00 0. -1.
          6    1    1    2  501    0 -0.90060206973E+02  0.15224107120E+03 -0.58472784865E+03  0.63492034274E+03  0.17300000000E+03 0. -1.
         -6    1    1    2    0  502  0.90060206973E+02 -0.15224107120E+03 -0.17333934293E+03  0.30209884549E+03  0.17300000000E+03 0.  1.
</event>
<event>
 4    1  0.6020852E+000  0.1000000E+03  0.7546771E-02  0.1280296E+00
         21   -1    0    0  503  502  0.00000000000E+00  0.00000000000E+00  0.17784472063E+04  0.17784472063E+04  0.00000000000E+00 0.  1.
         21   -1    0    0  501  503 -0.00000000000E+00 -0.00000000000E+00 -0.25258517999E+02  0.25258517999E+02  0.00000000000E+00 0. -1.
          6    1    1    2  501    0 -0.22096803055E+02 -0.76766096577E+02  0.48174725176E+03  0.51806439452E+03  0.17300000000E+03 0. -1.
         -6    1    1    2    0  502  0.22096803055E+02  0.76766096577E+02  0.12714414365E+04  0.12856413298E+04  0.17300000000E+03 0.  1.
</event>
<event>
 4    1  0.6020852E+000  0.1000000E+03  0.7546771E-02  0.1280296E+00
         21   -1    0    0  503  502  0.00000000000E+00  0.00000000000E+00  0.90023983887E+03  0.90023983887E+03  0.00000000000E+00 0.  1.
         21   -1    0    0  501  503 -0.00000000000E+00 -0.00000000000E+00 -0.12217788987E+03  0.12217788987E+03  0.00000000000E+00 0. -1.
          6    1    1    2  501    0  0.14354414705E+03 -0.11681805936E+03  0.59118706607E+02  0.26014496462E+03  0.17300000000E+03 0. -1.
         -6    1    1    2    0  502 -0.14354414705E+03  0.11681805936E+03  0.71894324239E+03  0.76227276412E+03  0.17300000000E+03 0.  1.
</event>
<event>
 4    1  0.6020852E+000  0.1000000E+03  0.7546771E-02  0.1280296E+00
         21   -1    0    0  503  502  0.00000000000E+00  0.00000000000E+00  0.11695821376E+04  0.11695821376E+04  0.00000000000E+00 0.  1.
         21   -1    0    0  501  503 -0.00000000000E+00 -0.00000000000E+00 -0.65793010064E+02  0.65793010064E+02  0.00000000000E+00 0. -1.
          6    1    1    2  501    0 -0.16359082740E+03  0.80603973711E+02  0.29067227078E+03  0.38428938105E+03  0.17300000000E+03 0. -1.
         -6    1    1    2    0  502  0.16359082740E+03 -0.80603973711E+02  0.81311685673E+03  0.85108576659E+03  0.17300000000E+03 0.  1.
</event>
<event>
 4    1  0.6020852E+000  0.1000000E+03  0.7546771E-02  0.1280296E+00
         21   -1    0    0  503  502  0.00000000000E+00  0.00000000000E+00  0.14420675774E+03  0.14420675774E+03  0.00000000000E+00 0.  1.
         21   -1    0    0  501  503 -0.00000000000E+00 -0.00000000000E+00 -0.30344931086E+03  0.30344931086E+03  0.00000000000E+00 0. -1.
          6    1    1    2  501    0 -0.23586658739E+02 -0.10177338697E+03 -0.13740344536E+03  0.24438260896E+03  0.17300000000E+03 0. -1.
         -6    1    1    2    0  502  0.23586658739E+02  0.10177338697E+03 -0.21839107766E+02  0.20327345964E+03  0.17300000000E+03 0.  1.
</event>
<event>
 4    1  0.6020852E+000  0.1000000E+03  0.7546771E-02  0.1280296E+00
         21   -1    0    0  503  502  0.00000000000E+00  0.00000000000E+00  0.50333991277E+03  0.50333991277E+03  0.00000000000E+00 0.  1.
         21   -1    0    0  501  503 -0.00000000000E+00 -0.00000000000E+00 -0.11829303839E+03  0.11829303839E+03  0.00000000000E+00 0. -1.
          6    1    1    2  501    0 -0.15281506455E+03  0.61553051789E+02  0.12920007013E+03  0.27159322572E+03  0.17300000000E+03 0. -1.
         -6    1    1    2    0  502  0.15281506455E+03 -0.61553051789E+02  0.25584680425E+03  0.35003972543E+03  0.17300000000E+03 0.  1.
</event>
<event>
 4    1  0.6020852E+000  0.1000000E+03  0.7546771E-02  0.1280296E+00
         21   -1    0    0  501  502  0.00000000000E+00  0.00000000000E+00  0.88072835227E+02  0.88072835227E+02  0.00000000000E+00 0. -1.
         21   -1    0    0  502  503 -0.00000000000E+00 -0.00000000000E+00 -0.69507991942E+03  0.69507991942E+03  0.00000000000E+00 0. -1.
          6    1    1    2  501    0  0.93138718929E+02 -0.78757174826E+02 -0.10075974563E+03  0.23443344448E+03  0.17300000000E+03 0. -1.
         -6    1    1    2    0  503 -0.93138718929E+02  0.78757174826E+02 -0.50624733856E+03  0.54871931017E+03  0.17300000000E+03 0. -1.
</event>
<event>
 4    1  0.6020852E+000  0.1000000E+03  0.7546771E-02  0.1280296E+00
         21   -1    0    0  503  502  0.00000000000E+00  0.00000000000E+00  0.10414228584E+03  0.10414228584E+03  0.00000000000E+00 0.  1.
         21   -1    0    0  501  503 -0.00000000000E+00 -0.00000000000E+00 -0.11269087644E+04  0.11269087644E+04  0.00000000000E+00 0. -1.
          6    1    1    2  501    0 -0.38156914196E+02  0.13075100216E+03 -0.98293421992E+03  0.10072936292E+04  0.17300000000E+03 0. -1.
         -6    1    1    2    0  502  0.38156914196E+02 -0.13075100216E+03 -0.39832258650E+02  0.22375742110E+03  0.17300000000E+03 0.  1.
</event>
<event>
 4    1  0.6020852E+000  0.1000000E+03  0.7546771E-02  0.1280296E+00
         21   -1    0    0  503  502  0.00000000000E+00  0.00000000000E+00  0.33313351075E+03  0.33313351075E+03  0.00000000000E+00 0.  1.
         21   -1    0    0  501  503 -0.00000000000E+00 -0.00000000000E+00 -0.15295085897E+03  0.15295085897E+03  0.00000000000E+00 0. -1.
          6    1    1    2  501    0  0.93982702374E+02 -0.76143022872E+02  0.39983903506E+01  0.21112909653E+03  0.17300000000E+03 0. -1.
         -6    1    1    2    0  502 -0.93982702374E+02  0.76143022872E+02  0.17618426142E+03  0.27495527318E+03  0.17300000000E+03 0.  1.
</event>
<event>
 4    1  0.6020852E+000  0.1000000E+03  0.7546771E-02  0.1280296E+00
         21   -1    0    0  503  502  0.00000000000E+00  0.00000000000E+00  0.36283005752E+02  0.36283005752E+02  0.00000000000E+00 0.  1.
         21   -1    0    0  501  503 -0.00000000000E+00 -0.00000000000E+00 -0.10377433094E+04  0.10377433094E+04  0.00000000000E+00 0. -1.
          6    1    1    2  501    0 -0.75167665702E+02  0.44120451966E+02 -0.53187585563E+03  0.56605451862E+03  0.17300000000E+03 0. -1.
         -6    1    1    2    0  502  0.75167665702E+02 -0.44120451966E+02 -0.46958444800E+03  0.50797179651E+03  0.17300000000E+03 0.  1.
</event>
<event>
 4    1  0.6020852E+000  0.1000000E+03  0.7546771E-02  0.1280296E+00
         21   -1    0    0  501  502  0.00000000000E+00  0.00000000000E+00  0.28814311529E+03  0.28814311529E+03  0.00000000000E+00 0. -1.
         21   -1    0    0  502  503 -0.00000000000E+00 -0.00000000000E+00 -0.10668548603E+03  0.10668548603E+03  0.00000000000E+00 0. -1.
          6    1    1    2  501    0 -0.56764558356E+01 -0.15110804898E+02  0.11716195331E+03  0.20956259656E+03  0.17300000000E+03 0. -1.
         -6    1    1    2    0  503  0.56764558356E+01  0.15110804898E+02  0.64295675951E+02  0.18526600476E+03  0.17300000000E+03 0. -1.
</event>
<event>
 4    1  0.6020852E+000  0.1000000E+03  0.7546771E-02  0.1280296E+00
         21   -1    0    0  501  502  0.00000000000E+00  0.00000000000E+00  0.16188627756E+03  0.16188627756E+03  0.00000000000E+00 0. -1.
         21   -1    0    0  502  503 -0.00000000000E+00 -0.00000000000E+00 -0.88334128928E+03  0.88334128928E+03  0.00000000000E+00 0. -1.
          6    1    1    2  501    0 -0.17511441526E+02 -0.16237908153E+02  0.10281627331E+03  0.20265859543E+03  0.17300000000E+03 0. -1.
         -6    1    1    2    0  503  0.17511441526E+02  0.16237908153E+02 -0.82427128503E+03  0.84256897140E+03  0.17300000000E+03 0. -1.
</event>
<event>
 4    1  0.6020852E+000  0.1000000E+03  0.7546771E-02  0.1280296E+00
         21   -1    0    0  501  502  0.00000000000E+00  0.00000000000E+00  0.12739647291E+03  0.12739647291E+03  0.00000000000E+00 0.  1.
         21   -1    0    0  502  503 -0.00000000000E+00 -0.00000000000E+00 -0.41476999415E+03  0.41476999415E+03  0.00000000000E+00 0.  1.
          6    1    1    2  501    0  0.11633532576E+03 -0.81480902593E+02 -0.81977266514E+02  0.23837432272E+03  0.17300000000E+03 0.  1.
         -6    1    1    2    0  503 -0.11633532576E+03  0.81480902593E+02 -0.20539625473E+03  0.30379214434E+03  0.17300000000E+03 0.  1.
</event>
<event>
 4    1  0.6020852E+000  0.1000000E+03  0.7546771E-02  0.1280296E+00
         21   -1    0    0  501  502  0.00000000000E+00  0.00000000000E+00  0.65128129738E+03  0.65128129738E+03  0.00000000000E+00 0.  1.
         21   -1    0    0  502  503 -0.00000000000E+00 -0.00000000000E+00 -0.21505945447E+03  0.21505945447E+03  0.00000000000E+00 0.  1.
          6    1    1    2  501    0 -0.64717599221E+01  0.30510062259E+03  0.36905222548E+03  0.50917268064E+03  0.17300000000E+03 0.  1.
         -6    1    1    2    0  503  0.64717599221E+01 -0.30510062259E+03  0.67169617443E+02  0.35716807121E+03  0.17300000000E+03 0.  1.
</event>
<event>
 4    1  0.6020852E+000  0.1000000E+03  0.7546771E-02  0.1280296E+00
         21   -1    0    0  501  502  0.00000000000E+00  0.00000000000E+00  0.16369931281E+03  0.16369931281E+03  0.00000000000E+00 0.  1.
         21   -1    0    0  502  503 -0.00000000000E+00 -0.00000000000E+00 -0.20206144606E+03  0.20206144606E+03  0.00000000000E+00 0.  1.
          6    1    1    2  501    0 -0.39266383033E+02 -0.46959507668E+01  0.20844453923E+02  0.17868237756E+03  0.17300000000E+03 0.  1.
         -6    1    1    2    0  503  0.39266383033E+02  0.46959507668E+01 -0.59206587169E+02  0.18707838131E+03  0.17300000000E+03 0.  1.
</event>
<event>
 4    1  0.6020852E+000  0.1000000E+03  0.7546771E-02  0.1280296E+00
         21   -1    0    0  501  502  0.00000000000E+00  0.00000000000E+00  0.36537681087E+03  0.36537681087E+03  0.00000000000E+00 0.  1.
         21   -1    0    0  502  503 -0.00000000000E+00 -0.00000000000E+00 -0.16108328984E+03  0.16108328984E+03  0.00000000000E+00 0.  1.
          6    1    1    2  501    0  0.31718883340E+02  0.19056371815E+02  0.28226700261E+03  0.33312594260E+03  0.17300000000E+03 0.  1.
         -6    1    1    2    0  503 -0.31718883340E+02 -0.19056371815E+02 -0.77973481580E+02  0.19333415812E+03  0.17300000000E+03 0.  1.
</event>
<event>
 4    1  0.6020852E+000  0.1000000E+03  0.7546771E-02  0.1280296E+00
         21   -1    0    0  503  502  0.00000000000E+00  0.00000000000E+00  0.12706360282E+04  0.12706360282E+04  0.00000000000E+00 0. -1.
         21   -1    0    0  501  503 -0.00000000000E+00 -0.00000000000E+00 -0.53144507897E+02  0.53144507897E+02  0.00000000000E+00 0. -1.
          6    1    1    2  501    0 -0.14007795854E+03  0.27116359848E+02  0.27429676169E+03  0.35429485590E+03  0.17300000000E+03 0. -1.
         -6    1    1    2    0  502  0.14007795854E+03 -0.27116359848E+02  0.94319475864E+03  0.96948568023E+03  0.17300000000E+03 0. -1.
</event>
<event>
 4    1  0.6020852E+000  0.1000000E+03  0.7546771E-02  0.1280296E+00
         21   -1    0    0  503  502  0.00000000000E+00  0.00000000000E+00  0.13026106513E+03  0.13026106513E+03  0.00000000000E+00 0. -1.
         21   -1    0    0  501  503 -0.00000000000E+00 -0.00000000000E+00 -0.28607072625E+03  0.28607072625E+03  0.00000000000E+00 0. -1.
          6    1    1    2  501    0 -0.22905733964E+02  0.76776794539E+02 -0.11053366300E+03  0.22037703938E+03  0.17300000000E+03 0. -1.
         -6    1    1    2    0  502  0.22905733964E+02 -0.76776794539E+02 -0.45275998112E+02  0.19595475200E+03  0.17300000000E+03 0. -1.
</event>
<event>
 4    1  0.6020852E+000  0.1000000E+03  0.7546771E-02  0.1280296E+00
         21   -1    0    0  501  502  0.00000000000E+00  0.00000000000E+00  0.21935857614E+03  0.21935857614E+03  0.00000000000E+00 0. -1.
         21   -1    0    0  502  503 -0.00000000000E+00 -0.00000000000E+00 -0.22589375811E+03  0.22589375811E+03  0.00000000000E+00 0. -1.
          6    1    1    2  501    0 -0.11717992099E+03 -0.76710468010E+02 -0.59330895406E+01  0.22266528992E+03  0.17300000000E+03 0. -1.
         -6    1    1    2    0  503  0.11717992099E+03  0.76710468010E+02 -0.60209242156E+00  0.22258704432E+03  0.17300000000E+03 0. -1.
</event>
<event>
 4    1  0.6020852E+000  0.1000000E+03  0.7546771E-02  0.1280296E+00
         21   -1    0    0  501  502  0.00000000000E+00  0.00000000000E+00  0.97887818846E+02  0.97887818846E+02  0.00000000000E+00 0.  1.
         21   -1    0    0  502  503 -0.00000000000E+00 -0.00000000000E+00 -0.35122948541E+03  0.35122948541E+03  0.00000000000E+00 0. -1.
          6    1    1    2  501    0 -0.10171378672E+02 -0.57566749874E+02 -0.87714566163E+02  0.20258389065E+03  0.17300000000E+03 0.  1.
         -6    1    1    2    0  503  0.10171378672E+02  0.57566749874E+02 -0.16562710040E+03  0.24653341360E+03  0.17300000000E+03 0. -1.
</event>
<event>
 4    1  0.6020852E+000  0.1000000E+03  0.7546771E-02  0.1280296E+00
         21   -1    0    0  501  502  0.00000000000E+00  0.00000000000E+00  0.80194498411E+02  0.80194498411E+02  0.00000000000E+00 0.  1.
         21   -1    0    0  502  503 -0.00000000000E+00 -0.00000000000E+00 -0.11155176660E+04  0.11155176660E+04  0.00000000000E+00 0. -1.
          6    1    1    2  501    0 -0.56810557582E+02 -0.20440299491E+03 -0.27678769570E+03  0.38929224532E+03  0.17300000000E+03 0.  1.
         -6    1    1    2    0  503  0.56810557582E+02  0.20440299491E+03 -0.75853547192E+03  0.80641991912E+03  0.17300000000E+03 0. -1.
</event>
<event>
 4    1  0.6020852E+000  0.1000000E+03  0.7546771E-02  0.1280296E+00
         21   -1    0    0  501  502  0.00000000000E+00  0.00000000000E+00  0.48277828889E+02  0.48277828889E+02  0.00000000000E+00 0.  1.
         21   -1    0    0  502  503 -0.00000000000E+00 -0.00000000000E+00 -0.84467520214E+03  0.84467520214E+03  0.00000000000E+00 0. -1.
          6    1    1    2  501    0 -0.46841525885E+02  0.12752820666E+02 -0.19443880750E+03  0.26474933965E+03  0.17300000000E+03 0.  1.
         -6    1    1    2    0  503  0.46841525885E+02 -0.12752820666E+02 -0.60195856575E+03  0.62820369138E+03  0.17300000000E+03 0. -1.
</event>
<event>
 4    1  0.6020852E+000  0.1000000E+03  0.7546771E-02  0.1280296E+00
         21   -1    0    0  501  502  0.00000000000E+00  0.00000000000E+00  0.56459443688E+03  0.56459443688E+03  0.00000000000E+00 0.  1.
         21   -1    0    0  502  503 -0.00000000000E+00 -0.00000000000E+00 -0.90919142621E+02  0.90919142621E+02  0.00000000000E+00 0. -1.
          6    1    1    2  501    0 -0.80418988508E+02 -0.10590894501E+03  0.32506421891E+03  0.39150946957E+03  0.17300000000E+03 0. -1.
         -6    1    1    2    0  503  0.80418988508E+02  0.10590894501E+03  0.14861107535E+03  0.26400410993E+03  0.17300000000E+03 0.  1.
</event>
<event>
 4    1  0.6020852E+000  0.1000000E+03  0.7546771E-02  0.1280296E+00
         21   -1    0    0  501  502  0.00000000000E+00  0.00000000000E+00  0.77168986457E+03  0.77168986457E+03  0.00000000000E+00 0.  1.
         21   -1    0    0  502  503 -0.00000000000E+00 -0.00000000000E+00 -0.21196592468E+03  0.21196592468E+03  0.00000000000E+00 0. -1.
          6    1    1    2  501    0 -0.19587387164E+03 -0.18077892133E+03  0.58411143071E+03  0.66495319795E+03  0.17300000000E+03 0. -1.
         -6    1    1    2    0  503  0.19587387164E+03  0.18077892133E+03 -0.24387490813E+02  0.31870259129E+03  0.17300000000E+03 0.  1.
</event>
<event>
 4    1  0.6020852E+000  0.1000000E+03  0.7546771E-02  0.1280296E+00
         21   -1    0    0  501  502  0.00000000000E+00  0.00000000000E+00  0.41126624419E+03  0.41126624419E+03  0.00000000000E+00 0.  1.
         21   -1    0    0  502  503 -0.00000000000E+00 -0.00000000000E+00 -0.96031640978E+02  0.96031640978E+02  0.00000000000E+00 0. -1.
          6    1    1    2  501    0 -0.29120099722E+02  0.55637664221E+02  0.25331718480E+03  0.31311679291E+03  0.17300000000E+03 0. -1.
         -6    1    1    2    0  503  0.29120099722E+02 -0.55637664221E+02  0.61917418414E+02  0.19418109226E+03  0.17300000000E+03 0.  1.
</event>
<event>
 4    1  0.6020852E+000  0.1000000E+03  0.7546771E-02  0.1280296E+00
         21   -1    0    0  503  502  0.00000000000E+00  0.00000000000E+00  0.34529158791E+03  0.34529158791E+03  0.00000000000E+00 0. -1.
         21   -1    0    0  501  503 -0.00000000000E+00 -0.00000000000E+00 -0.92209197486E+02  0.92209197486E+02  0.00000000000E+00 0. -1.
          6    1    1    2  501    0  0.94267860522E+01  0.40702586259E+02  0.11081782664E+03  0.20965484856E+03  0.17300000000E+03 0. -1.
         -6    1    1    2    0  502 -0.94267860522E+01 -0.40702586259E+02  0.14226456379E+03  0.22784593684E+03  0.17300000000E+03 0. -1.
</event>
<event>
 4    1  0.6020852E+000  0.1000000E+03  0.7546771E-02  0.1280296E+00
         21   -1    0    0  503  502  0.00000000000E+00  0.00000000000E+00  0.54213590457E+03  0.54213590457E+03  0.00000000000E+00 0. -1.
         21   -1    0    0  501  503 -0.00000000000E+00 -0.00000000000E+00 -0.83539973776E+02  0.83539973776E+02  0.00000000000E+00 0. -1.
          6    1    1    2  501    0 -0.58912544014E+02  0.37526819121E+02  0.78796171660E+02  0.20252601478E+03  0.17300000000E+03 0. -1.
         -6    1    1    2    0  502  0.58912544014E+02 -0.37526819121E+02  0.37979975914E+03  0.42314986357E+03  0.17300000000E+03 0. -1.
</event>
<event>
 4    1  0.6020852E+000  0.1000000E+03  0.7546771E-02  0.1280296E+00
         21   -1    0    0  503  502  0.00000000000E+00  0.00000000000E+00  0.94088353476E+03  0.94088353476E+03  0.00000000000E+00 0.  1.
         21   -1    0    0  501  503 -0.00000000000E+00 -0.00000000000E+00 -0.15441638471E+03  0.15441638471E+03  0.00000000000E+00 0. -1.
          6    1    1    2  501    0  0.98985052938E+02 -0.17363794273E+03 -0.13189261555E+01  0.26434620373E+03  0.17300000000E+03 0.  1.
         -6    1    1    2    0  502 -0.98985052938E+02  0.17363794273E+03  0.78778607620E+03  0.83095371575E+03  0.17300000000E+03 0. -1.
</event>
<event>
 4    1  0.6020852E+000  0.1000000E+03  0.7546771E-02  0.1280296E+00
         21   -1    0    0  503  502  0.00000000000E+00  0.00000000000E+00  0.87014588220E+02  0.87014588220E+02  0.00000000000E+00 0.  1.
         21   -1    0    0  501  503 -0.00000000000E+00 -0.00000000000E+00 -0.16148446677E+04  0.16148446677E+04  0.00000000000E+00 0. -1.
          6    1    1    2  501    0  0.13785218789E+03 -0.27758238872E+03 -0.10375537456E+04  0.10965865142E+04  0.17300000000E+03 0.  1.
         -6    1    1    2    0  502 -0.13785218789E+03  0.27758238872E+03 -0.49027633385E+03  0.60527274164E+03  0.17300000000E+03 0. -1.
</event>
<event>
 4    1  0.6020852E+000  0.1000000E+03  0.7546771E-02  0.1280296E+00
         21   -1    0    0  503  502  0.00000000000E+00  0.00000000000E+00  0.56626729027E+03  0.56626729027E+03  0.00000000000E+00 0.  1.
         21   -1    0    0  501  503 -0.00000000000E+00 -0.00000000000E+00 -0.37127480309E+03  0.37127480309E+03  0.00000000000E+00 0. -1.
          6    1    1    2  501    0 -0.29726488459E+03 -0.72924627905E+02 -0.20340906717E+03  0.40618796335E+03  0.17300000000E+03 0.  1.
         -6    1    1    2    0  502  0.29726488459E+03  0.72924627905E+02  0.39840155436E+03  0.53135413001E+03  0.17300000000E+03 0. -1.
</event>
<event>
 4    1  0.6020852E+000  0.1000000E+03  0.7546771E-02  0.1280296E+00
         21   -1    0    0  501  502  0.00000000000E+00  0.00000000000E+00  0.47629908312E+03  0.47629908312E+03  0.00000000000E+00 0.  1.
         21   -1    0    0  502  503 -0.00000000000E+00 -0.00000000000E+00 -0.87576964914E+02  0.87576964914E+02  0.00000000000E+00 0.  1.
          6    1    1    2  501    0  0.10187689165E+03 -0.30009550004E+02  0.22536283307E+03  0.30330987566E+03  0.17300000000E+03 0.  1.
         -6    1    1    2    0  503 -0.10187689165E+03  0.30009550004E+02  0.16335928513E+03  0.26056617237E+03  0.17300000000E+03 0.  1.
</event>
<event>
 4    1  0.6020852E+000  0.1000000E+03  0.7546771E-02  0.1280296E+00
         21   -1    0    0  501  502  0.00000000000E+00  0.00000000000E+00  0.11874034810E+04  0.11874034810E+04  0.00000000000E+00 0.  1.
         21   -1    0    0  502  503 -0.00000000000E+00 -0.00000000000E+00 -0.38472127260E+02  0.38472127260E+02  0.00000000000E+00 0. -1.
          6    1    1    2  501    0 -0.32158037210E+01  0.89653429734E+02  0.82619076170E+03  0.84886291802E+03  0.17300000000E+03 0. -1.
         -6    1    1    2    0  503  0.32158037210E+01 -0.89653429734E+02  0.32274059203E+03  0.37701269023E+03  0.17300000000E+03 0. -1.
</event>
<event>
 4    1  0.6020852E+000  0.1000000E+03  0.7546771E-02  0.1280296E+00
         21   -1    0    0  501  502  0.00000000000E+00  0.00000000000E+00  0.36191788855E+03  0.36191788855E+03  0.00000000000E+00 0. -1.
         21   -1    0    0  502  503 -0.00000000000E+00 -0.00000000000E+00 -0.16325340161E+03  0.16325340161E+03  0.00000000000E+00 0. -1.
          6    1    1    2  501    0 -0.12156987438E+03 -0.95353204416E+02  0.17785769168E+03  0.29229065404E+03  0.17300000000E+03 0. -1.
         -6    1    1    2    0  503  0.12156987438E+03  0.95353204416E+02  0.20806795263E+02  0.23288063612E+03  0.17300000000E+03 0. -1.
</event>
<event>
 4    1  0.6020852E+000  0.1000000E+03  0.7546771E-02  0.1280296E+00
         21   -1    0    0  501  502  0.00000000000E+00  0.00000000000E+00  0.33479485845E+03  0.33479485845E+03  0.00000000000E+00 0. -1.
         21   -1    0    0  502  503 -0.00000000000E+00 -0.00000000000E+00 -0.17443822076E+03  0.17443822076E+03  0.00000000000E+00 0. -1.
          6    1    1    2  501    0 -0.15442436530E+02  0.99813130308E+02  0.22259348608E+03  0.29946283554E+03  0.17300000000E+03 0. -1.
         -6    1    1    2    0  503  0.15442436530E+02 -0.99813130308E+02 -0.62236848388E+02  0.20977024366E+03  0.17300000000E+03 0. -1.
</event>
<event>
 4    1  0.6020852E+000  0.1000000E+03  0.7546771E-02  0.1280296E+00
         21   -1    0    0  501  502  0.00000000000E+00  0.00000000000E+00  0.10957983785E+04  0.10957983785E+04  0.00000000000E+00 0. -1.
         21   -1    0    0  502  503 -0.00000000000E+00 -0.00000000000E+00 -0.37524274731E+02  0.37524274731E+02  0.00000000000E+00 0. -1.
          6    1    1    2  501    0 -0.52317038068E+02 -0.85507252450E+01  0.78494867233E+03  0.80553311885E+03  0.17300000000E+03 0. -1.
         -6    1    1    2    0  503  0.52317038068E+02  0.85507252450E+01  0.27332543141E+03  0.32778953435E+03  0.17300000000E+03 0. -1.
</event>
<event>
 4    1  0.6020852E+000  0.1000000E+03  0.7546771E-02  0.1280296E+00
         21   -1    0    0  503  502  0.00000000000E+00  0.00000000000E+00  0.10876778785E+04  0.10876778785E+04  0.00000000000E+00 0.  1.
         21   -1    0    0  501  503 -0.00000000000E+00 -0.00000000000E+00 -0.69839851915E+02  0.69839851915E+02  0.00000000000E+00 0. -1.
          6    1    1    2  501    0 -0.57266030885E+02 -0.64408700945E+02  0.96322635892E+02  0.21595121957E+03  0.17300000000E+03 0. -1.
         -6    1    1    2    0  502  0.57266030885E+02  0.64408700945E+02  0.92151539065E+03  0.94156651079E+03  0.17300000000E+03 0.  1.
</event>
<event>
 4    1  0.6020852E+000  0.1000000E+03  0.7546771E-02  0.1280296E+00
         21   -1    0    0  503  502  0.00000000000E+00  0.00000000000E+00  0.20057711828E+03  0.20057711828E+03  0.00000000000E+00 0.  1.
         21   -1    0    0  501  503 -0.00000000000E+00 -0.00000000000E+00 -0.41093940877E+03  0.41093940877E+03  0.00000000000E+00 0. -1.
          6    1    1    2  501    0  0.88208987232E+02 -0.10936225330E+03 -0.29792838825E+03  0.37206350587E+03  0.17300000000E+03 0. -1.
         -6    1    1    2    0  502 -0.88208987232E+02  0.10936225330E+03  0.87566097760E+02  0.23945302118E+03  0.17300000000E+03 0.  1.
</event>
<event>
 4    1  0.6020852E+000  0.1000000E+03  0.7546771E-02  0.1280296E+00
         21   -1    0    0  501  502  0.00000000000E+00  0.00000000000E+00  0.22351371795E+04  0.22351371795E+04  0.00000000000E+00 0.  1.
         21   -1    0    0  502  503 -0.00000000000E+00 -0.00000000000E+00 -0.20822276092E+02  0.20822276092E+02  0.00000000000E+00 0.  1.
          6    1    1    2  501    0 -0.10783855440E+02  0.49159878560E+01  0.17781960863E+04  0.17866311259E+04  0.17300000000E+03 0. -1.
         -6    1    1    2    0  503  0.10783855440E+02 -0.49159878560E+01  0.43611881710E+03  0.46932832975E+03  0.17300000000E+03 0. -1.
</event>
<event>
 4    1  0.6020852E+000  0.1000000E+03  0.7546771E-02  0.1280296E+00
         21   -1    0    0  503  502  0.00000000000E+00  0.00000000000E+00  0.10274418178E+03  0.10274418178E+03  0.00000000000E+00 0.  1.
         21   -1    0    0  501  503 -0.00000000000E+00 -0.00000000000E+00 -0.63170653555E+03  0.63170653555E+03  0.00000000000E+00 0. -1.
          6    1    1    2  501    0 -0.11204018326E+03  0.77946641908E+02 -0.44877407906E+03  0.49995585374E+03  0.17300000000E+03 0.  1.
         -6    1    1    2    0  502  0.11204018326E+03 -0.77946641908E+02 -0.80188274708E+02  0.23449486359E+03  0.17300000000E+03 0.  1.
</event>
<event>
 4    1  0.6020852E+000  0.1000000E+03  0.7546771E-02  0.1280296E+00
         21   -1    0    0  503  502  0.00000000000E+00  0.00000000000E+00  0.49944569104E+03  0.49944569104E+03  0.00000000000E+00 0.  1.
         21   -1    0    0  501  503 -0.00000000000E+00 -0.00000000000E+00 -0.10647504934E+03  0.10647504934E+03  0.00000000000E+00 0. -1.
          6    1    1    2  501    0 -0.33151058524E+02  0.14744727398E+03  0.22308098203E+03  0.32020901897E+03  0.17300000000E+03 0.  1.
         -6    1    1    2    0  502  0.33151058524E+02 -0.14744727398E+03  0.16988965968E+03  0.28571172141E+03  0.17300000000E+03 0.  1.
</event>
<event>
 4    1  0.6020852E+000  0.1000000E+03  0.7546771E-02  0.1280296E+00
         21   -1    0    0  503  502  0.00000000000E+00  0.00000000000E+00  0.17773988824E+03  0.17773988824E+03  0.00000000000E+00 0.  1.
         21   -1    0    0  501  503 -0.00000000000E+00 -0.00000000000E+00 -0.11142592099E+04  0.11142592099E+04  0.00000000000E+00 0. -1.
          6    1    1    2  501    0  0.74483263088E+02 -0.18817488141E+03 -0.98589619510E+03  0.10212139100E+04  0.17300000000E+03 0.  1.
         -6    1    1    2    0  502 -0.74483263088E+02  0.18817488141E+03  0.49376873457E+02  0.27078518812E+03  0.17300000000E+03 0.  1.
</event>
<event>
 4    1  0.6020852E+000  0.1000000E+03  0.7546771E-02  0.1280296E+00
         21   -1    0    0  503  502  0.00000000000E+00  0.00000000000E+00  0.44023351081E+03  0.44023351081E+03  0.00000000000E+00 0.  1.
         21   -1    0    0  501  503 -0.00000000000E+00 -0.00000000000E+00 -0.15084801214E+03  0.15084801214E+03  0.00000000000E+00 0. -1.
          6    1    1    2  501    0  0.20924658078E+02  0.28183378788E+02  0.36000482637E+03  0.40095463479E+03  0.17300000000E+03 0.  1.
         -6    1    1    2    0  502 -0.20924658078E+02 -0.28183378788E+02 -0.70619327694E+02  0.19012688816E+03  0.17300000000E+03 0.  1.
</event>
<event>
 4    1  0.6020852E+000  0.1000000E+03  0.7546771E-02  0.1280296E+00
         21   -1    0    0  501  502  0.00000000000E+00  0.00000000000E+00  0.46675172210E+03  0.46675172210E+03  0.00000000000E+00 0.  1.
         21   -1    0    0  502  503 -0.00000000000E+00 -0.00000000000E+00 -0.76618299878E+02  0.76618299878E+02  0.00000000000E+00 0. -1.
          6    1    1    2  501    0  0.41269376769E+01 -0.61637239524E+02  0.25958162899E+03  0.31800597953E+03  0.17300000000E+03 0.  1.
         -6    1    1    2    0  503 -0.41269376769E+01  0.61637239524E+02  0.13055179324E+03  0.22536404245E+03  0.17300000000E+03 0. -1.
</event>
<event>
 4    1  0.6020852E+000  0.1000000E+03  0.7546771E-02  0.1280296E+00
         21   -1    0    0  501  502  0.00000000000E+00  0.00000000000E+00  0.36468636825E+03  0.36468636825E+03  0.00000000000E+00 0.  1.
         21   -1    0    0  502  503 -0.00000000000E+00 -0.00000000000E+00 -0.47368392832E+03  0.47368392832E+03  0.00000000000E+00 0. -1.
          6    1    1    2  501    0 -0.80912848987E+02 -0.30173160148E+03  0.15999097836E+03  0.39129906928E+03  0.17300000000E+03 0.  1.
         -6    1    1    2    0  503  0.80912848987E+02  0.30173160148E+03 -0.26898853843E+03  0.44707122729E+03  0.17300000000E+03 0. -1.
</event>
<event>
 4    1  0.6020852E+000  0.1000000E+03  0.7546771E-02  0.1280296E+00
         21   -1    0    0  503  502  0.00000000000E+00  0.00000000000E+00  0.14162190938E+04  0.14162190938E+04  0.00000000000E+00 0. -1.
         21   -1    0    0  501  503 -0.00000000000E+00 -0.00000000000E+00 -0.45648254456E+02  0.45648254456E+02  0.00000000000E+00 0.  1.
          6    1    1    2  501    0 -0.28754171980E+02 -0.54657890542E+02  0.17991185644E+03  0.25712169005E+03  0.17300000000E+03 0.  1.
         -6    1    1    2    0  502  0.28754171980E+02  0.54657890542E+02  0.11906589829E+04  0.12047456582E+04  0.17300000000E+03 0. -1.
</event>
<event>
 4    1  0.6020852E+000  0.1000000E+03  0.7546771E-02  0.1280296E+00
         21   -1    0    0  501  502  0.00000000000E+00  0.00000000000E+00  0.33706375121E+03  0.33706375121E+03  0.00000000000E+00 0.  1.
         21   -1    0    0  502  503 -0.00000000000E+00 -0.00000000000E+00 -0.93497488394E+02  0.93497488394E+02  0.00000000000E+00 0.  1.
          6    1    1    2  501    0 -0.17572696879E+02  0.31167351546E+01  0.16495038921E+03  0.23970011392E+03  0.17300000000E+03 0.  1.
         -6    1    1    2    0  503  0.17572696879E+02 -0.31167351546E+01  0.78615873604E+02  0.19086112568E+03  0.17300000000E+03 0.  1.
</event>
<event>
 4    1  0.6020852E+000  0.1000000E+03  0.7546771E-02  0.1280296E+00
         21   -1    0    0  501  502  0.00000000000E+00  0.00000000000E+00  0.86669726034E+03  0.86669726034E+03  0.00000000000E+00 0.  1.
         21   -1    0    0  502  503 -0.00000000000E+00 -0.00000000000E+00 -0.13703787505E+03  0.13703787505E+03  0.00000000000E+00 0.  1.
          6    1    1    2  501    0  0.15563790325E+03 -0.61016843311E+02  0.72418695296E+03  0.76310022601E+03  0.17300000000E+03 0.  1.
         -6    1    1    2    0  503 -0.15563790325E+03  0.61016843311E+02  0.54724323208E+01  0.24063490938E+03  0.17300000000E+03 0.  1.
</event>
<event>
 4    1  0.6020852E+000  0.1000000E+03  0.7546771E-02  0.1280296E+00
         21   -1    0    0  503  502  0.00000000000E+00  0.00000000000E+00  0.36739052290E+03  0.36739052290E+03  0.00000000000E+00 0.  1.
         21   -1    0    0  501  503 -0.00000000000E+00 -0.00000000000E+00 -0.31520535212E+03  0.31520535212E+03  0.00000000000E+00 0. -1.
          6    1    1    2  501    0 -0.68450114517E+02  0.27804779973E+03 -0.36367513783E+02  0.33652279740E+03  0.17300000000E+03 0. -1.
         -6    1    1    2    0  502  0.68450114517E+02 -0.27804779973E+03  0.88552684558E+02  0.34607307762E+03  0.17300000000E+03 0.  1.
</event>
<event>
 4    1  0.6020852E+000  0.1000000E+03  0.7546771E-02  0.1280296E+00
         21   -1    0    0  503  502  0.00000000000E+00  0.00000000000E+00  0.31269367371E+03  0.31269367371E+03  0.00000000000E+00 0.  1.
         21   -1    0    0  501  503 -0.00000000000E+00 -0.00000000000E+00 -0.23336047173E+03  0.23336047173E+03  0.00000000000E+00 0. -1.
          6    1    1    2  501    0  0.20064148536E+02  0.13085596542E+03 -0.12178206848E+03  0.24957108395E+03  0.17300000000E+03 0. -1.
         -6    1    1    2    0  502 -0.20064148536E+02 -0.13085596542E+03  0.20111527046E+03  0.29648306149E+03  0.17300000000E+03 0.  1.
</event>
<event>
 4    1  0.6020852E+000  0.1000000E+03  0.7546771E-02  0.1280296E+00
         21   -1    0    0  501  502  0.00000000000E+00  0.00000000000E+00  0.21666671893E+04  0.21666671893E+04  0.00000000000E+00 0.  1.
         21   -1    0    0  502  503 -0.00000000000E+00 -0.00000000000E+00 -0.21964217041E+02  0.21964217041E+02  0.00000000000E+00 0. -1.
          6    1    1    2  501    0 -0.92751009952E+02  0.18327038187E+02  0.15408246427E+04  0.15533860466E+04  0.17300000000E+03 0. -1.
         -6    1    1    2    0  503  0.92751009952E+02 -0.18327038187E+02  0.60387832951E+03  0.63524535970E+03  0.17300000000E+03 0.  1.
</event>
<event>
 4    1  0.6020852E+000  0.1000000E+03  0.7546771E-02  0.1280296E+00
         21   -1    0    0  501  502  0.00000000000E+00  0.00000000000E+00  0.69505120218E+03  0.69505120218E+03  0.00000000000E+00 0.  1.
         21   -1    0    0  502  503 -0.00000000000E+00 -0.00000000000E+00 -0.10628941969E+03  0.10628941969E+03  0.00000000000E+00 0. -1.
          6    1    1    2  501    0  0.81128362265E+02 -0.19313817034E+03  0.28264100940E+03  0.39204477321E+03  0.17300000000E+03 0. -1.
         -6    1    1    2    0  503 -0.81128362265E+02  0.19313817034E+03  0.30612077309E+03  0.40929584865E+03  0.17300000000E+03 0.  1.
</event>
<event>
 4    1  0.6020852E+000  0.1000000E+03  0.7546771E-02  0.1280296E+00
         21   -1    0    0  501  502  0.00000000000E+00  0.00000000000E+00  0.60892928375E+02  0.60892928375E+02  0.00000000000E+00 0. -1.
         21   -1    0    0  502  503 -0.00000000000E+00 -0.00000000000E+00 -0.58582385427E+03  0.58582385427E+03  0.00000000000E+00 0.  1.
          6    1    1    2  501    0 -0.64009950445E+02 -0.27922718998E+02 -0.21206656837E+03  0.28245031672E+03  0.17300000000E+03 0. -1.
         -6    1    1    2    0  503  0.64009950445E+02  0.27922718998E+02 -0.31286435751E+03  0.36426646592E+03  0.17300000000E+03 0.  1.
</event>
<event>
 4    1  0.6020852E+000  0.1000000E+03  0.7546771E-02  0.1280296E+00
         21   -1    0    0  501  502  0.00000000000E+00  0.00000000000E+00  0.16057147436E+04  0.16057147436E+04  0.00000000000E+00 0. -1.
         21   -1    0    0  502  503 -0.00000000000E+00 -0.00000000000E+00 -0.89886788546E+02  0.89886788546E+02  0.00000000000E+00 0.  1.
          6    1    1    2  501    0  0.76638492176E+02 -0.25661239874E+03  0.12189392085E+04  0.12599464972E+04  0.17300000000E+03 0. -1.
         -6    1    1    2    0  503 -0.76638492176E+02  0.25661239874E+03  0.29688874650E+03  0.43565503494E+03  0.17300000000E+03 0.  1.
</event>
<event>
 4    1  0.6020852E+000  0.1000000E+03  0.7546771E-02  0.1280296E+00
         21   -1    0    0  503  502  0.00000000000E+00  0.00000000000E+00  0.24159458308E+03  0.24159458308E+03  0.00000000000E+00 0.  1.
         21   -1    0    0  501  503 -0.00000000000E+00 -0.00000000000E+00 -0.36451887743E+03  0.36451887743E+03  0.00000000000E+00 0.  1.
          6    1    1    2  501    0 -0.66685956496E+02  0.53325888563E+02 -0.29173844031E+03  0.34975846629E+03  0.17300000000E+03 0.  1.
         -6    1    1    2    0  502  0.66685956496E+02 -0.53325888563E+02  0.16881414596E+03  0.25635499422E+03  0.17300000000E+03 0.  1.
</event>
<event>
 4    1  0.6020852E+000  0.1000000E+03  0.7546771E-02  0.1280296E+00
         21   -1    0    0  503  502  0.00000000000E+00  0.00000000000E+00  0.56753648436E+02  0.56753648436E+02  0.00000000000E+00 0.  1.
         21   -1    0    0  501  503 -0.00000000000E+00 -0.00000000000E+00 -0.13957690888E+04  0.13957690888E+04  0.00000000000E+00 0.  1.
          6    1    1    2  501    0  0.22650128947E+02  0.22058636831E+03 -0.69713308234E+03  0.75172794861E+03  0.17300000000E+03 0.  1.
         -6    1    1    2    0  502 -0.22650128947E+02 -0.22058636831E+03 -0.64188235807E+03  0.70079478867E+03  0.17300000000E+03 0.  1.
</event>
<event>
 4    1  0.6020852E+000  0.1000000E+03  0.7546771E-02  0.1280296E+00
         21   -1    0    0  501  502  0.00000000000E+00  0.00000000000E+00  0.42086397774E+03  0.42086397774E+03  0.00000000000E+00 0. -1.
         21   -1    0    0  502  503 -0.00000000000E+00 -0.00000000000E+00 -0.20821766127E+03  0.20821766127E+03  0.00000000000E+00 0.  1.
          6    1    1    2  501    0  0.88673894632E+02 -0.16579513511E+03  0.26517711481E+03  0.36823767954E+03  0.17300000000E+03 0. -1.
         -6    1    1    2    0  503 -0.88673894632E+02  0.16579513511E+03 -0.52530798334E+02  0.26084395946E+03  0.17300000000E+03 0. -1.
</event>
<event>
 4    1  0.6020852E+000  0.1000000E+03  0.7546771E-02  0.1280296E+00
         21   -1    0    0  501  502  0.00000000000E+00  0.00000000000E+00  0.59289424463E+03  0.59289424463E+03  0.00000000000E+00 0. -1.
         21   -1    0    0  502  503 -0.00000000000E+00 -0.00000000000E+00 -0.93619438184E+02  0.93619438184E+02  0.00000000000E+00 0.  1.
          6    1    1    2  501    0  0.47867654964E+02  0.14642364936E+02  0.47094050802E+03  0.50420201640E+03  0.17300000000E+03 0. -1.
         -6    1    1    2    0  503 -0.47867654964E+02 -0.14642364936E+02  0.28334298419E+02  0.18231166641E+03  0.17300000000E+03 0. -1.
</event>
<event>
 4    1  0.6020852E+000  0.1000000E+03  0.7546771E-02  0.1280296E+00
         21   -1    0    0  501  502  0.00000000000E+00  0.00000000000E+00  0.80044745447E+03  0.80044745447E+03  0.00000000000E+00 0.  1.
         21   -1    0    0  502  503 -0.00000000000E+00 -0.00000000000E+00 -0.17972308697E+03  0.17972308697E+03  0.00000000000E+00 0.  1.
          6    1    1    2  501    0  0.14285294567E+03 -0.30276282433E+03  0.36605239774E+03  0.52535288119E+03  0.17300000000E+03 0.  1.
         -6    1    1    2    0  503 -0.14285294567E+03  0.30276282433E+03  0.25467196976E+03  0.45481766024E+03  0.17300000000E+03 0.  1.
</event>
<event>
 4    1  0.6020852E+000  0.1000000E+03  0.7546771E-02  0.1280296E+00
         21   -1    0    0  501  502  0.00000000000E+00  0.00000000000E+00  0.42109904125E+02  0.42109904125E+02  0.00000000000E+00 0. -1.
         21   -1    0    0  502  503 -0.00000000000E+00 -0.00000000000E+00 -0.10842747236E+04  0.10842747236E+04  0.00000000000E+00 0. -1.
          6    1    1    2  501    0 -0.59555478179E+02  0.11035426658E+03 -0.51531660842E+03  0.55785762167E+03  0.17300000000E+03 0. -1.
         -6    1    1    2    0  503  0.59555478179E+02 -0.11035426658E+03 -0.52684821107E+03  0.56852700607E+03  0.17300000000E+03 0. -1.
</event>
<event>
 4    1  0.6020852E+000  0.1000000E+03  0.7546771E-02  0.1280296E+00
         21   -1    0    0  501  502  0.00000000000E+00  0.00000000000E+00  0.99564199086E+02  0.99564199086E+02  0.00000000000E+00 0. -1.
         21   -1    0    0  502  503 -0.00000000000E+00 -0.00000000000E+00 -0.11830556197E+04  0.11830556197E+04  0.00000000000E+00 0. -1.
          6    1    1    2  501    0  0.91024093102E+01  0.11095960479E+03 -0.28423904881E+02  0.20768198314E+03  0.17300000000E+03 0. -1.
         -6    1    1    2    0  503 -0.91024093102E+01 -0.11095960479E+03 -0.10550675157E+04  0.10749378356E+04  0.17300000000E+03 0. -1.
</event>
<event>
 4    1  0.6020852E+000  0.1000000E+03  0.7546771E-02  0.1280296E+00
         21   -1    0    0  501  502  0.00000000000E+00  0.00000000000E+00  0.11652641077E+03  0.11652641077E+03  0.00000000000E+00 0. -1.
         21   -1    0    0  502  503 -0.00000000000E+00 -0.00000000000E+00 -0.12760368354E+04  0.12760368354E+04  0.00000000000E+00 0. -1.
          6    1    1    2  501    0  0.59858608633E+02  0.24356009117E+03 -0.15299347780E+03  0.34094072107E+03  0.17300000000E+03 0. -1.
         -6    1    1    2    0  503 -0.59858608633E+02 -0.24356009117E+03 -0.10065169469E+04  0.10516225251E+04  0.17300000000E+03 0. -1.
</event>
<event>
 4    1  0.6020852E+000  0.1000000E+03  0.7546771E-02  0.1280296E+00
         21   -1    0    0  501  502  0.00000000000E+00  0.00000000000E+00  0.40455897116E+04  0.40455897116E+04  0.00000000000E+00 0.  1.
         21   -1    0    0  502  503 -0.00000000000E+00 -0.00000000000E+00 -0.42733102945E+02  0.42733102945E+02  0.00000000000E+00 0.  1.
          6    1    1    2  501    0 -0.13992890167E+03  0.63915214766E+02  0.36994272885E+04  0.37066637985E+04  0.17300000000E+03 0. -1.
         -6    1    1    2    0  503  0.13992890167E+03 -0.63915214766E+02  0.30342932017E+03  0.38165901606E+03  0.17300000000E+03 0. -1.
</event>
<event>
 4    1  0.6020852E+000  0.1000000E+03  0.7546771E-02  0.1280296E+00
         21   -1    0    0  501  502  0.00000000000E+00  0.00000000000E+00  0.14774084999E+03  0.14774084999E+03  0.00000000000E+00 0. -1.
         21   -1    0    0  502  503 -0.00000000000E+00 -0.00000000000E+00 -0.31335633732E+03  0.31335633732E+03  0.00000000000E+00 0.  1.
          6    1    1    2  501    0  0.17849279862E+02 -0.10831525289E+03 -0.12416179220E+02  0.20526556532E+03  0.17300000000E+03 0. -1.
         -6    1    1    2    0  503 -0.17849279862E+02  0.10831525289E+03 -0.15319930812E+03  0.25583162198E+03  0.17300000000E+03 0.  1.
</event>
<event>
 4    1  0.6020852E+000  0.1000000E+03  0.7546771E-02  0.1280296E+00
         21   -1    0    0  501  502  0.00000000000E+00  0.00000000000E+00  0.41257652235E+03  0.41257652235E+03  0.00000000000E+00 0. -1.
         21   -1    0    0  502  503 -0.00000000000E+00 -0.00000000000E+00 -0.38988391303E+03  0.38988391303E+03  0.00000000000E+00 0. -1.
          6    1    1    2  501    0  0.10175894326E+03  0.18958717728E+03  0.30237465444E+03  0.40946014698E+03  0.17300000000E+03 0. -1.
         -6    1    1    2    0  503 -0.10175894326E+03 -0.18958717728E+03 -0.27968204511E+03  0.39300028840E+03  0.17300000000E+03 0. -1.
</event>
<event>
 4    1  0.6020852E+000  0.1000000E+03  0.7546771E-02  0.1280296E+00
         21   -1    0    0  501  502  0.00000000000E+00  0.00000000000E+00  0.13056811507E+03  0.13056811507E+03  0.00000000000E+00 0.  1.
         21   -1    0    0  502  503 -0.00000000000E+00 -0.00000000000E+00 -0.38878395793E+03  0.38878395793E+03  0.00000000000E+00 0.  1.
          6    1    1    2  501    0 -0.39429609876E+02  0.45047034679E+02  0.22266297076E+02  0.18441452615E+03  0.17300000000E+03 0.  1.
         -6    1    1    2    0  503  0.39429609876E+02 -0.45047034679E+02 -0.28048213994E+03  0.33493754685E+03  0.17300000000E+03 0.  1.
</event>
<event>
 4    1  0.6020852E+000  0.1000000E+03  0.7546771E-02  0.1280296E+00
         21   -1    0    0  501  502  0.00000000000E+00  0.00000000000E+00  0.10859792504E+04  0.10859792504E+04  0.00000000000E+00 0.  1.
         21   -1    0    0  502  503 -0.00000000000E+00 -0.00000000000E+00 -0.44891811282E+02  0.44891811282E+02  0.00000000000E+00 0.  1.
          6    1    1    2  501    0  0.11344803783E+03  0.34622647108E+02  0.69710298689E+03  0.72797716949E+03  0.17300000000E+03 0.  1.
         -6    1    1    2    0  503 -0.11344803783E+03 -0.34622647108E+02  0.34398445219E+03  0.40289389215E+03  0.17300000000E+03 0.  1.
</event>
<event>
 4    1  0.6020852E+000  0.1000000E+03  0.7546771E-02  0.1280296E+00
         21   -1    0    0  501  502  0.00000000000E+00  0.00000000000E+00  0.21042665026E+03  0.21042665026E+03  0.00000000000E+00 0. -1.
         21   -1    0    0  502  503 -0.00000000000E+00 -0.00000000000E+00 -0.25825646936E+03  0.25825646936E+03  0.00000000000E+00 0. -1.
          6    1    1    2  501    0 -0.29522962270E+02  0.13457840857E+03  0.50174619663E+02  0.22678061163E+03  0.17300000000E+03 0. -1.
         -6    1    1    2    0  503  0.29522962270E+02 -0.13457840857E+03 -0.98004438758E+02  0.24190250799E+03  0.17300000000E+03 0. -1.
</event>
<event>
 4    1  0.6020852E+000  0.1000000E+03  0.7546771E-02  0.1280296E+00
         21   -1    0    0  501  502  0.00000000000E+00  0.00000000000E+00  0.22465356812E+03  0.22465356812E+03  0.00000000000E+00 0. -1.
         21   -1    0    0  502  503 -0.00000000000E+00 -0.00000000000E+00 -0.28012937170E+03  0.28012937170E+03  0.00000000000E+00 0. -1.
          6    1    1    2  501    0 -0.86323475244E+02 -0.66604831115E+02  0.11845807957E+03  0.23632448566E+03  0.17300000000E+03 0. -1.
         -6    1    1    2    0  503  0.86323475244E+02  0.66604831115E+02 -0.17393388315E+03  0.26845845416E+03  0.17300000000E+03 0. -1.
</event>
<event>
 4    1  0.6020852E+000  0.1000000E+03  0.7546771E-02  0.1280296E+00
         21   -1    0    0  503  502  0.00000000000E+00  0.00000000000E+00  0.80617220158E+02  0.80617220158E+02  0.00000000000E+00 0.  1.
         21   -1    0    0  501  503 -0.00000000000E+00 -0.00000000000E+00 -0.56240497168E+03  0.56240497168E+03  0.00000000000E+00 0.  1.
          6    1    1    2  501    0  0.13495349149E+02  0.62319873393E+02 -0.40171856918E+03  0.44200984140E+03  0.17300000000E+03 0. -1.
         -6    1    1    2    0  502 -0.13495349149E+02 -0.62319873393E+02 -0.80069182340E+02  0.20101235044E+03  0.17300000000E+03 0. -1.
</event>
<event>
 4    1  0.6020852E+000  0.1000000E+03  0.7546771E-02  0.1280296E+00
         21   -1    0    0  503  502  0.00000000000E+00  0.00000000000E+00  0.27485080880E+03  0.27485080880E+03  0.00000000000E+00 0.  1.
         21   -1    0    0  501  503 -0.00000000000E+00 -0.00000000000E+00 -0.16222823854E+03  0.16222823854E+03  0.00000000000E+00 0. -1.
          6    1    1    2  501    0  0.81257167029E+02 -0.18712124381E+02 -0.34544430055E+02  0.19512864587E+03  0.17300000000E+03 0. -1.
         -6    1    1    2    0  502 -0.81257167029E+02  0.18712124381E+02  0.14716700031E+03  0.24195040148E+03  0.17300000000E+03 0.  1.
</event>
<event>
 4    1  0.6020852E+000  0.1000000E+03  0.7546771E-02  0.1280296E+00
         21   -1    0    0  503  502  0.00000000000E+00  0.00000000000E+00  0.81199258208E+03  0.81199258208E+03  0.00000000000E+00 0.  1.
         21   -1    0    0  501  503 -0.00000000000E+00 -0.00000000000E+00 -0.12892065986E+03  0.12892065986E+03  0.00000000000E+00 0. -1.
          6    1    1    2  501    0 -0.17368679897E+02  0.35364767242E+02 -0.51870634541E+02  0.18485643221E+03  0.17300000000E+03 0. -1.
         -6    1    1    2    0  502  0.17368679897E+02 -0.35364767242E+02  0.73494255676E+03  0.75605680973E+03  0.17300000000E+03 0.  1.
</event>
<event>
 4    1  0.6020852E+000  0.1000000E+03  0.7546771E-02  0.1280296E+00
         21   -1    0    0  501  502  0.00000000000E+00  0.00000000000E+00  0.18026995403E+03  0.18026995403E+03  0.00000000000E+00 0. -1.
         21   -1    0    0  502  503 -0.00000000000E+00 -0.00000000000E+00 -0.29899396778E+03  0.29899396778E+03  0.00000000000E+00 0. -1.
          6    1    1    2  501    0  0.84160651456E+02 -0.12009317670E+03 -0.81134458179E+01  0.22693658662E+03  0.17300000000E+03 0. -1.
         -6    1    1    2    0  503 -0.84160651456E+02  0.12009317670E+03 -0.11061056794E+03  0.25232733519E+03  0.17300000000E+03 0. -1.
</event>
<event>
 4    1  0.6020852E+000  0.1000000E+03  0.7546771E-02  0.1280296E+00
         21   -1    0    0  501  502  0.00000000000E+00  0.00000000000E+00  0.19433245789E+04  0.19433245789E+04  0.00000000000E+00 0. -1.
         21   -1    0    0  502  503 -0.00000000000E+00 -0.00000000000E+00 -0.23146625073E+02  0.23146625073E+02  0.00000000000E+00 0. -1.
          6    1    1    2  501    0 -0.17824147117E+02  0.12169363243E+01  0.15228059114E+04  0.15327054593E+04  0.17300000000E+03 0. -1.
         -6    1    1    2    0  503  0.17824147117E+02 -0.12169363243E+01  0.39737204242E+03  0.43376574467E+03  0.17300000000E+03 0. -1.
</event>
<event>
 4    1  0.6020852E+000  0.1000000E+03  0.7546771E-02  0.1280296E+00
         21   -1    0    0  501  502  0.00000000000E+00  0.00000000000E+00  0.36542063016E+03  0.36542063016E+03  0.00000000000E+00 0. -1.
         21   -1    0    0  502  503 -0.00000000000E+00 -0.00000000000E+00 -0.10500592530E+04  0.10500592530E+04  0.00000000000E+00 0. -1.
          6    1    1    2  501    0  0.58142300454E+02 -0.10179809277E+03  0.32392861839E+03  0.38548946627E+03  0.17300000000E+03 0. -1.
         -6    1    1    2    0  503 -0.58142300454E+02  0.10179809277E+03 -0.10085672412E+04  0.10299904169E+04  0.17300000000E+03 0. -1.
</event>
<event>
 4    1  0.6020852E+000  0.1000000E+03  0.7546771E-02  0.1280296E+00
         21   -1    0    0  503  502  0.00000000000E+00  0.00000000000E+00  0.37230331509E+03  0.37230331509E+03  0.00000000000E+00 0. -1.
         21   -1    0    0  501  503 -0.00000000000E+00 -0.00000000000E+00 -0.29813828479E+03  0.29813828479E+03  0.00000000000E+00 0.  1.
          6    1    1    2  501    0 -0.33961891009E+02 -0.49946593010E+02 -0.24288165788E+03  0.30425083719E+03  0.17300000000E+03 0. -1.
         -6    1    1    2    0  502  0.33961891009E+02  0.49946593010E+02  0.31704668819E+03  0.36619076270E+03  0.17300000000E+03 0.  1.
</event>
<event>
 4    1  0.6020852E+000  0.1000000E+03  0.7546771E-02  0.1280296E+00
         21   -1    0    0  503  502  0.00000000000E+00  0.00000000000E+00  0.25765568365E+03  0.25765568365E+03  0.00000000000E+00 0. -1.
         21   -1    0    0  501  503 -0.00000000000E+00 -0.00000000000E+00 -0.47584772200E+03  0.47584772200E+03  0.00000000000E+00 0.  1.
          6    1    1    2  501    0 -0.17238684778E+03 -0.21332692737E+03  0.29266772175E+02  0.32559353063E+03  0.17300000000E+03 0. -1.
         -6    1    1    2    0  502  0.17238684778E+03  0.21332692737E+03 -0.24745881052E+03  0.40790987502E+03  0.17300000000E+03 0.  1.
</event>
<event>
 4    1  0.6020852E+000  0.1000000E+03  0.7546771E-02  0.1280296E+00
         21   -1    0    0  501  502  0.00000000000E+00  0.00000000000E+00  0.20401431994E+02  0.20401431994E+02  0.00000000000E+00 0.  1.
         21   -1    0    0  502  503 -0.00000000000E+00 -0.00000000000E+00 -0.18981818748E+04  0.18981818748E+04  0.00000000000E+00 0.  1.
          6    1    1    2  501    0 -0.69441187587E+02 -0.44069415978E+02 -0.71912451740E+03  0.74419974704E+03  0.17300000000E+03 0.  1.
         -6    1    1    2    0  503  0.69441187587E+02  0.44069415978E+02 -0.11586559254E+04  0.11743835597E+04  0.17300000000E+03 0.  1.
</event>
<event>
 4    1  0.6020852E+000  0.1000000E+03  0.7546771E-02  0.1280296E+00
         21   -1    0    0  501  502  0.00000000000E+00  0.00000000000E+00  0.26301799304E+03  0.26301799304E+03  0.00000000000E+00 0.  1.
         21   -1    0    0  502  503 -0.00000000000E+00 -0.00000000000E+00 -0.52870595119E+03  0.52870595119E+03  0.00000000000E+00 0.  1.
          6    1    1    2  501    0 -0.10623482241E+02  0.33017392398E+03 -0.13452236146E+03  0.39642520629E+03  0.17300000000E+03 0.  1.
         -6    1    1    2    0  503  0.10623482241E+02 -0.33017392398E+03 -0.13116559669E+03  0.39529873793E+03  0.17300000000E+03 0.  1.
</event>
<event>
 4    1  0.6020852E+000  0.1000000E+03  0.7546771E-02  0.1280296E+00
         21   -1    0    0  501  502  0.00000000000E+00  0.00000000000E+00  0.11858205770E+04  0.11858205770E+04  0.00000000000E+00 0.  1.
         21   -1    0    0  502  503 -0.00000000000E+00 -0.00000000000E+00 -0.61671955995E+02  0.61671955995E+02  0.00000000000E+00 0.  1.
          6    1    1    2  501    0  0.18287899337E+03 -0.77509692760E+02  0.70332583896E+03  0.75103176660E+03  0.17300000000E+03 0.  1.
         -6    1    1    2    0  503 -0.18287899337E+03  0.77509692760E+02  0.42082278207E+03  0.49646076642E+03  0.17300000000E+03 0.  1.
</event>
<event>
 4    1  0.6020852E+000  0.1000000E+03  0.7546771E-02  0.1280296E+00
         21   -1    0    0  501  502  0.00000000000E+00  0.00000000000E+00  0.20182060690E+03  0.20182060690E+03  0.00000000000E+00 0.  1.
         21   -1    0    0  502  503 -0.00000000000E+00 -0.00000000000E+00 -0.86607265025E+03  0.86607265025E+03  0.00000000000E+00 0.  1.
          6    1    1    2  501    0 -0.14071832395E+02 -0.25159705133E+02  0.15256652760E+03  0.23245767910E+03  0.17300000000E+03 0.  1.
         -6    1    1    2    0  503  0.14071832395E+02  0.25159705133E+02 -0.81681857094E+03  0.83543557805E+03  0.17300000000E+03 0.  1.
</event>
<event>
 4    1  0.6020852E+000  0.1000000E+03  0.7546771E-02  0.1280296E+00
         21   -1    0    0  501  502  0.00000000000E+00  0.00000000000E+00  0.15263405020E+03  0.15263405020E+03  0.00000000000E+00 0. -1.
         21   -1    0    0  502  503 -0.00000000000E+00 -0.00000000000E+00 -0.69677619374E+03  0.69677619374E+03  0.00000000000E+00 0. -1.
          6    1    1    2  501    0 -0.11216398891E+03  0.12422051518E+03  0.14470999604E+02  0.24114291743E+03  0.17300000000E+03 0. -1.
         -6    1    1    2    0  503  0.11216398891E+03 -0.12422051518E+03 -0.55861314315E+03  0.60826732651E+03  0.17300000000E+03 0. -1.
</event>
<event>
 4    1  0.6020852E+000  0.1000000E+03  0.7546771E-02  0.1280296E+00
         21   -1    0    0  501  502  0.00000000000E+00  0.00000000000E+00  0.12666490220E+04  0.12666490220E+04  0.00000000000E+00 0. -1.
         21   -1    0    0  502  503 -0.00000000000E+00 -0.00000000000E+00 -0.44608875110E+02  0.44608875110E+02  0.00000000000E+00 0. -1.
          6    1    1    2  501    0  0.31034451835E+02  0.12287014552E+03  0.32819672082E+03  0.39204884570E+03  0.17300000000E+03 0. -1.
         -6    1    1    2    0  503 -0.31034451835E+02 -0.12287014552E+03  0.89384342611E+03  0.91920905144E+03  0.17300000000E+03 0. -1.
</event>
<event>
 4    1  0.6020852E+000  0.1000000E+03  0.7546771E-02  0.1280296E+00
         21   -1    0    0  501  502  0.00000000000E+00  0.00000000000E+00  0.11539162472E+03  0.11539162472E+03  0.00000000000E+00 0.  1.
         21   -1    0    0  502  503 -0.00000000000E+00 -0.00000000000E+00 -0.86339151814E+03  0.86339151814E+03  0.00000000000E+00 0.  1.
          6    1    1    2  501    0 -0.60730895216E+02  0.79129972121E+02  0.49938193021E+01  0.19975918590E+03  0.17300000000E+03 0.  1.
         -6    1    1    2    0  503  0.60730895216E+02 -0.79129972121E+02 -0.75299371272E+03  0.77902395696E+03  0.17300000000E+03 0.  1.
</event>
<event>
 4    1  0.6020852E+000  0.1000000E+03  0.7546771E-02  0.1280296E+00
         21   -1    0    0  501  502  0.00000000000E+00  0.00000000000E+00  0.21994581537E+03  0.21994581537E+03  0.00000000000E+00 0.  1.
         21   -1    0    0  502  503 -0.00000000000E+00 -0.00000000000E+00 -0.64166373839E+03  0.64166373839E+03  0.00000000000E+00 0.  1.
          6    1    1    2  501    0  0.62701918466E+02  0.82192056505E+02  0.15270829038E+03  0.25285546599E+03  0.17300000000E+03 0.  1.
         -6    1    1    2    0  503 -0.62701918466E+02 -0.82192056505E+02 -0.57442621340E+03  0.60875408777E+03  0.17300000000E+03 0.  1.
</event>
<event>
 4    1  0.6020852E+000  0.1000000E+03  0.7546771E-02  0.1280296E+00
         21   -1    0    0  501  502  0.00000000000E+00  0.00000000000E+00  0.35529858474E+03  0.35529858474E+03  0.00000000000E+00 0.  1.
         21   -1    0    0  502  503 -0.00000000000E+00 -0.00000000000E+00 -0.31386070911E+03  0.31386070911E+03  0.00000000000E+00 0.  1.
          6    1    1    2  501    0 -0.12462421534E+03  0.13542407749E+03  0.23957520703E+03  0.34813238234E+03  0.17300000000E+03 0.  1.
         -6    1    1    2    0  503  0.12462421534E+03 -0.13542407749E+03 -0.19813733140E+03  0.32102691150E+03  0.17300000000E+03 0.  1.
</event>
<event>
 4    1  0.6020852E+000  0.1000000E+03  0.7546771E-02  0.1280296E+00
         21   -1    0    0  501  502  0.00000000000E+00  0.00000000000E+00  0.22697239736E+03  0.22697239736E+03  0.00000000000E+00 0.  1.
         21   -1    0    0  502  503 -0.00000000000E+00 -0.00000000000E+00 -0.38608524751E+03  0.38608524751E+03  0.00000000000E+00 0.  1.
          6    1    1    2  501    0 -0.10490645419E+03 -0.15309890857E+03  0.78357542004E+02  0.26554386516E+03  0.17300000000E+03 0.  1.
         -6    1    1    2    0  503  0.10490645419E+03  0.15309890857E+03 -0.23747039215E+03  0.34751377971E+03  0.17300000000E+03 0.  1.
</event>
<event>
 4    1  0.6020852E+000  0.1000000E+03  0.7546771E-02  0.1280296E+00
         21   -1    0    0  503  502  0.00000000000E+00  0.00000000000E+00  0.84147752417E+02  0.84147752417E+02  0.00000000000E+00 0.  1.
         21   -1    0    0  501  503 -0.00000000000E+00 -0.00000000000E+00 -0.76967649311E+03  0.76967649311E+03  0.00000000000E+00 0. -1.
          6    1    1    2  501    0  0.62162905774E+02  0.17493693481E+03 -0.31048001359E+03  0.40099126780E+03  0.17300000000E+03 0.  1.
         -6    1    1    2    0  502 -0.62162905774E+02 -0.17493693481E+03 -0.37504872711E+03  0.45283297773E+03  0.17300000000E+03 0. -1.
</event>
<event>
 4    1  0.6020852E+000  0.1000000E+03  0.7546771E-02  0.1280296E+00
         21   -1    0    0  503  502  0.00000000000E+00  0.00000000000E+00  0.20442654819E+04  0.20442654819E+04  0.00000000000E+00 0.  1.
         21   -1    0    0  501  503 -0.00000000000E+00 -0.00000000000E+00 -0.25729641162E+02  0.25729641162E+02  0.00000000000E+00 0. -1.
          6    1    1    2  501    0  0.60457022591E+02 -0.13629499180E+03  0.11036983548E+04  0.11270804917E+04  0.17300000000E+03 0.  1.
         -6    1    1    2    0  502 -0.60457022591E+02  0.13629499180E+03  0.91483748597E+03  0.94291463140E+03  0.17300000000E+03 0. -1.
</event>
<event>
 4    1  0.6020852E+000  0.1000000E+03  0.7546771E-02  0.1280296E+00
         21   -1    0    0  501  502  0.00000000000E+00  0.00000000000E+00  0.11461344019E+03  0.11461344019E+03  0.00000000000E+00 0. -1.
         21   -1    0    0  502  503 -0.00000000000E+00 -0.00000000000E+00 -0.54920906043E+03  0.54920906043E+03  0.00000000000E+00 0.  1.
          6    1    1    2  501    0  0.31005578439E+02  0.15636702891E+03 -0.10192425735E+03  0.25637774447E+03  0.17300000000E+03 0. -1.
         -6    1    1    2    0  503 -0.31005578439E+02 -0.15636702891E+03 -0.33267136289E+03  0.40744475615E+03  0.17300000000E+03 0.  1.
</event>
<event>
 4    1  0.6020852E+000  0.1000000E+03  0.7546771E-02  0.1280296E+00
         21   -1    0    0  501  502  0.00000000000E+00  0.00000000000E+00  0.16939861468E+03  0.16939861468E+03  0.00000000000E+00 0. -1.
         21   -1    0    0  502  503 -0.00000000000E+00 -0.00000000000E+00 -0.18705420005E+03  0.18705420005E+03  0.00000000000E+00 0.  1.
          6    1    1    2  501    0 -0.20818701666E+02 -0.19236802612E+02  0.22101098559E+02  0.17669445795E+03  0.17300000000E+03 0. -1.
         -6    1    1    2    0  503  0.20818701666E+02  0.19236802612E+02 -0.39756683922E+02  0.17975835677E+03  0.17300000000E+03 0.  1.
</event>
<event>
 4    1  0.6020852E+000  0.1000000E+03  0.7546771E-02  0.1280296E+00
         21   -1    0    0  501  502  0.00000000000E+00  0.00000000000E+00  0.21383608581E+03  0.21383608581E+03  0.00000000000E+00 0. -1.
         21   -1    0    0  502  503 -0.00000000000E+00 -0.00000000000E+00 -0.52263001725E+03  0.52263001725E+03  0.00000000000E+00 0.  1.
          6    1    1    2  501    0 -0.10218987769E+03  0.87224823454E+02  0.12377789140E+03  0.25159671566E+03  0.17300000000E+03 0. -1.
         -6    1    1    2    0  503  0.10218987769E+03 -0.87224823454E+02 -0.43257182284E+03  0.48486938741E+03  0.17300000000E+03 0.  1.
</event>
<event>
 4    1  0.6020852E+000  0.1000000E+03  0.7546771E-02  0.1280296E+00
         21   -1    0    0  503  502  0.00000000000E+00  0.00000000000E+00  0.41782004426E+02  0.41782004426E+02  0.00000000000E+00 0. -1.
         21   -1    0    0  501  503 -0.00000000000E+00 -0.00000000000E+00 -0.14993054573E+04  0.14993054573E+04  0.00000000000E+00 0. -1.
          6    1    1    2  501    0 -0.14113870871E+03  0.55700133204E+01 -0.10765765214E+04  0.10994985978E+04  0.17300000000E+03 0. -1.
         -6    1    1    2    0  502  0.14113870871E+03 -0.55700133204E+01 -0.38094693152E+03  0.44158886397E+03  0.17300000000E+03 0. -1.
</event>
<event>
 4    1  0.6020852E+000  0.1000000E+03  0.7546771E-02  0.1280296E+00
         21   -1    0    0  503  502  0.00000000000E+00  0.00000000000E+00  0.84377447541E+03  0.84377447541E+03  0.00000000000E+00 0. -1.
         21   -1    0    0  501  503 -0.00000000000E+00 -0.00000000000E+00 -0.12488201857E+03  0.12488201857E+03  0.00000000000E+00 0. -1.
          6    1    1    2  501    0 -0.30582921542E+02  0.70969097245E+01 -0.47681897320E+02  0.18217641052E+03  0.17300000000E+03 0. -1.
         -6    1    1    2    0  502  0.30582921542E+02 -0.70969097245E+01  0.76657435416E+03  0.78648008345E+03  0.17300000000E+03 0. -1.
</event>
<event>
 4    1  0.6020852E+000  0.1000000E+03  0.7546771E-02  0.1280296E+00
         21   -1    0    0  503  502  0.00000000000E+00  0.00000000000E+00  0.46908948289E+02  0.46908948289E+02  0.00000000000E+00 0. -1.
         21   -1    0    0  501  503 -0.00000000000E+00 -0.00000000000E+00 -0.93246389144E+03  0.93246389144E+03  0.00000000000E+00 0.  1.
          6    1    1    2  501    0  0.53074446665E+02  0.10136469584E+03 -0.50561243498E+03  0.54650218010E+03  0.17300000000E+03 0.  1.
         -6    1    1    2    0  502 -0.53074446665E+02 -0.10136469584E+03 -0.37994250817E+03  0.43287065962E+03  0.17300000000E+03 0. -1.
</event>
<event>
 4    1  0.6020852E+000  0.1000000E+03  0.7546771E-02  0.1280296E+00
         21   -1    0    0  503  502  0.00000000000E+00  0.00000000000E+00  0.33144100783E+03  0.33144100783E+03  0.00000000000E+00 0. -1.
         21   -1    0    0  501  503 -0.00000000000E+00 -0.00000000000E+00 -0.15856967456E+03  0.15856967456E+03  0.00000000000E+00 0.  1.
          6    1    1    2  501    0  0.25518459761E+02  0.82351145297E+02 -0.45301056005E+02  0.19852981790E+03  0.17300000000E+03 0.  1.
         -6    1    1    2    0  502 -0.25518459761E+02 -0.82351145297E+02  0.21817238928E+03  0.29148086449E+03  0.17300000000E+03 0. -1.
</event>
<event>
 4    1  0.6020852E+000  0.1000000E+03  0.7546771E-02  0.1280296E+00
         21   -1    0    0  501  502  0.00000000000E+00  0.00000000000E+00  0.24637227915E+03  0.24637227915E+03  0.00000000000E+00 0. -1.
         21   -1    0    0  502  503 -0.00000000000E+00 -0.00000000000E+00 -0.34425813817E+03  0.34425813817E+03  0.00000000000E+00 0.  1.
          6    1    1    2  501    0  0.15106757046E+03 -0.94854545090E+02  0.10506798524E+03  0.26979080246E+03  0.17300000000E+03 0. -1.
         -6    1    1    2    0  503 -0.15106757046E+03  0.94854545090E+02 -0.20295384425E+03  0.32083961486E+03  0.17300000000E+03 0. -1.
</event>
<event>
 4    1  0.6020852E+000  0.1000000E+03  0.7546771E-02  0.1280296E+00
         21   -1    0    0  501  502  0.00000000000E+00  0.00000000000E+00  0.23549984489E+03  0.23549984489E+03  0.00000000000E+00 0. -1.
         21   -1    0    0  502  503 -0.00000000000E+00 -0.00000000000E+00 -0.36418069160E+03  0.36418069160E+03  0.00000000000E+00 0.  1.
          6    1    1    2  501    0 -0.93902806663E+01 -0.18057356096E+03  0.91407631737E+02  0.26641948771E+03  0.17300000000E+03 0. -1.
         -6    1    1    2    0  503  0.93902806663E+01  0.18057356096E+03 -0.22008847845E+03  0.33326104878E+03  0.17300000000E+03 0.  1.
</event>
<event>
 4    1  0.6020852E+000  0.1000000E+03  0.7546771E-02  0.1280296E+00
         21   -1    0    0  501  502  0.00000000000E+00  0.00000000000E+00  0.60692884111E+03  0.60692884111E+03  0.00000000000E+00 0.  1.
         21   -1    0    0  502  503 -0.00000000000E+00 -0.00000000000E+00 -0.24691170703E+03  0.24691170703E+03  0.00000000000E+00 0.  1.
          6    1    1    2  501    0  0.55945601217E+02 -0.10308504006E+03  0.53935461173E+03  0.57843654187E+03  0.17300000000E+03 0.  1.
         -6    1    1    2    0  503 -0.55945601217E+02  0.10308504006E+03 -0.17933747765E+03  0.27540400627E+03  0.17300000000E+03 0.  1.
</event>
<event>
 4    1  0.6020852E+000  0.1000000E+03  0.7546771E-02  0.1280296E+00
         21   -1    0    0  501  502  0.00000000000E+00  0.00000000000E+00  0.47321923809E+03  0.47321923809E+03  0.00000000000E+00 0.  1.
         21   -1    0    0  502  503 -0.00000000000E+00 -0.00000000000E+00 -0.12694365999E+03  0.12694365999E+03  0.00000000000E+00 0.  1.
          6    1    1    2  501    0 -0.47653080807E+02  0.85089943103E+02  0.34900052279E+03  0.40154885062E+03  0.17300000000E+03 0.  1.
         -6    1    1    2    0  503  0.47653080807E+02 -0.85089943103E+02 -0.27249446812E+01  0.19861404747E+03  0.17300000000E+03 0.  1.
</event>
<event>
 4    1  0.6020852E+000  0.1000000E+03  0.7546771E-02  0.1280296E+00
         21   -1    0    0  501  502  0.00000000000E+00  0.00000000000E+00  0.46031116229E+03  0.46031116229E+03  0.00000000000E+00 0. -1.
         21   -1    0    0  502  503 -0.00000000000E+00 -0.00000000000E+00 -0.87193283945E+02  0.87193283945E+02  0.00000000000E+00 0. -1.
          6    1    1    2  501    0 -0.52064414993E+02 -0.57276093862E+02  0.27528061722E+03  0.33421500932E+03  0.17300000000E+03 0. -1.
         -6    1    1    2    0  503  0.52064414993E+02  0.57276093862E+02  0.97837261129E+02  0.21328943692E+03  0.17300000000E+03 0. -1.
</event>
<event>
 4    1  0.6020852E+000  0.1000000E+03  0.7546771E-02  0.1280296E+00
         21   -1    0    0  501  502  0.00000000000E+00  0.00000000000E+00  0.87882301112E+03  0.87882301112E+03  0.00000000000E+00 0. -1.
         21   -1    0    0  502  503 -0.00000000000E+00 -0.00000000000E+00 -0.11242998274E+03  0.11242998274E+03  0.00000000000E+00 0. -1.
          6    1    1    2  501    0 -0.66617322542E+02  0.11118747849E+03  0.74301524370E+03  0.77382244437E+03  0.17300000000E+03 0. -1.
         -6    1    1    2    0  503  0.66617322542E+02 -0.11118747849E+03  0.23377784678E+02  0.21743054949E+03  0.17300000000E+03 0. -1.
</event>
<event>
 4    1  0.6020852E+000  0.1000000E+03  0.7546771E-02  0.1280296E+00
         21   -1    0    0  503  502  0.00000000000E+00  0.00000000000E+00  0.52415617985E+03  0.52415617985E+03  0.00000000000E+00 0. -1.
         21   -1    0    0  501  503 -0.00000000000E+00 -0.00000000000E+00 -0.72738196421E+02  0.72738196421E+02  0.00000000000E+00 0. -1.
          6    1    1    2  501    0  0.85558349529E+01  0.15288711757E+02  0.89939981294E+02  0.19576809560E+03  0.17300000000E+03 0. -1.
         -6    1    1    2    0  502 -0.85558349529E+01 -0.15288711757E+02  0.36147800214E+03  0.40112628068E+03  0.17300000000E+03 0. -1.
</event>
<event>
 4    1  0.6020852E+000  0.1000000E+03  0.7546771E-02  0.1280296E+00
         21   -1    0    0  501  502  0.00000000000E+00  0.00000000000E+00  0.21185209172E+03  0.21185209172E+03  0.00000000000E+00 0.  1.
         21   -1    0    0  502  503 -0.00000000000E+00 -0.00000000000E+00 -0.19799241922E+03  0.19799241922E+03  0.00000000000E+00 0.  1.
          6    1    1    2  501    0 -0.47183036992E+02 -0.47879005134E+02  0.93567321429E+02  0.20785206699E+03  0.17300000000E+03 0.  1.
         -6    1    1    2    0  503  0.47183036992E+02  0.47879005134E+02 -0.79707648927E+02  0.20199244394E+03  0.17300000000E+03 0.  1.
</event>
<event>
 4    1  0.6020852E+000  0.1000000E+03  0.7546771E-02  0.1280296E+00
         21   -1    0    0  501  502  0.00000000000E+00  0.00000000000E+00  0.14748852464E+03  0.14748852464E+03  0.00000000000E+00 0.  1.
         21   -1    0    0  502  503 -0.00000000000E+00 -0.00000000000E+00 -0.12189373428E+04  0.12189373428E+04  0.00000000000E+00 0.  1.
          6    1    1    2  501    0  0.14181566603E+03  0.49831222638E+02  0.39085762951E+02  0.23248985085E+03  0.17300000000E+03 0.  1.
         -6    1    1    2    0  503 -0.14181566603E+03 -0.49831222638E+02 -0.11105345811E+04  0.11339360166E+04  0.17300000000E+03 0.  1.
</event>
<event>
 4    1  0.6020852E+000  0.1000000E+03  0.7546771E-02  0.1280296E+00
         21   -1    0    0  501  502  0.00000000000E+00  0.00000000000E+00  0.60597124392E+03  0.60597124392E+03  0.00000000000E+00 0.  1.
         21   -1    0    0  502  503 -0.00000000000E+00 -0.00000000000E+00 -0.57873515514E+02  0.57873515514E+02  0.00000000000E+00 0. -1.
          6    1    1    2  501    0  0.16685603147E+02 -0.46553084360E+01  0.39736514426E+03  0.43373740803E+03  0.17300000000E+03 0. -1.
         -6    1    1    2    0  503 -0.16685603147E+02  0.46553084360E+01  0.15073258415E+03  0.23010735141E+03  0.17300000000E+03 0.  1.
</event>
<event>
 4    1  0.6020852E+000  0.1000000E+03  0.7546771E-02  0.1280296E+00
         21   -1    0    0  501  502  0.00000000000E+00  0.00000000000E+00  0.10188935648E+03  0.10188935648E+03  0.00000000000E+00 0. -1.
         21   -1    0    0  502  503 -0.00000000000E+00 -0.00000000000E+00 -0.47694217401E+03  0.47694217401E+03  0.00000000000E+00 0. -1.
          6    1    1    2  501    0 -0.63087236628E+02 -0.96076885037E+02 -0.90554769812E+02  0.22658317148E+03  0.17300000000E+03 0. -1.
         -6    1    1    2    0  503  0.63087236628E+02  0.96076885037E+02 -0.28449804772E+03  0.35224835900E+03  0.17300000000E+03 0. -1.
</event>
<event>
 4    1  0.6020852E+000  0.1000000E+03  0.7546771E-02  0.1280296E+00
         21   -1    0    0  501  502  0.00000000000E+00  0.00000000000E+00  0.12602283055E+04  0.12602283055E+04  0.00000000000E+00 0. -1.
         21   -1    0    0  502  503 -0.00000000000E+00 -0.00000000000E+00 -0.49860791028E+02  0.49860791028E+02  0.00000000000E+00 0.  1.
          6    1    1    2  501    0 -0.74308796556E+02 -0.72620638591E+02  0.99375889825E+03  0.10140420614E+04  0.17300000000E+03 0. -1.
         -6    1    1    2    0  503  0.74308796556E+02  0.72620638591E+02  0.21660861620E+03  0.29604703513E+03  0.17300000000E+03 0.  1.
</event>
<event>
 4    1  0.6020852E+000  0.1000000E+03  0.7546771E-02  0.1280296E+00
         21   -1    0    0  501  502  0.00000000000E+00  0.00000000000E+00  0.15398118295E+03  0.15398118295E+03  0.00000000000E+00 0. -1.
         21   -1    0    0  502  503 -0.00000000000E+00 -0.00000000000E+00 -0.74467637615E+03  0.74467637615E+03  0.00000000000E+00 0.  1.
          6    1    1    2  501    0  0.99990231238E+02 -0.17189133792E+03 -0.13262809287E+02  0.26391206965E+03  0.17300000000E+03 0. -1.
         -6    1    1    2    0  503 -0.99990231238E+02  0.17189133792E+03 -0.57743238391E+03  0.63474548946E+03  0.17300000000E+03 0.  1.
</event>
<event>
 4    1  0.6020852E+000  0.1000000E+03  0.7546771E-02  0.1280296E+00
         21   -1    0    0  501  502  0.00000000000E+00  0.00000000000E+00  0.16678226086E+03  0.16678226086E+03  0.00000000000E+00 0. -1.
         21   -1    0    0  502  503 -0.00000000000E+00 -0.00000000000E+00 -0.21886259695E+03  0.21886259695E+03  0.00000000000E+00 0.  1.
          6    1    1    2  501    0 -0.24843584806E+02 -0.54476886494E+02 -0.81212437879E+02  0.20027330060E+03  0.17300000000E+03 0. -1.
         -6    1    1    2    0  503  0.24843584806E+02  0.54476886494E+02  0.29132101794E+02  0.18537155721E+03  0.17300000000E+03 0.  1.
</event>
<event>
 4    1  0.6020852E+000  0.1000000E+03  0.7546771E-02  0.1280296E+00
         21   -1    0    0  503  502  0.00000000000E+00  0.00000000000E+00  0.21810084655E+04  0.21810084655E+04  0.00000000000E+00 0. -1.
         21   -1    0    0  501  503 -0.00000000000E+00 -0.00000000000E+00 -0.42523341145E+02  0.42523341145E+02  0.00000000000E+00 0. -1.
          6    1    1    2  501    0  0.40511997322E+02 -0.40335647613E+02  0.17840319955E+03  0.25499978040E+03  0.17300000000E+03 0. -1.
         -6    1    1    2    0  502 -0.40511997322E+02  0.40335647613E+02  0.19600819248E+04  0.19685320262E+04  0.17300000000E+03 0. -1.
</event>
<event>
 4    1  0.6020852E+000  0.1000000E+03  0.7546771E-02  0.1280296E+00
         21   -1    0    0  503  502  0.00000000000E+00  0.00000000000E+00  0.26053012068E+03  0.26053012068E+03  0.00000000000E+00 0. -1.
         21   -1    0    0  501  503 -0.00000000000E+00 -0.00000000000E+00 -0.24003481262E+03  0.24003481262E+03  0.00000000000E+00 0. -1.
          6    1    1    2  501    0 -0.12388221503E+03  0.11442872477E+03  0.74850743506E+02  0.25292759845E+03  0.17300000000E+03 0. -1.
         -6    1    1    2    0  502  0.12388221503E+03 -0.11442872477E+03 -0.54355435447E+02  0.24763733486E+03  0.17300000000E+03 0. -1.
</event>
<event>
 4    1  0.6020852E+000  0.1000000E+03  0.7546771E-02  0.1280296E+00
         21   -1    0    0  503  502  0.00000000000E+00  0.00000000000E+00  0.18730924462E+03  0.18730924462E+03  0.00000000000E+00 0. -1.
         21   -1    0    0  501  503 -0.00000000000E+00 -0.00000000000E+00 -0.36707257351E+03  0.36707257351E+03  0.00000000000E+00 0. -1.
          6    1    1    2  501    0 -0.12699601337E+02 -0.19599522812E+03 -0.73111192036E+02  0.27175293139E+03  0.17300000000E+03 0. -1.
         -6    1    1    2    0  502  0.12699601337E+02  0.19599522812E+03 -0.10665213686E+03  0.28262888673E+03  0.17300000000E+03 0. -1.
</event>
<event>
 4    1  0.6020852E+000  0.1000000E+03  0.7546771E-02  0.1280296E+00
         21   -1    0    0  503  502  0.00000000000E+00  0.00000000000E+00  0.26146279116E+03  0.26146279116E+03  0.00000000000E+00 0. -1.
         21   -1    0    0  501  503 -0.00000000000E+00 -0.00000000000E+00 -0.22666872460E+03  0.22666872460E+03  0.00000000000E+00 0. -1.
          6    1    1    2  501    0  0.15956843785E+03 -0.43225311942E+02  0.62298784955E+02  0.24726635953E+03  0.17300000000E+03 0. -1.
         -6    1    1    2    0  502 -0.15956843785E+03  0.43225311942E+02 -0.27504718394E+02  0.24086515623E+03  0.17300000000E+03 0. -1.
</event>
<event>
 4    1  0.6020852E+000  0.1000000E+03  0.7546771E-02  0.1280296E+00
         21   -1    0    0  503  502  0.00000000000E+00  0.00000000000E+00  0.29752355898E+03  0.29752355898E+03  0.00000000000E+00 0. -1.
         21   -1    0    0  501  503 -0.00000000000E+00 -0.00000000000E+00 -0.13205279636E+03  0.13205279636E+03  0.00000000000E+00 0.  1.
          6    1    1    2  501    0 -0.56032317290E+02  0.25408290946E+02  0.18288885925E+01  0.18362338267E+03  0.17300000000E+03 0.  1.
         -6    1    1    2    0  502  0.56032317290E+02 -0.25408290946E+02  0.16364187403E+03  0.24595297267E+03  0.17300000000E+03 0. -1.
</event>
<event>
 4    1  0.6020852E+000  0.1000000E+03  0.7546771E-02  0.1280296E+00
         21   -1    0    0  503  502  0.00000000000E+00  0.00000000000E+00  0.52371199521E+03  0.52371199521E+03  0.00000000000E+00 0. -1.
         21   -1    0    0  501  503 -0.00000000000E+00 -0.00000000000E+00 -0.26653168264E+03  0.26653168264E+03  0.00000000000E+00 0.  1.
          6    1    1    2  501    0  0.20239202576E+03 -0.21544239955E+02 -0.14765745136E+03  0.30521862543E+03  0.17300000000E+03 0.  1.
         -6    1    1    2    0  502 -0.20239202576E+03  0.21544239955E+02  0.40483776393E+03  0.48502505242E+03  0.17300000000E+03 0. -1.
</event>
<event>
 4    1  0.6020852E+000  0.1000000E+03  0.7546771E-02  0.1280296E+00
         21   -1    0    0  501  502  0.00000000000E+00  0.00000000000E+00  0.23671842560E+03  0.23671842560E+03  0.00000000000E+00 0. -1.
         21   -1    0    0  502  503 -0.00000000000E+00 -0.00000000000E+00 -0.56113545757E+03  0.56113545757E+03  0.00000000000E+00 0. -1.
          6    1    1    2  501    0 -0.12932776163E+03 -0.25896831961E+03 -0.10889068140E+02  0.33739862521E+03  0.17300000000E+03 0. -1.
         -6    1    1    2    0  503  0.12932776163E+03  0.25896831961E+03 -0.31352796383E+03  0.46045525797E+03  0.17300000000E+03 0. -1.
</event>
<event>
 4    1  0.6020852E+000  0.1000000E+03  0.7546771E-02  0.1280296E+00
         21   -1    0    0  501  502  0.00000000000E+00  0.00000000000E+00  0.96878899919E+02  0.96878899919E+02  0.00000000000E+00 0. -1.
         21   -1    0    0  502  503 -0.00000000000E+00 -0.00000000000E+00 -0.12572014224E+04  0.12572014224E+04  0.00000000000E+00 0. -1.
          6    1    1    2  501    0  0.10995936982E+03 -0.40389816330E+02 -0.37851160324E+02  0.21233019242E+03  0.17300000000E+03 0. -1.
         -6    1    1    2    0  503 -0.10995936982E+03  0.40389816330E+02 -0.11224713621E+04  0.11417501299E+04  0.17300000000E+03 0. -1.
</event>
<event>
 4    1  0.6020852E+000  0.1000000E+03  0.7546771E-02  0.1280296E+00
         21   -1    0    0  501  502  0.00000000000E+00  0.00000000000E+00  0.56767550532E+03  0.56767550532E+03  0.00000000000E+00 0. -1.
         21   -1    0    0  502  503 -0.00000000000E+00 -0.00000000000E+00 -0.18569731642E+03  0.18569731642E+03  0.00000000000E+00 0. -1.
          6    1    1    2  501    0 -0.17436343484E+03  0.98193224294E+02  0.40940688916E+03  0.48742950013E+03  0.17300000000E+03 0. -1.
         -6    1    1    2    0  503  0.17436343484E+03 -0.98193224294E+02 -0.27428700270E+02  0.26594332160E+03  0.17300000000E+03 0. -1.
</event>
<event>
 4    1  0.6020852E+000  0.1000000E+03  0.7546771E-02  0.1280296E+00
         21   -1    0    0  501  502  0.00000000000E+00  0.00000000000E+00  0.10466072560E+03  0.10466072560E+03  0.00000000000E+00 0.  1.
         21   -1    0    0  502  503 -0.00000000000E+00 -0.00000000000E+00 -0.54776602544E+03  0.54776602544E+03  0.00000000000E+00 0.  1.
          6    1    1    2  501    0 -0.51830379738E+02 -0.90794752112E+01 -0.77268478810E+01  0.18099041221E+03  0.17300000000E+03 0.  1.
         -6    1    1    2    0  503  0.51830379738E+02  0.90794752112E+01 -0.43537845196E+03  0.47143633882E+03  0.17300000000E+03 0.  1.
</event>
<event>
 4    1  0.6020852E+000  0.1000000E+03  0.7546771E-02  0.1280296E+00
         21   -1    0    0  501  502  0.00000000000E+00  0.00000000000E+00  0.17237806776E+04  0.17237806776E+04  0.00000000000E+00 0.  1.
         21   -1    0    0  502  503 -0.00000000000E+00 -0.00000000000E+00 -0.24132253302E+02  0.24132253302E+02  0.00000000000E+00 0.  1.
          6    1    1    2  501    0 -0.71761549600E+02  0.47478886609E+02  0.11296884581E+04  0.11460929182E+04  0.17300000000E+03 0.  1.
         -6    1    1    2    0  503  0.71761549600E+02 -0.47478886609E+02  0.56995996614E+03  0.60182001270E+03  0.17300000000E+03 0.  1.
</event>
<event>
 4    1  0.6020852E+000  0.1000000E+03  0.7546771E-02  0.1280296E+00
         21   -1    0    0  503  502  0.00000000000E+00  0.00000000000E+00  0.11066644539E+03  0.11066644539E+03  0.00000000000E+00 0. -1.
         21   -1    0    0  501  503 -0.00000000000E+00 -0.00000000000E+00 -0.37191624003E+03  0.37191624003E+03  0.00000000000E+00 0. -1.
          6    1    1    2  501    0  0.71412039839E+02  0.74276994741E+02 -0.16006944559E+03  0.25723137210E+03  0.17300000000E+03 0. -1.
         -6    1    1    2    0  502 -0.71412039839E+02 -0.74276994741E+02 -0.10118034904E+03  0.22535131332E+03  0.17300000000E+03 0. -1.
</event>
<event>
 4    1  0.6020852E+000  0.1000000E+03  0.7546771E-02  0.1280296E+00
         21   -1    0    0  503  502  0.00000000000E+00  0.00000000000E+00  0.32696194365E+03  0.32696194365E+03  0.00000000000E+00 0. -1.
         21   -1    0    0  501  503 -0.00000000000E+00 -0.00000000000E+00 -0.51713580087E+03  0.51713580087E+03  0.00000000000E+00 0. -1.
          6    1    1    2  501    0 -0.76913652141E+02  0.43583804240E+02 -0.46705825744E+03  0.50585341130E+03  0.17300000000E+03 0. -1.
         -6    1    1    2    0  502  0.76913652141E+02 -0.43583804240E+02  0.27688440021E+03  0.33824433322E+03  0.17300000000E+03 0. -1.
</event>
<event>
 4    1  0.6020852E+000  0.1000000E+03  0.7546771E-02  0.1280296E+00
         21   -1    0    0  503  502  0.00000000000E+00  0.00000000000E+00  0.94055305019E+03  0.94055305019E+03  0.00000000000E+00 0. -1.
         21   -1    0    0  501  503 -0.00000000000E+00 -0.00000000000E+00 -0.62014128034E+02  0.62014128034E+02  0.00000000000E+00 0. -1.
          6    1    1    2  501    0 -0.64211871445E+01 -0.27655869603E+01  0.89790746090E+02  0.19503911966E+03  0.17300000000E+03 0. -1.
         -6    1    1    2    0  502  0.64211871445E+01  0.27655869603E+01  0.78874817606E+03  0.80752805856E+03  0.17300000000E+03 0. -1.
</event>
<event>
 4    1  0.6020852E+000  0.1000000E+03  0.7546771E-02  0.1280296E+00
         21   -1    0    0  501  502  0.00000000000E+00  0.00000000000E+00  0.94582417925E+03  0.94582417925E+03  0.00000000000E+00 0.  1.
         21   -1    0    0  502  503 -0.00000000000E+00 -0.00000000000E+00 -0.52225146052E+02  0.52225146052E+02  0.00000000000E+00 0.  1.
          6    1    1    2  501    0  0.41049106169E+01 -0.13931907736E+03  0.46102677879E+03  0.51176297870E+03  0.17300000000E+03 0.  1.
         -6    1    1    2    0  503 -0.41049106169E+01  0.13931907736E+03  0.43257225441E+03  0.48628634660E+03  0.17300000000E+03 0.  1.
</event>
<event>
 4    1  0.6020852E+000  0.1000000E+03  0.7546771E-02  0.1280296E+00
         21   -1    0    0  501  502  0.00000000000E+00  0.00000000000E+00  0.64576489475E+02  0.64576489475E+02  0.00000000000E+00 0.  1.
         21   -1    0    0  502  503 -0.00000000000E+00 -0.00000000000E+00 -0.47637351210E+03  0.47637351210E+03  0.00000000000E+00 0.  1.
          6    1    1    2  501    0  0.40152434020E+01  0.18854069075E+02 -0.23904249157E+03  0.29570578432E+03  0.17300000000E+03 0.  1.
         -6    1    1    2    0  503 -0.40152434020E+01 -0.18854069075E+02 -0.17275453105E+03  0.24524421726E+03  0.17300000000E+03 0.  1.
</event>
<event>
 4    1  0.6020852E+000  0.1000000E+03  0.7546771E-02  0.1280296E+00
         21   -1    0    0  501  502  0.00000000000E+00  0.00000000000E+00  0.21382050141E+03  0.21382050141E+03  0.00000000000E+00 0. -1.
         21   -1    0    0  502  503 -0.00000000000E+00 -0.00000000000E+00 -0.17168312049E+03  0.17168312049E+03  0.00000000000E+00 0. -1.
          6    1    1    2  501    0 -0.75936966180E+02  0.17712464764E+02 -0.55524230791E+01  0.18984199652E+03  0.17300000000E+03 0. -1.
         -6    1    1    2    0  503  0.75936966180E+02 -0.17712464764E+02  0.47689803999E+02  0.19566162538E+03  0.17300000000E+03 0. -1.
</event>
<event>
 4    1  0.6020852E+000  0.1000000E+03  0.7546771E-02  0.1280296E+00
         21   -1    0    0  501  502  0.00000000000E+00  0.00000000000E+00  0.86420271837E+02  0.86420271837E+02  0.00000000000E+00 0. -1.
         21   -1    0    0  502  503 -0.00000000000E+00 -0.00000000000E+00 -0.65406064363E+03  0.65406064363E+03  0.00000000000E+00 0. -1.
          6    1    1    2  501    0 -0.54338909004E+02 -0.15374269146E+03 -0.28749431732E+03  0.37305698586E+03  0.17300000000E+03 0. -1.
         -6    1    1    2    0  503  0.54338909004E+02  0.15374269146E+03 -0.28014605447E+03  0.36742392960E+03  0.17300000000E+03 0. -1.
</event>
<event>
 4    1  0.6020852E+000  0.1000000E+03  0.7546771E-02  0.1280296E+00
         21   -1    0    0  501  502  0.00000000000E+00  0.00000000000E+00  0.15707523273E+04  0.15707523273E+04  0.00000000000E+00 0. -1.
         21   -1    0    0  502  503 -0.00000000000E+00 -0.00000000000E+00 -0.79740203501E+02  0.79740203501E+02  0.00000000000E+00 0. -1.
          6    1    1    2  501    0  0.89723140930E+02 -0.12449685413E+03  0.13702079325E+04  0.13895857250E+04  0.17300000000E+03 0. -1.
         -6    1    1    2    0  503 -0.89723140930E+02  0.12449685413E+03  0.12080419132E+03  0.26090680587E+03  0.17300000000E+03 0. -1.
</event>
<event>
 4    1  0.6020852E+000  0.1000000E+03  0.7546771E-02  0.1280296E+00
         21   -1    0    0  501  502  0.00000000000E+00  0.00000000000E+00  0.20131335602E+03  0.20131335602E+03  0.00000000000E+00 0. -1.
         21   -1    0    0  502  503 -0.00000000000E+00 -0.00000000000E+00 -0.15894481896E+03  0.15894481896E+03  0.00000000000E+00 0. -1.
          6    1    1    2  501    0 -0.29868866943E+02  0.25567839918E+02  0.44210000933E+02  0.18283705268E+03  0.17300000000E+03 0. -1.
         -6    1    1    2    0  503  0.29868866943E+02 -0.25567839918E+02 -0.18414638742E+01  0.17742112230E+03  0.17300000000E+03 0. -1.
</event>
<event>
 4    1  0.6020852E+000  0.1000000E+03  0.7546771E-02  0.1280296E+00
         21   -1    0    0  501  502  0.00000000000E+00  0.00000000000E+00  0.73011227040E+02  0.73011227040E+02  0.00000000000E+00 0. -1.
         21   -1    0    0  502  503 -0.00000000000E+00 -0.00000000000E+00 -0.66269105065E+03  0.66269105065E+03  0.00000000000E+00 0.  1.
          6    1    1    2  501    0 -0.90711084701E+02  0.10067479946E+03 -0.27888948492E+03  0.35506655846E+03  0.17300000000E+03 0. -1.
         -6    1    1    2    0  503  0.90711084701E+02 -0.10067479946E+03 -0.31079033869E+03  0.38063571923E+03  0.17300000000E+03 0.  1.
</event>
<event>
 4    1  0.6020852E+000  0.1000000E+03  0.7546771E-02  0.1280296E+00
         21   -1    0    0  501  502  0.00000000000E+00  0.00000000000E+00  0.21730089841E+03  0.21730089841E+03  0.00000000000E+00 0. -1.
         21   -1    0    0  502  503 -0.00000000000E+00 -0.00000000000E+00 -0.91118934377E+03  0.91118934377E+03  0.00000000000E+00 0.  1.
          6    1    1    2  501    0 -0.29731940705E+03  0.16387476221E+03 -0.55517172750E+02  0.38505184582E+03  0.17300000000E+03 0. -1.
         -6    1    1    2    0  503  0.29731940705E+03 -0.16387476221E+03 -0.63837127261E+03  0.74343839637E+03  0.17300000000E+03 0.  1.
</event>
<event>
 4    1  0.6020852E+000  0.1000000E+03  0.7546771E-02  0.1280296E+00
         21   -1    0    0  501  502  0.00000000000E+00  0.00000000000E+00  0.11643392098E+03  0.11643392098E+03  0.00000000000E+00 0. -1.
         21   -1    0    0  502  503 -0.00000000000E+00 -0.00000000000E+00 -0.33043528447E+03  0.33043528447E+03  0.00000000000E+00 0. -1.
          6    1    1    2  501    0  0.14402596710E+02  0.46341996587E+02 -0.17380073185E+02  0.18051615546E+03  0.17300000000E+03 0. -1.
         -6    1    1    2    0  503 -0.14402596710E+02 -0.46341996587E+02 -0.19662129030E+03  0.26635304999E+03  0.17300000000E+03 0. -1.
</event>
<event>
 4    1  0.6020852E+000  0.1000000E+03  0.7546771E-02  0.1280296E+00
         21   -1    0    0  501  502  0.00000000000E+00  0.00000000000E+00  0.53459352325E+02  0.53459352325E+02  0.00000000000E+00 0. -1.
         21   -1    0    0  502  503 -0.00000000000E+00 -0.00000000000E+00 -0.56759389085E+03  0.56759389085E+03  0.00000000000E+00 0. -1.
          6    1    1    2  501    0 -0.12559254063E+02 -0.92775571049E+01 -0.28033720085E+03  0.32979047001E+03  0.17300000000E+03 0. -1.
         -6    1    1    2    0  503  0.12559254063E+02  0.92775571049E+01 -0.23379733768E+03  0.29126277317E+03  0.17300000000E+03 0. -1.
</event>
<event>
 4    1  0.6020852E+000  0.1000000E+03  0.7546771E-02  0.1280296E+00
         21   -1    0    0  501  502  0.00000000000E+00  0.00000000000E+00  0.51698023353E+03  0.51698023353E+03  0.00000000000E+00 0.  1.
         21   -1    0    0  502  503 -0.00000000000E+00 -0.00000000000E+00 -0.78738302482E+02  0.78738302482E+02  0.00000000000E+00 0.  1.
          6    1    1    2  501    0 -0.88497440127E+02 -0.50950727159E+02  0.24671565318E+03  0.31815937363E+03  0.17300000000E+03 0.  1.
         -6    1    1    2    0  503  0.88497440127E+02  0.50950727159E+02  0.19152627787E+03  0.27755916238E+03  0.17300000000E+03 0.  1.
</event>
<event>
 4    1  0.6020852E+000  0.1000000E+03  0.7546771E-02  0.1280296E+00
         21   -1    0    0  501  502  0.00000000000E+00  0.00000000000E+00  0.26425167780E+03  0.26425167780E+03  0.00000000000E+00 0.  1.
         21   -1    0    0  502  503 -0.00000000000E+00 -0.00000000000E+00 -0.15466741854E+03  0.15466741854E+03  0.00000000000E+00 0.  1.
          6    1    1    2  501    0  0.57137765898E+02 -0.27410952160E+02  0.14101736191E+03  0.23201504467E+03  0.17300000000E+03 0.  1.
         -6    1    1    2    0  503 -0.57137765898E+02  0.27410952160E+02 -0.31433102647E+02  0.18690405167E+03  0.17300000000E+03 0.  1.
</event>
<event>
 4    1  0.6020852E+000  0.1000000E+03  0.7546771E-02  0.1280296E+00
         21   -1    0    0  501  502  0.00000000000E+00  0.00000000000E+00  0.12725594859E+03  0.12725594859E+03  0.00000000000E+00 0.  1.
         21   -1    0    0  502  503 -0.00000000000E+00 -0.00000000000E+00 -0.31583552942E+03  0.31583552942E+03  0.00000000000E+00 0. -1.
          6    1    1    2  501    0 -0.10016939119E+03 -0.60517335969E+01 -0.10961895141E+03  0.22806982465E+03  0.17300000000E+03 0.  1.
         -6    1    1    2    0  503  0.10016939119E+03  0.60517335969E+01 -0.78960629424E+02  0.21502165335E+03  0.17300000000E+03 0. -1.
</event>
<event>
 4    1  0.6020852E+000  0.1000000E+03  0.7546771E-02  0.1280296E+00
         21   -1    0    0  501  502  0.00000000000E+00  0.00000000000E+00  0.51990247567E+03  0.51990247567E+03  0.00000000000E+00 0.  1.
         21   -1    0    0  502  503 -0.00000000000E+00 -0.00000000000E+00 -0.14894304015E+03  0.14894304015E+03  0.00000000000E+00 0.  1.
          6    1    1    2  501    0  0.96858941387E+02  0.32404221883E+02 -0.45921869353E+02  0.20608130970E+03  0.17300000000E+03 0.  1.
         -6    1    1    2    0  503 -0.96858941387E+02 -0.32404221883E+02  0.41688130487E+03  0.46276420613E+03  0.17300000000E+03 0.  1.
</event>
<event>
 4    1  0.6020852E+000  0.1000000E+03  0.7546771E-02  0.1280296E+00
         21   -1    0    0  501  502  0.00000000000E+00  0.00000000000E+00  0.41362902960E+03  0.41362902960E+03  0.00000000000E+00 0.  1.
         21   -1    0    0  502  503 -0.00000000000E+00 -0.00000000000E+00 -0.13902292299E+03  0.13902292299E+03  0.00000000000E+00 0.  1.
          6    1    1    2  501    0  0.30517489652E+02 -0.10738858681E+03  0.27895540335E+03  0.34671132489E+03  0.17300000000E+03 0.  1.
         -6    1    1    2    0  503 -0.30517489652E+02  0.10738858681E+03 -0.43492967396E+01  0.20594062769E+03  0.17300000000E+03 0.  1.
</event>
<event>
 4    1  0.6020852E+000  0.1000000E+03  0.7546771E-02  0.1280296E+00
         21   -1    0    0  503  502  0.00000000000E+00  0.00000000000E+00  0.27225352336E+03  0.27225352336E+03  0.00000000000E+00 0.  1.
         21   -1    0    0  501  503 -0.00000000000E+00 -0.00000000000E+00 -0.15719118780E+04  0.15719118780E+04  0.00000000000E+00 0.  1.
          6    1    1    2  501    0  0.59617196242E+02  0.35253375502E+03 -0.13824983317E+04  0.14384244491E+04  0.17300000000E+03 0.  1.
         -6    1    1    2    0  502 -0.59617196242E+02 -0.35253375502E+03  0.82839977122E+02  0.40574095224E+03  0.17300000000E+03 0.  1.
</event>
<event>
 4    1  0.6020852E+000  0.1000000E+03  0.7546771E-02  0.1280296E+00
         21   -1    0    0  503  502  0.00000000000E+00  0.00000000000E+00  0.15231408741E+03  0.15231408741E+03  0.00000000000E+00 0.  1.
         21   -1    0    0  501  503 -0.00000000000E+00 -0.00000000000E+00 -0.25412245999E+03  0.25412245999E+03  0.00000000000E+00 0.  1.
          6    1    1    2  501    0  0.75097618585E+02 -0.52335924653E+02 -0.71529959932E+02  0.20838482789E+03  0.17300000000E+03 0.  1.
         -6    1    1    2    0  502 -0.75097618585E+02  0.52335924653E+02 -0.30278412651E+02  0.19805171951E+03  0.17300000000E+03 0.  1.
</event>
<event>
 4    1  0.6020852E+000  0.1000000E+03  0.7546771E-02  0.1280296E+00
         21   -1    0    0  503  502  0.00000000000E+00  0.00000000000E+00  0.55540739775E+03  0.55540739775E+03  0.00000000000E+00 0. -1.
         21   -1    0    0  501  503 -0.00000000000E+00 -0.00000000000E+00 -0.24032950225E+03  0.24032950225E+03  0.00000000000E+00 0. -1.
          6    1    1    2  501    0  0.37899045655E+02 -0.12213440761E+03 -0.16403804161E+03  0.27053766887E+03  0.17300000000E+03 0. -1.
         -6    1    1    2    0  502 -0.37899045655E+02  0.12213440761E+03  0.47911593711E+03  0.52519923113E+03  0.17300000000E+03 0. -1.
</event>
<event>
 4    1  0.6020852E+000  0.1000000E+03  0.7546771E-02  0.1280296E+00
         21   -1    0    0  503  502  0.00000000000E+00  0.00000000000E+00  0.25549465441E+02  0.25549465441E+02  0.00000000000E+00 0. -1.
         21   -1    0    0  501  503 -0.00000000000E+00 -0.00000000000E+00 -0.14742265700E+04  0.14742265700E+04  0.00000000000E+00 0. -1.
          6    1    1    2  501    0 -0.70724126260E+02  0.60499198416E+01 -0.92504449631E+03  0.94375570129E+03  0.17300000000E+03 0.  1.
         -6    1    1    2    0  502  0.70724126260E+02 -0.60499198416E+01 -0.52363260824E+03  0.55602033414E+03  0.17300000000E+03 0.  1.
</event>
<event>
 4    1  0.6020852E+000  0.1000000E+03  0.7546771E-02  0.1280296E+00
         21   -1    0    0  503  502  0.00000000000E+00  0.00000000000E+00  0.93719647091E+02  0.93719647091E+02  0.00000000000E+00 0. -1.
         21   -1    0    0  501  503 -0.00000000000E+00 -0.00000000000E+00 -0.77171139268E+03  0.77171139268E+03  0.00000000000E+00 0. -1.
          6    1    1    2  501    0  0.39304626396E+02  0.51675473021E+02 -0.65339362028E+03  0.67901946305E+03  0.17300000000E+03 0.  1.
         -6    1    1    2    0  502 -0.39304626396E+02 -0.51675473021E+02 -0.24598125305E+02  0.18641157672E+03  0.17300000000E+03 0.  1.
</event>
<event>
 4    1  0.6020852E+000  0.1000000E+03  0.7546771E-02  0.1280296E+00
         21   -1    0    0  503  502  0.00000000000E+00  0.00000000000E+00  0.17834594599E+03  0.17834594599E+03  0.00000000000E+00 0.  1.
         21   -1    0    0  501  503 -0.00000000000E+00 -0.00000000000E+00 -0.23665823634E+03  0.23665823634E+03  0.00000000000E+00 0.  1.
          6    1    1    2  501    0  0.29650523779E+02 -0.10629518910E+03 -0.19045028484E+02  0.20608137688E+03  0.17300000000E+03 0.  1.
         -6    1    1    2    0  502 -0.29650523779E+02  0.10629518910E+03 -0.39267261872E+02  0.20892280546E+03  0.17300000000E+03 0.  1.
</event>
<event>
 4    1  0.6020852E+000  0.1000000E+03  0.7546771E-02  0.1280296E+00
         21   -1    0    0  503  502  0.00000000000E+00  0.00000000000E+00  0.13617242883E+03  0.13617242883E+03  0.00000000000E+00 0.  1.
         21   -1    0    0  501  503 -0.00000000000E+00 -0.00000000000E+00 -0.43645952634E+03  0.43645952634E+03  0.00000000000E+00 0. -1.
          6    1    1    2  501    0  0.13528748260E+03  0.75243099946E+02 -0.23756228657E+03  0.33215819580E+03  0.17300000000E+03 0. -1.
         -6    1    1    2    0  502 -0.13528748260E+03 -0.75243099946E+02 -0.62724810939E+02  0.24047375937E+03  0.17300000000E+03 0.  1.
</event>
<event>
 4    1  0.6020852E+000  0.1000000E+03  0.7546771E-02  0.1280296E+00
         21   -1    0    0  503  502  0.00000000000E+00  0.00000000000E+00  0.92996548215E+02  0.92996548215E+02  0.00000000000E+00 0.  1.
         21   -1    0    0  501  503 -0.00000000000E+00 -0.00000000000E+00 -0.55784704278E+03  0.55784704278E+03  0.00000000000E+00 0. -1.
          6    1    1    2  501    0 -0.22357807515E+02  0.16515085815E+02 -0.44033744801E+03  0.47391843996E+03  0.17300000000E+03 0. -1.
         -6    1    1    2    0  502  0.22357807515E+02 -0.16515085815E+02 -0.24513046554E+02  0.17692515103E+03  0.17300000000E+03 0.  1.
</event>
<event>
 4    1  0.6020852E+000  0.1000000E+03  0.7546771E-02  0.1280296E+00
         21   -1    0    0  503  502  0.00000000000E+00  0.00000000000E+00  0.10326740005E+03  0.10326740005E+03  0.00000000000E+00 0.  1.
         21   -1    0    0  501  503 -0.00000000000E+00 -0.00000000000E+00 -0.14464894529E+04  0.14464894529E+04  0.00000000000E+00 0.  1.
          6    1    1    2  501    0  0.18003617566E+03  0.13890719079E+03 -0.11934186386E+04  0.12271451744E+04  0.17300000000E+03 0.  1.
         -6    1    1    2    0  502 -0.18003617566E+03 -0.13890719079E+03 -0.14980341430E+03  0.32261167855E+03  0.17300000000E+03 0.  1.
</event>
<event>
 4    1  0.6020852E+000  0.1000000E+03  0.7546771E-02  0.1280296E+00
         21   -1    0    0  503  502  0.00000000000E+00  0.00000000000E+00  0.71150409129E+03  0.71150409129E+03  0.00000000000E+00 0.  1.
         21   -1    0    0  501  503 -0.00000000000E+00 -0.00000000000E+00 -0.55676276295E+02  0.55676276295E+02  0.00000000000E+00 0.  1.
          6    1    1    2  501    0  0.92707384398E+02 -0.20523432632E+02  0.37776398391E+03  0.42620476059E+03  0.17300000000E+03 0.  1.
         -6    1    1    2    0  502 -0.92707384398E+02  0.20523432632E+02  0.27806383109E+03  0.34097560700E+03  0.17300000000E+03 0.  1.
</event>
<event>
 4    1  0.6020852E+000  0.1000000E+03  0.7546771E-02  0.1280296E+00
         21   -1    0    0  503  502  0.00000000000E+00  0.00000000000E+00  0.16608388578E+03  0.16608388578E+03  0.00000000000E+00 0.  1.
         21   -1    0    0  501  503 -0.00000000000E+00 -0.00000000000E+00 -0.45081071067E+03  0.45081071067E+03  0.00000000000E+00 0. -1.
          6    1    1    2  501    0 -0.48344824067E+02 -0.54813512703E+02 -0.36668793763E+03  0.41198396424E+03  0.17300000000E+03 0. -1.
         -6    1    1    2    0  502  0.48344824067E+02  0.54813512703E+02  0.81961112736E+02  0.20491063220E+03  0.17300000000E+03 0.  1.
</event>
<event>
 4    1  0.6020852E+000  0.1000000E+03  0.7546771E-02  0.1280296E+00
         21   -1    0    0  501  502  0.00000000000E+00  0.00000000000E+00  0.95535454635E+02  0.95535454635E+02  0.00000000000E+00 0.  1.
         21   -1    0    0  502  503 -0.00000000000E+00 -0.00000000000E+00 -0.73277646335E+03  0.73277646335E+03  0.00000000000E+00 0.  1.
          6    1    1    2  501    0 -0.29069678748E+01  0.12421084781E+03 -0.72912511261E+02  0.22512667429E+03  0.17300000000E+03 0.  1.
         -6    1    1    2    0  503  0.29069678748E+01 -0.12421084781E+03 -0.56432849745E+03  0.60318524370E+03  0.17300000000E+03 0.  1.
</event>
<event>
 4    1  0.6020852E+000  0.1000000E+03  0.7546771E-02  0.1280296E+00
         21   -1    0    0  503  502  0.00000000000E+00  0.00000000000E+00  0.30969987427E+03  0.30969987427E+03  0.00000000000E+00 0.  1.
         21   -1    0    0  501  503 -0.00000000000E+00 -0.00000000000E+00 -0.19255826941E+03  0.19255826941E+03  0.00000000000E+00 0. -1.
          6    1    1    2  501    0  0.63736749439E+02  0.11490851581E+03 -0.56126812207E+02  0.22437816134E+03  0.17300000000E+03 0. -1.
         -6    1    1    2    0  502 -0.63736749439E+02 -0.11490851581E+03  0.17326841706E+03  0.27787998234E+03  0.17300000000E+03 0.  1.
</event>
<event>
 4    1  0.6020852E+000  0.1000000E+03  0.7546771E-02  0.1280296E+00
         21   -1    0    0  503  502  0.00000000000E+00  0.00000000000E+00  0.24127066508E+03  0.24127066508E+03  0.00000000000E+00 0.  1.
         21   -1    0    0  501  503 -0.00000000000E+00 -0.00000000000E+00 -0.26812774857E+03  0.26812774857E+03  0.00000000000E+00 0. -1.
          6    1    1    2  501    0  0.28606828154E+02 -0.16224320280E+03 -0.10084934331E+03  0.25930830592E+03  0.17300000000E+03 0. -1.
         -6    1    1    2    0  502 -0.28606828154E+02  0.16224320280E+03  0.73992259821E+02  0.25009010773E+03  0.17300000000E+03 0.  1.
</event>
<event>
 4    1  0.6020852E+000  0.1000000E+03  0.7546771E-02  0.1280296E+00
         21   -1    0    0  503  502  0.00000000000E+00  0.00000000000E+00  0.13498970730E+03  0.13498970730E+03  0.00000000000E+00 0.  1.
         21   -1    0    0  501  503 -0.00000000000E+00 -0.00000000000E+00 -0.33986183050E+03  0.33986183050E+03  0.00000000000E+00 0. -1.
          6    1    1    2  501    0  0.80923017783E+02 -0.78624238837E+02 -0.16532235623E+03  0.26455771999E+03  0.17300000000E+03 0. -1.
         -6    1    1    2    0  502 -0.80923017783E+02  0.78624238837E+02 -0.39549766978E+02  0.21029381781E+03  0.17300000000E+03 0.  1.
</event>
<event>
 4    1  0.6020852E+000  0.1000000E+03  0.7546771E-02  0.1280296E+00
         21   -1    0    0  503  502  0.00000000000E+00  0.00000000000E+00  0.17070097396E+04  0.17070097396E+04  0.00000000000E+00 0.  1.
         21   -1    0    0  501  503 -0.00000000000E+00 -0.00000000000E+00 -0.55815755428E+02  0.55815755428E+02  0.00000000000E+00 0.  1.
          6    1    1    2  501    0 -0.16080281665E+02  0.87812491423E+02  0.14158922165E+03  0.24071999667E+03  0.17300000000E+03 0.  1.
         -6    1    1    2    0  502  0.16080281665E+02 -0.87812491423E+02  0.15096047625E+04  0.15221054984E+04  0.17300000000E+03 0.  1.
</event>
<event>
 4    1  0.6020852E+000  0.1000000E+03  0.7546771E-02  0.1280296E+00
         21   -1    0    0  503  502  0.00000000000E+00  0.00000000000E+00  0.64550625519E+02  0.64550625519E+02  0.00000000000E+00 0.  1.
         21   -1    0    0  501  503 -0.00000000000E+00 -0.00000000000E+00 -0.49226700967E+03  0.49226700967E+03  0.00000000000E+00 0.  1.
          6    1    1    2  501    0 -0.23147367218E+02  0.10097812322E+02 -0.15954401044E+03  0.23668767963E+03  0.17300000000E+03 0.  1.
         -6    1    1    2    0  502  0.23147367218E+02 -0.10097812322E+02 -0.26817237372E+03  0.32012995556E+03  0.17300000000E+03 0.  1.
</event>
<event>
 4    1  0.6020852E+000  0.1000000E+03  0.7546771E-02  0.1280296E+00
         21   -1    0    0  503  502  0.00000000000E+00  0.00000000000E+00  0.92724572884E+03  0.92724572884E+03  0.00000000000E+00 0.  1.
         21   -1    0    0  501  503 -0.00000000000E+00 -0.00000000000E+00 -0.39398779450E+02  0.39398779450E+02  0.00000000000E+00 0.  1.
          6    1    1    2  501    0  0.47150864029E+02 -0.28416265602E+02  0.29277841966E+03  0.34449802778E+03  0.17300000000E+03 0.  1.
         -6    1    1    2    0  502 -0.47150864029E+02  0.28416265602E+02  0.59506852974E+03  0.62214648051E+03  0.17300000000E+03 0.  1.
</event>
<event>
 4    1  0.6020852E+000  0.1000000E+03  0.7546771E-02  0.1280296E+00
         21   -1    0    0  501  502  0.00000000000E+00  0.00000000000E+00  0.23529827127E+03  0.23529827127E+03  0.00000000000E+00 0. -1.
         21   -1    0    0  502  503 -0.00000000000E+00 -0.00000000000E+00 -0.17720913057E+03  0.17720913057E+03  0.00000000000E+00 0. -1.
          6    1    1    2  501    0 -0.40106831070E+02  0.74308151140E+01  0.13057608972E+03  0.22055133216E+03  0.17300000000E+03 0. -1.
         -6    1    1    2    0  503  0.40106831070E+02 -0.74308151140E+01 -0.72486949019E+02  0.19195606969E+03  0.17300000000E+03 0. -1.
</event>
<event>
 4    1  0.6020852E+000  0.1000000E+03  0.7546771E-02  0.1280296E+00
         21   -1    0    0  503  502  0.00000000000E+00  0.00000000000E+00  0.19721952458E+03  0.19721952458E+03  0.00000000000E+00 0.  1.
         21   -1    0    0  501  503 -0.00000000000E+00 -0.00000000000E+00 -0.29965885457E+03  0.29965885457E+03  0.00000000000E+00 0.  1.
          6    1    1    2  501    0  0.43866407932E+02  0.15022021110E+03 -0.12112616331E+03  0.26285151893E+03  0.17300000000E+03 0.  1.
         -6    1    1    2    0  502 -0.43866407932E+02 -0.15022021110E+03  0.18686833315E+02  0.23402686022E+03  0.17300000000E+03 0.  1.
</event>
<event>
 4    1  0.6020852E+000  0.1000000E+03  0.7546771E-02  0.1280296E+00
         21   -1    0    0  503  502  0.00000000000E+00  0.00000000000E+00  0.40126632565E+04  0.40126632565E+04  0.00000000000E+00 0.  1.
         21   -1    0    0  501  503 -0.00000000000E+00 -0.00000000000E+00 -0.10853385979E+03  0.10853385979E+03  0.00000000000E+00 0.  1.
          6    1    1    2  501    0  0.39545047016E+02  0.56235791201E+02 -0.24849507220E+02  0.18781047086E+03  0.17300000000E+03 0.  1.
         -6    1    1    2    0  502 -0.39545047016E+02 -0.56235791201E+02  0.39289789040E+04  0.39333866455E+04  0.17300000000E+03 0.  1.
</event>
<event>
 4    1  0.6020852E+000  0.1000000E+03  0.7546771E-02  0.1280296E+00
         21   -1    0    0  503  502  0.00000000000E+00  0.00000000000E+00  0.30465640755E+03  0.30465640755E+03  0.00000000000E+00 0. -1.
         21   -1    0    0  501  503 -0.00000000000E+00 -0.00000000000E+00 -0.49046662972E+03  0.49046662972E+03  0.00000000000E+00 0.  1.
          6    1    1    2  501    0  0.71301983804E+02 -0.26900835354E+03 -0.30379383317E+03  0.44684355232E+03  0.17300000000E+03 0. -1.
         -6    1    1    2    0  502 -0.71301983804E+02  0.26900835354E+03  0.11798361101E+03  0.34827948495E+03  0.17300000000E+03 0.  1.
</event>
<event>
 4    1  0.6020852E+000  0.1000000E+03  0.7546771E-02  0.1280296E+00
         21   -1    0    0  503  502  0.00000000000E+00  0.00000000000E+00  0.12785704181E+03  0.12785704181E+03  0.00000000000E+00 0. -1.
         21   -1    0    0  501  503 -0.00000000000E+00 -0.00000000000E+00 -0.63330695502E+03  0.63330695502E+03  0.00000000000E+00 0.  1.
          6    1    1    2  501    0  0.13798259695E+03 -0.65843290418E+02 -0.47519791448E+03  0.52831486245E+03  0.17300000000E+03 0. -1.
         -6    1    1    2    0  502 -0.13798259695E+03  0.65843290418E+02 -0.30251998724E+02  0.23284913438E+03  0.17300000000E+03 0.  1.
</event>
<event>
 4    1  0.6020852E+000  0.1000000E+03  0.7546771E-02  0.1280296E+00
         21   -1    0    0  503  502  0.00000000000E+00  0.00000000000E+00  0.13723268621E+03  0.13723268621E+03  0.00000000000E+00 0. -1.
         21   -1    0    0  501  503 -0.00000000000E+00 -0.00000000000E+00 -0.38140862586E+03  0.38140862586E+03  0.00000000000E+00 0.  1.
          6    1    1    2  501    0 -0.81201799246E+02 -0.40481171160E+02 -0.25706360124E+03  0.32286708179E+03  0.17300000000E+03 0. -1.
         -6    1    1    2    0  502  0.81201799246E+02  0.40481171160E+02  0.12887661588E+02  0.19577423028E+03  0.17300000000E+03 0.  1.
</event>
<event>
 4    1  0.6020852E+000  0.1000000E+03  0.7546771E-02  0.1280296E+00
         21   -1    0    0  501  502  0.00000000000E+00  0.00000000000E+00  0.39887793608E+03  0.39887793608E+03  0.00000000000E+00 0. -1.
         21   -1    0    0  502  503 -0.00000000000E+00 -0.00000000000E+00 -0.11294744034E+03  0.11294744034E+03  0.00000000000E+00 0. -1.
          6    1    1    2  501    0  0.73049075561E+02 -0.64167234878E+02  0.23374967826E+03  0.30662927707E+03  0.17300000000E+03 0. -1.
         -6    1    1    2    0  503 -0.73049075561E+02  0.64167234878E+02  0.52180817481E+02  0.20519609934E+03  0.17300000000E+03 0. -1.
</event>
<event>
 4    1  0.6020852E+000  0.1000000E+03  0.7546771E-02  0.1280296E+00
         21   -1    0    0  501  502  0.00000000000E+00  0.00000000000E+00  0.27218312423E+03  0.27218312423E+03  0.00000000000E+00 0.  1.
         21   -1    0    0  502  503 -0.00000000000E+00 -0.00000000000E+00 -0.23945225047E+03  0.23945225047E+03  0.00000000000E+00 0.  1.
          6    1    1    2  501    0 -0.68718495663E+02  0.13122498687E+03  0.13194355913E+03  0.26321157197E+03  0.17300000000E+03 0.  1.
         -6    1    1    2    0  503  0.68718495663E+02 -0.13122498687E+03 -0.99212685366E+02  0.24842380273E+03  0.17300000000E+03 0.  1.
</event>
<event>
 4    1  0.6020852E+000  0.1000000E+03  0.7546771E-02  0.1280296E+00
         21   -1    0    0  501  502  0.00000000000E+00  0.00000000000E+00  0.37601654720E+03  0.37601654720E+03  0.00000000000E+00 0.  1.
         21   -1    0    0  502  503 -0.00000000000E+00 -0.00000000000E+00 -0.15955158036E+03  0.15955158036E+03  0.00000000000E+00 0.  1.
          6    1    1    2  501    0  0.16748807911E+03 -0.44328001792E+02  0.10067335498E+03  0.26472882878E+03  0.17300000000E+03 0.  1.
         -6    1    1    2    0  503 -0.16748807911E+03  0.44328001792E+02  0.11579161186E+03  0.27083929878E+03  0.17300000000E+03 0.  1.
</event>
<event>
 4    1  0.6020852E+000  0.1000000E+03  0.7546771E-02  0.1280296E+00
         21   -1    0    0  501  502  0.00000000000E+00  0.00000000000E+00  0.14426931367E+04  0.14426931367E+04  0.00000000000E+00 0.  1.
         21   -1    0    0  502  503 -0.00000000000E+00 -0.00000000000E+00 -0.57092384286E+02  0.57092384286E+02  0.00000000000E+00 0. -1.
          6    1    1    2  501    0  0.32737270932E+02  0.30579065372E+02  0.12795756488E+04  0.12919944462E+04  0.17300000000E+03 0.  1.
         -6    1    1    2    0  503 -0.32737270932E+02 -0.30579065372E+02  0.10602510364E+03  0.20779107476E+03  0.17300000000E+03 0. -1.
</event>
<event>
 4    1  0.6020852E+000  0.1000000E+03  0.7546771E-02  0.1280296E+00
         21   -1    0    0  501  502  0.00000000000E+00  0.00000000000E+00  0.79802291320E+03  0.79802291320E+03  0.00000000000E+00 0.  1.
         21   -1    0    0  502  503 -0.00000000000E+00 -0.00000000000E+00 -0.79555081832E+02  0.79555081832E+02  0.00000000000E+00 0. -1.
          6    1    1    2  501    0 -0.15868984212E+02  0.72812229263E+02  0.65065884521E+03  0.67737683621E+03  0.17300000000E+03 0.  1.
         -6    1    1    2    0  503  0.15868984212E+02 -0.72812229263E+02  0.67808986166E+02  0.20020115883E+03  0.17300000000E+03 0. -1.
</event>
<event>
 4    1  0.6020852E+000  0.1000000E+03  0.7546771E-02  0.1280296E+00
         21   -1    0    0  501  502  0.00000000000E+00  0.00000000000E+00  0.10324872804E+03  0.10324872804E+03  0.00000000000E+00 0.  1.
         21   -1    0    0  502  503 -0.00000000000E+00 -0.00000000000E+00 -0.54626676878E+03  0.54626676878E+03  0.00000000000E+00 0. -1.
          6    1    1    2  501    0  0.65913604641E+02  0.14675425861E+03 -0.18826725903E+03  0.30208438642E+03  0.17300000000E+03 0.  1.
         -6    1    1    2    0  503 -0.65913604641E+02 -0.14675425861E+03 -0.25475078170E+03  0.34743111040E+03  0.17300000000E+03 0. -1.
</event>
<event>
 4    1  0.6020852E+000  0.1000000E+03  0.7546771E-02  0.1280296E+00
         21   -1    0    0  501  502  0.00000000000E+00  0.00000000000E+00  0.83001383086E+02  0.83001383086E+02  0.00000000000E+00 0.  1.
         21   -1    0    0  502  503 -0.00000000000E+00 -0.00000000000E+00 -0.40667681379E+03  0.40667681379E+03  0.00000000000E+00 0.  1.
          6    1    1    2  501    0  0.78915639492E+01  0.59277551934E+02 -0.14078226869E+03  0.23092152806E+03  0.17300000000E+03 0.  1.
         -6    1    1    2    0  503 -0.78915639492E+01 -0.59277551934E+02 -0.18289316201E+03  0.25875666882E+03  0.17300000000E+03 0.  1.
</event>
<event>
 4    1  0.6020852E+000  0.1000000E+03  0.7546771E-02  0.1280296E+00
         21   -1    0    0  501  502  0.00000000000E+00  0.00000000000E+00  0.22932485644E+03  0.22932485644E+03  0.00000000000E+00 0.  1.
         21   -1    0    0  502  503 -0.00000000000E+00 -0.00000000000E+00 -0.38037908327E+03  0.38037908327E+03  0.00000000000E+00 0.  1.
          6    1    1    2  501    0 -0.22242166422E+03 -0.79666534476E+02 -0.35775141245E+02  0.29500341381E+03  0.17300000000E+03 0.  1.
         -6    1    1    2    0  503  0.22242166422E+03  0.79666534476E+02 -0.11527908558E+03  0.31470052590E+03  0.17300000000E+03 0.  1.
</event>
<event>
 4    1  0.6020852E+000  0.1000000E+03  0.7546771E-02  0.1280296E+00
         21   -1    0    0  501  502  0.00000000000E+00  0.00000000000E+00  0.14634596146E+04  0.14634596146E+04  0.00000000000E+00 0. -1.
         21   -1    0    0  502  503 -0.00000000000E+00 -0.00000000000E+00 -0.56351364486E+02  0.56351364486E+02  0.00000000000E+00 0.  1.
          6    1    1    2  501    0 -0.17198237650E+03 -0.42254922475E+02  0.10886192046E+04  0.11164157778E+04  0.17300000000E+03 0. -1.
         -6    1    1    2    0  503  0.17198237650E+03  0.42254922475E+02  0.31848904548E+03  0.40339520125E+03  0.17300000000E+03 0.  1.
</event>
<event>
 4    1  0.6020852E+000  0.1000000E+03  0.7546771E-02  0.1280296E+00
         21   -1    0    0  501  502  0.00000000000E+00  0.00000000000E+00  0.27867229799E+03  0.27867229799E+03  0.00000000000E+00 0. -1.
         21   -1    0    0  502  503 -0.00000000000E+00 -0.00000000000E+00 -0.30197501491E+03  0.30197501491E+03  0.00000000000E+00 0.  1.
          6    1    1    2  501    0 -0.12711640548E+03 -0.21068702691E+02  0.18246533359E+03  0.28253330554E+03  0.17300000000E+03 0. -1.
         -6    1    1    2    0  503  0.12711640548E+03  0.21068702691E+02 -0.20576805051E+03  0.29811400736E+03  0.17300000000E+03 0.  1.
</event>
<event>
 4    1  0.6020852E+000  0.1000000E+03  0.7546771E-02  0.1280296E+00
         21   -1    0    0  501  502  0.00000000000E+00  0.00000000000E+00  0.18582831364E+04  0.18582831364E+04  0.00000000000E+00 0. -1.
         21   -1    0    0  502  503 -0.00000000000E+00 -0.00000000000E+00 -0.20122009952E+03  0.20122009952E+03  0.00000000000E+00 0.  1.
          6    1    1    2  501    0 -0.12044364012E+03  0.29786023722E+03  0.16548354435E+04  0.16945904332E+04  0.17300000000E+03 0. -1.
         -6    1    1    2    0  503  0.12044364012E+03 -0.29786023722E+03  0.22275933536E+01  0.36491280265E+03  0.17300000000E+03 0.  1.
</event>
<event>
 4    1  0.6020852E+000  0.1000000E+03  0.7546771E-02  0.1280296E+00
         21   -1    0    0  501  502  0.00000000000E+00  0.00000000000E+00  0.60816856653E+03  0.60816856653E+03  0.00000000000E+00 0.  1.
         21   -1    0    0  502  503 -0.00000000000E+00 -0.00000000000E+00 -0.31439287150E+03  0.31439287150E+03  0.00000000000E+00 0.  1.
          6    1    1    2  501    0  0.29317162245E+03  0.54095424007E+02  0.43073405535E+03  0.55166723806E+03  0.17300000000E+03 0.  1.
         -6    1    1    2    0  503 -0.29317162245E+03 -0.54095424007E+02 -0.13695836032E+03  0.37089419997E+03  0.17300000000E+03 0.  1.
</event>
<event>
 4    1  0.6020852E+000  0.1000000E+03  0.7546771E-02  0.1280296E+00
         21   -1    0    0  501  502  0.00000000000E+00  0.00000000000E+00  0.68959260196E+03  0.68959260196E+03  0.00000000000E+00 0.  1.
         21   -1    0    0  502  503 -0.00000000000E+00 -0.00000000000E+00 -0.13676148377E+03  0.13676148377E+03  0.00000000000E+00 0.  1.
          6    1    1    2  501    0 -0.56152241497E+02  0.21464913468E+03  0.44203555622E+03  0.52397686801E+03  0.17300000000E+03 0.  1.
         -6    1    1    2    0  503  0.56152241497E+02 -0.21464913468E+03  0.11079556198E+03  0.30237721773E+03  0.17300000000E+03 0.  1.
</event>
<event>
 4    1  0.6020852E+000  0.1000000E+03  0.7546771E-02  0.1280296E+00
         21   -1    0    0  501  502  0.00000000000E+00  0.00000000000E+00  0.21508512997E+03  0.21508512997E+03  0.00000000000E+00 0. -1.
         21   -1    0    0  502  503 -0.00000000000E+00 -0.00000000000E+00 -0.10994537405E+04  0.10994537405E+04  0.00000000000E+00 0. -1.
          6    1    1    2  501    0 -0.97163692745E+02 -0.31500785658E+03 -0.19331908814E+02  0.37279143713E+03  0.17300000000E+03 0. -1.
         -6    1    1    2    0  503  0.97163692745E+02  0.31500785658E+03 -0.86503670174E+03  0.94174743337E+03  0.17300000000E+03 0. -1.
</event>
<event>
 4    1  0.6020852E+000  0.1000000E+03  0.7546771E-02  0.1280296E+00
         21   -1    0    0  501  502  0.00000000000E+00  0.00000000000E+00  0.73907818561E+02  0.73907818561E+02  0.00000000000E+00 0. -1.
         21   -1    0    0  502  503 -0.00000000000E+00 -0.00000000000E+00 -0.92163227905E+03  0.92163227905E+03  0.00000000000E+00 0. -1.
          6    1    1    2  501    0 -0.14338940523E+03  0.16556276025E+02 -0.17262615736E+03  0.28383696379E+03  0.17300000000E+03 0. -1.
         -6    1    1    2    0  503  0.14338940523E+03 -0.16556276025E+02 -0.67509830313E+03  0.71170313383E+03  0.17300000000E+03 0. -1.
</event>
<event>
 4    1  0.6020852E+000  0.1000000E+03  0.7546771E-02  0.1280296E+00
         21   -1    0    0  503  502  0.00000000000E+00  0.00000000000E+00  0.26173494193E+03  0.26173494193E+03  0.00000000000E+00 0. -1.
         21   -1    0    0  501  503 -0.00000000000E+00 -0.00000000000E+00 -0.43331628670E+03  0.43331628670E+03  0.00000000000E+00 0.  1.
          6    1    1    2  501    0  0.98401654377E+02  0.54512145559E+02 -0.36043066487E+03  0.41532363739E+03  0.17300000000E+03 0. -1.
         -6    1    1    2    0  502 -0.98401654377E+02 -0.54512145559E+02  0.18884932009E+03  0.27972759123E+03  0.17300000000E+03 0. -1.
</event>
<event>
 4    1  0.6020852E+000  0.1000000E+03  0.7546771E-02  0.1280296E+00
         21   -1    0    0  503  502  0.00000000000E+00  0.00000000000E+00  0.51657012442E+03  0.51657012442E+03  0.00000000000E+00 0. -1.
         21   -1    0    0  501  503 -0.00000000000E+00 -0.00000000000E+00 -0.91317344524E+02  0.91317344524E+02  0.00000000000E+00 0.  1.
          6    1    1    2  501    0  0.68163684019E+02  0.26058994498E+01  0.55604505904E+02  0.19409775786E+03  0.17300000000E+03 0. -1.
         -6    1    1    2    0  502 -0.68163684019E+02 -0.26058994498E+01  0.36964827399E+03  0.41378971108E+03  0.17300000000E+03 0. -1.
</event>
<event>
 4    1  0.6020852E+000  0.1000000E+03  0.7546771E-02  0.1280296E+00
         21   -1    0    0  501  502  0.00000000000E+00  0.00000000000E+00  0.47951674017E+03  0.47951674017E+03  0.00000000000E+00 0.  1.
         21   -1    0    0  502  503 -0.00000000000E+00 -0.00000000000E+00 -0.11711217217E+03  0.11711217217E+03  0.00000000000E+00 0.  1.
          6    1    1    2  501    0  0.11401702876E+03 -0.34775149519E+02  0.31921100242E+03  0.38214376606E+03  0.17300000000E+03 0.  1.
         -6    1    1    2    0  503 -0.11401702876E+03  0.34775149519E+02  0.43193565581E+02  0.21448514629E+03  0.17300000000E+03 0.  1.
</event>
<event>
 4    1  0.6020852E+000  0.1000000E+03  0.7546771E-02  0.1280296E+00
         21   -1    0    0  501  502  0.00000000000E+00  0.00000000000E+00  0.11907273923E+04  0.11907273923E+04  0.00000000000E+00 0.  1.
         21   -1    0    0  502  503 -0.00000000000E+00 -0.00000000000E+00 -0.20821363428E+03  0.20821363428E+03  0.00000000000E+00 0.  1.
          6    1    1    2  501    0  0.28633091365E+03  0.24686433765E+03  0.87614968584E+03  0.96979104208E+03  0.17300000000E+03 0.  1.
         -6    1    1    2    0  503 -0.28633091365E+03 -0.24686433765E+03  0.10636407214E+03  0.42914998445E+03  0.17300000000E+03 0.  1.
</event>
<event>
 4    1  0.6020852E+000  0.1000000E+03  0.7546771E-02  0.1280296E+00
         21   -1    0    0  501  502  0.00000000000E+00  0.00000000000E+00  0.17148789181E+03  0.17148789181E+03  0.00000000000E+00 0.  1.
         21   -1    0    0  502  503 -0.00000000000E+00 -0.00000000000E+00 -0.17956123174E+03  0.17956123174E+03  0.00000000000E+00 0.  1.
          6    1    1    2  501    0 -0.66490018355E+01 -0.20055207922E+02  0.16393142574E+02  0.17505472205E+03  0.17300000000E+03 0.  1.
         -6    1    1    2    0  503  0.66490018355E+01  0.20055207922E+02 -0.24466482502E+02  0.17599440149E+03  0.17300000000E+03 0.  1.
</event>
<event>
 4    1  0.6020852E+000  0.1000000E+03  0.7546771E-02  0.1280296E+00
         21   -1    0    0  501  502  0.00000000000E+00  0.00000000000E+00  0.83240505795E+03  0.83240505795E+03  0.00000000000E+00 0. -1.
         21   -1    0    0  502  503 -0.00000000000E+00 -0.00000000000E+00 -0.53267620923E+02  0.53267620923E+02  0.00000000000E+00 0. -1.
          6    1    1    2  501    0  0.47074221007E+02  0.62158063440E+02  0.58152805181E+03  0.61170538838E+03  0.17300000000E+03 0. -1.
         -6    1    1    2    0  503 -0.47074221007E+02 -0.62158063440E+02  0.19760938522E+03  0.27396729050E+03  0.17300000000E+03 0. -1.
</event>
<event>
 4    1  0.6020852E+000  0.1000000E+03  0.7546771E-02  0.1280296E+00
         21   -1    0    0  501  502  0.00000000000E+00  0.00000000000E+00  0.11316165316E+04  0.11316165316E+04  0.00000000000E+00 0. -1.
         21   -1    0    0  502  503 -0.00000000000E+00 -0.00000000000E+00 -0.18630357351E+03  0.18630357351E+03  0.00000000000E+00 0. -1.
          6    1    1    2  501    0 -0.12957701891E+03  0.51912809061E+02  0.10492425584E+04  0.10725316265E+04  0.17300000000E+03 0. -1.
         -6    1    1    2    0  503  0.12957701891E+03 -0.51912809061E+02 -0.10392960034E+03  0.24538847854E+03  0.17300000000E+03 0. -1.
</event>
<event>
 4    1  0.6020852E+000  0.1000000E+03  0.7546771E-02  0.1280296E+00
         21   -1    0    0  501  502  0.00000000000E+00  0.00000000000E+00  0.27935996744E+02  0.27935996744E+02  0.00000000000E+00 0.  1.
         21   -1    0    0  502  503 -0.00000000000E+00 -0.00000000000E+00 -0.13897589909E+04  0.13897589909E+04  0.00000000000E+00 0. -1.
          6    1    1    2  501    0 -0.56523294476E+02 -0.75146878364E+02 -0.65463089380E+03  0.68360262088E+03  0.17300000000E+03 0. -1.
         -6    1    1    2    0  503  0.56523294476E+02  0.75146878364E+02 -0.70719210035E+03  0.73409236677E+03  0.17300000000E+03 0.  1.
</event>
<event>
 4    1  0.6020852E+000  0.1000000E+03  0.7546771E-02  0.1280296E+00
         21   -1    0    0  503  502  0.00000000000E+00  0.00000000000E+00  0.56857819401E+03  0.56857819401E+03  0.00000000000E+00 0.  1.
         21   -1    0    0  501  503 -0.00000000000E+00 -0.00000000000E+00 -0.93713178529E+02  0.93713178529E+02  0.00000000000E+00 0.  1.
          6    1    1    2  501    0 -0.11275058069E+03  0.25721183518E+02  0.94118422834E+02  0.22838903267E+03  0.17300000000E+03 0.  1.
         -6    1    1    2    0  502  0.11275058069E+03 -0.25721183518E+02  0.38074659264E+03  0.43390233986E+03  0.17300000000E+03 0.  1.
</event>
<event>
 4    1  0.6020852E+000  0.1000000E+03  0.7546771E-02  0.1280296E+00
         21   -1    0    0  503  502  0.00000000000E+00  0.00000000000E+00  0.24516697183E+04  0.24516697183E+04  0.00000000000E+00 0. -1.
         21   -1    0    0  501  503 -0.00000000000E+00 -0.00000000000E+00 -0.51301864695E+02  0.51301864695E+02  0.00000000000E+00 0.  1.
          6    1    1    2  501    0  0.15647081571E+03 -0.19912414329E+03  0.57177131743E+03  0.64883355342E+03  0.17300000000E+03 0.  1.
         -6    1    1    2    0  502 -0.15647081571E+03  0.19912414329E+03  0.18285965362E+04  0.18541380296E+04  0.17300000000E+03 0.  1.
</event>
<event>
 4    1  0.6020852E+000  0.1000000E+03  0.7546771E-02  0.1280296E+00
         21   -1    0    0  503  502  0.00000000000E+00  0.00000000000E+00  0.16370815562E+03  0.16370815562E+03  0.00000000000E+00 0. -1.
         21   -1    0    0  501  503 -0.00000000000E+00 -0.00000000000E+00 -0.31093651731E+03  0.31093651731E+03  0.00000000000E+00 0.  1.
          6    1    1    2  501    0 -0.59147478195E+02 -0.69389468637E+02 -0.19197102740E+03  0.27403503042E+03  0.17300000000E+03 0.  1.
         -6    1    1    2    0  502  0.59147478195E+02  0.69389468637E+02  0.44742665710E+02  0.20060964251E+03  0.17300000000E+03 0.  1.
</event>
<event>
 4    1  0.6020852E+000  0.1000000E+03  0.7546771E-02  0.1280296E+00
         21   -1    0    0  501  502  0.00000000000E+00  0.00000000000E+00  0.24521064676E+03  0.24521064676E+03  0.00000000000E+00 0. -1.
         21   -1    0    0  502  503 -0.00000000000E+00 -0.00000000000E+00 -0.14574741950E+03  0.14574741950E+03  0.00000000000E+00 0.  1.
          6    1    1    2  501    0  0.54053312346E+02 -0.13671946723E+02 -0.40090881134E+01  0.18180691816E+03  0.17300000000E+03 0.  1.
         -6    1    1    2    0  503 -0.54053312346E+02  0.13671946723E+02  0.10347231538E+03  0.20915114810E+03  0.17300000000E+03 0. -1.
</event>
<event>
 4    1  0.6020852E+000  0.1000000E+03  0.7546771E-02  0.1280296E+00
         21   -1    0    0  501  502  0.00000000000E+00  0.00000000000E+00  0.29650789808E+03  0.29650789808E+03  0.00000000000E+00 0. -1.
         21   -1    0    0  502  503 -0.00000000000E+00 -0.00000000000E+00 -0.12274097812E+03  0.12274097812E+03  0.00000000000E+00 0.  1.
          6    1    1    2  501    0 -0.34625286254E+02  0.55305065408E+02  0.35260743766E+02  0.18822826769E+03  0.17300000000E+03 0.  1.
         -6    1    1    2    0  503  0.34625286254E+02 -0.55305065408E+02  0.13850617620E+03  0.23102060851E+03  0.17300000000E+03 0. -1.
</event>
<event>
 4    1  0.6020852E+000  0.1000000E+03  0.7546771E-02  0.1280296E+00
         21   -1    0    0  503  502  0.00000000000E+00  0.00000000000E+00  0.13927313301E+04  0.13927313301E+04  0.00000000000E+00 0.  1.
         21   -1    0    0  501  503 -0.00000000000E+00 -0.00000000000E+00 -0.26464504359E+02  0.26464504359E+02  0.00000000000E+00 0.  1.
          6    1    1    2  501    0  0.20773067495E+02  0.46398134707E+02  0.92675935480E+03  0.94413781247E+03  0.17300000000E+03 0.  1.
         -6    1    1    2    0  502 -0.20773067495E+02 -0.46398134707E+02  0.43950747093E+03  0.47505802197E+03  0.17300000000E+03 0.  1.
</event>
<event>
 4    1  0.6020852E+000  0.1000000E+03  0.7546771E-02  0.1280296E+00
         21   -1    0    0  503  502  0.00000000000E+00  0.00000000000E+00  0.62591924846E+03  0.62591924846E+03  0.00000000000E+00 0.  1.
         21   -1    0    0  501  503 -0.00000000000E+00 -0.00000000000E+00 -0.24312831025E+03  0.24312831025E+03  0.00000000000E+00 0.  1.
          6    1    1    2  501    0 -0.16143254458E+03 -0.31014129428E+03  0.18998635708E+03  0.43390310525E+03  0.17300000000E+03 0.  1.
         -6    1    1    2    0  502  0.16143254458E+03  0.31014129428E+03  0.19280458113E+03  0.43514445346E+03  0.17300000000E+03 0.  1.
</event>
<event>
 4    1  0.6020852E+000  0.1000000E+03  0.7546771E-02  0.1280296E+00
         21   -1    0    0  503  502  0.00000000000E+00  0.00000000000E+00  0.13895554655E+03  0.13895554655E+03  0.00000000000E+00 0.  1.
         21   -1    0    0  501  503 -0.00000000000E+00 -0.00000000000E+00 -0.80980788318E+03  0.80980788318E+03  0.00000000000E+00 0. -1.
          6    1    1    2  501    0 -0.12683704168E+03 -0.32986943901E+02 -0.69713794002E+03  0.73014113774E+03  0.17300000000E+03 0. -1.
         -6    1    1    2    0  502  0.12683704168E+03  0.32986943901E+02  0.26285603384E+02  0.21862229199E+03  0.17300000000E+03 0.  1.
</event>
<event>
 4    1  0.6020852E+000  0.1000000E+03  0.7546771E-02  0.1280296E+00
         21   -1    0    0  503  502  0.00000000000E+00  0.00000000000E+00  0.48613992892E+03  0.48613992892E+03  0.00000000000E+00 0.  1.
         21   -1    0    0  501  503 -0.00000000000E+00 -0.00000000000E+00 -0.14254212003E+03  0.14254212003E+03  0.00000000000E+00 0. -1.
          6    1    1    2  501    0  0.44488573764E+02 -0.53218521349E+02 -0.50176104823E+02  0.19302353666E+03  0.17300000000E+03 0. -1.
         -6    1    1    2    0  502 -0.44488573764E+02  0.53218521349E+02  0.39377391371E+03  0.43565851229E+03  0.17300000000E+03 0.  1.
</event>
<event>
 4    1  0.6020852E+000  0.1000000E+03  0.7546771E-02  0.1280296E+00
         21   -1    0    0  503  502  0.00000000000E+00  0.00000000000E+00  0.26358998771E+03  0.26358998771E+03  0.00000000000E+00 0.  1.
         21   -1    0    0  501  503 -0.00000000000E+00 -0.00000000000E+00 -0.36961351305E+03  0.36961351305E+03  0.00000000000E+00 0. -1.
          6    1    1    2  501    0  0.51610602354E+01  0.19179455351E+03 -0.23069337528E+03  0.34635274028E+03  0.17300000000E+03 0. -1.
         -6    1    1    2    0  502 -0.51610602354E+01 -0.19179455351E+03  0.12466984994E+03  0.28685076047E+03  0.17300000000E+03 0.  1.
</event>
<event>
 4    1  0.6020852E+000  0.1000000E+03  0.7546771E-02  0.1280296E+00
         21   -1    0    0  501  502  0.00000000000E+00  0.00000000000E+00  0.47013048049E+03  0.47013048049E+03  0.00000000000E+00 0. -1.
         21   -1    0    0  502  503 -0.00000000000E+00 -0.00000000000E+00 -0.22077772366E+03  0.22077772366E+03  0.00000000000E+00 0. -1.
          6    1    1    2  501    0  0.64821960928E+02  0.46325909365E+02  0.40329571432E+03  0.44600942780E+03  0.17300000000E+03 0. -1.
         -6    1    1    2    0  503 -0.64821960928E+02 -0.46325909365E+02 -0.15394295748E+03  0.24489877635E+03  0.17300000000E+03 0. -1.
</event>
<event>
 4    1  0.6020852E+000  0.1000000E+03  0.7546771E-02  0.1280296E+00
         21   -1    0    0  501  502  0.00000000000E+00  0.00000000000E+00  0.12745733424E+04  0.12745733424E+04  0.00000000000E+00 0.  1.
         21   -1    0    0  502  503 -0.00000000000E+00 -0.00000000000E+00 -0.78372687737E+02  0.78372687737E+02  0.00000000000E+00 0. -1.
          6    1    1    2  501    0  0.49129980691E+02 -0.88411575313E+02  0.11212073970E+04  0.11389755874E+04  0.17300000000E+03 0.  1.
         -6    1    1    2    0  503 -0.49129980691E+02  0.88411575313E+02  0.74993257628E+02  0.21397044268E+03  0.17300000000E+03 0. -1.
</event>
<event>
 4    1  0.6020852E+000  0.1000000E+03  0.7546771E-02  0.1280296E+00
         21   -1    0    0  501  502  0.00000000000E+00  0.00000000000E+00  0.34541371953E+02  0.34541371953E+02  0.00000000000E+00 0.  1.
         21   -1    0    0  502  503 -0.00000000000E+00 -0.00000000000E+00 -0.13155434976E+04  0.13155434976E+04  0.00000000000E+00 0. -1.
          6    1    1    2  501    0  0.30337073068E+01 -0.11830863250E+03 -0.51762846992E+03  0.55845713244E+03  0.17300000000E+03 0.  1.
         -6    1    1    2    0  503 -0.30337073068E+01  0.11830863250E+03 -0.76337365573E+03  0.79162773711E+03  0.17300000000E+03 0. -1.
</event>
<event>
 4    1  0.6020852E+000  0.1000000E+03  0.7546771E-02  0.1280296E+00
         21   -1    0    0  501  502  0.00000000000E+00  0.00000000000E+00  0.20391350465E+03  0.20391350465E+03  0.00000000000E+00 0. -1.
         21   -1    0    0  502  503 -0.00000000000E+00 -0.00000000000E+00 -0.29837821177E+03  0.29837821177E+03  0.00000000000E+00 0. -1.
          6    1    1    2  501    0 -0.92585222741E+02 -0.55401858529E+01  0.10485220434E+03  0.22254370780E+03  0.17300000000E+03 0. -1.
         -6    1    1    2    0  503  0.92585222741E+02  0.55401858529E+01 -0.19931691146E+03  0.27974800861E+03  0.17300000000E+03 0. -1.
</event>
<event>
 4    1  0.6020852E+000  0.1000000E+03  0.7546771E-02  0.1280296E+00
         21   -1    0    0  503  502  0.00000000000E+00  0.00000000000E+00  0.17309302290E+03  0.17309302290E+03  0.00000000000E+00 0.  1.
         21   -1    0    0  501  503 -0.00000000000E+00 -0.00000000000E+00 -0.34840881977E+03  0.34840881977E+03  0.00000000000E+00 0.  1.
          6    1    1    2  501    0  0.13606273336E+03 -0.18665430137E+02 -0.20160544112E+03  0.29905721791E+03  0.17300000000E+03 0.  1.
         -6    1    1    2    0  502 -0.13606273336E+03  0.18665430137E+02  0.26289644254E+02  0.22244462477E+03  0.17300000000E+03 0.  1.
</event>
<event>
 4    1  0.6020852E+000  0.1000000E+03  0.7546771E-02  0.1280296E+00
         21   -1    0    0  503  502  0.00000000000E+00  0.00000000000E+00  0.27990953824E+03  0.27990953824E+03  0.00000000000E+00 0.  1.
         21   -1    0    0  501  503 -0.00000000000E+00 -0.00000000000E+00 -0.40607543330E+03  0.40607543330E+03  0.00000000000E+00 0.  1.
          6    1    1    2  501    0  0.17882196357E+03  0.14132303800E+02 -0.29408827168E+03  0.38547882978E+03  0.17300000000E+03 0.  1.
         -6    1    1    2    0  502 -0.17882196357E+03 -0.14132303800E+02  0.16792237662E+03  0.30050614176E+03  0.17300000000E+03 0.  1.
</event>
<event>
 4    1  0.6020852E+000  0.1000000E+03  0.7546771E-02  0.1280296E+00
         21   -1    0    0  503  502  0.00000000000E+00  0.00000000000E+00  0.13057214738E+04  0.13057214738E+04  0.00000000000E+00 0. -1.
         21   -1    0    0  501  503 -0.00000000000E+00 -0.00000000000E+00 -0.84242806562E+02  0.84242806562E+02  0.00000000000E+00 0. -1.
          6    1    1    2  501    0  0.12882488138E+03  0.19414757282E+03  0.27429028955E+03  0.39931603153E+03  0.17300000000E+03 0. -1.
         -6    1    1    2    0  502 -0.12882488138E+03 -0.19414757282E+03  0.94718837764E+03  0.99064824879E+03  0.17300000000E+03 0. -1.
</event>
<event>
 4    1  0.6020852E+000  0.1000000E+03  0.7546771E-02  0.1280296E+00
         21   -1    0    0  503  502  0.00000000000E+00  0.00000000000E+00  0.20317488122E+03  0.20317488122E+03  0.00000000000E+00 0.  1.
         21   -1    0    0  501  503 -0.00000000000E+00 -0.00000000000E+00 -0.25311015580E+03  0.25311015580E+03  0.00000000000E+00 0. -1.
          6    1    1    2  501    0  0.56027287063E+02  0.13010500871E+03  0.13079612993E+02  0.22397867412E+03  0.17300000000E+03 0.  1.
         -6    1    1    2    0  502 -0.56027287063E+02 -0.13010500871E+03 -0.63014887568E+02  0.23230636290E+03  0.17300000000E+03 0. -1.
</event>
<event>
 4    1  0.6020852E+000  0.1000000E+03  0.7546771E-02  0.1280296E+00
         21   -1    0    0  503  502  0.00000000000E+00  0.00000000000E+00  0.95993762587E+03  0.95993762587E+03  0.00000000000E+00 0.  1.
         21   -1    0    0  501  503 -0.00000000000E+00 -0.00000000000E+00 -0.39645362769E+02  0.39645362769E+02  0.00000000000E+00 0. -1.
          6    1    1    2  501    0  0.34105751084E+02  0.58799353515E+02  0.61187581918E+03  0.63948540587E+03  0.17300000000E+03 0.  1.
         -6    1    1    2    0  502 -0.34105751084E+02 -0.58799353515E+02  0.30841644392E+03  0.36009758276E+03  0.17300000000E+03 0. -1.
</event>
<event>
 4    1  0.6020852E+000  0.1000000E+03  0.7546771E-02  0.1280296E+00
         21   -1    0    0  503  502  0.00000000000E+00  0.00000000000E+00  0.20615512911E+03  0.20615512911E+03  0.00000000000E+00 0.  1.
         21   -1    0    0  501  503 -0.00000000000E+00 -0.00000000000E+00 -0.17073007673E+03  0.17073007673E+03  0.00000000000E+00 0. -1.
          6    1    1    2  501    0 -0.25685035254E+02  0.25725323144E+02 -0.45386953737E+02  0.18251161294E+03  0.17300000000E+03 0.  1.
         -6    1    1    2    0  502  0.25685035254E+02 -0.25725323144E+02  0.80812006110E+02  0.19437359290E+03  0.17300000000E+03 0. -1.
</event>
<event>
 4    1  0.6020852E+000  0.1000000E+03  0.7546771E-02  0.1280296E+00
         21   -1    0    0  503  502  0.00000000000E+00  0.00000000000E+00  0.77603959417E+03  0.77603959417E+03  0.00000000000E+00 0. -1.
         21   -1    0    0  501  503 -0.00000000000E+00 -0.00000000000E+00 -0.80009703399E+02  0.80009703399E+02  0.00000000000E+00 0.  1.
          6    1    1    2  501    0  0.10727395915E+03  0.12514383309E+03  0.22663777484E+03  0.32933624498E+03  0.17300000000E+03 0.  1.
         -6    1    1    2    0  502 -0.10727395915E+03 -0.12514383309E+03  0.46939211593E+03  0.52671305259E+03  0.17300000000E+03 0. -1.
</event>
<event>
 4    1  0.6020852E+000  0.1000000E+03  0.7546771E-02  0.1280296E+00
         21   -1    0    0  503  502  0.00000000000E+00  0.00000000000E+00  0.47829518827E+03  0.47829518827E+03  0.00000000000E+00 0. -1.
         21   -1    0    0  501  503 -0.00000000000E+00 -0.00000000000E+00 -0.41619349558E+03  0.41619349558E+03  0.00000000000E+00 0.  1.
          6    1    1    2  501    0 -0.29255711769E+02 -0.10267912213E+03 -0.36706902584E+03  0.41960406162E+03  0.17300000000E+03 0.  1.
         -6    1    1    2    0  502  0.29255711769E+02  0.10267912213E+03  0.42917071853E+03  0.47488462223E+03  0.17300000000E+03 0. -1.
</event>
<event>
 4    1  0.6020852E+000  0.1000000E+03  0.7546771E-02  0.1280296E+00
         21   -1    0    0  501  502  0.00000000000E+00  0.00000000000E+00  0.36688257400E+02  0.36688257400E+02  0.00000000000E+00 0.  1.
         21   -1    0    0  502  503 -0.00000000000E+00 -0.00000000000E+00 -0.10452297628E+04  0.10452297628E+04  0.00000000000E+00 0.  1.
          6    1    1    2  501    0 -0.24070915543E+02  0.30602285684E+02 -0.27475843637E+03  0.32701239613E+03  0.17300000000E+03 0.  1.
         -6    1    1    2    0  503  0.24070915543E+02 -0.30602285684E+02 -0.73378306907E+03  0.75490562411E+03  0.17300000000E+03 0.  1.
</event>
<event>
 4    1  0.6020852E+000  0.1000000E+03  0.7546771E-02  0.1280296E+00
         21   -1    0    0  501  502  0.00000000000E+00  0.00000000000E+00  0.38442567672E+03  0.38442567672E+03  0.00000000000E+00 0. -1.
         21   -1    0    0  502  503 -0.00000000000E+00 -0.00000000000E+00 -0.29277044249E+03  0.29277044249E+03  0.00000000000E+00 0. -1.
          6    1    1    2  501    0 -0.55652011336E+02  0.12776093721E+01  0.33044062506E+03  0.37711905990E+03  0.17300000000E+03 0. -1.
         -6    1    1    2    0  503  0.55652011336E+02 -0.12776093721E+01 -0.23878539083E+03  0.30007705931E+03  0.17300000000E+03 0. -1.
</event>
<event>
 4    1  0.6020852E+000  0.1000000E+03  0.7546771E-02  0.1280296E+00
         21   -1    0    0  501  502  0.00000000000E+00  0.00000000000E+00  0.54397676377E+03  0.54397676377E+03  0.00000000000E+00 0. -1.
         21   -1    0    0  502  503 -0.00000000000E+00 -0.00000000000E+00 -0.10455262674E+03  0.10455262674E+03  0.00000000000E+00 0. -1.
          6    1    1    2  501    0 -0.91915888547E+01 -0.33648303914E+02  0.43780887245E+03  0.47204057290E+03  0.17300000000E+03 0. -1.
         -6    1    1    2    0  503  0.91915888547E+01  0.33648303914E+02  0.16152645716E+01  0.17648881761E+03  0.17300000000E+03 0. -1.
</event>
<event>
 4    1  0.6020852E+000  0.1000000E+03  0.7546771E-02  0.1280296E+00
         21   -1    0    0  501  502  0.00000000000E+00  0.00000000000E+00  0.34738592021E+03  0.34738592021E+03  0.00000000000E+00 0.  1.
         21   -1    0    0  502  503 -0.00000000000E+00 -0.00000000000E+00 -0.22585266298E+03  0.22585266298E+03  0.00000000000E+00 0.  1.
          6    1    1    2  501    0 -0.29313269842E+02  0.58568810256E+02  0.27599108621E+03  0.33224938373E+03  0.17300000000E+03 0.  1.
         -6    1    1    2    0  503  0.29313269842E+02 -0.58568810256E+02 -0.15445782898E+03  0.24098919946E+03  0.17300000000E+03 0.  1.
</event>
<event>
 4    1  0.6020852E+000  0.1000000E+03  0.7546771E-02  0.1280296E+00
         21   -1    0    0  501  502  0.00000000000E+00  0.00000000000E+00  0.49366482192E+03  0.49366482192E+03  0.00000000000E+00 0.  1.
         21   -1    0    0  502  503 -0.00000000000E+00 -0.00000000000E+00 -0.12354346850E+03  0.12354346850E+03  0.00000000000E+00 0.  1.
          6    1    1    2  501    0  0.87743315803E+02  0.95053289121E+02  0.33462877014E+03  0.39829565783E+03  0.17300000000E+03 0.  1.
         -6    1    1    2    0  503 -0.87743315803E+02 -0.95053289121E+02  0.35492583278E+02  0.21891263259E+03  0.17300000000E+03 0.  1.
</event>
<event>
 4    1  0.6020852E+000  0.1000000E+03  0.7546771E-02  0.1280296E+00
         21   -1    0    0  503  502  0.00000000000E+00  0.00000000000E+00  0.20963990232E+03  0.20963990232E+03  0.00000000000E+00 0. -1.
         21   -1    0    0  501  503 -0.00000000000E+00 -0.00000000000E+00 -0.34485278610E+03  0.34485278610E+03  0.00000000000E+00 0.  1.
          6    1    1    2  501    0 -0.19222396819E+03 -0.69202654707E+02 -0.93422586478E+02  0.28354160370E+03  0.17300000000E+03 0.  1.
         -6    1    1    2    0  502  0.19222396819E+03  0.69202654707E+02 -0.41790297302E+02  0.27095108472E+03  0.17300000000E+03 0. -1.
</event>
<event>
 4    1  0.6020852E+000  0.1000000E+03  0.7546771E-02  0.1280296E+00
         21   -1    0    0  503  502  0.00000000000E+00  0.00000000000E+00  0.14608237178E+04  0.14608237178E+04  0.00000000000E+00 0. -1.
         21   -1    0    0  501  503 -0.00000000000E+00 -0.00000000000E+00 -0.60642921433E+02  0.60642921433E+02  0.00000000000E+00 0.  1.
          6    1    1    2  501    0 -0.18243536443E+03  0.11913505075E+03  0.42979535428E+03  0.51198522349E+03  0.17300000000E+03 0.  1.
         -6    1    1    2    0  502  0.18243536443E+03 -0.11913505075E+03  0.97038544209E+03  0.10094814157E+04  0.17300000000E+03 0. -1.
</event>
<event>
 4    1  0.6020852E+000  0.1000000E+03  0.7546771E-02  0.1280296E+00
         21   -1    0    0  503  502  0.00000000000E+00  0.00000000000E+00  0.45445868028E+03  0.45445868028E+03  0.00000000000E+00 0. -1.
         21   -1    0    0  501  503 -0.00000000000E+00 -0.00000000000E+00 -0.79143531870E+02  0.79143531870E+02  0.00000000000E+00 0. -1.
          6    1    1    2  501    0  0.69890184712E+02  0.24418635992E+02  0.22087588015E+03  0.29016557710E+03  0.17300000000E+03 0. -1.
         -6    1    1    2    0  502 -0.69890184712E+02 -0.24418635992E+02  0.15443926826E+03  0.24343663505E+03  0.17300000000E+03 0. -1.
</event>
<event>
 4    1  0.6020852E+000  0.1000000E+03  0.7546771E-02  0.1280296E+00
         21   -1    0    0  503  502  0.00000000000E+00  0.00000000000E+00  0.28014511529E+03  0.28014511529E+03  0.00000000000E+00 0. -1.
         21   -1    0    0  501  503 -0.00000000000E+00 -0.00000000000E+00 -0.14762337141E+03  0.14762337141E+03  0.00000000000E+00 0. -1.
          6    1    1    2  501    0 -0.10120426239E+03 -0.75166834440E+01  0.30934774793E+02  0.20294029553E+03  0.17300000000E+03 0. -1.
         -6    1    1    2    0  502  0.10120426239E+03  0.75166834440E+01  0.10158696909E+03  0.22482819117E+03  0.17300000000E+03 0. -1.
</event>
<event>
 4    1  0.6020852E+000  0.1000000E+03  0.7546771E-02  0.1280296E+00
         21   -1    0    0  501  502  0.00000000000E+00  0.00000000000E+00  0.12605104276E+04  0.12605104276E+04  0.00000000000E+00 0.  1.
         21   -1    0    0  502  503 -0.00000000000E+00 -0.00000000000E+00 -0.21936702988E+03  0.21936702988E+03  0.00000000000E+00 0. -1.
          6    1    1    2  501    0  0.35034131871E+02 -0.18717226041E+03  0.11659017339E+04  0.11939500402E+04  0.17300000000E+03 0.  1.
         -6    1    1    2    0  503 -0.35034131871E+02  0.18717226041E+03 -0.12475833621E+03  0.28592741722E+03  0.17300000000E+03 0. -1.
</event>
<event>
 4    1  0.6020852E+000  0.1000000E+03  0.7546771E-02  0.1280296E+00
         21   -1    0    0  501  502  0.00000000000E+00  0.00000000000E+00  0.36336861797E+03  0.36336861797E+03  0.00000000000E+00 0.  1.
         21   -1    0    0  502  503 -0.00000000000E+00 -0.00000000000E+00 -0.10422895633E+03  0.10422895633E+03  0.00000000000E+00 0. -1.
          6    1    1    2  501    0  0.63262048160E+02  0.37259728903E+02  0.19028513891E+03  0.26744683252E+03  0.17300000000E+03 0.  1.
         -6    1    1    2    0  503 -0.63262048160E+02 -0.37259728903E+02  0.68854522727E+02  0.20015074178E+03  0.17300000000E+03 0. -1.
</event>
<event>
 4    1  0.6020852E+000  0.1000000E+03  0.7546771E-02  0.1280296E+00
         21   -1    0    0  503  502  0.00000000000E+00  0.00000000000E+00  0.22862557352E+03  0.22862557352E+03  0.00000000000E+00 0. -1.
         21   -1    0    0  501  503 -0.00000000000E+00 -0.00000000000E+00 -0.21166431565E+03  0.21166431565E+03  0.00000000000E+00 0.  1.
          6    1    1    2  501    0 -0.29977877318E+02  0.12566714556E+03 -0.33645425958E+02  0.21852212540E+03  0.17300000000E+03 0.  1.
         -6    1    1    2    0  502  0.29977877318E+02 -0.12566714556E+03  0.50606683831E+02  0.22176776377E+03  0.17300000000E+03 0. -1.
</event>
<event>
 4    1  0.6020852E+000  0.1000000E+03  0.7546771E-02  0.1280296E+00
         21   -1    0    0  503  502  0.00000000000E+00  0.00000000000E+00  0.96713149159E+02  0.96713149159E+02  0.00000000000E+00 0. -1.
         21   -1    0    0  501  503 -0.00000000000E+00 -0.00000000000E+00 -0.66009629031E+03  0.66009629031E+03  0.00000000000E+00 0.  1.
          6    1    1    2  501    0 -0.93560059008E+02  0.12433652489E+03 -0.42917722134E+03  0.48819580435E+03  0.17300000000E+03 0.  1.
         -6    1    1    2    0  502  0.93560059008E+02 -0.12433652489E+03 -0.13420591981E+03  0.26861363513E+03  0.17300000000E+03 0. -1.
</event>
<event>
 4    1  0.6020852E+000  0.1000000E+03  0.7546771E-02  0.1280296E+00
         21   -1    0    0  501  502  0.00000000000E+00  0.00000000000E+00  0.55669883756E+02  0.55669883756E+02  0.00000000000E+00 0.  1.
         21   -1    0    0  502  503 -0.00000000000E+00 -0.00000000000E+00 -0.62393365450E+03  0.62393365450E+03  0.00000000000E+00 0. -1.
          6    1    1    2  501    0 -0.21007645325E+02  0.51790764450E+02 -0.20936285120E+03  0.27728218102E+03  0.17300000000E+03 0.  1.
         -6    1    1    2    0  503  0.21007645325E+02 -0.51790764450E+02 -0.35890091954E+03  0.40232135724E+03  0.17300000000E+03 0. -1.
</event>
<event>
 4    1  0.6020852E+000  0.1000000E+03  0.7546771E-02  0.1280296E+00
         21   -1    0    0  501  502  0.00000000000E+00  0.00000000000E+00  0.50457996705E+03  0.50457996705E+03  0.00000000000E+00 0.  1.
         21   -1    0    0  502  503 -0.00000000000E+00 -0.00000000000E+00 -0.94766572267E+02  0.94766572267E+02  0.00000000000E+00 0. -1.
          6    1    1    2  501    0  0.13156512297E+03  0.23675554029E+02  0.21078524301E+03  0.30369282525E+03  0.17300000000E+03 0.  1.
         -6    1    1    2    0  503 -0.13156512297E+03 -0.23675554029E+02  0.19902815177E+03  0.29565371406E+03  0.17300000000E+03 0. -1.
</event>
<event>
 4    1  0.6020852E+000  0.1000000E+03  0.7546771E-02  0.1280296E+00
         21   -1    0    0  501  502  0.00000000000E+00  0.00000000000E+00  0.15829524730E+03  0.15829524730E+03  0.00000000000E+00 0.  1.
         21   -1    0    0  502  503 -0.00000000000E+00 -0.00000000000E+00 -0.26359381106E+03  0.26359381106E+03  0.00000000000E+00 0. -1.
          6    1    1    2  501    0  0.67484066491E+02 -0.27983372348E+02  0.30348306672E+02  0.19022930394E+03  0.17300000000E+03 0.  1.
         -6    1    1    2    0  503 -0.67484066491E+02  0.27983372348E+02 -0.13564687044E+03  0.23165975442E+03  0.17300000000E+03 0. -1.
</event>
<event>
 4    1  0.6020852E+000  0.1000000E+03  0.7546771E-02  0.1280296E+00
         21   -1    0    0  503  502  0.00000000000E+00  0.00000000000E+00  0.43266808243E+03  0.43266808243E+03  0.00000000000E+00 0.  1.
         21   -1    0    0  501  503 -0.00000000000E+00 -0.00000000000E+00 -0.21593143604E+03  0.21593143604E+03  0.00000000000E+00 0.  1.
          6    1    1    2  501    0  0.55820650016E+01  0.24131883478E+02 -0.15769303241E+03  0.23539243769E+03  0.17300000000E+03 0.  1.
         -6    1    1    2    0  502 -0.55820650016E+01 -0.24131883478E+02  0.37442967880E+03  0.41320708079E+03  0.17300000000E+03 0.  1.
</event>
<event>
 4    1  0.6020852E+000  0.1000000E+03  0.7546771E-02  0.1280296E+00
         21   -1    0    0  503  502  0.00000000000E+00  0.00000000000E+00  0.66530065012E+03  0.66530065012E+03  0.00000000000E+00 0. -1.
         21   -1    0    0  501  503 -0.00000000000E+00 -0.00000000000E+00 -0.19237356921E+03  0.19237356921E+03  0.00000000000E+00 0. -1.
          6    1    1    2  501    0  0.15507740096E+03  0.26803831918E+03  0.18070502575E+03  0.39809150603E+03  0.17300000000E+03 0. -1.
         -6    1    1    2    0  502 -0.15507740096E+03 -0.26803831918E+03  0.29222205517E+03  0.45958271330E+03  0.17300000000E+03 0. -1.
</event>
<event>
 4    1  0.6020852E+000  0.1000000E+03  0.7546771E-02  0.1280296E+00
         21   -1    0    0  503  502  0.00000000000E+00  0.00000000000E+00  0.14810639685E+03  0.14810639685E+03  0.00000000000E+00 0. -1.
         21   -1    0    0  501  503 -0.00000000000E+00 -0.00000000000E+00 -0.57513310488E+03  0.57513310488E+03  0.00000000000E+00 0. -1.
          6    1    1    2  501    0 -0.48233427072E+02  0.26478772174E+02 -0.49666388308E+03  0.52880204389E+03  0.17300000000E+03 0. -1.
         -6    1    1    2    0  502  0.48233427072E+02 -0.26478772174E+02  0.69637175046E+02  0.19443745784E+03  0.17300000000E+03 0. -1.
</event>
<event>
 4    1  0.6020852E+000  0.1000000E+03  0.7546771E-02  0.1280296E+00
         21   -1    0    0  503  502  0.00000000000E+00  0.00000000000E+00  0.73671695154E+03  0.73671695154E+03  0.00000000000E+00 0. -1.
         21   -1    0    0  501  503 -0.00000000000E+00 -0.00000000000E+00 -0.10403281343E+03  0.10403281343E+03  0.00000000000E+00 0. -1.
          6    1    1    2  501    0  0.20602526479E+03  0.21196060615E+02  0.22251626073E+03  0.34976873646E+03  0.17300000000E+03 0. -1.
         -6    1    1    2    0  502 -0.20602526479E+03 -0.21196060615E+02  0.41016787739E+03  0.49098102851E+03  0.17300000000E+03 0. -1.
</event>
<event>
 4    1  0.6020852E+000  0.1000000E+03  0.7546771E-02  0.1280296E+00
         21   -1    0    0  501  502  0.00000000000E+00  0.00000000000E+00  0.37059164067E+02  0.37059164067E+02  0.00000000000E+00 0.  1.
         21   -1    0    0  502  503 -0.00000000000E+00 -0.00000000000E+00 -0.12348157319E+04  0.12348157319E+04  0.00000000000E+00 0. -1.
          6    1    1    2  501    0 -0.12529138340E+02 -0.11882001014E+03 -0.48157265817E+03  0.52546779084E+03  0.17300000000E+03 0.  1.
         -6    1    1    2    0  503  0.12529138340E+02  0.11882001014E+03 -0.71618390970E+03  0.74640710516E+03  0.17300000000E+03 0. -1.
</event>
<event>
 4    1  0.6020852E+000  0.1000000E+03  0.7546771E-02  0.1280296E+00
         21   -1    0    0  503  502  0.00000000000E+00  0.00000000000E+00  0.15471661662E+03  0.15471661662E+03  0.00000000000E+00 0. -1.
         21   -1    0    0  501  503 -0.00000000000E+00 -0.00000000000E+00 -0.23433693368E+03  0.23433693368E+03  0.00000000000E+00 0. -1.
          6    1    1    2  501    0 -0.78358727357E+02 -0.52755238891E+01 -0.52688125930E+02  0.19716226799E+03  0.17300000000E+03 0. -1.
         -6    1    1    2    0  502  0.78358727357E+02  0.52755238891E+01 -0.26932191128E+02  0.19189128230E+03  0.17300000000E+03 0. -1.
</event>
<event>
 4    1  0.6020852E+000  0.1000000E+03  0.7546771E-02  0.1280296E+00
         21   -1    0    0  503  502  0.00000000000E+00  0.00000000000E+00  0.16259484077E+03  0.16259484077E+03  0.00000000000E+00 0. -1.
         21   -1    0    0  501  503 -0.00000000000E+00 -0.00000000000E+00 -0.41126027822E+03  0.41126027822E+03  0.00000000000E+00 0. -1.
          6    1    1    2  501    0 -0.65177668676E+02 -0.76605267840E+02 -0.30605853838E+03  0.36567379516E+03  0.17300000000E+03 0. -1.
         -6    1    1    2    0  502  0.65177668676E+02  0.76605267840E+02  0.57393100926E+02  0.20818132382E+03  0.17300000000E+03 0. -1.
</event>
<event>
 4    1  0.6020852E+000  0.1000000E+03  0.7546771E-02  0.1280296E+00
         21   -1    0    0  503  502  0.00000000000E+00  0.00000000000E+00  0.98069730731E+02  0.98069730731E+02  0.00000000000E+00 0. -1.
         21   -1    0    0  501  503 -0.00000000000E+00 -0.00000000000E+00 -0.88425172716E+03  0.88425172716E+03  0.00000000000E+00 0. -1.
          6    1    1    2  501    0 -0.86883816764E+02 -0.58727961857E+02 -0.75000278777E+03  0.77680818275E+03  0.17300000000E+03 0. -1.
         -6    1    1    2    0  502  0.86883816764E+02  0.58727961857E+02 -0.36179208654E+02  0.20551327514E+03  0.17300000000E+03 0. -1.
</event>
<event>
 4    1  0.6020852E+000  0.1000000E+03  0.7546771E-02  0.1280296E+00
         21   -1    0    0  503  502  0.00000000000E+00  0.00000000000E+00  0.54008379005E+03  0.54008379005E+03  0.00000000000E+00 0.  1.
         21   -1    0    0  501  503 -0.00000000000E+00 -0.00000000000E+00 -0.94158035202E+02  0.94158035202E+02  0.00000000000E+00 0.  1.
          6    1    1    2  501    0 -0.13626088575E+03 -0.41381620031E+02  0.18725491938E+03  0.29201519189E+03  0.17300000000E+03 0.  1.
         -6    1    1    2    0  502  0.13626088575E+03  0.41381620031E+02  0.25867083547E+03  0.34222663336E+03  0.17300000000E+03 0.  1.
</event>
<event>
 4    1  0.6020852E+000  0.1000000E+03  0.7546771E-02  0.1280296E+00
         21   -1    0    0  503  502  0.00000000000E+00  0.00000000000E+00  0.34812853313E+03  0.34812853313E+03  0.00000000000E+00 0.  1.
         21   -1    0    0  501  503 -0.00000000000E+00 -0.00000000000E+00 -0.23609188598E+03  0.23609188598E+03  0.00000000000E+00 0.  1.
          6    1    1    2  501    0 -0.14824800220E+03  0.33275834305E+02 -0.11802345696E+03  0.25873400955E+03  0.17300000000E+03 0.  1.
         -6    1    1    2    0  502  0.14824800220E+03 -0.33275834305E+02  0.23006010411E+03  0.32548640956E+03  0.17300000000E+03 0.  1.
</event>
<event>
 4    1  0.6020852E+000  0.1000000E+03  0.7546771E-02  0.1280296E+00
         21   -1    0    0  503  502  0.00000000000E+00  0.00000000000E+00  0.69621477939E+02  0.69621477939E+02  0.00000000000E+00 0.  1.
         21   -1    0    0  501  503 -0.00000000000E+00 -0.00000000000E+00 -0.96084367129E+03  0.96084367129E+03  0.00000000000E+00 0.  1.
          6    1    1    2  501    0 -0.18860421180E+03  0.36132729591E+02 -0.46442892723E+03  0.53150762112E+03  0.17300000000E+03 0.  1.
         -6    1    1    2    0  502  0.18860421180E+03 -0.36132729591E+02 -0.42679326612E+03  0.49895752811E+03  0.17300000000E+03 0.  1.
</event>
<event>
 4    1  0.6020852E+000  0.1000000E+03  0.7546771E-02  0.1280296E+00
         21   -1    0    0  503  502  0.00000000000E+00  0.00000000000E+00  0.78131582933E+02  0.78131582933E+02  0.00000000000E+00 0.  1.
         21   -1    0    0  501  503 -0.00000000000E+00 -0.00000000000E+00 -0.10645385632E+04  0.10645385632E+04  0.00000000000E+00 0.  1.
          6    1    1    2  501    0  0.17939279832E+03 -0.50373476913E+02 -0.76284428070E+03  0.80410177208E+03  0.17300000000E+03 0.  1.
         -6    1    1    2    0  502 -0.17939279832E+03  0.50373476913E+02 -0.22356269954E+03  0.33856837402E+03  0.17300000000E+03 0.  1.
</event>
<event>
 4    1  0.6020852E+000  0.1000000E+03  0.7546771E-02  0.1280296E+00
         21   -1    0    0  503  502  0.00000000000E+00  0.00000000000E+00  0.91755619756E+02  0.91755619756E+02  0.00000000000E+00 0. -1.
         21   -1    0    0  501  503 -0.00000000000E+00 -0.00000000000E+00 -0.62686321457E+03  0.62686321457E+03  0.00000000000E+00 0. -1.
          6    1    1    2  501    0  0.13724805165E+03  0.93089185482E+02 -0.28149567782E+03  0.36969100715E+03  0.17300000000E+03 0. -1.
         -6    1    1    2    0  502 -0.13724805165E+03 -0.93089185482E+02 -0.25361191700E+03  0.34892782718E+03  0.17300000000E+03 0. -1.
</event>
<event>
 4    1  0.6020852E+000  0.1000000E+03  0.7546771E-02  0.1280296E+00
         21   -1    0    0  503  502  0.00000000000E+00  0.00000000000E+00  0.18310984074E+03  0.18310984074E+03  0.00000000000E+00 0.  1.
         21   -1    0    0  501  503 -0.00000000000E+00 -0.00000000000E+00 -0.73884168732E+03  0.73884168732E+03  0.00000000000E+00 0.  1.
          6    1    1    2  501    0  0.10935010150E+03 -0.98090115729E+01 -0.66069291970E+03  0.69173535080E+03  0.17300000000E+03 0.  1.
         -6    1    1    2    0  502 -0.10935010150E+03  0.98090115729E+01  0.10496107311E+03  0.23021617727E+03  0.17300000000E+03 0.  1.
</event>
<event>
 4    1  0.6020852E+000  0.1000000E+03  0.7546771E-02  0.1280296E+00
         21   -1    0    0  501  502  0.00000000000E+00  0.00000000000E+00  0.17286442780E+03  0.17286442780E+03  0.00000000000E+00 0.  1.
         21   -1    0    0  502  503 -0.00000000000E+00 -0.00000000000E+00 -0.63850491232E+03  0.63850491232E+03  0.00000000000E+00 0.  1.
          6    1    1    2  501    0  0.16150246215E+03  0.60794976165E+01  0.51794012253E+02  0.24234608575E+03  0.17300000000E+03 0.  1.
         -6    1    1    2    0  503 -0.16150246215E+03 -0.60794976165E+01 -0.51743449677E+03  0.56902325437E+03  0.17300000000E+03 0.  1.
</event>
<event>
 4    1  0.6020852E+000  0.1000000E+03  0.7546771E-02  0.1280296E+00
         21   -1    0    0  501  502  0.00000000000E+00  0.00000000000E+00  0.91943025350E+02  0.91943025350E+02  0.00000000000E+00 0.  1.
         21   -1    0    0  502  503 -0.00000000000E+00 -0.00000000000E+00 -0.35718576773E+03  0.35718576773E+03  0.00000000000E+00 0.  1.
          6    1    1    2  501    0 -0.33772287583E+02 -0.15398316130E+02 -0.84086235143E+02  0.19590092008E+03  0.17300000000E+03 0.  1.
         -6    1    1    2    0  503  0.33772287583E+02  0.15398316130E+02 -0.18115650723E+03  0.25322787300E+03  0.17300000000E+03 0.  1.
</event>
<event>
 4    1  0.6020852E+000  0.1000000E+03  0.7546771E-02  0.1280296E+00
         21   -1    0    0  501  502  0.00000000000E+00  0.00000000000E+00  0.10758355474E+03  0.10758355474E+03  0.00000000000E+00 0.  1.
         21   -1    0    0  502  503 -0.00000000000E+00 -0.00000000000E+00 -0.53993716370E+03  0.53993716370E+03  0.00000000000E+00 0.  1.
          6    1    1    2  501    0 -0.15410069286E+03  0.28318438240E+02 -0.13546131334E+03  0.26986612402E+03  0.17300000000E+03 0.  1.
         -6    1    1    2    0  503  0.15410069286E+03 -0.28318438240E+02 -0.29689229562E+03  0.37765459441E+03  0.17300000000E+03 0.  1.
</event>
<event>
 4    1  0.6020852E+000  0.1000000E+03  0.7546771E-02  0.1280296E+00
         21   -1    0    0  503  502  0.00000000000E+00  0.00000000000E+00  0.20449642285E+02  0.20449642285E+02  0.00000000000E+00 0.  1.
         21   -1    0    0  501  503 -0.00000000000E+00 -0.00000000000E+00 -0.22279061264E+04  0.22279061264E+04  0.00000000000E+00 0. -1.
          6    1    1    2  501    0  0.43749352133E+02  0.23382303509E+02 -0.17081485120E+04  0.17176032944E+04  0.17300000000E+03 0.  1.
         -6    1    1    2    0  502 -0.43749352133E+02 -0.23382303509E+02 -0.49930797211E+03  0.53075247427E+03  0.17300000000E+03 0.  1.
</event>
<event>
 4    1  0.6020852E+000  0.1000000E+03  0.7546771E-02  0.1280296E+00
         21   -1    0    0  503  502  0.00000000000E+00  0.00000000000E+00  0.25308901784E+03  0.25308901784E+03  0.00000000000E+00 0.  1.
         21   -1    0    0  501  503 -0.00000000000E+00 -0.00000000000E+00 -0.13453423259E+03  0.13453423259E+03  0.00000000000E+00 0. -1.
          6    1    1    2  501    0 -0.45698820555E+02  0.22076052449E+02  0.18000497842E+02  0.18118706415E+03  0.17300000000E+03 0.  1.
         -6    1    1    2    0  502  0.45698820555E+02 -0.22076052449E+02  0.10055428740E+03  0.20643618628E+03  0.17300000000E+03 0.  1.
</event>
<event>
 4    1  0.6020852E+000  0.1000000E+03  0.7546771E-02  0.1280296E+00
         21   -1    0    0  503  502  0.00000000000E+00  0.00000000000E+00  0.18129455015E+03  0.18129455015E+03  0.00000000000E+00 0.  1.
         21   -1    0    0  501  503 -0.00000000000E+00 -0.00000000000E+00 -0.36019678273E+03  0.36019678273E+03  0.00000000000E+00 0. -1.
          6    1    1    2  501    0 -0.17551236664E+03  0.63744378226E+02 -0.11325506700E+03  0.27861020585E+03  0.17300000000E+03 0.  1.
         -6    1    1    2    0  502  0.17551236664E+03 -0.63744378226E+02 -0.65647165577E+02  0.26288112703E+03  0.17300000000E+03 0.  1.
</event>
<event>
 4    1  0.6020852E+000  0.1000000E+03  0.7546771E-02  0.1280296E+00
         21   -1    0    0  503  502  0.00000000000E+00  0.00000000000E+00  0.15858638391E+03  0.15858638391E+03  0.00000000000E+00 0. -1.
         21   -1    0    0  501  503 -0.00000000000E+00 -0.00000000000E+00 -0.44158830876E+03  0.44158830876E+03  0.00000000000E+00 0. -1.
          6    1    1    2  501    0  0.12392003992E+03  0.15030701909E+03 -0.19411228560E+03  0.32489529960E+03  0.17300000000E+03 0. -1.
         -6    1    1    2    0  502 -0.12392003992E+03 -0.15030701909E+03 -0.88889639251E+02  0.27527939307E+03  0.17300000000E+03 0. -1.
</event>
<event>
 4    1  0.6020852E+000  0.1000000E+03  0.7546771E-02  0.1280296E+00
         21   -1    0    0  503  502  0.00000000000E+00  0.00000000000E+00  0.68921761080E+02  0.68921761080E+02  0.00000000000E+00 0.  1.
         21   -1    0    0  501  503 -0.00000000000E+00 -0.00000000000E+00 -0.61403644056E+03  0.61403644056E+03  0.00000000000E+00 0.  1.
          6    1    1    2  501    0  0.77417322395E+00  0.88230892059E+02 -0.38521467557E+03  0.43139846538E+03  0.17300000000E+03 0.  1.
         -6    1    1    2    0  502 -0.77417322395E+00 -0.88230892059E+02 -0.15990000392E+03  0.25155973627E+03  0.17300000000E+03 0.  1.
</event>
<event>
 4    1  0.6020852E+000  0.1000000E+03  0.7546771E-02  0.1280296E+00
         21   -1    0    0  503  502  0.00000000000E+00  0.00000000000E+00  0.12065380433E+03  0.12065380433E+03  0.00000000000E+00 0. -1.
         21   -1    0    0  501  503 -0.00000000000E+00 -0.00000000000E+00 -0.41288900465E+03  0.41288900465E+03  0.00000000000E+00 0. -1.
          6    1    1    2  501    0 -0.88220154621E+02 -0.39774425826E+02 -0.26872547177E+03  0.33392690788E+03  0.17300000000E+03 0.  1.
         -6    1    1    2    0  502  0.88220154621E+02  0.39774425826E+02 -0.23509728549E+02  0.19961590109E+03  0.17300000000E+03 0.  1.
</event>
<event>
 4    1  0.6020852E+000  0.1000000E+03  0.7546771E-02  0.1280296E+00
         21   -1    0    0  503  502  0.00000000000E+00  0.00000000000E+00  0.82757538049E+03  0.82757538049E+03  0.00000000000E+00 0. -1.
         21   -1    0    0  501  503 -0.00000000000E+00 -0.00000000000E+00 -0.39582792819E+02  0.39582792819E+02  0.00000000000E+00 0. -1.
          6    1    1    2  501    0  0.48004086837E+02  0.20079102396E+02  0.42036753705E+03  0.45754281648E+03  0.17300000000E+03 0.  1.
         -6    1    1    2    0  502 -0.48004086837E+02 -0.20079102396E+02  0.36762505062E+03  0.40961535683E+03  0.17300000000E+03 0.  1.
</event>
<event>
 4    1  0.6020852E+000  0.1000000E+03  0.7546771E-02  0.1280296E+00
         21   -1    0    0  503  502  0.00000000000E+00  0.00000000000E+00  0.19416731584E+03  0.19416731584E+03  0.00000000000E+00 0. -1.
         21   -1    0    0  501  503 -0.00000000000E+00 -0.00000000000E+00 -0.40393319123E+03  0.40393319123E+03  0.00000000000E+00 0. -1.
          6    1    1    2  501    0  0.84674836867E+02  0.74489565310E+02 -0.30687779994E+03  0.36989391376E+03  0.17300000000E+03 0.  1.
         -6    1    1    2    0  502 -0.84674836867E+02 -0.74489565310E+02  0.97111924557E+02  0.22820659331E+03  0.17300000000E+03 0.  1.
</event>
<event>
 4    1  0.6020852E+000  0.1000000E+03  0.7546771E-02  0.1280296E+00
         21   -1    0    0  501  502  0.00000000000E+00  0.00000000000E+00  0.85959685664E+02  0.85959685664E+02  0.00000000000E+00 0. -1.
         21   -1    0    0  502  503 -0.00000000000E+00 -0.00000000000E+00 -0.61002393879E+03  0.61002393879E+03  0.00000000000E+00 0.  1.
          6    1    1    2  501    0 -0.48285013899E-01 -0.35649152968E+00 -0.34039985007E+02  0.17631746935E+03  0.17300000000E+03 0. -1.
         -6    1    1    2    0  503  0.48285013899E-01  0.35649152968E+00 -0.49002426811E+03  0.51966615510E+03  0.17300000000E+03 0.  1.
</event>
<event>
 4    1  0.6020852E+000  0.1000000E+03  0.7546771E-02  0.1280296E+00
         21   -1    0    0  501  502  0.00000000000E+00  0.00000000000E+00  0.36001894772E+03  0.36001894772E+03  0.00000000000E+00 0. -1.
         21   -1    0    0  502  503 -0.00000000000E+00 -0.00000000000E+00 -0.13025745006E+03  0.13025745006E+03  0.00000000000E+00 0. -1.
          6    1    1    2  501    0  0.40711759993E+02 -0.40630027860E+01  0.25486588860E+03  0.31074036842E+03  0.17300000000E+03 0. -1.
         -6    1    1    2    0  503 -0.40711759993E+02  0.40630027860E+01 -0.25104390940E+02  0.17953602936E+03  0.17300000000E+03 0. -1.
</event>
<event>
 4    1  0.6020852E+000  0.1000000E+03  0.7546771E-02  0.1280296E+00
         21   -1    0    0  503  502  0.00000000000E+00  0.00000000000E+00  0.35253681466E+03  0.35253681466E+03  0.00000000000E+00 0.  1.
         21   -1    0    0  501  503 -0.00000000000E+00 -0.00000000000E+00 -0.18211184701E+03  0.18211184701E+03  0.00000000000E+00 0.  1.
          6    1    1    2  501    0 -0.16284831144E+03 -0.86620098614E+02  0.68547046039E+02  0.26201204465E+03  0.17300000000E+03 0.  1.
         -6    1    1    2    0  502  0.16284831144E+03  0.86620098614E+02  0.10187792161E+03  0.27263661701E+03  0.17300000000E+03 0.  1.
</event>
<event>
 4    1  0.6020852E+000  0.1000000E+03  0.7546771E-02  0.1280296E+00
         21   -1    0    0  503  502  0.00000000000E+00  0.00000000000E+00  0.11690318383E+03  0.11690318383E+03  0.00000000000E+00 0.  1.
         21   -1    0    0  501  503 -0.00000000000E+00 -0.00000000000E+00 -0.66233981016E+03  0.66233981016E+03  0.00000000000E+00 0.  1.
          6    1    1    2  501    0  0.16737660571E+03  0.67966530300E+02 -0.44344055433E+03  0.50911973308E+03  0.17300000000E+03 0.  1.
         -6    1    1    2    0  502 -0.16737660571E+03 -0.67966530300E+02 -0.10199607200E+03  0.27012326091E+03  0.17300000000E+03 0.  1.
</event>
<event>
 4    1  0.6020852E+000  0.1000000E+03  0.7546771E-02  0.1280296E+00
         21   -1    0    0  503  502  0.00000000000E+00  0.00000000000E+00  0.11138924256E+04  0.11138924256E+04  0.00000000000E+00 0.  1.
         21   -1    0    0  501  503 -0.00000000000E+00 -0.00000000000E+00 -0.70013168030E+03  0.70013168030E+03  0.00000000000E+00 0.  1.
          6    1    1    2  501    0 -0.50096559438E+02  0.40967732726E+03 -0.57504392145E+03  0.72866294631E+03  0.17300000000E+03 0.  1.
         -6    1    1    2    0  502  0.50096559438E+02 -0.40967732726E+03  0.98880466670E+03  0.10853611595E+04  0.17300000000E+03 0.  1.
</event>
<event>
 4    1  0.6020852E+000  0.1000000E+03  0.7546771E-02  0.1280296E+00
         21   -1    0    0  503  502  0.00000000000E+00  0.00000000000E+00  0.11271715322E+03  0.11271715322E+03  0.00000000000E+00 0. -1.
         21   -1    0    0  501  503 -0.00000000000E+00 -0.00000000000E+00 -0.50493200995E+03  0.50493200995E+03  0.00000000000E+00 0.  1.
          6    1    1    2  501    0  0.19001285304E+02  0.85365342877E+02 -0.37611770107E+03  0.42313333083E+03  0.17300000000E+03 0.  1.
         -6    1    1    2    0  502 -0.19001285304E+02 -0.85365342877E+02 -0.16097155665E+02  0.19451583233E+03  0.17300000000E+03 0. -1.
</event>
<event>
 4    1  0.6020852E+000  0.1000000E+03  0.7546771E-02  0.1280296E+00
         21   -1    0    0  503  502  0.00000000000E+00  0.00000000000E+00  0.74570091900E+02  0.74570091900E+02  0.00000000000E+00 0. -1.
         21   -1    0    0  501  503 -0.00000000000E+00 -0.00000000000E+00 -0.47444949060E+03  0.47444949060E+03  0.00000000000E+00 0.  1.
          6    1    1    2  501    0  0.50388059838E+02 -0.53539682099E+02 -0.19011833114E+03  0.26735638008E+03  0.17300000000E+03 0.  1.
         -6    1    1    2    0  502 -0.50388059838E+02  0.53539682099E+02 -0.20976106756E+03  0.28166320242E+03  0.17300000000E+03 0. -1.
</event>
<event>
 4    1  0.6020852E+000  0.1000000E+03  0.7546771E-02  0.1280296E+00
         21   -1    0    0  503  502  0.00000000000E+00  0.00000000000E+00  0.18672525888E+04  0.18672525888E+04  0.00000000000E+00 0. -1.
         21   -1    0    0  501  503 -0.00000000000E+00 -0.00000000000E+00 -0.12274693090E+03  0.12274693090E+03  0.00000000000E+00 0.  1.
          6    1    1    2  501    0  0.18156521763E+03  0.66844814346E+02  0.36160613071E+02  0.26205103967E+03  0.17300000000E+03 0.  1.
         -6    1    1    2    0  502 -0.18156521763E+03 -0.66844814346E+02  0.17083450448E+04  0.17279484800E+04  0.17300000000E+03 0. -1.
</event>
<event>
 4    1  0.6020852E+000  0.1000000E+03  0.7546771E-02  0.1280296E+00
         21   -1    0    0  503  502  0.00000000000E+00  0.00000000000E+00  0.22557185905E+04  0.22557185905E+04  0.00000000000E+00 0. -1.
         21   -1    0    0  501  503 -0.00000000000E+00 -0.00000000000E+00 -0.33718611102E+02  0.33718611102E+02  0.00000000000E+00 0.  1.
          6    1    1    2  501    0 -0.57777555500E+02  0.90510692615E+02  0.33892201436E+03  0.39538280592E+03  0.17300000000E+03 0.  1.
         -6    1    1    2    0  502  0.57777555500E+02 -0.90510692615E+02  0.18830779650E+04  0.18940543957E+04  0.17300000000E+03 0. -1.
</event>
<event>
 4    1  0.6020852E+000  0.1000000E+03  0.7546771E-02  0.1280296E+00
         21   -1    0    0  503  502  0.00000000000E+00  0.00000000000E+00  0.11723174800E+04  0.11723174800E+04  0.00000000000E+00 0. -1.
         21   -1    0    0  501  503 -0.00000000000E+00 -0.00000000000E+00 -0.46341876599E+02  0.46341876599E+02  0.00000000000E+00 0.  1.
          6    1    1    2  501    0 -0.82616557869E+02 -0.13201885940E+03  0.53162613499E+03  0.58035318753E+03  0.17300000000E+03 0.  1.
         -6    1    1    2    0  502  0.82616557869E+02  0.13201885940E+03  0.59434946839E+03  0.63830616905E+03  0.17300000000E+03 0. -1.
</event>
<event>
 4    1  0.6020852E+000  0.1000000E+03  0.7546771E-02  0.1280296E+00
         21   -1    0    0  503  502  0.00000000000E+00  0.00000000000E+00  0.25337327198E+03  0.25337327198E+03  0.00000000000E+00 0. -1.
         21   -1    0    0  501  503 -0.00000000000E+00 -0.00000000000E+00 -0.48346250736E+03  0.48346250736E+03  0.00000000000E+00 0.  1.
          6    1    1    2  501    0 -0.89773758573E+02 -0.12090336801E+03 -0.39332850592E+03  0.45531666529E+03  0.17300000000E+03 0.  1.
         -6    1    1    2    0  502  0.89773758573E+02  0.12090336801E+03  0.16323927054E+03  0.28151911404E+03  0.17300000000E+03 0. -1.
</event>
<event>
 4    1  0.6020852E+000  0.1000000E+03  0.7546771E-02  0.1280296E+00
         21   -1    0    0  503  502  0.00000000000E+00  0.00000000000E+00  0.61655676275E+02  0.61655676275E+02  0.00000000000E+00 0. -1.
         21   -1    0    0  501  503 -0.00000000000E+00 -0.00000000000E+00 -0.24554846752E+04  0.24554846752E+04  0.00000000000E+00 0.  1.
          6    1    1    2  501    0  0.16747727213E+03 -0.95383212319E+02 -0.21361725946E+04  0.21518152681E+04  0.17300000000E+03 0. -1.
         -6    1    1    2    0  502 -0.16747727213E+03  0.95383212319E+02 -0.25765640424E+03  0.36532508334E+03  0.17300000000E+03 0.  1.
</event>
<event>
 4    1  0.6020852E+000  0.1000000E+03  0.7546771E-02  0.1280296E+00
         21   -1    0    0  503  502  0.00000000000E+00  0.00000000000E+00  0.27491300256E+03  0.27491300256E+03  0.00000000000E+00 0. -1.
         21   -1    0    0  501  503 -0.00000000000E+00 -0.00000000000E+00 -0.25404031564E+03  0.25404031564E+03  0.00000000000E+00 0.  1.
          6    1    1    2  501    0 -0.91508274132E+02  0.13888619419E+03 -0.10031538934E+03  0.26010635615E+03  0.17300000000E+03 0. -1.
         -6    1    1    2    0  502  0.91508274132E+02 -0.13888619419E+03  0.12118807626E+03  0.26884696204E+03  0.17300000000E+03 0.  1.
</event>
<event>
 4    1  0.6020852E+000  0.1000000E+03  0.7546771E-02  0.1280296E+00
         21   -1    0    0  503  502  0.00000000000E+00  0.00000000000E+00  0.17186770678E+03  0.17186770678E+03  0.00000000000E+00 0. -1.
         21   -1    0    0  501  503 -0.00000000000E+00 -0.00000000000E+00 -0.18759327774E+03  0.18759327774E+03  0.00000000000E+00 0.  1.
          6    1    1    2  501    0 -0.20272343847E+02  0.42647483710E+02 -0.16951721767E+02  0.18012811181E+03  0.17300000000E+03 0. -1.
         -6    1    1    2    0  502  0.20272343847E+02 -0.42647483710E+02  0.12261508103E+01  0.17933287272E+03  0.17300000000E+03 0.  1.
</event>
<event>
 4    1  0.6020852E+000  0.1000000E+03  0.7546771E-02  0.1280296E+00
         21   -1    0    0  503  502  0.00000000000E+00  0.00000000000E+00  0.73865288686E+02  0.73865288686E+02  0.00000000000E+00 0. -1.
         21   -1    0    0  501  503 -0.00000000000E+00 -0.00000000000E+00 -0.11468777416E+04  0.11468777416E+04  0.00000000000E+00 0.  1.
          6    1    1    2  501    0 -0.20977460605E+03 -0.89249928917E+02 -0.64776075293E+03  0.70816236005E+03  0.17300000000E+03 0. -1.
         -6    1    1    2    0  502  0.20977460605E+03  0.89249928917E+02 -0.42525169997E+03  0.51258067022E+03  0.17300000000E+03 0.  1.
</event>
<event>
 4    1  0.6020852E+000  0.1000000E+03  0.7546771E-02  0.1280296E+00
         21   -1    0    0  503  502  0.00000000000E+00  0.00000000000E+00  0.30118209351E+03  0.30118209351E+03  0.00000000000E+00 0. -1.
         21   -1    0    0  501  503 -0.00000000000E+00 -0.00000000000E+00 -0.17411388853E+03  0.17411388853E+03  0.00000000000E+00 0. -1.
          6    1    1    2  501    0 -0.87982706636E+01 -0.10494615530E+03 -0.47366433061E+02  0.20799924053E+03  0.17300000000E+03 0. -1.
         -6    1    1    2    0  502  0.87982706636E+01  0.10494615530E+03  0.17443463804E+03  0.26729674152E+03  0.17300000000E+03 0. -1.
</event>
<event>
 4    1  0.6020852E+000  0.1000000E+03  0.7546771E-02  0.1280296E+00
         21   -1    0    0  503  502  0.00000000000E+00  0.00000000000E+00  0.46529076683E+03  0.46529076683E+03  0.00000000000E+00 0. -1.
         21   -1    0    0  501  503 -0.00000000000E+00 -0.00000000000E+00 -0.69829808457E+02  0.69829808457E+02  0.00000000000E+00 0. -1.
          6    1    1    2  501    0  0.50541244383E+02 -0.23858512554E+01  0.19985858349E+03  0.26913298398E+03  0.17300000000E+03 0. -1.
         -6    1    1    2    0  502 -0.50541244383E+02  0.23858512554E+01  0.19560237488E+03  0.26598759131E+03  0.17300000000E+03 0. -1.
</event>
<event>
 4    1  0.6020852E+000  0.1000000E+03  0.7546771E-02  0.1280296E+00
         21   -1    0    0  503  502  0.00000000000E+00  0.00000000000E+00  0.25369799903E+03  0.25369799903E+03  0.00000000000E+00 0. -1.
         21   -1    0    0  501  503 -0.00000000000E+00 -0.00000000000E+00 -0.42371777671E+03  0.42371777671E+03  0.00000000000E+00 0. -1.
          6    1    1    2  501    0  0.25368151687E+03 -0.63343397921E+02 -0.18410170719E+03  0.36357824007E+03  0.17300000000E+03 0. -1.
         -6    1    1    2    0  502 -0.25368151687E+03  0.63343397921E+02  0.14081929506E+02  0.31383753568E+03  0.17300000000E+03 0. -1.
</event>
<event>
 4    1  0.6020852E+000  0.1000000E+03  0.7546771E-02  0.1280296E+00
         21   -1    0    0  503  502  0.00000000000E+00  0.00000000000E+00  0.81254111812E+02  0.81254111812E+02  0.00000000000E+00 0. -1.
         21   -1    0    0  501  503 -0.00000000000E+00 -0.00000000000E+00 -0.42317841055E+03  0.42317841055E+03  0.00000000000E+00 0. -1.
          6    1    1    2  501    0 -0.20351676108E+02 -0.19942460335E+01 -0.25739165645E+03  0.31080159675E+03  0.17300000000E+03 0. -1.
         -6    1    1    2    0  502  0.20351676108E+02  0.19942460335E+01 -0.84532642290E+02  0.19363092560E+03  0.17300000000E+03 0. -1.
</event>
<event>
 4    1  0.6020852E+000  0.1000000E+03  0.7546771E-02  0.1280296E+00
         21   -1    0    0  503  502  0.00000000000E+00  0.00000000000E+00  0.41881238326E+02  0.41881238326E+02  0.00000000000E+00 0.  1.
         21   -1    0    0  501  503 -0.00000000000E+00 -0.00000000000E+00 -0.15855219283E+04  0.15855219283E+04  0.00000000000E+00 0.  1.
          6    1    1    2  501    0  0.11397614954E+01  0.11043522665E+03 -0.12638261377E+04  0.12803838271E+04  0.17300000000E+03 0.  1.
         -6    1    1    2    0  502 -0.11397614954E+01 -0.11043522665E+03 -0.27981455223E+03  0.34701933949E+03  0.17300000000E+03 0.  1.
</event>
<event>
 4    1  0.6020852E+000  0.1000000E+03  0.7546771E-02  0.1280296E+00
         21   -1    0    0  503  502  0.00000000000E+00  0.00000000000E+00  0.54527982612E+02  0.54527982612E+02  0.00000000000E+00 0. -1.
         21   -1    0    0  501  503 -0.00000000000E+00 -0.00000000000E+00 -0.79516213149E+03  0.79516213149E+03  0.00000000000E+00 0.  1.
          6    1    1    2  501    0 -0.46750101346E+02 -0.10316387283E+03 -0.42034510664E+03  0.46845209500E+03  0.17300000000E+03 0.  1.
         -6    1    1    2    0  502  0.46750101346E+02  0.10316387283E+03 -0.32028904224E+03  0.38123801911E+03  0.17300000000E+03 0. -1.
</event>
<event>
 4    1  0.6020852E+000  0.1000000E+03  0.7546771E-02  0.1280296E+00
         21   -1    0    0  503  502  0.00000000000E+00  0.00000000000E+00  0.40945929145E+03  0.40945929145E+03  0.00000000000E+00 0. -1.
         21   -1    0    0  501  503 -0.00000000000E+00 -0.00000000000E+00 -0.14839632165E+03  0.14839632165E+03  0.00000000000E+00 0. -1.
          6    1    1    2  501    0 -0.17198946254E+03 -0.24358187331E+02  0.10147113879E+03  0.26532826559E+03  0.17300000000E+03 0. -1.
         -6    1    1    2    0  502  0.17198946254E+03  0.24358187331E+02  0.15959183101E+03  0.29252734751E+03  0.17300000000E+03 0. -1.
</event>
<event>
 4    1  0.6020852E+000  0.1000000E+03  0.7546771E-02  0.1280296E+00
         21   -1    0    0  501  502  0.00000000000E+00  0.00000000000E+00  0.23399596527E+03  0.23399596527E+03  0.00000000000E+00 0.  1.
         21   -1    0    0  502  503 -0.00000000000E+00 -0.00000000000E+00 -0.15096474243E+03  0.15096474243E+03  0.00000000000E+00 0.  1.
          6    1    1    2  501    0  0.28147330489E+02 -0.50129152637E+02  0.88344610710E+02  0.20258078487E+03  0.17300000000E+03 0.  1.
         -6    1    1    2    0  503 -0.28147330489E+02  0.50129152637E+02 -0.53133878692E+01  0.18237992282E+03  0.17300000000E+03 0.  1.
</event>
<event>
 4    1  0.6020852E+000  0.1000000E+03  0.7546771E-02  0.1280296E+00
         21   -1    0    0  501  502  0.00000000000E+00  0.00000000000E+00  0.29342880929E+04  0.29342880929E+04  0.00000000000E+00 0. -1.
         21   -1    0    0  502  503 -0.00000000000E+00 -0.00000000000E+00 -0.17231209170E+02  0.17231209170E+02  0.00000000000E+00 0. -1.
          6    1    1    2  501    0 -0.85077806912E+02 -0.74343532572E+01  0.22165215077E+04  0.22249022668E+04  0.17300000000E+03 0. -1.
         -6    1    1    2    0  503  0.85077806912E+02  0.74343532572E+01  0.70053537607E+03  0.72661703528E+03  0.17300000000E+03 0. -1.
</event>
<event>
 4    1  0.6020852E+000  0.1000000E+03  0.7546771E-02  0.1280296E+00
         21   -1    0    0  501  502  0.00000000000E+00  0.00000000000E+00  0.52137250092E+03  0.52137250092E+03  0.00000000000E+00 0. -1.
         21   -1    0    0  502  503 -0.00000000000E+00 -0.00000000000E+00 -0.13285139969E+03  0.13285139969E+03  0.00000000000E+00 0. -1.
          6    1    1    2  501    0 -0.13043407575E+03 -0.56496099066E+02  0.36617425269E+03  0.42920559253E+03  0.17300000000E+03 0. -1.
         -6    1    1    2    0  503  0.13043407575E+03  0.56496099066E+02  0.22346848539E+02  0.22501830807E+03  0.17300000000E+03 0. -1.
</event>
<event>
 4    1  0.6020852E+000  0.1000000E+03  0.7546771E-02  0.1280296E+00
         21   -1    0    0  503  502  0.00000000000E+00  0.00000000000E+00  0.27948601139E+03  0.27948601139E+03  0.00000000000E+00 0. -1.
         21   -1    0    0  501  503 -0.00000000000E+00 -0.00000000000E+00 -0.89071257569E+03  0.89071257569E+03  0.00000000000E+00 0. -1.
          6    1    1    2  501    0 -0.31062895953E+02 -0.11796069479E+03 -0.83544436615E+03  0.86184448595E+03  0.17300000000E+03 0. -1.
         -6    1    1    2    0  502  0.31062895953E+02  0.11796069479E+03  0.22421780185E+03  0.30835410113E+03  0.17300000000E+03 0. -1.
</event>
<event>
 4    1  0.6020852E+000  0.1000000E+03  0.7546771E-02  0.1280296E+00
         21   -1    0    0  503  502  0.00000000000E+00  0.00000000000E+00  0.90037650532E+03  0.90037650532E+03  0.00000000000E+00 0. -1.
         21   -1    0    0  501  503 -0.00000000000E+00 -0.00000000000E+00 -0.77209056871E+02  0.77209056871E+02  0.00000000000E+00 0. -1.
          6    1    1    2  501    0  0.18494043276E+03  0.43701203979E+01  0.27578041326E+03  0.37444078031E+03  0.17300000000E+03 0. -1.
         -6    1    1    2    0  502 -0.18494043276E+03 -0.43701203979E+01  0.54738703519E+03  0.60314478188E+03  0.17300000000E+03 0. -1.
</event>
<event>
 4    1  0.6020852E+000  0.1000000E+03  0.7546771E-02  0.1280296E+00
         21   -1    0    0  503  502  0.00000000000E+00  0.00000000000E+00  0.12333334809E+04  0.12333334809E+04  0.00000000000E+00 0. -1.
         21   -1    0    0  501  503 -0.00000000000E+00 -0.00000000000E+00 -0.37051128589E+02  0.37051128589E+02  0.00000000000E+00 0. -1.
          6    1    1    2  501    0  0.21564419775E+02  0.43174363954E+02  0.25368245868E+03  0.31082606028E+03  0.17300000000E+03 0. -1.
         -6    1    1    2    0  502 -0.21564419775E+02 -0.43174363954E+02  0.94259989367E+03  0.95955854926E+03  0.17300000000E+03 0. -1.
</event>
<event>
 4    1  0.6020852E+000  0.1000000E+03  0.7546771E-02  0.1280296E+00
         21   -1    0    0  503  502  0.00000000000E+00  0.00000000000E+00  0.37743035454E+03  0.37743035454E+03  0.00000000000E+00 0. -1.
         21   -1    0    0  501  503 -0.00000000000E+00 -0.00000000000E+00 -0.26935391390E+03  0.26935391390E+03  0.00000000000E+00 0. -1.
          6    1    1    2  501    0 -0.17393162497E+01  0.10439286253E+03 -0.19612130397E+03  0.28159094595E+03  0.17300000000E+03 0. -1.
         -6    1    1    2    0  502  0.17393162497E+01 -0.10439286253E+03  0.30419774461E+03  0.36519332249E+03  0.17300000000E+03 0. -1.
</event>
<event>
 4    1  0.6020852E+000  0.1000000E+03  0.7546771E-02  0.1280296E+00
         21   -1    0    0  503  502  0.00000000000E+00  0.00000000000E+00  0.12069312608E+03  0.12069312608E+03  0.00000000000E+00 0.  1.
         21   -1    0    0  501  503 -0.00000000000E+00 -0.00000000000E+00 -0.16124183767E+04  0.16124183767E+04  0.00000000000E+00 0. -1.
          6    1    1    2  501    0  0.91129369881E+02  0.16668319684E+03 -0.14502662757E+04  0.14728506783E+04  0.17300000000E+03 0. -1.
         -6    1    1    2    0  502 -0.91129369881E+02 -0.16668319684E+03 -0.41458974948E+02  0.26026082450E+03  0.17300000000E+03 0.  1.
</event>
<event>
 4    1  0.6020852E+000  0.1000000E+03  0.7546771E-02  0.1280296E+00
         21   -1    0    0  503  502  0.00000000000E+00  0.00000000000E+00  0.11783720612E+03  0.11783720612E+03  0.00000000000E+00 0.  1.
         21   -1    0    0  501  503 -0.00000000000E+00 -0.00000000000E+00 -0.57602237199E+03  0.57602237199E+03  0.00000000000E+00 0. -1.
          6    1    1    2  501    0 -0.10742989054E+03 -0.14337629114E+03 -0.12724380150E+03  0.27967468113E+03  0.17300000000E+03 0. -1.
         -6    1    1    2    0  502  0.10742989054E+03  0.14337629114E+03 -0.33094136437E+03  0.41418489699E+03  0.17300000000E+03 0.  1.
</event>
<event>
 4    1  0.6020852E+000  0.1000000E+03  0.7546771E-02  0.1280296E+00
         21   -1    0    0  503  502  0.00000000000E+00  0.00000000000E+00  0.69261868668E+03  0.69261868668E+03  0.00000000000E+00 0. -1.
         21   -1    0    0  501  503 -0.00000000000E+00 -0.00000000000E+00 -0.24825148854E+03  0.24825148854E+03  0.00000000000E+00 0.  1.
          6    1    1    2  501    0 -0.56012678703E+02  0.13406179848E+03 -0.17229926871E+03  0.28412325491E+03  0.17300000000E+03 0. -1.
         -6    1    1    2    0  502  0.56012678703E+02 -0.13406179848E+03  0.61666646685E+03  0.65674692030E+03  0.17300000000E+03 0.  1.
</event>
<event>
 4    1  0.6020852E+000  0.1000000E+03  0.7546771E-02  0.1280296E+00
         21   -1    0    0  503  502  0.00000000000E+00  0.00000000000E+00  0.30652505235E+02  0.30652505235E+02  0.00000000000E+00 0. -1.
         21   -1    0    0  501  503 -0.00000000000E+00 -0.00000000000E+00 -0.14527217782E+04  0.14527217782E+04  0.00000000000E+00 0.  1.
          6    1    1    2  501    0  0.11428719349E+03 -0.27345792940E+02 -0.61216986236E+03  0.64690825885E+03  0.17300000000E+03 0. -1.
         -6    1    1    2    0  502 -0.11428719349E+03  0.27345792940E+02 -0.80989941061E+03  0.83646602459E+03  0.17300000000E+03 0.  1.
</event>
<event>
 4    1  0.6020852E+000  0.1000000E+03  0.7546771E-02  0.1280296E+00
         21   -1    0    0  503  502  0.00000000000E+00  0.00000000000E+00  0.26682505664E+04  0.26682505664E+04  0.00000000000E+00 0.  1.
         21   -1    0    0  501  503 -0.00000000000E+00 -0.00000000000E+00 -0.28908718999E+02  0.28908718999E+02  0.00000000000E+00 0.  1.
          6    1    1    2  501    0  0.75987997948E+02  0.24836490731E+02  0.33868588913E+03  0.38862341489E+03  0.17300000000E+03 0.  1.
         -6    1    1    2    0  502 -0.75987997948E+02 -0.24836490731E+02  0.23006559582E+04  0.23085358705E+04  0.17300000000E+03 0.  1.
</event>
<event>
 4    1  0.6020852E+000  0.1000000E+03  0.7546771E-02  0.1280296E+00
         21   -1    0    0  503  502  0.00000000000E+00  0.00000000000E+00  0.52590009424E+02  0.52590009424E+02  0.00000000000E+00 0.  1.
         21   -1    0    0  501  503 -0.00000000000E+00 -0.00000000000E+00 -0.11288817342E+04  0.11288817342E+04  0.00000000000E+00 0.  1.
          6    1    1    2  501    0 -0.11761322610E+02  0.85082626618E+02 -0.89825587932E+03  0.91878724784E+03  0.17300000000E+03 0.  1.
         -6    1    1    2    0  502  0.11761322610E+02 -0.85082626618E+02 -0.17803584548E+03  0.26268449581E+03  0.17300000000E+03 0.  1.
</event>
<event>
 4    1  0.6020852E+000  0.1000000E+03  0.7546771E-02  0.1280296E+00
         21   -1    0    0  503  502  0.00000000000E+00  0.00000000000E+00  0.14868860530E+04  0.14868860530E+04  0.00000000000E+00 0.  1.
         21   -1    0    0  501  503 -0.00000000000E+00 -0.00000000000E+00 -0.39503523296E+02  0.39503523296E+02  0.00000000000E+00 0.  1.
          6    1    1    2  501    0 -0.79242903907E+02 -0.95185562179E+02  0.35823249103E+03  0.41665242913E+03  0.17300000000E+03 0.  1.
         -6    1    1    2    0  502  0.79242903907E+02  0.95185562179E+02  0.10891500387E+04  0.11097371472E+04  0.17300000000E+03 0.  1.
</event>
<event>
 4    1  0.6020852E+000  0.1000000E+03  0.7546771E-02  0.1280296E+00
         21   -1    0    0  503  502  0.00000000000E+00  0.00000000000E+00  0.26458064632E+03  0.26458064632E+03  0.00000000000E+00 0.  1.
         21   -1    0    0  501  503 -0.00000000000E+00 -0.00000000000E+00 -0.12861802891E+03  0.12861802891E+03  0.00000000000E+00 0.  1.
          6    1    1    2  501    0 -0.21561215040E+02  0.49353507456E+02  0.31060053084E+02  0.18383248241E+03  0.17300000000E+03 0.  1.
         -6    1    1    2    0  502  0.21561215040E+02 -0.49353507456E+02  0.10490256432E+03  0.20936619281E+03  0.17300000000E+03 0.  1.
</event>
<event>
 4    1  0.6020852E+000  0.1000000E+03  0.7546771E-02  0.1280296E+00
         21   -1    0    0  503  502  0.00000000000E+00  0.00000000000E+00  0.24563598446E+03  0.24563598446E+03  0.00000000000E+00 0.  1.
         21   -1    0    0  501  503 -0.00000000000E+00 -0.00000000000E+00 -0.33946479632E+03  0.33946479632E+03  0.00000000000E+00 0.  1.
          6    1    1    2  501    0  0.16800246162E+03 -0.18089391224E+02 -0.20679265949E+03  0.31818902747E+03  0.17300000000E+03 0.  1.
         -6    1    1    2    0  502 -0.16800246162E+03  0.18089391224E+02  0.11296384763E+03  0.26691175331E+03  0.17300000000E+03 0.  1.
</event>
<event>
 4    1  0.6020852E+000  0.1000000E+03  0.7546771E-02  0.1280296E+00
         21   -1    0    0  501  502  0.00000000000E+00  0.00000000000E+00  0.53930469207E+03  0.53930469207E+03  0.00000000000E+00 0. -1.
         21   -1    0    0  502  503 -0.00000000000E+00 -0.00000000000E+00 -0.53203327445E+03  0.53203327445E+03  0.00000000000E+00 0.  1.
          6    1    1    2  501    0 -0.59322529133E+00 -0.12668757959E+03  0.49451252298E+03  0.53900067730E+03  0.17300000000E+03 0. -1.
         -6    1    1    2    0  503  0.59322529133E+00  0.12668757959E+03 -0.48724110536E+03  0.53233728922E+03  0.17300000000E+03 0.  1.
</event>
<event>
 4    1  0.6020852E+000  0.1000000E+03  0.7546771E-02  0.1280296E+00
         21   -1    0    0  501  502  0.00000000000E+00  0.00000000000E+00  0.46125944118E+03  0.46125944118E+03  0.00000000000E+00 0. -1.
         21   -1    0    0  502  503 -0.00000000000E+00 -0.00000000000E+00 -0.67784038372E+02  0.67784038372E+02  0.00000000000E+00 0.  1.
          6    1    1    2  501    0  0.11019383407E+02 -0.30459995087E+02  0.17135940147E+03  0.24564666207E+03  0.17300000000E+03 0. -1.
         -6    1    1    2    0  503 -0.11019383407E+02  0.30459995087E+02  0.22211600133E+03  0.28339681748E+03  0.17300000000E+03 0.  1.
</event>
<event>
 4    1  0.6020852E+000  0.1000000E+03  0.7546771E-02  0.1280296E+00
         21   -1    0    0  501  502  0.00000000000E+00  0.00000000000E+00  0.27581684322E+03  0.27581684322E+03  0.00000000000E+00 0.  1.
         21   -1    0    0  502  503 -0.00000000000E+00 -0.00000000000E+00 -0.29463333403E+03  0.29463333403E+03  0.00000000000E+00 0.  1.
          6    1    1    2  501    0  0.18501279390E+01  0.30904482636E+02  0.21516289687E+03  0.27781753402E+03  0.17300000000E+03 0.  1.
         -6    1    1    2    0  503 -0.18501279390E+01 -0.30904482636E+02 -0.23397938769E+03  0.29263264323E+03  0.17300000000E+03 0.  1.
</event>
<event>
 4    1  0.6020852E+000  0.1000000E+03  0.7546771E-02  0.1280296E+00
         21   -1    0    0  501  502  0.00000000000E+00  0.00000000000E+00  0.99621081752E+03  0.99621081752E+03  0.00000000000E+00 0.  1.
         21   -1    0    0  502  503 -0.00000000000E+00 -0.00000000000E+00 -0.34328688550E+03  0.34328688550E+03  0.00000000000E+00 0.  1.
          6    1    1    2  501    0  0.20895212469E+03  0.19376320173E+03  0.87673028430E+03  0.93797130029E+03  0.17300000000E+03 0.  1.
         -6    1    1    2    0  503 -0.20895212469E+03 -0.19376320173E+03 -0.22380635229E+03  0.40152640272E+03  0.17300000000E+03 0.  1.
</event>
<event>
 4    1  0.6020852E+000  0.1000000E+03  0.7546771E-02  0.1280296E+00
         21   -1    0    0  501  502  0.00000000000E+00  0.00000000000E+00  0.16634272311E+03  0.16634272311E+03  0.00000000000E+00 0.  1.
         21   -1    0    0  502  503 -0.00000000000E+00 -0.00000000000E+00 -0.72794546262E+03  0.72794546262E+03  0.00000000000E+00 0.  1.
          6    1    1    2  501    0  0.19326252403E+03  0.17753429030E+03 -0.88953455406E+02  0.32666579964E+03  0.17300000000E+03 0.  1.
         -6    1    1    2    0  503 -0.19326252403E+03 -0.17753429030E+03 -0.47264928411E+03  0.56762238609E+03  0.17300000000E+03 0.  1.
</event>
<event>
 4    1  0.6020852E+000  0.1000000E+03  0.7546771E-02  0.1280296E+00
         21   -1    0    0  501  502  0.00000000000E+00  0.00000000000E+00  0.60728089464E+03  0.60728089464E+03  0.00000000000E+00 0.  1.
         21   -1    0    0  502  503 -0.00000000000E+00 -0.00000000000E+00 -0.69659877188E+02  0.69659877188E+02  0.00000000000E+00 0.  1.
          6    1    1    2  501    0  0.60579909383E+02  0.85532773959E+02  0.33012754211E+03  0.38716788981E+03  0.17300000000E+03 0.  1.
         -6    1    1    2    0  503 -0.60579909383E+02 -0.85532773959E+02  0.20749347534E+03  0.28977288202E+03  0.17300000000E+03 0.  1.
</event>
<event>
 4    1  0.6020852E+000  0.1000000E+03  0.7546771E-02  0.1280296E+00
         21   -1    0    0  501  502  0.00000000000E+00  0.00000000000E+00  0.51876422057E+02  0.51876422057E+02  0.00000000000E+00 0. -1.
         21   -1    0    0  502  503 -0.00000000000E+00 -0.00000000000E+00 -0.13358644317E+04  0.13358644317E+04  0.00000000000E+00 0. -1.
          6    1    1    2  501    0  0.14868720249E+03 -0.12481668205E+03 -0.75015101943E+03  0.79394120705E+03  0.17300000000E+03 0. -1.
         -6    1    1    2    0  503 -0.14868720249E+03  0.12481668205E+03 -0.53383699019E+03  0.59379964668E+03  0.17300000000E+03 0. -1.
</event>
<event>
 4    1  0.6020852E+000  0.1000000E+03  0.7546771E-02  0.1280296E+00
         21   -1    0    0  501  502  0.00000000000E+00  0.00000000000E+00  0.12307067537E+04  0.12307067537E+04  0.00000000000E+00 0. -1.
         21   -1    0    0  502  503 -0.00000000000E+00 -0.00000000000E+00 -0.11835846687E+03  0.11835846687E+03  0.00000000000E+00 0. -1.
          6    1    1    2  501    0 -0.23404527466E+03  0.23799399270E+03  0.67229995338E+03  0.77028212914E+03  0.17300000000E+03 0. -1.
         -6    1    1    2    0  503  0.23404527466E+03 -0.23799399270E+03  0.44004833343E+03  0.57878309141E+03  0.17300000000E+03 0. -1.
</event>
<event>
 4    1  0.6020852E+000  0.1000000E+03  0.7546771E-02  0.1280296E+00
         21   -1    0    0  501  502  0.00000000000E+00  0.00000000000E+00  0.20624056514E+03  0.20624056514E+03  0.00000000000E+00 0. -1.
         21   -1    0    0  502  503 -0.00000000000E+00 -0.00000000000E+00 -0.16766757062E+03  0.16766757062E+03  0.00000000000E+00 0.  1.
          6    1    1    2  501    0 -0.55215655579E+02 -0.37171362076E+02  0.34211184176E+02  0.18849372377E+03  0.17300000000E+03 0.  1.
         -6    1    1    2    0  503  0.55215655579E+02  0.37171362076E+02  0.43618103443E+01  0.18541441198E+03  0.17300000000E+03 0.  1.
</event>
<event>
 4    1  0.6020852E+000  0.1000000E+03  0.7546771E-02  0.1280296E+00
         21   -1    0    0  501  502  0.00000000000E+00  0.00000000000E+00  0.46449718853E+03  0.46449718853E+03  0.00000000000E+00 0. -1.
         21   -1    0    0  502  503 -0.00000000000E+00 -0.00000000000E+00 -0.23895117775E+03  0.23895117775E+03  0.00000000000E+00 0.  1.
          6    1    1    2  501    0 -0.23336802396E+03 -0.98949568794E+02 -0.24113081946E+02  0.30783452129E+03  0.17300000000E+03 0.  1.
         -6    1    1    2    0  503  0.23336802396E+03  0.98949568794E+02  0.24965909272E+03  0.39561384499E+03  0.17300000000E+03 0.  1.
</event>
<event>
 4    1  0.6020852E+000  0.1000000E+03  0.7546771E-02  0.1280296E+00
         21   -1    0    0  501  502  0.00000000000E+00  0.00000000000E+00  0.62124201028E+03  0.62124201028E+03  0.00000000000E+00 0. -1.
         21   -1    0    0  502  503 -0.00000000000E+00 -0.00000000000E+00 -0.12128978126E+03  0.12128978126E+03  0.00000000000E+00 0. -1.
          6    1    1    2  501    0 -0.20380221381E+03  0.36728431831E+02  0.31810035990E+03  0.41713446157E+03  0.17300000000E+03 0. -1.
         -6    1    1    2    0  503  0.20380221381E+03 -0.36728431831E+02  0.18185186912E+03  0.32539732998E+03  0.17300000000E+03 0. -1.
</event>
<event>
 4    1  0.6020852E+000  0.1000000E+03  0.7546771E-02  0.1280296E+00
         21   -1    0    0  501  502  0.00000000000E+00  0.00000000000E+00  0.15448637521E+04  0.15448637521E+04  0.00000000000E+00 0. -1.
         21   -1    0    0  502  503 -0.00000000000E+00 -0.00000000000E+00 -0.49445839184E+02  0.49445839184E+02  0.00000000000E+00 0. -1.
          6    1    1    2  501    0  0.14058363740E+03  0.14572201325E+03  0.53459790862E+03  0.59726257890E+03  0.17300000000E+03 0. -1.
         -6    1    1    2    0  503 -0.14058363740E+03 -0.14572201325E+03  0.96082000433E+03  0.99704701242E+03  0.17300000000E+03 0. -1.
</event>
<event>
 4    1  0.6020852E+000  0.1000000E+03  0.7546771E-02  0.1280296E+00
         21   -1    0    0  501  502  0.00000000000E+00  0.00000000000E+00  0.81767304864E+02  0.81767304864E+02  0.00000000000E+00 0.  1.
         21   -1    0    0  502  503 -0.00000000000E+00 -0.00000000000E+00 -0.43634787305E+03  0.43634787305E+03  0.00000000000E+00 0.  1.
          6    1    1    2  501    0  0.51421162825E+02 -0.35820136432E+02 -0.11873634063E+03  0.21898524321E+03  0.17300000000E+03 0.  1.
         -6    1    1    2    0  503 -0.51421162825E+02  0.35820136432E+02 -0.23584422756E+03  0.29912993470E+03  0.17300000000E+03 0.  1.
</event>
<event>
 4    1  0.6020852E+000  0.1000000E+03  0.7546771E-02  0.1280296E+00
         21   -1    0    0  501  502  0.00000000000E+00  0.00000000000E+00  0.24970860879E+03  0.24970860879E+03  0.00000000000E+00 0.  1.
         21   -1    0    0  502  503 -0.00000000000E+00 -0.00000000000E+00 -0.62266094109E+03  0.62266094109E+03  0.00000000000E+00 0.  1.
          6    1    1    2  501    0  0.68258382593E+01  0.78120088117E+02  0.19576725621E+03  0.27276942431E+03  0.17300000000E+03 0.  1.
         -6    1    1    2    0  503 -0.68258382593E+01 -0.78120088117E+02 -0.56871958851E+03  0.59960012557E+03  0.17300000000E+03 0.  1.
</event>
<event>
 4    1  0.6020852E+000  0.1000000E+03  0.7546771E-02  0.1280296E+00
         21   -1    0    0  501  502  0.00000000000E+00  0.00000000000E+00  0.74259330988E+02  0.74259330988E+02  0.00000000000E+00 0.  1.
         21   -1    0    0  502  503 -0.00000000000E+00 -0.00000000000E+00 -0.12837315649E+04  0.12837315649E+04  0.00000000000E+00 0.  1.
          6    1    1    2  501    0  0.10355082190E+03 -0.12394531521E+03 -0.16868996738E+03  0.29063812374E+03  0.17300000000E+03 0.  1.
         -6    1    1    2    0  503 -0.10355082190E+03  0.12394531521E+03 -0.10407822666E+04  0.10673527722E+04  0.17300000000E+03 0.  1.
</event>
<event>
 4    1  0.6020852E+000  0.1000000E+03  0.7546771E-02  0.1280296E+00
         21   -1    0    0  501  502  0.00000000000E+00  0.00000000000E+00  0.11026779954E+03  0.11026779954E+03  0.00000000000E+00 0.  1.
         21   -1    0    0  502  503 -0.00000000000E+00 -0.00000000000E+00 -0.59933942077E+03  0.59933942077E+03  0.00000000000E+00 0.  1.
          6    1    1    2  501    0  0.31679860733E+02 -0.18021020200E+03 -0.17309360827E+03  0.30556460479E+03  0.17300000000E+03 0.  1.
         -6    1    1    2    0  503 -0.31679860733E+02  0.18021020200E+03 -0.31597801296E+03  0.40404261552E+03  0.17300000000E+03 0.  1.
</event>
<event>
 4    1  0.6020852E+000  0.1000000E+03  0.7546771E-02  0.1280296E+00
         21   -1    0    0  501  502  0.00000000000E+00  0.00000000000E+00  0.39284843632E+03  0.39284843632E+03  0.00000000000E+00 0.  1.
         21   -1    0    0  502  503 -0.00000000000E+00 -0.00000000000E+00 -0.13467151627E+03  0.13467151627E+03  0.00000000000E+00 0.  1.
          6    1    1    2  501    0  0.16587017348E+02 -0.98051072088E+02  0.26027352935E+03  0.32796410163E+03  0.17300000000E+03 0.  1.
         -6    1    1    2    0  503 -0.16587017348E+02  0.98051072088E+02 -0.20966093005E+01  0.19955585096E+03  0.17300000000E+03 0.  1.
</event>
<event>
 4    1  0.6020852E+000  0.1000000E+03  0.7546771E-02  0.1280296E+00
         21   -1    0    0  503  502  0.00000000000E+00  0.00000000000E+00  0.10439600954E+03  0.10439600954E+03  0.00000000000E+00 0. -1.
         21   -1    0    0  501  503 -0.00000000000E+00 -0.00000000000E+00 -0.10771232924E+04  0.10771232924E+04  0.00000000000E+00 0. -1.
          6    1    1    2  501    0 -0.41652665488E+02  0.13372443073E+03 -0.92820427399E+03  0.95452047760E+03  0.17300000000E+03 0. -1.
         -6    1    1    2    0  502  0.41652665488E+02 -0.13372443073E+03 -0.44523008837E+02  0.22699882430E+03  0.17300000000E+03 0. -1.
</event>
<event>
 4    1  0.6020852E+000  0.1000000E+03  0.7546771E-02  0.1280296E+00
         21   -1    0    0  503  502  0.00000000000E+00  0.00000000000E+00  0.12409417783E+03  0.12409417783E+03  0.00000000000E+00 0. -1.
         21   -1    0    0  501  503 -0.00000000000E+00 -0.00000000000E+00 -0.11572242130E+04  0.11572242130E+04  0.00000000000E+00 0. -1.
          6    1    1    2  501    0 -0.60068226382E+02 -0.97672983085E+02 -0.10525902419E+04  0.10728575958E+04  0.17300000000E+03 0. -1.
         -6    1    1    2    0  502  0.60068226382E+02  0.97672983085E+02  0.19460206702E+02  0.20846079509E+03  0.17300000000E+03 0. -1.
</event>
<event>
 4    1  0.6020852E+000  0.1000000E+03  0.7546771E-02  0.1280296E+00
         21   -1    0    0  503  502  0.00000000000E+00  0.00000000000E+00  0.10178330382E+03  0.10178330382E+03  0.00000000000E+00 0. -1.
         21   -1    0    0  501  503 -0.00000000000E+00 -0.00000000000E+00 -0.84490834526E+03  0.84490834526E+03  0.00000000000E+00 0. -1.
          6    1    1    2  501    0  0.15447793600E+03  0.11421240142E+03 -0.59499210748E+03  0.64873146472E+03  0.17300000000E+03 0. -1.
         -6    1    1    2    0  502 -0.15447793600E+03 -0.11421240142E+03 -0.14813293396E+03  0.29796018437E+03  0.17300000000E+03 0. -1.
</event>
<event>
 4    1  0.6020852E+000  0.1000000E+03  0.7546771E-02  0.1280296E+00
         21   -1    0    0  503  502  0.00000000000E+00  0.00000000000E+00  0.74236487367E+03  0.74236487367E+03  0.00000000000E+00 0.  1.
         21   -1    0    0  501  503 -0.00000000000E+00 -0.00000000000E+00 -0.50248038132E+02  0.50248038132E+02  0.00000000000E+00 0.  1.
          6    1    1    2  501    0 -0.47463308765E+02 -0.19530275633E+02  0.20479993443E+03  0.27295825777E+03  0.17300000000E+03 0.  1.
         -6    1    1    2    0  502  0.47463308765E+02  0.19530275633E+02  0.48731690111E+03  0.51965465403E+03  0.17300000000E+03 0.  1.
</event>
<event>
 4    1  0.6020852E+000  0.1000000E+03  0.7546771E-02  0.1280296E+00
         21   -1    0    0  501  502  0.00000000000E+00  0.00000000000E+00  0.35580282094E+03  0.35580282094E+03  0.00000000000E+00 0. -1.
         21   -1    0    0  502  503 -0.00000000000E+00 -0.00000000000E+00 -0.10766910460E+03  0.10766910460E+03  0.00000000000E+00 0. -1.
          6    1    1    2  501    0  0.41648683921E+02 -0.43415073948E+02  0.20575687846E+03  0.27547118643E+03  0.17300000000E+03 0. -1.
         -6    1    1    2    0  503 -0.41648683921E+02  0.43415073948E+02  0.42376837875E+02  0.18800073911E+03  0.17300000000E+03 0. -1.
</event>
<event>
 4    1  0.6020852E+000  0.1000000E+03  0.7546771E-02  0.1280296E+00
         21   -1    0    0  501  502  0.00000000000E+00  0.00000000000E+00  0.15027382206E+03  0.15027382206E+03  0.00000000000E+00 0. -1.
         21   -1    0    0  502  503 -0.00000000000E+00 -0.00000000000E+00 -0.17900306756E+04  0.17900306756E+04  0.00000000000E+00 0.  1.
          6    1    1    2  501    0 -0.28471995790E+03 -0.24897059292E+03 -0.24026940191E+03  0.48032301221E+03  0.17300000000E+03 0. -1.
         -6    1    1    2    0  503  0.28471995790E+03  0.24897059292E+03 -0.13994874517E+04  0.14599814855E+04  0.17300000000E+03 0.  1.
</event>
<event>
 4    1  0.6020852E+000  0.1000000E+03  0.7546771E-02  0.1280296E+00
         21   -1    0    0  503  502  0.00000000000E+00  0.00000000000E+00  0.28087713156E+03  0.28087713156E+03  0.00000000000E+00 0.  1.
         21   -1    0    0  501  503 -0.00000000000E+00 -0.00000000000E+00 -0.20906281558E+03  0.20906281558E+03  0.00000000000E+00 0.  1.
          6    1    1    2  501    0  0.14758743180E+03  0.46070866974E+02 -0.34766037303E+02  0.23461085260E+03  0.17300000000E+03 0.  1.
         -6    1    1    2    0  502 -0.14758743180E+03 -0.46070866974E+02  0.10658035328E+03  0.25532909454E+03  0.17300000000E+03 0.  1.
</event>
<event>
 4    1  0.6020852E+000  0.1000000E+03  0.7546771E-02  0.1280296E+00
         21   -1    0    0  503  502  0.00000000000E+00  0.00000000000E+00  0.91773635080E+03  0.91773635080E+03  0.00000000000E+00 0.  1.
         21   -1    0    0  501  503 -0.00000000000E+00 -0.00000000000E+00 -0.25979023292E+03  0.25979023292E+03  0.00000000000E+00 0.  1.
          6    1    1    2  501    0 -0.40541399724E+02  0.72494128855E+02 -0.21241148061E+03  0.28626323708E+03  0.17300000000E+03 0.  1.
         -6    1    1    2    0  502  0.40541399724E+02 -0.72494128855E+02  0.87035759849E+03  0.89126334664E+03  0.17300000000E+03 0.  1.
</event>
<event>
 4    1  0.6020852E+000  0.1000000E+03  0.7546771E-02  0.1280296E+00
         21   -1    0    0  501  502  0.00000000000E+00  0.00000000000E+00  0.14425032980E+04  0.14425032980E+04  0.00000000000E+00 0.  1.
         21   -1    0    0  502  503 -0.00000000000E+00 -0.00000000000E+00 -0.96252625804E+02  0.96252625804E+02  0.00000000000E+00 0.  1.
          6    1    1    2  501    0 -0.39278578195E+02 -0.49045682923E+02  0.13420887303E+04  0.13546510420E+04  0.17300000000E+03 0. -1.
         -6    1    1    2    0  503  0.39278578195E+02  0.49045682923E+02  0.41619418724E+01  0.18410488173E+03  0.17300000000E+03 0. -1.
</event>
<event>
 4    1  0.6020852E+000  0.1000000E+03  0.7546771E-02  0.1280296E+00
         21   -1    0    0  501  502  0.00000000000E+00  0.00000000000E+00  0.22171496626E+04  0.22171496626E+04  0.00000000000E+00 0.  1.
         21   -1    0    0  502  503 -0.00000000000E+00 -0.00000000000E+00 -0.26756291897E+02  0.26756291897E+02  0.00000000000E+00 0.  1.
          6    1    1    2  501    0  0.23646970414E+02 -0.10835547938E+03  0.49294067952E+03  0.53405954972E+03  0.17300000000E+03 0. -1.
         -6    1    1    2    0  503 -0.23646970414E+02  0.10835547938E+03  0.16974526911E+04  0.17098464047E+04  0.17300000000E+03 0. -1.
</event>
<event>
 4    1  0.6020852E+000  0.1000000E+03  0.7546771E-02  0.1280296E+00
         21   -1    0    0  503  502  0.00000000000E+00  0.00000000000E+00  0.56392829872E+03  0.56392829872E+03  0.00000000000E+00 0.  1.
         21   -1    0    0  501  503 -0.00000000000E+00 -0.00000000000E+00 -0.12909566608E+03  0.12909566608E+03  0.00000000000E+00 0. -1.
          6    1    1    2  501    0 -0.17073738155E+03  0.11340947232E+03  0.17978228969E+03  0.32289879770E+03  0.17300000000E+03 0. -1.
         -6    1    1    2    0  502  0.17073738155E+03 -0.11340947232E+03  0.25505034295E+03  0.37012516709E+03  0.17300000000E+03 0.  1.
</event>
<event>
 4    1  0.6020852E+000  0.1000000E+03  0.7546771E-02  0.1280296E+00
         21   -1    0    0  503  502  0.00000000000E+00  0.00000000000E+00  0.35953026955E+03  0.35953026955E+03  0.00000000000E+00 0.  1.
         21   -1    0    0  501  503 -0.00000000000E+00 -0.00000000000E+00 -0.12795926869E+03  0.12795926869E+03  0.00000000000E+00 0. -1.
          6    1    1    2  501    0  0.66784458809E+02 -0.48161204885E+02  0.62151756026E+01  0.19169583721E+03  0.17300000000E+03 0. -1.
         -6    1    1    2    0  502 -0.66784458809E+02  0.48161204885E+02  0.22535582526E+03  0.29579370103E+03  0.17300000000E+03 0.  1.
</event>
<event>
 4    1  0.6020852E+000  0.1000000E+03  0.7546771E-02  0.1280296E+00
         21   -1    0    0  503  502  0.00000000000E+00  0.00000000000E+00  0.12708332110E+03  0.12708332110E+03  0.00000000000E+00 0. -1.
         21   -1    0    0  501  503 -0.00000000000E+00 -0.00000000000E+00 -0.83200643013E+03  0.83200643013E+03  0.00000000000E+00 0. -1.
          6    1    1    2  501    0  0.97389726369E+02 -0.99290871129E+02 -0.70288941517E+03  0.73710648203E+03  0.17300000000E+03 0. -1.
         -6    1    1    2    0  502 -0.97389726369E+02  0.99290871129E+02 -0.20336938601E+01  0.22198326920E+03  0.17300000000E+03 0. -1.
</event>
<event>
 4    1  0.6020852E+000  0.1000000E+03  0.7546771E-02  0.1280296E+00
         21   -1    0    0  503  502  0.00000000000E+00  0.00000000000E+00  0.39067680051E+03  0.39067680051E+03  0.00000000000E+00 0. -1.
         21   -1    0    0  501  503 -0.00000000000E+00 -0.00000000000E+00 -0.32913514115E+03  0.32913514115E+03  0.00000000000E+00 0. -1.
          6    1    1    2  501    0  0.50137228982E+02  0.29802537618E+03  0.11666334908E+03  0.36724951136E+03  0.17300000000E+03 0. -1.
         -6    1    1    2    0  502 -0.50137228982E+02 -0.29802537618E+03 -0.55121689718E+02  0.35256243029E+03  0.17300000000E+03 0. -1.
</event>
<event>
 4    1  0.6020852E+000  0.1000000E+03  0.7546771E-02  0.1280296E+00
         21   -1    0    0  503  502  0.00000000000E+00  0.00000000000E+00  0.82671470343E+02  0.82671470343E+02  0.00000000000E+00 0. -1.
         21   -1    0    0  501  503 -0.00000000000E+00 -0.00000000000E+00 -0.45956055662E+03  0.45956055662E+03  0.00000000000E+00 0. -1.
          6    1    1    2  501    0 -0.44393149327E+02  0.60314498652E+02 -0.25736178114E+03  0.31901830174E+03  0.17300000000E+03 0.  1.
         -6    1    1    2    0  502  0.44393149327E+02 -0.60314498652E+02 -0.11952730514E+03  0.22321372523E+03  0.17300000000E+03 0.  1.
</event>
<event>
 4    1  0.6020852E+000  0.1000000E+03  0.7546771E-02  0.1280296E+00
         21   -1    0    0  503  502  0.00000000000E+00  0.00000000000E+00  0.78770731684E+03  0.78770731684E+03  0.00000000000E+00 0. -1.
         21   -1    0    0  501  503 -0.00000000000E+00 -0.00000000000E+00 -0.87093403959E+02  0.87093403959E+02  0.00000000000E+00 0. -1.
          6    1    1    2  501    0  0.70880214317E+02 -0.81795158199E+02  0.76105779252E+02  0.21779702092E+03  0.17300000000E+03 0.  1.
         -6    1    1    2    0  502 -0.70880214317E+02  0.81795158199E+02  0.62450813363E+03  0.65700369988E+03  0.17300000000E+03 0.  1.
</event>
<event>
 4    1  0.6020852E+000  0.1000000E+03  0.7546771E-02  0.1280296E+00
         21   -1    0    0  503  502  0.00000000000E+00  0.00000000000E+00  0.15997429326E+03  0.15997429326E+03  0.00000000000E+00 0. -1.
         21   -1    0    0  501  503 -0.00000000000E+00 -0.00000000000E+00 -0.25004376933E+03  0.25004376933E+03  0.00000000000E+00 0. -1.
          6    1    1    2  501    0 -0.97337458061E+01 -0.83645376293E+02 -0.10099354483E+03  0.21730161270E+03  0.17300000000E+03 0.  1.
         -6    1    1    2    0  502  0.97337458061E+01  0.83645376293E+02  0.10924068760E+02  0.19271644990E+03  0.17300000000E+03 0.  1.
</event>
<event>
 4    1  0.6020852E+000  0.1000000E+03  0.7546771E-02  0.1280296E+00
         21   -1    0    0  503  502  0.00000000000E+00  0.00000000000E+00  0.14933186240E+03  0.14933186240E+03  0.00000000000E+00 0. -1.
         21   -1    0    0  501  503 -0.00000000000E+00 -0.00000000000E+00 -0.58803644760E+03  0.58803644760E+03  0.00000000000E+00 0.  1.
          6    1    1    2  501    0  0.10315819630E+02 -0.13235161867E+02 -0.51795577070E+03  0.54634125420E+03  0.17300000000E+03 0.  1.
         -6    1    1    2    0  502 -0.10315819630E+02  0.13235161867E+02  0.79251185493E+02  0.19102705580E+03  0.17300000000E+03 0. -1.
</event>
<event>
 4    1  0.6020852E+000  0.1000000E+03  0.7546771E-02  0.1280296E+00
         21   -1    0    0  501  502  0.00000000000E+00  0.00000000000E+00  0.12900637143E+03  0.12900637143E+03  0.00000000000E+00 0.  1.
         21   -1    0    0  502  503 -0.00000000000E+00 -0.00000000000E+00 -0.33855208464E+03  0.33855208464E+03  0.00000000000E+00 0. -1.
          6    1    1    2  501    0 -0.80523850428E+02 -0.11256482677E+02 -0.10279310927E+02  0.19143004760E+03  0.17300000000E+03 0.  1.
         -6    1    1    2    0  503  0.80523850428E+02  0.11256482677E+02 -0.19926640228E+03  0.27612840848E+03  0.17300000000E+03 0. -1.
</event>
<event>
 4    1  0.6020852E+000  0.1000000E+03  0.7546771E-02  0.1280296E+00
         21   -1    0    0  501  502  0.00000000000E+00  0.00000000000E+00  0.39917586325E+03  0.39917586325E+03  0.00000000000E+00 0.  1.
         21   -1    0    0  502  503 -0.00000000000E+00 -0.00000000000E+00 -0.11495152455E+03  0.11495152455E+03  0.00000000000E+00 0. -1.
          6    1    1    2  501    0  0.60769505221E+02  0.11031229322E+03  0.15381743001E+03  0.26353469709E+03  0.17300000000E+03 0.  1.
         -6    1    1    2    0  503 -0.60769505221E+02 -0.11031229322E+03  0.13040690869E+03  0.25059269070E+03  0.17300000000E+03 0. -1.
</event>
<event>
 4    1  0.6020852E+000  0.1000000E+03  0.7546771E-02  0.1280296E+00
         21   -1    0    0  501  502  0.00000000000E+00  0.00000000000E+00  0.12476990590E+03  0.12476990590E+03  0.00000000000E+00 0. -1.
         21   -1    0    0  502  503 -0.00000000000E+00 -0.00000000000E+00 -0.40988055825E+03  0.40988055825E+03  0.00000000000E+00 0. -1.
          6    1    1    2  501    0  0.92212992276E+02 -0.11184660685E+03 -0.15922508415E+03  0.27621463906E+03  0.17300000000E+03 0. -1.
         -6    1    1    2    0  503 -0.92212992276E+02  0.11184660685E+03 -0.12588556820E+03  0.25843582509E+03  0.17300000000E+03 0. -1.
</event>
<event>
 4    1  0.6020852E+000  0.1000000E+03  0.7546771E-02  0.1280296E+00
         21   -1    0    0  501  502  0.00000000000E+00  0.00000000000E+00  0.27387305718E+03  0.27387305718E+03  0.00000000000E+00 0. -1.
         21   -1    0    0  502  503 -0.00000000000E+00 -0.00000000000E+00 -0.24308674374E+03  0.24308674374E+03  0.00000000000E+00 0. -1.
          6    1    1    2  501    0  0.55856935997E+02  0.67322761588E+02  0.18597085224E+03  0.26863825009E+03  0.17300000000E+03 0. -1.
         -6    1    1    2    0  503 -0.55856935997E+02 -0.67322761588E+02 -0.15518453880E+03  0.24832155083E+03  0.17300000000E+03 0. -1.
</event>
<event>
 4    1  0.6020852E+000  0.1000000E+03  0.7546771E-02  0.1280296E+00
         21   -1    0    0  501  502  0.00000000000E+00  0.00000000000E+00  0.53307288494E+03  0.53307288494E+03  0.00000000000E+00 0. -1.
         21   -1    0    0  502  503 -0.00000000000E+00 -0.00000000000E+00 -0.14052197011E+03  0.14052197011E+03  0.00000000000E+00 0. -1.
          6    1    1    2  501    0  0.88871434688E+02 -0.18635781339E+03  0.25595560735E+03  0.37157723215E+03  0.17300000000E+03 0. -1.
         -6    1    1    2    0  503 -0.88871434688E+02  0.18635781339E+03  0.13659530749E+03  0.30201762290E+03  0.17300000000E+03 0. -1.
</event>
<event>
 4    1  0.6020852E+000  0.1000000E+03  0.7546771E-02  0.1280296E+00
         21   -1    0    0  501  502  0.00000000000E+00  0.00000000000E+00  0.23929228434E+03  0.23929228434E+03  0.00000000000E+00 0.  1.
         21   -1    0    0  502  503 -0.00000000000E+00 -0.00000000000E+00 -0.15460579958E+03  0.15460579958E+03  0.00000000000E+00 0. -1.
          6    1    1    2  501    0  0.17899349355E+02 -0.77770835458E+02  0.69401081775E+02  0.20276636730E+03  0.17300000000E+03 0.  1.
         -6    1    1    2    0  503 -0.17899349355E+02  0.77770835458E+02  0.15285402981E+02  0.19113171662E+03  0.17300000000E+03 0. -1.
</event>
<event>
 4    1  0.6020852E+000  0.1000000E+03  0.7546771E-02  0.1280296E+00
         21   -1    0    0  501  502  0.00000000000E+00  0.00000000000E+00  0.13094315955E+04  0.13094315955E+04  0.00000000000E+00 0.  1.
         21   -1    0    0  502  503 -0.00000000000E+00 -0.00000000000E+00 -0.28495896955E+02  0.28495896955E+02  0.00000000000E+00 0. -1.
          6    1    1    2  501    0  0.33733261704E+02 -0.48733740990E+01  0.91365546896E+03  0.93051437317E+03  0.17300000000E+03 0.  1.
         -6    1    1    2    0  503 -0.33733261704E+02  0.48733740990E+01  0.36728022960E+03  0.40741311930E+03  0.17300000000E+03 0. -1.
</event>
<event>
 4    1  0.6020852E+000  0.1000000E+03  0.7546771E-02  0.1280296E+00
         21   -1    0    0  501  502  0.00000000000E+00  0.00000000000E+00  0.26440334616E+03  0.26440334616E+03  0.00000000000E+00 0.  1.
         21   -1    0    0  502  503 -0.00000000000E+00 -0.00000000000E+00 -0.22768348112E+03  0.22768348112E+03  0.00000000000E+00 0.  1.
          6    1    1    2  501    0  0.17329981941E+02 -0.78176833516E+02  0.17325643766E+03  0.25760189977E+03  0.17300000000E+03 0.  1.
         -6    1    1    2    0  503 -0.17329981941E+02  0.78176833516E+02 -0.13653657262E+03  0.23448492752E+03  0.17300000000E+03 0.  1.
</event>
<event>
 4    1  0.6020852E+000  0.1000000E+03  0.7546771E-02  0.1280296E+00
         21   -1    0    0  503  502  0.00000000000E+00  0.00000000000E+00  0.83144083496E+03  0.83144083496E+03  0.00000000000E+00 0.  1.
         21   -1    0    0  501  503 -0.00000000000E+00 -0.00000000000E+00 -0.73856902674E+02  0.73856902674E+02  0.00000000000E+00 0.  1.
          6    1    1    2  501    0  0.68560914690E+02  0.99766079120E+02  0.14185934733E+03  0.25437559630E+03  0.17300000000E+03 0.  1.
         -6    1    1    2    0  502 -0.68560914690E+02 -0.99766079120E+02  0.61572458495E+03  0.65092214134E+03  0.17300000000E+03 0.  1.
</event>
<event>
 4    1  0.6020852E+000  0.1000000E+03  0.7546771E-02  0.1280296E+00
         21   -1    0    0  503  502  0.00000000000E+00  0.00000000000E+00  0.88198483020E+03  0.88198483020E+03  0.00000000000E+00 0.  1.
         21   -1    0    0  501  503 -0.00000000000E+00 -0.00000000000E+00 -0.11744220848E+03  0.11744220848E+03  0.00000000000E+00 0.  1.
          6    1    1    2  501    0 -0.17073551523E+03 -0.20873091459E+03  0.33481869989E+03  0.46341317705E+03  0.17300000000E+03 0.  1.
         -6    1    1    2    0  502  0.17073551523E+03  0.20873091459E+03  0.42972392183E+03  0.53601386163E+03  0.17300000000E+03 0.  1.
</event>
<event>
 4    1  0.6020852E+000  0.1000000E+03  0.7546771E-02  0.1280296E+00
         21   -1    0    0  501  502  0.00000000000E+00  0.00000000000E+00  0.41480516996E+03  0.41480516996E+03  0.00000000000E+00 0.  1.
         21   -1    0    0  502  503 -0.00000000000E+00 -0.00000000000E+00 -0.15578161888E+03  0.15578161888E+03  0.00000000000E+00 0. -1.
          6    1    1    2  501    0  0.65519804008E+02 -0.96295613440E+02  0.29263019762E+03  0.35934262542E+03  0.17300000000E+03 0.  1.
         -6    1    1    2    0  503 -0.65519804008E+02  0.96295613440E+02 -0.33606646536E+02  0.21124416341E+03  0.17300000000E+03 0. -1.
</event>
<event>
 4    1  0.6020852E+000  0.1000000E+03  0.7546771E-02  0.1280296E+00
         21   -1    0    0  501  502  0.00000000000E+00  0.00000000000E+00  0.58972658123E+03  0.58972658123E+03  0.00000000000E+00 0.  1.
         21   -1    0    0  502  503 -0.00000000000E+00 -0.00000000000E+00 -0.14475784411E+03  0.14475784411E+03  0.00000000000E+00 0. -1.
          6    1    1    2  501    0  0.53380411176E+02 -0.95333906675E+02  0.48463653244E+03  0.52606044389E+03  0.17300000000E+03 0.  1.
         -6    1    1    2    0  503 -0.53380411176E+02  0.95333906675E+02 -0.39667795315E+02  0.20842398145E+03  0.17300000000E+03 0. -1.
</event>
<event>
 4    1  0.6020852E+000  0.1000000E+03  0.7546771E-02  0.1280296E+00
         21   -1    0    0  501  502  0.00000000000E+00  0.00000000000E+00  0.66828216534E+03  0.66828216534E+03  0.00000000000E+00 0.  1.
         21   -1    0    0  502  503 -0.00000000000E+00 -0.00000000000E+00 -0.50981613790E+03  0.50981613790E+03  0.00000000000E+00 0. -1.
          6    1    1    2  501    0  0.24955507701E+03 -0.27646985087E+03  0.49783679867E+03  0.64535555550E+03  0.17300000000E+03 0.  1.
         -6    1    1    2    0  503 -0.24955507701E+03  0.27646985087E+03 -0.33937077122E+03  0.53274274774E+03  0.17300000000E+03 0. -1.
</event>
<event>
 4    1  0.6020852E+000  0.1000000E+03  0.7546771E-02  0.1280296E+00
         21   -1    0    0  503  502  0.00000000000E+00  0.00000000000E+00  0.43981343891E+02  0.43981343891E+02  0.00000000000E+00 0. -1.
         21   -1    0    0  501  503 -0.00000000000E+00 -0.00000000000E+00 -0.99381843795E+03  0.99381843795E+03  0.00000000000E+00 0. -1.
          6    1    1    2  501    0 -0.43894517923E+02 -0.10887293448E+03 -0.47653833718E+03  0.52038238956E+03  0.17300000000E+03 0. -1.
         -6    1    1    2    0  502  0.43894517923E+02  0.10887293448E+03 -0.47329875688E+03  0.51741739227E+03  0.17300000000E+03 0. -1.
</event>
<event>
 4    1  0.6020852E+000  0.1000000E+03  0.7546771E-02  0.1280296E+00
         21   -1    0    0  503  502  0.00000000000E+00  0.00000000000E+00  0.76334071916E+03  0.76334071916E+03  0.00000000000E+00 0. -1.
         21   -1    0    0  501  503 -0.00000000000E+00 -0.00000000000E+00 -0.47660753148E+03  0.47660753148E+03  0.00000000000E+00 0. -1.
          6    1    1    2  501    0  0.27524894415E+02  0.14806973251E+03 -0.43003059138E+03  0.48737826687E+03  0.17300000000E+03 0. -1.
         -6    1    1    2    0  502 -0.27524894415E+02 -0.14806973251E+03  0.71676377906E+03  0.75256998377E+03  0.17300000000E+03 0. -1.
</event>
<event>
 4    1  0.6020852E+000  0.1000000E+03  0.7546771E-02  0.1280296E+00
         21   -1    0    0  503  502  0.00000000000E+00  0.00000000000E+00  0.52578976585E+03  0.52578976585E+03  0.00000000000E+00 0. -1.
         21   -1    0    0  501  503 -0.00000000000E+00 -0.00000000000E+00 -0.11397142843E+03  0.11397142843E+03  0.00000000000E+00 0. -1.
          6    1    1    2  501    0 -0.30533552129E+02  0.46237671494E+02 -0.85122030286E+01  0.18185620053E+03  0.17300000000E+03 0. -1.
         -6    1    1    2    0  502  0.30533552129E+02 -0.46237671494E+02  0.42033054045E+03  0.45790499376E+03  0.17300000000E+03 0. -1.
</event>
<event>
 4    1  0.6020852E+000  0.1000000E+03  0.7546771E-02  0.1280296E+00
         21   -1    0    0  503  502  0.00000000000E+00  0.00000000000E+00  0.37002455280E+03  0.37002455280E+03  0.00000000000E+00 0. -1.
         21   -1    0    0  501  503 -0.00000000000E+00 -0.00000000000E+00 -0.57967436262E+03  0.57967436262E+03  0.00000000000E+00 0. -1.
          6    1    1    2  501    0 -0.10045466790E+03  0.10307823044E+03 -0.51984568607E+03  0.56646694450E+03  0.17300000000E+03 0. -1.
         -6    1    1    2    0  502  0.10045466790E+03 -0.10307823044E+03  0.31019587625E+03  0.38323197092E+03  0.17300000000E+03 0. -1.
</event>
<event>
 4    1  0.6020852E+000  0.1000000E+03  0.7546771E-02  0.1280296E+00
         21   -1    0    0  501  502  0.00000000000E+00  0.00000000000E+00  0.41762418884E+03  0.41762418884E+03  0.00000000000E+00 0.  1.
         21   -1    0    0  502  503 -0.00000000000E+00 -0.00000000000E+00 -0.13974724786E+03  0.13974724786E+03  0.00000000000E+00 0.  1.
          6    1    1    2  501    0 -0.50985805628E+02 -0.27050655947E+02 -0.43829650891E+02  0.18756686450E+03  0.17300000000E+03 0.  1.
         -6    1    1    2    0  503  0.50985805628E+02  0.27050655947E+02  0.32170659187E+03  0.36980457220E+03  0.17300000000E+03 0.  1.
</event>
<event>
 4    1  0.6020852E+000  0.1000000E+03  0.7546771E-02  0.1280296E+00
         21   -1    0    0  501  502  0.00000000000E+00  0.00000000000E+00  0.10746624772E+04  0.10746624772E+04  0.00000000000E+00 0.  1.
         21   -1    0    0  502  503 -0.00000000000E+00 -0.00000000000E+00 -0.48390188177E+02  0.48390188177E+02  0.00000000000E+00 0.  1.
          6    1    1    2  501    0  0.12889676842E+03  0.12380722105E+02  0.69250948215E+03  0.72544196326E+03  0.17300000000E+03 0.  1.
         -6    1    1    2    0  503 -0.12889676842E+03 -0.12380722105E+02  0.33376280689E+03  0.39761070214E+03  0.17300000000E+03 0.  1.
</event>
<event>
 4    1  0.6020852E+000  0.1000000E+03  0.7546771E-02  0.1280296E+00
         21   -1    0    0  501  502  0.00000000000E+00  0.00000000000E+00  0.42651761515E+03  0.42651761515E+03  0.00000000000E+00 0.  1.
         21   -1    0    0  502  503 -0.00000000000E+00 -0.00000000000E+00 -0.18224388126E+03  0.18224388126E+03  0.00000000000E+00 0.  1.
          6    1    1    2  501    0 -0.42430473935E+02 -0.85534478680E+01  0.35610658655E+03  0.39826424340E+03  0.17300000000E+03 0.  1.
         -6    1    1    2    0  503  0.42430473935E+02  0.85534478680E+01 -0.11183285266E+03  0.21049725301E+03  0.17300000000E+03 0.  1.
</event>
<event>
 4    1  0.6020852E+000  0.1000000E+03  0.7546771E-02  0.1280296E+00
         21   -1    0    0  501  502  0.00000000000E+00  0.00000000000E+00  0.31557626876E+03  0.31557626876E+03  0.00000000000E+00 0.  1.
         21   -1    0    0  502  503 -0.00000000000E+00 -0.00000000000E+00 -0.12150369173E+03  0.12150369173E+03  0.00000000000E+00 0.  1.
          6    1    1    2  501    0 -0.18461181750E+01  0.11880914396E+02  0.19853016292E+03  0.26360536768E+03  0.17300000000E+03 0.  1.
         -6    1    1    2    0  503  0.18461181750E+01 -0.11880914396E+02 -0.44575858949E+01  0.17347459281E+03  0.17300000000E+03 0.  1.
</event>
<event>
 4    1  0.6020852E+000  0.1000000E+03  0.7546771E-02  0.1280296E+00
         21   -1    0    0  501  502  0.00000000000E+00  0.00000000000E+00  0.98415315216E+03  0.98415315216E+03  0.00000000000E+00 0.  1.
         21   -1    0    0  502  503 -0.00000000000E+00 -0.00000000000E+00 -0.50967864735E+02  0.50967864735E+02  0.00000000000E+00 0.  1.
          6    1    1    2  501    0  0.97479165117E+02 -0.74127615188E+02  0.63377957128E+03  0.66828335004E+03  0.17300000000E+03 0.  1.
         -6    1    1    2    0  503 -0.97479165117E+02  0.74127615188E+02  0.29940571614E+03  0.36683766685E+03  0.17300000000E+03 0.  1.
</event>
<event>
 4    1  0.6020852E+000  0.1000000E+03  0.7546771E-02  0.1280296E+00
         21   -1    0    0  501  502  0.00000000000E+00  0.00000000000E+00  0.48951816805E+03  0.48951816805E+03  0.00000000000E+00 0.  1.
         21   -1    0    0  502  503 -0.00000000000E+00 -0.00000000000E+00 -0.97333822182E+02  0.97333822182E+02  0.00000000000E+00 0.  1.
          6    1    1    2  501    0  0.80571895142E+02 -0.69567387308E+01  0.33821165474E+03  0.38840230419E+03  0.17300000000E+03 0.  1.
         -6    1    1    2    0  503 -0.80571895142E+02  0.69567387308E+01  0.53972691125E+02  0.19844968604E+03  0.17300000000E+03 0.  1.
</event>
<event>
 4    1  0.6020852E+000  0.1000000E+03  0.7546771E-02  0.1280296E+00
         21   -1    0    0  503  502  0.00000000000E+00  0.00000000000E+00  0.50451545830E+02  0.50451545830E+02  0.00000000000E+00 0. -1.
         21   -1    0    0  501  503 -0.00000000000E+00 -0.00000000000E+00 -0.86826849143E+03  0.86826849143E+03  0.00000000000E+00 0. -1.
          6    1    1    2  501    0 -0.22311468703E+02  0.16933401315E+02 -0.66003409972E+03  0.68290449882E+03  0.17300000000E+03 0. -1.
         -6    1    1    2    0  502  0.22311468703E+02 -0.16933401315E+02 -0.15778284588E+03  0.23581553844E+03  0.17300000000E+03 0. -1.
</event>
<event>
 4    1  0.6020852E+000  0.1000000E+03  0.7546771E-02  0.1280296E+00
         21   -1    0    0  501  502  0.00000000000E+00  0.00000000000E+00  0.65083711643E+02  0.65083711643E+02  0.00000000000E+00 0. -1.
         21   -1    0    0  502  503 -0.00000000000E+00 -0.00000000000E+00 -0.54636901624E+03  0.54636901624E+03  0.00000000000E+00 0. -1.
          6    1    1    2  501    0 -0.20200488126E+02 -0.49153571628E+02 -0.15475253337E+03  0.23812072549E+03  0.17300000000E+03 0. -1.
         -6    1    1    2    0  503  0.20200488126E+02  0.49153571628E+02 -0.32653277123E+03  0.37333200239E+03  0.17300000000E+03 0. -1.
</event>
<event>
 4    1  0.6020852E+000  0.1000000E+03  0.7546771E-02  0.1280296E+00
         21   -1    0    0  501  502  0.00000000000E+00  0.00000000000E+00  0.21722954115E+03  0.21722954115E+03  0.00000000000E+00 0. -1.
         21   -1    0    0  502  503 -0.00000000000E+00 -0.00000000000E+00 -0.26572244442E+03  0.26572244442E+03  0.00000000000E+00 0. -1.
          6    1    1    2  501    0 -0.25579789968E+02  0.11220126371E+03  0.96990945173E+02  0.22930262249E+03  0.17300000000E+03 0. -1.
         -6    1    1    2    0  503  0.25579789968E+02 -0.11220126371E+03 -0.14548384844E+03  0.25364936308E+03  0.17300000000E+03 0. -1.
</event>
<event>
 4    1  0.6020852E+000  0.1000000E+03  0.7546771E-02  0.1280296E+00
         21   -1    0    0  503  502  0.00000000000E+00  0.00000000000E+00  0.17948588567E+03  0.17948588567E+03  0.00000000000E+00 0.  1.
         21   -1    0    0  501  503 -0.00000000000E+00 -0.00000000000E+00 -0.17746572352E+03  0.17746572352E+03  0.00000000000E+00 0.  1.
          6    1    1    2  501    0 -0.40340575718E+02  0.11435898936E+02 -0.11852890115E+02  0.17840300681E+03  0.17300000000E+03 0.  1.
         -6    1    1    2    0  502  0.40340575718E+02 -0.11435898936E+02  0.13873052261E+02  0.17854860238E+03  0.17300000000E+03 0.  1.
</event>
<event>
 4    1  0.6020852E+000  0.1000000E+03  0.7546771E-02  0.1280296E+00
         21   -1    0    0  503  502  0.00000000000E+00  0.00000000000E+00  0.48415242413E+03  0.48415242413E+03  0.00000000000E+00 0. -1.
         21   -1    0    0  501  503 -0.00000000000E+00 -0.00000000000E+00 -0.16409799199E+03  0.16409799199E+03  0.00000000000E+00 0.  1.
          6    1    1    2  501    0 -0.90736801521E+02  0.31108089154E+02 -0.70872089890E+02  0.21012551841E+03  0.17300000000E+03 0.  1.
         -6    1    1    2    0  502  0.90736801521E+02 -0.31108089154E+02  0.39092652203E+03  0.43812489770E+03  0.17300000000E+03 0. -1.
</event>
<event>
 4    1  0.6020852E+000  0.1000000E+03  0.7546771E-02  0.1280296E+00
         21   -1    0    0  503  502  0.00000000000E+00  0.00000000000E+00  0.82999381878E+02  0.82999381878E+02  0.00000000000E+00 0. -1.
         21   -1    0    0  501  503 -0.00000000000E+00 -0.00000000000E+00 -0.68963007355E+03  0.68963007355E+03  0.00000000000E+00 0.  1.
          6    1    1    2  501    0  0.13396175012E+03  0.96502686008E+02 -0.29174437272E+03  0.37722976807E+03  0.17300000000E+03 0.  1.
         -6    1    1    2    0  502 -0.13396175012E+03 -0.96502686008E+02 -0.31488631896E+03  0.39539968737E+03  0.17300000000E+03 0. -1.
</event>
<event>
 4    1  0.6020852E+000  0.1000000E+03  0.7546771E-02  0.1280296E+00
         21   -1    0    0  503  502  0.00000000000E+00  0.00000000000E+00  0.95653967736E+03  0.95653967736E+03  0.00000000000E+00 0. -1.
         21   -1    0    0  501  503 -0.00000000000E+00 -0.00000000000E+00 -0.69949803547E+02  0.69949803547E+02  0.00000000000E+00 0.  1.
          6    1    1    2  501    0  0.50064245220E+01  0.34873949493E+02  0.68188915921E+02  0.18926168364E+03  0.17300000000E+03 0.  1.
         -6    1    1    2    0  502 -0.50064245220E+01 -0.34873949493E+02  0.81840095789E+03  0.83722779727E+03  0.17300000000E+03 0. -1.
</event>
<event>
 4    1  0.6020852E+000  0.1000000E+03  0.7546771E-02  0.1280296E+00
         21   -1    0    0  501  502  0.00000000000E+00  0.00000000000E+00  0.46726849263E+02  0.46726849263E+02  0.00000000000E+00 0.  1.
         21   -1    0    0  502  503 -0.00000000000E+00 -0.00000000000E+00 -0.16327425243E+04  0.16327425243E+04  0.00000000000E+00 0.  1.
          6    1    1    2  501    0 -0.15422788037E+03 -0.66001877595E+02 -0.38262311643E+03  0.45218573192E+03  0.17300000000E+03 0.  1.
         -6    1    1    2    0  503  0.15422788037E+03  0.66001877595E+02 -0.12033925586E+04  0.12272836417E+04  0.17300000000E+03 0.  1.
</event>
<event>
 4    1  0.6020852E+000  0.1000000E+03  0.7546771E-02  0.1280296E+00
         21   -1    0    0  503  502  0.00000000000E+00  0.00000000000E+00  0.24034435756E+03  0.24034435756E+03  0.00000000000E+00 0. -1.
         21   -1    0    0  501  503 -0.00000000000E+00 -0.00000000000E+00 -0.31466716951E+03  0.31466716951E+03  0.00000000000E+00 0. -1.
          6    1    1    2  501    0 -0.12759880470E+03  0.16573865466E+03  0.73841392701E+01  0.27154057178E+03  0.17300000000E+03 0. -1.
         -6    1    1    2    0  502  0.12759880470E+03 -0.16573865466E+03 -0.81706951224E+02  0.28347095528E+03  0.17300000000E+03 0. -1.
</event>
<event>
 4    1  0.6020852E+000  0.1000000E+03  0.7546771E-02  0.1280296E+00
         21   -1    0    0  503  502  0.00000000000E+00  0.00000000000E+00  0.18000479579E+03  0.18000479579E+03  0.00000000000E+00 0. -1.
         21   -1    0    0  501  503 -0.00000000000E+00 -0.00000000000E+00 -0.20582735100E+03  0.20582735100E+03  0.00000000000E+00 0. -1.
          6    1    1    2  501    0 -0.52374561888E+02 -0.25040925381E+02 -0.74292412190E+02  0.19702412336E+03  0.17300000000E+03 0. -1.
         -6    1    1    2    0  502  0.52374561888E+02  0.25040925381E+02  0.48469856983E+02  0.18880802343E+03  0.17300000000E+03 0. -1.
</event>
<event>
 4    1  0.6020852E+000  0.1000000E+03  0.7546771E-02  0.1280296E+00
         21   -1    0    0  503  502  0.00000000000E+00  0.00000000000E+00  0.83921492445E+03  0.83921492445E+03  0.00000000000E+00 0. -1.
         21   -1    0    0  501  503 -0.00000000000E+00 -0.00000000000E+00 -0.49412113502E+02  0.49412113502E+02  0.00000000000E+00 0. -1.
          6    1    1    2  501    0  0.68951994174E+02  0.70390547144E+02  0.30158370760E+03  0.36137368376E+03  0.17300000000E+03 0. -1.
         -6    1    1    2    0  502 -0.68951994174E+02 -0.70390547144E+02  0.48821910335E+03  0.52725335419E+03  0.17300000000E+03 0. -1.
</event>
<event>
 4    1  0.6020852E+000  0.1000000E+03  0.7546771E-02  0.1280296E+00
         21   -1    0    0  503  502  0.00000000000E+00  0.00000000000E+00  0.28220431957E+03  0.28220431957E+03  0.00000000000E+00 0.  1.
         21   -1    0    0  501  503 -0.00000000000E+00 -0.00000000000E+00 -0.15539885045E+03  0.15539885045E+03  0.00000000000E+00 0. -1.
          6    1    1    2  501    0  0.11559892022E+03  0.96198658300E+01  0.40761658167E+02  0.21224081830E+03  0.17300000000E+03 0. -1.
         -6    1    1    2    0  502 -0.11559892022E+03 -0.96198658300E+01  0.86043810952E+02  0.22536235173E+03  0.17300000000E+03 0.  1.
</event>
<event>
 4    1  0.6020852E+000  0.1000000E+03  0.7546771E-02  0.1280296E+00
         21   -1    0    0  503  502  0.00000000000E+00  0.00000000000E+00  0.41828200458E+03  0.41828200458E+03  0.00000000000E+00 0.  1.
         21   -1    0    0  501  503 -0.00000000000E+00 -0.00000000000E+00 -0.76601529259E+02  0.76601529259E+02  0.00000000000E+00 0. -1.
          6    1    1    2  501    0  0.42565452975E+02 -0.11984723206E+02  0.15354201506E+03  0.23549862370E+03  0.17300000000E+03 0. -1.
         -6    1    1    2    0  502 -0.42565452975E+02  0.11984723206E+02  0.18813846026E+03  0.25938491014E+03  0.17300000000E+03 0.  1.
</event>
<event>
 4    1  0.6020852E+000  0.1000000E+03  0.7546771E-02  0.1280296E+00
         21   -1    0    0  503  502  0.00000000000E+00  0.00000000000E+00  0.11494718015E+03  0.11494718015E+03  0.00000000000E+00 0.  1.
         21   -1    0    0  501  503 -0.00000000000E+00 -0.00000000000E+00 -0.33860974614E+03  0.33860974614E+03  0.00000000000E+00 0. -1.
          6    1    1    2  501    0 -0.69972975264E+02 -0.26473371503E+02 -0.17881946548E+03  0.25981235133E+03  0.17300000000E+03 0. -1.
         -6    1    1    2    0  502  0.69972975264E+02  0.26473371503E+02 -0.44843100505E+02  0.19374457497E+03  0.17300000000E+03 0.  1.
</event>
<event>
 4    1  0.6020852E+000  0.1000000E+03  0.7546771E-02  0.1280296E+00
         21   -1    0    0  503  502  0.00000000000E+00  0.00000000000E+00  0.37720738777E+02  0.37720738777E+02  0.00000000000E+00 0. -1.
         21   -1    0    0  501  503 -0.00000000000E+00 -0.00000000000E+00 -0.16924644571E+04  0.16924644571E+04  0.00000000000E+00 0. -1.
          6    1    1    2  501    0 -0.17433900961E+03 -0.48752216546E+02 -0.71171208593E+03  0.75447595200E+03  0.17300000000E+03 0. -1.
         -6    1    1    2    0  502  0.17433900961E+03  0.48752216546E+02 -0.94303163237E+03  0.97570924385E+03  0.17300000000E+03 0. -1.
</event>
<event>
 4    1  0.6020852E+000  0.1000000E+03  0.7546771E-02  0.1280296E+00
         21   -1    0    0  501  502  0.00000000000E+00  0.00000000000E+00  0.25713683375E+03  0.25713683375E+03  0.00000000000E+00 0.  1.
         21   -1    0    0  502  503 -0.00000000000E+00 -0.00000000000E+00 -0.97764217427E+03  0.97764217427E+03  0.00000000000E+00 0.  1.
          6    1    1    2  501    0 -0.69988131652E+02  0.60233367217E+01  0.21272849627E+03  0.28304952267E+03  0.17300000000E+03 0. -1.
         -6    1    1    2    0  503  0.69988131652E+02 -0.60233367217E+01 -0.93323383679E+03  0.95172948536E+03  0.17300000000E+03 0. -1.
</event>
<event>
 4    1  0.6020852E+000  0.1000000E+03  0.7546771E-02  0.1280296E+00
         21   -1    0    0  501  502  0.00000000000E+00  0.00000000000E+00  0.31043027690E+03  0.31043027690E+03  0.00000000000E+00 0.  1.
         21   -1    0    0  502  503 -0.00000000000E+00 -0.00000000000E+00 -0.19541928865E+03  0.19541928865E+03  0.00000000000E+00 0.  1.
          6    1    1    2  501    0 -0.11313043284E+03 -0.13102026003E+03  0.86005467430E+02  0.25940459480E+03  0.17300000000E+03 0. -1.
         -6    1    1    2    0  503  0.11313043284E+03  0.13102026003E+03  0.29005520815E+02  0.24644497076E+03  0.17300000000E+03 0. -1.
</event>
<event>
 4    1  0.6020852E+000  0.1000000E+03  0.7546771E-02  0.1280296E+00
         21   -1    0    0  501  502  0.00000000000E+00  0.00000000000E+00  0.20384005000E+03  0.20384005000E+03  0.00000000000E+00 0.  1.
         21   -1    0    0  502  503 -0.00000000000E+00 -0.00000000000E+00 -0.24468613831E+03  0.24468613831E+03  0.00000000000E+00 0.  1.
          6    1    1    2  501    0 -0.99387691187E+02  0.94834904843E+02  0.12520281405E+02  0.22126303302E+03  0.17300000000E+03 0. -1.
         -6    1    1    2    0  503  0.99387691187E+02 -0.94834904843E+02 -0.53366369711E+02  0.22726315529E+03  0.17300000000E+03 0. -1.
</event>
<event>
 4    1  0.6020852E+000  0.1000000E+03  0.7546771E-02  0.1280296E+00
         21   -1    0    0  501  502  0.00000000000E+00  0.00000000000E+00  0.15404779323E+04  0.15404779323E+04  0.00000000000E+00 0. -1.
         21   -1    0    0  502  503 -0.00000000000E+00 -0.00000000000E+00 -0.37580207173E+02  0.37580207173E+02  0.00000000000E+00 0.  1.
          6    1    1    2  501    0  0.87831132325E+02  0.76750342539E+02  0.11443886015E+04  0.11632537101E+04  0.17300000000E+03 0. -1.
         -6    1    1    2    0  503 -0.87831132325E+02 -0.76750342539E+02  0.35850912368E+03  0.41480442940E+03  0.17300000000E+03 0.  1.
</event>
<event>
 4    1  0.6020852E+000  0.1000000E+03  0.7546771E-02  0.1280296E+00
         21   -1    0    0  501  502  0.00000000000E+00  0.00000000000E+00  0.99107776043E+03  0.99107776043E+03  0.00000000000E+00 0. -1.
         21   -1    0    0  502  503 -0.00000000000E+00 -0.00000000000E+00 -0.12109087349E+03  0.12109087349E+03  0.00000000000E+00 0.  1.
          6    1    1    2  501    0 -0.11229481967E+03 -0.19636084199E+02  0.88066834922E+03  0.90471069610E+03  0.17300000000E+03 0. -1.
         -6    1    1    2    0  503  0.11229481967E+03  0.19636084199E+02 -0.10681462273E+02  0.20745793782E+03  0.17300000000E+03 0.  1.
</event>
<event>
 4    1  0.6020852E+000  0.1000000E+03  0.7546771E-02  0.1280296E+00
         21   -1    0    0  501  502  0.00000000000E+00  0.00000000000E+00  0.17004506820E+03  0.17004506820E+03  0.00000000000E+00 0. -1.
         21   -1    0    0  502  503 -0.00000000000E+00 -0.00000000000E+00 -0.10955975580E+04  0.10955975580E+04  0.00000000000E+00 0.  1.
          6    1    1    2  501    0  0.16729262458E+03  0.90691608304E+02  0.45446174159E+02  0.26116306171E+03  0.17300000000E+03 0. -1.
         -6    1    1    2    0  503 -0.16729262458E+03 -0.90691608304E+02 -0.97099866396E+03  0.10044795645E+04  0.17300000000E+03 0.  1.
</event>
<event>
 4    1  0.6020852E+000  0.1000000E+03  0.7546771E-02  0.1280296E+00
         21   -1    0    0  501  502  0.00000000000E+00  0.00000000000E+00  0.13227233107E+04  0.13227233107E+04  0.00000000000E+00 0.  1.
         21   -1    0    0  502  503 -0.00000000000E+00 -0.00000000000E+00 -0.55268853227E+02  0.55268853227E+02  0.00000000000E+00 0.  1.
          6    1    1    2  501    0  0.44721180465E+02  0.20173349992E+03  0.57789719827E+03  0.63764454106E+03  0.17300000000E+03 0.  1.
         -6    1    1    2    0  503 -0.44721180465E+02 -0.20173349992E+03  0.68955725925E+03  0.74034762292E+03  0.17300000000E+03 0.  1.
</event>
<event>
 4    1  0.6020852E+000  0.1000000E+03  0.7546771E-02  0.1280296E+00
         21   -1    0    0  503  502  0.00000000000E+00  0.00000000000E+00  0.18313665538E+03  0.18313665538E+03  0.00000000000E+00 0.  1.
         21   -1    0    0  501  503 -0.00000000000E+00 -0.00000000000E+00 -0.39594770108E+03  0.39594770108E+03  0.00000000000E+00 0.  1.
          6    1    1    2  501    0 -0.65632264614E+01  0.17206304900E+03  0.15882696785E+02  0.24460177601E+03  0.17300000000E+03 0.  1.
         -6    1    1    2    0  502  0.65632264614E+01 -0.17206304900E+03 -0.22869374249E+03  0.33448258045E+03  0.17300000000E+03 0.  1.
</event>
<event>
 4    1  0.6020852E+000  0.1000000E+03  0.7546771E-02  0.1280296E+00
         21   -1    0    0  503  502  0.00000000000E+00  0.00000000000E+00  0.18108819695E+03  0.18108819695E+03  0.00000000000E+00 0.  1.
         21   -1    0    0  501  503 -0.00000000000E+00 -0.00000000000E+00 -0.22785859966E+03  0.22785859966E+03  0.00000000000E+00 0.  1.
          6    1    1    2  501    0  0.10439838827E+03  0.12851913367E+02 -0.68662104750E+01  0.20258415535E+03  0.17300000000E+03 0.  1.
         -6    1    1    2    0  502 -0.10439838827E+03 -0.12851913367E+02 -0.39904192242E+02  0.20636264126E+03  0.17300000000E+03 0.  1.
</event>
<event>
 4    1  0.6020852E+000  0.1000000E+03  0.7546771E-02  0.1280296E+00
         21   -1    0    0  503  502  0.00000000000E+00  0.00000000000E+00  0.59767387644E+03  0.59767387644E+03  0.00000000000E+00 0. -1.
         21   -1    0    0  501  503 -0.00000000000E+00 -0.00000000000E+00 -0.10529591614E+03  0.10529591614E+03  0.00000000000E+00 0. -1.
          6    1    1    2  501    0  0.62412644862E+02 -0.66778398700E+02  0.26216797562E+02  0.19741077287E+03  0.17300000000E+03 0. -1.
         -6    1    1    2    0  502 -0.62412644862E+02  0.66778398700E+02  0.46616116273E+03  0.50555901971E+03  0.17300000000E+03 0. -1.
</event>
<event>
 4    1  0.6020852E+000  0.1000000E+03  0.7546771E-02  0.1280296E+00
         21   -1    0    0  503  502  0.00000000000E+00  0.00000000000E+00  0.33365480720E+02  0.33365480720E+02  0.00000000000E+00 0. -1.
         21   -1    0    0  501  503 -0.00000000000E+00 -0.00000000000E+00 -0.18721215735E+04  0.18721215735E+04  0.00000000000E+00 0. -1.
          6    1    1    2  501    0  0.11340749519E+03 -0.12027555676E+03 -0.11944751715E+04  0.12182066347E+04  0.17300000000E+03 0. -1.
         -6    1    1    2    0  502 -0.11340749519E+03  0.12027555676E+03 -0.64428092133E+03  0.68728041956E+03  0.17300000000E+03 0. -1.
</event>
<event>
 4    1  0.6020852E+000  0.1000000E+03  0.7546771E-02  0.1280296E+00
         21   -1    0    0  503  502  0.00000000000E+00  0.00000000000E+00  0.31976276484E+03  0.31976276484E+03  0.00000000000E+00 0. -1.
         21   -1    0    0  501  503 -0.00000000000E+00 -0.00000000000E+00 -0.16074833196E+03  0.16074833196E+03  0.00000000000E+00 0. -1.
          6    1    1    2  501    0  0.35635653749E+02  0.74056866495E+02 -0.49054249616E+02  0.19771099792E+03  0.17300000000E+03 0. -1.
         -6    1    1    2    0  502 -0.35635653749E+02 -0.74056866495E+02  0.20806868250E+03  0.28280009889E+03  0.17300000000E+03 0. -1.
</event>
<event>
 4    1  0.6020852E+000  0.1000000E+03  0.7546771E-02  0.1280296E+00
         21   -1    0    0  503  502  0.00000000000E+00  0.00000000000E+00  0.17222432032E+03  0.17222432032E+03  0.00000000000E+00 0.  1.
         21   -1    0    0  501  503 -0.00000000000E+00 -0.00000000000E+00 -0.56845647592E+03  0.56845647592E+03  0.00000000000E+00 0.  1.
          6    1    1    2  501    0 -0.11734356828E+03  0.17093420524E+03 -0.38520369531E+03  0.47042417287E+03  0.17300000000E+03 0.  1.
         -6    1    1    2    0  502  0.11734356828E+03 -0.17093420524E+03 -0.11028460294E+02  0.27025662337E+03  0.17300000000E+03 0.  1.
</event>
<event>
 4    1  0.6020852E+000  0.1000000E+03  0.7546771E-02  0.1280296E+00
         21   -1    0    0  503  502  0.00000000000E+00  0.00000000000E+00  0.11556375959E+04  0.11556375959E+04  0.00000000000E+00 0. -1.
         21   -1    0    0  501  503 -0.00000000000E+00 -0.00000000000E+00 -0.36258682500E+02  0.36258682500E+02  0.00000000000E+00 0. -1.
          6    1    1    2  501    0 -0.92942003624E+02  0.55035275330E+02  0.50877867884E+03  0.54813487538E+03  0.17300000000E+03 0. -1.
         -6    1    1    2    0  502  0.92942003624E+02 -0.55035275330E+02  0.61060023453E+03  0.64376140299E+03  0.17300000000E+03 0. -1.
</event>
<event>
 4    1  0.6020852E+000  0.1000000E+03  0.7546771E-02  0.1280296E+00
         21   -1    0    0  503  502  0.00000000000E+00  0.00000000000E+00  0.15508800921E+04  0.15508800921E+04  0.00000000000E+00 0.  1.
         21   -1    0    0  501  503 -0.00000000000E+00 -0.00000000000E+00 -0.10508885734E+03  0.10508885734E+03  0.00000000000E+00 0.  1.
          6    1    1    2  501    0 -0.20748082681E+03  0.19469078461E+03  0.25476501646E+03  0.41926961339E+03  0.17300000000E+03 0.  1.
         -6    1    1    2    0  502  0.20748082681E+03 -0.19469078461E+03  0.11910262183E+04  0.12366993360E+04  0.17300000000E+03 0.  1.
</event>
<event>
 4    1  0.6020852E+000  0.1000000E+03  0.7546771E-02  0.1280296E+00
         21   -1    0    0  503  502  0.00000000000E+00  0.00000000000E+00  0.12413627315E+03  0.12413627315E+03  0.00000000000E+00 0.  1.
         21   -1    0    0  501  503 -0.00000000000E+00 -0.00000000000E+00 -0.37060660238E+03  0.37060660238E+03  0.00000000000E+00 0.  1.
          6    1    1    2  501    0 -0.10804084828E+03  0.25556265795E+02 -0.19386759024E+03  0.28255900298E+03  0.17300000000E+03 0.  1.
         -6    1    1    2    0  502  0.10804084828E+03 -0.25556265795E+02 -0.52602738994E+02  0.21218387255E+03  0.17300000000E+03 0.  1.
</event>
<event>
 4    1  0.6020852E+000  0.1000000E+03  0.7546771E-02  0.1280296E+00
         21   -1    0    0  503  502  0.00000000000E+00  0.00000000000E+00  0.19421842810E+03  0.19421842810E+03  0.00000000000E+00 0.  1.
         21   -1    0    0  501  503 -0.00000000000E+00 -0.00000000000E+00 -0.21184703066E+03  0.21184703066E+03  0.00000000000E+00 0.  1.
          6    1    1    2  501    0  0.29019104497E+02 -0.71887613418E+02  0.63404045211E+02  0.19989749958E+03  0.17300000000E+03 0.  1.
         -6    1    1    2    0  502 -0.29019104497E+02  0.71887613418E+02 -0.81032647773E+02  0.20616795918E+03  0.17300000000E+03 0.  1.
</event>
<event>
 4    1  0.6020852E+000  0.1000000E+03  0.7546771E-02  0.1280296E+00
         21   -1    0    0  501  502  0.00000000000E+00  0.00000000000E+00  0.21333417393E+04  0.21333417393E+04  0.00000000000E+00 0. -1.
         21   -1    0    0  502  503 -0.00000000000E+00 -0.00000000000E+00 -0.34335504055E+02  0.34335504055E+02  0.00000000000E+00 0. -1.
          6    1    1    2  501    0 -0.26939362687E+02 -0.85933330659E+01  0.18752812015E+04  0.18834564395E+04  0.17300000000E+03 0. -1.
         -6    1    1    2    0  503  0.26939362687E+02  0.85933330659E+01  0.22372503368E+03  0.28422080383E+03  0.17300000000E+03 0. -1.
</event>
<event>
 4    1  0.6020852E+000  0.1000000E+03  0.7546771E-02  0.1280296E+00
         21   -1    0    0  501  502  0.00000000000E+00  0.00000000000E+00  0.41214011441E+03  0.41214011441E+03  0.00000000000E+00 0. -1.
         21   -1    0    0  502  503 -0.00000000000E+00 -0.00000000000E+00 -0.95508244273E+02  0.95508244273E+02  0.00000000000E+00 0.  1.
          6    1    1    2  501    0 -0.46260105445E+02 -0.12945212912E+02  0.26631480369E+03  0.32118553915E+03  0.17300000000E+03 0. -1.
         -6    1    1    2    0  503  0.46260105445E+02  0.12945212912E+02  0.50317066447E+02  0.18646281953E+03  0.17300000000E+03 0.  1.
</event>
<event>
 4    1  0.6020852E+000  0.1000000E+03  0.7546771E-02  0.1280296E+00
         21   -1    0    0  501  502  0.00000000000E+00  0.00000000000E+00  0.46199688648E+03  0.46199688648E+03  0.00000000000E+00 0. -1.
         21   -1    0    0  502  503 -0.00000000000E+00 -0.00000000000E+00 -0.23851328802E+03  0.23851328802E+03  0.00000000000E+00 0.  1.
          6    1    1    2  501    0 -0.26335403964E+02  0.24213984554E+03  0.26442022320E+03  0.39896404943E+03  0.17300000000E+03 0. -1.
         -6    1    1    2    0  503  0.26335403964E+02 -0.24213984554E+03 -0.40936624746E+02  0.30154612507E+03  0.17300000000E+03 0.  1.
</event>
<event>
 4    1  0.6020852E+000  0.1000000E+03  0.7546771E-02  0.1280296E+00
         21   -1    0    0  501  502  0.00000000000E+00  0.00000000000E+00  0.11517968380E+04  0.11517968380E+04  0.00000000000E+00 0. -1.
         21   -1    0    0  502  503 -0.00000000000E+00 -0.00000000000E+00 -0.32152470212E+03  0.32152470212E+03  0.00000000000E+00 0.  1.
          6    1    1    2  501    0 -0.12078372321E+03 -0.13561227877E+03  0.10863182551E+04  0.11148971922E+04  0.17300000000E+03 0. -1.
         -6    1    1    2    0  503  0.12078372321E+03  0.13561227877E+03 -0.25604611924E+03  0.35842434784E+03  0.17300000000E+03 0.  1.
</event>
<event>
 4    1  0.6020852E+000  0.1000000E+03  0.7546771E-02  0.1280296E+00
         21   -1    0    0  503  502  0.00000000000E+00  0.00000000000E+00  0.33224279313E+03  0.33224279313E+03  0.00000000000E+00 0.  1.
         21   -1    0    0  501  503 -0.00000000000E+00 -0.00000000000E+00 -0.14135960885E+03  0.14135960885E+03  0.00000000000E+00 0.  1.
          6    1    1    2  501    0 -0.57327962543E+02 -0.98613888163E+02  0.26114292564E+02  0.20885916428E+03  0.17300000000E+03 0.  1.
         -6    1    1    2    0  502  0.57327962543E+02  0.98613888163E+02  0.16476889172E+03  0.26474323770E+03  0.17300000000E+03 0.  1.
</event>
<event>
 4    1  0.6020852E+000  0.1000000E+03  0.7546771E-02  0.1280296E+00
         21   -1    0    0  503  502  0.00000000000E+00  0.00000000000E+00  0.31831479851E+03  0.31831479851E+03  0.00000000000E+00 0.  1.
         21   -1    0    0  501  503 -0.00000000000E+00 -0.00000000000E+00 -0.41823907875E+03  0.41823907875E+03  0.00000000000E+00 0.  1.
          6    1    1    2  501    0  0.13298852047E+03  0.40471921791E+02 -0.34228300760E+03  0.40793452945E+03  0.17300000000E+03 0.  1.
         -6    1    1    2    0  502 -0.13298852047E+03 -0.40471921791E+02  0.24235872735E+03  0.32861934781E+03  0.17300000000E+03 0.  1.
</event>
<event>
 4    1  0.6020852E+000  0.1000000E+03  0.7546771E-02  0.1280296E+00
         21   -1    0    0  501  502  0.00000000000E+00  0.00000000000E+00  0.30718356090E+03  0.30718356090E+03  0.00000000000E+00 0. -1.
         21   -1    0    0  502  503 -0.00000000000E+00 -0.00000000000E+00 -0.19808494874E+03  0.19808494874E+03  0.00000000000E+00 0. -1.
          6    1    1    2  501    0 -0.12303130986E+03 -0.25098373169E+02  0.18061998105E+03  0.27985569334E+03  0.17300000000E+03 0. -1.
         -6    1    1    2    0  503  0.12303130986E+03  0.25098373169E+02 -0.71521368894E+02  0.22541281630E+03  0.17300000000E+03 0. -1.
</event>
<event>
 4    1  0.6020852E+000  0.1000000E+03  0.7546771E-02  0.1280296E+00
         21   -1    0    0  501  502  0.00000000000E+00  0.00000000000E+00  0.94472574786E+02  0.94472574786E+02  0.00000000000E+00 0. -1.
         21   -1    0    0  502  503 -0.00000000000E+00 -0.00000000000E+00 -0.59916750537E+03  0.59916750537E+03  0.00000000000E+00 0. -1.
          6    1    1    2  501    0  0.40464593884E+02  0.36155376242E+02 -0.27784585810E+02  0.18342730930E+03  0.17300000000E+03 0. -1.
         -6    1    1    2    0  503 -0.40464593884E+02 -0.36155376242E+02 -0.47691034477E+03  0.51021277085E+03  0.17300000000E+03 0. -1.
</event>
<event>
 4    1  0.6020852E+000  0.1000000E+03  0.7546771E-02  0.1280296E+00
         21   -1    0    0  503  502  0.00000000000E+00  0.00000000000E+00  0.14580727778E+04  0.14580727778E+04  0.00000000000E+00 0. -1.
         21   -1    0    0  501  503 -0.00000000000E+00 -0.00000000000E+00 -0.32804600986E+02  0.32804600986E+02  0.00000000000E+00 0. -1.
          6    1    1    2  501    0  0.11244461368E+03 -0.28186475948E+02  0.48489997571E+03  0.52772649641E+03  0.17300000000E+03 0. -1.
         -6    1    1    2    0  502 -0.11244461368E+03  0.28186475948E+02  0.94036820108E+03  0.96315088235E+03  0.17300000000E+03 0. -1.
</event>
<event>
 4    1  0.6020852E+000  0.1000000E+03  0.7546771E-02  0.1280296E+00
         21   -1    0    0  503  502  0.00000000000E+00  0.00000000000E+00  0.13169455915E+04  0.13169455915E+04  0.00000000000E+00 0. -1.
         21   -1    0    0  501  503 -0.00000000000E+00 -0.00000000000E+00 -0.44102393782E+02  0.44102393782E+02  0.00000000000E+00 0. -1.
          6    1    1    2  501    0 -0.83637894428E+02  0.13951085760E+03  0.75260418921E+03  0.78917719327E+03  0.17300000000E+03 0. -1.
         -6    1    1    2    0  502  0.83637894428E+02 -0.13951085760E+03  0.52023900849E+03  0.57187079198E+03  0.17300000000E+03 0. -1.
</event>
<event>
 4    1  0.6020852E+000  0.1000000E+03  0.7546771E-02  0.1280296E+00
         21   -1    0    0  501  502  0.00000000000E+00  0.00000000000E+00  0.17342643117E+03  0.17342643117E+03  0.00000000000E+00 0.  1.
         21   -1    0    0  502  503 -0.00000000000E+00 -0.00000000000E+00 -0.10952858068E+04  0.10952858068E+04  0.00000000000E+00 0. -1.
          6    1    1    2  501    0  0.77776925558E+02 -0.12672811246E+03  0.79594019546E+02  0.24160602762E+03  0.17300000000E+03 0. -1.
         -6    1    1    2    0  503 -0.77776925558E+02  0.12672811246E+03 -0.10014533951E+04  0.10271062103E+04  0.17300000000E+03 0.  1.
</event>
<event>
 4    1  0.6020852E+000  0.1000000E+03  0.7546771E-02  0.1280296E+00
         21   -1    0    0  501  502  0.00000000000E+00  0.00000000000E+00  0.86906599259E+03  0.86906599259E+03  0.00000000000E+00 0. -1.
         21   -1    0    0  502  503 -0.00000000000E+00 -0.00000000000E+00 -0.88478629292E+02  0.88478629292E+02  0.00000000000E+00 0. -1.
          6    1    1    2  501    0 -0.82471969960E+02 -0.11413509901E+03  0.67471290085E+03  0.71062996364E+03  0.17300000000E+03 0. -1.
         -6    1    1    2    0  503  0.82471969960E+02  0.11413509901E+03  0.10587446245E+03  0.24691465824E+03  0.17300000000E+03 0. -1.
</event>
<event>
 4    1  0.6020852E+000  0.1000000E+03  0.7546771E-02  0.1280296E+00
         21   -1    0    0  501  502  0.00000000000E+00  0.00000000000E+00  0.32600575072E+03  0.32600575072E+03  0.00000000000E+00 0. -1.
         21   -1    0    0  502  503 -0.00000000000E+00 -0.00000000000E+00 -0.36398151168E+03  0.36398151168E+03  0.00000000000E+00 0. -1.
          6    1    1    2  501    0 -0.11025899069E+03  0.78030048612E+02  0.24690588925E+03  0.33035927664E+03  0.17300000000E+03 0. -1.
         -6    1    1    2    0  503  0.11025899069E+03 -0.78030048612E+02 -0.28488165021E+03  0.35962798576E+03  0.17300000000E+03 0. -1.
</event>
<event>
 4    1  0.6020852E+000  0.1000000E+03  0.7546771E-02  0.1280296E+00
         21   -1    0    0  501  502  0.00000000000E+00  0.00000000000E+00  0.59901140536E+03  0.59901140536E+03  0.00000000000E+00 0. -1.
         21   -1    0    0  502  503 -0.00000000000E+00 -0.00000000000E+00 -0.20771782969E+03  0.20771782969E+03  0.00000000000E+00 0. -1.
          6    1    1    2  501    0  0.95591508330E+02  0.19003279468E+03  0.44941049250E+03  0.52644941854E+03  0.17300000000E+03 0. -1.
         -6    1    1    2    0  503 -0.95591508330E+02 -0.19003279468E+03 -0.58116916827E+02  0.28027981650E+03  0.17300000000E+03 0. -1.
</event>
<event>
 4    1  0.6020852E+000  0.1000000E+03  0.7546771E-02  0.1280296E+00
         21   -1    0    0  501  502  0.00000000000E+00  0.00000000000E+00  0.85774600580E+03  0.85774600580E+03  0.00000000000E+00 0. -1.
         21   -1    0    0  502  503 -0.00000000000E+00 -0.00000000000E+00 -0.16362688994E+03  0.16362688994E+03  0.00000000000E+00 0. -1.
          6    1    1    2  501    0 -0.20473688876E+03 -0.16129741816E+02  0.70316590810E+03  0.75269426496E+03  0.17300000000E+03 0. -1.
         -6    1    1    2    0  503  0.20473688876E+03  0.16129741816E+02 -0.90467922361E+01  0.26867863079E+03  0.17300000000E+03 0. -1.
</event>
<event>
 4    1  0.6020852E+000  0.1000000E+03  0.7546771E-02  0.1280296E+00
         21   -1    0    0  501  502  0.00000000000E+00  0.00000000000E+00  0.84675342100E+02  0.84675342100E+02  0.00000000000E+00 0. -1.
         21   -1    0    0  502  503 -0.00000000000E+00 -0.00000000000E+00 -0.60576029684E+03  0.60576029684E+03  0.00000000000E+00 0. -1.
          6    1    1    2  501    0  0.12981542291E+03 -0.17441744258E+02 -0.16166740725E+03  0.27059491687E+03  0.17300000000E+03 0. -1.
         -6    1    1    2    0  503 -0.12981542291E+03  0.17441744258E+02 -0.35941754749E+03  0.41984072207E+03  0.17300000000E+03 0. -1.
</event>
<event>
 4    1  0.6020852E+000  0.1000000E+03  0.7546771E-02  0.1280296E+00
         21   -1    0    0  501  502  0.00000000000E+00  0.00000000000E+00  0.11703795780E+04  0.11703795780E+04  0.00000000000E+00 0. -1.
         21   -1    0    0  502  503 -0.00000000000E+00 -0.00000000000E+00 -0.48946796434E+02  0.48946796434E+02  0.00000000000E+00 0. -1.
          6    1    1    2  501    0 -0.94709239470E+02  0.22794867119E+02  0.90120378838E+03  0.92281456111E+03  0.17300000000E+03 0. -1.
         -6    1    1    2    0  503  0.94709239470E+02 -0.22794867119E+02  0.22022899323E+03  0.29651181337E+03  0.17300000000E+03 0. -1.
</event>
<event>
 4    1  0.6020852E+000  0.1000000E+03  0.7546771E-02  0.1280296E+00
         21   -1    0    0  501  502  0.00000000000E+00  0.00000000000E+00  0.10629157696E+03  0.10629157696E+03  0.00000000000E+00 0. -1.
         21   -1    0    0  502  503 -0.00000000000E+00 -0.00000000000E+00 -0.33382605416E+03  0.33382605416E+03  0.00000000000E+00 0. -1.
          6    1    1    2  501    0  0.65509614051E+02  0.32090772413E+02 -0.13158308928E+03  0.22926935380E+03  0.17300000000E+03 0. -1.
         -6    1    1    2    0  503 -0.65509614051E+02 -0.32090772413E+02 -0.95951387914E+02  0.21084827732E+03  0.17300000000E+03 0. -1.
</event>
<event>
 4    1  0.6020852E+000  0.1000000E+03  0.7546771E-02  0.1280296E+00
         21   -1    0    0  503  502  0.00000000000E+00  0.00000000000E+00  0.62646578459E+03  0.62646578459E+03  0.00000000000E+00 0. -1.
         21   -1    0    0  501  503 -0.00000000000E+00 -0.00000000000E+00 -0.96111126295E+02  0.96111126295E+02  0.00000000000E+00 0. -1.
          6    1    1    2  501    0 -0.70885364630E+01 -0.55175233691E+01  0.93030344326E+01  0.17348267021E+03  0.17300000000E+03 0. -1.
         -6    1    1    2    0  502  0.70885364630E+01  0.55175233691E+01  0.52105162387E+03  0.54909424068E+03  0.17300000000E+03 0. -1.
</event>
<event>
 4    1  0.6020852E+000  0.1000000E+03  0.7546771E-02  0.1280296E+00
         21   -1    0    0  503  502  0.00000000000E+00  0.00000000000E+00  0.45545128655E+03  0.45545128655E+03  0.00000000000E+00 0. -1.
         21   -1    0    0  501  503 -0.00000000000E+00 -0.00000000000E+00 -0.43027523687E+03  0.43027523687E+03  0.00000000000E+00 0. -1.
          6    1    1    2  501    0  0.14523715057E+03 -0.31866306107E+02 -0.36694787557E+03  0.43207526516E+03  0.17300000000E+03 0. -1.
         -6    1    1    2    0  502 -0.14523715057E+03  0.31866306107E+02  0.39212392525E+03  0.45365125826E+03  0.17300000000E+03 0. -1.
</event>
<event>
 4    1  0.6020852E+000  0.1000000E+03  0.7546771E-02  0.1280296E+00
         21   -1    0    0  503  502  0.00000000000E+00  0.00000000000E+00  0.15400245229E+03  0.15400245229E+03  0.00000000000E+00 0. -1.
         21   -1    0    0  501  503 -0.00000000000E+00 -0.00000000000E+00 -0.62480604997E+03  0.62480604997E+03  0.00000000000E+00 0. -1.
          6    1    1    2  501    0  0.59363729444E+02  0.31920411153E+02 -0.54734942073E+03  0.57798213934E+03  0.17300000000E+03 0. -1.
         -6    1    1    2    0  502 -0.59363729444E+02 -0.31920411153E+02  0.76545823043E+02  0.20082636293E+03  0.17300000000E+03 0. -1.
</event>
<event>
 4    1  0.6020852E+000  0.1000000E+03  0.7546771E-02  0.1280296E+00
         21   -1    0    0  503  502  0.00000000000E+00  0.00000000000E+00  0.65650120224E+02  0.65650120224E+02  0.00000000000E+00 0.  1.
         21   -1    0    0  501  503 -0.00000000000E+00 -0.00000000000E+00 -0.93739081038E+03  0.93739081038E+03  0.00000000000E+00 0.  1.
          6    1    1    2  501    0  0.12452138744E+03  0.21525258877E+02 -0.68871594282E+03  0.72126802410E+03  0.17300000000E+03 0.  1.
         -6    1    1    2    0  502 -0.12452138744E+03 -0.21525258877E+02 -0.18302474734E+03  0.28177290651E+03  0.17300000000E+03 0.  1.
</event>
<event>
 4    1  0.6020852E+000  0.1000000E+03  0.7546771E-02  0.1280296E+00
         21   -1    0    0  501  502  0.00000000000E+00  0.00000000000E+00  0.61807665413E+03  0.61807665413E+03  0.00000000000E+00 0.  1.
         21   -1    0    0  502  503 -0.00000000000E+00 -0.00000000000E+00 -0.70474977016E+02  0.70474977016E+02  0.00000000000E+00 0. -1.
          6    1    1    2  501    0 -0.61242037254E+02 -0.98732579985E+02  0.29269736522E+03  0.35930412895E+03  0.17300000000E+03 0. -1.
         -6    1    1    2    0  503  0.61242037254E+02  0.98732579985E+02  0.25490431190E+03  0.32924750220E+03  0.17300000000E+03 0.  1.
</event>
<event>
 4    1  0.6020852E+000  0.1000000E+03  0.7546771E-02  0.1280296E+00
         21   -1    0    0  503  502  0.00000000000E+00  0.00000000000E+00  0.15700829793E+04  0.15700829793E+04  0.00000000000E+00 0. -1.
         21   -1    0    0  501  503 -0.00000000000E+00 -0.00000000000E+00 -0.29291141406E+02  0.29291141406E+02  0.00000000000E+00 0.  1.
          6    1    1    2  501    0 -0.29334661375E+02 -0.61493927606E+02  0.37192641350E+03  0.41581279748E+03  0.17300000000E+03 0.  1.
         -6    1    1    2    0  502  0.29334661375E+02  0.61493927606E+02  0.11688654244E+04  0.11835613232E+04  0.17300000000E+03 0. -1.
</event>
<event>
 4    1  0.6020852E+000  0.1000000E+03  0.7546771E-02  0.1280296E+00
         21   -1    0    0  503  502  0.00000000000E+00  0.00000000000E+00  0.18665087638E+03  0.18665087638E+03  0.00000000000E+00 0. -1.
         21   -1    0    0  501  503 -0.00000000000E+00 -0.00000000000E+00 -0.48816431659E+03  0.48816431659E+03  0.00000000000E+00 0.  1.
          6    1    1    2  501    0 -0.64105111087E+02 -0.19044658737E+03  0.10482711727E+02  0.26536438185E+03  0.17300000000E+03 0.  1.
         -6    1    1    2    0  502  0.64105111087E+02  0.19044658737E+03 -0.31199615194E+03  0.40945081112E+03  0.17300000000E+03 0. -1.
</event>
<event>
 4    1  0.6020852E+000  0.1000000E+03  0.7546771E-02  0.1280296E+00
         21   -1    0    0  501  502  0.00000000000E+00  0.00000000000E+00  0.54273465598E+03  0.54273465598E+03  0.00000000000E+00 0.  1.
         21   -1    0    0  502  503 -0.00000000000E+00 -0.00000000000E+00 -0.15870686105E+03  0.15870686105E+03  0.00000000000E+00 0.  1.
          6    1    1    2  501    0  0.57837298827E+02 -0.66440349392E+02  0.45504334095E+03  0.49472509063E+03  0.17300000000E+03 0.  1.
         -6    1    1    2    0  503 -0.57837298827E+02  0.66440349392E+02 -0.71015546015E+02  0.20671642639E+03  0.17300000000E+03 0.  1.
</event>
<event>
 4    1  0.6020852E+000  0.1000000E+03  0.7546771E-02  0.1280296E+00
         21   -1    0    0  501  502  0.00000000000E+00  0.00000000000E+00  0.75623684748E+03  0.75623684748E+03  0.00000000000E+00 0.  1.
         21   -1    0    0  502  503 -0.00000000000E+00 -0.00000000000E+00 -0.17534261590E+03  0.17534261590E+03  0.00000000000E+00 0.  1.
          6    1    1    2  501    0  0.20349586233E+03 -0.42239418961E+02  0.60240150135E+03  0.66031151991E+03  0.17300000000E+03 0.  1.
         -6    1    1    2    0  503 -0.20349586233E+03  0.42239418961E+02 -0.21507269769E+02  0.27126794347E+03  0.17300000000E+03 0.  1.
</event>
<event>
 4    1  0.6020852E+000  0.1000000E+03  0.7546771E-02  0.1280296E+00
         21   -1    0    0  501  502  0.00000000000E+00  0.00000000000E+00  0.27328430307E+03  0.27328430307E+03  0.00000000000E+00 0.  1.
         21   -1    0    0  502  503 -0.00000000000E+00 -0.00000000000E+00 -0.66504211127E+03  0.66504211127E+03  0.00000000000E+00 0.  1.
          6    1    1    2  501    0  0.29366747111E+03  0.20216791561E+03 -0.22906538264E+02  0.39694604065E+03  0.17300000000E+03 0.  1.
         -6    1    1    2    0  503 -0.29366747111E+03 -0.20216791561E+03 -0.36885126994E+03  0.54138037369E+03  0.17300000000E+03 0.  1.
</event>
<event>
 4    1  0.6020852E+000  0.1000000E+03  0.7546771E-02  0.1280296E+00
         21   -1    0    0  503  502  0.00000000000E+00  0.00000000000E+00  0.85150718620E+03  0.85150718620E+03  0.00000000000E+00 0.  1.
         21   -1    0    0  501  503 -0.00000000000E+00 -0.00000000000E+00 -0.26550570997E+03  0.26550570997E+03  0.00000000000E+00 0. -1.
          6    1    1    2  501    0  0.14584531062E+03  0.41701589729E+03  0.25626863202E+03  0.53923624227E+03  0.17300000000E+03 0. -1.
         -6    1    1    2    0  502 -0.14584531062E+03 -0.41701589729E+03  0.32973284421E+03  0.57777665389E+03  0.17300000000E+03 0.  1.
</event>
<event>
 4    1  0.6020852E+000  0.1000000E+03  0.7546771E-02  0.1280296E+00
         21   -1    0    0  501  502  0.00000000000E+00  0.00000000000E+00  0.81722859206E+03  0.81722859206E+03  0.00000000000E+00 0. -1.
         21   -1    0    0  502  503 -0.00000000000E+00 -0.00000000000E+00 -0.56919311556E+02  0.56919311556E+02  0.00000000000E+00 0.  1.
          6    1    1    2  501    0  0.95222236789E+02 -0.37561011572E+02  0.53854832207E+03  0.57484032494E+03  0.17300000000E+03 0.  1.
         -6    1    1    2    0  503 -0.95222236789E+02  0.37561011572E+02  0.22176095844E+03  0.29930757868E+03  0.17300000000E+03 0.  1.
</event>
<event>
 4    1  0.6020852E+000  0.1000000E+03  0.7546771E-02  0.1280296E+00
         21   -1    0    0  503  502  0.00000000000E+00  0.00000000000E+00  0.17471222610E+04  0.17471222610E+04  0.00000000000E+00 0.  1.
         21   -1    0    0  501  503 -0.00000000000E+00 -0.00000000000E+00 -0.13202221944E+03  0.13202221944E+03  0.00000000000E+00 0.  1.
          6    1    1    2  501    0  0.76092296768E+02 -0.33378727615E+02 -0.53742717106E+02  0.19930242529E+03  0.17300000000E+03 0.  1.
         -6    1    1    2    0  502 -0.76092296768E+02  0.33378727615E+02  0.16688427586E+04  0.16798420551E+04  0.17300000000E+03 0.  1.
</event>
<event>
 4    1  0.6020852E+000  0.1000000E+03  0.7546771E-02  0.1280296E+00
         21   -1    0    0  503  502  0.00000000000E+00  0.00000000000E+00  0.33600126206E+02  0.33600126206E+02  0.00000000000E+00 0.  1.
         21   -1    0    0  501  503 -0.00000000000E+00 -0.00000000000E+00 -0.20212556920E+04  0.20212556920E+04  0.00000000000E+00 0.  1.
          6    1    1    2  501    0 -0.87091378203E+01  0.17705501312E+03 -0.13131721452E+04  0.13363287057E+04  0.17300000000E+03 0.  1.
         -6    1    1    2    0  502  0.87091378203E+01 -0.17705501312E+03 -0.67448342066E+03  0.71852711257E+03  0.17300000000E+03 0.  1.
</event>
<event>
 4    1  0.6020852E+000  0.1000000E+03  0.7546771E-02  0.1280296E+00
         21   -1    0    0  503  502  0.00000000000E+00  0.00000000000E+00  0.35659342615E+03  0.35659342615E+03  0.00000000000E+00 0.  1.
         21   -1    0    0  501  503 -0.00000000000E+00 -0.00000000000E+00 -0.21414650458E+03  0.21414650458E+03  0.00000000000E+00 0.  1.
          6    1    1    2  501    0  0.11379057052E+03 -0.13879982568E+03 -0.51923671062E+02  0.25463454826E+03  0.17300000000E+03 0.  1.
         -6    1    1    2    0  502 -0.11379057052E+03  0.13879982568E+03  0.19437059264E+03  0.31610538248E+03  0.17300000000E+03 0.  1.
</event>
<event>
 4    1  0.6020852E+000  0.1000000E+03  0.7546771E-02  0.1280296E+00
         21   -1    0    0  503  502  0.00000000000E+00  0.00000000000E+00  0.34272975992E+03  0.34272975992E+03  0.00000000000E+00 0.  1.
         21   -1    0    0  501  503 -0.00000000000E+00 -0.00000000000E+00 -0.12540458567E+03  0.12540458567E+03  0.00000000000E+00 0.  1.
          6    1    1    2  501    0 -0.26941830260E+02  0.42867882562E+02 -0.69595796825E+01  0.18039111209E+03  0.17300000000E+03 0.  1.
         -6    1    1    2    0  502  0.26941830260E+02 -0.42867882562E+02  0.22428475393E+03  0.28774323349E+03  0.17300000000E+03 0.  1.
</event>
<event>
 4    1  0.6020852E+000  0.1000000E+03  0.7546771E-02  0.1280296E+00
         21   -1    0    0  501  502  0.00000000000E+00  0.00000000000E+00  0.15693544528E+03  0.15693544528E+03  0.00000000000E+00 0. -1.
         21   -1    0    0  502  503 -0.00000000000E+00 -0.00000000000E+00 -0.33666217437E+03  0.33666217437E+03  0.00000000000E+00 0. -1.
          6    1    1    2  501    0 -0.74940424652E+02 -0.30005418740E+01  0.51279597821E+02  0.19540641661E+03  0.17300000000E+03 0. -1.
         -6    1    1    2    0  503  0.74940424652E+02  0.30005418740E+01 -0.23100632691E+03  0.29819120304E+03  0.17300000000E+03 0. -1.
</event>
<event>
 4    1  0.6020852E+000  0.1000000E+03  0.7546771E-02  0.1280296E+00
         21   -1    0    0  501  502  0.00000000000E+00  0.00000000000E+00  0.69472456293E+03  0.69472456293E+03  0.00000000000E+00 0.  1.
         21   -1    0    0  502  503 -0.00000000000E+00 -0.00000000000E+00 -0.70894403871E+02  0.70894403871E+02  0.00000000000E+00 0. -1.
          6    1    1    2  501    0  0.21175175409E+02  0.76628804339E+02  0.50860745381E+03  0.54307541261E+03  0.17300000000E+03 0.  1.
         -6    1    1    2    0  503 -0.21175175409E+02 -0.76628804339E+02  0.11522270525E+03  0.22254355419E+03  0.17300000000E+03 0. -1.
</event>
<event>
 4    1  0.6020852E+000  0.1000000E+03  0.7546771E-02  0.1280296E+00
         21   -1    0    0  501  502  0.00000000000E+00  0.00000000000E+00  0.21601427510E+03  0.21601427510E+03  0.00000000000E+00 0.  1.
         21   -1    0    0  502  503 -0.00000000000E+00 -0.00000000000E+00 -0.26760313165E+03  0.26760313165E+03  0.00000000000E+00 0. -1.
          6    1    1    2  501    0 -0.55919830678E+02 -0.93410855345E+02  0.10151984479E+03  0.22822772453E+03  0.17300000000E+03 0.  1.
         -6    1    1    2    0  503  0.55919830678E+02  0.93410855345E+02 -0.15310870134E+03  0.25538968222E+03  0.17300000000E+03 0. -1.
</event>
<event>
 4    1  0.6020852E+000  0.1000000E+03  0.7546771E-02  0.1280296E+00
         21   -1    0    0  501  502  0.00000000000E+00  0.00000000000E+00  0.28971854708E+02  0.28971854708E+02  0.00000000000E+00 0.  1.
         21   -1    0    0  502  503 -0.00000000000E+00 -0.00000000000E+00 -0.17884547389E+04  0.17884547389E+04  0.00000000000E+00 0. -1.
          6    1    1    2  501    0 -0.13940747610E+03 -0.36551610892E+02 -0.10130666869E+04  0.10377878283E+04  0.17300000000E+03 0.  1.
         -6    1    1    2    0  503  0.13940747610E+03  0.36551610892E+02 -0.74641619738E+03  0.77963876531E+03  0.17300000000E+03 0. -1.
</event>
<event>
 4    1  0.6020852E+000  0.1000000E+03  0.7546771E-02  0.1280296E+00
         21   -1    0    0  503  502  0.00000000000E+00  0.00000000000E+00  0.47573196944E+03  0.47573196944E+03  0.00000000000E+00 0. -1.
         21   -1    0    0  501  503 -0.00000000000E+00 -0.00000000000E+00 -0.39226308766E+03  0.39226308766E+03  0.00000000000E+00 0. -1.
          6    1    1    2  501    0 -0.11671535149E+03  0.32443804992E+03 -0.15359447481E+03  0.41521414258E+03  0.17300000000E+03 0. -1.
         -6    1    1    2    0  502  0.11671535149E+03 -0.32443804992E+03  0.23706335660E+03  0.45278091452E+03  0.17300000000E+03 0. -1.
</event>
<event>
 4    1  0.6020852E+000  0.1000000E+03  0.7546771E-02  0.1280296E+00
         21   -1    0    0  503  502  0.00000000000E+00  0.00000000000E+00  0.10866219416E+03  0.10866219416E+03  0.00000000000E+00 0. -1.
         21   -1    0    0  501  503 -0.00000000000E+00 -0.00000000000E+00 -0.37621829578E+03  0.37621829578E+03  0.00000000000E+00 0. -1.
          6    1    1    2  501    0 -0.25584945908E+02  0.23376716890E+02 -0.25218091250E+03  0.30777471141E+03  0.17300000000E+03 0. -1.
         -6    1    1    2    0  502  0.25584945908E+02 -0.23376716890E+02 -0.15375189126E+02  0.17710577853E+03  0.17300000000E+03 0. -1.
</event>
<event>
 4    1  0.6020852E+000  0.1000000E+03  0.7546771E-02  0.1280296E+00
         21   -1    0    0  503  502  0.00000000000E+00  0.00000000000E+00  0.23365675687E+03  0.23365675687E+03  0.00000000000E+00 0. -1.
         21   -1    0    0  501  503 -0.00000000000E+00 -0.00000000000E+00 -0.40352463383E+03  0.40352463383E+03  0.00000000000E+00 0. -1.
          6    1    1    2  501    0 -0.10383446695E+03  0.84600781036E+02 -0.30847320720E+03  0.37818462190E+03  0.17300000000E+03 0. -1.
         -6    1    1    2    0  502  0.10383446695E+03 -0.84600781036E+02  0.13860533024E+03  0.25899676880E+03  0.17300000000E+03 0. -1.
</event>
<event>
 4    1  0.6020852E+000  0.1000000E+03  0.7546771E-02  0.1280296E+00
         21   -1    0    0  503  502  0.00000000000E+00  0.00000000000E+00  0.35292624831E+03  0.35292624831E+03  0.00000000000E+00 0.  1.
         21   -1    0    0  501  503 -0.00000000000E+00 -0.00000000000E+00 -0.20925427168E+03  0.20925427168E+03  0.00000000000E+00 0.  1.
          6    1    1    2  501    0  0.38208701179E+00  0.78458702021E+02 -0.12917486610E+03  0.22971952452E+03  0.17300000000E+03 0.  1.
         -6    1    1    2    0  502 -0.38208701179E+00 -0.78458702021E+02  0.27284684274E+03  0.33246099546E+03  0.17300000000E+03 0.  1.
</event>
<event>
 4    1  0.6020852E+000  0.1000000E+03  0.7546771E-02  0.1280296E+00
         21   -1    0    0  501  502  0.00000000000E+00  0.00000000000E+00  0.13332246713E+03  0.13332246713E+03  0.00000000000E+00 0. -1.
         21   -1    0    0  502  503 -0.00000000000E+00 -0.00000000000E+00 -0.11610458829E+04  0.11610458829E+04  0.00000000000E+00 0.  1.
          6    1    1    2  501    0 -0.12384996537E+03 -0.19245512285E+03 -0.70987150417E+02  0.29554350569E+03  0.17300000000E+03 0. -1.
         -6    1    1    2    0  503  0.12384996537E+03  0.19245512285E+03 -0.95673626535E+03  0.99882484434E+03  0.17300000000E+03 0.  1.
</event>
<event>
 4    1  0.6020852E+000  0.1000000E+03  0.7546771E-02  0.1280296E+00
         21   -1    0    0  503  502  0.00000000000E+00  0.00000000000E+00  0.79622845471E+02  0.79622845471E+02  0.00000000000E+00 0. -1.
         21   -1    0    0  501  503 -0.00000000000E+00 -0.00000000000E+00 -0.96076323354E+03  0.96076323354E+03  0.00000000000E+00 0. -1.
          6    1    1    2  501    0 -0.51915027045E+02 -0.29125300106E+01 -0.83448451039E+03  0.85381324126E+03  0.17300000000E+03 0. -1.
         -6    1    1    2    0  502  0.51915027045E+02  0.29125300106E+01 -0.46655877674E+02  0.18657283775E+03  0.17300000000E+03 0. -1.
</event>
<event>
 4    1  0.6020852E+000  0.1000000E+03  0.7546771E-02  0.1280296E+00
         21   -1    0    0  501  502  0.00000000000E+00  0.00000000000E+00  0.35875542074E+02  0.35875542074E+02  0.00000000000E+00 0.  1.
         21   -1    0    0  502  503 -0.00000000000E+00 -0.00000000000E+00 -0.93534927854E+03  0.93534927854E+03  0.00000000000E+00 0.  1.
          6    1    1    2  501    0  0.35350987962E+02  0.48108089928E+02 -0.47079187715E+03  0.50511194033E+03  0.17300000000E+03 0.  1.
         -6    1    1    2    0  503 -0.35350987962E+02 -0.48108089928E+02 -0.42868185931E+03  0.46611288028E+03  0.17300000000E+03 0.  1.
</event>
<event>
 4    1  0.6020852E+000  0.1000000E+03  0.7546771E-02  0.1280296E+00
         21   -1    0    0  501  502  0.00000000000E+00  0.00000000000E+00  0.28550212547E+03  0.28550212547E+03  0.00000000000E+00 0.  1.
         21   -1    0    0  502  503 -0.00000000000E+00 -0.00000000000E+00 -0.36669611821E+03  0.36669611821E+03  0.00000000000E+00 0.  1.
          6    1    1    2  501    0  0.14454456486E+03  0.16908917799E+02  0.19270115847E+03  0.29705517872E+03  0.17300000000E+03 0.  1.
         -6    1    1    2    0  503 -0.14454456486E+03 -0.16908917799E+02 -0.27389515121E+03  0.35514306496E+03  0.17300000000E+03 0.  1.
</event>
<event>
 4    1  0.6020852E+000  0.1000000E+03  0.7546771E-02  0.1280296E+00
         21   -1    0    0  503  502  0.00000000000E+00  0.00000000000E+00  0.68623126893E+03  0.68623126893E+03  0.00000000000E+00 0. -1.
         21   -1    0    0  501  503 -0.00000000000E+00 -0.00000000000E+00 -0.91005611027E+02  0.91005611027E+02  0.00000000000E+00 0.  1.
          6    1    1    2  501    0 -0.47731260745E+02 -0.31528215790E+02  0.31654258011E+02  0.18494132500E+03  0.17300000000E+03 0.  1.
         -6    1    1    2    0  502  0.47731260745E+02  0.31528215790E+02  0.56357139989E+03  0.59229555495E+03  0.17300000000E+03 0.  1.
</event>
<event>
 4    1  0.6020852E+000  0.1000000E+03  0.7546771E-02  0.1280296E+00
         21   -1    0    0  501  502  0.00000000000E+00  0.00000000000E+00  0.49516872745E+03  0.49516872745E+03  0.00000000000E+00 0. -1.
         21   -1    0    0  502  503 -0.00000000000E+00 -0.00000000000E+00 -0.17286847555E+03  0.17286847555E+03  0.00000000000E+00 0. -1.
          6    1    1    2  501    0 -0.95998840087E+01 -0.49420382610E+02  0.42431544797E+03  0.46098495786E+03  0.17300000000E+03 0. -1.
         -6    1    1    2    0  503  0.95998840087E+01  0.49420382610E+02 -0.10201519606E+03  0.20705224514E+03  0.17300000000E+03 0. -1.
</event>
<event>
 4    1  0.6020852E+000  0.1000000E+03  0.7546771E-02  0.1280296E+00
         21   -1    0    0  501  502  0.00000000000E+00  0.00000000000E+00  0.68989918497E+03  0.68989918497E+03  0.00000000000E+00 0. -1.
         21   -1    0    0  502  503 -0.00000000000E+00 -0.00000000000E+00 -0.13781941606E+03  0.13781941606E+03  0.00000000000E+00 0. -1.
          6    1    1    2  501    0  0.16954833030E+03 -0.12157990811E+03  0.47340693433E+03  0.54550108693E+03  0.17300000000E+03 0. -1.
         -6    1    1    2    0  503 -0.16954833030E+03  0.12157990811E+03  0.78672834574E+02  0.28221751410E+03  0.17300000000E+03 0. -1.
</event>
<event>
 4    1  0.6020852E+000  0.1000000E+03  0.7546771E-02  0.1280296E+00
         21   -1    0    0  501  502  0.00000000000E+00  0.00000000000E+00  0.18787757320E+04  0.18787757320E+04  0.00000000000E+00 0. -1.
         21   -1    0    0  502  503 -0.00000000000E+00 -0.00000000000E+00 -0.43388192728E+02  0.43388192728E+02  0.00000000000E+00 0. -1.
          6    1    1    2  501    0  0.10950398643E+02 -0.87802169233E+02  0.16218493794E+04  0.16334483590E+04  0.17300000000E+03 0. -1.
         -6    1    1    2    0  503 -0.10950398643E+02  0.87802169233E+02  0.21353815985E+03  0.28871556568E+03  0.17300000000E+03 0. -1.
</event>
<event>
 4    1  0.6020852E+000  0.1000000E+03  0.7546771E-02  0.1280296E+00
         21   -1    0    0  501  502  0.00000000000E+00  0.00000000000E+00  0.46196157217E+03  0.46196157217E+03  0.00000000000E+00 0. -1.
         21   -1    0    0  502  503 -0.00000000000E+00 -0.00000000000E+00 -0.70778284311E+03  0.70778284311E+03  0.00000000000E+00 0. -1.
          6    1    1    2  501    0 -0.18410939866E+03  0.61876852677E+01  0.40174280602E+03  0.47461651922E+03  0.17300000000E+03 0.  1.
         -6    1    1    2    0  503  0.18410939866E+03 -0.61876852677E+01 -0.64756407695E+03  0.69512789606E+03  0.17300000000E+03 0.  1.
</event>
<event>
 4    1  0.6020852E+000  0.1000000E+03  0.7546771E-02  0.1280296E+00
         21   -1    0    0  503  502  0.00000000000E+00  0.00000000000E+00  0.10547851752E+04  0.10547851752E+04  0.00000000000E+00 0.  1.
         21   -1    0    0  501  503 -0.00000000000E+00 -0.00000000000E+00 -0.39888505544E+03  0.39888505544E+03  0.00000000000E+00 0.  1.
          6    1    1    2  501    0 -0.57520332719E+02  0.13760463967E+02 -0.36941467841E+03  0.41218217292E+03  0.17300000000E+03 0.  1.
         -6    1    1    2    0  502  0.57520332719E+02 -0.13760463967E+02  0.10253147982E+04  0.10414880578E+04  0.17300000000E+03 0.  1.
</event>
<event>
 4    1  0.6020852E+000  0.1000000E+03  0.7546771E-02  0.1280296E+00
         21   -1    0    0  503  502  0.00000000000E+00  0.00000000000E+00  0.38927760193E+03  0.38927760193E+03  0.00000000000E+00 0.  1.
         21   -1    0    0  501  503 -0.00000000000E+00 -0.00000000000E+00 -0.39676535592E+03  0.39676535592E+03  0.00000000000E+00 0.  1.
          6    1    1    2  501    0  0.29967220845E+03  0.18219588833E+03  0.35297515807E+02  0.39264957515E+03  0.17300000000E+03 0.  1.
         -6    1    1    2    0  502 -0.29967220845E+03 -0.18219588833E+03 -0.42785269800E+02  0.39339338270E+03  0.17300000000E+03 0.  1.
</event>
<event>
 4    1  0.6020852E+000  0.1000000E+03  0.7546771E-02  0.1280296E+00
         21   -1    0    0  503  502  0.00000000000E+00  0.00000000000E+00  0.11187655207E+03  0.11187655207E+03  0.00000000000E+00 0.  1.
         21   -1    0    0  501  503 -0.00000000000E+00 -0.00000000000E+00 -0.17685213201E+04  0.17685213201E+04  0.00000000000E+00 0.  1.
          6    1    1    2  501    0  0.89263532263E+01  0.41872502198E+02 -0.16897566584E+04  0.16991290566E+04  0.17300000000E+03 0.  1.
         -6    1    1    2    0  502 -0.89263532263E+01 -0.41872502198E+02  0.33111890395E+02  0.18126881560E+03  0.17300000000E+03 0.  1.
</event>
<event>
 4    1  0.6020852E+000  0.1000000E+03  0.7546771E-02  0.1280296E+00
         21   -1    0    0  501  502  0.00000000000E+00  0.00000000000E+00  0.45767959389E+03  0.45767959389E+03  0.00000000000E+00 0.  1.
         21   -1    0    0  502  503 -0.00000000000E+00 -0.00000000000E+00 -0.71272181471E+02  0.71272181471E+02  0.00000000000E+00 0.  1.
          6    1    1    2  501    0  0.48422413590E+02 -0.18573250454E+02  0.19475847271E+03  0.26561166853E+03  0.17300000000E+03 0.  1.
         -6    1    1    2    0  503 -0.48422413590E+02  0.18573250454E+02  0.19164893971E+03  0.26334010683E+03  0.17300000000E+03 0.  1.
</event>
<event>
 4    1  0.6020852E+000  0.1000000E+03  0.7546771E-02  0.1280296E+00
         21   -1    0    0  501  502  0.00000000000E+00  0.00000000000E+00  0.43235407356E+03  0.43235407356E+03  0.00000000000E+00 0.  1.
         21   -1    0    0  502  503 -0.00000000000E+00 -0.00000000000E+00 -0.12652130922E+03  0.12652130922E+03  0.00000000000E+00 0.  1.
          6    1    1    2  501    0  0.71994307551E+02 -0.20680900324E+02  0.31830483542E+03  0.36994303374E+03  0.17300000000E+03 0.  1.
         -6    1    1    2    0  503 -0.71994307551E+02  0.20680900324E+02 -0.12472071087E+02  0.18893234904E+03  0.17300000000E+03 0.  1.
</event>
<event>
 4    1  0.6020852E+000  0.1000000E+03  0.7546771E-02  0.1280296E+00
         21   -1    0    0  501  502  0.00000000000E+00  0.00000000000E+00  0.48790946537E+03  0.48790946537E+03  0.00000000000E+00 0.  1.
         21   -1    0    0  502  503 -0.00000000000E+00 -0.00000000000E+00 -0.13499344487E+03  0.13499344487E+03  0.00000000000E+00 0.  1.
          6    1    1    2  501    0 -0.37598076414E+02 -0.15564910761E+03  0.29959380452E+03  0.38121609063E+03  0.17300000000E+03 0.  1.
         -6    1    1    2    0  503  0.37598076414E+02  0.15564910761E+03  0.53322215976E+02  0.24168681960E+03  0.17300000000E+03 0.  1.
</event>
<event>
 4    1  0.6020852E+000  0.1000000E+03  0.7546771E-02  0.1280296E+00
         21   -1    0    0  503  502  0.00000000000E+00  0.00000000000E+00  0.19034034011E+03  0.19034034011E+03  0.00000000000E+00 0.  1.
         21   -1    0    0  501  503 -0.00000000000E+00 -0.00000000000E+00 -0.42541495364E+03  0.42541495364E+03  0.00000000000E+00 0.  1.
          6    1    1    2  501    0  0.14315544846E+03 -0.11688900047E+03 -0.25814103508E+03  0.36155541048E+03  0.17300000000E+03 0.  1.
         -6    1    1    2    0  502 -0.14315544846E+03  0.11688900047E+03  0.23066421551E+02  0.25419988328E+03  0.17300000000E+03 0.  1.
</event>
<event>
 4    1  0.6020852E+000  0.1000000E+03  0.7546771E-02  0.1280296E+00
         21   -1    0    0  503  502  0.00000000000E+00  0.00000000000E+00  0.99692998187E+02  0.99692998187E+02  0.00000000000E+00 0.  1.
         21   -1    0    0  501  503 -0.00000000000E+00 -0.00000000000E+00 -0.96429762468E+03  0.96429762468E+03  0.00000000000E+00 0.  1.
          6    1    1    2  501    0 -0.40787978912E+02 -0.15804932982E+03 -0.77357862606E+03  0.80931831845E+03  0.17300000000E+03 0.  1.
         -6    1    1    2    0  502  0.40787978912E+02  0.15804932982E+03 -0.91026000429E+02  0.25467230441E+03  0.17300000000E+03 0.  1.
</event>
<event>
 4    1  0.6020852E+000  0.1000000E+03  0.7546771E-02  0.1280296E+00
         21   -1    0    0  503  502  0.00000000000E+00  0.00000000000E+00  0.79882552358E+02  0.79882552358E+02  0.00000000000E+00 0.  1.
         21   -1    0    0  501  503 -0.00000000000E+00 -0.00000000000E+00 -0.74410099658E+03  0.74410099658E+03  0.00000000000E+00 0.  1.
          6    1    1    2  501    0  0.12927259646E+03  0.83114887681E+02 -0.46182275995E+03  0.51655469251E+03  0.17300000000E+03 0.  1.
         -6    1    1    2    0  502 -0.12927259646E+03 -0.83114887681E+02 -0.20239568428E+03  0.30742885643E+03  0.17300000000E+03 0.  1.
</event>
<event>
 4    1  0.6020852E+000  0.1000000E+03  0.7546771E-02  0.1280296E+00
         21   -1    0    0  501  502  0.00000000000E+00  0.00000000000E+00  0.59808118470E+03  0.59808118470E+03  0.00000000000E+00 0. -1.
         21   -1    0    0  502  503 -0.00000000000E+00 -0.00000000000E+00 -0.96688096641E+02  0.96688096641E+02  0.00000000000E+00 0. -1.
          6    1    1    2  501    0  0.47648395185E+01  0.10010921373E+03  0.44371953531E+03  0.48668324852E+03  0.17300000000E+03 0. -1.
         -6    1    1    2    0  503 -0.47648395185E+01 -0.10010921373E+03  0.57673552748E+02  0.20808603282E+03  0.17300000000E+03 0. -1.
</event>
<event>
 4    1  0.6020852E+000  0.1000000E+03  0.7546771E-02  0.1280296E+00
         21   -1    0    0  501  502  0.00000000000E+00  0.00000000000E+00  0.77951355557E+03  0.77951355557E+03  0.00000000000E+00 0. -1.
         21   -1    0    0  502  503 -0.00000000000E+00 -0.00000000000E+00 -0.13140246886E+03  0.13140246886E+03  0.00000000000E+00 0. -1.
          6    1    1    2  501    0 -0.11355161144E+03 -0.11218982039E+02  0.67113148083E+03  0.70240038339E+03  0.17300000000E+03 0. -1.
         -6    1    1    2    0  503  0.11355161144E+03  0.11218982039E+02 -0.23020394124E+02  0.20851564105E+03  0.17300000000E+03 0. -1.
</event>
<event>
 4    1  0.6020852E+000  0.1000000E+03  0.7546771E-02  0.1280296E+00
         21   -1    0    0  501  502  0.00000000000E+00  0.00000000000E+00  0.27233470397E+03  0.27233470397E+03  0.00000000000E+00 0. -1.
         21   -1    0    0  502  503 -0.00000000000E+00 -0.00000000000E+00 -0.38640730214E+03  0.38640730214E+03  0.00000000000E+00 0. -1.
          6    1    1    2  501    0 -0.15179808534E+03  0.13105790180E+03  0.13314487617E+03  0.29643783562E+03  0.17300000000E+03 0. -1.
         -6    1    1    2    0  503  0.15179808534E+03 -0.13105790180E+03 -0.24721747434E+03  0.36230417049E+03  0.17300000000E+03 0. -1.
</event>
<event>
 4    1  0.6020852E+000  0.1000000E+03  0.7546771E-02  0.1280296E+00
         21   -1    0    0  501  502  0.00000000000E+00  0.00000000000E+00  0.82975280424E+02  0.82975280424E+02  0.00000000000E+00 0. -1.
         21   -1    0    0  502  503 -0.00000000000E+00 -0.00000000000E+00 -0.12213654440E+04  0.12213654440E+04  0.00000000000E+00 0. -1.
          6    1    1    2  501    0  0.21966371167E+03 -0.78452840604E+01 -0.25782702398E+03  0.38041749302E+03  0.17300000000E+03 0. -1.
         -6    1    1    2    0  503 -0.21966371167E+03  0.78452840604E+01 -0.88056313963E+03  0.92392323143E+03  0.17300000000E+03 0. -1.
</event>
<event>
 4    1  0.6020852E+000  0.1000000E+03  0.7546771E-02  0.1280296E+00
         21   -1    0    0  503  502  0.00000000000E+00  0.00000000000E+00  0.61536931748E+03  0.61536931748E+03  0.00000000000E+00 0.  1.
         21   -1    0    0  501  503 -0.00000000000E+00 -0.00000000000E+00 -0.36317206797E+03  0.36317206797E+03  0.00000000000E+00 0. -1.
          6    1    1    2  501    0 -0.13589580554E+03 -0.41799811434E+03  0.14589469519E+03  0.49437268901E+03  0.17300000000E+03 0. -1.
         -6    1    1    2    0  502  0.13589580554E+03  0.41799811434E+03  0.10630255432E+03  0.48416869644E+03  0.17300000000E+03 0.  1.
</event>
<event>
 4    1  0.6020852E+000  0.1000000E+03  0.7546771E-02  0.1280296E+00
         21   -1    0    0  501  502  0.00000000000E+00  0.00000000000E+00  0.19088607683E+03  0.19088607683E+03  0.00000000000E+00 0.  1.
         21   -1    0    0  502  503 -0.00000000000E+00 -0.00000000000E+00 -0.45505779160E+03  0.45505779160E+03  0.00000000000E+00 0.  1.
          6    1    1    2  501    0  0.16614133119E+03 -0.10841386685E+03  0.13204774083E+02  0.26355241321E+03  0.17300000000E+03 0.  1.
         -6    1    1    2    0  503 -0.16614133119E+03  0.10841386685E+03 -0.27737648886E+03  0.38239145522E+03  0.17300000000E+03 0.  1.
</event>
<event>
 4    1  0.6020852E+000  0.1000000E+03  0.7546771E-02  0.1280296E+00
         21   -1    0    0  501  502  0.00000000000E+00  0.00000000000E+00  0.27411304399E+03  0.27411304399E+03  0.00000000000E+00 0.  1.
         21   -1    0    0  502  503 -0.00000000000E+00 -0.00000000000E+00 -0.18080272858E+03  0.18080272858E+03  0.00000000000E+00 0.  1.
          6    1    1    2  501    0  0.92371722651E+02  0.98810939618E+02  0.83990045174E+02  0.23511585362E+03  0.17300000000E+03 0.  1.
         -6    1    1    2    0  503 -0.92371722651E+02 -0.98810939618E+02  0.93202702330E+01  0.21979991895E+03  0.17300000000E+03 0.  1.
</event>
<event>
 4    1  0.6020852E+000  0.1000000E+03  0.7546771E-02  0.1280296E+00
         21   -1    0    0  501  502  0.00000000000E+00  0.00000000000E+00  0.29562255437E+02  0.29562255437E+02  0.00000000000E+00 0. -1.
         21   -1    0    0  502  503 -0.00000000000E+00 -0.00000000000E+00 -0.22445860316E+04  0.22445860316E+04  0.00000000000E+00 0.  1.
          6    1    1    2  501    0 -0.56395355793E+02  0.10699309490E+03 -0.45579216243E+03  0.50229817225E+03  0.17300000000E+03 0.  1.
         -6    1    1    2    0  503  0.56395355793E+02 -0.10699309490E+03 -0.17592316137E+04  0.17718501148E+04  0.17300000000E+03 0. -1.
</event>
<event>
 4    1  0.6020852E+000  0.1000000E+03  0.7546771E-02  0.1280296E+00
         21   -1    0    0  501  502  0.00000000000E+00  0.00000000000E+00  0.19575130699E+03  0.19575130699E+03  0.00000000000E+00 0. -1.
         21   -1    0    0  502  503 -0.00000000000E+00 -0.00000000000E+00 -0.20732056140E+03  0.20732056140E+03  0.00000000000E+00 0.  1.
          6    1    1    2  501    0 -0.39725561658E+02 -0.72914303470E+02  0.55556671190E+02  0.19977527278E+03  0.17300000000E+03 0.  1.
         -6    1    1    2    0  503  0.39725561658E+02  0.72914303470E+02 -0.67125925597E+02  0.20329659561E+03  0.17300000000E+03 0. -1.
</event>
<event>
 4    1  0.6020852E+000  0.1000000E+03  0.7546771E-02  0.1280296E+00
         21   -1    0    0  501  502  0.00000000000E+00  0.00000000000E+00  0.17143555908E+03  0.17143555908E+03  0.00000000000E+00 0. -1.
         21   -1    0    0  502  503 -0.00000000000E+00 -0.00000000000E+00 -0.33596991578E+03  0.33596991578E+03  0.00000000000E+00 0. -1.
          6    1    1    2  501    0  0.16264235384E+03  0.47655630700E+00 -0.11912155914E+03  0.26565336102E+03  0.17300000000E+03 0. -1.
         -6    1    1    2    0  503 -0.16264235384E+03 -0.47655630700E+00 -0.45412797557E+02  0.24175211385E+03  0.17300000000E+03 0. -1.
</event>
<event>
 4    1  0.6020852E+000  0.1000000E+03  0.7546771E-02  0.1280296E+00
         21   -1    0    0  503  502  0.00000000000E+00  0.00000000000E+00  0.16891280542E+04  0.16891280542E+04  0.00000000000E+00 0. -1.
         21   -1    0    0  501  503 -0.00000000000E+00 -0.00000000000E+00 -0.75043700910E+02  0.75043700910E+02  0.00000000000E+00 0. -1.
          6    1    1    2  501    0  0.78465263453E+02 -0.13358958848E+03  0.13844118852E+03  0.27036630411E+03  0.17300000000E+03 0. -1.
         -6    1    1    2    0  502 -0.78465263453E+02  0.13358958848E+03  0.14756431648E+04  0.14938054510E+04  0.17300000000E+03 0. -1.
</event>
