<event>
 4    1  0.6017350E+000  0.1000000E+03  0.7546771E-02  0.1280296E+00
         21   -1    0    0  503  502  0.00000000000E+00  0.00000000000E+00  0.38325250766E+02  0.38325250766E+02  0.00000000000E+00 0. -1.
         21   -1    0    0  501  503 -0.00000000000E+00 -0.00000000000E+00 -0.92775627568E+03  0.92775627568E+03  0.00000000000E+00 0.  1.
          6    1    1    2  501    0  0.13436730445E+02 -0.69456143433E+02 -0.50864412209E+03  0.54189717154E+03  0.17300000000E+03 0.  1.
         -6    1    1    2    0  502 -0.13436730445E+02  0.69456143433E+02 -0.38078690283E+03  0.42418435491E+03  0.17300000000E+03 0. -1.
</event>
<event>
 4    1  0.6017350E+000  0.1000000E+03  0.7546771E-02  0.1280296E+00
         21   -1    0    0  503  502  0.00000000000E+00  0.00000000000E+00  0.56181412483E+03  0.56181412483E+03  0.00000000000E+00 0. -1.
         21   -1    0    0  501  503 -0.00000000000E+00 -0.00000000000E+00 -0.73441335606E+02  0.73441335606E+02  0.00000000000E+00 0.  1.
          6    1    1    2  501    0  0.11878249924E+02 -0.10245541273E+03  0.20301710898E+03  0.28597753576E+03  0.17300000000E+03 0.  1.
         -6    1    1    2    0  502 -0.11878249924E+02  0.10245541273E+03  0.28535568025E+03  0.34927792468E+03  0.17300000000E+03 0. -1.
</event>
<event>
 4    1  0.6017350E+000  0.1000000E+03  0.7546771E-02  0.1280296E+00
         21   -1    0    0  503  502  0.00000000000E+00  0.00000000000E+00  0.43579657574E+02  0.43579657574E+02  0.00000000000E+00 0. -1.
         21   -1    0    0  501  503 -0.00000000000E+00 -0.00000000000E+00 -0.10520020201E+04  0.10520020201E+04  0.00000000000E+00 0. -1.
          6    1    1    2  501    0 -0.11036305748E+03 -0.24739834716E+02 -0.64722478385E+03  0.67942695318E+03  0.17300000000E+03 0. -1.
         -6    1    1    2    0  502  0.11036305748E+03  0.24739834716E+02 -0.36119757867E+03  0.41615472449E+03  0.17300000000E+03 0. -1.
</event>
<event>
 4    1  0.6017350E+000  0.1000000E+03  0.7546771E-02  0.1280296E+00
         21   -1    0    0  501  502  0.00000000000E+00  0.00000000000E+00  0.51787430593E+02  0.51787430593E+02  0.00000000000E+00 0.  1.
         21   -1    0    0  502  503 -0.00000000000E+00 -0.00000000000E+00 -0.20850951060E+04  0.20850951060E+04  0.00000000000E+00 0. -1.
          6    1    1    2  501    0  0.12246994749E+03 -0.20867331099E+03 -0.56250715003E+03  0.63630710557E+03  0.17300000000E+03 0.  1.
         -6    1    1    2    0  503 -0.12246994749E+03  0.20867331099E+03 -0.14708005253E+04  0.15005754310E+04  0.17300000000E+03 0. -1.
</event>
<event>
 4    1  0.6017350E+000  0.1000000E+03  0.7546771E-02  0.1280296E+00
         21   -1    0    0  501  502  0.00000000000E+00  0.00000000000E+00  0.39883457405E+03  0.39883457405E+03  0.00000000000E+00 0.  1.
         21   -1    0    0  502  503 -0.00000000000E+00 -0.00000000000E+00 -0.49621244892E+03  0.49621244892E+03  0.00000000000E+00 0.  1.
          6    1    1    2  501    0  0.13266180962E+03  0.35049089343E+01  0.34139745437E+03  0.40508352468E+03  0.17300000000E+03 0.  1.
         -6    1    1    2    0  503 -0.13266180962E+03 -0.35049089343E+01 -0.43877532924E+03  0.48996349830E+03  0.17300000000E+03 0.  1.
</event>
<event>
 4    1  0.6017350E+000  0.1000000E+03  0.7546771E-02  0.1280296E+00
         21   -1    0    0  501  502  0.00000000000E+00  0.00000000000E+00  0.13833572592E+03  0.13833572592E+03  0.00000000000E+00 0.  1.
         21   -1    0    0  502  503 -0.00000000000E+00 -0.00000000000E+00 -0.27837253537E+03  0.27837253537E+03  0.00000000000E+00 0.  1.
          6    1    1    2  501    0  0.16819723513E+02  0.86924254772E+02 -0.41113525014E+02  0.19864050721E+03  0.17300000000E+03 0.  1.
         -6    1    1    2    0  503 -0.16819723513E+02 -0.86924254772E+02 -0.98923284428E+02  0.21806775408E+03  0.17300000000E+03 0.  1.
</event>
<event>
 4    1  0.6017350E+000  0.1000000E+03  0.7546771E-02  0.1280296E+00
         21   -1    0    0  503  502  0.00000000000E+00  0.00000000000E+00  0.12763347418E+04  0.12763347418E+04  0.00000000000E+00 0. -1.
         21   -1    0    0  501  503 -0.00000000000E+00 -0.00000000000E+00 -0.67837633355E+02  0.67837633355E+02  0.00000000000E+00 0. -1.
          6    1    1    2  501    0  0.11241605141E+03  0.17057837566E+03  0.32525490089E+03  0.42125301353E+03  0.17300000000E+03 0. -1.
         -6    1    1    2    0  502 -0.11241605141E+03 -0.17057837566E+03  0.88324220759E+03  0.92291936166E+03  0.17300000000E+03 0. -1.
</event>
<event>
 4    1  0.6017350E+000  0.1000000E+03  0.7546771E-02  0.1280296E+00
         21   -1    0    0  503  502  0.00000000000E+00  0.00000000000E+00  0.42250013553E+03  0.42250013553E+03  0.00000000000E+00 0. -1.
         21   -1    0    0  501  503 -0.00000000000E+00 -0.00000000000E+00 -0.80945694426E+02  0.80945694426E+02  0.00000000000E+00 0. -1.
          6    1    1    2  501    0  0.43395874678E+02 -0.48845498513E+02  0.16912005448E+03  0.25059863825E+03  0.17300000000E+03 0. -1.
         -6    1    1    2    0  502 -0.43395874678E+02  0.48845498513E+02  0.17243438662E+03  0.25284719170E+03  0.17300000000E+03 0. -1.
</event>
<event>
 4    1  0.6017350E+000  0.1000000E+03  0.7546771E-02  0.1280296E+00
         21   -1    0    0  503  502  0.00000000000E+00  0.00000000000E+00  0.17058509104E+04  0.17058509104E+04  0.00000000000E+00 0. -1.
         21   -1    0    0  501  503 -0.00000000000E+00 -0.00000000000E+00 -0.27544094065E+02  0.27544094065E+02  0.00000000000E+00 0. -1.
          6    1    1    2  501    0  0.85509864080E+01 -0.18182148716E+02  0.32317167817E+03  0.36711393800E+03  0.17300000000E+03 0. -1.
         -6    1    1    2    0  502 -0.85509864080E+01  0.18182148716E+02  0.13551351382E+04  0.13662810665E+04  0.17300000000E+03 0. -1.
</event>
<event>
 4    1  0.6017350E+000  0.1000000E+03  0.7546771E-02  0.1280296E+00
         21   -1    0    0  501  502  0.00000000000E+00  0.00000000000E+00  0.51889739130E+03  0.51889739130E+03  0.00000000000E+00 0.  1.
         21   -1    0    0  502  503 -0.00000000000E+00 -0.00000000000E+00 -0.96829154119E+02  0.96829154119E+02  0.00000000000E+00 0.  1.
          6    1    1    2  501    0  0.57245101506E+02 -0.96873558477E+02  0.33119294383E+03  0.39022974518E+03  0.17300000000E+03 0.  1.
         -6    1    1    2    0  503 -0.57245101506E+02  0.96873558477E+02  0.90875293352E+02  0.22549680024E+03  0.17300000000E+03 0.  1.
</event>
<event>
 4    1  0.6017350E+000  0.1000000E+03  0.7546771E-02  0.1280296E+00
         21   -1    0    0  501  502  0.00000000000E+00  0.00000000000E+00  0.46555596413E+02  0.46555596413E+02  0.00000000000E+00 0.  1.
         21   -1    0    0  502  503 -0.00000000000E+00 -0.00000000000E+00 -0.14966849412E+04  0.14966849412E+04  0.00000000000E+00 0.  1.
          6    1    1    2  501    0  0.12164838490E+03  0.90831863068E+02 -0.11028348455E+04  0.11265977336E+04  0.17300000000E+03 0.  1.
         -6    1    1    2    0  503 -0.12164838490E+03 -0.90831863068E+02 -0.34729449923E+03  0.41664280396E+03  0.17300000000E+03 0.  1.
</event>
<event>
 4    1  0.6017350E+000  0.1000000E+03  0.7546771E-02  0.1280296E+00
         21   -1    0    0  501  502  0.00000000000E+00  0.00000000000E+00  0.65955793350E+03  0.65955793350E+03  0.00000000000E+00 0.  1.
         21   -1    0    0  502  503 -0.00000000000E+00 -0.00000000000E+00 -0.10887761902E+03  0.10887761902E+03  0.00000000000E+00 0.  1.
          6    1    1    2  501    0  0.31131878213E+02  0.12064208384E+01  0.56534423087E+03  0.59204201597E+03  0.17300000000E+03 0.  1.
         -6    1    1    2    0  503 -0.31131878213E+02 -0.12064208384E+01 -0.14663916385E+02  0.17639353655E+03  0.17300000000E+03 0.  1.
</event>
<event>
 4    1  0.6017350E+000  0.1000000E+03  0.7546771E-02  0.1280296E+00
         21   -1    0    0  501  502  0.00000000000E+00  0.00000000000E+00  0.48066503765E+03  0.48066503765E+03  0.00000000000E+00 0.  1.
         21   -1    0    0  502  503 -0.00000000000E+00 -0.00000000000E+00 -0.31998706976E+03  0.31998706976E+03  0.00000000000E+00 0.  1.
          6    1    1    2  501    0 -0.74063437415E+02  0.33280511578E+03  0.16952008728E+03  0.41822326315E+03  0.17300000000E+03 0.  1.
         -6    1    1    2    0  503  0.74063437415E+02 -0.33280511578E+03 -0.88421193851E+01  0.38242884426E+03  0.17300000000E+03 0.  1.
</event>
<event>
 4    1  0.6017350E+000  0.1000000E+03  0.7546771E-02  0.1280296E+00
         21   -1    0    0  503  502  0.00000000000E+00  0.00000000000E+00  0.65526559158E+03  0.65526559158E+03  0.00000000000E+00 0. -1.
         21   -1    0    0  501  503 -0.00000000000E+00 -0.00000000000E+00 -0.10747566861E+03  0.10747566861E+03  0.00000000000E+00 0.  1.
          6    1    1    2  501    0 -0.23519955250E+02  0.10148479636E+03  0.26466248999E+02  0.20367084849E+03  0.17300000000E+03 0.  1.
         -6    1    1    2    0  502  0.23519955250E+02 -0.10148479636E+03  0.52132367397E+03  0.55907041170E+03  0.17300000000E+03 0.  1.
</event>
<event>
 4    1  0.6017350E+000  0.1000000E+03  0.7546771E-02  0.1280296E+00
         21   -1    0    0  501  502  0.00000000000E+00  0.00000000000E+00  0.27165439593E+03  0.27165439593E+03  0.00000000000E+00 0.  1.
         21   -1    0    0  502  503 -0.00000000000E+00 -0.00000000000E+00 -0.16861375465E+03  0.16861375465E+03  0.00000000000E+00 0.  1.
          6    1    1    2  501    0  0.12743923384E+02  0.49841200587E+01  0.18035179893E+03  0.25028587737E+03  0.17300000000E+03 0.  1.
         -6    1    1    2    0  503 -0.12743923384E+02 -0.49841200587E+01 -0.77311157650E+02  0.18998227321E+03  0.17300000000E+03 0.  1.
</event>
<event>
 4    1  0.6017350E+000  0.1000000E+03  0.7546771E-02  0.1280296E+00
         21   -1    0    0  501  502  0.00000000000E+00  0.00000000000E+00  0.60911915275E+02  0.60911915275E+02  0.00000000000E+00 0. -1.
         21   -1    0    0  502  503 -0.00000000000E+00 -0.00000000000E+00 -0.10375465524E+04  0.10375465524E+04  0.00000000000E+00 0.  1.
          6    1    1    2  501    0  0.12904745993E+03  0.48545483077E+02 -0.22742634958E+03  0.31727221014E+03  0.17300000000E+03 0. -1.
         -6    1    1    2    0  503 -0.12904745993E+03 -0.48545483077E+02 -0.74920828751E+03  0.78118625750E+03  0.17300000000E+03 0.  1.
</event>
<event>
 4    1  0.6017350E+000  0.1000000E+03  0.7546771E-02  0.1280296E+00
         21   -1    0    0  503  502  0.00000000000E+00  0.00000000000E+00  0.35601643556E+03  0.35601643556E+03  0.00000000000E+00 0.  1.
         21   -1    0    0  501  503 -0.00000000000E+00 -0.00000000000E+00 -0.25444887332E+03  0.25444887332E+03  0.00000000000E+00 0.  1.
          6    1    1    2  501    0  0.20258081869E+03  0.11271477634E+03 -0.33550369886E+02  0.29120136715E+03  0.17300000000E+03 0.  1.
         -6    1    1    2    0  502 -0.20258081869E+03 -0.11271477634E+03  0.13511793213E+03  0.31926394173E+03  0.17300000000E+03 0.  1.
</event>
<event>
 4    1  0.6017350E+000  0.1000000E+03  0.7546771E-02  0.1280296E+00
         21   -1    0    0  503  502  0.00000000000E+00  0.00000000000E+00  0.51181124042E+02  0.51181124042E+02  0.00000000000E+00 0.  1.
         21   -1    0    0  501  503 -0.00000000000E+00 -0.00000000000E+00 -0.88587387383E+03  0.88587387383E+03  0.00000000000E+00 0.  1.
          6    1    1    2  501    0  0.49526372299E+02  0.11321154799E+03 -0.44350242623E+03  0.49182630900E+03  0.17300000000E+03 0.  1.
         -6    1    1    2    0  502 -0.49526372299E+02 -0.11321154799E+03 -0.39119032356E+03  0.44522868888E+03  0.17300000000E+03 0.  1.
</event>
<event>
 4    1  0.6017350E+000  0.1000000E+03  0.7546771E-02  0.1280296E+00
         21   -1    0    0  503  502  0.00000000000E+00  0.00000000000E+00  0.29902429534E+03  0.29902429534E+03  0.00000000000E+00 0.  1.
         21   -1    0    0  501  503 -0.00000000000E+00 -0.00000000000E+00 -0.32443732928E+03  0.32443732928E+03  0.00000000000E+00 0.  1.
          6    1    1    2  501    0  0.42942802427E+01 -0.15974337604E+02 -0.27140173272E+03  0.32227553557E+03  0.17300000000E+03 0.  1.
         -6    1    1    2    0  502 -0.42942802427E+01  0.15974337604E+02  0.24598869878E+03  0.30118608904E+03  0.17300000000E+03 0.  1.
</event>
<event>
 4    1  0.6017350E+000  0.1000000E+03  0.7546771E-02  0.1280296E+00
         21   -1    0    0  501  502  0.00000000000E+00  0.00000000000E+00  0.22068447009E+04  0.22068447009E+04  0.00000000000E+00 0. -1.
         21   -1    0    0  502  503 -0.00000000000E+00 -0.00000000000E+00 -0.27762365220E+02  0.27762365220E+02  0.00000000000E+00 0.  1.
          6    1    1    2  501    0  0.16041569975E+03 -0.51784276882E+02  0.13336045917E+04  0.13553025548E+04  0.17300000000E+03 0. -1.
         -6    1    1    2    0  503 -0.16041569975E+03  0.51784276882E+02  0.84547774406E+03  0.87930451140E+03  0.17300000000E+03 0.  1.
</event>
<event>
 4    1  0.6017350E+000  0.1000000E+03  0.7546771E-02  0.1280296E+00
         21   -1    0    0  501  502  0.00000000000E+00  0.00000000000E+00  0.48664831306E+03  0.48664831306E+03  0.00000000000E+00 0. -1.
         21   -1    0    0  502  503 -0.00000000000E+00 -0.00000000000E+00 -0.12189534227E+03  0.12189534227E+03  0.00000000000E+00 0.  1.
          6    1    1    2  501    0 -0.43258585221E+02 -0.12282631418E+03  0.32167876374E+03  0.38776775999E+03  0.17300000000E+03 0. -1.
         -6    1    1    2    0  503  0.43258585221E+02  0.12282631418E+03  0.43074207050E+02  0.22077589534E+03  0.17300000000E+03 0.  1.
</event>
<event>
 4    1  0.6017350E+000  0.1000000E+03  0.7546771E-02  0.1280296E+00
         21   -1    0    0  503  502  0.00000000000E+00  0.00000000000E+00  0.14169413317E+03  0.14169413317E+03  0.00000000000E+00 0. -1.
         21   -1    0    0  501  503 -0.00000000000E+00 -0.00000000000E+00 -0.27579523616E+03  0.27579523616E+03  0.00000000000E+00 0. -1.
          6    1    1    2  501    0  0.78278622509E+02  0.29161573531E+02 -0.11625889077E+03  0.22455081784E+03  0.17300000000E+03 0. -1.
         -6    1    1    2    0  502 -0.78278622509E+02 -0.29161573531E+02 -0.17842212227E+02  0.19293855149E+03  0.17300000000E+03 0. -1.
</event>
<event>
 4    1  0.6017350E+000  0.1000000E+03  0.7546771E-02  0.1280296E+00
         21   -1    0    0  501  502  0.00000000000E+00  0.00000000000E+00  0.18081271660E+04  0.18081271660E+04  0.00000000000E+00 0.  1.
         21   -1    0    0  502  503 -0.00000000000E+00 -0.00000000000E+00 -0.29275589366E+02  0.29275589366E+02  0.00000000000E+00 0.  1.
          6    1    1    2  501    0 -0.19118088701E+02 -0.50295171135E+02  0.14556805006E+04  0.14669116624E+04  0.17300000000E+03 0.  1.
         -6    1    1    2    0  503  0.19118088701E+02  0.50295171135E+02  0.32317107601E+03  0.37049109291E+03  0.17300000000E+03 0.  1.
</event>
<event>
 4    1  0.6017350E+000  0.1000000E+03  0.7546771E-02  0.1280296E+00
         21   -1    0    0  503  502  0.00000000000E+00  0.00000000000E+00  0.89074306481E+02  0.89074306481E+02  0.00000000000E+00 0.  1.
         21   -1    0    0  501  503 -0.00000000000E+00 -0.00000000000E+00 -0.72054558706E+03  0.72054558706E+03  0.00000000000E+00 0.  1.
          6    1    1    2  501    0 -0.22254270224E+02  0.31482447239E+02 -0.60497712419E+03  0.63040678757E+03  0.17300000000E+03 0.  1.
         -6    1    1    2    0  502  0.22254270224E+02 -0.31482447239E+02 -0.26494156389E+02  0.17921310597E+03  0.17300000000E+03 0.  1.
</event>
<event>
 4    1  0.6017350E+000  0.1000000E+03  0.7546771E-02  0.1280296E+00
         21   -1    0    0  501  502  0.00000000000E+00  0.00000000000E+00  0.13906158718E+04  0.13906158718E+04  0.00000000000E+00 0.  1.
         21   -1    0    0  502  503 -0.00000000000E+00 -0.00000000000E+00 -0.11179329299E+03  0.11179329299E+03  0.00000000000E+00 0.  1.
          6    1    1    2  501    0 -0.19157761364E+02  0.17065231581E+03  0.12298574302E+04  0.12537812933E+04  0.17300000000E+03 0.  1.
         -6    1    1    2    0  503  0.19157761364E+02 -0.17065231581E+03  0.48965148573E+02  0.24862787150E+03  0.17300000000E+03 0.  1.
</event>
<event>
 4    1  0.6017350E+000  0.1000000E+03  0.7546771E-02  0.1280296E+00
         21   -1    0    0  503  502  0.00000000000E+00  0.00000000000E+00  0.43269950194E+03  0.43269950194E+03  0.00000000000E+00 0. -1.
         21   -1    0    0  501  503 -0.00000000000E+00 -0.00000000000E+00 -0.14177416169E+03  0.14177416169E+03  0.00000000000E+00 0. -1.
          6    1    1    2  501    0  0.10091139430E+03  0.14087486436E+03  0.10226030883E+03  0.26535826286E+03  0.17300000000E+03 0.  1.
         -6    1    1    2    0  502 -0.10091139430E+03 -0.14087486436E+03  0.18866503142E+03  0.30911540076E+03  0.17300000000E+03 0.  1.
</event>
<event>
 4    1  0.6017350E+000  0.1000000E+03  0.7546771E-02  0.1280296E+00
         21   -1    0    0  503  502  0.00000000000E+00  0.00000000000E+00  0.50139316406E+03  0.50139316406E+03  0.00000000000E+00 0. -1.
         21   -1    0    0  501  503 -0.00000000000E+00 -0.00000000000E+00 -0.18884861207E+03  0.18884861207E+03  0.00000000000E+00 0. -1.
          6    1    1    2  501    0 -0.93425752381E+02  0.41802654994E+02 -0.10503731052E+03  0.22679874288E+03  0.17300000000E+03 0.  1.
         -6    1    1    2    0  502  0.93425752381E+02 -0.41802654994E+02  0.41758186250E+03  0.46344303324E+03  0.17300000000E+03 0.  1.
</event>
<event>
 4    1  0.6017350E+000  0.1000000E+03  0.7546771E-02  0.1280296E+00
         21   -1    0    0  503  502  0.00000000000E+00  0.00000000000E+00  0.33231853687E+03  0.33231853687E+03  0.00000000000E+00 0. -1.
         21   -1    0    0  501  503 -0.00000000000E+00 -0.00000000000E+00 -0.15287773108E+03  0.15287773108E+03  0.00000000000E+00 0. -1.
          6    1    1    2  501    0 -0.13015200909E+03 -0.46109828645E+02  0.43936753281E+02  0.22566590362E+03  0.17300000000E+03 0.  1.
         -6    1    1    2    0  502  0.13015200909E+03  0.46109828645E+02  0.13550405251E+03  0.25953036434E+03  0.17300000000E+03 0.  1.
</event>
<event>
 4    1  0.6017350E+000  0.1000000E+03  0.7546771E-02  0.1280296E+00
         21   -1    0    0  503  502  0.00000000000E+00  0.00000000000E+00  0.76950321982E+02  0.76950321982E+02  0.00000000000E+00 0. -1.
         21   -1    0    0  501  503 -0.00000000000E+00 -0.00000000000E+00 -0.10305938771E+04  0.10305938771E+04  0.00000000000E+00 0.  1.
          6    1    1    2  501    0 -0.50488648502E+02  0.17369552354E+02 -0.90097618293E+03  0.91898742493E+03  0.17300000000E+03 0.  1.
         -6    1    1    2    0  502  0.50488648502E+02 -0.17369552354E+02 -0.52667372157E+02  0.18855677412E+03  0.17300000000E+03 0. -1.
</event>
<event>
 4    1  0.6017350E+000  0.1000000E+03  0.7546771E-02  0.1280296E+00
         21   -1    0    0  501  502  0.00000000000E+00  0.00000000000E+00  0.67801364380E+03  0.67801364380E+03  0.00000000000E+00 0.  1.
         21   -1    0    0  502  503 -0.00000000000E+00 -0.00000000000E+00 -0.12008529955E+03  0.12008529955E+03  0.00000000000E+00 0.  1.
          6    1    1    2  501    0  0.16991050061E+03  0.50443072001E+01  0.48918371209E+03  0.54600799209E+03  0.17300000000E+03 0.  1.
         -6    1    1    2    0  503 -0.16991050061E+03 -0.50443072001E+01  0.68744632157E+02  0.25209095125E+03  0.17300000000E+03 0.  1.
</event>
<event>
 4    1  0.6017350E+000  0.1000000E+03  0.7546771E-02  0.1280296E+00
         21   -1    0    0  501  502  0.00000000000E+00  0.00000000000E+00  0.21928337056E+03  0.21928337056E+03  0.00000000000E+00 0.  1.
         21   -1    0    0  502  503 -0.00000000000E+00 -0.00000000000E+00 -0.29136571872E+03  0.29136571872E+03  0.00000000000E+00 0.  1.
          6    1    1    2  501    0  0.66886908225E+01 -0.18254745304E+03 -0.11415391432E+02  0.25184841147E+03  0.17300000000E+03 0.  1.
         -6    1    1    2    0  503 -0.66886908225E+01  0.18254745304E+03 -0.60666956729E+02  0.25880067781E+03  0.17300000000E+03 0.  1.
</event>
<event>
 4    1  0.6017350E+000  0.1000000E+03  0.7546771E-02  0.1280296E+00
         21   -1    0    0  501  502  0.00000000000E+00  0.00000000000E+00  0.40312109568E+03  0.40312109568E+03  0.00000000000E+00 0.  1.
         21   -1    0    0  502  503 -0.00000000000E+00 -0.00000000000E+00 -0.35336110742E+03  0.35336110742E+03  0.00000000000E+00 0.  1.
          6    1    1    2  501    0  0.84407012971E+02  0.25058701339E+03  0.23172544951E+03  0.39184700978E+03  0.17300000000E+03 0.  1.
         -6    1    1    2    0  503 -0.84407012971E+02 -0.25058701339E+03 -0.18196546126E+03  0.36463519332E+03  0.17300000000E+03 0.  1.
</event>
<event>
 4    1  0.6017350E+000  0.1000000E+03  0.7546771E-02  0.1280296E+00
         21   -1    0    0  501  502  0.00000000000E+00  0.00000000000E+00  0.72844525618E+02  0.72844525618E+02  0.00000000000E+00 0.  1.
         21   -1    0    0  502  503 -0.00000000000E+00 -0.00000000000E+00 -0.60220426374E+03  0.60220426374E+03  0.00000000000E+00 0.  1.
          6    1    1    2  501    0 -0.72296664397E+02  0.48237451999E+02 -0.13591349309E+03  0.23654838208E+03  0.17300000000E+03 0.  1.
         -6    1    1    2    0  503  0.72296664397E+02 -0.48237451999E+02 -0.39344624503E+03  0.43850040728E+03  0.17300000000E+03 0.  1.
</event>
<event>
 4    1  0.6017350E+000  0.1000000E+03  0.7546771E-02  0.1280296E+00
         21   -1    0    0  501  502  0.00000000000E+00  0.00000000000E+00  0.31557550682E+03  0.31557550682E+03  0.00000000000E+00 0. -1.
         21   -1    0    0  502  503 -0.00000000000E+00 -0.00000000000E+00 -0.30890352350E+03  0.30890352350E+03  0.00000000000E+00 0. -1.
          6    1    1    2  501    0 -0.95430338884E+02 -0.42135724594E+02  0.24140633175E+03  0.31478307749E+03  0.17300000000E+03 0. -1.
         -6    1    1    2    0  503  0.95430338884E+02  0.42135724594E+02 -0.23473434843E+03  0.30969595283E+03  0.17300000000E+03 0. -1.
</event>
<event>
 4    1  0.6017350E+000  0.1000000E+03  0.7546771E-02  0.1280296E+00
         21   -1    0    0  501  502  0.00000000000E+00  0.00000000000E+00  0.18239400017E+04  0.18239400017E+04  0.00000000000E+00 0.  1.
         21   -1    0    0  502  503 -0.00000000000E+00 -0.00000000000E+00 -0.18394101989E+02  0.18394101989E+02  0.00000000000E+00 0. -1.
          6    1    1    2  501    0 -0.55872730138E+02 -0.13128014142E+02  0.99366438956E+03  0.10102435478E+04  0.17300000000E+03 0. -1.
         -6    1    1    2    0  503  0.55872730138E+02  0.13128014142E+02  0.81188151017E+03  0.83209055594E+03  0.17300000000E+03 0.  1.
</event>
<event>
 4    1  0.6017350E+000  0.1000000E+03  0.7546771E-02  0.1280296E+00
         21   -1    0    0  501  502  0.00000000000E+00  0.00000000000E+00  0.67855380054E+02  0.67855380054E+02  0.00000000000E+00 0.  1.
         21   -1    0    0  502  503 -0.00000000000E+00 -0.00000000000E+00 -0.54747876586E+03  0.54747876586E+03  0.00000000000E+00 0. -1.
          6    1    1    2  501    0  0.69852376601E+02  0.47324461091E+01 -0.16294806417E+03  0.24775556942E+03  0.17300000000E+03 0. -1.
         -6    1    1    2    0  503 -0.69852376601E+02 -0.47324461091E+01 -0.31667532164E+03  0.36757857650E+03  0.17300000000E+03 0.  1.
</event>
<event>
 4    1  0.6017350E+000  0.1000000E+03  0.7546771E-02  0.1280296E+00
         21   -1    0    0  503  502  0.00000000000E+00  0.00000000000E+00  0.12247156647E+04  0.12247156647E+04  0.00000000000E+00 0.  1.
         21   -1    0    0  501  503 -0.00000000000E+00 -0.00000000000E+00 -0.81916465356E+02  0.81916465356E+02  0.00000000000E+00 0.  1.
          6    1    1    2  501    0 -0.18538415669E+03 -0.18651458108E+03  0.49875528267E+03  0.58978030359E+03  0.17300000000E+03 0.  1.
         -6    1    1    2    0  502  0.18538415669E+03  0.18651458108E+03  0.64404391667E+03  0.71685182647E+03  0.17300000000E+03 0.  1.
</event>
<event>
 4    1  0.6017350E+000  0.1000000E+03  0.7546771E-02  0.1280296E+00
         21   -1    0    0  503  502  0.00000000000E+00  0.00000000000E+00  0.15441572128E+04  0.15441572128E+04  0.00000000000E+00 0.  1.
         21   -1    0    0  501  503 -0.00000000000E+00 -0.00000000000E+00 -0.28991329000E+02  0.28991329000E+02  0.00000000000E+00 0.  1.
          6    1    1    2  501    0  0.99453235502E+02  0.67933074395E+02  0.68981272125E+03  0.72130190562E+03  0.17300000000E+03 0.  1.
         -6    1    1    2    0  502 -0.99453235502E+02 -0.67933074395E+02  0.82535316260E+03  0.85184663623E+03  0.17300000000E+03 0.  1.
</event>
<event>
 4    1  0.6017350E+000  0.1000000E+03  0.7546771E-02  0.1280296E+00
         21   -1    0    0  501  502  0.00000000000E+00  0.00000000000E+00  0.56619134987E+02  0.56619134987E+02  0.00000000000E+00 0.  1.
         21   -1    0    0  502  503 -0.00000000000E+00 -0.00000000000E+00 -0.73464126819E+03  0.73464126819E+03  0.00000000000E+00 0.  1.
          6    1    1    2  501    0 -0.48199758122E+02  0.34602837781E+02 -0.16393752928E+03  0.24561165806E+03  0.17300000000E+03 0.  1.
         -6    1    1    2    0  503  0.48199758122E+02 -0.34602837781E+02 -0.51408460392E+03  0.54564874512E+03  0.17300000000E+03 0.  1.
</event>
<event>
 4    1  0.6017350E+000  0.1000000E+03  0.7546771E-02  0.1280296E+00
         21   -1    0    0  501  502  0.00000000000E+00  0.00000000000E+00  0.30807515550E+02  0.30807515550E+02  0.00000000000E+00 0.  1.
         21   -1    0    0  502  503 -0.00000000000E+00 -0.00000000000E+00 -0.18545632033E+04  0.18545632033E+04  0.00000000000E+00 0.  1.
          6    1    1    2  501    0  0.16356811208E+03 -0.20355558814E+02 -0.93573999205E+03  0.96576767848E+03  0.17300000000E+03 0.  1.
         -6    1    1    2    0  503 -0.16356811208E+03  0.20355558814E+02 -0.88801569574E+03  0.91960304042E+03  0.17300000000E+03 0.  1.
</event>
<event>
 4    1  0.6017350E+000  0.1000000E+03  0.7546771E-02  0.1280296E+00
         21   -1    0    0  503  502  0.00000000000E+00  0.00000000000E+00  0.39702257198E+03  0.39702257198E+03  0.00000000000E+00 0. -1.
         21   -1    0    0  501  503 -0.00000000000E+00 -0.00000000000E+00 -0.63267729543E+03  0.63267729543E+03  0.00000000000E+00 0. -1.
          6    1    1    2  501    0  0.98306075062E+02  0.25338882001E+03 -0.51220590441E+03  0.60510649229E+03  0.17300000000E+03 0. -1.
         -6    1    1    2    0  502 -0.98306075062E+02 -0.25338882001E+03  0.27655118096E+03  0.42459337511E+03  0.17300000000E+03 0. -1.
</event>
<event>
 4    1  0.6017350E+000  0.1000000E+03  0.7546771E-02  0.1280296E+00
         21   -1    0    0  503  502  0.00000000000E+00  0.00000000000E+00  0.14245903114E+04  0.14245903114E+04  0.00000000000E+00 0. -1.
         21   -1    0    0  501  503 -0.00000000000E+00 -0.00000000000E+00 -0.51414997485E+02  0.51414997485E+02  0.00000000000E+00 0. -1.
          6    1    1    2  501    0 -0.38557169395E+02  0.10172302081E+03  0.20274993640E+03  0.28787282780E+03  0.17300000000E+03 0. -1.
         -6    1    1    2    0  502  0.38557169395E+02 -0.10172302081E+03  0.11704253775E+04  0.11881324811E+04  0.17300000000E+03 0. -1.
</event>
<event>
 4    1  0.6017350E+000  0.1000000E+03  0.7546771E-02  0.1280296E+00
         21   -1    0    0  503  502  0.00000000000E+00  0.00000000000E+00  0.11803703597E+03  0.11803703597E+03  0.00000000000E+00 0. -1.
         21   -1    0    0  501  503 -0.00000000000E+00 -0.00000000000E+00 -0.50682114630E+03  0.50682114630E+03  0.00000000000E+00 0. -1.
          6    1    1    2  501    0 -0.31267578249E+01 -0.26367641431E+02 -0.41262951575E+03  0.44821551334E+03  0.17300000000E+03 0. -1.
         -6    1    1    2    0  502  0.31267578249E+01  0.26367641431E+02  0.23845405421E+02  0.17664266894E+03  0.17300000000E+03 0. -1.
</event>
<event>
 4    1  0.6017350E+000  0.1000000E+03  0.7546771E-02  0.1280296E+00
         21   -1    0    0  501  502  0.00000000000E+00  0.00000000000E+00  0.17549703772E+03  0.17549703772E+03  0.00000000000E+00 0. -1.
         21   -1    0    0  502  503 -0.00000000000E+00 -0.00000000000E+00 -0.42879609029E+03  0.42879609029E+03  0.00000000000E+00 0.  1.
          6    1    1    2  501    0 -0.12257931249E+02 -0.47732526136E+02  0.10146851976E+03  0.20652726559E+03  0.17300000000E+03 0. -1.
         -6    1    1    2    0  503  0.12257931249E+02  0.47732526136E+02 -0.35476757233E+03  0.39776586242E+03  0.17300000000E+03 0.  1.
</event>
<event>
 4    1  0.6017350E+000  0.1000000E+03  0.7546771E-02  0.1280296E+00
         21   -1    0    0  501  502  0.00000000000E+00  0.00000000000E+00  0.28037963511E+03  0.28037963511E+03  0.00000000000E+00 0. -1.
         21   -1    0    0  502  503 -0.00000000000E+00 -0.00000000000E+00 -0.23173873508E+03  0.23173873508E+03  0.00000000000E+00 0.  1.
          6    1    1    2  501    0  0.10838328216E+03 -0.86067266728E+02  0.15095367970E+03  0.26808678384E+03  0.17300000000E+03 0. -1.
         -6    1    1    2    0  503 -0.10838328216E+03  0.86067266728E+02 -0.10231277967E+03  0.24403158636E+03  0.17300000000E+03 0.  1.
</event>
<event>
 4    1  0.6017350E+000  0.1000000E+03  0.7546771E-02  0.1280296E+00
         21   -1    0    0  501  502  0.00000000000E+00  0.00000000000E+00  0.20630807618E+03  0.20630807618E+03  0.00000000000E+00 0. -1.
         21   -1    0    0  502  503 -0.00000000000E+00 -0.00000000000E+00 -0.45495187018E+03  0.45495187018E+03  0.00000000000E+00 0.  1.
          6    1    1    2  501    0 -0.71941497779E+02  0.60419565654E+02  0.12901441454E+03  0.23537166817E+03  0.17300000000E+03 0. -1.
         -6    1    1    2    0  503  0.71941497779E+02 -0.60419565654E+02 -0.37765820855E+03  0.42588827819E+03  0.17300000000E+03 0.  1.
</event>
<event>
 4    1  0.6017350E+000  0.1000000E+03  0.7546771E-02  0.1280296E+00
         21   -1    0    0  501  502  0.00000000000E+00  0.00000000000E+00  0.81836087637E+03  0.81836087637E+03  0.00000000000E+00 0. -1.
         21   -1    0    0  502  503 -0.00000000000E+00 -0.00000000000E+00 -0.37347110297E+02  0.37347110297E+02  0.00000000000E+00 0.  1.
          6    1    1    2  501    0 -0.15687303129E+02  0.45976332329E+01  0.34361079113E+03  0.38505143227E+03  0.17300000000E+03 0. -1.
         -6    1    1    2    0  503  0.15687303129E+02 -0.45976332329E+01  0.43740297494E+03  0.47065655440E+03  0.17300000000E+03 0.  1.
</event>
<event>
 4    1  0.6017350E+000  0.1000000E+03  0.7546771E-02  0.1280296E+00
         21   -1    0    0  501  502  0.00000000000E+00  0.00000000000E+00  0.50704301950E+03  0.50704301950E+03  0.00000000000E+00 0. -1.
         21   -1    0    0  502  503 -0.00000000000E+00 -0.00000000000E+00 -0.30710347258E+03  0.30710347258E+03  0.00000000000E+00 0.  1.
          6    1    1    2  501    0 -0.15171967218E+03  0.21678025462E+03  0.34359391307E+03  0.46690289656E+03  0.17300000000E+03 0. -1.
         -6    1    1    2    0  503  0.15171967218E+03 -0.21678025462E+03 -0.14365436615E+03  0.34724359552E+03  0.17300000000E+03 0.  1.
</event>
<event>
 4    1  0.6017350E+000  0.1000000E+03  0.7546771E-02  0.1280296E+00
         21   -1    0    0  503  502  0.00000000000E+00  0.00000000000E+00  0.76704202131E+03  0.76704202131E+03  0.00000000000E+00 0.  1.
         21   -1    0    0  501  503 -0.00000000000E+00 -0.00000000000E+00 -0.93164322587E+02  0.93164322587E+02  0.00000000000E+00 0. -1.
          6    1    1    2  501    0  0.16615257401E+03 -0.67833609432E+02  0.18157983860E+03  0.30839635894E+03  0.17300000000E+03 0. -1.
         -6    1    1    2    0  502 -0.16615257401E+03  0.67833609432E+02  0.49229786012E+03  0.55180998496E+03  0.17300000000E+03 0. -1.
</event>
<event>
 4    1  0.6017350E+000  0.1000000E+03  0.7546771E-02  0.1280296E+00
         21   -1    0    0  503  502  0.00000000000E+00  0.00000000000E+00  0.18721882442E+03  0.18721882442E+03  0.00000000000E+00 0.  1.
         21   -1    0    0  501  503 -0.00000000000E+00 -0.00000000000E+00 -0.23213644710E+03  0.23213644710E+03  0.00000000000E+00 0. -1.
          6    1    1    2  501    0  0.10438349490E+03 -0.42442523213E+02 -0.51505509406E+02  0.21278886081E+03  0.17300000000E+03 0. -1.
         -6    1    1    2    0  502 -0.10438349490E+03  0.42442523213E+02  0.65878867222E+01  0.20656641072E+03  0.17300000000E+03 0. -1.
</event>
<event>
 4    1  0.6017350E+000  0.1000000E+03  0.7546771E-02  0.1280296E+00
         21   -1    0    0  501  502  0.00000000000E+00  0.00000000000E+00  0.77321819700E+02  0.77321819700E+02  0.00000000000E+00 0.  1.
         21   -1    0    0  502  503 -0.00000000000E+00 -0.00000000000E+00 -0.58497695496E+03  0.58497695496E+03  0.00000000000E+00 0. -1.
          6    1    1    2  501    0 -0.24342664703E+02 -0.11103226434E+03 -0.32981678267E+03  0.38939547915E+03  0.17300000000E+03 0. -1.
         -6    1    1    2    0  503  0.24342664703E+02  0.11103226434E+03 -0.17783835259E+03  0.27290329551E+03  0.17300000000E+03 0.  1.
</event>
<event>
 4    1  0.6017350E+000  0.1000000E+03  0.7546771E-02  0.1280296E+00
         21   -1    0    0  501  502  0.00000000000E+00  0.00000000000E+00  0.34162511117E+02  0.34162511117E+02  0.00000000000E+00 0.  1.
         21   -1    0    0  502  503 -0.00000000000E+00 -0.00000000000E+00 -0.27397475715E+04  0.27397475715E+04  0.00000000000E+00 0. -1.
          6    1    1    2  501    0  0.49055529165E+02  0.30298844317E+02 -0.23914859892E+03  0.30074161214E+03  0.17300000000E+03 0. -1.
         -6    1    1    2    0  503 -0.49055529165E+02 -0.30298844317E+02 -0.24664364615E+04  0.24731684705E+04  0.17300000000E+03 0.  1.
</event>
<event>
 4    1  0.6017350E+000  0.1000000E+03  0.7546771E-02  0.1280296E+00
         21   -1    0    0  501  502  0.00000000000E+00  0.00000000000E+00  0.20978120387E+04  0.20978120387E+04  0.00000000000E+00 0. -1.
         21   -1    0    0  502  503 -0.00000000000E+00 -0.00000000000E+00 -0.18874974890E+02  0.18874974890E+02  0.00000000000E+00 0.  1.
          6    1    1    2  501    0  0.82694957342E+02  0.20314769601E+02  0.13008946483E+04  0.13151072320E+04  0.17300000000E+03 0. -1.
         -6    1    1    2    0  503 -0.82694957342E+02 -0.20314769601E+02  0.77804241559E+03  0.80157978162E+03  0.17300000000E+03 0. -1.
</event>
<event>
 4    1  0.6017350E+000  0.1000000E+03  0.7546771E-02  0.1280296E+00
         21   -1    0    0  501  502  0.00000000000E+00  0.00000000000E+00  0.47270219452E+03  0.47270219452E+03  0.00000000000E+00 0. -1.
         21   -1    0    0  502  503 -0.00000000000E+00 -0.00000000000E+00 -0.15215855889E+03  0.15215855889E+03  0.00000000000E+00 0.  1.
          6    1    1    2  501    0 -0.10783892931E+03 -0.59797913018E+02  0.35095441498E+03  0.41024751854E+03  0.17300000000E+03 0. -1.
         -6    1    1    2    0  503  0.10783892931E+03  0.59797913018E+02 -0.30410779351E+02  0.21461323486E+03  0.17300000000E+03 0. -1.
</event>
<event>
 4    1  0.6017350E+000  0.1000000E+03  0.7546771E-02  0.1280296E+00
         21   -1    0    0  503  502  0.00000000000E+00  0.00000000000E+00  0.77157328914E+02  0.77157328914E+02  0.00000000000E+00 0. -1.
         21   -1    0    0  501  503 -0.00000000000E+00 -0.00000000000E+00 -0.92726053681E+03  0.92726053681E+03  0.00000000000E+00 0. -1.
          6    1    1    2  501    0  0.27325714960E+02 -0.20203157892E+03 -0.43865490159E+03  0.51372227542E+03  0.17300000000E+03 0.  1.
         -6    1    1    2    0  502 -0.27325714960E+02  0.20203157892E+03 -0.41144830631E+03  0.49069559030E+03  0.17300000000E+03 0.  1.
</event>
<event>
 4    1  0.6017350E+000  0.1000000E+03  0.7546771E-02  0.1280296E+00
         21   -1    0    0  501  502  0.00000000000E+00  0.00000000000E+00  0.24362044704E+03  0.24362044704E+03  0.00000000000E+00 0.  1.
         21   -1    0    0  502  503 -0.00000000000E+00 -0.00000000000E+00 -0.35349849402E+03  0.35349849402E+03  0.00000000000E+00 0. -1.
          6    1    1    2  501    0  0.14541080572E+02  0.14737053596E+03  0.13337378383E+03  0.26390734000E+03  0.17300000000E+03 0.  1.
         -6    1    1    2    0  503 -0.14541080572E+02 -0.14737053596E+03 -0.24325183080E+03  0.33321160106E+03  0.17300000000E+03 0. -1.
</event>
<event>
 4    1  0.6017350E+000  0.1000000E+03  0.7546771E-02  0.1280296E+00
         21   -1    0    0  501  502  0.00000000000E+00  0.00000000000E+00  0.10675020671E+04  0.10675020671E+04  0.00000000000E+00 0.  1.
         21   -1    0    0  502  503 -0.00000000000E+00 -0.00000000000E+00 -0.12809961412E+03  0.12809961412E+03  0.00000000000E+00 0. -1.
          6    1    1    2  501    0  0.76930966417E+01 -0.49623373611E+02  0.99177508727E+03  0.10080022255E+04  0.17300000000E+03 0.  1.
         -6    1    1    2    0  503 -0.76930966417E+01  0.49623373611E+02 -0.52372634311E+02  0.18759945567E+03  0.17300000000E+03 0. -1.
</event>
<event>
 4    1  0.6017350E+000  0.1000000E+03  0.7546771E-02  0.1280296E+00
         21   -1    0    0  501  502  0.00000000000E+00  0.00000000000E+00  0.12402689781E+04  0.12402689781E+04  0.00000000000E+00 0. -1.
         21   -1    0    0  502  503 -0.00000000000E+00 -0.00000000000E+00 -0.75332748255E+02  0.75332748255E+02  0.00000000000E+00 0. -1.
          6    1    1    2  501    0  0.21259876090E+03 -0.85689190229E+02  0.35714315396E+03  0.45828059405E+03  0.17300000000E+03 0. -1.
         -6    1    1    2    0  503 -0.21259876090E+03  0.85689190229E+02  0.80779307593E+03  0.85732113235E+03  0.17300000000E+03 0. -1.
</event>
<event>
 4    1  0.6017350E+000  0.1000000E+03  0.7546771E-02  0.1280296E+00
         21   -1    0    0  501  502  0.00000000000E+00  0.00000000000E+00  0.13550439875E+03  0.13550439875E+03  0.00000000000E+00 0. -1.
         21   -1    0    0  502  503 -0.00000000000E+00 -0.00000000000E+00 -0.27169612343E+03  0.27169612343E+03  0.00000000000E+00 0. -1.
          6    1    1    2  501    0 -0.61773373203E+02 -0.47739957233E+02 -0.38234241828E+02  0.19361278471E+03  0.17300000000E+03 0. -1.
         -6    1    1    2    0  503  0.61773373203E+02  0.47739957233E+02 -0.97957482855E+02  0.21358773748E+03  0.17300000000E+03 0. -1.
</event>
<event>
 4    1  0.6017350E+000  0.1000000E+03  0.7546771E-02  0.1280296E+00
         21   -1    0    0  501  502  0.00000000000E+00  0.00000000000E+00  0.91309968246E+03  0.91309968246E+03  0.00000000000E+00 0. -1.
         21   -1    0    0  502  503 -0.00000000000E+00 -0.00000000000E+00 -0.50678885571E+02  0.50678885571E+02  0.00000000000E+00 0. -1.
          6    1    1    2  501    0  0.13219491706E+02  0.12504028437E+03  0.48307558409E+03  0.52829995989E+03  0.17300000000E+03 0. -1.
         -6    1    1    2    0  503 -0.13219491706E+02 -0.12504028437E+03  0.37934521279E+03  0.43547860814E+03  0.17300000000E+03 0. -1.
</event>
<event>
 4    1  0.6017350E+000  0.1000000E+03  0.7546771E-02  0.1280296E+00
         21   -1    0    0  501  502  0.00000000000E+00  0.00000000000E+00  0.75476866826E+03  0.75476866826E+03  0.00000000000E+00 0. -1.
         21   -1    0    0  502  503 -0.00000000000E+00 -0.00000000000E+00 -0.55283620098E+02  0.55283620098E+02  0.00000000000E+00 0. -1.
          6    1    1    2  501    0 -0.30821067654E+02 -0.31772077530E+02  0.54640884798E+03  0.57484870381E+03  0.17300000000E+03 0. -1.
         -6    1    1    2    0  503  0.30821067654E+02  0.31772077530E+02  0.15307620018E+03  0.23520358455E+03  0.17300000000E+03 0. -1.
</event>
<event>
 4    1  0.6017350E+000  0.1000000E+03  0.7546771E-02  0.1280296E+00
         21   -1    0    0  501  502  0.00000000000E+00  0.00000000000E+00  0.14220761146E+03  0.14220761146E+03  0.00000000000E+00 0. -1.
         21   -1    0    0  502  503 -0.00000000000E+00 -0.00000000000E+00 -0.21479407622E+03  0.21479407622E+03  0.00000000000E+00 0. -1.
          6    1    1    2  501    0  0.23901375669E+02  0.29019987545E+01 -0.42476746771E+02  0.17975809126E+03  0.17300000000E+03 0. -1.
         -6    1    1    2    0  503 -0.23901375669E+02 -0.29019987545E+01 -0.30109717994E+02  0.17724359642E+03  0.17300000000E+03 0. -1.
</event>
<event>
 4    1  0.6017350E+000  0.1000000E+03  0.7546771E-02  0.1280296E+00
         21   -1    0    0  503  502  0.00000000000E+00  0.00000000000E+00  0.62448883514E+02  0.62448883514E+02  0.00000000000E+00 0. -1.
         21   -1    0    0  501  503 -0.00000000000E+00 -0.00000000000E+00 -0.93056232037E+03  0.93056232037E+03  0.00000000000E+00 0.  1.
          6    1    1    2  501    0 -0.56223411216E+02  0.57856304947E+02 -0.73728533008E+03  0.76159509055E+03  0.17300000000E+03 0.  1.
         -6    1    1    2    0  502  0.56223411216E+02 -0.57856304947E+02 -0.13082810678E+03  0.23141611334E+03  0.17300000000E+03 0. -1.
</event>
<event>
 4    1  0.6017350E+000  0.1000000E+03  0.7546771E-02  0.1280296E+00
         21   -1    0    0  503  502  0.00000000000E+00  0.00000000000E+00  0.11005389465E+03  0.11005389465E+03  0.00000000000E+00 0. -1.
         21   -1    0    0  501  503 -0.00000000000E+00 -0.00000000000E+00 -0.73062077692E+03  0.73062077692E+03  0.00000000000E+00 0.  1.
          6    1    1    2  501    0 -0.11198162463E+03  0.16623134623E+03 -0.46076822064E+03  0.53142177023E+03  0.17300000000E+03 0.  1.
         -6    1    1    2    0  502  0.11198162463E+03 -0.16623134623E+03 -0.15979866164E+03  0.30925290134E+03  0.17300000000E+03 0. -1.
</event>
<event>
 4    1  0.6017350E+000  0.1000000E+03  0.7546771E-02  0.1280296E+00
         21   -1    0    0  501  502  0.00000000000E+00  0.00000000000E+00  0.17646807419E+02  0.17646807419E+02  0.00000000000E+00 0. -1.
         21   -1    0    0  502  503 -0.00000000000E+00 -0.00000000000E+00 -0.18100951507E+04  0.18100951507E+04  0.00000000000E+00 0. -1.
          6    1    1    2  501    0  0.19826328087E+01  0.29396435261E+02 -0.72317704232E+03  0.74416538201E+03  0.17300000000E+03 0. -1.
         -6    1    1    2    0  503 -0.19826328087E+01 -0.29396435261E+02 -0.10692713009E+04  0.10835765761E+04  0.17300000000E+03 0. -1.
</event>
<event>
 4    1  0.6017350E+000  0.1000000E+03  0.7546771E-02  0.1280296E+00
         21   -1    0    0  501  502  0.00000000000E+00  0.00000000000E+00  0.20456433737E+03  0.20456433737E+03  0.00000000000E+00 0. -1.
         21   -1    0    0  502  503 -0.00000000000E+00 -0.00000000000E+00 -0.63802254420E+03  0.63802254420E+03  0.00000000000E+00 0. -1.
          6    1    1    2  501    0  0.13167256224E+03 -0.44549310319E+02  0.11570413481E+03  0.25027734917E+03  0.17300000000E+03 0. -1.
         -6    1    1    2    0  503 -0.13167256224E+03  0.44549310319E+02 -0.54916234163E+03  0.59230953239E+03  0.17300000000E+03 0. -1.
</event>
<event>
 4    1  0.6017350E+000  0.1000000E+03  0.7546771E-02  0.1280296E+00
         21   -1    0    0  501  502  0.00000000000E+00  0.00000000000E+00  0.56237147917E+03  0.56237147917E+03  0.00000000000E+00 0. -1.
         21   -1    0    0  502  503 -0.00000000000E+00 -0.00000000000E+00 -0.87522937524E+02  0.87522937524E+02  0.00000000000E+00 0. -1.
          6    1    1    2  501    0  0.33222648109E+02 -0.10988428583E+02  0.43429548135E+03  0.46879212348E+03  0.17300000000E+03 0. -1.
         -6    1    1    2    0  503 -0.33222648109E+02  0.10988428583E+02  0.40553060295E+02  0.18110229322E+03  0.17300000000E+03 0. -1.
</event>
<event>
 4    1  0.6017350E+000  0.1000000E+03  0.7546771E-02  0.1280296E+00
         21   -1    0    0  501  502  0.00000000000E+00  0.00000000000E+00  0.34451922870E+03  0.34451922870E+03  0.00000000000E+00 0. -1.
         21   -1    0    0  502  503 -0.00000000000E+00 -0.00000000000E+00 -0.43177955380E+03  0.43177955380E+03  0.00000000000E+00 0. -1.
          6    1    1    2  501    0  0.88325214006E+02 -0.50488130892E+02  0.28782890227E+03  0.35089153847E+03  0.17300000000E+03 0. -1.
         -6    1    1    2    0  503 -0.88325214006E+02  0.50488130892E+02 -0.37508922736E+03  0.42540724403E+03  0.17300000000E+03 0. -1.
</event>
<event>
 4    1  0.6017350E+000  0.1000000E+03  0.7546771E-02  0.1280296E+00
         21   -1    0    0  501  502  0.00000000000E+00  0.00000000000E+00  0.35263524001E+02  0.35263524001E+02  0.00000000000E+00 0. -1.
         21   -1    0    0  502  503 -0.00000000000E+00 -0.00000000000E+00 -0.11426273835E+04  0.11426273835E+04  0.00000000000E+00 0. -1.
          6    1    1    2  501    0  0.10048901106E+03  0.91116658541E+01 -0.51399105884E+03  0.55163110170E+03  0.17300000000E+03 0. -1.
         -6    1    1    2    0  503 -0.10048901106E+03 -0.91116658541E+01 -0.59337280068E+03  0.62625980582E+03  0.17300000000E+03 0. -1.
</event>
<event>
 4    1  0.6017350E+000  0.1000000E+03  0.7546771E-02  0.1280296E+00
         21   -1    0    0  501  502  0.00000000000E+00  0.00000000000E+00  0.65365771719E+03  0.65365771719E+03  0.00000000000E+00 0. -1.
         21   -1    0    0  502  503 -0.00000000000E+00 -0.00000000000E+00 -0.31266660823E+03  0.31266660823E+03  0.00000000000E+00 0.  1.
          6    1    1    2  501    0 -0.96588386374E+02  0.57803485719E+02  0.60036430045E+03  0.63485183515E+03  0.17300000000E+03 0. -1.
         -6    1    1    2    0  503  0.96588386374E+02 -0.57803485719E+02 -0.25937319148E+03  0.33147249027E+03  0.17300000000E+03 0.  1.
</event>
<event>
 4    1  0.6017350E+000  0.1000000E+03  0.7546771E-02  0.1280296E+00
         21   -1    0    0  501  502  0.00000000000E+00  0.00000000000E+00  0.22685019215E+03  0.22685019215E+03  0.00000000000E+00 0. -1.
         21   -1    0    0  502  503 -0.00000000000E+00 -0.00000000000E+00 -0.34492487714E+03  0.34492487714E+03  0.00000000000E+00 0.  1.
          6    1    1    2  501    0  0.11752670041E+03  0.31855807018E+02  0.12799670790E+03  0.24726397834E+03  0.17300000000E+03 0. -1.
         -6    1    1    2    0  503 -0.11752670041E+03 -0.31855807018E+02 -0.24607139289E+03  0.32451109095E+03  0.17300000000E+03 0.  1.
</event>
<event>
 4    1  0.6017350E+000  0.1000000E+03  0.7546771E-02  0.1280296E+00
         21   -1    0    0  501  502  0.00000000000E+00  0.00000000000E+00  0.10086425385E+03  0.10086425385E+03  0.00000000000E+00 0. -1.
         21   -1    0    0  502  503 -0.00000000000E+00 -0.00000000000E+00 -0.12611104621E+04  0.12611104621E+04  0.00000000000E+00 0.  1.
          6    1    1    2  501    0  0.87013948378E+02 -0.45963891646E+02 -0.15035473326E+02  0.19959752505E+03  0.17300000000E+03 0. -1.
         -6    1    1    2    0  503 -0.87013948378E+02  0.45963891646E+02 -0.11452107350E+04  0.11623771909E+04  0.17300000000E+03 0.  1.
</event>
<event>
 4    1  0.6017350E+000  0.1000000E+03  0.7546771E-02  0.1280296E+00
         21   -1    0    0  501  502  0.00000000000E+00  0.00000000000E+00  0.14825215412E+04  0.14825215412E+04  0.00000000000E+00 0. -1.
         21   -1    0    0  502  503 -0.00000000000E+00 -0.00000000000E+00 -0.64617988137E+02  0.64617988137E+02  0.00000000000E+00 0.  1.
          6    1    1    2  501    0 -0.61722109361E+02 -0.31358065611E+02  0.13266213085E+04  0.13396439987E+04  0.17300000000E+03 0. -1.
         -6    1    1    2    0  503  0.61722109361E+02  0.31358065611E+02  0.91282244553E+02  0.20749553063E+03  0.17300000000E+03 0.  1.
</event>
<event>
 4    1  0.6017350E+000  0.1000000E+03  0.7546771E-02  0.1280296E+00
         21   -1    0    0  503  502  0.00000000000E+00  0.00000000000E+00  0.18707053221E+04  0.18707053221E+04  0.00000000000E+00 0. -1.
         21   -1    0    0  501  503 -0.00000000000E+00 -0.00000000000E+00 -0.61476309777E+02  0.61476309777E+02  0.00000000000E+00 0.  1.
          6    1    1    2  501    0 -0.10680084800E+03 -0.20942571114E+03  0.41275758375E+03  0.50553276111E+03  0.17300000000E+03 0.  1.
         -6    1    1    2    0  502  0.10680084800E+03  0.20942571114E+03  0.13964714285E+04  0.14266488707E+04  0.17300000000E+03 0. -1.
</event>
<event>
 4    1  0.6017350E+000  0.1000000E+03  0.7546771E-02  0.1280296E+00
         21   -1    0    0  501  502  0.00000000000E+00  0.00000000000E+00  0.16522507690E+02  0.16522507690E+02  0.00000000000E+00 0. -1.
         21   -1    0    0  502  503 -0.00000000000E+00 -0.00000000000E+00 -0.31998322389E+04  0.31998322389E+04  0.00000000000E+00 0. -1.
          6    1    1    2  501    0 -0.29729773166E+02 -0.32449453249E+02 -0.57802958118E+03  0.60496613388E+03  0.17300000000E+03 0. -1.
         -6    1    1    2    0  503  0.29729773166E+02  0.32449453249E+02 -0.26052801501E+04  0.26113886128E+04  0.17300000000E+03 0. -1.
</event>
<event>
 4    1  0.6017350E+000  0.1000000E+03  0.7546771E-02  0.1280296E+00
         21   -1    0    0  501  502  0.00000000000E+00  0.00000000000E+00  0.39564101057E+02  0.39564101057E+02  0.00000000000E+00 0. -1.
         21   -1    0    0  502  503 -0.00000000000E+00 -0.00000000000E+00 -0.13133576301E+04  0.13133576301E+04  0.00000000000E+00 0. -1.
          6    1    1    2  501    0  0.25148973689E+02 -0.12301109397E+03 -0.40194090241E+03  0.45524684419E+03  0.17300000000E+03 0. -1.
         -6    1    1    2    0  503 -0.25148973689E+02  0.12301109397E+03 -0.87185262666E+03  0.89767488699E+03  0.17300000000E+03 0. -1.
</event>
<event>
 4    1  0.6017350E+000  0.1000000E+03  0.7546771E-02  0.1280296E+00
         21   -1    0    0  501  502  0.00000000000E+00  0.00000000000E+00  0.69015286423E+02  0.69015286423E+02  0.00000000000E+00 0.  1.
         21   -1    0    0  502  503 -0.00000000000E+00 -0.00000000000E+00 -0.90447536696E+03  0.90447536696E+03  0.00000000000E+00 0.  1.
          6    1    1    2  501    0  0.64138147950E+02 -0.43131990328E+02 -0.10047108124E+03  0.21447029813E+03  0.17300000000E+03 0.  1.
         -6    1    1    2    0  503 -0.64138147950E+02  0.43131990328E+02 -0.73498899929E+03  0.75902035525E+03  0.17300000000E+03 0.  1.
</event>
<event>
 4    1  0.6017350E+000  0.1000000E+03  0.7546771E-02  0.1280296E+00
         21   -1    0    0  501  502  0.00000000000E+00  0.00000000000E+00  0.24955525341E+04  0.24955525341E+04  0.00000000000E+00 0. -1.
         21   -1    0    0  502  503 -0.00000000000E+00 -0.00000000000E+00 -0.44676977912E+02  0.44676977912E+02  0.00000000000E+00 0.  1.
          6    1    1    2  501    0  0.17373898472E+03  0.19248814772E+02  0.20845325721E+04  0.20989904230E+04  0.17300000000E+03 0. -1.
         -6    1    1    2    0  503 -0.17373898472E+03 -0.19248814772E+02  0.36634298406E+03  0.44123908899E+03  0.17300000000E+03 0.  1.
</event>
<event>
 4    1  0.6017350E+000  0.1000000E+03  0.7546771E-02  0.1280296E+00
         21   -1    0    0  501  502  0.00000000000E+00  0.00000000000E+00  0.20383046573E+04  0.20383046573E+04  0.00000000000E+00 0. -1.
         21   -1    0    0  502  503 -0.00000000000E+00 -0.00000000000E+00 -0.18091974250E+02  0.18091974250E+02  0.00000000000E+00 0. -1.
          6    1    1    2  501    0  0.25419829850E+02 -0.47655147916E+02  0.13500395634E+04  0.13621501399E+04  0.17300000000E+03 0. -1.
         -6    1    1    2    0  503 -0.25419829850E+02  0.47655147916E+02  0.67017311967E+03  0.69424649167E+03  0.17300000000E+03 0. -1.
</event>
<event>
 4    1  0.6017350E+000  0.1000000E+03  0.7546771E-02  0.1280296E+00
         21   -1    0    0  501  502  0.00000000000E+00  0.00000000000E+00  0.33296197983E+03  0.33296197983E+03  0.00000000000E+00 0.  1.
         21   -1    0    0  502  503 -0.00000000000E+00 -0.00000000000E+00 -0.15244184058E+03  0.15244184058E+03  0.00000000000E+00 0.  1.
          6    1    1    2  501    0 -0.16798507035E+02  0.80360649197E+02  0.21812553983E+03  0.29025467250E+03  0.17300000000E+03 0.  1.
         -6    1    1    2    0  503  0.16798507035E+02 -0.80360649197E+02 -0.37605400577E+02  0.19514914791E+03  0.17300000000E+03 0.  1.
</event>
<event>
 4    1  0.6017350E+000  0.1000000E+03  0.7546771E-02  0.1280296E+00
         21   -1    0    0  503  502  0.00000000000E+00  0.00000000000E+00  0.53439354275E+03  0.53439354275E+03  0.00000000000E+00 0.  1.
         21   -1    0    0  501  503 -0.00000000000E+00 -0.00000000000E+00 -0.90996893338E+02  0.90996893338E+02  0.00000000000E+00 0.  1.
          6    1    1    2  501    0 -0.27460614474E+02  0.47169928874E+02  0.43909474919E+02  0.18664439323E+03  0.17300000000E+03 0.  1.
         -6    1    1    2    0  502  0.27460614474E+02 -0.47169928874E+02  0.39948717449E+03  0.43874604286E+03  0.17300000000E+03 0.  1.
</event>
<event>
 4    1  0.6017350E+000  0.1000000E+03  0.7546771E-02  0.1280296E+00
         21   -1    0    0  503  502  0.00000000000E+00  0.00000000000E+00  0.49719060427E+03  0.49719060427E+03  0.00000000000E+00 0.  1.
         21   -1    0    0  501  503 -0.00000000000E+00 -0.00000000000E+00 -0.71114615033E+02  0.71114615033E+02  0.00000000000E+00 0.  1.
          6    1    1    2  501    0 -0.72455511653E+02  0.31291158554E+01  0.23267878058E+03  0.29887791399E+03  0.17300000000E+03 0.  1.
         -6    1    1    2    0  502  0.72455511653E+02 -0.31291158554E+01  0.19339720865E+03  0.26942730531E+03  0.17300000000E+03 0.  1.
</event>
<event>
 4    1  0.6017350E+000  0.1000000E+03  0.7546771E-02  0.1280296E+00
         21   -1    0    0  503  502  0.00000000000E+00  0.00000000000E+00  0.56387746087E+03  0.56387746087E+03  0.00000000000E+00 0. -1.
         21   -1    0    0  501  503 -0.00000000000E+00 -0.00000000000E+00 -0.40895691122E+03  0.40895691122E+03  0.00000000000E+00 0.  1.
          6    1    1    2  501    0  0.14408190029E+03  0.42099319598E+03  0.25044703921E+02  0.47807018548E+03  0.17300000000E+03 0.  1.
         -6    1    1    2    0  502 -0.14408190029E+03 -0.42099319598E+03  0.12987584573E+03  0.49476418661E+03  0.17300000000E+03 0. -1.
</event>
<event>
 4    1  0.6017350E+000  0.1000000E+03  0.7546771E-02  0.1280296E+00
         21   -1    0    0  503  502  0.00000000000E+00  0.00000000000E+00  0.36351331093E+03  0.36351331093E+03  0.00000000000E+00 0. -1.
         21   -1    0    0  501  503 -0.00000000000E+00 -0.00000000000E+00 -0.10140965708E+03  0.10140965708E+03  0.00000000000E+00 0.  1.
          6    1    1    2  501    0  0.80852993609E+02  0.60249905176E+01  0.10803968770E+03  0.21948822566E+03  0.17300000000E+03 0.  1.
         -6    1    1    2    0  502 -0.80852993609E+02 -0.60249905176E+01  0.15406396615E+03  0.24543474235E+03  0.17300000000E+03 0. -1.
</event>
<event>
 4    1  0.6017350E+000  0.1000000E+03  0.7546771E-02  0.1280296E+00
         21   -1    0    0  503  502  0.00000000000E+00  0.00000000000E+00  0.72277456703E+03  0.72277456703E+03  0.00000000000E+00 0. -1.
         21   -1    0    0  501  503 -0.00000000000E+00 -0.00000000000E+00 -0.14256317697E+03  0.14256317697E+03  0.00000000000E+00 0.  1.
          6    1    1    2  501    0 -0.19448850130E+02 -0.45858242052E+02 -0.68112472382E+02  0.19248258370E+03  0.17300000000E+03 0.  1.
         -6    1    1    2    0  502  0.19448850130E+02  0.45858242052E+02  0.64832386244E+03  0.67285516030E+03  0.17300000000E+03 0. -1.
</event>
<event>
 4    1  0.6017350E+000  0.1000000E+03  0.7546771E-02  0.1280296E+00
         21   -1    0    0  501  502  0.00000000000E+00  0.00000000000E+00  0.22827780983E+03  0.22827780983E+03  0.00000000000E+00 0. -1.
         21   -1    0    0  502  503 -0.00000000000E+00 -0.00000000000E+00 -0.14259029438E+03  0.14259029438E+03  0.00000000000E+00 0. -1.
          6    1    1    2  501    0 -0.24422971356E+02  0.23481680847E+02  0.82295170580E+02  0.19454913509E+03  0.17300000000E+03 0. -1.
         -6    1    1    2    0  503  0.24422971356E+02 -0.23481680847E+02  0.33923448665E+01  0.17631896911E+03  0.17300000000E+03 0. -1.
</event>
<event>
 4    1  0.6017350E+000  0.1000000E+03  0.7546771E-02  0.1280296E+00
         21   -1    0    0  501  502  0.00000000000E+00  0.00000000000E+00  0.92817597137E+02  0.92817597137E+02  0.00000000000E+00 0. -1.
         21   -1    0    0  502  503 -0.00000000000E+00 -0.00000000000E+00 -0.65244489478E+03  0.65244489478E+03  0.00000000000E+00 0. -1.
          6    1    1    2  501    0 -0.13709868723E+03 -0.58467430842E+02 -0.14090922648E+03  0.26832610871E+03  0.17300000000E+03 0. -1.
         -6    1    1    2    0  503  0.13709868723E+03  0.58467430842E+02 -0.41871807116E+03  0.47693638320E+03  0.17300000000E+03 0. -1.
</event>
<event>
 4    1  0.6017350E+000  0.1000000E+03  0.7546771E-02  0.1280296E+00
         21   -1    0    0  501  502  0.00000000000E+00  0.00000000000E+00  0.13505862927E+04  0.13505862927E+04  0.00000000000E+00 0.  1.
         21   -1    0    0  502  503 -0.00000000000E+00 -0.00000000000E+00 -0.11112817296E+03  0.11112817296E+03  0.00000000000E+00 0.  1.
          6    1    1    2  501    0  0.25436187556E+03 -0.15988721775E+03  0.29354648366E+03  0.45427131123E+03  0.17300000000E+03 0.  1.
         -6    1    1    2    0  503 -0.25436187556E+03  0.15988721775E+03  0.94591163604E+03  0.10074431544E+04  0.17300000000E+03 0.  1.
</event>
<event>
 4    1  0.6017350E+000  0.1000000E+03  0.7546771E-02  0.1280296E+00
         21   -1    0    0  501  502  0.00000000000E+00  0.00000000000E+00  0.36511747828E+03  0.36511747828E+03  0.00000000000E+00 0.  1.
         21   -1    0    0  502  503 -0.00000000000E+00 -0.00000000000E+00 -0.13053680561E+03  0.13053680561E+03  0.00000000000E+00 0.  1.
          6    1    1    2  501    0 -0.77952758980E+02 -0.69797959591E+02  0.21078895455E+03  0.29207768001E+03  0.17300000000E+03 0.  1.
         -6    1    1    2    0  503  0.77952758980E+02  0.69797959591E+02  0.23791718119E+02  0.20357660388E+03  0.17300000000E+03 0.  1.
</event>
<event>
 4    1  0.6017350E+000  0.1000000E+03  0.7546771E-02  0.1280296E+00
         21   -1    0    0  501  502  0.00000000000E+00  0.00000000000E+00  0.16665790205E+03  0.16665790205E+03  0.00000000000E+00 0.  1.
         21   -1    0    0  502  503 -0.00000000000E+00 -0.00000000000E+00 -0.18722977164E+03  0.18722977164E+03  0.00000000000E+00 0.  1.
          6    1    1    2  501    0  0.68132869556E+01 -0.85525367906E+01  0.23753301078E+02  0.17496509960E+03  0.17300000000E+03 0.  1.
         -6    1    1    2    0  503 -0.68132869556E+01  0.85525367906E+01 -0.44325170670E+02  0.17892257409E+03  0.17300000000E+03 0.  1.
</event>
<event>
 4    1  0.6017350E+000  0.1000000E+03  0.7546771E-02  0.1280296E+00
         21   -1    0    0  503  502  0.00000000000E+00  0.00000000000E+00  0.15590282012E+03  0.15590282012E+03  0.00000000000E+00 0.  1.
         21   -1    0    0  501  503 -0.00000000000E+00 -0.00000000000E+00 -0.91849229270E+03  0.91849229270E+03  0.00000000000E+00 0.  1.
          6    1    1    2  501    0  0.22877074641E+02 -0.38289116848E+02 -0.85485169906E+03  0.87332115765E+03  0.17300000000E+03 0.  1.
         -6    1    1    2    0  502 -0.22877074641E+02  0.38289116848E+02  0.92262226477E+02  0.20107395517E+03  0.17300000000E+03 0.  1.
</event>
<event>
 4    1  0.6017350E+000  0.1000000E+03  0.7546771E-02  0.1280296E+00
         21   -1    0    0  503  502  0.00000000000E+00  0.00000000000E+00  0.14362174510E+04  0.14362174510E+04  0.00000000000E+00 0.  1.
         21   -1    0    0  501  503 -0.00000000000E+00 -0.00000000000E+00 -0.44747843815E+02  0.44747843815E+02  0.00000000000E+00 0.  1.
          6    1    1    2  501    0 -0.33132722893E+02 -0.11565963902E+03  0.28406514910E+03  0.35369045556E+03  0.17300000000E+03 0.  1.
         -6    1    1    2    0  502  0.33132722893E+02  0.11565963902E+03  0.11074044581E+04  0.11272748393E+04  0.17300000000E+03 0.  1.
</event>
<event>
 4    1  0.6017350E+000  0.1000000E+03  0.7546771E-02  0.1280296E+00
         21   -1    0    0  503  502  0.00000000000E+00  0.00000000000E+00  0.28208931886E+02  0.28208931886E+02  0.00000000000E+00 0. -1.
         21   -1    0    0  501  503 -0.00000000000E+00 -0.00000000000E+00 -0.18233257933E+04  0.18233257933E+04  0.00000000000E+00 0.  1.
          6    1    1    2  501    0 -0.11059434411E+03  0.81898837856E+02 -0.69075830047E+03  0.72526861111E+03  0.17300000000E+03 0.  1.
         -6    1    1    2    0  502  0.11059434411E+03 -0.81898837856E+02 -0.11043585609E+04  0.11262661141E+04  0.17300000000E+03 0. -1.
</event>
<event>
 4    1  0.6017350E+000  0.1000000E+03  0.7546771E-02  0.1280296E+00
         21   -1    0    0  503  502  0.00000000000E+00  0.00000000000E+00  0.93830945199E+03  0.93830945199E+03  0.00000000000E+00 0. -1.
         21   -1    0    0  501  503 -0.00000000000E+00 -0.00000000000E+00 -0.70301966158E+02  0.70301966158E+02  0.00000000000E+00 0.  1.
          6    1    1    2  501    0  0.16396052481E+03 -0.82356644838E+02  0.52960011047E+03  0.58657561120E+03  0.17300000000E+03 0.  1.
         -6    1    1    2    0  502 -0.16396052481E+03  0.82356644838E+02  0.33840737536E+03  0.42203580695E+03  0.17300000000E+03 0. -1.
</event>
<event>
 4    1  0.6017350E+000  0.1000000E+03  0.7546771E-02  0.1280296E+00
         21   -1    0    0  501  502  0.00000000000E+00  0.00000000000E+00  0.24344823385E+03  0.24344823385E+03  0.00000000000E+00 0.  1.
         21   -1    0    0  502  503 -0.00000000000E+00 -0.00000000000E+00 -0.14055596856E+03  0.14055596856E+03  0.00000000000E+00 0.  1.
          6    1    1    2  501    0  0.52791167756E+02 -0.36208002725E+02  0.65797526447E+02  0.19584749511E+03  0.17300000000E+03 0.  1.
         -6    1    1    2    0  503 -0.52791167756E+02  0.36208002725E+02  0.37094738845E+02  0.18815670731E+03  0.17300000000E+03 0.  1.
</event>
<event>
 4    1  0.6017350E+000  0.1000000E+03  0.7546771E-02  0.1280296E+00
         21   -1    0    0  501  502  0.00000000000E+00  0.00000000000E+00  0.26541036929E+03  0.26541036929E+03  0.00000000000E+00 0.  1.
         21   -1    0    0  502  503 -0.00000000000E+00 -0.00000000000E+00 -0.24145137260E+03  0.24145137260E+03  0.00000000000E+00 0.  1.
          6    1    1    2  501    0 -0.75868520932E+02 -0.51701158681E+02  0.17255118160E+03  0.26102098105E+03  0.17300000000E+03 0.  1.
         -6    1    1    2    0  503  0.75868520932E+02  0.51701158681E+02 -0.14859218490E+03  0.24584076084E+03  0.17300000000E+03 0.  1.
</event>
<event>
 4    1  0.6017350E+000  0.1000000E+03  0.7546771E-02  0.1280296E+00
         21   -1    0    0  501  502  0.00000000000E+00  0.00000000000E+00  0.50013983768E+03  0.50013983768E+03  0.00000000000E+00 0.  1.
         21   -1    0    0  502  503 -0.00000000000E+00 -0.00000000000E+00 -0.97697479665E+02  0.97697479665E+02  0.00000000000E+00 0.  1.
          6    1    1    2  501    0 -0.25158287167E+02  0.12174147285E+03  0.28098804748E+03  0.35261481599E+03  0.17300000000E+03 0.  1.
         -6    1    1    2    0  503  0.25158287167E+02 -0.12174147285E+03  0.12145431053E+03  0.24522250136E+03  0.17300000000E+03 0.  1.
</event>
<event>
 4    1  0.6017350E+000  0.1000000E+03  0.7546771E-02  0.1280296E+00
         21   -1    0    0  501  502  0.00000000000E+00  0.00000000000E+00  0.15507714475E+04  0.15507714475E+04  0.00000000000E+00 0. -1.
         21   -1    0    0  502  503 -0.00000000000E+00 -0.00000000000E+00 -0.37906787840E+02  0.37906787840E+02  0.00000000000E+00 0. -1.
          6    1    1    2  501    0 -0.54266048381E+02  0.49717670738E+02  0.12580168794E+04  0.12719874683E+04  0.17300000000E+03 0. -1.
         -6    1    1    2    0  503  0.54266048381E+02 -0.49717670738E+02  0.25484778026E+03  0.31669076698E+03  0.17300000000E+03 0. -1.
</event>
<event>
 4    1  0.6017350E+000  0.1000000E+03  0.7546771E-02  0.1280296E+00
         21   -1    0    0  501  502  0.00000000000E+00  0.00000000000E+00  0.23783647782E+03  0.23783647782E+03  0.00000000000E+00 0. -1.
         21   -1    0    0  502  503 -0.00000000000E+00 -0.00000000000E+00 -0.20098249791E+03  0.20098249791E+03  0.00000000000E+00 0. -1.
          6    1    1    2  501    0 -0.42735439823E+02  0.62646389352E+02  0.12891311368E+03  0.22868860661E+03  0.17300000000E+03 0. -1.
         -6    1    1    2    0  503  0.42735439823E+02 -0.62646389352E+02 -0.92059133772E+02  0.21013036912E+03  0.17300000000E+03 0. -1.
</event>
<event>
 4    1  0.6017350E+000  0.1000000E+03  0.7546771E-02  0.1280296E+00
         21   -1    0    0  501  502  0.00000000000E+00  0.00000000000E+00  0.12044221690E+04  0.12044221690E+04  0.00000000000E+00 0. -1.
         21   -1    0    0  502  503 -0.00000000000E+00 -0.00000000000E+00 -0.67268833654E+02  0.67268833654E+02  0.00000000000E+00 0. -1.
          6    1    1    2  501    0 -0.29964165816E+02 -0.21505012673E+03  0.70891311804E+03  0.76133515429E+03  0.17300000000E+03 0. -1.
         -6    1    1    2    0  503  0.29964165816E+02  0.21505012673E+03  0.42824021733E+03  0.51035584838E+03  0.17300000000E+03 0. -1.
</event>
<event>
 4    1  0.6017350E+000  0.1000000E+03  0.7546771E-02  0.1280296E+00
         21   -1    0    0  501  502  0.00000000000E+00  0.00000000000E+00  0.52939938212E+02  0.52939938212E+02  0.00000000000E+00 0. -1.
         21   -1    0    0  502  503 -0.00000000000E+00 -0.00000000000E+00 -0.14408705538E+04  0.14408705538E+04  0.00000000000E+00 0. -1.
          6    1    1    2  501    0 -0.82208653284E+01  0.52659443162E+02 -0.12986563745E+03  0.22278842737E+03  0.17300000000E+03 0. -1.
         -6    1    1    2    0  503  0.82208653284E+01 -0.52659443162E+02 -0.12580649782E+04  0.12710220647E+04  0.17300000000E+03 0. -1.
</event>
<event>
 4    1  0.6017350E+000  0.1000000E+03  0.7546771E-02  0.1280296E+00
         21   -1    0    0  501  502  0.00000000000E+00  0.00000000000E+00  0.85727063375E+02  0.85727063375E+02  0.00000000000E+00 0. -1.
         21   -1    0    0  502  503 -0.00000000000E+00 -0.00000000000E+00 -0.47089621496E+03  0.47089621496E+03  0.00000000000E+00 0. -1.
          6    1    1    2  501    0  0.26110077498E+02  0.69887083645E+02 -0.95882646183E+02  0.21139636337E+03  0.17300000000E+03 0. -1.
         -6    1    1    2    0  503 -0.26110077498E+02 -0.69887083645E+02 -0.28928650540E+03  0.34522691496E+03  0.17300000000E+03 0. -1.
</event>
<event>
 4    1  0.6017350E+000  0.1000000E+03  0.7546771E-02  0.1280296E+00
         21   -1    0    0  501  502  0.00000000000E+00  0.00000000000E+00  0.21443182931E+03  0.21443182931E+03  0.00000000000E+00 0. -1.
         21   -1    0    0  502  503 -0.00000000000E+00 -0.00000000000E+00 -0.85276039006E+03  0.85276039006E+03  0.00000000000E+00 0. -1.
          6    1    1    2  501    0  0.26196338970E+03 -0.30625395989E+02  0.41125734458E+02  0.31809284565E+03  0.17300000000E+03 0. -1.
         -6    1    1    2    0  503 -0.26196338970E+03  0.30625395989E+02 -0.67945429521E+03  0.74909937371E+03  0.17300000000E+03 0. -1.
</event>
<event>
 4    1  0.6017350E+000  0.1000000E+03  0.7546771E-02  0.1280296E+00
         21   -1    0    0  503  502  0.00000000000E+00  0.00000000000E+00  0.16756656071E+04  0.16756656071E+04  0.00000000000E+00 0. -1.
         21   -1    0    0  501  503 -0.00000000000E+00 -0.00000000000E+00 -0.33293947801E+02  0.33293947801E+02  0.00000000000E+00 0.  1.
          6    1    1    2  501    0  0.48616820907E+02 -0.10970838681E+03  0.12084761826E+04  0.12266797501E+04  0.17300000000E+03 0. -1.
         -6    1    1    2    0  502 -0.48616820907E+02  0.10970838681E+03  0.43389547670E+03  0.48227980479E+03  0.17300000000E+03 0. -1.
</event>
<event>
 4    1  0.6017350E+000  0.1000000E+03  0.7546771E-02  0.1280296E+00
         21   -1    0    0  503  502  0.00000000000E+00  0.00000000000E+00  0.36449063857E+02  0.36449063857E+02  0.00000000000E+00 0. -1.
         21   -1    0    0  501  503 -0.00000000000E+00 -0.00000000000E+00 -0.90082448363E+03  0.90082448363E+03  0.00000000000E+00 0. -1.
          6    1    1    2  501    0  0.41126416431E+02 -0.18344412405E+02 -0.50879136790E+03  0.53928244515E+03  0.17300000000E+03 0. -1.
         -6    1    1    2    0  502 -0.41126416431E+02  0.18344412405E+02 -0.35558405187E+03  0.39799110234E+03  0.17300000000E+03 0. -1.
</event>
<event>
 4    1  0.6017350E+000  0.1000000E+03  0.7546771E-02  0.1280296E+00
         21   -1    0    0  503  502  0.00000000000E+00  0.00000000000E+00  0.11102927076E+04  0.11102927076E+04  0.00000000000E+00 0. -1.
         21   -1    0    0  501  503 -0.00000000000E+00 -0.00000000000E+00 -0.66766763878E+02  0.66766763878E+02  0.00000000000E+00 0. -1.
          6    1    1    2  501    0 -0.44743502595E+02 -0.49282175690E+01  0.77848790278E+02  0.19497615880E+03  0.17300000000E+03 0. -1.
         -6    1    1    2    0  502  0.44743502595E+02  0.49282175690E+01  0.96567715341E+03  0.98208331264E+03  0.17300000000E+03 0. -1.
</event>
<event>
 4    1  0.6017350E+000  0.1000000E+03  0.7546771E-02  0.1280296E+00
         21   -1    0    0  503  502  0.00000000000E+00  0.00000000000E+00  0.24260160994E+03  0.24260160994E+03  0.00000000000E+00 0.  1.
         21   -1    0    0  501  503 -0.00000000000E+00 -0.00000000000E+00 -0.17547798772E+03  0.17547798772E+03  0.00000000000E+00 0.  1.
          6    1    1    2  501    0  0.17892833602E+01 -0.10890669106E+03  0.52957808219E+01  0.20450162392E+03  0.17300000000E+03 0.  1.
         -6    1    1    2    0  502 -0.17892833602E+01  0.10890669106E+03  0.61827841401E+02  0.21357797373E+03  0.17300000000E+03 0.  1.
</event>
<event>
 4    1  0.6017350E+000  0.1000000E+03  0.7546771E-02  0.1280296E+00
         21   -1    0    0  503  502  0.00000000000E+00  0.00000000000E+00  0.43627612488E+03  0.43627612488E+03  0.00000000000E+00 0.  1.
         21   -1    0    0  501  503 -0.00000000000E+00 -0.00000000000E+00 -0.10044928133E+03  0.10044928133E+03  0.00000000000E+00 0.  1.
          6    1    1    2  501    0 -0.10187198329E+03  0.26238336455E+02  0.99737879863E+02  0.22570555146E+03  0.17300000000E+03 0.  1.
         -6    1    1    2    0  502  0.10187198329E+03 -0.26238336455E+02  0.23608896369E+03  0.31101985476E+03  0.17300000000E+03 0.  1.
</event>
<event>
 4    1  0.6017350E+000  0.1000000E+03  0.7546771E-02  0.1280296E+00
         21   -1    0    0  503  502  0.00000000000E+00  0.00000000000E+00  0.32028239758E+03  0.32028239758E+03  0.00000000000E+00 0.  1.
         21   -1    0    0  501  503 -0.00000000000E+00 -0.00000000000E+00 -0.16002971679E+03  0.16002971679E+03  0.00000000000E+00 0.  1.
          6    1    1    2  501    0  0.92860089484E+02 -0.36219006549E+02 -0.33089057098E+02  0.20238255447E+03  0.17300000000E+03 0.  1.
         -6    1    1    2    0  502 -0.92860089484E+02  0.36219006549E+02  0.19334173788E+03  0.27792955989E+03  0.17300000000E+03 0.  1.
</event>
<event>
 4    1  0.6017350E+000  0.1000000E+03  0.7546771E-02  0.1280296E+00
         21   -1    0    0  501  502  0.00000000000E+00  0.00000000000E+00  0.20054744365E+04  0.20054744365E+04  0.00000000000E+00 0. -1.
         21   -1    0    0  502  503 -0.00000000000E+00 -0.00000000000E+00 -0.99690103917E+03  0.99690103917E+03  0.00000000000E+00 0.  1.
          6    1    1    2  501    0  0.11705381992E+03  0.76470048250E+03  0.17473616280E+04  0.19187678556E+04  0.17300000000E+03 0. -1.
         -6    1    1    2    0  503 -0.11705381992E+03 -0.76470048250E+03 -0.73878823061E+03  0.10836076201E+04  0.17300000000E+03 0.  1.
</event>
<event>
 4    1  0.6017350E+000  0.1000000E+03  0.7546771E-02  0.1280296E+00
         21   -1    0    0  501  502  0.00000000000E+00  0.00000000000E+00  0.93464932517E+02  0.93464932517E+02  0.00000000000E+00 0. -1.
         21   -1    0    0  502  503 -0.00000000000E+00 -0.00000000000E+00 -0.75389487960E+03  0.75389487960E+03  0.00000000000E+00 0.  1.
          6    1    1    2  501    0 -0.51622149679E+02  0.11255751560E+03 -0.76844647495E+02  0.22620375882E+03  0.17300000000E+03 0. -1.
         -6    1    1    2    0  503  0.51622149679E+02 -0.11255751560E+03 -0.58358529959E+03  0.62115605330E+03  0.17300000000E+03 0.  1.
</event>
<event>
 4    1  0.6017350E+000  0.1000000E+03  0.7546771E-02  0.1280296E+00
         21   -1    0    0  501  502  0.00000000000E+00  0.00000000000E+00  0.72863920626E+03  0.72863920626E+03  0.00000000000E+00 0. -1.
         21   -1    0    0  502  503 -0.00000000000E+00 -0.00000000000E+00 -0.14129589077E+03  0.14129589077E+03  0.00000000000E+00 0.  1.
          6    1    1    2  501    0  0.25513938294E+03 -0.17588912314E+02  0.41200086840E+03  0.51485841755E+03  0.17300000000E+03 0. -1.
         -6    1    1    2    0  503 -0.25513938294E+03  0.17588912314E+02  0.17534244709E+03  0.35507667948E+03  0.17300000000E+03 0.  1.
</event>
<event>
 4    1  0.6017350E+000  0.1000000E+03  0.7546771E-02  0.1280296E+00
         21   -1    0    0  501  502  0.00000000000E+00  0.00000000000E+00  0.14186152690E+03  0.14186152690E+03  0.00000000000E+00 0. -1.
         21   -1    0    0  502  503 -0.00000000000E+00 -0.00000000000E+00 -0.47053704952E+03  0.47053704952E+03  0.00000000000E+00 0.  1.
          6    1    1    2  501    0 -0.16603991067E+02 -0.30505988219E+02  0.59326337699E+02  0.18615832558E+03  0.17300000000E+03 0. -1.
         -6    1    1    2    0  503  0.16603991067E+02  0.30505988219E+02 -0.38800186032E+03  0.42624025085E+03  0.17300000000E+03 0.  1.
</event>
<event>
 4    1  0.6017350E+000  0.1000000E+03  0.7546771E-02  0.1280296E+00
         21   -1    0    0  501  502  0.00000000000E+00  0.00000000000E+00  0.14021439933E+03  0.14021439933E+03  0.00000000000E+00 0.  1.
         21   -1    0    0  502  503 -0.00000000000E+00 -0.00000000000E+00 -0.32696778286E+03  0.32696778286E+03  0.00000000000E+00 0. -1.
          6    1    1    2  501    0 -0.11600571379E+03  0.21105100772E+02 -0.44419104516E+02  0.21402057788E+03  0.17300000000E+03 0. -1.
         -6    1    1    2    0  503  0.11600571379E+03 -0.21105100772E+02 -0.14233427901E+03  0.25316160430E+03  0.17300000000E+03 0. -1.
</event>
<event>
 4    1  0.6017350E+000  0.1000000E+03  0.7546771E-02  0.1280296E+00
         21   -1    0    0  501  502  0.00000000000E+00  0.00000000000E+00  0.17939562400E+04  0.17939562400E+04  0.00000000000E+00 0.  1.
         21   -1    0    0  502  503 -0.00000000000E+00 -0.00000000000E+00 -0.28492578102E+02  0.28492578102E+02  0.00000000000E+00 0. -1.
          6    1    1    2  501    0 -0.42089891747E+02 -0.10829057194E+03  0.12361044325E+04  0.12535475959E+04  0.17300000000E+03 0. -1.
         -6    1    1    2    0  503  0.42089891747E+02  0.10829057194E+03  0.52935922942E+03  0.56890122229E+03  0.17300000000E+03 0. -1.
</event>
<event>
 4    1  0.6017350E+000  0.1000000E+03  0.7546771E-02  0.1280296E+00
         21   -1    0    0  501  502  0.00000000000E+00  0.00000000000E+00  0.44975015620E+03  0.44975015620E+03  0.00000000000E+00 0.  1.
         21   -1    0    0  502  503 -0.00000000000E+00 -0.00000000000E+00 -0.16645101414E+03  0.16645101414E+03  0.00000000000E+00 0. -1.
          6    1    1    2  501    0 -0.14217893196E+03  0.14543214102E+03  0.74395898978E+02  0.27718063807E+03  0.17300000000E+03 0. -1.
         -6    1    1    2    0  503  0.14217893196E+03 -0.14543214102E+03  0.20890324309E+03  0.33902053228E+03  0.17300000000E+03 0. -1.
</event>
<event>
 4    1  0.6017350E+000  0.1000000E+03  0.7546771E-02  0.1280296E+00
         21   -1    0    0  501  502  0.00000000000E+00  0.00000000000E+00  0.53352926048E+03  0.53352926048E+03  0.00000000000E+00 0. -1.
         21   -1    0    0  502  503 -0.00000000000E+00 -0.00000000000E+00 -0.10767718105E+03  0.10767718105E+03  0.00000000000E+00 0. -1.
          6    1    1    2  501    0 -0.50435940483E+02  0.13339685097E+03  0.32627881824E+03  0.39588555313E+03  0.17300000000E+03 0. -1.
         -6    1    1    2    0  503  0.50435940483E+02 -0.13339685097E+03  0.99573261191E+02  0.24532088840E+03  0.17300000000E+03 0. -1.
</event>
<event>
 4    1  0.6017350E+000  0.1000000E+03  0.7546771E-02  0.1280296E+00
         21   -1    0    0  501  502  0.00000000000E+00  0.00000000000E+00  0.36042878982E+03  0.36042878982E+03  0.00000000000E+00 0. -1.
         21   -1    0    0  502  503 -0.00000000000E+00 -0.00000000000E+00 -0.12185559377E+03  0.12185559377E+03  0.00000000000E+00 0. -1.
          6    1    1    2  501    0 -0.20206095846E+02 -0.55554354489E+02  0.23717387886E+03  0.29945787922E+03  0.17300000000E+03 0. -1.
         -6    1    1    2    0  503  0.20206095846E+02  0.55554354489E+02  0.13993171811E+01  0.18282650437E+03  0.17300000000E+03 0. -1.
</event>
<event>
 4    1  0.6017350E+000  0.1000000E+03  0.7546771E-02  0.1280296E+00
         21   -1    0    0  503  502  0.00000000000E+00  0.00000000000E+00  0.16318964777E+03  0.16318964777E+03  0.00000000000E+00 0. -1.
         21   -1    0    0  501  503 -0.00000000000E+00 -0.00000000000E+00 -0.10517711634E+04  0.10517711634E+04  0.00000000000E+00 0.  1.
          6    1    1    2  501    0 -0.79928972873E+02 -0.50279422721E+02 -0.97862391337E+03  0.99827372242E+03  0.17300000000E+03 0. -1.
         -6    1    1    2    0  502  0.79928972873E+02  0.50279422721E+02  0.90042397712E+02  0.21668708877E+03  0.17300000000E+03 0. -1.
</event>
<event>
 4    1  0.6017350E+000  0.1000000E+03  0.7546771E-02  0.1280296E+00
         21   -1    0    0  501  502  0.00000000000E+00  0.00000000000E+00  0.12160660354E+04  0.12160660354E+04  0.00000000000E+00 0.  1.
         21   -1    0    0  502  503 -0.00000000000E+00 -0.00000000000E+00 -0.82120461934E+02  0.82120461934E+02  0.00000000000E+00 0. -1.
          6    1    1    2  501    0  0.14318225877E+03 -0.60894627765E+01  0.10234841894E+04  0.10478488091E+04  0.17300000000E+03 0. -1.
         -6    1    1    2    0  503 -0.14318225877E+03  0.60894627765E+01  0.11046138408E+03  0.25033768825E+03  0.17300000000E+03 0.  1.
</event>
<event>
 4    1  0.6017350E+000  0.1000000E+03  0.7546771E-02  0.1280296E+00
         21   -1    0    0  501  502  0.00000000000E+00  0.00000000000E+00  0.50888102162E+03  0.50888102162E+03  0.00000000000E+00 0.  1.
         21   -1    0    0  502  503 -0.00000000000E+00 -0.00000000000E+00 -0.12512588160E+03  0.12512588160E+03  0.00000000000E+00 0. -1.
          6    1    1    2  501    0 -0.11957983702E+03  0.71155424507E+02  0.34253942968E+03  0.40819687988E+03  0.17300000000E+03 0. -1.
         -6    1    1    2    0  503  0.11957983702E+03 -0.71155424507E+02  0.41215710344E+02  0.22581002334E+03  0.17300000000E+03 0.  1.
</event>
<event>
 4    1  0.6017350E+000  0.1000000E+03  0.7546771E-02  0.1280296E+00
         21   -1    0    0  501  502  0.00000000000E+00  0.00000000000E+00  0.98061902931E+03  0.98061902931E+03  0.00000000000E+00 0.  1.
         21   -1    0    0  502  503 -0.00000000000E+00 -0.00000000000E+00 -0.60891054453E+02  0.60891054453E+02  0.00000000000E+00 0. -1.
          6    1    1    2  501    0  0.63366261289E+02  0.14549616411E+03  0.60436400933E+03  0.64835890726E+03  0.17300000000E+03 0. -1.
         -6    1    1    2    0  503 -0.63366261289E+02 -0.14549616411E+03  0.31536396552E+03  0.39315117651E+03  0.17300000000E+03 0.  1.
</event>
<event>
 4    1  0.6017350E+000  0.1000000E+03  0.7546771E-02  0.1280296E+00
         21   -1    0    0  503  502  0.00000000000E+00  0.00000000000E+00  0.34456141476E+02  0.34456141476E+02  0.00000000000E+00 0. -1.
         21   -1    0    0  501  503 -0.00000000000E+00 -0.00000000000E+00 -0.17680244935E+04  0.17680244935E+04  0.00000000000E+00 0. -1.
          6    1    1    2  501    0 -0.14511622227E+03 -0.75772141065E+02 -0.63042155041E+03  0.67391428724E+03  0.17300000000E+03 0. -1.
         -6    1    1    2    0  502  0.14511622227E+03  0.75772141065E+02 -0.11031468016E+04  0.11285663477E+04  0.17300000000E+03 0. -1.
</event>
<event>
 4    1  0.6017350E+000  0.1000000E+03  0.7546771E-02  0.1280296E+00
         21   -1    0    0  501  502  0.00000000000E+00  0.00000000000E+00  0.14209573886E+03  0.14209573886E+03  0.00000000000E+00 0. -1.
         21   -1    0    0  502  503 -0.00000000000E+00 -0.00000000000E+00 -0.28361781373E+03  0.28361781373E+03  0.00000000000E+00 0. -1.
          6    1    1    2  501    0 -0.55500170182E+02  0.23040937285E+02  0.16420990778E+02  0.18387442079E+03  0.17300000000E+03 0. -1.
         -6    1    1    2    0  503  0.55500170182E+02 -0.23040937285E+02 -0.15794306565E+03  0.24183913179E+03  0.17300000000E+03 0. -1.
</event>
<event>
 4    1  0.6017350E+000  0.1000000E+03  0.7546771E-02  0.1280296E+00
         21   -1    0    0  501  502  0.00000000000E+00  0.00000000000E+00  0.82230858626E+02  0.82230858626E+02  0.00000000000E+00 0. -1.
         21   -1    0    0  502  503 -0.00000000000E+00 -0.00000000000E+00 -0.74188714643E+03  0.74188714643E+03  0.00000000000E+00 0. -1.
          6    1    1    2  501    0 -0.87497809309E+01  0.10987468999E+03 -0.10030548859E+03  0.22834009111E+03  0.17300000000E+03 0. -1.
         -6    1    1    2    0  503  0.87497809309E+01 -0.10987468999E+03 -0.55935079921E+03  0.59577791395E+03  0.17300000000E+03 0. -1.
</event>
<event>
 4    1  0.6017350E+000  0.1000000E+03  0.7546771E-02  0.1280296E+00
         21   -1    0    0  501  502  0.00000000000E+00  0.00000000000E+00  0.42375714413E+03  0.42375714413E+03  0.00000000000E+00 0. -1.
         21   -1    0    0  502  503 -0.00000000000E+00 -0.00000000000E+00 -0.21245342619E+03  0.21245342619E+03  0.00000000000E+00 0. -1.
          6    1    1    2  501    0 -0.48781567188E+02 -0.13301498309E+03  0.31775992425E+03  0.38855243723E+03  0.17300000000E+03 0. -1.
         -6    1    1    2    0  503  0.48781567188E+02  0.13301498309E+03 -0.10645620631E+03  0.24765813309E+03  0.17300000000E+03 0. -1.
</event>
<event>
 4    1  0.6017350E+000  0.1000000E+03  0.7546771E-02  0.1280296E+00
         21   -1    0    0  503  502  0.00000000000E+00  0.00000000000E+00  0.87163883348E+03  0.87163883348E+03  0.00000000000E+00 0.  1.
         21   -1    0    0  501  503 -0.00000000000E+00 -0.00000000000E+00 -0.10823641587E+03  0.10823641587E+03  0.00000000000E+00 0.  1.
          6    1    1    2  501    0  0.13983775010E+02  0.78448042148E+02 -0.26611581388E+01  0.19048811785E+03  0.17300000000E+03 0.  1.
         -6    1    1    2    0  502 -0.13983775010E+02 -0.78448042148E+02  0.76606357575E+03  0.78938713150E+03  0.17300000000E+03 0.  1.
</event>
<event>
 4    1  0.6017350E+000  0.1000000E+03  0.7546771E-02  0.1280296E+00
         21   -1    0    0  503  502  0.00000000000E+00  0.00000000000E+00  0.35379234170E+03  0.35379234170E+03  0.00000000000E+00 0.  1.
         21   -1    0    0  501  503 -0.00000000000E+00 -0.00000000000E+00 -0.13675384828E+03  0.13675384828E+03  0.00000000000E+00 0.  1.
          6    1    1    2  501    0  0.66095918022E+02 -0.10392689083E+03  0.17242017632E+03  0.27354558344E+03  0.17300000000E+03 0.  1.
         -6    1    1    2    0  502 -0.66095918022E+02  0.10392689083E+03  0.44618317097E+02  0.21700060654E+03  0.17300000000E+03 0.  1.
</event>
<event>
 4    1  0.6017350E+000  0.1000000E+03  0.7546771E-02  0.1280296E+00
         21   -1    0    0  503  502  0.00000000000E+00  0.00000000000E+00  0.16976277377E+03  0.16976277377E+03  0.00000000000E+00 0.  1.
         21   -1    0    0  501  503 -0.00000000000E+00 -0.00000000000E+00 -0.20197939026E+03  0.20197939026E+03  0.00000000000E+00 0.  1.
          6    1    1    2  501    0  0.85237810428E+01 -0.63157306216E+02 -0.33438544337E+02  0.18737298743E+03  0.17300000000E+03 0.  1.
         -6    1    1    2    0  502 -0.85237810428E+01  0.63157306216E+02  0.12219278553E+01  0.18436917660E+03  0.17300000000E+03 0.  1.
</event>
<event>
 4    1  0.6017350E+000  0.1000000E+03  0.7546771E-02  0.1280296E+00
         21   -1    0    0  503  502  0.00000000000E+00  0.00000000000E+00  0.38060973992E+03  0.38060973992E+03  0.00000000000E+00 0.  1.
         21   -1    0    0  501  503 -0.00000000000E+00 -0.00000000000E+00 -0.10126829300E+03  0.10126829300E+03  0.00000000000E+00 0.  1.
          6    1    1    2  501    0 -0.69840944502E+02  0.60160231867E+02  0.15298433411E+03  0.24865682679E+03  0.17300000000E+03 0.  1.
         -6    1    1    2    0  502  0.69840944502E+02 -0.60160231867E+02  0.12635711281E+03  0.23322120612E+03  0.17300000000E+03 0.  1.
</event>
<event>
 4    1  0.6017350E+000  0.1000000E+03  0.7546771E-02  0.1280296E+00
         21   -1    0    0  503  502  0.00000000000E+00  0.00000000000E+00  0.24605690538E+03  0.24605690538E+03  0.00000000000E+00 0.  1.
         21   -1    0    0  501  503 -0.00000000000E+00 -0.00000000000E+00 -0.12292872545E+03  0.12292872545E+03  0.00000000000E+00 0. -1.
          6    1    1    2  501    0  0.65559516769E+01 -0.64583584315E+01  0.45344861657E+02  0.17908056113E+03  0.17300000000E+03 0. -1.
         -6    1    1    2    0  502 -0.65559516769E+01  0.64583584315E+01  0.77783318269E+02  0.18990506970E+03  0.17300000000E+03 0.  1.
</event>
<event>
 4    1  0.6017350E+000  0.1000000E+03  0.7546771E-02  0.1280296E+00
         21   -1    0    0  501  502  0.00000000000E+00  0.00000000000E+00  0.94087911462E+02  0.94087911462E+02  0.00000000000E+00 0.  1.
         21   -1    0    0  502  503 -0.00000000000E+00 -0.00000000000E+00 -0.74855642351E+03  0.74855642351E+03  0.00000000000E+00 0. -1.
          6    1    1    2  501    0 -0.15909582267E+03 -0.12101094489E+03 -0.36432998072E+03  0.45013382946E+03  0.17300000000E+03 0.  1.
         -6    1    1    2    0  503  0.15909582267E+03  0.12101094489E+03 -0.29013853133E+03  0.39251050551E+03  0.17300000000E+03 0. -1.
</event>
<event>
 4    1  0.6017350E+000  0.1000000E+03  0.7546771E-02  0.1280296E+00
         21   -1    0    0  501  502  0.00000000000E+00  0.00000000000E+00  0.24413877637E+03  0.24413877637E+03  0.00000000000E+00 0. -1.
         21   -1    0    0  502  503 -0.00000000000E+00 -0.00000000000E+00 -0.44376104353E+03  0.44376104353E+03  0.00000000000E+00 0. -1.
          6    1    1    2  501    0 -0.14752645959E+03 -0.39852026043E+02  0.14538442346E+03  0.27279639082E+03  0.17300000000E+03 0.  1.
         -6    1    1    2    0  503  0.14752645959E+03  0.39852026043E+02 -0.34500669063E+03  0.41510342908E+03  0.17300000000E+03 0.  1.
</event>
<event>
 4    1  0.6017350E+000  0.1000000E+03  0.7546771E-02  0.1280296E+00
         21   -1    0    0  501  502  0.00000000000E+00  0.00000000000E+00  0.16339776647E+03  0.16339776647E+03  0.00000000000E+00 0. -1.
         21   -1    0    0  502  503 -0.00000000000E+00 -0.00000000000E+00 -0.12174929691E+04  0.12174929691E+04  0.00000000000E+00 0.  1.
          6    1    1    2  501    0  0.13516492489E+03  0.30735442338E+02  0.72078074549E+02  0.23310614142E+03  0.17300000000E+03 0. -1.
         -6    1    1    2    0  503 -0.13516492489E+03 -0.30735442338E+02 -0.11261732771E+04  0.11477845941E+04  0.17300000000E+03 0.  1.
</event>
<event>
 4    1  0.6017350E+000  0.1000000E+03  0.7546771E-02  0.1280296E+00
         21   -1    0    0  501  502  0.00000000000E+00  0.00000000000E+00  0.21715509371E+03  0.21715509371E+03  0.00000000000E+00 0. -1.
         21   -1    0    0  502  503 -0.00000000000E+00 -0.00000000000E+00 -0.77296845003E+03  0.77296845003E+03  0.00000000000E+00 0.  1.
          6    1    1    2  501    0 -0.92967294982E+02 -0.11143456256E+03  0.13517384598E+03  0.26317588854E+03  0.17300000000E+03 0. -1.
         -6    1    1    2    0  503  0.92967294982E+02  0.11143456256E+03 -0.69098720230E+03  0.72694765520E+03  0.17300000000E+03 0.  1.
</event>
<event>
 4    1  0.6017350E+000  0.1000000E+03  0.7546771E-02  0.1280296E+00
         21   -1    0    0  501  502  0.00000000000E+00  0.00000000000E+00  0.27144168412E+03  0.27144168412E+03  0.00000000000E+00 0. -1.
         21   -1    0    0  502  503 -0.00000000000E+00 -0.00000000000E+00 -0.56182360697E+03  0.56182360697E+03  0.00000000000E+00 0.  1.
          6    1    1    2  501    0 -0.17039906518E+03 -0.12939821360E+03  0.15045882345E+03  0.31360260945E+03  0.17300000000E+03 0. -1.
         -6    1    1    2    0  503  0.17039906518E+03  0.12939821360E+03 -0.44084074629E+03  0.51966268164E+03  0.17300000000E+03 0.  1.
</event>
<event>
 4    1  0.6017350E+000  0.1000000E+03  0.7546771E-02  0.1280296E+00
         21   -1    0    0  501  502  0.00000000000E+00  0.00000000000E+00  0.18019691140E+04  0.18019691140E+04  0.00000000000E+00 0. -1.
         21   -1    0    0  502  503 -0.00000000000E+00 -0.00000000000E+00 -0.64753445445E+02  0.64753445445E+02  0.00000000000E+00 0.  1.
          6    1    1    2  501    0 -0.53307746525E+02 -0.45818033992E+02  0.16501594887E+04  0.16606915265E+04  0.17300000000E+03 0. -1.
         -6    1    1    2    0  503  0.53307746525E+02  0.45818033992E+02  0.87056179844E+02  0.20603103292E+03  0.17300000000E+03 0.  1.
</event>
<event>
 4    1  0.6017350E+000  0.1000000E+03  0.7546771E-02  0.1280296E+00
         21   -1    0    0  501  502  0.00000000000E+00  0.00000000000E+00  0.19188973064E+04  0.19188973064E+04  0.00000000000E+00 0. -1.
         21   -1    0    0  502  503 -0.00000000000E+00 -0.00000000000E+00 -0.94727938561E+02  0.94727938561E+02  0.00000000000E+00 0.  1.
          6    1    1    2  501    0  0.15271538104E+03 -0.17776143816E+03  0.16472708425E+04  0.16728273507E+04  0.17300000000E+03 0. -1.
         -6    1    1    2    0  503 -0.15271538104E+03  0.17776143816E+03  0.17689852533E+03  0.34079789431E+03  0.17300000000E+03 0.  1.
</event>
<event>
 4    1  0.6017350E+000  0.1000000E+03  0.7546771E-02  0.1280296E+00
         21   -1    0    0  501  502  0.00000000000E+00  0.00000000000E+00  0.46994444780E+03  0.46994444780E+03  0.00000000000E+00 0. -1.
         21   -1    0    0  502  503 -0.00000000000E+00 -0.00000000000E+00 -0.10060398746E+03  0.10060398746E+03  0.00000000000E+00 0.  1.
          6    1    1    2  501    0  0.13003032895E+03 -0.85251493699E+01  0.20986326182E+03  0.30158274699E+03  0.17300000000E+03 0. -1.
         -6    1    1    2    0  503 -0.13003032895E+03  0.85251493699E+01  0.15947719852E+03  0.26896568827E+03  0.17300000000E+03 0.  1.
</event>
<event>
 4    1  0.6017350E+000  0.1000000E+03  0.7546771E-02  0.1280296E+00
         21   -1    0    0  503  502  0.00000000000E+00  0.00000000000E+00  0.43220920021E+02  0.43220920021E+02  0.00000000000E+00 0. -1.
         21   -1    0    0  501  503 -0.00000000000E+00 -0.00000000000E+00 -0.96954695301E+03  0.96954695301E+03  0.00000000000E+00 0. -1.
          6    1    1    2  501    0 -0.90783883504E+02 -0.60872984794E+02 -0.44996223448E+03  0.49430986864E+03  0.17300000000E+03 0. -1.
         -6    1    1    2    0  502  0.90783883504E+02  0.60872984794E+02 -0.47636379851E+03  0.51845800439E+03  0.17300000000E+03 0. -1.
</event>
<event>
 4    1  0.6017350E+000  0.1000000E+03  0.7546771E-02  0.1280296E+00
         21   -1    0    0  503  502  0.00000000000E+00  0.00000000000E+00  0.38965382135E+03  0.38965382135E+03  0.00000000000E+00 0. -1.
         21   -1    0    0  501  503 -0.00000000000E+00 -0.00000000000E+00 -0.15982147832E+03  0.15982147832E+03  0.00000000000E+00 0. -1.
          6    1    1    2  501    0 -0.16368494080E+03 -0.38727555339E+02  0.44823207615E+02  0.24541944366E+03  0.17300000000E+03 0. -1.
         -6    1    1    2    0  502  0.16368494080E+03  0.38727555339E+02  0.18500913542E+03  0.30405585601E+03  0.17300000000E+03 0. -1.
</event>
<event>
 4    1  0.6017350E+000  0.1000000E+03  0.7546771E-02  0.1280296E+00
         21   -1    0    0  503  502  0.00000000000E+00  0.00000000000E+00  0.84148160722E+02  0.84148160722E+02  0.00000000000E+00 0. -1.
         21   -1    0    0  501  503 -0.00000000000E+00 -0.00000000000E+00 -0.61397592958E+03  0.61397592958E+03  0.00000000000E+00 0. -1.
          6    1    1    2  501    0  0.47036897752E+02 -0.13849510826E+03 -0.29333793216E+03  0.37063392614E+03  0.17300000000E+03 0. -1.
         -6    1    1    2    0  502 -0.47036897752E+02  0.13849510826E+03 -0.23648983671E+03  0.32749016417E+03  0.17300000000E+03 0. -1.
</event>
<event>
 4    1  0.6017350E+000  0.1000000E+03  0.7546771E-02  0.1280296E+00
         21   -1    0    0  503  502  0.00000000000E+00  0.00000000000E+00  0.55815212242E+03  0.55815212242E+03  0.00000000000E+00 0. -1.
         21   -1    0    0  501  503 -0.00000000000E+00 -0.00000000000E+00 -0.12221409892E+03  0.12221409892E+03  0.00000000000E+00 0. -1.
          6    1    1    2  501    0  0.18586108045E+03 -0.60769218416E+02  0.22697598021E+03  0.34595423791E+03  0.17300000000E+03 0. -1.
         -6    1    1    2    0  502 -0.18586108045E+03  0.60769218416E+02  0.20896204329E+03  0.33441198344E+03  0.17300000000E+03 0. -1.
</event>
<event>
 4    1  0.6017350E+000  0.1000000E+03  0.7546771E-02  0.1280296E+00
         21   -1    0    0  501  502  0.00000000000E+00  0.00000000000E+00  0.47581735877E+03  0.47581735877E+03  0.00000000000E+00 0.  1.
         21   -1    0    0  502  503 -0.00000000000E+00 -0.00000000000E+00 -0.29335003464E+03  0.29335003464E+03  0.00000000000E+00 0.  1.
          6    1    1    2  501    0  0.19462892452E+02 -0.78805876386E+02  0.42170117298E+03  0.46297953478E+03  0.17300000000E+03 0.  1.
         -6    1    1    2    0  503 -0.19462892452E+02  0.78805876386E+02 -0.23923384885E+03  0.30618785863E+03  0.17300000000E+03 0.  1.
</event>
<event>
 4    1  0.6017350E+000  0.1000000E+03  0.7546771E-02  0.1280296E+00
         21   -1    0    0  501  502  0.00000000000E+00  0.00000000000E+00  0.17899056173E+03  0.17899056173E+03  0.00000000000E+00 0.  1.
         21   -1    0    0  502  503 -0.00000000000E+00 -0.00000000000E+00 -0.83857346621E+03  0.83857346621E+03  0.00000000000E+00 0.  1.
          6    1    1    2  501    0  0.72468646467E+02 -0.15448291175E+03  0.66476209139E+02  0.25192213306E+03  0.17300000000E+03 0.  1.
         -6    1    1    2    0  503 -0.72468646467E+02  0.15448291175E+03 -0.72605911361E+03  0.76564189489E+03  0.17300000000E+03 0.  1.
</event>
<event>
 4    1  0.6017350E+000  0.1000000E+03  0.7546771E-02  0.1280296E+00
         21   -1    0    0  503  502  0.00000000000E+00  0.00000000000E+00  0.43839572367E+02  0.43839572367E+02  0.00000000000E+00 0.  1.
         21   -1    0    0  501  503 -0.00000000000E+00 -0.00000000000E+00 -0.19744562844E+04  0.19744562844E+04  0.00000000000E+00 0. -1.
          6    1    1    2  501    0 -0.10491729919E+03  0.12284188167E+03 -0.15646569171E+04  0.15824594894E+04  0.17300000000E+03 0. -1.
         -6    1    1    2    0  502  0.10491729919E+03 -0.12284188167E+03 -0.36595979497E+03  0.43583636734E+03  0.17300000000E+03 0.  1.
</event>
<event>
 4    1  0.6017350E+000  0.1000000E+03  0.7546771E-02  0.1280296E+00
         21   -1    0    0  503  502  0.00000000000E+00  0.00000000000E+00  0.53199033897E+03  0.53199033897E+03  0.00000000000E+00 0.  1.
         21   -1    0    0  501  503 -0.00000000000E+00 -0.00000000000E+00 -0.98115342548E+02  0.98115342548E+02  0.00000000000E+00 0. -1.
          6    1    1    2  501    0  0.44770337699E+02  0.22232201047E+01  0.20663713527E+02  0.17990362671E+03  0.17300000000E+03 0. -1.
         -6    1    1    2    0  502 -0.44770337699E+02 -0.22232201047E+01  0.41321128290E+03  0.45020205481E+03  0.17300000000E+03 0.  1.
</event>
<event>
 4    1  0.6017350E+000  0.1000000E+03  0.7546771E-02  0.1280296E+00
         21   -1    0    0  503  502  0.00000000000E+00  0.00000000000E+00  0.17777720617E+04  0.17777720617E+04  0.00000000000E+00 0.  1.
         21   -1    0    0  501  503 -0.00000000000E+00 -0.00000000000E+00 -0.13143828817E+03  0.13143828817E+03  0.00000000000E+00 0. -1.
          6    1    1    2  501    0  0.21977617100E+03  0.32402777317E+02  0.47223747746E+02  0.28550059136E+03  0.17300000000E+03 0. -1.
         -6    1    1    2    0  502 -0.21977617100E+03 -0.32402777317E+02  0.15991100258E+04  0.16237097586E+04  0.17300000000E+03 0.  1.
</event>
<event>
 4    1  0.6017350E+000  0.1000000E+03  0.7546771E-02  0.1280296E+00
         21   -1    0    0  501  502  0.00000000000E+00  0.00000000000E+00  0.17808681463E+04  0.17808681463E+04  0.00000000000E+00 0.  1.
         21   -1    0    0  502  503 -0.00000000000E+00 -0.00000000000E+00 -0.39129750536E+02  0.39129750536E+02  0.00000000000E+00 0.  1.
          6    1    1    2  501    0  0.53626758913E+02 -0.45202322987E+02  0.15142837641E+04  0.15257468327E+04  0.17300000000E+03 0.  1.
         -6    1    1    2    0  503 -0.53626758913E+02  0.45202322987E+02  0.22745463162E+03  0.29425106410E+03  0.17300000000E+03 0.  1.
</event>
<event>
 4    1  0.6017350E+000  0.1000000E+03  0.7546771E-02  0.1280296E+00
         21   -1    0    0  503  502  0.00000000000E+00  0.00000000000E+00  0.25249204958E+03  0.25249204958E+03  0.00000000000E+00 0. -1.
         21   -1    0    0  501  503 -0.00000000000E+00 -0.00000000000E+00 -0.59895893142E+03  0.59895893142E+03  0.00000000000E+00 0.  1.
          6    1    1    2  501    0  0.34106276036E+01 -0.70453601253E+02 -0.54661207025E+03  0.57765828797E+03  0.17300000000E+03 0.  1.
         -6    1    1    2    0  502 -0.34106276036E+01  0.70453601253E+02  0.20014518841E+03  0.27379269303E+03  0.17300000000E+03 0. -1.
</event>
<event>
 4    1  0.6017350E+000  0.1000000E+03  0.7546771E-02  0.1280296E+00
         21   -1    0    0  503  502  0.00000000000E+00  0.00000000000E+00  0.29206587779E+03  0.29206587779E+03  0.00000000000E+00 0. -1.
         21   -1    0    0  501  503 -0.00000000000E+00 -0.00000000000E+00 -0.74695674687E+03  0.74695674687E+03  0.00000000000E+00 0.  1.
          6    1    1    2  501    0 -0.14384168277E+03  0.25785708922E+03 -0.58101664798E+03  0.67430709131E+03  0.17300000000E+03 0.  1.
         -6    1    1    2    0  502  0.14384168277E+03 -0.25785708922E+03  0.12612577890E+03  0.36471553335E+03  0.17300000000E+03 0. -1.
</event>
<event>
 4    1  0.6017350E+000  0.1000000E+03  0.7546771E-02  0.1280296E+00
         21   -1    0    0  503  502  0.00000000000E+00  0.00000000000E+00  0.19837936081E+03  0.19837936081E+03  0.00000000000E+00 0. -1.
         21   -1    0    0  501  503 -0.00000000000E+00 -0.00000000000E+00 -0.30909818823E+03  0.30909818823E+03  0.00000000000E+00 0.  1.
          6    1    1    2  501    0 -0.51141304974E+02  0.14570414653E+03 -0.14436301922E+03  0.27315712092E+03  0.17300000000E+03 0.  1.
         -6    1    1    2    0  502  0.51141304974E+02 -0.14570414653E+03  0.33644191799E+02  0.23432042811E+03  0.17300000000E+03 0. -1.
</event>
<event>
 4    1  0.6017350E+000  0.1000000E+03  0.7546771E-02  0.1280296E+00
         21   -1    0    0  503  502  0.00000000000E+00  0.00000000000E+00  0.22715822006E+03  0.22715822006E+03  0.00000000000E+00 0. -1.
         21   -1    0    0  501  503 -0.00000000000E+00 -0.00000000000E+00 -0.45056070124E+03  0.45056070124E+03  0.00000000000E+00 0.  1.
          6    1    1    2  501    0  0.13092164496E+03 -0.87606643963E-01 -0.36073552704E+03  0.42095083474E+03  0.17300000000E+03 0.  1.
         -6    1    1    2    0  502 -0.13092164496E+03  0.87606643963E-01  0.13733304586E+03  0.25676808657E+03  0.17300000000E+03 0. -1.
</event>
<event>
 4    1  0.6017350E+000  0.1000000E+03  0.7546771E-02  0.1280296E+00
         21   -1    0    0  503  502  0.00000000000E+00  0.00000000000E+00  0.33337977461E+03  0.33337977461E+03  0.00000000000E+00 0. -1.
         21   -1    0    0  501  503 -0.00000000000E+00 -0.00000000000E+00 -0.15091963129E+03  0.15091963129E+03  0.00000000000E+00 0.  1.
          6    1    1    2  501    0  0.69173587219E+02  0.12074440226E+03  0.56746083785E+02  0.22915783615E+03  0.17300000000E+03 0.  1.
         -6    1    1    2    0  502 -0.69173587219E+02 -0.12074440226E+03  0.12571405954E+03  0.25514156975E+03  0.17300000000E+03 0. -1.
</event>
<event>
 4    1  0.6017350E+000  0.1000000E+03  0.7546771E-02  0.1280296E+00
         21   -1    0    0  503  502  0.00000000000E+00  0.00000000000E+00  0.13076155025E+04  0.13076155025E+04  0.00000000000E+00 0. -1.
         21   -1    0    0  501  503 -0.00000000000E+00 -0.00000000000E+00 -0.31566312502E+02  0.31566312502E+02  0.00000000000E+00 0.  1.
          6    1    1    2  501    0 -0.97949404045E+02  0.21994647337E+02  0.52058444803E+03  0.55768720426E+03  0.17300000000E+03 0.  1.
         -6    1    1    2    0  502  0.97949404045E+02 -0.21994647337E+02  0.75546474201E+03  0.78149461079E+03  0.17300000000E+03 0. -1.
</event>
<event>
 4    1  0.6017350E+000  0.1000000E+03  0.7546771E-02  0.1280296E+00
         21   -1    0    0  501  502  0.00000000000E+00  0.00000000000E+00  0.20660126294E+03  0.20660126294E+03  0.00000000000E+00 0. -1.
         21   -1    0    0  502  503 -0.00000000000E+00 -0.00000000000E+00 -0.21819759212E+03  0.21819759212E+03  0.00000000000E+00 0.  1.
          6    1    1    2  501    0  0.31945117658E+02  0.11875089532E+03 -0.44524279432E+00  0.21225330133E+03  0.17300000000E+03 0.  1.
         -6    1    1    2    0  503 -0.31945117658E+02 -0.11875089532E+03 -0.11151086390E+02  0.21254555373E+03  0.17300000000E+03 0.  1.
</event>
<event>
 4    1  0.6017350E+000  0.1000000E+03  0.7546771E-02  0.1280296E+00
         21   -1    0    0  503  502  0.00000000000E+00  0.00000000000E+00  0.18981310191E+03  0.18981310191E+03  0.00000000000E+00 0. -1.
         21   -1    0    0  501  503 -0.00000000000E+00 -0.00000000000E+00 -0.25333517101E+03  0.25333517101E+03  0.00000000000E+00 0. -1.
          6    1    1    2  501    0 -0.44786435305E+01 -0.90562150990E+02 -0.13247949132E+03  0.23601139180E+03  0.17300000000E+03 0.  1.
         -6    1    1    2    0  502  0.44786435305E+01  0.90562150990E+02  0.68957422223E+02  0.20713688112E+03  0.17300000000E+03 0.  1.
</event>
<event>
 4    1  0.6017350E+000  0.1000000E+03  0.7546771E-02  0.1280296E+00
         21   -1    0    0  503  502  0.00000000000E+00  0.00000000000E+00  0.22685468051E+03  0.22685468051E+03  0.00000000000E+00 0. -1.
         21   -1    0    0  501  503 -0.00000000000E+00 -0.00000000000E+00 -0.23353209855E+03  0.23353209855E+03  0.00000000000E+00 0. -1.
          6    1    1    2  501    0  0.12477195704E+03 -0.11430248481E+02 -0.89080789098E+02  0.23143698674E+03  0.17300000000E+03 0. -1.
         -6    1    1    2    0  502 -0.12477195704E+03  0.11430248481E+02  0.82403371061E+02  0.22894979233E+03  0.17300000000E+03 0. -1.
</event>
<event>
 4    1  0.6017350E+000  0.1000000E+03  0.7546771E-02  0.1280296E+00
         21   -1    0    0  503  502  0.00000000000E+00  0.00000000000E+00  0.47484499523E+03  0.47484499523E+03  0.00000000000E+00 0. -1.
         21   -1    0    0  501  503 -0.00000000000E+00 -0.00000000000E+00 -0.12302717799E+03  0.12302717799E+03  0.00000000000E+00 0. -1.
          6    1    1    2  501    0  0.13130609512E+03  0.10604315524E+03  0.17818891582E+03  0.30027775660E+03  0.17300000000E+03 0. -1.
         -6    1    1    2    0  502 -0.13130609512E+03 -0.10604315524E+03  0.17362890142E+03  0.29759441661E+03  0.17300000000E+03 0. -1.
</event>
<event>
 4    1  0.6017350E+000  0.1000000E+03  0.7546771E-02  0.1280296E+00
         21   -1    0    0  501  502  0.00000000000E+00  0.00000000000E+00  0.86542115114E+03  0.86542115114E+03  0.00000000000E+00 0. -1.
         21   -1    0    0  502  503 -0.00000000000E+00 -0.00000000000E+00 -0.97556294246E+02  0.97556294246E+02  0.00000000000E+00 0.  1.
          6    1    1    2  501    0 -0.22514551539E+03 -0.36929156092E+02  0.30201116622E+03  0.41616584457E+03  0.17300000000E+03 0. -1.
         -6    1    1    2    0  503  0.22514551539E+03  0.36929156092E+02  0.46585369068E+03  0.54681160081E+03  0.17300000000E+03 0.  1.
</event>
<event>
 4    1  0.6017350E+000  0.1000000E+03  0.7546771E-02  0.1280296E+00
         21   -1    0    0  501  502  0.00000000000E+00  0.00000000000E+00  0.31991593344E+03  0.31991593344E+03  0.00000000000E+00 0. -1.
         21   -1    0    0  502  503 -0.00000000000E+00 -0.00000000000E+00 -0.13539474560E+03  0.13539474560E+03  0.00000000000E+00 0.  1.
          6    1    1    2  501    0 -0.54122118966E+02  0.62685927719E+01  0.20390563813E+03  0.27290109615E+03  0.17300000000E+03 0. -1.
         -6    1    1    2    0  503  0.54122118966E+02 -0.62685927719E+01 -0.19384450292E+02  0.18240958289E+03  0.17300000000E+03 0.  1.
</event>
<event>
 4    1  0.6017350E+000  0.1000000E+03  0.7546771E-02  0.1280296E+00
         21   -1    0    0  501  502  0.00000000000E+00  0.00000000000E+00  0.33575954020E+03  0.33575954020E+03  0.00000000000E+00 0.  1.
         21   -1    0    0  502  503 -0.00000000000E+00 -0.00000000000E+00 -0.98876380098E+02  0.98876380098E+02  0.00000000000E+00 0.  1.
          6    1    1    2  501    0  0.53685451803E+02 -0.15697776055E+02  0.10427189389E+03  0.20959526656E+03  0.17300000000E+03 0. -1.
         -6    1    1    2    0  503 -0.53685451803E+02  0.15697776055E+02  0.13261126621E+03  0.22504065373E+03  0.17300000000E+03 0. -1.
</event>
<event>
 4    1  0.6017350E+000  0.1000000E+03  0.7546771E-02  0.1280296E+00
         21   -1    0    0  501  502  0.00000000000E+00  0.00000000000E+00  0.18172356962E+04  0.18172356962E+04  0.00000000000E+00 0.  1.
         21   -1    0    0  502  503 -0.00000000000E+00 -0.00000000000E+00 -0.18191350080E+03  0.18191350080E+03  0.00000000000E+00 0. -1.
          6    1    1    2  501    0 -0.12576952452E+03  0.18947037547E+03  0.16850602080E+04  0.17091149467E+04  0.17300000000E+03 0.  1.
         -6    1    1    2    0  503  0.12576952452E+03 -0.18947037547E+03 -0.49738012551E+02  0.29003425034E+03  0.17300000000E+03 0. -1.
</event>
<event>
 4    1  0.6017350E+000  0.1000000E+03  0.7546771E-02  0.1280296E+00
         21   -1    0    0  501  502  0.00000000000E+00  0.00000000000E+00  0.21469186937E+03  0.21469186937E+03  0.00000000000E+00 0.  1.
         21   -1    0    0  502  503 -0.00000000000E+00 -0.00000000000E+00 -0.24673842701E+03  0.24673842701E+03  0.00000000000E+00 0.  1.
          6    1    1    2  501    0  0.86968516043E+02 -0.16354892982E+02  0.10761515002E+03  0.22212839940E+03  0.17300000000E+03 0.  1.
         -6    1    1    2    0  503 -0.86968516043E+02  0.16354892982E+02 -0.13966170767E+03  0.23930189698E+03  0.17300000000E+03 0.  1.
</event>
<event>
 4    1  0.6017350E+000  0.1000000E+03  0.7546771E-02  0.1280296E+00
         21   -1    0    0  501  502  0.00000000000E+00  0.00000000000E+00  0.62076608536E+02  0.62076608536E+02  0.00000000000E+00 0.  1.
         21   -1    0    0  502  503 -0.00000000000E+00 -0.00000000000E+00 -0.87120171438E+03  0.87120171438E+03  0.00000000000E+00 0.  1.
          6    1    1    2  501    0 -0.15298238174E+03 -0.18652538130E+02 -0.44473045421E+03  0.50146356119E+03  0.17300000000E+03 0.  1.
         -6    1    1    2    0  503  0.15298238174E+03  0.18652538130E+02 -0.36439465163E+03  0.43181476172E+03  0.17300000000E+03 0.  1.
</event>
<event>
 4    1  0.6017350E+000  0.1000000E+03  0.7546771E-02  0.1280296E+00
         21   -1    0    0  501  502  0.00000000000E+00  0.00000000000E+00  0.72878984190E+03  0.72878984190E+03  0.00000000000E+00 0.  1.
         21   -1    0    0  502  503 -0.00000000000E+00 -0.00000000000E+00 -0.86457057876E+02  0.86457057876E+02  0.00000000000E+00 0.  1.
          6    1    1    2  501    0 -0.15719586415E+03  0.68010854080E+01  0.46931710798E+03  0.52435135387E+03  0.17300000000E+03 0.  1.
         -6    1    1    2    0  503  0.15719586415E+03 -0.68010854080E+01  0.17301567605E+03  0.29089554591E+03  0.17300000000E+03 0.  1.
</event>
<event>
 4    1  0.6017350E+000  0.1000000E+03  0.7546771E-02  0.1280296E+00
         21   -1    0    0  501  502  0.00000000000E+00  0.00000000000E+00  0.28335274852E+03  0.28335274852E+03  0.00000000000E+00 0.  1.
         21   -1    0    0  502  503 -0.00000000000E+00 -0.00000000000E+00 -0.19278787700E+03  0.19278787700E+03  0.00000000000E+00 0.  1.
          6    1    1    2  501    0  0.87177612244E+02 -0.36694087924E+02  0.17312155374E+03  0.26238609821E+03  0.17300000000E+03 0.  1.
         -6    1    1    2    0  503 -0.87177612244E+02  0.36694087924E+02 -0.82556682228E+02  0.21375452731E+03  0.17300000000E+03 0.  1.
</event>
<event>
 4    1  0.6017350E+000  0.1000000E+03  0.7546771E-02  0.1280296E+00
         21   -1    0    0  501  502  0.00000000000E+00  0.00000000000E+00  0.11408647824E+04  0.11408647824E+04  0.00000000000E+00 0.  1.
         21   -1    0    0  502  503 -0.00000000000E+00 -0.00000000000E+00 -0.19020841063E+03  0.19020841063E+03  0.00000000000E+00 0.  1.
          6    1    1    2  501    0  0.96581916815E+02  0.14754154822E+03  0.10395756088E+04  0.10685237581E+04  0.17300000000E+03 0.  1.
         -6    1    1    2    0  503 -0.96581916815E+02 -0.14754154822E+03 -0.88919237017E+02  0.26254943500E+03  0.17300000000E+03 0.  1.
</event>
<event>
 4    1  0.6017350E+000  0.1000000E+03  0.7546771E-02  0.1280296E+00
         21   -1    0    0  503  502  0.00000000000E+00  0.00000000000E+00  0.29772137462E+03  0.29772137462E+03  0.00000000000E+00 0.  1.
         21   -1    0    0  501  503 -0.00000000000E+00 -0.00000000000E+00 -0.12584600877E+03  0.12584600877E+03  0.00000000000E+00 0.  1.
          6    1    1    2  501    0 -0.28309555585E+02  0.41186049138E+02  0.82598573760E+01  0.18026354824E+03  0.17300000000E+03 0.  1.
         -6    1    1    2    0  502  0.28309555585E+02 -0.41186049138E+02  0.16361550848E+03  0.24330383515E+03  0.17300000000E+03 0.  1.
</event>
<event>
 4    1  0.6017350E+000  0.1000000E+03  0.7546771E-02  0.1280296E+00
         21   -1    0    0  503  502  0.00000000000E+00  0.00000000000E+00  0.25220390930E+03  0.25220390930E+03  0.00000000000E+00 0.  1.
         21   -1    0    0  501  503 -0.00000000000E+00 -0.00000000000E+00 -0.12840048974E+03  0.12840048974E+03  0.00000000000E+00 0.  1.
          6    1    1    2  501    0 -0.66543480506E+01  0.48479665817E+02  0.70062175698E+02  0.19295664490E+03  0.17300000000E+03 0.  1.
         -6    1    1    2    0  502  0.66543480506E+01 -0.48479665817E+02  0.53741243861E+02  0.18764775415E+03  0.17300000000E+03 0.  1.
</event>
<event>
 4    1  0.6017350E+000  0.1000000E+03  0.7546771E-02  0.1280296E+00
         21   -1    0    0  503  502  0.00000000000E+00  0.00000000000E+00  0.14781659182E+03  0.14781659182E+03  0.00000000000E+00 0.  1.
         21   -1    0    0  501  503 -0.00000000000E+00 -0.00000000000E+00 -0.60394399233E+03  0.60394399233E+03  0.00000000000E+00 0.  1.
          6    1    1    2  501    0 -0.16194723172E+03 -0.18165464605E+03 -0.21436182139E+03  0.36756673783E+03  0.17300000000E+03 0.  1.
         -6    1    1    2    0  502  0.16194723172E+03  0.18165464605E+03 -0.24176557912E+03  0.38419384631E+03  0.17300000000E+03 0.  1.
</event>
<event>
 4    1  0.6017350E+000  0.1000000E+03  0.7546771E-02  0.1280296E+00
         21   -1    0    0  503  502  0.00000000000E+00  0.00000000000E+00  0.58738740740E+02  0.58738740740E+02  0.00000000000E+00 0.  1.
         21   -1    0    0  501  503 -0.00000000000E+00 -0.00000000000E+00 -0.65807104215E+03  0.65807104215E+03  0.00000000000E+00 0.  1.
          6    1    1    2  501    0  0.63482237905E+02  0.26183311670E+02 -0.18423277968E+03  0.26188981929E+03  0.17300000000E+03 0.  1.
         -6    1    1    2    0  502 -0.63482237905E+02 -0.26183311670E+02 -0.41509952173E+03  0.45491996360E+03  0.17300000000E+03 0.  1.
</event>
<event>
 4    1  0.6017350E+000  0.1000000E+03  0.7546771E-02  0.1280296E+00
         21   -1    0    0  501  502  0.00000000000E+00  0.00000000000E+00  0.11711982210E+03  0.11711982210E+03  0.00000000000E+00 0.  1.
         21   -1    0    0  502  503 -0.00000000000E+00 -0.00000000000E+00 -0.56632878385E+03  0.56632878385E+03  0.00000000000E+00 0. -1.
          6    1    1    2  501    0  0.29183374142E+02 -0.31944498402E+02  0.21946687711E+02  0.17967408663E+03  0.17300000000E+03 0. -1.
         -6    1    1    2    0  503 -0.29183374142E+02  0.31944498402E+02 -0.47115564946E+03  0.50377451932E+03  0.17300000000E+03 0.  1.
</event>
<event>
 4    1  0.6017350E+000  0.1000000E+03  0.7546771E-02  0.1280296E+00
         21   -1    0    0  501  502  0.00000000000E+00  0.00000000000E+00  0.23151645066E+03  0.23151645066E+03  0.00000000000E+00 0.  1.
         21   -1    0    0  502  503 -0.00000000000E+00 -0.00000000000E+00 -0.25716384331E+03  0.25716384331E+03  0.00000000000E+00 0. -1.
          6    1    1    2  501    0  0.12845538360E+03 -0.38914968848E+02  0.94998017263E+02  0.23868134335E+03  0.17300000000E+03 0. -1.
         -6    1    1    2    0  503 -0.12845538360E+03  0.38914968848E+02 -0.12064540991E+03  0.24999895062E+03  0.17300000000E+03 0.  1.
</event>
<event>
 4    1  0.6017350E+000  0.1000000E+03  0.7546771E-02  0.1280296E+00
         21   -1    0    0  503  502  0.00000000000E+00  0.00000000000E+00  0.46716835757E+03  0.46716835757E+03  0.00000000000E+00 0. -1.
         21   -1    0    0  501  503 -0.00000000000E+00 -0.00000000000E+00 -0.73478348660E+02  0.73478348660E+02  0.00000000000E+00 0. -1.
          6    1    1    2  501    0  0.57099444990E+02 -0.14704158687E+01  0.14768487076E+03  0.23452575507E+03  0.17300000000E+03 0. -1.
         -6    1    1    2    0  502 -0.57099444990E+02  0.14704158687E+01  0.24600513816E+03  0.30612095116E+03  0.17300000000E+03 0. -1.
</event>
<event>
 4    1  0.6017350E+000  0.1000000E+03  0.7546771E-02  0.1280296E+00
         21   -1    0    0  503  502  0.00000000000E+00  0.00000000000E+00  0.14603276700E+03  0.14603276700E+03  0.00000000000E+00 0. -1.
         21   -1    0    0  501  503 -0.00000000000E+00 -0.00000000000E+00 -0.36923681947E+03  0.36923681947E+03  0.00000000000E+00 0. -1.
          6    1    1    2  501    0  0.14334241396E+03 -0.15922274976E+02 -0.17427749681E+03  0.28478450164E+03  0.17300000000E+03 0. -1.
         -6    1    1    2    0  502 -0.14334241396E+03  0.15922274976E+02 -0.48926555654E+02  0.23048508483E+03  0.17300000000E+03 0. -1.
</event>
<event>
 4    1  0.6017350E+000  0.1000000E+03  0.7546771E-02  0.1280296E+00
         21   -1    0    0  501  502  0.00000000000E+00  0.00000000000E+00  0.44740395542E+03  0.44740395542E+03  0.00000000000E+00 0. -1.
         21   -1    0    0  502  503 -0.00000000000E+00 -0.00000000000E+00 -0.21041380562E+03  0.21041380562E+03  0.00000000000E+00 0. -1.
          6    1    1    2  501    0  0.17488357780E+03 -0.66549071715E+02  0.30166938416E+03  0.39490057239E+03  0.17300000000E+03 0. -1.
         -6    1    1    2    0  503 -0.17488357780E+03  0.66549071715E+02 -0.64679234364E+02  0.26291718865E+03  0.17300000000E+03 0. -1.
</event>
<event>
 4    1  0.6017350E+000  0.1000000E+03  0.7546771E-02  0.1280296E+00
         21   -1    0    0  501  502  0.00000000000E+00  0.00000000000E+00  0.57702158039E+02  0.57702158039E+02  0.00000000000E+00 0. -1.
         21   -1    0    0  502  503 -0.00000000000E+00 -0.00000000000E+00 -0.11156261903E+04  0.11156261903E+04  0.00000000000E+00 0. -1.
          6    1    1    2  501    0  0.35489462700E+02 -0.45004934840E+02 -0.12079908564E+03  0.21864666751E+03  0.17300000000E+03 0. -1.
         -6    1    1    2    0  503 -0.35489462700E+02  0.45004934840E+02 -0.93712494657E+03  0.95468168078E+03  0.17300000000E+03 0. -1.
</event>
<event>
 4    1  0.6017350E+000  0.1000000E+03  0.7546771E-02  0.1280296E+00
         21   -1    0    0  501  502  0.00000000000E+00  0.00000000000E+00  0.69498045835E+03  0.69498045835E+03  0.00000000000E+00 0. -1.
         21   -1    0    0  502  503 -0.00000000000E+00 -0.00000000000E+00 -0.91460064642E+02  0.91460064642E+02  0.00000000000E+00 0. -1.
          6    1    1    2  501    0  0.10233917846E+03  0.15058245686E+03  0.33612876969E+03  0.41959496371E+03  0.17300000000E+03 0. -1.
         -6    1    1    2    0  503 -0.10233917846E+03 -0.15058245686E+03  0.26739162402E+03  0.36684555928E+03  0.17300000000E+03 0. -1.
</event>
<event>
 4    1  0.6017350E+000  0.1000000E+03  0.7546771E-02  0.1280296E+00
         21   -1    0    0  501  502  0.00000000000E+00  0.00000000000E+00  0.57155502559E+03  0.57155502559E+03  0.00000000000E+00 0. -1.
         21   -1    0    0  502  503 -0.00000000000E+00 -0.00000000000E+00 -0.85094236530E+02  0.85094236530E+02  0.00000000000E+00 0. -1.
          6    1    1    2  501    0  0.83987955754E+02 -0.16092796942E+02  0.40214509399E+03  0.44605227434E+03  0.17300000000E+03 0. -1.
         -6    1    1    2    0  503 -0.83987955754E+02  0.16092796942E+02  0.84315695066E+02  0.21059698777E+03  0.17300000000E+03 0. -1.
</event>
<event>
 4    1  0.6017350E+000  0.1000000E+03  0.7546771E-02  0.1280296E+00
         21   -1    0    0  501  502  0.00000000000E+00  0.00000000000E+00  0.26145636608E+03  0.26145636608E+03  0.00000000000E+00 0. -1.
         21   -1    0    0  502  503 -0.00000000000E+00 -0.00000000000E+00 -0.34397989912E+03  0.34397989912E+03  0.00000000000E+00 0. -1.
          6    1    1    2  501    0  0.20389305977E+03  0.22111904473E+02  0.93960772345E+02  0.28428672653E+03  0.17300000000E+03 0. -1.
         -6    1    1    2    0  503 -0.20389305977E+03 -0.22111904473E+02 -0.17648430539E+03  0.32114953867E+03  0.17300000000E+03 0. -1.
</event>
<event>
 4    1  0.6017350E+000  0.1000000E+03  0.7546771E-02  0.1280296E+00
         21   -1    0    0  501  502  0.00000000000E+00  0.00000000000E+00  0.59071747766E+02  0.59071747766E+02  0.00000000000E+00 0.  1.
         21   -1    0    0  502  503 -0.00000000000E+00 -0.00000000000E+00 -0.69136336703E+03  0.69136336703E+03  0.00000000000E+00 0.  1.
          6    1    1    2  501    0  0.33556983401E+02 -0.96138813218E+02 -0.35938323424E+03  0.41164797048E+03  0.17300000000E+03 0. -1.
         -6    1    1    2    0  503 -0.33556983401E+02  0.96138813218E+02 -0.27290838502E+03  0.33878714432E+03  0.17300000000E+03 0. -1.
</event>
<event>
 4    1  0.6017350E+000  0.1000000E+03  0.7546771E-02  0.1280296E+00
         21   -1    0    0  501  502  0.00000000000E+00  0.00000000000E+00  0.18801781001E+03  0.18801781001E+03  0.00000000000E+00 0.  1.
         21   -1    0    0  502  503 -0.00000000000E+00 -0.00000000000E+00 -0.45457311605E+03  0.45457311605E+03  0.00000000000E+00 0.  1.
          6    1    1    2  501    0  0.93851503781E+02  0.12521042048E+03  0.60389344064E+02  0.24095980377E+03  0.17300000000E+03 0. -1.
         -6    1    1    2    0  503 -0.93851503781E+02 -0.12521042048E+03 -0.32694465010E+03  0.40163112229E+03  0.17300000000E+03 0. -1.
</event>
<event>
 4    1  0.6017350E+000  0.1000000E+03  0.7546771E-02  0.1280296E+00
         21   -1    0    0  503  502  0.00000000000E+00  0.00000000000E+00  0.73164375559E+03  0.73164375559E+03  0.00000000000E+00 0.  1.
         21   -1    0    0  501  503 -0.00000000000E+00 -0.00000000000E+00 -0.10145373561E+03  0.10145373561E+03  0.00000000000E+00 0.  1.
          6    1    1    2  501    0 -0.64632143927E+02 -0.61956009527E+00  0.88497034040E+01  0.18489190121E+03  0.17300000000E+03 0. -1.
         -6    1    1    2    0  502  0.64632143927E+02  0.61956009527E+00  0.62134031658E+03  0.64820558999E+03  0.17300000000E+03 0. -1.
</event>
<event>
 4    1  0.6017350E+000  0.1000000E+03  0.7546771E-02  0.1280296E+00
         21   -1    0    0  503  502  0.00000000000E+00  0.00000000000E+00  0.12426058892E+03  0.12426058892E+03  0.00000000000E+00 0.  1.
         21   -1    0    0  501  503 -0.00000000000E+00 -0.00000000000E+00 -0.41037529353E+03  0.41037529353E+03  0.00000000000E+00 0.  1.
          6    1    1    2  501    0  0.57822977325E+02 -0.88788641160E+01 -0.30029136243E+03  0.35146298992E+03  0.17300000000E+03 0. -1.
         -6    1    1    2    0  502 -0.57822977325E+02  0.88788641160E+01  0.14176657814E+02  0.18317289254E+03  0.17300000000E+03 0. -1.
</event>
<event>
 4    1  0.6017350E+000  0.1000000E+03  0.7546771E-02  0.1280296E+00
         21   -1    0    0  503  502  0.00000000000E+00  0.00000000000E+00  0.48782756354E+03  0.48782756354E+03  0.00000000000E+00 0.  1.
         21   -1    0    0  501  503 -0.00000000000E+00 -0.00000000000E+00 -0.10340010820E+03  0.10340010820E+03  0.00000000000E+00 0. -1.
          6    1    1    2  501    0  0.87296310473E+02  0.10022244009E+03  0.26244703096E+03  0.34128086290E+03  0.17300000000E+03 0. -1.
         -6    1    1    2    0  502 -0.87296310473E+02 -0.10022244009E+03  0.12198042437E+03  0.24994680884E+03  0.17300000000E+03 0.  1.
</event>
<event>
 4    1  0.6017350E+000  0.1000000E+03  0.7546771E-02  0.1280296E+00
         21   -1    0    0  503  502  0.00000000000E+00  0.00000000000E+00  0.17742216235E+03  0.17742216235E+03  0.00000000000E+00 0. -1.
         21   -1    0    0  501  503 -0.00000000000E+00 -0.00000000000E+00 -0.26731996067E+03  0.26731996067E+03  0.00000000000E+00 0. -1.
          6    1    1    2  501    0 -0.72672287732E+02 -0.12334884846E+02 -0.15710984044E+03  0.24504267537E+03  0.17300000000E+03 0. -1.
         -6    1    1    2    0  502  0.72672287732E+02  0.12334884846E+02  0.67212042115E+02  0.19969944765E+03  0.17300000000E+03 0. -1.
</event>
<event>
 4    1  0.6017350E+000  0.1000000E+03  0.7546771E-02  0.1280296E+00
         21   -1    0    0  503  502  0.00000000000E+00  0.00000000000E+00  0.47652002062E+03  0.47652002062E+03  0.00000000000E+00 0.  1.
         21   -1    0    0  501  503 -0.00000000000E+00 -0.00000000000E+00 -0.10343344665E+03  0.10343344665E+03  0.00000000000E+00 0.  1.
          6    1    1    2  501    0 -0.54031787517E+02  0.83714609270E+02  0.59695368576E+02  0.20837491907E+03  0.17300000000E+03 0.  1.
         -6    1    1    2    0  502  0.54031787517E+02 -0.83714609270E+02  0.31339120540E+03  0.37157854821E+03  0.17300000000E+03 0.  1.
</event>
<event>
 4    1  0.6017350E+000  0.1000000E+03  0.7546771E-02  0.1280296E+00
         21   -1    0    0  503  502  0.00000000000E+00  0.00000000000E+00  0.28151355531E+03  0.28151355531E+03  0.00000000000E+00 0.  1.
         21   -1    0    0  501  503 -0.00000000000E+00 -0.00000000000E+00 -0.15428654103E+03  0.15428654103E+03  0.00000000000E+00 0.  1.
          6    1    1    2  501    0  0.93619680773E+01  0.10829553078E+02 -0.56964095706E+02  0.18269875168E+03  0.17300000000E+03 0.  1.
         -6    1    1    2    0  502 -0.93619680773E+01 -0.10829553078E+02  0.18419110999E+03  0.25310134465E+03  0.17300000000E+03 0.  1.
</event>
<event>
 4    1  0.6017350E+000  0.1000000E+03  0.7546771E-02  0.1280296E+00
         21   -1    0    0  503  502  0.00000000000E+00  0.00000000000E+00  0.30373673347E+03  0.30373673347E+03  0.00000000000E+00 0. -1.
         21   -1    0    0  501  503 -0.00000000000E+00 -0.00000000000E+00 -0.12122254508E+03  0.12122254508E+03  0.00000000000E+00 0. -1.
          6    1    1    2  501    0  0.48813127843E+02  0.64334967463E+02  0.69985109058E+02  0.20334361307E+03  0.17300000000E+03 0. -1.
         -6    1    1    2    0  502 -0.48813127843E+02 -0.64334967463E+02  0.11252907933E+03  0.22161566548E+03  0.17300000000E+03 0. -1.
</event>
<event>
 4    1  0.6017350E+000  0.1000000E+03  0.7546771E-02  0.1280296E+00
         21   -1    0    0  501  502  0.00000000000E+00  0.00000000000E+00  0.13602027144E+04  0.13602027144E+04  0.00000000000E+00 0.  1.
         21   -1    0    0  502  503 -0.00000000000E+00 -0.00000000000E+00 -0.40734884072E+02  0.40734884072E+02  0.00000000000E+00 0.  1.
          6    1    1    2  501    0 -0.13334522375E+03  0.85158221785E+02  0.72256689045E+03  0.75964780169E+03  0.17300000000E+03 0.  1.
         -6    1    1    2    0  503  0.13334522375E+03 -0.85158221785E+02  0.59690093992E+03  0.64128979682E+03  0.17300000000E+03 0.  1.
</event>
<event>
 4    1  0.6017350E+000  0.1000000E+03  0.7546771E-02  0.1280296E+00
         21   -1    0    0  501  502  0.00000000000E+00  0.00000000000E+00  0.15063933259E+03  0.15063933259E+03  0.00000000000E+00 0.  1.
         21   -1    0    0  502  503 -0.00000000000E+00 -0.00000000000E+00 -0.36364849693E+03  0.36364849693E+03  0.00000000000E+00 0.  1.
          6    1    1    2  501    0  0.66841056409E+02 -0.94063348317E+02  0.11494150617E+02  0.20827087126E+03  0.17300000000E+03 0.  1.
         -6    1    1    2    0  503 -0.66841056409E+02  0.94063348317E+02 -0.22450331495E+03  0.30601695826E+03  0.17300000000E+03 0.  1.
</event>
<event>
 4    1  0.6017350E+000  0.1000000E+03  0.7546771E-02  0.1280296E+00
         21   -1    0    0  501  502  0.00000000000E+00  0.00000000000E+00  0.67174339295E+03  0.67174339295E+03  0.00000000000E+00 0. -1.
         21   -1    0    0  502  503 -0.00000000000E+00 -0.00000000000E+00 -0.47548748714E+02  0.47548748714E+02  0.00000000000E+00 0. -1.
          6    1    1    2  501    0 -0.36423647039E+02  0.51048885247E+00  0.36475083097E+03  0.40533826781E+03  0.17300000000E+03 0. -1.
         -6    1    1    2    0  503  0.36423647039E+02 -0.51048885247E+00  0.25944381326E+03  0.31395387385E+03  0.17300000000E+03 0. -1.
</event>
<event>
 4    1  0.6017350E+000  0.1000000E+03  0.7546771E-02  0.1280296E+00
         21   -1    0    0  503  502  0.00000000000E+00  0.00000000000E+00  0.42619443801E+03  0.42619443801E+03  0.00000000000E+00 0.  1.
         21   -1    0    0  501  503 -0.00000000000E+00 -0.00000000000E+00 -0.11427639293E+03  0.11427639293E+03  0.00000000000E+00 0.  1.
          6    1    1    2  501    0 -0.83808964534E+02  0.21954407562E+00  0.23220488926E+02  0.19362897986E+03  0.17300000000E+03 0.  1.
         -6    1    1    2    0  502  0.83808964534E+02 -0.21954407562E+00  0.28869755615E+03  0.34684185108E+03  0.17300000000E+03 0.  1.
</event>
<event>
 4    1  0.6017350E+000  0.1000000E+03  0.7546771E-02  0.1280296E+00
         21   -1    0    0  503  502  0.00000000000E+00  0.00000000000E+00  0.47425104723E+03  0.47425104723E+03  0.00000000000E+00 0.  1.
         21   -1    0    0  501  503 -0.00000000000E+00 -0.00000000000E+00 -0.11074657257E+03  0.11074657257E+03  0.00000000000E+00 0.  1.
          6    1    1    2  501    0  0.36864339883E+01  0.11657327095E+03  0.30276435839E+03  0.36769304318E+03  0.17300000000E+03 0.  1.
         -6    1    1    2    0  502 -0.36864339883E+01 -0.11657327095E+03  0.60740116264E+02  0.21730457662E+03  0.17300000000E+03 0.  1.
</event>
<event>
 4    1  0.6017350E+000  0.1000000E+03  0.7546771E-02  0.1280296E+00
         21   -1    0    0  501  502  0.00000000000E+00  0.00000000000E+00  0.37882306041E+03  0.37882306041E+03  0.00000000000E+00 0. -1.
         21   -1    0    0  502  503 -0.00000000000E+00 -0.00000000000E+00 -0.35244122701E+03  0.35244122701E+03  0.00000000000E+00 0. -1.
          6    1    1    2  501    0  0.13515677823E+02 -0.17819956744E+03  0.28103317894E+03  0.37529509329E+03  0.17300000000E+03 0. -1.
         -6    1    1    2    0  503 -0.13515677823E+02  0.17819956744E+03 -0.25465134554E+03  0.35596919413E+03  0.17300000000E+03 0. -1.
</event>
<event>
 4    1  0.6017350E+000  0.1000000E+03  0.7546771E-02  0.1280296E+00
         21   -1    0    0  501  502  0.00000000000E+00  0.00000000000E+00  0.14090829543E+04  0.14090829543E+04  0.00000000000E+00 0. -1.
         21   -1    0    0  502  503 -0.00000000000E+00 -0.00000000000E+00 -0.43687969749E+02  0.43687969749E+02  0.00000000000E+00 0. -1.
          6    1    1    2  501    0  0.13412204368E+03  0.78360736802E+01  0.10238757578E+04  0.10470437881E+04  0.17300000000E+03 0. -1.
         -6    1    1    2    0  503 -0.13412204368E+03 -0.78360736802E+01  0.34151922669E+03  0.40572713595E+03  0.17300000000E+03 0. -1.
</event>
<event>
 4    1  0.6017350E+000  0.1000000E+03  0.7546771E-02  0.1280296E+00
         21   -1    0    0  501  502  0.00000000000E+00  0.00000000000E+00  0.98223449908E+03  0.98223449908E+03  0.00000000000E+00 0. -1.
         21   -1    0    0  502  503 -0.00000000000E+00 -0.00000000000E+00 -0.13623647772E+03  0.13623647772E+03  0.00000000000E+00 0. -1.
          6    1    1    2  501    0 -0.39926589618E+02  0.16778749784E+02  0.91127460242E+03  0.92856128501E+03  0.17300000000E+03 0. -1.
         -6    1    1    2    0  503  0.39926589618E+02 -0.16778749784E+02 -0.65276581060E+02  0.18990969180E+03  0.17300000000E+03 0. -1.
</event>
<event>
 4    1  0.6017350E+000  0.1000000E+03  0.7546771E-02  0.1280296E+00
         21   -1    0    0  501  502  0.00000000000E+00  0.00000000000E+00  0.30574040774E+02  0.30574040774E+02  0.00000000000E+00 0. -1.
         21   -1    0    0  502  503 -0.00000000000E+00 -0.00000000000E+00 -0.12872975746E+04  0.12872975746E+04  0.00000000000E+00 0.  1.
          6    1    1    2  501    0  0.10641609469E+02  0.78267309895E+02 -0.44076994507E+03  0.48004808106E+03  0.17300000000E+03 0. -1.
         -6    1    1    2    0  503 -0.10641609469E+02 -0.78267309895E+02 -0.81595358878E+03  0.83782353434E+03  0.17300000000E+03 0.  1.
</event>
<event>
 4    1  0.6017350E+000  0.1000000E+03  0.7546771E-02  0.1280296E+00
         21   -1    0    0  501  502  0.00000000000E+00  0.00000000000E+00  0.13091366163E+03  0.13091366163E+03  0.00000000000E+00 0. -1.
         21   -1    0    0  502  503 -0.00000000000E+00 -0.00000000000E+00 -0.12219066931E+04  0.12219066931E+04  0.00000000000E+00 0.  1.
          6    1    1    2  501    0  0.30886405757E+02 -0.80335801830E+02  0.46736353761E+02  0.19879913953E+03  0.17300000000E+03 0. -1.
         -6    1    1    2    0  503 -0.30886405757E+02  0.80335801830E+02 -0.11377293852E+04  0.11540212152E+04  0.17300000000E+03 0.  1.
</event>
<event>
 4    1  0.6017350E+000  0.1000000E+03  0.7546771E-02  0.1280296E+00
         21   -1    0    0  501  502  0.00000000000E+00  0.00000000000E+00  0.16953353921E+04  0.16953353921E+04  0.00000000000E+00 0. -1.
         21   -1    0    0  502  503 -0.00000000000E+00 -0.00000000000E+00 -0.38308036029E+02  0.38308036029E+02  0.00000000000E+00 0.  1.
          6    1    1    2  501    0  0.69078079448E+02  0.16843955995E+03  0.97569241625E+03  0.10074960831E+04  0.17300000000E+03 0. -1.
         -6    1    1    2    0  503 -0.69078079448E+02 -0.16843955995E+03  0.68133493986E+03  0.72614734502E+03  0.17300000000E+03 0.  1.
</event>
<event>
 4    1  0.6017350E+000  0.1000000E+03  0.7546771E-02  0.1280296E+00
         21   -1    0    0  503  502  0.00000000000E+00  0.00000000000E+00  0.29357493096E+03  0.29357493096E+03  0.00000000000E+00 0.  1.
         21   -1    0    0  501  503 -0.00000000000E+00 -0.00000000000E+00 -0.23841353163E+03  0.23841353163E+03  0.00000000000E+00 0. -1.
          6    1    1    2  501    0  0.35513825924E+02 -0.14539292960E+03 -0.10604140018E+03  0.25213907742E+03  0.17300000000E+03 0. -1.
         -6    1    1    2    0  502 -0.35513825924E+02  0.14539292960E+03  0.16120279951E+03  0.27984938517E+03  0.17300000000E+03 0. -1.
</event>
<event>
 4    1  0.6017350E+000  0.1000000E+03  0.7546771E-02  0.1280296E+00
         21   -1    0    0  501  502  0.00000000000E+00  0.00000000000E+00  0.67583696193E+03  0.67583696193E+03  0.00000000000E+00 0.  1.
         21   -1    0    0  502  503 -0.00000000000E+00 -0.00000000000E+00 -0.75002178802E+02  0.75002178802E+02  0.00000000000E+00 0.  1.
          6    1    1    2  501    0  0.60134938368E+02  0.38468242869E+02  0.50911309035E+03  0.54242156602E+03  0.17300000000E+03 0.  1.
         -6    1    1    2    0  503 -0.60134938368E+02 -0.38468242869E+02  0.91721692782E+02  0.20841757471E+03  0.17300000000E+03 0.  1.
</event>
<event>
 4    1  0.6017350E+000  0.1000000E+03  0.7546771E-02  0.1280296E+00
         21   -1    0    0  501  502  0.00000000000E+00  0.00000000000E+00  0.13099502902E+04  0.13099502902E+04  0.00000000000E+00 0.  1.
         21   -1    0    0  502  503 -0.00000000000E+00 -0.00000000000E+00 -0.48146769879E+03  0.48146769879E+03  0.00000000000E+00 0.  1.
          6    1    1    2  501    0 -0.44797685958E+02  0.23464657314E+03  0.12458847538E+04  0.12803217044E+04  0.17300000000E+03 0.  1.
         -6    1    1    2    0  503  0.44797685958E+02 -0.23464657314E+03 -0.41740216240E+03  0.51109628460E+03  0.17300000000E+03 0.  1.
</event>
<event>
 4    1  0.6017350E+000  0.1000000E+03  0.7546771E-02  0.1280296E+00
         21   -1    0    0  501  502  0.00000000000E+00  0.00000000000E+00  0.20481617631E+03  0.20481617631E+03  0.00000000000E+00 0.  1.
         21   -1    0    0  502  503 -0.00000000000E+00 -0.00000000000E+00 -0.19108124073E+03  0.19108124073E+03  0.00000000000E+00 0.  1.
          6    1    1    2  501    0 -0.73473743639E+02  0.53067024880E+02  0.38398811273E+02  0.19904263071E+03  0.17300000000E+03 0.  1.
         -6    1    1    2    0  503  0.73473743639E+02 -0.53067024880E+02 -0.24663875690E+02  0.19685478632E+03  0.17300000000E+03 0.  1.
</event>
<event>
 4    1  0.6017350E+000  0.1000000E+03  0.7546771E-02  0.1280296E+00
         21   -1    0    0  501  502  0.00000000000E+00  0.00000000000E+00  0.75221921908E+02  0.75221921908E+02  0.00000000000E+00 0.  1.
         21   -1    0    0  502  503 -0.00000000000E+00 -0.00000000000E+00 -0.44575184240E+03  0.44575184240E+03  0.00000000000E+00 0.  1.
          6    1    1    2  501    0 -0.20160716218E+02  0.12279193096E+02 -0.10677847089E+03  0.20466527528E+03  0.17300000000E+03 0.  1.
         -6    1    1    2    0  503  0.20160716218E+02 -0.12279193096E+02 -0.26375144961E+03  0.31630848903E+03  0.17300000000E+03 0.  1.
</event>
<event>
 4    1  0.6017350E+000  0.1000000E+03  0.7546771E-02  0.1280296E+00
         21   -1    0    0  503  502  0.00000000000E+00  0.00000000000E+00  0.33415061144E+03  0.33415061144E+03  0.00000000000E+00 0.  1.
         21   -1    0    0  501  503 -0.00000000000E+00 -0.00000000000E+00 -0.13647266294E+03  0.13647266294E+03  0.00000000000E+00 0. -1.
          6    1    1    2  501    0 -0.10425859492E+03  0.47122229982E+02  0.42835228428E+02  0.21178813934E+03  0.17300000000E+03 0. -1.
         -6    1    1    2    0  502  0.10425859492E+03 -0.47122229982E+02  0.15484272007E+03  0.25883513504E+03  0.17300000000E+03 0.  1.
</event>
<event>
 4    1  0.6017350E+000  0.1000000E+03  0.7546771E-02  0.1280296E+00
         21   -1    0    0  503  502  0.00000000000E+00  0.00000000000E+00  0.26840924425E+02  0.26840924425E+02  0.00000000000E+00 0.  1.
         21   -1    0    0  501  503 -0.00000000000E+00 -0.00000000000E+00 -0.17876359338E+04  0.17876359338E+04  0.00000000000E+00 0. -1.
          6    1    1    2  501    0 -0.55625596494E+02 -0.12071137129E+02 -0.37631347083E+03  0.41806787447E+03  0.17300000000E+03 0. -1.
         -6    1    1    2    0  502  0.55625596494E+02  0.12071137129E+02 -0.13844815385E+04  0.13964089838E+04  0.17300000000E+03 0.  1.
</event>
<event>
 4    1  0.6017350E+000  0.1000000E+03  0.7546771E-02  0.1280296E+00
         21   -1    0    0  501  502  0.00000000000E+00  0.00000000000E+00  0.41517131948E+02  0.41517131948E+02  0.00000000000E+00 0.  1.
         21   -1    0    0  502  503 -0.00000000000E+00 -0.00000000000E+00 -0.12513765638E+04  0.12513765638E+04  0.00000000000E+00 0. -1.
          6    1    1    2  501    0  0.37714841118E+01  0.89740932107E+02 -0.93998751597E+03  0.95998603592E+03  0.17300000000E+03 0.  1.
         -6    1    1    2    0  503 -0.37714841118E+01 -0.89740932107E+02 -0.26987191588E+03  0.33290765982E+03  0.17300000000E+03 0. -1.
</event>
<event>
 4    1  0.6017350E+000  0.1000000E+03  0.7546771E-02  0.1280296E+00
         21   -1    0    0  501  502  0.00000000000E+00  0.00000000000E+00  0.26082726714E+03  0.26082726714E+03  0.00000000000E+00 0.  1.
         21   -1    0    0  502  503 -0.00000000000E+00 -0.00000000000E+00 -0.33795317783E+03  0.33795317783E+03  0.00000000000E+00 0. -1.
          6    1    1    2  501    0 -0.10772841084E+02  0.26972497896E+02  0.20297955268E+03  0.26827834156E+03  0.17300000000E+03 0.  1.
         -6    1    1    2    0  503  0.10772841084E+02 -0.26972497896E+02 -0.28010546337E+03  0.33050210341E+03  0.17300000000E+03 0. -1.
</event>
<event>
 4    1  0.6017350E+000  0.1000000E+03  0.7546771E-02  0.1280296E+00
         21   -1    0    0  503  502  0.00000000000E+00  0.00000000000E+00  0.59869672893E+03  0.59869672893E+03  0.00000000000E+00 0. -1.
         21   -1    0    0  501  503 -0.00000000000E+00 -0.00000000000E+00 -0.20549127037E+03  0.20549127037E+03  0.00000000000E+00 0.  1.
          6    1    1    2  501    0 -0.22218484647E+02 -0.24343850385E+02 -0.15113267593E+03  0.23206975211E+03  0.17300000000E+03 0.  1.
         -6    1    1    2    0  502  0.22218484647E+02  0.24343850385E+02  0.54433813448E+03  0.57211824719E+03  0.17300000000E+03 0. -1.
</event>
<event>
 4    1  0.6017350E+000  0.1000000E+03  0.7546771E-02  0.1280296E+00
         21   -1    0    0  503  502  0.00000000000E+00  0.00000000000E+00  0.20784735401E+03  0.20784735401E+03  0.00000000000E+00 0. -1.
         21   -1    0    0  501  503 -0.00000000000E+00 -0.00000000000E+00 -0.15918435441E+03  0.15918435441E+03  0.00000000000E+00 0.  1.
          6    1    1    2  501    0 -0.42972114261E+02 -0.18314666804E+02 -0.71718907040E+01  0.17933896855E+03  0.17300000000E+03 0.  1.
         -6    1    1    2    0  502  0.42972114261E+02  0.18314666804E+02  0.55834890308E+02  0.18769273987E+03  0.17300000000E+03 0. -1.
</event>
<event>
 4    1  0.6017350E+000  0.1000000E+03  0.7546771E-02  0.1280296E+00
         21   -1    0    0  503  502  0.00000000000E+00  0.00000000000E+00  0.47098335106E+02  0.47098335106E+02  0.00000000000E+00 0. -1.
         21   -1    0    0  501  503 -0.00000000000E+00 -0.00000000000E+00 -0.18334849620E+04  0.18334849620E+04  0.00000000000E+00 0.  1.
          6    1    1    2  501    0 -0.62342274722E+02 -0.45437996930E+02 -0.16120703906E+04  0.16231608408E+04  0.17300000000E+03 0.  1.
         -6    1    1    2    0  502  0.62342274722E+02  0.45437996930E+02 -0.17431623627E+03  0.25742245630E+03  0.17300000000E+03 0. -1.
</event>
<event>
 4    1  0.6017350E+000  0.1000000E+03  0.7546771E-02  0.1280296E+00
         21   -1    0    0  503  502  0.00000000000E+00  0.00000000000E+00  0.57591782388E+03  0.57591782388E+03  0.00000000000E+00 0.  1.
         21   -1    0    0  501  503 -0.00000000000E+00 -0.00000000000E+00 -0.55014132083E+02  0.55014132083E+02  0.00000000000E+00 0.  1.
          6    1    1    2  501    0 -0.12568153687E+02 -0.34306231534E+02  0.22414178459E+03  0.28548803059E+03  0.17300000000E+03 0.  1.
         -6    1    1    2    0  502  0.12568153687E+02  0.34306231534E+02  0.29676190720E+03  0.34544392537E+03  0.17300000000E+03 0.  1.
</event>
<event>
 4    1  0.6017350E+000  0.1000000E+03  0.7546771E-02  0.1280296E+00
         21   -1    0    0  503  502  0.00000000000E+00  0.00000000000E+00  0.13307396259E+03  0.13307396259E+03  0.00000000000E+00 0.  1.
         21   -1    0    0  501  503 -0.00000000000E+00 -0.00000000000E+00 -0.10015765564E+04  0.10015765564E+04  0.00000000000E+00 0.  1.
          6    1    1    2  501    0 -0.29651650563E+03  0.11886848728E+03 -0.37815726230E+03  0.52438885420E+03  0.17300000000E+03 0.  1.
         -6    1    1    2    0  502  0.29651650563E+03 -0.11886848728E+03 -0.49034533150E+03  0.61026166478E+03  0.17300000000E+03 0.  1.
</event>
<event>
 4    1  0.6017350E+000  0.1000000E+03  0.7546771E-02  0.1280296E+00
         21   -1    0    0  501  502  0.00000000000E+00  0.00000000000E+00  0.52902113871E+03  0.52902113871E+03  0.00000000000E+00 0. -1.
         21   -1    0    0  502  503 -0.00000000000E+00 -0.00000000000E+00 -0.85384776431E+02  0.85384776431E+02  0.00000000000E+00 0. -1.
          6    1    1    2  501    0  0.41442256469E+02  0.75588045926E+02  0.34956014271E+03  0.39943999133E+03  0.17300000000E+03 0. -1.
         -6    1    1    2    0  503 -0.41442256469E+02 -0.75588045926E+02  0.94076219570E+02  0.21496592380E+03  0.17300000000E+03 0. -1.
</event>
<event>
 4    1  0.6017350E+000  0.1000000E+03  0.7546771E-02  0.1280296E+00
         21   -1    0    0  501  502  0.00000000000E+00  0.00000000000E+00  0.32399041352E+03  0.32399041352E+03  0.00000000000E+00 0.  1.
         21   -1    0    0  502  503 -0.00000000000E+00 -0.00000000000E+00 -0.33479234074E+03  0.33479234074E+03  0.00000000000E+00 0.  1.
          6    1    1    2  501    0  0.21641603757E+03  0.11289443084E+03  0.13231088701E+03  0.32713334384E+03  0.17300000000E+03 0.  1.
         -6    1    1    2    0  503 -0.21641603757E+03 -0.11289443084E+03 -0.14311281423E+03  0.33164941041E+03  0.17300000000E+03 0.  1.
</event>
<event>
 4    1  0.6017350E+000  0.1000000E+03  0.7546771E-02  0.1280296E+00
         21   -1    0    0  501  502  0.00000000000E+00  0.00000000000E+00  0.44664527478E+03  0.44664527478E+03  0.00000000000E+00 0.  1.
         21   -1    0    0  502  503 -0.00000000000E+00 -0.00000000000E+00 -0.19296186538E+03  0.19296186538E+03  0.00000000000E+00 0.  1.
          6    1    1    2  501    0  0.23555656449E+03  0.61943530842E+01  0.15629922939E+03  0.33148712523E+03  0.17300000000E+03 0.  1.
         -6    1    1    2    0  503 -0.23555656449E+03 -0.61943530842E+01  0.97384180011E+02  0.30812001493E+03  0.17300000000E+03 0.  1.
</event>
<event>
 4    1  0.6017350E+000  0.1000000E+03  0.7546771E-02  0.1280296E+00
         21   -1    0    0  501  502  0.00000000000E+00  0.00000000000E+00  0.88965356202E+02  0.88965356202E+02  0.00000000000E+00 0.  1.
         21   -1    0    0  502  503 -0.00000000000E+00 -0.00000000000E+00 -0.60465789092E+03  0.60465789092E+03  0.00000000000E+00 0.  1.
          6    1    1    2  501    0 -0.33583967046E+02 -0.82338983185E+02 -0.68958371165E+02  0.20637792505E+03  0.17300000000E+03 0.  1.
         -6    1    1    2    0  503  0.33583967046E+02  0.82338983185E+02 -0.44673416356E+03  0.48724532208E+03  0.17300000000E+03 0.  1.
</event>
<event>
 4    1  0.6017350E+000  0.1000000E+03  0.7546771E-02  0.1280296E+00
         21   -1    0    0  501  502  0.00000000000E+00  0.00000000000E+00  0.17463906027E+03  0.17463906027E+03  0.00000000000E+00 0. -1.
         21   -1    0    0  502  503 -0.00000000000E+00 -0.00000000000E+00 -0.28418814472E+03  0.28418814472E+03  0.00000000000E+00 0.  1.
          6    1    1    2  501    0  0.94861282612E+02 -0.32428516162E+02  0.46391189527E+02  0.20525938240E+03  0.17300000000E+03 0. -1.
         -6    1    1    2    0  503 -0.94861282612E+02  0.32428516162E+02 -0.15594027398E+03  0.25356782258E+03  0.17300000000E+03 0.  1.
</event>
<event>
 4    1  0.6017350E+000  0.1000000E+03  0.7546771E-02  0.1280296E+00
         21   -1    0    0  501  502  0.00000000000E+00  0.00000000000E+00  0.32224523799E+03  0.32224523799E+03  0.00000000000E+00 0. -1.
         21   -1    0    0  502  503 -0.00000000000E+00 -0.00000000000E+00 -0.22862118745E+03  0.22862118745E+03  0.00000000000E+00 0.  1.
          6    1    1    2  501    0 -0.28758829242E+02  0.17577415072E+03  0.15806391941E+03  0.29434134086E+03  0.17300000000E+03 0. -1.
         -6    1    1    2    0  503  0.28758829242E+02 -0.17577415072E+03 -0.64439868873E+02  0.25652508458E+03  0.17300000000E+03 0.  1.
</event>
<event>
 4    1  0.6017350E+000  0.1000000E+03  0.7546771E-02  0.1280296E+00
         21   -1    0    0  501  502  0.00000000000E+00  0.00000000000E+00  0.33883235286E+03  0.33883235286E+03  0.00000000000E+00 0. -1.
         21   -1    0    0  502  503 -0.00000000000E+00 -0.00000000000E+00 -0.64897862252E+03  0.64897862252E+03  0.00000000000E+00 0.  1.
          6    1    1    2  501    0 -0.30304449645E+03 -0.30605262722E+03 -0.84718921758E+02  0.47181614338E+03  0.17300000000E+03 0. -1.
         -6    1    1    2    0  503  0.30304449645E+03  0.30605262722E+03 -0.22542734790E+03  0.51599483199E+03  0.17300000000E+03 0.  1.
</event>
<event>
 4    1  0.6017350E+000  0.1000000E+03  0.7546771E-02  0.1280296E+00
         21   -1    0    0  501  502  0.00000000000E+00  0.00000000000E+00  0.72372440314E+03  0.72372440314E+03  0.00000000000E+00 0. -1.
         21   -1    0    0  502  503 -0.00000000000E+00 -0.00000000000E+00 -0.57833549337E+02  0.57833549337E+02  0.00000000000E+00 0.  1.
          6    1    1    2  501    0 -0.73213649080E+02 -0.16244203112E+01  0.48769453501E+03  0.52262590505E+03  0.17300000000E+03 0. -1.
         -6    1    1    2    0  503  0.73213649080E+02  0.16244203112E+01  0.17819631880E+03  0.25893204743E+03  0.17300000000E+03 0.  1.
</event>
<event>
 4    1  0.6017350E+000  0.1000000E+03  0.7546771E-02  0.1280296E+00
         21   -1    0    0  501  502  0.00000000000E+00  0.00000000000E+00  0.10349816571E+04  0.10349816571E+04  0.00000000000E+00 0.  1.
         21   -1    0    0  502  503 -0.00000000000E+00 -0.00000000000E+00 -0.22280689900E+03  0.22280689900E+03  0.00000000000E+00 0.  1.
          6    1    1    2  501    0  0.28308350809E+03  0.28021525020E+03  0.13764555003E+03  0.45555697387E+03  0.17300000000E+03 0.  1.
         -6    1    1    2    0  503 -0.28308350809E+03 -0.28021525020E+03  0.67452920806E+03  0.80223158223E+03  0.17300000000E+03 0.  1.
</event>
<event>
 4    1  0.6017350E+000  0.1000000E+03  0.7546771E-02  0.1280296E+00
         21   -1    0    0  501  502  0.00000000000E+00  0.00000000000E+00  0.26572600328E+03  0.26572600328E+03  0.00000000000E+00 0.  1.
         21   -1    0    0  502  503 -0.00000000000E+00 -0.00000000000E+00 -0.28779446026E+03  0.28779446026E+03  0.00000000000E+00 0. -1.
          6    1    1    2  501    0 -0.92788842708E+02  0.17735088396E+03 -0.91611438838E+02  0.27997278635E+03  0.17300000000E+03 0. -1.
         -6    1    1    2    0  503  0.92788842708E+02 -0.17735088396E+03  0.69542981855E+02  0.27354767719E+03  0.17300000000E+03 0.  1.
</event>
<event>
 4    1  0.6017350E+000  0.1000000E+03  0.7546771E-02  0.1280296E+00
         21   -1    0    0  501  502  0.00000000000E+00  0.00000000000E+00  0.11621248245E+04  0.11621248245E+04  0.00000000000E+00 0.  1.
         21   -1    0    0  502  503 -0.00000000000E+00 -0.00000000000E+00 -0.73569238727E+02  0.73569238727E+02  0.00000000000E+00 0. -1.
          6    1    1    2  501    0 -0.21027183156E+03 -0.16783056096E+02  0.76661599022E+03  0.81371063074E+03  0.17300000000E+03 0. -1.
         -6    1    1    2    0  503  0.21027183156E+03  0.16783056096E+02  0.32193959560E+03  0.42198343254E+03  0.17300000000E+03 0.  1.
</event>
<event>
 4    1  0.6017350E+000  0.1000000E+03  0.7546771E-02  0.1280296E+00
         21   -1    0    0  503  502  0.00000000000E+00  0.00000000000E+00  0.15885581705E+03  0.15885581705E+03  0.00000000000E+00 0. -1.
         21   -1    0    0  501  503 -0.00000000000E+00 -0.00000000000E+00 -0.31554867786E+03  0.31554867786E+03  0.00000000000E+00 0.  1.
          6    1    1    2  501    0 -0.25040783994E+02  0.11164641673E+03 -0.16765434094E+03  0.26670009612E+03  0.17300000000E+03 0.  1.
         -6    1    1    2    0  502  0.25040783994E+02 -0.11164641673E+03  0.10961480123E+02  0.20770439879E+03  0.17300000000E+03 0. -1.
</event>
<event>
 4    1  0.6017350E+000  0.1000000E+03  0.7546771E-02  0.1280296E+00
         21   -1    0    0  503  502  0.00000000000E+00  0.00000000000E+00  0.20395731762E+03  0.20395731762E+03  0.00000000000E+00 0. -1.
         21   -1    0    0  501  503 -0.00000000000E+00 -0.00000000000E+00 -0.43688076400E+03  0.43688076400E+03  0.00000000000E+00 0.  1.
          6    1    1    2  501    0  0.17028663460E+03 -0.12349361268E+03 -0.24761084324E+03  0.36808740808E+03  0.17300000000E+03 0.  1.
         -6    1    1    2    0  502 -0.17028663460E+03  0.12349361268E+03  0.14687396860E+02  0.27275067355E+03  0.17300000000E+03 0. -1.
</event>
<event>
 4    1  0.6017350E+000  0.1000000E+03  0.7546771E-02  0.1280296E+00
         21   -1    0    0  503  502  0.00000000000E+00  0.00000000000E+00  0.50660680366E+03  0.50660680366E+03  0.00000000000E+00 0. -1.
         21   -1    0    0  501  503 -0.00000000000E+00 -0.00000000000E+00 -0.15155536424E+03  0.15155536424E+03  0.00000000000E+00 0. -1.
          6    1    1    2  501    0 -0.13698524674E+03  0.89884787099E+02  0.95451198556E+01  0.23846245426E+03  0.17300000000E+03 0. -1.
         -6    1    1    2    0  502  0.13698524674E+03 -0.89884787099E+02  0.34550631956E+03  0.41969971365E+03  0.17300000000E+03 0. -1.
</event>
<event>
 4    1  0.6017350E+000  0.1000000E+03  0.7546771E-02  0.1280296E+00
         21   -1    0    0  503  502  0.00000000000E+00  0.00000000000E+00  0.62318334343E+03  0.62318334343E+03  0.00000000000E+00 0. -1.
         21   -1    0    0  501  503 -0.00000000000E+00 -0.00000000000E+00 -0.14782965387E+03  0.14782965387E+03  0.00000000000E+00 0. -1.
          6    1    1    2  501    0 -0.90345511364E+01 -0.19801344875E+03  0.45452483013E+02  0.26699415202E+03  0.17300000000E+03 0. -1.
         -6    1    1    2    0  502  0.90345511364E+01  0.19801344875E+03  0.42990120654E+03  0.50401884527E+03  0.17300000000E+03 0. -1.
</event>
<event>
 4    1  0.6017350E+000  0.1000000E+03  0.7546771E-02  0.1280296E+00
         21   -1    0    0  503  502  0.00000000000E+00  0.00000000000E+00  0.26675079716E+03  0.26675079716E+03  0.00000000000E+00 0. -1.
         21   -1    0    0  501  503 -0.00000000000E+00 -0.00000000000E+00 -0.12605529186E+04  0.12605529186E+04  0.00000000000E+00 0. -1.
          6    1    1    2  501    0 -0.46955607734E+03  0.90140179963E+02 -0.86402961307E+03  0.10025389439E+04  0.17300000000E+03 0. -1.
         -6    1    1    2    0  502  0.46955607734E+03 -0.90140179963E+02 -0.12977250833E+03  0.52476477180E+03  0.17300000000E+03 0. -1.
</event>
<event>
 4    1  0.6017350E+000  0.1000000E+03  0.7546771E-02  0.1280296E+00
         21   -1    0    0  503  502  0.00000000000E+00  0.00000000000E+00  0.29700982823E+03  0.29700982823E+03  0.00000000000E+00 0. -1.
         21   -1    0    0  501  503 -0.00000000000E+00 -0.00000000000E+00 -0.19499760939E+03  0.19499760939E+03  0.00000000000E+00 0. -1.
          6    1    1    2  501    0 -0.84537831768E+02  0.91399727412E+02 -0.63219796315E+02  0.22232025957E+03  0.17300000000E+03 0. -1.
         -6    1    1    2    0  502  0.84537831768E+02 -0.91399727412E+02  0.16523201516E+03  0.26968717805E+03  0.17300000000E+03 0. -1.
</event>
<event>
 4    1  0.6017350E+000  0.1000000E+03  0.7546771E-02  0.1280296E+00
         21   -1    0    0  503  502  0.00000000000E+00  0.00000000000E+00  0.38231371050E+03  0.38231371050E+03  0.00000000000E+00 0. -1.
         21   -1    0    0  501  503 -0.00000000000E+00 -0.00000000000E+00 -0.11811835907E+03  0.11811835907E+03  0.00000000000E+00 0. -1.
          6    1    1    2  501    0 -0.96777334237E+02  0.76534988541E+02  0.12925922818E+03  0.24871752042E+03  0.17300000000E+03 0. -1.
         -6    1    1    2    0  502  0.96777334237E+02 -0.76534988541E+02  0.13493612325E+03  0.25171454915E+03  0.17300000000E+03 0. -1.
</event>
<event>
 4    1  0.6017350E+000  0.1000000E+03  0.7546771E-02  0.1280296E+00
         21   -1    0    0  501  502  0.00000000000E+00  0.00000000000E+00  0.22423616147E+03  0.22423616147E+03  0.00000000000E+00 0.  1.
         21   -1    0    0  502  503 -0.00000000000E+00 -0.00000000000E+00 -0.21916786376E+03  0.21916786376E+03  0.00000000000E+00 0.  1.
          6    1    1    2  501    0 -0.72367114151E+02  0.75062545202E+02  0.93890955049E+02  0.22274626000E+03  0.17300000000E+03 0.  1.
         -6    1    1    2    0  503  0.72367114151E+02 -0.75062545202E+02 -0.88822657332E+02  0.22065776523E+03  0.17300000000E+03 0.  1.
</event>
<event>
 4    1  0.6017350E+000  0.1000000E+03  0.7546771E-02  0.1280296E+00
         21   -1    0    0  501  502  0.00000000000E+00  0.00000000000E+00  0.27560259607E+02  0.27560259607E+02  0.00000000000E+00 0.  1.
         21   -1    0    0  502  503 -0.00000000000E+00 -0.00000000000E+00 -0.13677253446E+04  0.13677253446E+04  0.00000000000E+00 0. -1.
          6    1    1    2  501    0  0.39981971247E+02  0.55825216057E+02 -0.47160898917E+03  0.50700991256E+03  0.17300000000E+03 0.  1.
         -6    1    1    2    0  503 -0.39981971247E+02 -0.55825216057E+02 -0.86855609582E+03  0.88827569164E+03  0.17300000000E+03 0. -1.
</event>
<event>
 4    1  0.6017350E+000  0.1000000E+03  0.7546771E-02  0.1280296E+00
         21   -1    0    0  501  502  0.00000000000E+00  0.00000000000E+00  0.19236748274E+04  0.19236748274E+04  0.00000000000E+00 0.  1.
         21   -1    0    0  502  503 -0.00000000000E+00 -0.00000000000E+00 -0.26174981323E+02  0.26174981323E+02  0.00000000000E+00 0. -1.
          6    1    1    2  501    0 -0.30410836855E+00 -0.62833156295E+02  0.15064177316E+04  0.15176203346E+04  0.17300000000E+03 0.  1.
         -6    1    1    2    0  503  0.30410836855E+00  0.62833156295E+02  0.39108211451E+03  0.43222947413E+03  0.17300000000E+03 0. -1.
</event>
<event>
 4    1  0.6017350E+000  0.1000000E+03  0.7546771E-02  0.1280296E+00
         21   -1    0    0  501  502  0.00000000000E+00  0.00000000000E+00  0.30185821339E+03  0.30185821339E+03  0.00000000000E+00 0.  1.
         21   -1    0    0  502  503 -0.00000000000E+00 -0.00000000000E+00 -0.88966908720E+03  0.88966908720E+03  0.00000000000E+00 0. -1.
          6    1    1    2  501    0  0.12859291958E+03  0.15289679364E+03  0.21856591522E+03  0.34294843310E+03  0.17300000000E+03 0.  1.
         -6    1    1    2    0  503 -0.12859291958E+03 -0.15289679364E+03 -0.80637678902E+03  0.84857886749E+03  0.17300000000E+03 0. -1.
</event>
<event>
 4    1  0.6017350E+000  0.1000000E+03  0.7546771E-02  0.1280296E+00
         21   -1    0    0  503  502  0.00000000000E+00  0.00000000000E+00  0.42547525084E+03  0.42547525084E+03  0.00000000000E+00 0.  1.
         21   -1    0    0  501  503 -0.00000000000E+00 -0.00000000000E+00 -0.31830784094E+03  0.31830784094E+03  0.00000000000E+00 0. -1.
          6    1    1    2  501    0  0.35031260325E+02 -0.21042187676E+03 -0.19394517365E+03  0.33622653940E+03  0.17300000000E+03 0. -1.
         -6    1    1    2    0  502 -0.35031260325E+02  0.21042187676E+03  0.30111258354E+03  0.40755655238E+03  0.17300000000E+03 0.  1.
</event>
<event>
 4    1  0.6017350E+000  0.1000000E+03  0.7546771E-02  0.1280296E+00
         21   -1    0    0  503  502  0.00000000000E+00  0.00000000000E+00  0.54520287059E+02  0.54520287059E+02  0.00000000000E+00 0. -1.
         21   -1    0    0  501  503 -0.00000000000E+00 -0.00000000000E+00 -0.58946699403E+03  0.58946699403E+03  0.00000000000E+00 0. -1.
          6    1    1    2  501    0  0.39817202741E+02 -0.24349611472E+02 -0.25753820299E+03  0.31374071973E+03  0.17300000000E+03 0. -1.
         -6    1    1    2    0  502 -0.39817202741E+02  0.24349611472E+02 -0.27740850397E+03  0.33024656136E+03  0.17300000000E+03 0. -1.
</event>
<event>
 4    1  0.6017350E+000  0.1000000E+03  0.7546771E-02  0.1280296E+00
         21   -1    0    0  503  502  0.00000000000E+00  0.00000000000E+00  0.51687435139E+03  0.51687435139E+03  0.00000000000E+00 0. -1.
         21   -1    0    0  501  503 -0.00000000000E+00 -0.00000000000E+00 -0.83785084107E+02  0.83785084107E+02  0.00000000000E+00 0. -1.
          6    1    1    2  501    0 -0.29040997888E+02 -0.68232891621E+02  0.88448078708E+02  0.20796915561E+03  0.17300000000E+03 0. -1.
         -6    1    1    2    0  502  0.29040997888E+02  0.68232891621E+02  0.34464118857E+03  0.39269027989E+03  0.17300000000E+03 0. -1.
</event>
<event>
 4    1  0.6017350E+000  0.1000000E+03  0.7546771E-02  0.1280296E+00
         21   -1    0    0  503  502  0.00000000000E+00  0.00000000000E+00  0.35670963590E+03  0.35670963590E+03  0.00000000000E+00 0.  1.
         21   -1    0    0  501  503 -0.00000000000E+00 -0.00000000000E+00 -0.24522104524E+03  0.24522104524E+03  0.00000000000E+00 0.  1.
          6    1    1    2  501    0  0.14593865172E+03  0.18642821767E+03  0.16462291242E+02  0.29368959369E+03  0.17300000000E+03 0.  1.
         -6    1    1    2    0  502 -0.14593865172E+03 -0.18642821767E+03  0.95026299423E+02  0.30824108745E+03  0.17300000000E+03 0.  1.
</event>
<event>
 4    1  0.6017350E+000  0.1000000E+03  0.7546771E-02  0.1280296E+00
         21   -1    0    0  501  502  0.00000000000E+00  0.00000000000E+00  0.62705893470E+02  0.62705893470E+02  0.00000000000E+00 0.  1.
         21   -1    0    0  502  503 -0.00000000000E+00 -0.00000000000E+00 -0.94986341024E+03  0.94986341024E+03  0.00000000000E+00 0.  1.
          6    1    1    2  501    0  0.98222903911E+02 -0.14075742373E+03 -0.47083613269E+03  0.53016606364E+03  0.17300000000E+03 0.  1.
         -6    1    1    2    0  503 -0.98222903911E+02  0.14075742373E+03 -0.41632138407E+03  0.48240324007E+03  0.17300000000E+03 0.  1.
</event>
<event>
 4    1  0.6017350E+000  0.1000000E+03  0.7546771E-02  0.1280296E+00
         21   -1    0    0  501  502  0.00000000000E+00  0.00000000000E+00  0.73341706256E+03  0.73341706256E+03  0.00000000000E+00 0. -1.
         21   -1    0    0  502  503 -0.00000000000E+00 -0.00000000000E+00 -0.71813198386E+02  0.71813198386E+02  0.00000000000E+00 0.  1.
          6    1    1    2  501    0  0.14967652381E+03 -0.18326282757E+02  0.32895313162E+03  0.40109609475E+03  0.17300000000E+03 0. -1.
         -6    1    1    2    0  503 -0.14967652381E+03  0.18326282757E+02  0.33265073255E+03  0.40413416620E+03  0.17300000000E+03 0.  1.
</event>
<event>
 4    1  0.6017350E+000  0.1000000E+03  0.7546771E-02  0.1280296E+00
         21   -1    0    0  501  502  0.00000000000E+00  0.00000000000E+00  0.34681777941E+03  0.34681777941E+03  0.00000000000E+00 0. -1.
         21   -1    0    0  502  503 -0.00000000000E+00 -0.00000000000E+00 -0.26979354895E+03  0.26979354895E+03  0.00000000000E+00 0.  1.
          6    1    1    2  501    0  0.20474914076E+02  0.13944389375E+03  0.24939190458E+03  0.33464779049E+03  0.17300000000E+03 0. -1.
         -6    1    1    2    0  503 -0.20474914076E+02 -0.13944389375E+03 -0.17236767411E+03  0.28196353787E+03  0.17300000000E+03 0.  1.
</event>
<event>
 4    1  0.6017350E+000  0.1000000E+03  0.7546771E-02  0.1280296E+00
         21   -1    0    0  501  502  0.00000000000E+00  0.00000000000E+00  0.10714474592E+04  0.10714474592E+04  0.00000000000E+00 0. -1.
         21   -1    0    0  502  503 -0.00000000000E+00 -0.00000000000E+00 -0.46913946803E+02  0.46913946803E+02  0.00000000000E+00 0.  1.
          6    1    1    2  501    0 -0.10881005028E+03 -0.92017550373E+02  0.52592129738E+03  0.57168966027E+03  0.17300000000E+03 0. -1.
         -6    1    1    2    0  503  0.10881005028E+03  0.92017550373E+02  0.49861221499E+03  0.54667174571E+03  0.17300000000E+03 0.  1.
</event>
<event>
 4    1  0.6017350E+000  0.1000000E+03  0.7546771E-02  0.1280296E+00
         21   -1    0    0  503  502  0.00000000000E+00  0.00000000000E+00  0.16152560933E+03  0.16152560933E+03  0.00000000000E+00 0.  1.
         21   -1    0    0  501  503 -0.00000000000E+00 -0.00000000000E+00 -0.39484284815E+03  0.39484284815E+03  0.00000000000E+00 0.  1.
          6    1    1    2  501    0 -0.54392461426E+01  0.13116178154E+03 -0.25864702895E+03  0.33772812130E+03  0.17300000000E+03 0.  1.
         -6    1    1    2    0  502  0.54392461426E+01 -0.13116178154E+03  0.25329790135E+02  0.21864033618E+03  0.17300000000E+03 0.  1.
</event>
<event>
 4    1  0.6017350E+000  0.1000000E+03  0.7546771E-02  0.1280296E+00
         21   -1    0    0  501  502  0.00000000000E+00  0.00000000000E+00  0.39905673995E+02  0.39905673995E+02  0.00000000000E+00 0. -1.
         21   -1    0    0  502  503 -0.00000000000E+00 -0.00000000000E+00 -0.33634172532E+04  0.33634172532E+04  0.00000000000E+00 0. -1.
          6    1    1    2  501    0 -0.47306757562E+02  0.65965702289E+02 -0.20992823674E+03  0.28388072807E+03  0.17300000000E+03 0. -1.
         -6    1    1    2    0  503  0.47306757562E+02 -0.65965702289E+02 -0.31135833424E+04  0.31194421991E+04  0.17300000000E+03 0. -1.
</event>
<event>
 4    1  0.6017350E+000  0.1000000E+03  0.7546771E-02  0.1280296E+00
         21   -1    0    0  501  502  0.00000000000E+00  0.00000000000E+00  0.32932247491E+02  0.32932247491E+02  0.00000000000E+00 0. -1.
         21   -1    0    0  502  503 -0.00000000000E+00 -0.00000000000E+00 -0.12492790635E+04  0.12492790635E+04  0.00000000000E+00 0. -1.
          6    1    1    2  501    0 -0.31334253716E+02 -0.22352992342E+02 -0.29637807182E+03  0.34532658916E+03  0.17300000000E+03 0. -1.
         -6    1    1    2    0  503  0.31334253716E+02  0.22352992342E+02 -0.91996874419E+03  0.93688472183E+03  0.17300000000E+03 0. -1.
</event>
<event>
 4    1  0.6017350E+000  0.1000000E+03  0.7546771E-02  0.1280296E+00
         21   -1    0    0  503  502  0.00000000000E+00  0.00000000000E+00  0.18079849576E+03  0.18079849576E+03  0.00000000000E+00 0.  1.
         21   -1    0    0  501  503 -0.00000000000E+00 -0.00000000000E+00 -0.85483303173E+03  0.85483303173E+03  0.00000000000E+00 0.  1.
          6    1    1    2  501    0 -0.14498071151E+03 -0.25708841487E+02 -0.75962359299E+03  0.79286654254E+03  0.17300000000E+03 0.  1.
         -6    1    1    2    0  502  0.14498071151E+03  0.25708841487E+02  0.85589057025E+02  0.24276498496E+03  0.17300000000E+03 0.  1.
</event>
<event>
 4    1  0.6017350E+000  0.1000000E+03  0.7546771E-02  0.1280296E+00
         21   -1    0    0  503  502  0.00000000000E+00  0.00000000000E+00  0.43266403328E+03  0.43266403328E+03  0.00000000000E+00 0. -1.
         21   -1    0    0  501  503 -0.00000000000E+00 -0.00000000000E+00 -0.17835085899E+03  0.17835085899E+03  0.00000000000E+00 0. -1.
          6    1    1    2  501    0  0.14051051987E+03 -0.14359058871E+03  0.21834972574E+03  0.34346334024E+03  0.17300000000E+03 0. -1.
         -6    1    1    2    0  502 -0.14051051987E+03  0.14359058871E+03  0.35963448556E+02  0.26755155203E+03  0.17300000000E+03 0. -1.
</event>
<event>
 4    1  0.6017350E+000  0.1000000E+03  0.7546771E-02  0.1280296E+00
         21   -1    0    0  503  502  0.00000000000E+00  0.00000000000E+00  0.58983878128E+02  0.58983878128E+02  0.00000000000E+00 0. -1.
         21   -1    0    0  501  503 -0.00000000000E+00 -0.00000000000E+00 -0.76403494702E+03  0.76403494702E+03  0.00000000000E+00 0. -1.
          6    1    1    2  501    0  0.70380856449E+02 -0.42606861642E+02 -0.52984876632E+03  0.56341594296E+03  0.17300000000E+03 0. -1.
         -6    1    1    2    0  502 -0.70380856449E+02  0.42606861642E+02 -0.17520230258E+03  0.25960288219E+03  0.17300000000E+03 0. -1.
</event>
<event>
 4    1  0.6017350E+000  0.1000000E+03  0.7546771E-02  0.1280296E+00
         21   -1    0    0  503  502  0.00000000000E+00  0.00000000000E+00  0.59806604504E+03  0.59806604504E+03  0.00000000000E+00 0. -1.
         21   -1    0    0  501  503 -0.00000000000E+00 -0.00000000000E+00 -0.11960472002E+03  0.11960472002E+03  0.00000000000E+00 0. -1.
          6    1    1    2  501    0  0.70067075106E+02  0.37650859259E+02 -0.12759368679E+02  0.19083706062E+03  0.17300000000E+03 0. -1.
         -6    1    1    2    0  502 -0.70067075106E+02 -0.37650859259E+02  0.49122069370E+03  0.52683370444E+03  0.17300000000E+03 0. -1.
</event>
<event>
 4    1  0.6017350E+000  0.1000000E+03  0.7546771E-02  0.1280296E+00
         21   -1    0    0  503  502  0.00000000000E+00  0.00000000000E+00  0.16474467445E+03  0.16474467445E+03  0.00000000000E+00 0. -1.
         21   -1    0    0  501  503 -0.00000000000E+00 -0.00000000000E+00 -0.28654821286E+03  0.28654821286E+03  0.00000000000E+00 0. -1.
          6    1    1    2  501    0 -0.32372345375E+02 -0.12734530822E+03 -0.64717017725E+02  0.22667617575E+03  0.17300000000E+03 0. -1.
         -6    1    1    2    0  502  0.32372345375E+02  0.12734530822E+03 -0.57086520679E+02  0.22461671156E+03  0.17300000000E+03 0. -1.
</event>
<event>
 4    1  0.6017350E+000  0.1000000E+03  0.7546771E-02  0.1280296E+00
         21   -1    0    0  501  502  0.00000000000E+00  0.00000000000E+00  0.82007350219E+03  0.82007350219E+03  0.00000000000E+00 0.  1.
         21   -1    0    0  502  503 -0.00000000000E+00 -0.00000000000E+00 -0.13142147889E+03  0.13142147889E+03  0.00000000000E+00 0. -1.
          6    1    1    2  501    0 -0.59317333001E+02 -0.79780903738E+01  0.73924347062E+03  0.76157212710E+03  0.17300000000E+03 0.  1.
         -6    1    1    2    0  503  0.59317333001E+02  0.79780903738E+01 -0.50591447318E+02  0.18992285397E+03  0.17300000000E+03 0. -1.
</event>
<event>
 4    1  0.6017350E+000  0.1000000E+03  0.7546771E-02  0.1280296E+00
         21   -1    0    0  501  502  0.00000000000E+00  0.00000000000E+00  0.14180759752E+03  0.14180759752E+03  0.00000000000E+00 0.  1.
         21   -1    0    0  502  503 -0.00000000000E+00 -0.00000000000E+00 -0.58973823278E+03  0.58973823278E+03  0.00000000000E+00 0. -1.
          6    1    1    2  501    0 -0.42317107435E+02 -0.15532793819E+03 -0.13141052192E+02  0.23668374092E+03  0.17300000000E+03 0.  1.
         -6    1    1    2    0  503  0.42317107435E+02  0.15532793819E+03 -0.43478958307E+03  0.49486208938E+03  0.17300000000E+03 0. -1.
</event>
<event>
 4    1  0.6017350E+000  0.1000000E+03  0.7546771E-02  0.1280296E+00
         21   -1    0    0  501  502  0.00000000000E+00  0.00000000000E+00  0.41013910418E+03  0.41013910418E+03  0.00000000000E+00 0.  1.
         21   -1    0    0  502  503 -0.00000000000E+00 -0.00000000000E+00 -0.95820045406E+02  0.95820045406E+02  0.00000000000E+00 0. -1.
          6    1    1    2  501    0  0.39959202419E+02  0.23659219196E+01  0.26963355033E+03  0.32285226793E+03  0.17300000000E+03 0.  1.
         -6    1    1    2    0  503 -0.39959202419E+02 -0.23659219196E+01  0.44685508442E+02  0.18310688165E+03  0.17300000000E+03 0. -1.
</event>
<event>
 4    1  0.6017350E+000  0.1000000E+03  0.7546771E-02  0.1280296E+00
         21   -1    0    0  501  502  0.00000000000E+00  0.00000000000E+00  0.86315790796E+03  0.86315790796E+03  0.00000000000E+00 0.  1.
         21   -1    0    0  502  503 -0.00000000000E+00 -0.00000000000E+00 -0.51239854063E+03  0.51239854063E+03  0.00000000000E+00 0. -1.
          6    1    1    2  501    0 -0.59218955361E+02 -0.18547421782E+01  0.83664668919E+03  0.85639769224E+03  0.17300000000E+03 0.  1.
         -6    1    1    2    0  503  0.59218955361E+02  0.18547421782E+01 -0.48588732186E+03  0.51915875634E+03  0.17300000000E+03 0. -1.
</event>
<event>
 4    1  0.6017350E+000  0.1000000E+03  0.7546771E-02  0.1280296E+00
         21   -1    0    0  501  502  0.00000000000E+00  0.00000000000E+00  0.31987713945E+03  0.31987713945E+03  0.00000000000E+00 0.  1.
         21   -1    0    0  502  503 -0.00000000000E+00 -0.00000000000E+00 -0.17481959859E+03  0.17481959859E+03  0.00000000000E+00 0. -1.
          6    1    1    2  501    0 -0.10262626128E+03  0.10215705076E+03  0.14666475794E+03  0.26908690742E+03  0.17300000000E+03 0.  1.
         -6    1    1    2    0  503  0.10262626128E+03 -0.10215705076E+03 -0.16072170818E+01  0.22560983062E+03  0.17300000000E+03 0. -1.
</event>
<event>
 4    1  0.6017350E+000  0.1000000E+03  0.7546771E-02  0.1280296E+00
         21   -1    0    0  501  502  0.00000000000E+00  0.00000000000E+00  0.51641256349E+02  0.51641256349E+02  0.00000000000E+00 0. -1.
         21   -1    0    0  502  503 -0.00000000000E+00 -0.00000000000E+00 -0.15481135421E+04  0.15481135421E+04  0.00000000000E+00 0. -1.
          6    1    1    2  501    0  0.19020803929E+03  0.11157489995E+03 -0.64278568114E+03  0.70123497373E+03  0.17300000000E+03 0. -1.
         -6    1    1    2    0  503 -0.19020803929E+03 -0.11157489995E+03 -0.85368660458E+03  0.89851982468E+03  0.17300000000E+03 0. -1.
</event>
<event>
 4    1  0.6017350E+000  0.1000000E+03  0.7546771E-02  0.1280296E+00
         21   -1    0    0  501  502  0.00000000000E+00  0.00000000000E+00  0.15810186339E+03  0.15810186339E+03  0.00000000000E+00 0. -1.
         21   -1    0    0  502  503 -0.00000000000E+00 -0.00000000000E+00 -0.21311176069E+03  0.21311176069E+03  0.00000000000E+00 0. -1.
          6    1    1    2  501    0 -0.99537707907E+01 -0.26563616515E+02 -0.82515101902E+02  0.19375872965E+03  0.17300000000E+03 0. -1.
         -6    1    1    2    0  503  0.99537707907E+01  0.26563616515E+02  0.27505204598E+02  0.17745489442E+03  0.17300000000E+03 0. -1.
</event>
<event>
 4    1  0.6017350E+000  0.1000000E+03  0.7546771E-02  0.1280296E+00
         21   -1    0    0  501  502  0.00000000000E+00  0.00000000000E+00  0.16287883828E+03  0.16287883828E+03  0.00000000000E+00 0. -1.
         21   -1    0    0  502  503 -0.00000000000E+00 -0.00000000000E+00 -0.46688784863E+03  0.46688784863E+03  0.00000000000E+00 0. -1.
          6    1    1    2  501    0  0.29651883326E+02 -0.11209323711E+03  0.54393609687E+02  0.21524821199E+03  0.17300000000E+03 0. -1.
         -6    1    1    2    0  503 -0.29651883326E+02  0.11209323711E+03 -0.35840262004E+03  0.41451847491E+03  0.17300000000E+03 0. -1.
</event>
<event>
 4    1  0.6017350E+000  0.1000000E+03  0.7546771E-02  0.1280296E+00
         21   -1    0    0  501  502  0.00000000000E+00  0.00000000000E+00  0.48377034001E+03  0.48377034001E+03  0.00000000000E+00 0. -1.
         21   -1    0    0  502  503 -0.00000000000E+00 -0.00000000000E+00 -0.90925555973E+02  0.90925555973E+02  0.00000000000E+00 0. -1.
          6    1    1    2  501    0  0.36645556509E+01  0.84568362538E+02  0.82674090889E+02  0.20959303952E+03  0.17300000000E+03 0. -1.
         -6    1    1    2    0  503 -0.36645556509E+01 -0.84568362538E+02  0.31017069315E+03  0.36510285647E+03  0.17300000000E+03 0. -1.
</event>
<event>
 4    1  0.6017350E+000  0.1000000E+03  0.7546771E-02  0.1280296E+00
         21   -1    0    0  501  502  0.00000000000E+00  0.00000000000E+00  0.12949680190E+04  0.12949680190E+04  0.00000000000E+00 0. -1.
         21   -1    0    0  502  503 -0.00000000000E+00 -0.00000000000E+00 -0.34030763369E+02  0.34030763369E+02  0.00000000000E+00 0.  1.
          6    1    1    2  501    0 -0.84690571821E+02 -0.64038841246E+02  0.79993706953E+03  0.82528890781E+03  0.17300000000E+03 0.  1.
         -6    1    1    2    0  503  0.84690571821E+02  0.64038841246E+02  0.46100018608E+03  0.50370987454E+03  0.17300000000E+03 0. -1.
</event>
<event>
 4    1  0.6017350E+000  0.1000000E+03  0.7546771E-02  0.1280296E+00
         21   -1    0    0  501  502  0.00000000000E+00  0.00000000000E+00  0.23151391962E+04  0.23151391962E+04  0.00000000000E+00 0. -1.
         21   -1    0    0  502  503 -0.00000000000E+00 -0.00000000000E+00 -0.12161260874E+03  0.12161260874E+03  0.00000000000E+00 0.  1.
          6    1    1    2  501    0  0.13793820805E+03 -0.66594727053E+02  0.21935509200E+04  0.22056872956E+04  0.17300000000E+03 0.  1.
         -6    1    1    2    0  503 -0.13793820805E+03  0.66594727053E+02 -0.24332574675E-01  0.23106450940E+03  0.17300000000E+03 0. -1.
</event>
<event>
 4    1  0.6017350E+000  0.1000000E+03  0.7546771E-02  0.1280296E+00
         21   -1    0    0  501  502  0.00000000000E+00  0.00000000000E+00  0.94445773576E+02  0.94445773576E+02  0.00000000000E+00 0. -1.
         21   -1    0    0  502  503 -0.00000000000E+00 -0.00000000000E+00 -0.39493323860E+03  0.39493323860E+03  0.00000000000E+00 0.  1.
          6    1    1    2  501    0 -0.55881778278E+02  0.39184638248E+01 -0.67816959180E+02  0.19407799323E+03  0.17300000000E+03 0.  1.
         -6    1    1    2    0  503  0.55881778278E+02 -0.39184638248E+01 -0.23267050584E+03  0.29530101895E+03  0.17300000000E+03 0. -1.
</event>
<event>
 4    1  0.6017350E+000  0.1000000E+03  0.7546771E-02  0.1280296E+00
         21   -1    0    0  501  502  0.00000000000E+00  0.00000000000E+00  0.92147911474E+02  0.92147911474E+02  0.00000000000E+00 0. -1.
         21   -1    0    0  502  503 -0.00000000000E+00 -0.00000000000E+00 -0.43435736419E+03  0.43435736419E+03  0.00000000000E+00 0.  1.
          6    1    1    2  501    0 -0.21237172801E+02  0.38597192848E+02 -0.52274194531E+02  0.18601707507E+03  0.17300000000E+03 0.  1.
         -6    1    1    2    0  503  0.21237172801E+02 -0.38597192848E+02 -0.28993525819E+03  0.34048820059E+03  0.17300000000E+03 0. -1.
</event>
<event>
 4    1  0.6017350E+000  0.1000000E+03  0.7546771E-02  0.1280296E+00
         21   -1    0    0  501  502  0.00000000000E+00  0.00000000000E+00  0.76778099812E+02  0.76778099812E+02  0.00000000000E+00 0. -1.
         21   -1    0    0  502  503 -0.00000000000E+00 -0.00000000000E+00 -0.17800640739E+04  0.17800640739E+04  0.00000000000E+00 0.  1.
          6    1    1    2  501    0 -0.21171695237E+03  0.10812613355E+03 -0.28882093941E+03  0.41214301368E+03  0.17300000000E+03 0.  1.
         -6    1    1    2    0  503  0.21171695237E+03 -0.10812613355E+03 -0.14144650346E+04  0.14446991600E+04  0.17300000000E+03 0. -1.
</event>
<event>
 4    1  0.6017350E+000  0.1000000E+03  0.7546771E-02  0.1280296E+00
         21   -1    0    0  503  502  0.00000000000E+00  0.00000000000E+00  0.13425853431E+03  0.13425853431E+03  0.00000000000E+00 0. -1.
         21   -1    0    0  501  503 -0.00000000000E+00 -0.00000000000E+00 -0.72753874915E+03  0.72753874915E+03  0.00000000000E+00 0. -1.
          6    1    1    2  501    0 -0.58893944139E+02 -0.27101877285E+02 -0.64419320850E+03  0.67016184485E+03  0.17300000000E+03 0. -1.
         -6    1    1    2    0  502  0.58893944139E+02  0.27101877285E+02  0.50912993661E+02  0.19163543861E+03  0.17300000000E+03 0. -1.
</event>
<event>
 4    1  0.6017350E+000  0.1000000E+03  0.7546771E-02  0.1280296E+00
         21   -1    0    0  503  502  0.00000000000E+00  0.00000000000E+00  0.11702776915E+03  0.11702776915E+03  0.00000000000E+00 0. -1.
         21   -1    0    0  501  503 -0.00000000000E+00 -0.00000000000E+00 -0.56746534981E+03  0.56746534981E+03  0.00000000000E+00 0. -1.
          6    1    1    2  501    0  0.15478755068E+03  0.40499266745E+02 -0.36375264435E+03  0.43341015531E+03  0.17300000000E+03 0. -1.
         -6    1    1    2    0  502 -0.15478755068E+03 -0.40499266745E+02 -0.86684936309E+02  0.25108296365E+03  0.17300000000E+03 0. -1.
</event>
<event>
 4    1  0.6017350E+000  0.1000000E+03  0.7546771E-02  0.1280296E+00
         21   -1    0    0  501  502  0.00000000000E+00  0.00000000000E+00  0.10109952124E+03  0.10109952124E+03  0.00000000000E+00 0. -1.
         21   -1    0    0  502  503 -0.00000000000E+00 -0.00000000000E+00 -0.58775115237E+03  0.58775115237E+03  0.00000000000E+00 0. -1.
          6    1    1    2  501    0 -0.33059084643E+02 -0.82538759222E+02 -0.35730267957E+02  0.19776552252E+03  0.17300000000E+03 0. -1.
         -6    1    1    2    0  503  0.33059084643E+02  0.82538759222E+02 -0.45092136317E+03  0.49108515109E+03  0.17300000000E+03 0. -1.
</event>
<event>
 4    1  0.6017350E+000  0.1000000E+03  0.7546771E-02  0.1280296E+00
         21   -1    0    0  501  502  0.00000000000E+00  0.00000000000E+00  0.66683848895E+02  0.66683848895E+02  0.00000000000E+00 0. -1.
         21   -1    0    0  502  503 -0.00000000000E+00 -0.00000000000E+00 -0.72711949796E+03  0.72711949796E+03  0.00000000000E+00 0. -1.
          6    1    1    2  501    0 -0.11138631140E+03  0.36517302791E+02 -0.20510848967E+03  0.29281208361E+03  0.17300000000E+03 0. -1.
         -6    1    1    2    0  503  0.11138631140E+03 -0.36517302791E+02 -0.45532715939E+03  0.50099126324E+03  0.17300000000E+03 0. -1.
</event>
<event>
 4    1  0.6017350E+000  0.1000000E+03  0.7546771E-02  0.1280296E+00
         21   -1    0    0  501  502  0.00000000000E+00  0.00000000000E+00  0.23595409094E+03  0.23595409094E+03  0.00000000000E+00 0. -1.
         21   -1    0    0  502  503 -0.00000000000E+00 -0.00000000000E+00 -0.26899692497E+03  0.26899692497E+03  0.00000000000E+00 0. -1.
          6    1    1    2  501    0  0.64300707526E+02  0.94089878605E+02  0.12715472290E+03  0.24307367155E+03  0.17300000000E+03 0. -1.
         -6    1    1    2    0  503 -0.64300707526E+02 -0.94089878605E+02 -0.16019755693E+03  0.26187734436E+03  0.17300000000E+03 0. -1.
</event>
<event>
 4    1  0.6017350E+000  0.1000000E+03  0.7546771E-02  0.1280296E+00
         21   -1    0    0  501  502  0.00000000000E+00  0.00000000000E+00  0.34984248044E+03  0.34984248044E+03  0.00000000000E+00 0.  1.
         21   -1    0    0  502  503 -0.00000000000E+00 -0.00000000000E+00 -0.13884733799E+03  0.13884733799E+03  0.00000000000E+00 0. -1.
          6    1    1    2  501    0 -0.53385318892E+02 -0.71855175006E+02  0.21981612723E+03  0.29370272086E+03  0.17300000000E+03 0.  1.
         -6    1    1    2    0  503  0.53385318892E+02  0.71855175006E+02 -0.88209847781E+01  0.19498709757E+03  0.17300000000E+03 0. -1.
</event>
<event>
 4    1  0.6017350E+000  0.1000000E+03  0.7546771E-02  0.1280296E+00
         21   -1    0    0  501  502  0.00000000000E+00  0.00000000000E+00  0.37530647785E+03  0.37530647785E+03  0.00000000000E+00 0.  1.
         21   -1    0    0  502  503 -0.00000000000E+00 -0.00000000000E+00 -0.42475743712E+03  0.42475743712E+03  0.00000000000E+00 0. -1.
          6    1    1    2  501    0  0.79510614235E+02 -0.23093339209E+03  0.24004018319E+03  0.38366711992E+03  0.17300000000E+03 0.  1.
         -6    1    1    2    0  503 -0.79510614235E+02  0.23093339209E+03 -0.28949114246E+03  0.41639679504E+03  0.17300000000E+03 0. -1.
</event>
<event>
 4    1  0.6017350E+000  0.1000000E+03  0.7546771E-02  0.1280296E+00
         21   -1    0    0  503  502  0.00000000000E+00  0.00000000000E+00  0.26538116451E+03  0.26538116451E+03  0.00000000000E+00 0.  1.
         21   -1    0    0  501  503 -0.00000000000E+00 -0.00000000000E+00 -0.16599746778E+03  0.16599746778E+03  0.00000000000E+00 0. -1.
          6    1    1    2  501    0 -0.81012754034E+01 -0.99898914379E+02 -0.15934149311E+02  0.20056998996E+03  0.17300000000E+03 0. -1.
         -6    1    1    2    0  502  0.81012754034E+01  0.99898914379E+02  0.11531784605E+03  0.23080864233E+03  0.17300000000E+03 0.  1.
</event>
<event>
 4    1  0.6017350E+000  0.1000000E+03  0.7546771E-02  0.1280296E+00
         21   -1    0    0  503  502  0.00000000000E+00  0.00000000000E+00  0.43576484965E+03  0.43576484965E+03  0.00000000000E+00 0.  1.
         21   -1    0    0  501  503 -0.00000000000E+00 -0.00000000000E+00 -0.36407845630E+03  0.36407845630E+03  0.00000000000E+00 0. -1.
          6    1    1    2  501    0 -0.13630657766E+03  0.68877218205E+02 -0.29012236352E+03  0.37070681153E+03  0.17300000000E+03 0. -1.
         -6    1    1    2    0  502  0.13630657766E+03 -0.68877218205E+02  0.36180875686E+03  0.42913649442E+03  0.17300000000E+03 0.  1.
</event>
<event>
 4    1  0.6017350E+000  0.1000000E+03  0.7546771E-02  0.1280296E+00
         21   -1    0    0  503  502  0.00000000000E+00  0.00000000000E+00  0.12677961752E+03  0.12677961752E+03  0.00000000000E+00 0.  1.
         21   -1    0    0  501  503 -0.00000000000E+00 -0.00000000000E+00 -0.27668839571E+03  0.27668839571E+03  0.00000000000E+00 0. -1.
          6    1    1    2  501    0 -0.31355861082E+02  0.60566536567E+02 -0.98989900272E+02  0.21066441496E+03  0.17300000000E+03 0. -1.
         -6    1    1    2    0  502  0.31355861082E+02 -0.60566536567E+02 -0.50918877918E+02  0.19280359827E+03  0.17300000000E+03 0.  1.
</event>
<event>
 4    1  0.6017350E+000  0.1000000E+03  0.7546771E-02  0.1280296E+00
         21   -1    0    0  503  502  0.00000000000E+00  0.00000000000E+00  0.24880409218E+03  0.24880409218E+03  0.00000000000E+00 0.  1.
         21   -1    0    0  501  503 -0.00000000000E+00 -0.00000000000E+00 -0.48272145154E+03  0.48272145154E+03  0.00000000000E+00 0.  1.
          6    1    1    2  501    0  0.52847617266E+02  0.35916197458E+02 -0.42663064755E+03  0.46478549173E+03  0.17300000000E+03 0.  1.
         -6    1    1    2    0  502 -0.52847617266E+02 -0.35916197458E+02  0.19271328820E+03  0.26674005199E+03  0.17300000000E+03 0.  1.
</event>
<event>
 4    1  0.6017350E+000  0.1000000E+03  0.7546771E-02  0.1280296E+00
         21   -1    0    0  503  502  0.00000000000E+00  0.00000000000E+00  0.40595467149E+03  0.40595467149E+03  0.00000000000E+00 0.  1.
         21   -1    0    0  501  503 -0.00000000000E+00 -0.00000000000E+00 -0.14560228854E+03  0.14560228854E+03  0.00000000000E+00 0.  1.
          6    1    1    2  501    0 -0.72209711423E+02  0.47919882452E+02 -0.36798496027E+02  0.19696113035E+03  0.17300000000E+03 0.  1.
         -6    1    1    2    0  502  0.72209711423E+02 -0.47919882452E+02  0.29715087898E+03  0.35459582969E+03  0.17300000000E+03 0.  1.
</event>
<event>
 4    1  0.6017350E+000  0.1000000E+03  0.7546771E-02  0.1280296E+00
         21   -1    0    0  501  502  0.00000000000E+00  0.00000000000E+00  0.17849531475E+03  0.17849531475E+03  0.00000000000E+00 0.  1.
         21   -1    0    0  502  503 -0.00000000000E+00 -0.00000000000E+00 -0.72991043149E+03  0.72991043149E+03  0.00000000000E+00 0.  1.
          6    1    1    2  501    0  0.23201271572E+03  0.49295864108E+02 -0.11464077358E+02  0.29380334842E+03  0.17300000000E+03 0.  1.
         -6    1    1    2    0  503 -0.23201271572E+03 -0.49295864108E+02 -0.53995103939E+03  0.61460239782E+03  0.17300000000E+03 0.  1.
</event>
<event>
 4    1  0.6017350E+000  0.1000000E+03  0.7546771E-02  0.1280296E+00
         21   -1    0    0  501  502  0.00000000000E+00  0.00000000000E+00  0.25265339396E+03  0.25265339396E+03  0.00000000000E+00 0.  1.
         21   -1    0    0  502  503 -0.00000000000E+00 -0.00000000000E+00 -0.37639818279E+03  0.37639818279E+03  0.00000000000E+00 0.  1.
          6    1    1    2  501    0 -0.16913395316E+03  0.25218071446E+02  0.13144930736E+03  0.27649623079E+03  0.17300000000E+03 0.  1.
         -6    1    1    2    0  503  0.16913395316E+03 -0.25218071446E+02 -0.25519409618E+03  0.35255534596E+03  0.17300000000E+03 0.  1.
</event>
<event>
 4    1  0.6017350E+000  0.1000000E+03  0.7546771E-02  0.1280296E+00
         21   -1    0    0  503  502  0.00000000000E+00  0.00000000000E+00  0.23001015584E+03  0.23001015584E+03  0.00000000000E+00 0.  1.
         21   -1    0    0  501  503 -0.00000000000E+00 -0.00000000000E+00 -0.36874481508E+03  0.36874481508E+03  0.00000000000E+00 0.  1.
          6    1    1    2  501    0  0.15577148897E+03  0.12934227771E+03 -0.19052838198E+03  0.32745113517E+03  0.17300000000E+03 0.  1.
         -6    1    1    2    0  502 -0.15577148897E+03 -0.12934227771E+03  0.51793722744E+02  0.27130383576E+03  0.17300000000E+03 0.  1.
</event>
<event>
 4    1  0.6017350E+000  0.1000000E+03  0.7546771E-02  0.1280296E+00
         21   -1    0    0  503  502  0.00000000000E+00  0.00000000000E+00  0.17170204237E+02  0.17170204237E+02  0.00000000000E+00 0.  1.
         21   -1    0    0  501  503 -0.00000000000E+00 -0.00000000000E+00 -0.24673908073E+04  0.24673908073E+04  0.00000000000E+00 0.  1.
          6    1    1    2  501    0  0.76855009688E+01  0.17510044626E+02 -0.18882170278E+04  0.18962220895E+04  0.17300000000E+03 0.  1.
         -6    1    1    2    0  502 -0.76855009688E+01 -0.17510044626E+02 -0.56200357521E+03  0.58833892200E+03  0.17300000000E+03 0.  1.
</event>
<event>
 4    1  0.6017350E+000  0.1000000E+03  0.7546771E-02  0.1280296E+00
         21   -1    0    0  503  502  0.00000000000E+00  0.00000000000E+00  0.14280608908E+03  0.14280608908E+03  0.00000000000E+00 0.  1.
         21   -1    0    0  501  503 -0.00000000000E+00 -0.00000000000E+00 -0.39422238539E+03  0.39422238539E+03  0.00000000000E+00 0.  1.
          6    1    1    2  501    0 -0.60150637410E+02  0.14747281792E+03 -0.16153121662E+03  0.28528523472E+03  0.17300000000E+03 0.  1.
         -6    1    1    2    0  502  0.60150637410E+02 -0.14747281792E+03 -0.89885079689E+02  0.25174323975E+03  0.17300000000E+03 0.  1.
</event>
<event>
 4    1  0.6017350E+000  0.1000000E+03  0.7546771E-02  0.1280296E+00
         21   -1    0    0  503  502  0.00000000000E+00  0.00000000000E+00  0.13129810817E+03  0.13129810817E+03  0.00000000000E+00 0.  1.
         21   -1    0    0  501  503 -0.00000000000E+00 -0.00000000000E+00 -0.12135660239E+04  0.12135660239E+04  0.00000000000E+00 0.  1.
          6    1    1    2  501    0 -0.20193563128E+03 -0.13910043438E+03 -0.98453917328E+03  0.10292586234E+04  0.17300000000E+03 0.  1.
         -6    1    1    2    0  502  0.20193563128E+03  0.13910043438E+03 -0.97728742438E+02  0.31560550871E+03  0.17300000000E+03 0.  1.
</event>
<event>
 4    1  0.6017350E+000  0.1000000E+03  0.7546771E-02  0.1280296E+00
         21   -1    0    0  501  502  0.00000000000E+00  0.00000000000E+00  0.62186448497E+03  0.62186448497E+03  0.00000000000E+00 0.  1.
         21   -1    0    0  502  503 -0.00000000000E+00 -0.00000000000E+00 -0.10157302900E+03  0.10157302900E+03  0.00000000000E+00 0.  1.
          6    1    1    2  501    0  0.42020920748E+02  0.42012056357E+02  0.50820068792E+03  0.54011823693E+03  0.17300000000E+03 0.  1.
         -6    1    1    2    0  503 -0.42020920748E+02 -0.42012056357E+02  0.12090768045E+02  0.18331927703E+03  0.17300000000E+03 0.  1.
</event>
<event>
 4    1  0.6017350E+000  0.1000000E+03  0.7546771E-02  0.1280296E+00
         21   -1    0    0  503  502  0.00000000000E+00  0.00000000000E+00  0.92437292062E+03  0.92437292062E+03  0.00000000000E+00 0. -1.
         21   -1    0    0  501  503 -0.00000000000E+00 -0.00000000000E+00 -0.39514558940E+02  0.39514558940E+02  0.00000000000E+00 0.  1.
          6    1    1    2  501    0  0.42962508813E+02  0.53159867371E+02  0.33177721965E+03  0.38036413099E+03  0.17300000000E+03 0.  1.
         -6    1    1    2    0  502 -0.42962508813E+02 -0.53159867371E+02  0.55308114202E+03  0.58352334857E+03  0.17300000000E+03 0. -1.
</event>
<event>
 4    1  0.6017350E+000  0.1000000E+03  0.7546771E-02  0.1280296E+00
         21   -1    0    0  503  502  0.00000000000E+00  0.00000000000E+00  0.54560482220E+02  0.54560482220E+02  0.00000000000E+00 0. -1.
         21   -1    0    0  501  503 -0.00000000000E+00 -0.00000000000E+00 -0.10593212882E+04  0.10593212882E+04  0.00000000000E+00 0.  1.
          6    1    1    2  501    0  0.10575048084E+03  0.11640073892E+03 -0.63210706014E+03  0.67395892434E+03  0.17300000000E+03 0.  1.
         -6    1    1    2    0  502 -0.10575048084E+03 -0.11640073892E+03 -0.37265374588E+03  0.43992284612E+03  0.17300000000E+03 0. -1.
</event>
<event>
 4    1  0.6017350E+000  0.1000000E+03  0.7546771E-02  0.1280296E+00
         21   -1    0    0  503  502  0.00000000000E+00  0.00000000000E+00  0.63276030691E+03  0.63276030691E+03  0.00000000000E+00 0. -1.
         21   -1    0    0  501  503 -0.00000000000E+00 -0.00000000000E+00 -0.13508546644E+03  0.13508546644E+03  0.00000000000E+00 0.  1.
          6    1    1    2  501    0 -0.11452986689E+03  0.19564467426E+03  0.16420388940E+03  0.32906814837E+03  0.17300000000E+03 0.  1.
         -6    1    1    2    0  502  0.11452986689E+03 -0.19564467426E+03  0.33347095107E+03  0.43877762498E+03  0.17300000000E+03 0. -1.
</event>
<event>
 4    1  0.6017350E+000  0.1000000E+03  0.7546771E-02  0.1280296E+00
         21   -1    0    0  501  502  0.00000000000E+00  0.00000000000E+00  0.20734673772E+04  0.20734673772E+04  0.00000000000E+00 0.  1.
         21   -1    0    0  502  503 -0.00000000000E+00 -0.00000000000E+00 -0.26944077034E+02  0.26944077034E+02  0.00000000000E+00 0. -1.
          6    1    1    2  501    0 -0.10298581049E+03  0.41079483323E+02  0.15422790357E+04  0.15559072032E+04  0.17300000000E+03 0.  1.
         -6    1    1    2    0  503  0.10298581049E+03 -0.41079483323E+02  0.50424426449E+03  0.54450425103E+03  0.17300000000E+03 0.  1.
</event>
<event>
 4    1  0.6017350E+000  0.1000000E+03  0.7546771E-02  0.1280296E+00
         21   -1    0    0  501  502  0.00000000000E+00  0.00000000000E+00  0.23541871886E+03  0.23541871886E+03  0.00000000000E+00 0.  1.
         21   -1    0    0  502  503 -0.00000000000E+00 -0.00000000000E+00 -0.21140227882E+03  0.21140227882E+03  0.00000000000E+00 0.  1.
          6    1    1    2  501    0 -0.14889525804E+02 -0.14722624727E+02  0.15149589347E+03  0.23090790241E+03  0.17300000000E+03 0.  1.
         -6    1    1    2    0  503  0.14889525804E+02  0.14722624727E+02 -0.12747945344E+03  0.21591309526E+03  0.17300000000E+03 0.  1.
</event>
<event>
 4    1  0.6017350E+000  0.1000000E+03  0.7546771E-02  0.1280296E+00
         21   -1    0    0  503  502  0.00000000000E+00  0.00000000000E+00  0.25481585090E+04  0.25481585090E+04  0.00000000000E+00 0.  1.
         21   -1    0    0  501  503 -0.00000000000E+00 -0.00000000000E+00 -0.25391205773E+02  0.25391205773E+02  0.00000000000E+00 0. -1.
          6    1    1    2  501    0  0.77097306924E+01 -0.13162514093E+03  0.59432733498E+03  0.63288118852E+03  0.17300000000E+03 0. -1.
         -6    1    1    2    0  502 -0.77097306924E+01  0.13162514093E+03  0.19284399682E+04  0.19406685262E+04  0.17300000000E+03 0.  1.
</event>
<event>
 4    1  0.6017350E+000  0.1000000E+03  0.7546771E-02  0.1280296E+00
         21   -1    0    0  503  502  0.00000000000E+00  0.00000000000E+00  0.39087024465E+02  0.39087024465E+02  0.00000000000E+00 0.  1.
         21   -1    0    0  501  503 -0.00000000000E+00 -0.00000000000E+00 -0.11228332846E+04  0.11228332846E+04  0.00000000000E+00 0. -1.
          6    1    1    2  501    0 -0.78955576006E+02  0.62166913296E+02 -0.71417675115E+03  0.74167118050E+03  0.17300000000E+03 0. -1.
         -6    1    1    2    0  502  0.78955576006E+02 -0.62166913296E+02 -0.36956950895E+03  0.42024912854E+03  0.17300000000E+03 0.  1.
</event>
<event>
 4    1  0.6017350E+000  0.1000000E+03  0.7546771E-02  0.1280296E+00
         21   -1    0    0  503  502  0.00000000000E+00  0.00000000000E+00  0.10214021047E+03  0.10214021047E+03  0.00000000000E+00 0. -1.
         21   -1    0    0  501  503 -0.00000000000E+00 -0.00000000000E+00 -0.36919967078E+03  0.36919967078E+03  0.00000000000E+00 0.  1.
          6    1    1    2  501    0  0.82011318497E+02 -0.32435493134E+02 -0.13135386495E+03  0.23443710332E+03  0.17300000000E+03 0. -1.
         -6    1    1    2    0  502 -0.82011318497E+02  0.32435493134E+02 -0.13570559536E+03  0.23690277793E+03  0.17300000000E+03 0.  1.
</event>
<event>
 4    1  0.6017350E+000  0.1000000E+03  0.7546771E-02  0.1280296E+00
         21   -1    0    0  503  502  0.00000000000E+00  0.00000000000E+00  0.67807250480E+02  0.67807250480E+02  0.00000000000E+00 0. -1.
         21   -1    0    0  501  503 -0.00000000000E+00 -0.00000000000E+00 -0.81760388965E+03  0.81760388965E+03  0.00000000000E+00 0.  1.
          6    1    1    2  501    0 -0.92202849413E+02 -0.88378093732E+02 -0.19457078914E+03  0.28999800840E+03  0.17300000000E+03 0. -1.
         -6    1    1    2    0  502  0.92202849413E+02  0.88378093732E+02 -0.55522585003E+03  0.59541313173E+03  0.17300000000E+03 0.  1.
</event>
<event>
 4    1  0.6017350E+000  0.1000000E+03  0.7546771E-02  0.1280296E+00
         21   -1    0    0  503  502  0.00000000000E+00  0.00000000000E+00  0.75004150757E+02  0.75004150757E+02  0.00000000000E+00 0.  1.
         21   -1    0    0  501  503 -0.00000000000E+00 -0.00000000000E+00 -0.59860743802E+03  0.59860743802E+03  0.00000000000E+00 0.  1.
          6    1    1    2  501    0 -0.47489261030E+02 -0.90413901092E+02 -0.36889255066E+03  0.42004835121E+03  0.17300000000E+03 0.  1.
         -6    1    1    2    0  502  0.47489261030E+02  0.90413901092E+02 -0.15471073660E+03  0.25356323756E+03  0.17300000000E+03 0.  1.
</event>
<event>
 4    1  0.6017350E+000  0.1000000E+03  0.7546771E-02  0.1280296E+00
         21   -1    0    0  501  502  0.00000000000E+00  0.00000000000E+00  0.16463883390E+03  0.16463883390E+03  0.00000000000E+00 0. -1.
         21   -1    0    0  502  503 -0.00000000000E+00 -0.00000000000E+00 -0.20959152737E+03  0.20959152737E+03  0.00000000000E+00 0. -1.
          6    1    1    2  501    0 -0.63117219905E+02 -0.21963879955E+02 -0.11830003278E+02  0.18583633780E+03  0.17300000000E+03 0. -1.
         -6    1    1    2    0  503  0.63117219905E+02  0.21963879955E+02 -0.33122690188E+02  0.18839402346E+03  0.17300000000E+03 0. -1.
</event>
<event>
 4    1  0.6017350E+000  0.1000000E+03  0.7546771E-02  0.1280296E+00
         21   -1    0    0  501  502  0.00000000000E+00  0.00000000000E+00  0.13222366867E+03  0.13222366867E+03  0.00000000000E+00 0. -1.
         21   -1    0    0  502  503 -0.00000000000E+00 -0.00000000000E+00 -0.39782296826E+03  0.39782296826E+03  0.00000000000E+00 0. -1.
          6    1    1    2  501    0 -0.51087373789E+02  0.12398305928E+03 -0.53656678641E+02  0.22536583129E+03  0.17300000000E+03 0. -1.
         -6    1    1    2    0  503  0.51087373789E+02 -0.12398305928E+03 -0.21194262095E+03  0.30468080564E+03  0.17300000000E+03 0. -1.
</event>
<event>
 4    1  0.6017350E+000  0.1000000E+03  0.7546771E-02  0.1280296E+00
         21   -1    0    0  501  502  0.00000000000E+00  0.00000000000E+00  0.88242832167E+02  0.88242832167E+02  0.00000000000E+00 0. -1.
         21   -1    0    0  502  503 -0.00000000000E+00 -0.00000000000E+00 -0.83467595916E+03  0.83467595916E+03  0.00000000000E+00 0. -1.
          6    1    1    2  501    0  0.18107774282E+03  0.85309945524E+02 -0.27037454040E+03  0.37828339621E+03  0.17300000000E+03 0. -1.
         -6    1    1    2    0  503 -0.18107774282E+03 -0.85309945524E+02 -0.47605858660E+03  0.54463539513E+03  0.17300000000E+03 0. -1.
</event>
<event>
 4    1  0.6017350E+000  0.1000000E+03  0.7546771E-02  0.1280296E+00
         21   -1    0    0  501  502  0.00000000000E+00  0.00000000000E+00  0.10883975845E+03  0.10883975845E+03  0.00000000000E+00 0. -1.
         21   -1    0    0  502  503 -0.00000000000E+00 -0.00000000000E+00 -0.69186255703E+03  0.69186255703E+03  0.00000000000E+00 0. -1.
          6    1    1    2  501    0  0.16875203671E+03 -0.12998417370E+03 -0.29131412889E+03  0.40020751742E+03  0.17300000000E+03 0. -1.
         -6    1    1    2    0  503 -0.16875203671E+03  0.12998417370E+03 -0.29170866968E+03  0.40049479806E+03  0.17300000000E+03 0. -1.
</event>
<event>
 4    1  0.6017350E+000  0.1000000E+03  0.7546771E-02  0.1280296E+00
         21   -1    0    0  503  502  0.00000000000E+00  0.00000000000E+00  0.16713663165E+04  0.16713663165E+04  0.00000000000E+00 0. -1.
         21   -1    0    0  501  503 -0.00000000000E+00 -0.00000000000E+00 -0.27535347440E+02  0.27535347440E+02  0.00000000000E+00 0.  1.
          6    1    1    2  501    0 -0.10056843978E+03  0.76484216228E+02  0.77697633232E+03  0.80596840347E+03  0.17300000000E+03 0. -1.
         -6    1    1    2    0  502  0.10056843978E+03 -0.76484216228E+02  0.86685463672E+03  0.89293326045E+03  0.17300000000E+03 0. -1.
</event>
<event>
 4    1  0.6017350E+000  0.1000000E+03  0.7546771E-02  0.1280296E+00
         21   -1    0    0  503  502  0.00000000000E+00  0.00000000000E+00  0.33996736917E+03  0.33996736917E+03  0.00000000000E+00 0. -1.
         21   -1    0    0  501  503 -0.00000000000E+00 -0.00000000000E+00 -0.19036236290E+03  0.19036236290E+03  0.00000000000E+00 0.  1.
          6    1    1    2  501    0  0.54911021716E+02  0.39617150924E+02 -0.10634555295E+03  0.21406334480E+03  0.17300000000E+03 0. -1.
         -6    1    1    2    0  502 -0.54911021716E+02 -0.39617150924E+02  0.25595055922E+03  0.31626638727E+03  0.17300000000E+03 0. -1.
</event>
<event>
 4    1  0.6017350E+000  0.1000000E+03  0.7546771E-02  0.1280296E+00
         21   -1    0    0  501  502  0.00000000000E+00  0.00000000000E+00  0.12047886390E+04  0.12047886390E+04  0.00000000000E+00 0.  1.
         21   -1    0    0  502  503 -0.00000000000E+00 -0.00000000000E+00 -0.81375942945E+02  0.81375942945E+02  0.00000000000E+00 0.  1.
          6    1    1    2  501    0 -0.95776095411E+02  0.32581702212E+02  0.67604137453E+02  0.21150401219E+03  0.17300000000E+03 0.  1.
         -6    1    1    2    0  503  0.95776095411E+02 -0.32581702212E+02  0.10558085586E+04  0.10746605697E+04  0.17300000000E+03 0.  1.
</event>
<event>
 4    1  0.6017350E+000  0.1000000E+03  0.7546771E-02  0.1280296E+00
         21   -1    0    0  501  502  0.00000000000E+00  0.00000000000E+00  0.31997664489E+03  0.31997664489E+03  0.00000000000E+00 0.  1.
         21   -1    0    0  502  503 -0.00000000000E+00 -0.00000000000E+00 -0.13351366468E+03  0.13351366468E+03  0.00000000000E+00 0.  1.
          6    1    1    2  501    0  0.15204126188E+02  0.49457535716E+02  0.20356307194E+03  0.27211052451E+03  0.17300000000E+03 0.  1.
         -6    1    1    2    0  503 -0.15204126188E+02 -0.49457535716E+02 -0.17100091731E+02  0.18137978506E+03  0.17300000000E+03 0.  1.
</event>
<event>
 4    1  0.6017350E+000  0.1000000E+03  0.7546771E-02  0.1280296E+00
         21   -1    0    0  501  502  0.00000000000E+00  0.00000000000E+00  0.96451661093E+02  0.96451661093E+02  0.00000000000E+00 0.  1.
         21   -1    0    0  502  503 -0.00000000000E+00 -0.00000000000E+00 -0.57855512145E+03  0.57855512145E+03  0.00000000000E+00 0.  1.
          6    1    1    2  501    0  0.13953951225E+03 -0.74738694395E+02 -0.20022760110E+03  0.30834597478E+03  0.17300000000E+03 0.  1.
         -6    1    1    2    0  503 -0.13953951225E+03  0.74738694395E+02 -0.28187585925E+03  0.36666080776E+03  0.17300000000E+03 0.  1.
</event>
<event>
 4    1  0.6017350E+000  0.1000000E+03  0.7546771E-02  0.1280296E+00
         21   -1    0    0  501  502  0.00000000000E+00  0.00000000000E+00  0.25253589327E+03  0.25253589327E+03  0.00000000000E+00 0.  1.
         21   -1    0    0  502  503 -0.00000000000E+00 -0.00000000000E+00 -0.14725581374E+03  0.14725581374E+03  0.00000000000E+00 0.  1.
          6    1    1    2  501    0 -0.79572935015E+02 -0.13113280456E+02  0.81114486625E+02  0.20739423823E+03  0.17300000000E+03 0.  1.
         -6    1    1    2    0  503  0.79572935015E+02  0.13113280456E+02  0.24165592899E+02  0.19239746878E+03  0.17300000000E+03 0.  1.
</event>
<event>
 4    1  0.6017350E+000  0.1000000E+03  0.7546771E-02  0.1280296E+00
         21   -1    0    0  501  502  0.00000000000E+00  0.00000000000E+00  0.21693947994E+03  0.21693947994E+03  0.00000000000E+00 0.  1.
         21   -1    0    0  502  503 -0.00000000000E+00 -0.00000000000E+00 -0.39805740641E+03  0.39805740641E+03  0.00000000000E+00 0.  1.
          6    1    1    2  501    0 -0.21432340621E+02  0.67336685235E+02  0.14675134263E+03  0.23761003970E+03  0.17300000000E+03 0.  1.
         -6    1    1    2    0  503  0.21432340621E+02 -0.67336685235E+02 -0.32786926910E+03  0.37738684664E+03  0.17300000000E+03 0.  1.
</event>
<event>
 4    1  0.6017350E+000  0.1000000E+03  0.7546771E-02  0.1280296E+00
         21   -1    0    0  501  502  0.00000000000E+00  0.00000000000E+00  0.23618126572E+02  0.23618126572E+02  0.00000000000E+00 0.  1.
         21   -1    0    0  502  503 -0.00000000000E+00 -0.00000000000E+00 -0.21460095172E+04  0.21460095172E+04  0.00000000000E+00 0.  1.
          6    1    1    2  501    0  0.12808022012E+03  0.42923966361E+02 -0.81984847285E+03  0.84872111327E+03  0.17300000000E+03 0.  1.
         -6    1    1    2    0  503 -0.12808022012E+03 -0.42923966361E+02 -0.13025429178E+04  0.13209065305E+04  0.17300000000E+03 0.  1.
</event>
<event>
 4    1  0.6017350E+000  0.1000000E+03  0.7546771E-02  0.1280296E+00
         21   -1    0    0  501  502  0.00000000000E+00  0.00000000000E+00  0.64375049785E+02  0.64375049785E+02  0.00000000000E+00 0.  1.
         21   -1    0    0  502  503 -0.00000000000E+00 -0.00000000000E+00 -0.54296556592E+03  0.54296556592E+03  0.00000000000E+00 0.  1.
          6    1    1    2  501    0  0.61910628987E+02 -0.31365502690E+02 -0.21588582448E+03  0.28522343864E+03  0.17300000000E+03 0.  1.
         -6    1    1    2    0  503 -0.61910628987E+02  0.31365502690E+02 -0.26270469166E+03  0.32211717707E+03  0.17300000000E+03 0.  1.
</event>
<event>
 4    1  0.6017350E+000  0.1000000E+03  0.7546771E-02  0.1280296E+00
         21   -1    0    0  501  502  0.00000000000E+00  0.00000000000E+00  0.46761905528E+02  0.46761905528E+02  0.00000000000E+00 0.  1.
         21   -1    0    0  502  503 -0.00000000000E+00 -0.00000000000E+00 -0.80424510298E+03  0.80424510298E+03  0.00000000000E+00 0.  1.
          6    1    1    2  501    0  0.79963226129E+02 -0.30907437960E+02 -0.41857862511E+03  0.46096252847E+03  0.17300000000E+03 0.  1.
         -6    1    1    2    0  503 -0.79963226129E+02  0.30907437960E+02 -0.33890457234E+03  0.39004448003E+03  0.17300000000E+03 0.  1.
</event>
<event>
 4    1  0.6017350E+000  0.1000000E+03  0.7546771E-02  0.1280296E+00
         21   -1    0    0  501  502  0.00000000000E+00  0.00000000000E+00  0.30831885993E+02  0.30831885993E+02  0.00000000000E+00 0. -1.
         21   -1    0    0  502  503 -0.00000000000E+00 -0.00000000000E+00 -0.15145694989E+04  0.15145694989E+04  0.00000000000E+00 0.  1.
          6    1    1    2  501    0 -0.12157738281E+03  0.95086566394E+01 -0.58614683434E+03  0.62319225442E+03  0.17300000000E+03 0.  1.
         -6    1    1    2    0  503  0.12157738281E+03 -0.95086566394E+01 -0.89759077857E+03  0.92220913048E+03  0.17300000000E+03 0. -1.
</event>
<event>
 4    1  0.6017350E+000  0.1000000E+03  0.7546771E-02  0.1280296E+00
         21   -1    0    0  501  502  0.00000000000E+00  0.00000000000E+00  0.55677142340E+03  0.55677142340E+03  0.00000000000E+00 0. -1.
         21   -1    0    0  502  503 -0.00000000000E+00 -0.00000000000E+00 -0.68121761116E+02  0.68121761116E+02  0.00000000000E+00 0.  1.
          6    1    1    2  501    0 -0.17535755555E+01  0.64846107172E+02  0.34310739416E+03  0.38969189954E+03  0.17300000000E+03 0.  1.
         -6    1    1    2    0  503  0.17535755555E+01 -0.64846107172E+02  0.14554226813E+03  0.23520128498E+03  0.17300000000E+03 0. -1.
</event>
<event>
 4    1  0.6017350E+000  0.1000000E+03  0.7546771E-02  0.1280296E+00
         21   -1    0    0  501  502  0.00000000000E+00  0.00000000000E+00  0.30214721879E+03  0.30214721879E+03  0.00000000000E+00 0. -1.
         21   -1    0    0  502  503 -0.00000000000E+00 -0.00000000000E+00 -0.16663802995E+03  0.16663802995E+03  0.00000000000E+00 0.  1.
          6    1    1    2  501    0 -0.12209873960E+03 -0.51458446858E+02  0.12365886090E+03  0.25055256503E+03  0.17300000000E+03 0.  1.
         -6    1    1    2    0  503  0.12209873960E+03  0.51458446858E+02  0.11850327943E+02  0.21823268371E+03  0.17300000000E+03 0. -1.
</event>
<event>
 4    1  0.6017350E+000  0.1000000E+03  0.7546771E-02  0.1280296E+00
         21   -1    0    0  501  502  0.00000000000E+00  0.00000000000E+00  0.69527491761E+03  0.69527491761E+03  0.00000000000E+00 0.  1.
         21   -1    0    0  502  503 -0.00000000000E+00 -0.00000000000E+00 -0.36596356574E+03  0.36596356574E+03  0.00000000000E+00 0.  1.
          6    1    1    2  501    0  0.35766438117E+03  0.31761475999E+02  0.48987599973E+03  0.63153788170E+03  0.17300000000E+03 0.  1.
         -6    1    1    2    0  503 -0.35766438117E+03 -0.31761475999E+02 -0.16056464785E+03  0.42970060165E+03  0.17300000000E+03 0.  1.
</event>
<event>
 4    1  0.6017350E+000  0.1000000E+03  0.7546771E-02  0.1280296E+00
         21   -1    0    0  501  502  0.00000000000E+00  0.00000000000E+00  0.25266352057E+03  0.25266352057E+03  0.00000000000E+00 0.  1.
         21   -1    0    0  502  503 -0.00000000000E+00 -0.00000000000E+00 -0.24953384068E+03  0.24953384068E+03  0.00000000000E+00 0.  1.
          6    1    1    2  501    0  0.40514501278E+02  0.96146237241E+02  0.15067700735E+03  0.25202794348E+03  0.17300000000E+03 0.  1.
         -6    1    1    2    0  503 -0.40514501278E+02 -0.96146237241E+02 -0.14754732746E+03  0.25016941777E+03  0.17300000000E+03 0.  1.
</event>
<event>
 4    1  0.6017350E+000  0.1000000E+03  0.7546771E-02  0.1280296E+00
         21   -1    0    0  503  502  0.00000000000E+00  0.00000000000E+00  0.46897549571E+03  0.46897549571E+03  0.00000000000E+00 0. -1.
         21   -1    0    0  501  503 -0.00000000000E+00 -0.00000000000E+00 -0.48388749286E+03  0.48388749286E+03  0.00000000000E+00 0.  1.
          6    1    1    2  501    0  0.15433728143E+02 -0.12315801433E+01 -0.45108970051E+03  0.48337421803E+03  0.17300000000E+03 0.  1.
         -6    1    1    2    0  502 -0.15433728143E+02  0.12315801433E+01  0.43617770336E+03  0.46948877054E+03  0.17300000000E+03 0. -1.
</event>
<event>
 4    1  0.6017350E+000  0.1000000E+03  0.7546771E-02  0.1280296E+00
         21   -1    0    0  503  502  0.00000000000E+00  0.00000000000E+00  0.43709475219E+03  0.43709475219E+03  0.00000000000E+00 0. -1.
         21   -1    0    0  501  503 -0.00000000000E+00 -0.00000000000E+00 -0.25446722387E+03  0.25446722387E+03  0.00000000000E+00 0.  1.
          6    1    1    2  501    0 -0.10656873402E+03  0.27059024515E+02 -0.18144340410E+03  0.27375133748E+03  0.17300000000E+03 0.  1.
         -6    1    1    2    0  502  0.10656873402E+03 -0.27059024515E+02  0.36407093242E+03  0.41781063858E+03  0.17300000000E+03 0. -1.
</event>
<event>
 4    1  0.6017350E+000  0.1000000E+03  0.7546771E-02  0.1280296E+00
         21   -1    0    0  501  502  0.00000000000E+00  0.00000000000E+00  0.12259678154E+03  0.12259678154E+03  0.00000000000E+00 0. -1.
         21   -1    0    0  502  503 -0.00000000000E+00 -0.00000000000E+00 -0.43565871137E+03  0.43565871137E+03  0.00000000000E+00 0. -1.
          6    1    1    2  501    0  0.91531270739E+02 -0.10780537409E+03 -0.85267617793E+02  0.23916425078E+03  0.17300000000E+03 0. -1.
         -6    1    1    2    0  503 -0.91531270739E+02  0.10780537409E+03 -0.22779431204E+03  0.31909124213E+03  0.17300000000E+03 0. -1.
</event>
<event>
 4    1  0.6017350E+000  0.1000000E+03  0.7546771E-02  0.1280296E+00
         21   -1    0    0  501  502  0.00000000000E+00  0.00000000000E+00  0.87821990068E+02  0.87821990068E+02  0.00000000000E+00 0. -1.
         21   -1    0    0  502  503 -0.00000000000E+00 -0.00000000000E+00 -0.11334047579E+04  0.11334047579E+04  0.00000000000E+00 0. -1.
          6    1    1    2  501    0 -0.13549632726E+03 -0.16166601992E+02 -0.85765456803E+02  0.23644307412E+03  0.17300000000E+03 0. -1.
         -6    1    1    2    0  503  0.13549632726E+03  0.16166601992E+02 -0.95981731106E+03  0.98478367387E+03  0.17300000000E+03 0. -1.
</event>
<event>
 4    1  0.6017350E+000  0.1000000E+03  0.7546771E-02  0.1280296E+00
         21   -1    0    0  501  502  0.00000000000E+00  0.00000000000E+00  0.29614062194E+03  0.29614062194E+03  0.00000000000E+00 0. -1.
         21   -1    0    0  502  503 -0.00000000000E+00 -0.00000000000E+00 -0.20455011692E+03  0.20455011692E+03  0.00000000000E+00 0. -1.
          6    1    1    2  501    0 -0.70505068539E+02 -0.16017598586E+03  0.50262407334E+02  0.25116253846E+03  0.17300000000E+03 0. -1.
         -6    1    1    2    0  503  0.70505068539E+02  0.16017598586E+03  0.41328097682E+02  0.24952820040E+03  0.17300000000E+03 0. -1.
</event>
<event>
 4    1  0.6017350E+000  0.1000000E+03  0.7546771E-02  0.1280296E+00
         21   -1    0    0  503  502  0.00000000000E+00  0.00000000000E+00  0.72898071913E+02  0.72898071913E+02  0.00000000000E+00 0. -1.
         21   -1    0    0  501  503 -0.00000000000E+00 -0.00000000000E+00 -0.58835364685E+03  0.58835364685E+03  0.00000000000E+00 0. -1.
          6    1    1    2  501    0  0.26475724467E+02 -0.10441317024E+03 -0.31655429331E+03  0.37648199787E+03  0.17300000000E+03 0. -1.
         -6    1    1    2    0  502 -0.26475724467E+02  0.10441317024E+03 -0.19890128163E+03  0.28476972089E+03  0.17300000000E+03 0. -1.
</event>
<event>
 4    1  0.6017350E+000  0.1000000E+03  0.7546771E-02  0.1280296E+00
         21   -1    0    0  503  502  0.00000000000E+00  0.00000000000E+00  0.30388289280E+03  0.30388289280E+03  0.00000000000E+00 0. -1.
         21   -1    0    0  501  503 -0.00000000000E+00 -0.00000000000E+00 -0.20081792830E+03  0.20081792830E+03  0.00000000000E+00 0. -1.
          6    1    1    2  501    0 -0.61779479489E+02  0.62176136447E+02 -0.10477628803E+03  0.22043059353E+03  0.17300000000E+03 0. -1.
         -6    1    1    2    0  502  0.61779479489E+02 -0.62176136447E+02  0.20784125253E+03  0.28427022757E+03  0.17300000000E+03 0. -1.
</event>
<event>
 4    1  0.6017350E+000  0.1000000E+03  0.7546771E-02  0.1280296E+00
         21   -1    0    0  503  502  0.00000000000E+00  0.00000000000E+00  0.18192946696E+03  0.18192946696E+03  0.00000000000E+00 0.  1.
         21   -1    0    0  501  503 -0.00000000000E+00 -0.00000000000E+00 -0.18901231966E+03  0.18901231966E+03  0.00000000000E+00 0. -1.
          6    1    1    2  501    0  0.35222282980E+02 -0.22827096024E+02 -0.55476081534E+02  0.18646254625E+03  0.17300000000E+03 0. -1.
         -6    1    1    2    0  502 -0.35222282980E+02  0.22827096024E+02  0.48393228832E+02  0.18447924037E+03  0.17300000000E+03 0.  1.
</event>
<event>
 4    1  0.6017350E+000  0.1000000E+03  0.7546771E-02  0.1280296E+00
         21   -1    0    0  503  502  0.00000000000E+00  0.00000000000E+00  0.15967808257E+03  0.15967808257E+03  0.00000000000E+00 0. -1.
         21   -1    0    0  501  503 -0.00000000000E+00 -0.00000000000E+00 -0.50270189221E+03  0.50270189221E+03  0.00000000000E+00 0.  1.
          6    1    1    2  501    0  0.11839573516E+03 -0.12101425647E+03 -0.34362885951E+03  0.42032343911E+03  0.17300000000E+03 0.  1.
         -6    1    1    2    0  502 -0.11839573516E+03  0.12101425647E+03  0.60504987080E+00  0.24205653567E+03  0.17300000000E+03 0. -1.
</event>
<event>
 4    1  0.6017350E+000  0.1000000E+03  0.7546771E-02  0.1280296E+00
         21   -1    0    0  503  502  0.00000000000E+00  0.00000000000E+00  0.18680267554E+03  0.18680267554E+03  0.00000000000E+00 0. -1.
         21   -1    0    0  501  503 -0.00000000000E+00 -0.00000000000E+00 -0.48263958836E+03  0.48263958836E+03  0.00000000000E+00 0.  1.
          6    1    1    2  501    0  0.11858755981E+03  0.76705009988E+02 -0.37165627143E+03  0.43359434036E+03  0.17300000000E+03 0.  1.
         -6    1    1    2    0  502 -0.11858755981E+03 -0.76705009988E+02  0.75819358619E+02  0.23584792354E+03  0.17300000000E+03 0. -1.
</event>
<event>
 4    1  0.6017350E+000  0.1000000E+03  0.7546771E-02  0.1280296E+00
         21   -1    0    0  503  502  0.00000000000E+00  0.00000000000E+00  0.20524910478E+03  0.20524910478E+03  0.00000000000E+00 0. -1.
         21   -1    0    0  501  503 -0.00000000000E+00 -0.00000000000E+00 -0.32242406088E+03  0.32242406088E+03  0.00000000000E+00 0. -1.
          6    1    1    2  501    0 -0.51695408778E+02 -0.27987135109E+02 -0.24431158665E+03  0.30507842662E+03  0.17300000000E+03 0. -1.
         -6    1    1    2    0  502  0.51695408778E+02  0.27987135109E+02  0.12713663055E+03  0.22259473904E+03  0.17300000000E+03 0. -1.
</event>
<event>
 4    1  0.6017350E+000  0.1000000E+03  0.7546771E-02  0.1280296E+00
         21   -1    0    0  503  502  0.00000000000E+00  0.00000000000E+00  0.20038581630E+03  0.20038581630E+03  0.00000000000E+00 0. -1.
         21   -1    0    0  501  503 -0.00000000000E+00 -0.00000000000E+00 -0.81606718947E+03  0.81606718947E+03  0.00000000000E+00 0. -1.
          6    1    1    2  501    0  0.12605735461E+03 -0.21767920402E+03 -0.64112470466E+03  0.71010180921E+03  0.17300000000E+03 0. -1.
         -6    1    1    2    0  502 -0.12605735461E+03  0.21767920402E+03  0.25443331493E+02  0.30635119655E+03  0.17300000000E+03 0. -1.
</event>
<event>
 4    1  0.6017350E+000  0.1000000E+03  0.7546771E-02  0.1280296E+00
         21   -1    0    0  503  502  0.00000000000E+00  0.00000000000E+00  0.16504192439E+03  0.16504192439E+03  0.00000000000E+00 0. -1.
         21   -1    0    0  501  503 -0.00000000000E+00 -0.00000000000E+00 -0.52358988056E+03  0.52358988056E+03  0.00000000000E+00 0. -1.
          6    1    1    2  501    0  0.18032325598E+02  0.57971384469E+02 -0.44841441841E+03  0.48444848727E+03  0.17300000000E+03 0. -1.
         -6    1    1    2    0  502 -0.18032325598E+02 -0.57971384469E+02  0.89866462235E+02  0.20418331768E+03  0.17300000000E+03 0. -1.
</event>
<event>
 4    1  0.6017350E+000  0.1000000E+03  0.7546771E-02  0.1280296E+00
         21   -1    0    0  503  502  0.00000000000E+00  0.00000000000E+00  0.74470754578E+02  0.74470754578E+02  0.00000000000E+00 0.  1.
         21   -1    0    0  501  503 -0.00000000000E+00 -0.00000000000E+00 -0.72733987457E+03  0.72733987457E+03  0.00000000000E+00 0.  1.
          6    1    1    2  501    0  0.93284403904E+02  0.12316570578E+03 -0.35933446750E+03  0.42769385151E+03  0.17300000000E+03 0.  1.
         -6    1    1    2    0  502 -0.93284403904E+02 -0.12316570578E+03 -0.29353465249E+03  0.37411677763E+03  0.17300000000E+03 0.  1.
</event>
<event>
 4    1  0.6017350E+000  0.1000000E+03  0.7546771E-02  0.1280296E+00
         21   -1    0    0  503  502  0.00000000000E+00  0.00000000000E+00  0.10807913299E+03  0.10807913299E+03  0.00000000000E+00 0.  1.
         21   -1    0    0  501  503 -0.00000000000E+00 -0.00000000000E+00 -0.16179998160E+04  0.16179998160E+04  0.00000000000E+00 0. -1.
          6    1    1    2  501    0 -0.62631302041E+02 -0.36809535354E+03 -0.60154041995E+03  0.72883245408E+03  0.17300000000E+03 0. -1.
         -6    1    1    2    0  502  0.62631302041E+02  0.36809535354E+03 -0.90838026304E+03  0.99724649489E+03  0.17300000000E+03 0.  1.
</event>
<event>
 4    1  0.6017350E+000  0.1000000E+03  0.7546771E-02  0.1280296E+00
         21   -1    0    0  503  502  0.00000000000E+00  0.00000000000E+00  0.15559512569E+04  0.15559512569E+04  0.00000000000E+00 0.  1.
         21   -1    0    0  501  503 -0.00000000000E+00 -0.00000000000E+00 -0.57959030223E+02  0.57959030223E+02  0.00000000000E+00 0. -1.
          6    1    1    2  501    0  0.48701273953E+01 -0.24864306318E+02  0.92923162034E+02  0.19800420680E+03  0.17300000000E+03 0. -1.
         -6    1    1    2    0  502 -0.48701273953E+01  0.24864306318E+02  0.14050690646E+04  0.14159060803E+04  0.17300000000E+03 0.  1.
</event>
<event>
 4    1  0.6017350E+000  0.1000000E+03  0.7546771E-02  0.1280296E+00
         21   -1    0    0  503  502  0.00000000000E+00  0.00000000000E+00  0.58173094517E+03  0.58173094517E+03  0.00000000000E+00 0.  1.
         21   -1    0    0  501  503 -0.00000000000E+00 -0.00000000000E+00 -0.16382402986E+03  0.16382402986E+03  0.00000000000E+00 0. -1.
          6    1    1    2  501    0  0.81032810581E+02 -0.11611134640E+03 -0.48124929761E+02  0.22867699932E+03  0.17300000000E+03 0. -1.
         -6    1    1    2    0  502 -0.81032810581E+02  0.11611134640E+03  0.46603184507E+03  0.51687797571E+03  0.17300000000E+03 0.  1.
</event>
<event>
 4    1  0.6017350E+000  0.1000000E+03  0.7546771E-02  0.1280296E+00
         21   -1    0    0  503  502  0.00000000000E+00  0.00000000000E+00  0.94552611039E+02  0.94552611039E+02  0.00000000000E+00 0.  1.
         21   -1    0    0  501  503 -0.00000000000E+00 -0.00000000000E+00 -0.48631642186E+03  0.48631642186E+03  0.00000000000E+00 0. -1.
          6    1    1    2  501    0  0.33381448445E+02  0.11952995863E+03 -0.23045946246E+03  0.31375515286E+03  0.17300000000E+03 0. -1.
         -6    1    1    2    0  502 -0.33381448445E+02 -0.11952995863E+03 -0.16130434836E+03  0.26711388004E+03  0.17300000000E+03 0.  1.
</event>
<event>
 4    1  0.6017350E+000  0.1000000E+03  0.7546771E-02  0.1280296E+00
         21   -1    0    0  501  502  0.00000000000E+00  0.00000000000E+00  0.23621744962E+04  0.23621744962E+04  0.00000000000E+00 0. -1.
         21   -1    0    0  502  503 -0.00000000000E+00 -0.00000000000E+00 -0.17650334506E+02  0.17650334506E+02  0.00000000000E+00 0. -1.
          6    1    1    2  501    0  0.86092480482E+02 -0.24583559513E+02  0.15290225557E+04  0.15413809531E+04  0.17300000000E+03 0. -1.
         -6    1    1    2    0  503 -0.86092480482E+02  0.24583559513E+02  0.81550160592E+03  0.83844387758E+03  0.17300000000E+03 0. -1.
</event>
<event>
 4    1  0.6017350E+000  0.1000000E+03  0.7546771E-02  0.1280296E+00
         21   -1    0    0  503  502  0.00000000000E+00  0.00000000000E+00  0.18279877597E+03  0.18279877597E+03  0.00000000000E+00 0.  1.
         21   -1    0    0  501  503 -0.00000000000E+00 -0.00000000000E+00 -0.36256423532E+03  0.36256423532E+03  0.00000000000E+00 0.  1.
          6    1    1    2  501    0 -0.51995039690E+02 -0.69305606197E+02 -0.26976083697E+03  0.33197388506E+03  0.17300000000E+03 0.  1.
         -6    1    1    2    0  502  0.51995039690E+02  0.69305606197E+02  0.89995377616E+02  0.21338912623E+03  0.17300000000E+03 0.  1.
</event>
<event>
 4    1  0.6017350E+000  0.1000000E+03  0.7546771E-02  0.1280296E+00
         21   -1    0    0  503  502  0.00000000000E+00  0.00000000000E+00  0.27207343527E+03  0.27207343527E+03  0.00000000000E+00 0.  1.
         21   -1    0    0  501  503 -0.00000000000E+00 -0.00000000000E+00 -0.17435429365E+03  0.17435429365E+03  0.00000000000E+00 0.  1.
          6    1    1    2  501    0  0.10843449808E+03 -0.63583110079E+02  0.91206230240E+02  0.23248317938E+03  0.17300000000E+03 0.  1.
         -6    1    1    2    0  502 -0.10843449808E+03  0.63583110079E+02  0.65129113798E+01  0.21394454953E+03  0.17300000000E+03 0.  1.
</event>
<event>
 4    1  0.6017350E+000  0.1000000E+03  0.7546771E-02  0.1280296E+00
         21   -1    0    0  503  502  0.00000000000E+00  0.00000000000E+00  0.64290894101E+03  0.64290894101E+03  0.00000000000E+00 0. -1.
         21   -1    0    0  501  503 -0.00000000000E+00 -0.00000000000E+00 -0.74431819673E+02  0.74431819673E+02  0.00000000000E+00 0.  1.
          6    1    1    2  501    0  0.58557520910E+02 -0.90835637494E+02  0.15468019245E+03  0.25599816060E+03  0.17300000000E+03 0.  1.
         -6    1    1    2    0  502 -0.58557520910E+02  0.90835637494E+02  0.41379692889E+03  0.46134260008E+03  0.17300000000E+03 0. -1.
</event>
<event>
 4    1  0.6017350E+000  0.1000000E+03  0.7546771E-02  0.1280296E+00
         21   -1    0    0  501  502  0.00000000000E+00  0.00000000000E+00  0.24816659866E+03  0.24816659866E+03  0.00000000000E+00 0. -1.
         21   -1    0    0  502  503 -0.00000000000E+00 -0.00000000000E+00 -0.66941793409E+03  0.66941793409E+03  0.00000000000E+00 0.  1.
          6    1    1    2  501    0  0.80033823882E+02 -0.14796822845E+03  0.15911972968E+03  0.28904687850E+03  0.17300000000E+03 0. -1.
         -6    1    1    2    0  503 -0.80033823882E+02  0.14796822845E+03 -0.58037106511E+03  0.62853765425E+03  0.17300000000E+03 0.  1.
</event>
<event>
 4    1  0.6017350E+000  0.1000000E+03  0.7546771E-02  0.1280296E+00
         21   -1    0    0  501  502  0.00000000000E+00  0.00000000000E+00  0.10542433177E+03  0.10542433177E+03  0.00000000000E+00 0. -1.
         21   -1    0    0  502  503 -0.00000000000E+00 -0.00000000000E+00 -0.62560263612E+03  0.62560263612E+03  0.00000000000E+00 0.  1.
          6    1    1    2  501    0  0.15448625123E+03 -0.31164436201E+02 -0.10954963339E+03  0.25839378104E+03  0.17300000000E+03 0. -1.
         -6    1    1    2    0  503 -0.15448625123E+03  0.31164436201E+02 -0.41062867095E+03  0.47263318685E+03  0.17300000000E+03 0.  1.
</event>
<event>
 4    1  0.6017350E+000  0.1000000E+03  0.7546771E-02  0.1280296E+00
         21   -1    0    0  501  502  0.00000000000E+00  0.00000000000E+00  0.37078338109E+02  0.37078338109E+02  0.00000000000E+00 0.  1.
         21   -1    0    0  502  503 -0.00000000000E+00 -0.00000000000E+00 -0.10203858558E+04  0.10203858558E+04  0.00000000000E+00 0.  1.
          6    1    1    2  501    0 -0.12752559258E+02  0.76129499090E+02 -0.61159355237E+03  0.64026088565E+03  0.17300000000E+03 0.  1.
         -6    1    1    2    0  503  0.12752559258E+02 -0.76129499090E+02 -0.37171396528E+03  0.41720330822E+03  0.17300000000E+03 0.  1.
</event>
<event>
 4    1  0.6017350E+000  0.1000000E+03  0.7546771E-02  0.1280296E+00
         21   -1    0    0  501  502  0.00000000000E+00  0.00000000000E+00  0.39022302455E+02  0.39022302455E+02  0.00000000000E+00 0.  1.
         21   -1    0    0  502  503 -0.00000000000E+00 -0.00000000000E+00 -0.11348382199E+04  0.11348382199E+04  0.00000000000E+00 0.  1.
          6    1    1    2  501    0 -0.77123656043E+02  0.27591996655E+02 -0.30403169231E+03  0.35926820974E+03  0.17300000000E+03 0.  1.
         -6    1    1    2    0  503  0.77123656043E+02 -0.27591996655E+02 -0.79178422516E+03  0.81459231264E+03  0.17300000000E+03 0.  1.
</event>
<event>
 4    1  0.6017350E+000  0.1000000E+03  0.7546771E-02  0.1280296E+00
         21   -1    0    0  503  502  0.00000000000E+00  0.00000000000E+00  0.23097934720E+03  0.23097934720E+03  0.00000000000E+00 0. -1.
         21   -1    0    0  501  503 -0.00000000000E+00 -0.00000000000E+00 -0.18949171595E+03  0.18949171595E+03  0.00000000000E+00 0. -1.
          6    1    1    2  501    0  0.72032932025E+02 -0.41499075303E+02 -0.62903512180E+02  0.20198209919E+03  0.17300000000E+03 0. -1.
         -6    1    1    2    0  502 -0.72032932025E+02  0.41499075303E+02  0.10439114344E+03  0.21848896397E+03  0.17300000000E+03 0. -1.
</event>
<event>
 4    1  0.6017350E+000  0.1000000E+03  0.7546771E-02  0.1280296E+00
         21   -1    0    0  501  502  0.00000000000E+00  0.00000000000E+00  0.74469808576E+03  0.74469808576E+03  0.00000000000E+00 0.  1.
         21   -1    0    0  502  503 -0.00000000000E+00 -0.00000000000E+00 -0.12509351176E+03  0.12509351176E+03  0.00000000000E+00 0.  1.
          6    1    1    2  501    0  0.78408439917E+02 -0.62361804988E+02  0.63842445977E+03  0.66899302612E+03  0.17300000000E+03 0.  1.
         -6    1    1    2    0  503 -0.78408439917E+02  0.62361804988E+02 -0.18819885769E+02  0.20079857139E+03  0.17300000000E+03 0.  1.
</event>
<event>
 4    1  0.6017350E+000  0.1000000E+03  0.7546771E-02  0.1280296E+00
         21   -1    0    0  501  502  0.00000000000E+00  0.00000000000E+00  0.38827353693E+03  0.38827353693E+03  0.00000000000E+00 0.  1.
         21   -1    0    0  502  503 -0.00000000000E+00 -0.00000000000E+00 -0.16852149826E+03  0.16852149826E+03  0.00000000000E+00 0.  1.
          6    1    1    2  501    0 -0.15259528217E+03 -0.79945611967E+02  0.19295372653E+03  0.31118605624E+03  0.17300000000E+03 0.  1.
         -6    1    1    2    0  503  0.15259528217E+03  0.79945611967E+02  0.26798312138E+02  0.24560897896E+03  0.17300000000E+03 0.  1.
</event>
<event>
 4    1  0.6017350E+000  0.1000000E+03  0.7546771E-02  0.1280296E+00
         21   -1    0    0  501  502  0.00000000000E+00  0.00000000000E+00  0.21181104469E+04  0.21181104469E+04  0.00000000000E+00 0.  1.
         21   -1    0    0  502  503 -0.00000000000E+00 -0.00000000000E+00 -0.35246011812E+03  0.35246011812E+03  0.00000000000E+00 0.  1.
          6    1    1    2  501    0 -0.18300403379E+03 -0.34800805431E+03  0.19546257881E+04  0.20012723587E+04  0.17300000000E+03 0.  1.
         -6    1    1    2    0  503  0.18300403379E+03  0.34800805431E+03 -0.18897545930E+03  0.46929820633E+03  0.17300000000E+03 0.  1.
</event>
<event>
 4    1  0.6017350E+000  0.1000000E+03  0.7546771E-02  0.1280296E+00
         21   -1    0    0  501  502  0.00000000000E+00  0.00000000000E+00  0.54805827269E+03  0.54805827269E+03  0.00000000000E+00 0.  1.
         21   -1    0    0  502  503 -0.00000000000E+00 -0.00000000000E+00 -0.71678823760E+02  0.71678823760E+02  0.00000000000E+00 0.  1.
          6    1    1    2  501    0  0.65362013021E+02 -0.97683577602E+01  0.34860081694E+03  0.39473933568E+03  0.17300000000E+03 0.  1.
         -6    1    1    2    0  503 -0.65362013021E+02  0.97683577602E+01  0.12777863199E+03  0.22499776077E+03  0.17300000000E+03 0.  1.
</event>
<event>
 4    1  0.6017350E+000  0.1000000E+03  0.7546771E-02  0.1280296E+00
         21   -1    0    0  503  502  0.00000000000E+00  0.00000000000E+00  0.52622021538E+03  0.52622021538E+03  0.00000000000E+00 0. -1.
         21   -1    0    0  501  503 -0.00000000000E+00 -0.00000000000E+00 -0.10083866192E+03  0.10083866192E+03  0.00000000000E+00 0. -1.
          6    1    1    2  501    0  0.10985118258E+03 -0.10071558496E+03  0.25405103627E+03  0.34158723688E+03  0.17300000000E+03 0. -1.
         -6    1    1    2    0  502 -0.10985118258E+03  0.10071558496E+03  0.17133051718E+03  0.28547164042E+03  0.17300000000E+03 0. -1.
</event>
<event>
 4    1  0.6017350E+000  0.1000000E+03  0.7546771E-02  0.1280296E+00
         21   -1    0    0  503  502  0.00000000000E+00  0.00000000000E+00  0.74794980790E+03  0.74794980790E+03  0.00000000000E+00 0. -1.
         21   -1    0    0  501  503 -0.00000000000E+00 -0.00000000000E+00 -0.14069975302E+03  0.14069975302E+03  0.00000000000E+00 0. -1.
          6    1    1    2  501    0  0.88744826432E+02  0.53221394141E+02 -0.44496743115E+02  0.20643914639E+03  0.17300000000E+03 0. -1.
         -6    1    1    2    0  502 -0.88744826432E+02 -0.53221394141E+02  0.65174679799E+03  0.68221041454E+03  0.17300000000E+03 0. -1.
</event>
<event>
 4    1  0.6017350E+000  0.1000000E+03  0.7546771E-02  0.1280296E+00
         21   -1    0    0  503  502  0.00000000000E+00  0.00000000000E+00  0.54859833121E+02  0.54859833121E+02  0.00000000000E+00 0. -1.
         21   -1    0    0  501  503 -0.00000000000E+00 -0.00000000000E+00 -0.74496926867E+03  0.74496926867E+03  0.00000000000E+00 0. -1.
          6    1    1    2  501    0 -0.50930855995E+02  0.26725593543E+02 -0.51786949318E+03  0.54902278770E+03  0.17300000000E+03 0. -1.
         -6    1    1    2    0  502  0.50930855995E+02 -0.26725593543E+02 -0.17223994237E+03  0.25080631410E+03  0.17300000000E+03 0. -1.
</event>
<event>
 4    1  0.6017350E+000  0.1000000E+03  0.7546771E-02  0.1280296E+00
         21   -1    0    0  503  502  0.00000000000E+00  0.00000000000E+00  0.43544210829E+02  0.43544210829E+02  0.00000000000E+00 0. -1.
         21   -1    0    0  501  503 -0.00000000000E+00 -0.00000000000E+00 -0.95229642595E+03  0.95229642595E+03  0.00000000000E+00 0. -1.
          6    1    1    2  501    0  0.25099980145E+02  0.14307620316E+02 -0.70734492438E+03  0.72876646400E+03  0.17300000000E+03 0. -1.
         -6    1    1    2    0  502 -0.25099980145E+02 -0.14307620316E+02 -0.20140729073E+03  0.26707417277E+03  0.17300000000E+03 0. -1.
</event>
<event>
 4    1  0.6017350E+000  0.1000000E+03  0.7546771E-02  0.1280296E+00
         21   -1    0    0  503  502  0.00000000000E+00  0.00000000000E+00  0.15371211276E+04  0.15371211276E+04  0.00000000000E+00 0.  1.
         21   -1    0    0  501  503 -0.00000000000E+00 -0.00000000000E+00 -0.47557989894E+02  0.47557989894E+02  0.00000000000E+00 0. -1.
          6    1    1    2  501    0  0.10018245509E+03 -0.26946041968E+02  0.21719920025E+03  0.29642386219E+03  0.17300000000E+03 0. -1.
         -6    1    1    2    0  502 -0.10018245509E+03  0.26946041968E+02  0.12723639375E+04  0.12882552553E+04  0.17300000000E+03 0.  1.
</event>
<event>
 4    1  0.6017350E+000  0.1000000E+03  0.7546771E-02  0.1280296E+00
         21   -1    0    0  503  502  0.00000000000E+00  0.00000000000E+00  0.53681667573E+03  0.53681667573E+03  0.00000000000E+00 0.  1.
         21   -1    0    0  501  503 -0.00000000000E+00 -0.00000000000E+00 -0.87786837462E+02  0.87786837462E+02  0.00000000000E+00 0.  1.
          6    1    1    2  501    0  0.11911303880E+03 -0.48231832342E+02  0.18693926129E+03  0.28528847344E+03  0.17300000000E+03 0.  1.
         -6    1    1    2    0  502 -0.11911303880E+03  0.48231832342E+02  0.26209057697E+03  0.33931503975E+03  0.17300000000E+03 0.  1.
</event>
<event>
 4    1  0.6017350E+000  0.1000000E+03  0.7546771E-02  0.1280296E+00
         21   -1    0    0  503  502  0.00000000000E+00  0.00000000000E+00  0.18536610863E+03  0.18536610863E+03  0.00000000000E+00 0.  1.
         21   -1    0    0  501  503 -0.00000000000E+00 -0.00000000000E+00 -0.34872617492E+03  0.34872617492E+03  0.00000000000E+00 0.  1.
          6    1    1    2  501    0 -0.39963773739E+02  0.13660073509E+03 -0.20796602830E+03  0.30567259113E+03  0.17300000000E+03 0.  1.
         -6    1    1    2    0  502  0.39963773739E+02 -0.13660073509E+03  0.44605962020E+02  0.22841969242E+03  0.17300000000E+03 0.  1.
</event>
<event>
 4    1  0.6017350E+000  0.1000000E+03  0.7546771E-02  0.1280296E+00
         21   -1    0    0  501  502  0.00000000000E+00  0.00000000000E+00  0.18171513918E+04  0.18171513918E+04  0.00000000000E+00 0. -1.
         21   -1    0    0  502  503 -0.00000000000E+00 -0.00000000000E+00 -0.50233452742E+02  0.50233452742E+02  0.00000000000E+00 0. -1.
          6    1    1    2  501    0  0.83863844280E+01  0.27480563814E+02  0.16437630604E+04  0.16530915013E+04  0.17300000000E+03 0. -1.
         -6    1    1    2    0  503 -0.83863844280E+01 -0.27480563814E+02  0.12315487864E+03  0.21429334326E+03  0.17300000000E+03 0. -1.
</event>
<event>
 4    1  0.6017350E+000  0.1000000E+03  0.7546771E-02  0.1280296E+00
         21   -1    0    0  501  502  0.00000000000E+00  0.00000000000E+00  0.50590093830E+02  0.50590093830E+02  0.00000000000E+00 0. -1.
         21   -1    0    0  502  503 -0.00000000000E+00 -0.00000000000E+00 -0.16824062946E+04  0.16824062946E+04  0.00000000000E+00 0. -1.
          6    1    1    2  501    0  0.68576959888E+02 -0.21515637872E+03 -0.62367596815E+03  0.68548944556E+03  0.17300000000E+03 0. -1.
         -6    1    1    2    0  503 -0.68576959888E+02  0.21515637872E+03 -0.10081402327E+04  0.10475069429E+04  0.17300000000E+03 0. -1.
</event>
<event>
 4    1  0.6017350E+000  0.1000000E+03  0.7546771E-02  0.1280296E+00
         21   -1    0    0  501  502  0.00000000000E+00  0.00000000000E+00  0.21778229618E+03  0.21778229618E+03  0.00000000000E+00 0. -1.
         21   -1    0    0  502  503 -0.00000000000E+00 -0.00000000000E+00 -0.10418466738E+04  0.10418466738E+04  0.00000000000E+00 0. -1.
          6    1    1    2  501    0  0.15709529904E+03  0.10861123670E+03  0.11766220100E+03  0.28328206308E+03  0.17300000000E+03 0. -1.
         -6    1    1    2    0  503 -0.15709529904E+03 -0.10861123670E+03 -0.94172657858E+03  0.97634690685E+03  0.17300000000E+03 0. -1.
</event>
<event>
 4    1  0.6017350E+000  0.1000000E+03  0.7546771E-02  0.1280296E+00
         21   -1    0    0  501  502  0.00000000000E+00  0.00000000000E+00  0.49427616614E+02  0.49427616614E+02  0.00000000000E+00 0. -1.
         21   -1    0    0  502  503 -0.00000000000E+00 -0.00000000000E+00 -0.97602416645E+03  0.97602416645E+03  0.00000000000E+00 0. -1.
          6    1    1    2  501    0  0.83119173069E+02  0.10190852339E+03 -0.53783037275E+03  0.58007297293E+03  0.17300000000E+03 0. -1.
         -6    1    1    2    0  503 -0.83119173069E+02 -0.10190852339E+03 -0.38876617709E+03  0.44537881014E+03  0.17300000000E+03 0. -1.
</event>
<event>
 4    1  0.6017350E+000  0.1000000E+03  0.7546771E-02  0.1280296E+00
         21   -1    0    0  501  502  0.00000000000E+00  0.00000000000E+00  0.43542034632E+03  0.43542034632E+03  0.00000000000E+00 0.  1.
         21   -1    0    0  502  503 -0.00000000000E+00 -0.00000000000E+00 -0.85999641179E+02  0.85999641179E+02  0.00000000000E+00 0.  1.
          6    1    1    2  501    0 -0.55131772712E+02 -0.51622774965E+02  0.23206946581E+03  0.29914822449E+03  0.17300000000E+03 0.  1.
         -6    1    1    2    0  503  0.55131772712E+02  0.51622774965E+02  0.11735123934E+03  0.22227176301E+03  0.17300000000E+03 0.  1.
</event>
<event>
 4    1  0.6017350E+000  0.1000000E+03  0.7546771E-02  0.1280296E+00
         21   -1    0    0  501  502  0.00000000000E+00  0.00000000000E+00  0.13648990378E+03  0.13648990378E+03  0.00000000000E+00 0.  1.
         21   -1    0    0  502  503 -0.00000000000E+00 -0.00000000000E+00 -0.25575624687E+03  0.25575624687E+03  0.00000000000E+00 0.  1.
          6    1    1    2  501    0  0.58213314494E+02  0.39798499672E+02 -0.62295970750E+02  0.19693272590E+03  0.17300000000E+03 0.  1.
         -6    1    1    2    0  503 -0.58213314494E+02 -0.39798499672E+02 -0.56970372337E+02  0.19531342474E+03  0.17300000000E+03 0.  1.
</event>
<event>
 4    1  0.6017350E+000  0.1000000E+03  0.7546771E-02  0.1280296E+00
         21   -1    0    0  501  502  0.00000000000E+00  0.00000000000E+00  0.24267807997E+03  0.24267807997E+03  0.00000000000E+00 0.  1.
         21   -1    0    0  502  503 -0.00000000000E+00 -0.00000000000E+00 -0.16386361971E+03  0.16386361971E+03  0.00000000000E+00 0.  1.
          6    1    1    2  501    0 -0.57383058595E+02  0.48671904491E+02  0.10527370516E+03  0.21604009512E+03  0.17300000000E+03 0.  1.
         -6    1    1    2    0  503  0.57383058595E+02 -0.48671904491E+02 -0.26459244889E+02  0.19050160456E+03  0.17300000000E+03 0.  1.
</event>
<event>
 4    1  0.6017350E+000  0.1000000E+03  0.7546771E-02  0.1280296E+00
         21   -1    0    0  501  502  0.00000000000E+00  0.00000000000E+00  0.28281033019E+02  0.28281033019E+02  0.00000000000E+00 0.  1.
         21   -1    0    0  502  503 -0.00000000000E+00 -0.00000000000E+00 -0.12979386599E+04  0.12979386599E+04  0.00000000000E+00 0. -1.
          6    1    1    2  501    0  0.15308867470E+02  0.66786655821E+02 -0.79280043830E+03  0.81434412492E+03  0.17300000000E+03 0.  1.
         -6    1    1    2    0  503 -0.15308867470E+02 -0.66786655821E+02 -0.47685718862E+03  0.51187556804E+03  0.17300000000E+03 0. -1.
</event>
<event>
 4    1  0.6017350E+000  0.1000000E+03  0.7546771E-02  0.1280296E+00
         21   -1    0    0  501  502  0.00000000000E+00  0.00000000000E+00  0.22536793607E+03  0.22536793607E+03  0.00000000000E+00 0.  1.
         21   -1    0    0  502  503 -0.00000000000E+00 -0.00000000000E+00 -0.26851751332E+03  0.26851751332E+03  0.00000000000E+00 0. -1.
          6    1    1    2  501    0 -0.92956597364E+02  0.89342311380E+02  0.97045036338E+02  0.23657919747E+03  0.17300000000E+03 0.  1.
         -6    1    1    2    0  503  0.92956597364E+02 -0.89342311380E+02 -0.14019461359E+03  0.25730625192E+03  0.17300000000E+03 0. -1.
</event>
<event>
 4    1  0.6017350E+000  0.1000000E+03  0.7546771E-02  0.1280296E+00
         21   -1    0    0  501  502  0.00000000000E+00  0.00000000000E+00  0.13576525053E+03  0.13576525053E+03  0.00000000000E+00 0.  1.
         21   -1    0    0  502  503 -0.00000000000E+00 -0.00000000000E+00 -0.81947720002E+03  0.81947720002E+03  0.00000000000E+00 0. -1.
          6    1    1    2  501    0 -0.21841244907E+03  0.16689669270E+03 -0.23309526840E+03  0.39977607243E+03  0.17300000000E+03 0.  1.
         -6    1    1    2    0  503  0.21841244907E+03 -0.16689669270E+03 -0.45061668109E+03  0.55546637811E+03  0.17300000000E+03 0. -1.
</event>
<event>
 4    1  0.6017350E+000  0.1000000E+03  0.7546771E-02  0.1280296E+00
         21   -1    0    0  501  502  0.00000000000E+00  0.00000000000E+00  0.90704828266E+03  0.90704828266E+03  0.00000000000E+00 0.  1.
         21   -1    0    0  502  503 -0.00000000000E+00 -0.00000000000E+00 -0.19977386060E+03  0.19977386060E+03  0.00000000000E+00 0.  1.
          6    1    1    2  501    0  0.24879047335E+03  0.34349959811E+02  0.73973288697E+03  0.80013146634E+03  0.17300000000E+03 0.  1.
         -6    1    1    2    0  503 -0.24879047335E+03 -0.34349959811E+02 -0.32458464906E+02  0.30669067692E+03  0.17300000000E+03 0.  1.
</event>
<event>
 4    1  0.6017350E+000  0.1000000E+03  0.7546771E-02  0.1280296E+00
         21   -1    0    0  501  502  0.00000000000E+00  0.00000000000E+00  0.46301853988E+03  0.46301853988E+03  0.00000000000E+00 0.  1.
         21   -1    0    0  502  503 -0.00000000000E+00 -0.00000000000E+00 -0.86404952429E+02  0.86404952429E+02  0.00000000000E+00 0.  1.
          6    1    1    2  501    0  0.17731704517E+02 -0.38471918413E+02  0.63304466374E+02  0.18902634027E+03  0.17300000000E+03 0.  1.
         -6    1    1    2    0  503 -0.17731704517E+02  0.38471918413E+02  0.31330912108E+03  0.36039715205E+03  0.17300000000E+03 0.  1.
</event>
<event>
 4    1  0.6017350E+000  0.1000000E+03  0.7546771E-02  0.1280296E+00
         21   -1    0    0  501  502  0.00000000000E+00  0.00000000000E+00  0.38852090252E+02  0.38852090252E+02  0.00000000000E+00 0. -1.
         21   -1    0    0  502  503 -0.00000000000E+00 -0.00000000000E+00 -0.15171251700E+04  0.15171251700E+04  0.00000000000E+00 0. -1.
          6    1    1    2  501    0  0.12928398199E+03  0.50494567577E+02 -0.42271405460E+03  0.47736801454E+03  0.17300000000E+03 0. -1.
         -6    1    1    2    0  503 -0.12928398199E+03 -0.50494567577E+02 -0.10555590252E+04  0.10786092457E+04  0.17300000000E+03 0. -1.
</event>
<event>
 4    1  0.6017350E+000  0.1000000E+03  0.7546771E-02  0.1280296E+00
         21   -1    0    0  501  502  0.00000000000E+00  0.00000000000E+00  0.57263134029E+02  0.57263134029E+02  0.00000000000E+00 0. -1.
         21   -1    0    0  502  503 -0.00000000000E+00 -0.00000000000E+00 -0.98361053488E+03  0.98361053488E+03  0.00000000000E+00 0. -1.
          6    1    1    2  501    0 -0.53113318864E+02 -0.61928794004E+02 -0.15507767415E+03  0.24624029968E+03  0.17300000000E+03 0. -1.
         -6    1    1    2    0  503  0.53113318864E+02  0.61928794004E+02 -0.77126972670E+03  0.79463336923E+03  0.17300000000E+03 0. -1.
</event>
<event>
 4    1  0.6017350E+000  0.1000000E+03  0.7546771E-02  0.1280296E+00
         21   -1    0    0  501  502  0.00000000000E+00  0.00000000000E+00  0.18311245761E+04  0.18311245761E+04  0.00000000000E+00 0.  1.
         21   -1    0    0  502  503 -0.00000000000E+00 -0.00000000000E+00 -0.54817060430E+02  0.54817060430E+02  0.00000000000E+00 0.  1.
          6    1    1    2  501    0  0.19191948984E+03 -0.12961285338E+03  0.12741059765E+04  0.13064867477E+04  0.17300000000E+03 0.  1.
         -6    1    1    2    0  503 -0.19191948984E+03  0.12961285338E+03  0.50220153915E+03  0.57945488890E+03  0.17300000000E+03 0.  1.
</event>
<event>
 4    1  0.6017350E+000  0.1000000E+03  0.7546771E-02  0.1280296E+00
         21   -1    0    0  501  502  0.00000000000E+00  0.00000000000E+00  0.40359462713E+03  0.40359462713E+03  0.00000000000E+00 0.  1.
         21   -1    0    0  502  503 -0.00000000000E+00 -0.00000000000E+00 -0.57467291699E+03  0.57467291699E+03  0.00000000000E+00 0.  1.
          6    1    1    2  501    0  0.32654806643E+02 -0.18048321870E+03  0.33120641820E+03  0.41625379288E+03  0.17300000000E+03 0.  1.
         -6    1    1    2    0  503 -0.32654806643E+02  0.18048321870E+03 -0.50228470806E+03  0.56201375124E+03  0.17300000000E+03 0.  1.
</event>
<event>
 4    1  0.6017350E+000  0.1000000E+03  0.7546771E-02  0.1280296E+00
         21   -1    0    0  501  502  0.00000000000E+00  0.00000000000E+00  0.76122847882E+02  0.76122847882E+02  0.00000000000E+00 0.  1.
         21   -1    0    0  502  503 -0.00000000000E+00 -0.00000000000E+00 -0.70905494531E+03  0.70905494531E+03  0.00000000000E+00 0.  1.
          6    1    1    2  501    0  0.85119244812E+02 -0.12616491429E+03 -0.26624083603E+03  0.35210233485E+03  0.17300000000E+03 0.  1.
         -6    1    1    2    0  503 -0.85119244812E+02  0.12616491429E+03 -0.36669126140E+03  0.43307545834E+03  0.17300000000E+03 0.  1.
</event>
<event>
 4    1  0.6017350E+000  0.1000000E+03  0.7546771E-02  0.1280296E+00
         21   -1    0    0  501  502  0.00000000000E+00  0.00000000000E+00  0.30505391329E+03  0.30505391329E+03  0.00000000000E+00 0.  1.
         21   -1    0    0  502  503 -0.00000000000E+00 -0.00000000000E+00 -0.13596107662E+04  0.13596107662E+04  0.00000000000E+00 0.  1.
          6    1    1    2  501    0 -0.17411455450E+03  0.17385551156E+03  0.20869801114E+03  0.36609490141E+03  0.17300000000E+03 0.  1.
         -6    1    1    2    0  503  0.17411455450E+03 -0.17385551156E+03 -0.12632548641E+04  0.12985697781E+04  0.17300000000E+03 0.  1.
</event>
<event>
 4    1  0.6017350E+000  0.1000000E+03  0.7546771E-02  0.1280296E+00
         21   -1    0    0  501  502  0.00000000000E+00  0.00000000000E+00  0.19646448187E+03  0.19646448187E+03  0.00000000000E+00 0.  1.
         21   -1    0    0  502  503 -0.00000000000E+00 -0.00000000000E+00 -0.23594556665E+03  0.23594556665E+03  0.00000000000E+00 0.  1.
          6    1    1    2  501    0  0.20335966632E+02 -0.11413734491E+03  0.35124132906E+02  0.21119561964E+03  0.17300000000E+03 0.  1.
         -6    1    1    2    0  503 -0.20335966632E+02  0.11413734491E+03 -0.74605217686E+02  0.22121442888E+03  0.17300000000E+03 0.  1.
</event>
<event>
 4    1  0.6017350E+000  0.1000000E+03  0.7546771E-02  0.1280296E+00
         21   -1    0    0  501  502  0.00000000000E+00  0.00000000000E+00  0.17076173347E+03  0.17076173347E+03  0.00000000000E+00 0.  1.
         21   -1    0    0  502  503 -0.00000000000E+00 -0.00000000000E+00 -0.51830159899E+03  0.51830159899E+03  0.00000000000E+00 0.  1.
          6    1    1    2  501    0 -0.18859052140E+02 -0.35890159289E+02  0.10255865511E+03  0.20516102242E+03  0.17300000000E+03 0.  1.
         -6    1    1    2    0  503  0.18859052140E+02  0.35890159289E+02 -0.45009852063E+03  0.48390231004E+03  0.17300000000E+03 0.  1.
</event>
<event>
 4    1  0.6017350E+000  0.1000000E+03  0.7546771E-02  0.1280296E+00
         21   -1    0    0  503  502  0.00000000000E+00  0.00000000000E+00  0.77793391372E+02  0.77793391372E+02  0.00000000000E+00 0. -1.
         21   -1    0    0  501  503 -0.00000000000E+00 -0.00000000000E+00 -0.11721697646E+04  0.11721697646E+04  0.00000000000E+00 0. -1.
          6    1    1    2  501    0 -0.62266972739E+02  0.90708418788E+02 -0.10060427325E+04  0.10267210784E+04  0.17300000000E+03 0. -1.
         -6    1    1    2    0  502  0.62266972739E+02 -0.90708418788E+02 -0.88333640731E+02  0.22324207762E+03  0.17300000000E+03 0. -1.
</event>
<event>
 4    1  0.6017350E+000  0.1000000E+03  0.7546771E-02  0.1280296E+00
         21   -1    0    0  503  502  0.00000000000E+00  0.00000000000E+00  0.26040336570E+03  0.26040336570E+03  0.00000000000E+00 0. -1.
         21   -1    0    0  501  503 -0.00000000000E+00 -0.00000000000E+00 -0.14084159257E+03  0.14084159257E+03  0.00000000000E+00 0. -1.
          6    1    1    2  501    0 -0.15888527152E+02 -0.39252853046E+02 -0.13948772267E+02  0.17865273582E+03  0.17300000000E+03 0. -1.
         -6    1    1    2    0  502  0.15888527152E+02  0.39252853046E+02  0.13351054539E+03  0.22259222246E+03  0.17300000000E+03 0. -1.
</event>
<event>
 4    1  0.6017350E+000  0.1000000E+03  0.7546771E-02  0.1280296E+00
         21   -1    0    0  501  502  0.00000000000E+00  0.00000000000E+00  0.31557915119E+03  0.31557915119E+03  0.00000000000E+00 0. -1.
         21   -1    0    0  502  503 -0.00000000000E+00 -0.00000000000E+00 -0.22053949322E+03  0.22053949322E+03  0.00000000000E+00 0. -1.
          6    1    1    2  501    0  0.15186916452E+03  0.11936425759E+03 -0.18062089999E+01  0.25931512010E+03  0.17300000000E+03 0. -1.
         -6    1    1    2    0  503 -0.15186916452E+03 -0.11936425759E+03  0.96845866968E+02  0.27680352431E+03  0.17300000000E+03 0. -1.
</event>
<event>
 4    1  0.6017350E+000  0.1000000E+03  0.7546771E-02  0.1280296E+00
         21   -1    0    0  503  502  0.00000000000E+00  0.00000000000E+00  0.98875706449E+03  0.98875706449E+03  0.00000000000E+00 0. -1.
         21   -1    0    0  501  503 -0.00000000000E+00 -0.00000000000E+00 -0.18112958505E+03  0.18112958505E+03  0.00000000000E+00 0. -1.
          6    1    1    2  501    0 -0.14728697416E+03 -0.22649983084E+02 -0.88683483491E+02  0.24494945343E+03  0.17300000000E+03 0. -1.
         -6    1    1    2    0  502  0.14728697416E+03  0.22649983084E+02  0.89631096292E+03  0.92493719611E+03  0.17300000000E+03 0. -1.
</event>
<event>
 4    1  0.6017350E+000  0.1000000E+03  0.7546771E-02  0.1280296E+00
         21   -1    0    0  503  502  0.00000000000E+00  0.00000000000E+00  0.63980367235E+03  0.63980367235E+03  0.00000000000E+00 0. -1.
         21   -1    0    0  501  503 -0.00000000000E+00 -0.00000000000E+00 -0.16352650864E+03  0.16352650864E+03  0.00000000000E+00 0. -1.
          6    1    1    2  501    0 -0.22630286690E+02  0.15972798795E+02 -0.99500634911E+02  0.20148607030E+03  0.17300000000E+03 0. -1.
         -6    1    1    2    0  502  0.22630286690E+02 -0.15972798795E+02  0.57577779862E+03  0.60184411069E+03  0.17300000000E+03 0. -1.
</event>
<event>
 4    1  0.6017350E+000  0.1000000E+03  0.7546771E-02  0.1280296E+00
         21   -1    0    0  501  502  0.00000000000E+00  0.00000000000E+00  0.37400117133E+03  0.37400117133E+03  0.00000000000E+00 0.  1.
         21   -1    0    0  502  503 -0.00000000000E+00 -0.00000000000E+00 -0.16133859493E+03  0.16133859493E+03  0.00000000000E+00 0.  1.
          6    1    1    2  501    0 -0.41343809645E+02  0.16635120529E+03  0.14129907124E+03  0.28156076010E+03  0.17300000000E+03 0.  1.
         -6    1    1    2    0  503  0.41343809645E+02 -0.16635120529E+03  0.71363505159E+02  0.25377900615E+03  0.17300000000E+03 0.  1.
</event>
<event>
 4    1  0.6017350E+000  0.1000000E+03  0.7546771E-02  0.1280296E+00
         21   -1    0    0  503  502  0.00000000000E+00  0.00000000000E+00  0.96790431356E+02  0.96790431356E+02  0.00000000000E+00 0. -1.
         21   -1    0    0  501  503 -0.00000000000E+00 -0.00000000000E+00 -0.27203107828E+04  0.27203107828E+04  0.00000000000E+00 0. -1.
          6    1    1    2  501    0 -0.11939875449E+03 -0.90188164748E+02 -0.25726256221E+04  0.25827740047E+04  0.17300000000E+03 0.  1.
         -6    1    1    2    0  502  0.11939875449E+03  0.90188164748E+02 -0.50894729333E+02  0.23432720949E+03  0.17300000000E+03 0.  1.
</event>
<event>
 4    1  0.6017350E+000  0.1000000E+03  0.7546771E-02  0.1280296E+00
         21   -1    0    0  501  502  0.00000000000E+00  0.00000000000E+00  0.26897426019E+03  0.26897426019E+03  0.00000000000E+00 0.  1.
         21   -1    0    0  502  503 -0.00000000000E+00 -0.00000000000E+00 -0.33830693028E+03  0.33830693028E+03  0.00000000000E+00 0. -1.
          6    1    1    2  501    0 -0.66235866190E+02 -0.35803067775E+02  0.20225016661E+03  0.27659208146E+03  0.17300000000E+03 0.  1.
         -6    1    1    2    0  503  0.66235866190E+02  0.35803067775E+02 -0.27158283669E+03  0.33068910901E+03  0.17300000000E+03 0. -1.
</event>
<event>
 4    1  0.6017350E+000  0.1000000E+03  0.7546771E-02  0.1280296E+00
         21   -1    0    0  503  502  0.00000000000E+00  0.00000000000E+00  0.28135262367E+03  0.28135262367E+03  0.00000000000E+00 0. -1.
         21   -1    0    0  501  503 -0.00000000000E+00 -0.00000000000E+00 -0.55459959336E+03  0.55459959336E+03  0.00000000000E+00 0.  1.
          6    1    1    2  501    0 -0.90580152770E+02 -0.26646589473E+03 -0.36577546278E+03  0.49287881503E+03  0.17300000000E+03 0. -1.
         -6    1    1    2    0  502  0.90580152770E+02  0.26646589473E+03  0.92528493090E+02  0.34307340201E+03  0.17300000000E+03 0. -1.
</event>
<event>
 4    1  0.6017350E+000  0.1000000E+03  0.7546771E-02  0.1280296E+00
         21   -1    0    0  503  502  0.00000000000E+00  0.00000000000E+00  0.39768154537E+03  0.39768154537E+03  0.00000000000E+00 0. -1.
         21   -1    0    0  501  503 -0.00000000000E+00 -0.00000000000E+00 -0.16096461265E+03  0.16096461265E+03  0.00000000000E+00 0.  1.
          6    1    1    2  501    0  0.58324918507E+02 -0.11617606150E+03 -0.26368162043E+02  0.21799759942E+03  0.17300000000E+03 0. -1.
         -6    1    1    2    0  502 -0.58324918507E+02  0.11617606150E+03  0.26308509477E+03  0.34064855860E+03  0.17300000000E+03 0. -1.
</event>
<event>
 4    1  0.6017350E+000  0.1000000E+03  0.7546771E-02  0.1280296E+00
         21   -1    0    0  501  502  0.00000000000E+00  0.00000000000E+00  0.37414925367E+02  0.37414925367E+02  0.00000000000E+00 0. -1.
         21   -1    0    0  502  503 -0.00000000000E+00 -0.00000000000E+00 -0.11185831731E+04  0.11185831731E+04  0.00000000000E+00 0. -1.
          6    1    1    2  501    0 -0.33785312599E+02 -0.67117421900E+02 -0.76441998318E+03  0.78734560795E+03  0.17300000000E+03 0. -1.
         -6    1    1    2    0  503  0.33785312599E+02  0.67117421900E+02 -0.31674826456E+03  0.36865249053E+03  0.17300000000E+03 0. -1.
</event>
<event>
 4    1  0.6017350E+000  0.1000000E+03  0.7546771E-02  0.1280296E+00
         21   -1    0    0  501  502  0.00000000000E+00  0.00000000000E+00  0.26096330789E+03  0.26096330789E+03  0.00000000000E+00 0. -1.
         21   -1    0    0  502  503 -0.00000000000E+00 -0.00000000000E+00 -0.36970672532E+03  0.36970672532E+03  0.00000000000E+00 0. -1.
          6    1    1    2  501    0  0.46811702163E+02  0.46970999206E+02  0.19872460837E+03  0.27169482917E+03  0.17300000000E+03 0. -1.
         -6    1    1    2    0  503 -0.46811702163E+02 -0.46970999206E+02 -0.30746802580E+03  0.35897520404E+03  0.17300000000E+03 0. -1.
</event>
<event>
 4    1  0.6017350E+000  0.1000000E+03  0.7546771E-02  0.1280296E+00
         21   -1    0    0  501  502  0.00000000000E+00  0.00000000000E+00  0.13102865681E+03  0.13102865681E+03  0.00000000000E+00 0. -1.
         21   -1    0    0  502  503 -0.00000000000E+00 -0.00000000000E+00 -0.12119393250E+04  0.12119393250E+04  0.00000000000E+00 0.  1.
          6    1    1    2  501    0  0.23649966268E+02 -0.83697520849E+02  0.46427982049E+02  0.19912095173E+03  0.17300000000E+03 0. -1.
         -6    1    1    2    0  503 -0.23649966268E+02  0.83697520849E+02 -0.11273386502E+04  0.11438470300E+04  0.17300000000E+03 0.  1.
</event>
<event>
 4    1  0.6017350E+000  0.1000000E+03  0.7546771E-02  0.1280296E+00
         21   -1    0    0  501  502  0.00000000000E+00  0.00000000000E+00  0.13415869460E+03  0.13415869460E+03  0.00000000000E+00 0. -1.
         21   -1    0    0  502  503 -0.00000000000E+00 -0.00000000000E+00 -0.15877322322E+04  0.15877322322E+04  0.00000000000E+00 0.  1.
          6    1    1    2  501    0 -0.19445480987E+03 -0.34155770672E+03 -0.41128875571E+03  0.59461061265E+03  0.17300000000E+03 0. -1.
         -6    1    1    2    0  503  0.19445480987E+03  0.34155770672E+03 -0.10422847819E+04  0.11272803141E+04  0.17300000000E+03 0.  1.
</event>
<event>
 4    1  0.6017350E+000  0.1000000E+03  0.7546771E-02  0.1280296E+00
         21   -1    0    0  501  502  0.00000000000E+00  0.00000000000E+00  0.22309100394E+03  0.22309100394E+03  0.00000000000E+00 0. -1.
         21   -1    0    0  502  503 -0.00000000000E+00 -0.00000000000E+00 -0.20309076416E+03  0.20309076416E+03  0.00000000000E+00 0.  1.
          6    1    1    2  501    0 -0.29356959027E+02  0.30500549031E+01 -0.11058018314E+03  0.20743218357E+03  0.17300000000E+03 0. -1.
         -6    1    1    2    0  503  0.29356959027E+02 -0.30500549031E+01  0.13058042292E+03  0.21874958452E+03  0.17300000000E+03 0.  1.
</event>
<event>
 4    1  0.6017350E+000  0.1000000E+03  0.7546771E-02  0.1280296E+00
         21   -1    0    0  503  502  0.00000000000E+00  0.00000000000E+00  0.71010049125E+02  0.71010049125E+02  0.00000000000E+00 0. -1.
         21   -1    0    0  501  503 -0.00000000000E+00 -0.00000000000E+00 -0.13856836536E+04  0.13856836536E+04  0.00000000000E+00 0.  1.
          6    1    1    2  501    0 -0.16012111281E+03 -0.84566236231E+02 -0.10959160081E+04  0.11241668541E+04  0.17300000000E+03 0. -1.
         -6    1    1    2    0  502  0.16012111281E+03  0.84566236231E+02 -0.21875759639E+03  0.33252684863E+03  0.17300000000E+03 0. -1.
</event>
<event>
 4    1  0.6017350E+000  0.1000000E+03  0.7546771E-02  0.1280296E+00
         21   -1    0    0  501  502  0.00000000000E+00  0.00000000000E+00  0.61890559023E+03  0.61890559023E+03  0.00000000000E+00 0. -1.
         21   -1    0    0  502  503 -0.00000000000E+00 -0.00000000000E+00 -0.11501906382E+03  0.11501906382E+03  0.00000000000E+00 0.  1.
          6    1    1    2  501    0 -0.18861021243E+02  0.12874569960E+03  0.46645816581E+03  0.51424061852E+03  0.17300000000E+03 0. -1.
         -6    1    1    2    0  503  0.18861021243E+02 -0.12874569960E+03  0.37428360604E+02  0.21968403553E+03  0.17300000000E+03 0.  1.
</event>
<event>
 4    1  0.6017350E+000  0.1000000E+03  0.7546771E-02  0.1280296E+00
         21   -1    0    0  501  502  0.00000000000E+00  0.00000000000E+00  0.54052894176E+03  0.54052894176E+03  0.00000000000E+00 0. -1.
         21   -1    0    0  502  503 -0.00000000000E+00 -0.00000000000E+00 -0.29113077394E+03  0.29113077394E+03  0.00000000000E+00 0.  1.
          6    1    1    2  501    0  0.16352068154E+03 -0.44681364994E+02  0.45402134584E+03  0.51458703846E+03  0.17300000000E+03 0. -1.
         -6    1    1    2    0  503 -0.16352068154E+03  0.44681364994E+02 -0.20462317802E+03  0.31707267724E+03  0.17300000000E+03 0.  1.
</event>
<event>
 4    1  0.6017350E+000  0.1000000E+03  0.7546771E-02  0.1280296E+00
         21   -1    0    0  501  502  0.00000000000E+00  0.00000000000E+00  0.47461009033E+03  0.47461009033E+03  0.00000000000E+00 0.  1.
         21   -1    0    0  502  503 -0.00000000000E+00 -0.00000000000E+00 -0.14323431837E+03  0.14323431837E+03  0.00000000000E+00 0.  1.
          6    1    1    2  501    0  0.45144069978E+02 -0.17810499638E+03  0.88064818667E+02  0.26728971001E+03  0.17300000000E+03 0. -1.
         -6    1    1    2    0  503 -0.45144069978E+02  0.17810499638E+03  0.24331095329E+03  0.35055469870E+03  0.17300000000E+03 0. -1.
</event>
<event>
 4    1  0.6017350E+000  0.1000000E+03  0.7546771E-02  0.1280296E+00
         21   -1    0    0  501  502  0.00000000000E+00  0.00000000000E+00  0.23591661445E+03  0.23591661445E+03  0.00000000000E+00 0.  1.
         21   -1    0    0  502  503 -0.00000000000E+00 -0.00000000000E+00 -0.64446734912E+03  0.64446734912E+03  0.00000000000E+00 0.  1.
          6    1    1    2  501    0 -0.21098056401E+03  0.19344771956E+03  0.22006488918E+02  0.33518368717E+03  0.17300000000E+03 0. -1.
         -6    1    1    2    0  503  0.21098056401E+03 -0.19344771956E+03 -0.43055722359E+03  0.54520027639E+03  0.17300000000E+03 0. -1.
</event>
<event>
 4    1  0.6017350E+000  0.1000000E+03  0.7546771E-02  0.1280296E+00
         21   -1    0    0  501  502  0.00000000000E+00  0.00000000000E+00  0.18142580783E+03  0.18142580783E+03  0.00000000000E+00 0.  1.
         21   -1    0    0  502  503 -0.00000000000E+00 -0.00000000000E+00 -0.63059928823E+03  0.63059928823E+03  0.00000000000E+00 0. -1.
          6    1    1    2  501    0  0.21034389844E+03  0.52020947443E+02  0.79473117179E+01  0.27738582218E+03  0.17300000000E+03 0.  1.
         -6    1    1    2    0  503 -0.21034389844E+03 -0.52020947443E+02 -0.45712079212E+03  0.53463927387E+03  0.17300000000E+03 0. -1.
</event>
<event>
 4    1  0.6017350E+000  0.1000000E+03  0.7546771E-02  0.1280296E+00
         21   -1    0    0  501  502  0.00000000000E+00  0.00000000000E+00  0.36273450691E+03  0.36273450691E+03  0.00000000000E+00 0.  1.
         21   -1    0    0  502  503 -0.00000000000E+00 -0.00000000000E+00 -0.51503343491E+03  0.51503343491E+03  0.00000000000E+00 0.  1.
          6    1    1    2  501    0 -0.23758306016E+03  0.25372996612E+03  0.11668796598E+03  0.40542531690E+03  0.17300000000E+03 0.  1.
         -6    1    1    2    0  503  0.23758306016E+03 -0.25372996612E+03 -0.26898689398E+03  0.47234262491E+03  0.17300000000E+03 0.  1.
</event>
<event>
 4    1  0.6017350E+000  0.1000000E+03  0.7546771E-02  0.1280296E+00
         21   -1    0    0  501  502  0.00000000000E+00  0.00000000000E+00  0.99105911137E+02  0.99105911137E+02  0.00000000000E+00 0.  1.
         21   -1    0    0  502  503 -0.00000000000E+00 -0.00000000000E+00 -0.50199446080E+03  0.50199446080E+03  0.00000000000E+00 0.  1.
          6    1    1    2  501    0  0.79988417168E+02  0.12102555826E+01 -0.45335797790E+02  0.19591821294E+03  0.17300000000E+03 0.  1.
         -6    1    1    2    0  503 -0.79988417168E+02 -0.12102555826E+01 -0.35755275188E+03  0.40518215900E+03  0.17300000000E+03 0.  1.
</event>
<event>
 4    1  0.6017350E+000  0.1000000E+03  0.7546771E-02  0.1280296E+00
         21   -1    0    0  501  502  0.00000000000E+00  0.00000000000E+00  0.60372355020E+02  0.60372355020E+02  0.00000000000E+00 0.  1.
         21   -1    0    0  502  503 -0.00000000000E+00 -0.00000000000E+00 -0.10063021321E+04  0.10063021321E+04  0.00000000000E+00 0.  1.
          6    1    1    2  501    0  0.40415628763E+02  0.45163012557E+02 -0.11642408158E+03  0.21715590603E+03  0.17300000000E+03 0.  1.
         -6    1    1    2    0  503 -0.40415628763E+02 -0.45163012557E+02 -0.82950569555E+03  0.84951858114E+03  0.17300000000E+03 0.  1.
</event>
<event>
 4    1  0.6017350E+000  0.1000000E+03  0.7546771E-02  0.1280296E+00
         21   -1    0    0  501  502  0.00000000000E+00  0.00000000000E+00  0.63321320025E+03  0.63321320025E+03  0.00000000000E+00 0.  1.
         21   -1    0    0  502  503 -0.00000000000E+00 -0.00000000000E+00 -0.49997589105E+03  0.49997589105E+03  0.00000000000E+00 0.  1.
          6    1    1    2  501    0  0.19260513440E+03 -0.95205270759E+02  0.56045360165E+03  0.62465832339E+03  0.17300000000E+03 0.  1.
         -6    1    1    2    0  503 -0.19260513440E+03  0.95205270759E+02 -0.42721629245E+03  0.50853076791E+03  0.17300000000E+03 0.  1.
</event>
<event>
 4    1  0.6017350E+000  0.1000000E+03  0.7546771E-02  0.1280296E+00
         21   -1    0    0  501  502  0.00000000000E+00  0.00000000000E+00  0.54462148482E+03  0.54462148482E+03  0.00000000000E+00 0.  1.
         21   -1    0    0  502  503 -0.00000000000E+00 -0.00000000000E+00 -0.10390327328E+03  0.10390327328E+03  0.00000000000E+00 0.  1.
          6    1    1    2  501    0  0.11480907357E+03  0.19946353556E+02  0.37625619806E+03  0.43020542416E+03  0.17300000000E+03 0.  1.
         -6    1    1    2    0  503 -0.11480907357E+03 -0.19946353556E+02  0.64462013473E+02  0.21831933395E+03  0.17300000000E+03 0.  1.
</event>
<event>
 4    1  0.6017350E+000  0.1000000E+03  0.7546771E-02  0.1280296E+00
         21   -1    0    0  501  502  0.00000000000E+00  0.00000000000E+00  0.21546568583E+04  0.21546568583E+04  0.00000000000E+00 0.  1.
         21   -1    0    0  502  503 -0.00000000000E+00 -0.00000000000E+00 -0.29006551192E+02  0.29006551192E+02  0.00000000000E+00 0.  1.
          6    1    1    2  501    0  0.12119185057E+03  0.73018212482E+02  0.15521062764E+04  0.15681141595E+04  0.17300000000E+03 0.  1.
         -6    1    1    2    0  503 -0.12119185057E+03 -0.73018212482E+02  0.57354403073E+03  0.61554925001E+03  0.17300000000E+03 0.  1.
</event>
<event>
 4    1  0.6017350E+000  0.1000000E+03  0.7546771E-02  0.1280296E+00
         21   -1    0    0  501  502  0.00000000000E+00  0.00000000000E+00  0.11763959704E+03  0.11763959704E+03  0.00000000000E+00 0.  1.
         21   -1    0    0  502  503 -0.00000000000E+00 -0.00000000000E+00 -0.52968739630E+03  0.52968739630E+03  0.00000000000E+00 0.  1.
          6    1    1    2  501    0 -0.65546630114E+02  0.12494661104E+02  0.10670814139E+02  0.18572922104E+03  0.17300000000E+03 0.  1.
         -6    1    1    2    0  503  0.65546630114E+02 -0.12494661104E+02 -0.42271861340E+03  0.46159777230E+03  0.17300000000E+03 0.  1.
</event>
<event>
 4    1  0.6017350E+000  0.1000000E+03  0.7546771E-02  0.1280296E+00
         21   -1    0    0  501  502  0.00000000000E+00  0.00000000000E+00  0.24034399939E+03  0.24034399939E+03  0.00000000000E+00 0. -1.
         21   -1    0    0  502  503 -0.00000000000E+00 -0.00000000000E+00 -0.27399494782E+03  0.27399494782E+03  0.00000000000E+00 0.  1.
          6    1    1    2  501    0 -0.34816832920E+02  0.47814509280E+02  0.16363226960E+03  0.24536291245E+03  0.17300000000E+03 0.  1.
         -6    1    1    2    0  503  0.34816832920E+02 -0.47814509280E+02 -0.19728321804E+03  0.26897603475E+03  0.17300000000E+03 0.  1.
</event>
<event>
 4    1  0.6017350E+000  0.1000000E+03  0.7546771E-02  0.1280296E+00
         21   -1    0    0  501  502  0.00000000000E+00  0.00000000000E+00  0.64820517809E+03  0.64820517809E+03  0.00000000000E+00 0. -1.
         21   -1    0    0  502  503 -0.00000000000E+00 -0.00000000000E+00 -0.15068424661E+03  0.15068424661E+03  0.00000000000E+00 0.  1.
          6    1    1    2  501    0 -0.14421037709E+03 -0.67270574386E+02  0.51201081855E+03  0.56338800249E+03  0.17300000000E+03 0.  1.
         -6    1    1    2    0  503  0.14421037709E+03  0.67270574386E+02 -0.14489887070E+02  0.23550142221E+03  0.17300000000E+03 0.  1.
</event>
<event>
 4    1  0.6017350E+000  0.1000000E+03  0.7546771E-02  0.1280296E+00
         21   -1    0    0  501  502  0.00000000000E+00  0.00000000000E+00  0.52940989070E+03  0.52940989070E+03  0.00000000000E+00 0. -1.
         21   -1    0    0  502  503 -0.00000000000E+00 -0.00000000000E+00 -0.93636786315E+02  0.93636786315E+02  0.00000000000E+00 0. -1.
          6    1    1    2  501    0  0.21436122096E+02  0.57456951458E+02  0.39421801819E+03  0.43485360119E+03  0.17300000000E+03 0. -1.
         -6    1    1    2    0  503 -0.21436122096E+02 -0.57456951458E+02  0.41555086200E+02  0.18819307583E+03  0.17300000000E+03 0. -1.
</event>
<event>
 4    1  0.6017350E+000  0.1000000E+03  0.7546771E-02  0.1280296E+00
         21   -1    0    0  501  502  0.00000000000E+00  0.00000000000E+00  0.52142682843E+03  0.52142682843E+03  0.00000000000E+00 0. -1.
         21   -1    0    0  502  503 -0.00000000000E+00 -0.00000000000E+00 -0.69226225768E+02  0.69226225768E+02  0.00000000000E+00 0. -1.
          6    1    1    2  501    0 -0.28916591620E+02 -0.69598841950E+02  0.26041209103E+03  0.32159543719E+03  0.17300000000E+03 0. -1.
         -6    1    1    2    0  503  0.28916591620E+02  0.69598841950E+02  0.19178851164E+03  0.26905761700E+03  0.17300000000E+03 0. -1.
</event>
<event>
 4    1  0.6017350E+000  0.1000000E+03  0.7546771E-02  0.1280296E+00
         21   -1    0    0  501  502  0.00000000000E+00  0.00000000000E+00  0.35147029218E+03  0.35147029218E+03  0.00000000000E+00 0. -1.
         21   -1    0    0  502  503 -0.00000000000E+00 -0.00000000000E+00 -0.10472108029E+03  0.10472108029E+03  0.00000000000E+00 0. -1.
          6    1    1    2  501    0 -0.93580905255E+01  0.78628479930E+02  0.15267480456E+03  0.24394386170E+03  0.17300000000E+03 0. -1.
         -6    1    1    2    0  503  0.93580905255E+01 -0.78628479930E+02  0.94074407319E+02  0.21224751077E+03  0.17300000000E+03 0. -1.
</event>
<event>
 4    1  0.6017350E+000  0.1000000E+03  0.7546771E-02  0.1280296E+00
         21   -1    0    0  501  502  0.00000000000E+00  0.00000000000E+00  0.71363746804E+03  0.71363746804E+03  0.00000000000E+00 0. -1.
         21   -1    0    0  502  503 -0.00000000000E+00 -0.00000000000E+00 -0.10535135506E+03  0.10535135506E+03  0.00000000000E+00 0. -1.
          6    1    1    2  501    0  0.96958440962E+02  0.26101810999E+02  0.58422435446E+03  0.61751869620E+03  0.17300000000E+03 0. -1.
         -6    1    1    2    0  503 -0.96958440962E+02 -0.26101810999E+02  0.24061758523E+02  0.20147012690E+03  0.17300000000E+03 0. -1.
</event>
<event>
 4    1  0.6017350E+000  0.1000000E+03  0.7546771E-02  0.1280296E+00
         21   -1    0    0  501  502  0.00000000000E+00  0.00000000000E+00  0.58033036212E+02  0.58033036212E+02  0.00000000000E+00 0. -1.
         21   -1    0    0  502  503 -0.00000000000E+00 -0.00000000000E+00 -0.14624566138E+04  0.14624566138E+04  0.00000000000E+00 0. -1.
          6    1    1    2  501    0 -0.13524420504E+03  0.14082586323E+03 -0.36377867309E+03  0.44764588879E+03  0.17300000000E+03 0. -1.
         -6    1    1    2    0  503  0.13524420504E+03 -0.14082586323E+03 -0.10406449045E+04  0.10728437613E+04  0.17300000000E+03 0. -1.
</event>
<event>
 4    1  0.6017350E+000  0.1000000E+03  0.7546771E-02  0.1280296E+00
         21   -1    0    0  501  502  0.00000000000E+00  0.00000000000E+00  0.13585689080E+03  0.13585689080E+03  0.00000000000E+00 0. -1.
         21   -1    0    0  502  503 -0.00000000000E+00 -0.00000000000E+00 -0.27869920815E+03  0.27869920815E+03  0.00000000000E+00 0.  1.
          6    1    1    2  501    0 -0.72015010757E+02  0.50450331379E+02 -0.56251022327E+02  0.20205092235E+03  0.17300000000E+03 0. -1.
         -6    1    1    2    0  503  0.72015010757E+02 -0.50450331379E+02 -0.86591295020E+02  0.21250517660E+03  0.17300000000E+03 0.  1.
</event>
<event>
 4    1  0.6017350E+000  0.1000000E+03  0.7546771E-02  0.1280296E+00
         21   -1    0    0  501  502  0.00000000000E+00  0.00000000000E+00  0.88097310401E+03  0.88097310401E+03  0.00000000000E+00 0. -1.
         21   -1    0    0  502  503 -0.00000000000E+00 -0.00000000000E+00 -0.43138503944E+02  0.43138503944E+02  0.00000000000E+00 0. -1.
          6    1    1    2  501    0  0.39597602728E+02  0.75919616767E+02  0.48352810931E+03  0.52063441189E+03  0.17300000000E+03 0. -1.
         -6    1    1    2    0  503 -0.39597602728E+02 -0.75919616767E+02  0.35430649076E+03  0.40347719607E+03  0.17300000000E+03 0. -1.
</event>
<event>
 4    1  0.6017350E+000  0.1000000E+03  0.7546771E-02  0.1280296E+00
         21   -1    0    0  501  502  0.00000000000E+00  0.00000000000E+00  0.12390729171E+04  0.12390729171E+04  0.00000000000E+00 0. -1.
         21   -1    0    0  502  503 -0.00000000000E+00 -0.00000000000E+00 -0.61938313384E+02  0.61938313384E+02  0.00000000000E+00 0. -1.
          6    1    1    2  501    0 -0.99069950802E+02 -0.14835018766E+03  0.87610066766E+03  0.91066130543E+03  0.17300000000E+03 0. -1.
         -6    1    1    2    0  503  0.99069950802E+02  0.14835018766E+03  0.30103393604E+03  0.39034992504E+03  0.17300000000E+03 0. -1.
</event>
<event>
 4    1  0.6017350E+000  0.1000000E+03  0.7546771E-02  0.1280296E+00
         21   -1    0    0  503  502  0.00000000000E+00  0.00000000000E+00  0.73370874631E+02  0.73370874631E+02  0.00000000000E+00 0. -1.
         21   -1    0    0  501  503 -0.00000000000E+00 -0.00000000000E+00 -0.12802127810E+04  0.12802127810E+04  0.00000000000E+00 0.  1.
          6    1    1    2  501    0  0.81757824602E+02  0.43358385217E+02 -0.11233597147E+04  0.11403641261E+04  0.17300000000E+03 0.  1.
         -6    1    1    2    0  502 -0.81757824602E+02 -0.43358385217E+02 -0.83482191662E+02  0.21321952954E+03  0.17300000000E+03 0. -1.
</event>
<event>
 4    1  0.6017350E+000  0.1000000E+03  0.7546771E-02  0.1280296E+00
         21   -1    0    0  503  502  0.00000000000E+00  0.00000000000E+00  0.59442213165E+03  0.59442213165E+03  0.00000000000E+00 0. -1.
         21   -1    0    0  501  503 -0.00000000000E+00 -0.00000000000E+00 -0.74893853116E+02  0.74893853116E+02  0.00000000000E+00 0.  1.
          6    1    1    2  501    0 -0.55989422716E+02 -0.70732482556E+02  0.13236499568E+03  0.23576978523E+03  0.17300000000E+03 0.  1.
         -6    1    1    2    0  502  0.55989422716E+02  0.70732482556E+02  0.38716328285E+03  0.43354619954E+03  0.17300000000E+03 0. -1.
</event>
<event>
 4    1  0.6017350E+000  0.1000000E+03  0.7546771E-02  0.1280296E+00
         21   -1    0    0  501  502  0.00000000000E+00  0.00000000000E+00  0.12662739316E+04  0.12662739316E+04  0.00000000000E+00 0. -1.
         21   -1    0    0  502  503 -0.00000000000E+00 -0.00000000000E+00 -0.92010748212E+02  0.92010748212E+02  0.00000000000E+00 0. -1.
          6    1    1    2  501    0 -0.12222585949E+03 -0.25341403196E+03  0.75856524350E+03  0.82735002325E+03  0.17300000000E+03 0. -1.
         -6    1    1    2    0  503  0.12222585949E+03  0.25341403196E+03  0.41569793991E+03  0.53093465659E+03  0.17300000000E+03 0. -1.
</event>
<event>
 4    1  0.6017350E+000  0.1000000E+03  0.7546771E-02  0.1280296E+00
         21   -1    0    0  501  502  0.00000000000E+00  0.00000000000E+00  0.80440068739E+03  0.80440068739E+03  0.00000000000E+00 0. -1.
         21   -1    0    0  502  503 -0.00000000000E+00 -0.00000000000E+00 -0.19395358738E+03  0.19395358738E+03  0.00000000000E+00 0. -1.
          6    1    1    2  501    0 -0.13813405256E+03 -0.16762030189E+03  0.66022904810E+03  0.71624645063E+03  0.17300000000E+03 0. -1.
         -6    1    1    2    0  503  0.13813405256E+03  0.16762030189E+03 -0.49781948090E+02  0.28210782413E+03  0.17300000000E+03 0. -1.
</event>
<event>
 4    1  0.6017350E+000  0.1000000E+03  0.7546771E-02  0.1280296E+00
         21   -1    0    0  501  502  0.00000000000E+00  0.00000000000E+00  0.32979221366E+03  0.32979221366E+03  0.00000000000E+00 0.  1.
         21   -1    0    0  502  503 -0.00000000000E+00 -0.00000000000E+00 -0.13260881456E+03  0.13260881456E+03  0.00000000000E+00 0.  1.
          6    1    1    2  501    0  0.40391652523E+02 -0.47162660960E+02  0.20886296142E+03  0.27822390055E+03  0.17300000000E+03 0.  1.
         -6    1    1    2    0  503 -0.40391652523E+02  0.47162660960E+02 -0.11679562310E+02  0.18417712767E+03  0.17300000000E+03 0.  1.
</event>
<event>
 4    1  0.6017350E+000  0.1000000E+03  0.7546771E-02  0.1280296E+00
         21   -1    0    0  501  502  0.00000000000E+00  0.00000000000E+00  0.16530305007E+03  0.16530305007E+03  0.00000000000E+00 0.  1.
         21   -1    0    0  502  503 -0.00000000000E+00 -0.00000000000E+00 -0.28800118748E+03  0.28800118748E+03  0.00000000000E+00 0.  1.
          6    1    1    2  501    0  0.42509031575E+02  0.12218205459E+03 -0.29449954081E+02  0.21801782501E+03  0.17300000000E+03 0.  1.
         -6    1    1    2    0  503 -0.42509031575E+02 -0.12218205459E+03 -0.93248183328E+02  0.23528641253E+03  0.17300000000E+03 0.  1.
</event>
<event>
 4    1  0.6017350E+000  0.1000000E+03  0.7546771E-02  0.1280296E+00
         21   -1    0    0  503  502  0.00000000000E+00  0.00000000000E+00  0.10962892805E+03  0.10962892805E+03  0.00000000000E+00 0. -1.
         21   -1    0    0  501  503 -0.00000000000E+00 -0.00000000000E+00 -0.82242005034E+03  0.82242005034E+03  0.00000000000E+00 0.  1.
          6    1    1    2  501    0 -0.83210104373E+02  0.46362451509E+02 -0.70743730550E+03  0.73448617386E+03  0.17300000000E+03 0. -1.
         -6    1    1    2    0  502  0.83210104373E+02 -0.46362451509E+02 -0.53538167890E+01  0.19756280453E+03  0.17300000000E+03 0.  1.
</event>
<event>
 4    1  0.6017350E+000  0.1000000E+03  0.7546771E-02  0.1280296E+00
         21   -1    0    0  503  502  0.00000000000E+00  0.00000000000E+00  0.20387808965E+03  0.20387808965E+03  0.00000000000E+00 0.  1.
         21   -1    0    0  501  503 -0.00000000000E+00 -0.00000000000E+00 -0.16079825876E+03  0.16079825876E+03  0.00000000000E+00 0.  1.
          6    1    1    2  501    0  0.12664284043E+02 -0.33014912246E+02  0.61870701008E+02  0.18710251779E+03  0.17300000000E+03 0.  1.
         -6    1    1    2    0  502 -0.12664284043E+02  0.33014912246E+02 -0.18790870110E+02  0.17757383062E+03  0.17300000000E+03 0.  1.
</event>
<event>
 4    1  0.6017350E+000  0.1000000E+03  0.7546771E-02  0.1280296E+00
         21   -1    0    0  501  502  0.00000000000E+00  0.00000000000E+00  0.24787702312E+03  0.24787702312E+03  0.00000000000E+00 0. -1.
         21   -1    0    0  502  503 -0.00000000000E+00 -0.00000000000E+00 -0.32947897933E+03  0.32947897933E+03  0.00000000000E+00 0. -1.
          6    1    1    2  501    0  0.98680779134E+02 -0.47822891115E+02  0.16050947521E+03  0.26022531913E+03  0.17300000000E+03 0. -1.
         -6    1    1    2    0  503 -0.98680779134E+02  0.47822891115E+02 -0.24211143141E+03  0.31713068332E+03  0.17300000000E+03 0. -1.
</event>
<event>
 4    1  0.6017350E+000  0.1000000E+03  0.7546771E-02  0.1280296E+00
         21   -1    0    0  501  502  0.00000000000E+00  0.00000000000E+00  0.55604882297E+03  0.55604882297E+03  0.00000000000E+00 0. -1.
         21   -1    0    0  502  503 -0.00000000000E+00 -0.00000000000E+00 -0.35048582831E+03  0.35048582831E+03  0.00000000000E+00 0. -1.
          6    1    1    2  501    0 -0.17676342321E+03 -0.14579850513E+03  0.44709455692E+03  0.53134269047E+03  0.17300000000E+03 0. -1.
         -6    1    1    2    0  503  0.17676342321E+03  0.14579850513E+03 -0.24153156226E+03  0.37519196081E+03  0.17300000000E+03 0. -1.
</event>
<event>
 4    1  0.6017350E+000  0.1000000E+03  0.7546771E-02  0.1280296E+00
         21   -1    0    0  501  502  0.00000000000E+00  0.00000000000E+00  0.35938721645E+03  0.35938721645E+03  0.00000000000E+00 0. -1.
         21   -1    0    0  502  503 -0.00000000000E+00 -0.00000000000E+00 -0.10021782793E+03  0.10021782793E+03  0.00000000000E+00 0. -1.
          6    1    1    2  501    0  0.75179650097E+01  0.20102680182E+02  0.22041978821E+03  0.28102405695E+03  0.17300000000E+03 0. -1.
         -6    1    1    2    0  503 -0.75179650097E+01 -0.20102680182E+02  0.38749600311E+02  0.17858098743E+03  0.17300000000E+03 0. -1.
</event>
<event>
 4    1  0.6017350E+000  0.1000000E+03  0.7546771E-02  0.1280296E+00
         21   -1    0    0  503  502  0.00000000000E+00  0.00000000000E+00  0.44234369624E+02  0.44234369624E+02  0.00000000000E+00 0.  1.
         21   -1    0    0  501  503 -0.00000000000E+00 -0.00000000000E+00 -0.93372812912E+03  0.93372812912E+03  0.00000000000E+00 0.  1.
          6    1    1    2  501    0  0.61536790198E+02 -0.75775451713E+02 -0.54809947372E+03  0.58298432974E+03  0.17300000000E+03 0.  1.
         -6    1    1    2    0  502 -0.61536790198E+02  0.75775451713E+02 -0.34139428578E+03  0.39497816901E+03  0.17300000000E+03 0.  1.
</event>
<event>
 4    1  0.6017350E+000  0.1000000E+03  0.7546771E-02  0.1280296E+00
         21   -1    0    0  503  502  0.00000000000E+00  0.00000000000E+00  0.10415259883E+04  0.10415259883E+04  0.00000000000E+00 0. -1.
         21   -1    0    0  501  503 -0.00000000000E+00 -0.00000000000E+00 -0.10427130599E+03  0.10427130599E+03  0.00000000000E+00 0. -1.
          6    1    1    2  501    0 -0.20427846403E+02  0.19152035848E+02 -0.16545079878E+02  0.17603078439E+03  0.17300000000E+03 0.  1.
         -6    1    1    2    0  502  0.20427846403E+02 -0.19152035848E+02  0.95379976219E+03  0.96976650991E+03  0.17300000000E+03 0.  1.
</event>
<event>
 4    1  0.6017350E+000  0.1000000E+03  0.7546771E-02  0.1280296E+00
         21   -1    0    0  503  502  0.00000000000E+00  0.00000000000E+00  0.43441716243E+03  0.43441716243E+03  0.00000000000E+00 0. -1.
         21   -1    0    0  501  503 -0.00000000000E+00 -0.00000000000E+00 -0.40436504930E+03  0.40436504930E+03  0.00000000000E+00 0. -1.
          6    1    1    2  501    0 -0.31511340898E+02 -0.14341303992E+03 -0.33758343728E+03  0.40675771873E+03  0.17300000000E+03 0.  1.
         -6    1    1    2    0  502  0.31511340898E+02  0.14341303992E+03  0.36763555041E+03  0.43202449299E+03  0.17300000000E+03 0.  1.
</event>
<event>
 4    1  0.6017350E+000  0.1000000E+03  0.7546771E-02  0.1280296E+00
         21   -1    0    0  501  502  0.00000000000E+00  0.00000000000E+00  0.10747172432E+03  0.10747172432E+03  0.00000000000E+00 0. -1.
         21   -1    0    0  502  503 -0.00000000000E+00 -0.00000000000E+00 -0.42281661858E+03  0.42281661858E+03  0.00000000000E+00 0.  1.
          6    1    1    2  501    0  0.35010612051E+02 -0.29867400796E+02 -0.13721499405E+02  0.17954131595E+03  0.17300000000E+03 0. -1.
         -6    1    1    2    0  503 -0.35010612051E+02  0.29867400796E+02 -0.30162339485E+03  0.35074702694E+03  0.17300000000E+03 0.  1.
</event>
<event>
 4    1  0.6017350E+000  0.1000000E+03  0.7546771E-02  0.1280296E+00
         21   -1    0    0  501  502  0.00000000000E+00  0.00000000000E+00  0.15355516964E+04  0.15355516964E+04  0.00000000000E+00 0. -1.
         21   -1    0    0  502  503 -0.00000000000E+00 -0.00000000000E+00 -0.47449720416E+02  0.47449720416E+02  0.00000000000E+00 0. -1.
          6    1    1    2  501    0 -0.91968708054E+02 -0.10661540812E+03  0.29831479998E+03  0.37248598417E+03  0.17300000000E+03 0.  1.
         -6    1    1    2    0  503  0.91968708054E+02  0.10661540812E+03  0.11897871760E+04  0.12105154327E+04  0.17300000000E+03 0.  1.
</event>
<event>
 4    1  0.6017350E+000  0.1000000E+03  0.7546771E-02  0.1280296E+00
         21   -1    0    0  501  502  0.00000000000E+00  0.00000000000E+00  0.20397361531E+03  0.20397361531E+03  0.00000000000E+00 0. -1.
         21   -1    0    0  502  503 -0.00000000000E+00 -0.00000000000E+00 -0.64706513910E+03  0.64706513910E+03  0.00000000000E+00 0. -1.
          6    1    1    2  501    0 -0.82402850413E+02 -0.13800250958E+03  0.10181971468E+03  0.25715982716E+03  0.17300000000E+03 0.  1.
         -6    1    1    2    0  503  0.82402850413E+02  0.13800250958E+03 -0.54491123848E+03  0.59387892725E+03  0.17300000000E+03 0.  1.
</event>
<event>
 4    1  0.6017350E+000  0.1000000E+03  0.7546771E-02  0.1280296E+00
         21   -1    0    0  501  502  0.00000000000E+00  0.00000000000E+00  0.73244993484E+02  0.73244993484E+02  0.00000000000E+00 0. -1.
         21   -1    0    0  502  503 -0.00000000000E+00 -0.00000000000E+00 -0.98842695102E+03  0.98842695102E+03  0.00000000000E+00 0. -1.
          6    1    1    2  501    0  0.14919279978E+03  0.71428983743E+02 -0.21509823159E+03  0.32180248672E+03  0.17300000000E+03 0.  1.
         -6    1    1    2    0  503 -0.14919279978E+03 -0.71428983743E+02 -0.70008372594E+03  0.73986945778E+03  0.17300000000E+03 0.  1.
</event>
<event>
 4    1  0.6017350E+000  0.1000000E+03  0.7546771E-02  0.1280296E+00
         21   -1    0    0  501  502  0.00000000000E+00  0.00000000000E+00  0.31852133531E+03  0.31852133531E+03  0.00000000000E+00 0. -1.
         21   -1    0    0  502  503 -0.00000000000E+00 -0.00000000000E+00 -0.11777500192E+03  0.11777500192E+03  0.00000000000E+00 0. -1.
          6    1    1    2  501    0  0.50303072297E+02  0.58151110885E+02  0.54306079703E+02  0.19695202734E+03  0.17300000000E+03 0.  1.
         -6    1    1    2    0  503 -0.50303072297E+02 -0.58151110885E+02  0.14644025368E+03  0.23934430989E+03  0.17300000000E+03 0.  1.
</event>
<event>
 4    1  0.6017350E+000  0.1000000E+03  0.7546771E-02  0.1280296E+00
         21   -1    0    0  503  502  0.00000000000E+00  0.00000000000E+00  0.83427611571E+03  0.83427611571E+03  0.00000000000E+00 0.  1.
         21   -1    0    0  501  503 -0.00000000000E+00 -0.00000000000E+00 -0.47835563205E+02  0.47835563205E+02  0.00000000000E+00 0. -1.
          6    1    1    2  501    0 -0.17559676284E+01  0.38368736227E+01  0.17286653668E+03  0.24460099044E+03  0.17300000000E+03 0. -1.
         -6    1    1    2    0  502  0.17559676284E+01 -0.38368736227E+01  0.61357401583E+03  0.63751068848E+03  0.17300000000E+03 0.  1.
</event>
<event>
 4    1  0.6017350E+000  0.1000000E+03  0.7546771E-02  0.1280296E+00
         21   -1    0    0  503  502  0.00000000000E+00  0.00000000000E+00  0.70788162968E+03  0.70788162968E+03  0.00000000000E+00 0. -1.
         21   -1    0    0  501  503 -0.00000000000E+00 -0.00000000000E+00 -0.29405973329E+03  0.29405973329E+03  0.00000000000E+00 0.  1.
          6    1    1    2  501    0 -0.19444514779E+03  0.32487880943E+03  0.18545365322E+01  0.41627826706E+03  0.17300000000E+03 0.  1.
         -6    1    1    2    0  502  0.19444514779E+03 -0.32487880943E+03  0.41196735986E+03  0.58566309591E+03  0.17300000000E+03 0. -1.
</event>
<event>
 4    1  0.6017350E+000  0.1000000E+03  0.7546771E-02  0.1280296E+00
         21   -1    0    0  503  502  0.00000000000E+00  0.00000000000E+00  0.25714605434E+03  0.25714605434E+03  0.00000000000E+00 0. -1.
         21   -1    0    0  501  503 -0.00000000000E+00 -0.00000000000E+00 -0.36505268906E+03  0.36505268906E+03  0.00000000000E+00 0.  1.
          6    1    1    2  501    0  0.10242838115E+03  0.71597708333E+02 -0.27716534750E+03  0.34981057010E+03  0.17300000000E+03 0.  1.
         -6    1    1    2    0  502 -0.10242838115E+03 -0.71597708333E+02  0.16925871278E+03  0.27238817330E+03  0.17300000000E+03 0. -1.
</event>
<event>
 4    1  0.6017350E+000  0.1000000E+03  0.7546771E-02  0.1280296E+00
         21   -1    0    0  503  502  0.00000000000E+00  0.00000000000E+00  0.24251223381E+03  0.24251223381E+03  0.00000000000E+00 0. -1.
         21   -1    0    0  501  503 -0.00000000000E+00 -0.00000000000E+00 -0.55335844594E+03  0.55335844594E+03  0.00000000000E+00 0.  1.
          6    1    1    2  501    0 -0.32288854640E+03  0.16497479327E+01 -0.15245659093E+03  0.39677669687E+03  0.17300000000E+03 0.  1.
         -6    1    1    2    0  502  0.32288854640E+03 -0.16497479327E+01 -0.15838962121E+03  0.39909398288E+03  0.17300000000E+03 0. -1.
</event>
<event>
 4    1  0.6017350E+000  0.1000000E+03  0.7546771E-02  0.1280296E+00
         21   -1    0    0  503  502  0.00000000000E+00  0.00000000000E+00  0.17710901686E+03  0.17710901686E+03  0.00000000000E+00 0. -1.
         21   -1    0    0  501  503 -0.00000000000E+00 -0.00000000000E+00 -0.20682755586E+03  0.20682755586E+03  0.00000000000E+00 0.  1.
          6    1    1    2  501    0  0.44051783385E+02 -0.58837830296E+00 -0.84067776833E+02  0.19732535800E+03  0.17300000000E+03 0.  1.
         -6    1    1    2    0  502 -0.44051783385E+02  0.58837830296E+00  0.54349237829E+02  0.18661121472E+03  0.17300000000E+03 0. -1.
</event>
<event>
 4    1  0.6017350E+000  0.1000000E+03  0.7546771E-02  0.1280296E+00
         21   -1    0    0  503  502  0.00000000000E+00  0.00000000000E+00  0.15973101861E+03  0.15973101861E+03  0.00000000000E+00 0. -1.
         21   -1    0    0  501  503 -0.00000000000E+00 -0.00000000000E+00 -0.55431938379E+03  0.55431938379E+03  0.00000000000E+00 0.  1.
          6    1    1    2  501    0 -0.14341228381E+03 -0.59142687547E+02 -0.42031019005E+03  0.48026513146E+03  0.17300000000E+03 0.  1.
         -6    1    1    2    0  502  0.14341228381E+03  0.59142687547E+02  0.25721824873E+02  0.23378527095E+03  0.17300000000E+03 0. -1.
</event>
<event>
 4    1  0.6017350E+000  0.1000000E+03  0.7546771E-02  0.1280296E+00
         21   -1    0    0  503  502  0.00000000000E+00  0.00000000000E+00  0.20140377885E+03  0.20140377885E+03  0.00000000000E+00 0. -1.
         21   -1    0    0  501  503 -0.00000000000E+00 -0.00000000000E+00 -0.19590491334E+03  0.19590491334E+03  0.00000000000E+00 0.  1.
          6    1    1    2  501    0 -0.21429286256E+02 -0.82238284623E+02 -0.45261832816E+02  0.19798985650E+03  0.17300000000E+03 0.  1.
         -6    1    1    2    0  502  0.21429286256E+02  0.82238284623E+02  0.50760698326E+02  0.19931883569E+03  0.17300000000E+03 0. -1.
</event>
<event>
 4    1  0.6017350E+000  0.1000000E+03  0.7546771E-02  0.1280296E+00
         21   -1    0    0  503  502  0.00000000000E+00  0.00000000000E+00  0.11502727751E+04  0.11502727751E+04  0.00000000000E+00 0.  1.
         21   -1    0    0  501  503 -0.00000000000E+00 -0.00000000000E+00 -0.50956849809E+02  0.50956849809E+02  0.00000000000E+00 0. -1.
          6    1    1    2  501    0  0.15073178957E+02 -0.15265102376E+03  0.37152680536E+03  0.43759650693E+03  0.17300000000E+03 0.  1.
         -6    1    1    2    0  502 -0.15073178957E+02  0.15265102376E+03  0.72778911991E+03  0.76363311795E+03  0.17300000000E+03 0. -1.
</event>
<event>
 4    1  0.6017350E+000  0.1000000E+03  0.7546771E-02  0.1280296E+00
         21   -1    0    0  503  502  0.00000000000E+00  0.00000000000E+00  0.42640211557E+03  0.42640211557E+03  0.00000000000E+00 0.  1.
         21   -1    0    0  501  503 -0.00000000000E+00 -0.00000000000E+00 -0.72032967001E+02  0.72032967001E+02  0.00000000000E+00 0. -1.
          6    1    1    2  501    0  0.76655581361E+01  0.23374959031E+02  0.15806075736E+03  0.23562120555E+03  0.17300000000E+03 0.  1.
         -6    1    1    2    0  502 -0.76655581361E+01 -0.23374959031E+02  0.19630839121E+03  0.26281387702E+03  0.17300000000E+03 0. -1.
</event>
<event>
 4    1  0.6017350E+000  0.1000000E+03  0.7546771E-02  0.1280296E+00
         21   -1    0    0  503  502  0.00000000000E+00  0.00000000000E+00  0.39037890661E+03  0.39037890661E+03  0.00000000000E+00 0. -1.
         21   -1    0    0  501  503 -0.00000000000E+00 -0.00000000000E+00 -0.19006200209E+03  0.19006200209E+03  0.00000000000E+00 0. -1.
          6    1    1    2  501    0 -0.20857111723E+03 -0.27600837516E+02  0.10214586829E+03  0.29090633473E+03  0.17300000000E+03 0. -1.
         -6    1    1    2    0  502  0.20857111723E+03  0.27600837516E+02  0.98171036233E+02  0.28953457398E+03  0.17300000000E+03 0. -1.
</event>
<event>
 4    1  0.6017350E+000  0.1000000E+03  0.7546771E-02  0.1280296E+00
         21   -1    0    0  503  502  0.00000000000E+00  0.00000000000E+00  0.87107885375E+03  0.87107885375E+03  0.00000000000E+00 0. -1.
         21   -1    0    0  501  503 -0.00000000000E+00 -0.00000000000E+00 -0.40096836170E+03  0.40096836170E+03  0.00000000000E+00 0. -1.
          6    1    1    2  501    0  0.33566068067E+03 -0.23792163407E+03 -0.18185082387E+03  0.48194763061E+03  0.17300000000E+03 0. -1.
         -6    1    1    2    0  502 -0.33566068067E+03  0.23792163407E+03  0.65196131592E+03  0.79009958484E+03  0.17300000000E+03 0. -1.
</event>
<event>
 4    1  0.6017350E+000  0.1000000E+03  0.7546771E-02  0.1280296E+00
         21   -1    0    0  503  502  0.00000000000E+00  0.00000000000E+00  0.38447583756E+03  0.38447583756E+03  0.00000000000E+00 0. -1.
         21   -1    0    0  501  503 -0.00000000000E+00 -0.00000000000E+00 -0.19367165394E+03  0.19367165394E+03  0.00000000000E+00 0. -1.
          6    1    1    2  501    0  0.18359264916E+03  0.10366328743E+03  0.85883610830E+02  0.28593239165E+03  0.17300000000E+03 0. -1.
         -6    1    1    2    0  502 -0.18359264916E+03 -0.10366328743E+03  0.10492057280E+03  0.29221509985E+03  0.17300000000E+03 0. -1.
</event>
<event>
 4    1  0.6017350E+000  0.1000000E+03  0.7546771E-02  0.1280296E+00
         21   -1    0    0  501  502  0.00000000000E+00  0.00000000000E+00  0.20657219272E+03  0.20657219272E+03  0.00000000000E+00 0. -1.
         21   -1    0    0  502  503 -0.00000000000E+00 -0.00000000000E+00 -0.98795900522E+03  0.98795900522E+03  0.00000000000E+00 0. -1.
          6    1    1    2  501    0 -0.51301994328E+02 -0.17964091046E+03  0.10266729852E+03  0.27454020747E+03  0.17300000000E+03 0. -1.
         -6    1    1    2    0  503  0.51301994328E+02  0.17964091046E+03 -0.88405411102E+03  0.91999099047E+03  0.17300000000E+03 0. -1.
</event>
<event>
 4    1  0.6017350E+000  0.1000000E+03  0.7546771E-02  0.1280296E+00
         21   -1    0    0  501  502  0.00000000000E+00  0.00000000000E+00  0.24432322698E+03  0.24432322698E+03  0.00000000000E+00 0.  1.
         21   -1    0    0  502  503 -0.00000000000E+00 -0.00000000000E+00 -0.20342121748E+03  0.20342121748E+03  0.00000000000E+00 0.  1.
          6    1    1    2  501    0  0.98444215768E+01 -0.70667424117E+02  0.14212381685E+03  0.23498718429E+03  0.17300000000E+03 0.  1.
         -6    1    1    2    0  503 -0.98444215768E+01  0.70667424117E+02 -0.10122180735E+03  0.21275726016E+03  0.17300000000E+03 0.  1.
</event>
<event>
 4    1  0.6017350E+000  0.1000000E+03  0.7546771E-02  0.1280296E+00
         21   -1    0    0  501  502  0.00000000000E+00  0.00000000000E+00  0.15678071587E+04  0.15678071587E+04  0.00000000000E+00 0. -1.
         21   -1    0    0  502  503 -0.00000000000E+00 -0.00000000000E+00 -0.51277005635E+02  0.51277005635E+02  0.00000000000E+00 0.  1.
          6    1    1    2  501    0 -0.22498511844E+02  0.45951305678E+02  0.13827953103E+04  0.13945141002E+04  0.17300000000E+03 0.  1.
         -6    1    1    2    0  503  0.22498511844E+02 -0.45951305678E+02  0.13373484278E+03  0.22457006412E+03  0.17300000000E+03 0. -1.
</event>
<event>
 4    1  0.6017350E+000  0.1000000E+03  0.7546771E-02  0.1280296E+00
         21   -1    0    0  501  502  0.00000000000E+00  0.00000000000E+00  0.55327126551E+03  0.55327126551E+03  0.00000000000E+00 0. -1.
         21   -1    0    0  502  503 -0.00000000000E+00 -0.00000000000E+00 -0.86179073574E+02  0.86179073574E+02  0.00000000000E+00 0.  1.
          6    1    1    2  501    0  0.10692077271E+03 -0.30964373557E+00  0.34994258678E+03  0.40474802230E+03  0.17300000000E+03 0.  1.
         -6    1    1    2    0  503 -0.10692077271E+03  0.30964373557E+00  0.11714960516E+03  0.23470231679E+03  0.17300000000E+03 0. -1.
</event>
<event>
 4    1  0.6017350E+000  0.1000000E+03  0.7546771E-02  0.1280296E+00
         21   -1    0    0  503  502  0.00000000000E+00  0.00000000000E+00  0.89110570695E+03  0.89110570695E+03  0.00000000000E+00 0.  1.
         21   -1    0    0  501  503 -0.00000000000E+00 -0.00000000000E+00 -0.17799539829E+03  0.17799539829E+03  0.00000000000E+00 0.  1.
          6    1    1    2  501    0  0.35866502211E+03 -0.44996093917E+01  0.35013627673E+03  0.53026904195E+03  0.17300000000E+03 0.  1.
         -6    1    1    2    0  502 -0.35866502211E+03  0.44996093917E+01  0.36297403193E+03  0.53883206329E+03  0.17300000000E+03 0.  1.
</event>
<event>
 4    1  0.6017350E+000  0.1000000E+03  0.7546771E-02  0.1280296E+00
         21   -1    0    0  503  502  0.00000000000E+00  0.00000000000E+00  0.12180363101E+04  0.12180363101E+04  0.00000000000E+00 0.  1.
         21   -1    0    0  501  503 -0.00000000000E+00 -0.00000000000E+00 -0.15756062329E+03  0.15756062329E+03  0.00000000000E+00 0.  1.
          6    1    1    2  501    0 -0.56819139755E+02 -0.33003962705E+03  0.17976287997E+03  0.41761018076E+03  0.17300000000E+03 0.  1.
         -6    1    1    2    0  502  0.56819139755E+02  0.33003962705E+03  0.88071280682E+03  0.95798675260E+03  0.17300000000E+03 0.  1.
</event>
<event>
 4    1  0.6017350E+000  0.1000000E+03  0.7546771E-02  0.1280296E+00
         21   -1    0    0  501  502  0.00000000000E+00  0.00000000000E+00  0.14157152503E+04  0.14157152503E+04  0.00000000000E+00 0. -1.
         21   -1    0    0  502  503 -0.00000000000E+00 -0.00000000000E+00 -0.33931613163E+02  0.33931613163E+02  0.00000000000E+00 0.  1.
          6    1    1    2  501    0 -0.92628935529E+02  0.31615359439E+02  0.38547897680E+03  0.43370807257E+03  0.17300000000E+03 0.  1.
         -6    1    1    2    0  503  0.92628935529E+02 -0.31615359439E+02  0.99630466032E+03  0.10159387909E+04  0.17300000000E+03 0. -1.
</event>
<event>
 4    1  0.6017350E+000  0.1000000E+03  0.7546771E-02  0.1280296E+00
         21   -1    0    0  503  502  0.00000000000E+00  0.00000000000E+00  0.18066507955E+02  0.18066507955E+02  0.00000000000E+00 0.  1.
         21   -1    0    0  501  503 -0.00000000000E+00 -0.00000000000E+00 -0.18967973565E+04  0.18967973565E+04  0.00000000000E+00 0. -1.
          6    1    1    2  501    0 -0.60368134760E+02 -0.18324237508E+02 -0.84131295736E+03  0.86122969154E+03  0.17300000000E+03 0. -1.
         -6    1    1    2    0  502  0.60368134760E+02  0.18324237508E+02 -0.10374178912E+04  0.10536341729E+04  0.17300000000E+03 0.  1.
</event>
<event>
 4    1  0.6017350E+000  0.1000000E+03  0.7546771E-02  0.1280296E+00
         21   -1    0    0  503  502  0.00000000000E+00  0.00000000000E+00  0.24111737145E+03  0.24111737145E+03  0.00000000000E+00 0. -1.
         21   -1    0    0  501  503 -0.00000000000E+00 -0.00000000000E+00 -0.50639372706E+03  0.50639372706E+03  0.00000000000E+00 0. -1.
          6    1    1    2  501    0 -0.51920222603E+02  0.34260926232E+02 -0.45048218562E+03  0.48655186789E+03  0.17300000000E+03 0. -1.
         -6    1    1    2    0  502  0.51920222603E+02 -0.34260926232E+02  0.18520583001E+03  0.26095923063E+03  0.17300000000E+03 0. -1.
</event>
<event>
 4    1  0.6017350E+000  0.1000000E+03  0.7546771E-02  0.1280296E+00
         21   -1    0    0  503  502  0.00000000000E+00  0.00000000000E+00  0.56076739117E+02  0.56076739117E+02  0.00000000000E+00 0. -1.
         21   -1    0    0  501  503 -0.00000000000E+00 -0.00000000000E+00 -0.65502773423E+03  0.65502773423E+03  0.00000000000E+00 0. -1.
          6    1    1    2  501    0 -0.81434096583E+02  0.12905172050E+02 -0.29542638714E+03  0.35214174102E+03  0.17300000000E+03 0. -1.
         -6    1    1    2    0  502  0.81434096583E+02 -0.12905172050E+02 -0.30352460797E+03  0.35896273232E+03  0.17300000000E+03 0. -1.
</event>
<event>
 4    1  0.6017350E+000  0.1000000E+03  0.7546771E-02  0.1280296E+00
         21   -1    0    0  503  502  0.00000000000E+00  0.00000000000E+00  0.38475828116E+03  0.38475828116E+03  0.00000000000E+00 0. -1.
         21   -1    0    0  501  503 -0.00000000000E+00 -0.00000000000E+00 -0.93313977755E+02  0.93313977755E+02  0.00000000000E+00 0. -1.
          6    1    1    2  501    0 -0.21060805843E+02  0.48232691542E+02  0.74310690834E+02  0.19550199193E+03  0.17300000000E+03 0. -1.
         -6    1    1    2    0  502  0.21060805843E+02 -0.48232691542E+02  0.21713361257E+03  0.28257026698E+03  0.17300000000E+03 0. -1.
</event>
<event>
 4    1  0.6017350E+000  0.1000000E+03  0.7546771E-02  0.1280296E+00
         21   -1    0    0  501  502  0.00000000000E+00  0.00000000000E+00  0.12806946317E+04  0.12806946317E+04  0.00000000000E+00 0. -1.
         21   -1    0    0  502  503 -0.00000000000E+00 -0.00000000000E+00 -0.67463142646E+02  0.67463142646E+02  0.00000000000E+00 0. -1.
          6    1    1    2  501    0 -0.30719603506E+02  0.10941736155E+03  0.10852158782E+04  0.11047797768E+04  0.17300000000E+03 0. -1.
         -6    1    1    2    0  503  0.30719603506E+02 -0.10941736155E+03  0.12801561089E+03  0.24337799753E+03  0.17300000000E+03 0. -1.
</event>
<event>
 4    1  0.6017350E+000  0.1000000E+03  0.7546771E-02  0.1280296E+00
         21   -1    0    0  501  502  0.00000000000E+00  0.00000000000E+00  0.68116459018E+02  0.68116459018E+02  0.00000000000E+00 0. -1.
         21   -1    0    0  502  503 -0.00000000000E+00 -0.00000000000E+00 -0.15070733145E+04  0.15070733145E+04  0.00000000000E+00 0. -1.
          6    1    1    2  501    0 -0.24663180325E+03  0.54593565340E+02 -0.95163825745E+03  0.99967598590E+03  0.17300000000E+03 0. -1.
         -6    1    1    2    0  503  0.24663180325E+03 -0.54593565340E+02 -0.48731859804E+03  0.57551378762E+03  0.17300000000E+03 0. -1.
</event>
<event>
 4    1  0.6017350E+000  0.1000000E+03  0.7546771E-02  0.1280296E+00
         21   -1    0    0  503  502  0.00000000000E+00  0.00000000000E+00  0.27841907330E+03  0.27841907330E+03  0.00000000000E+00 0.  1.
         21   -1    0    0  501  503 -0.00000000000E+00 -0.00000000000E+00 -0.32327474887E+03  0.32327474887E+03  0.00000000000E+00 0. -1.
          6    1    1    2  501    0  0.23155586214E+03  0.49901102659E+02  0.40744923249E+02  0.29613744463E+03  0.17300000000E+03 0. -1.
         -6    1    1    2    0  502 -0.23155586214E+03 -0.49901102659E+02 -0.85600598812E+02  0.30555637754E+03  0.17300000000E+03 0.  1.
</event>
<event>
 4    1  0.6017350E+000  0.1000000E+03  0.7546771E-02  0.1280296E+00
         21   -1    0    0  503  502  0.00000000000E+00  0.00000000000E+00  0.32013701422E+03  0.32013701422E+03  0.00000000000E+00 0.  1.
         21   -1    0    0  501  503 -0.00000000000E+00 -0.00000000000E+00 -0.18772397939E+03  0.18772397939E+03  0.00000000000E+00 0. -1.
          6    1    1    2  501    0  0.83653356189E+02 -0.29651046804E+02 -0.88445286402E+02  0.21360860766E+03  0.17300000000E+03 0. -1.
         -6    1    1    2    0  502 -0.83653356189E+02  0.29651046804E+02  0.22085832124E+03  0.29425238595E+03  0.17300000000E+03 0.  1.
</event>
<event>
 4    1  0.6017350E+000  0.1000000E+03  0.7546771E-02  0.1280296E+00
         21   -1    0    0  503  502  0.00000000000E+00  0.00000000000E+00  0.45928656024E+02  0.45928656024E+02  0.00000000000E+00 0. -1.
         21   -1    0    0  501  503 -0.00000000000E+00 -0.00000000000E+00 -0.83367585782E+03  0.83367585782E+03  0.00000000000E+00 0.  1.
          6    1    1    2  501    0  0.32416685794E+02 -0.83065057138E+02 -0.43938195658E+03  0.48055816401E+03  0.17300000000E+03 0. -1.
         -6    1    1    2    0  502 -0.32416685794E+02  0.83065057138E+02 -0.34836524522E+03  0.39904634983E+03  0.17300000000E+03 0.  1.
</event>
<event>
 4    1  0.6017350E+000  0.1000000E+03  0.7546771E-02  0.1280296E+00
         21   -1    0    0  501  502  0.00000000000E+00  0.00000000000E+00  0.83957992769E+02  0.83957992769E+02  0.00000000000E+00 0.  1.
         21   -1    0    0  502  503 -0.00000000000E+00 -0.00000000000E+00 -0.93146612913E+03  0.93146612913E+03  0.00000000000E+00 0. -1.
          6    1    1    2  501    0  0.24919319162E+02  0.56810540080E+02 -0.41083956454E+02  0.18832233380E+03  0.17300000000E+03 0.  1.
         -6    1    1    2    0  503 -0.24919319162E+02 -0.56810540080E+02 -0.80642417991E+03  0.82710178810E+03  0.17300000000E+03 0. -1.
</event>
<event>
 4    1  0.6017350E+000  0.1000000E+03  0.7546771E-02  0.1280296E+00
         21   -1    0    0  501  502  0.00000000000E+00  0.00000000000E+00  0.14756412352E+03  0.14756412352E+03  0.00000000000E+00 0.  1.
         21   -1    0    0  502  503 -0.00000000000E+00 -0.00000000000E+00 -0.62173431339E+03  0.62173431339E+03  0.00000000000E+00 0. -1.
          6    1    1    2  501    0  0.18331628355E+02  0.18147856812E+03 -0.22526512818E+02  0.25240238324E+03  0.17300000000E+03 0.  1.
         -6    1    1    2    0  503 -0.18331628355E+02 -0.18147856812E+03 -0.45164367705E+03  0.51689605367E+03  0.17300000000E+03 0. -1.
</event>
<event>
 4    1  0.6017350E+000  0.1000000E+03  0.7546771E-02  0.1280296E+00
         21   -1    0    0  503  502  0.00000000000E+00  0.00000000000E+00  0.30835619017E+03  0.30835619017E+03  0.00000000000E+00 0.  1.
         21   -1    0    0  501  503 -0.00000000000E+00 -0.00000000000E+00 -0.33519982063E+03  0.33519982063E+03  0.00000000000E+00 0. -1.
          6    1    1    2  501    0 -0.11959734633E+03 -0.18241901794E+03 -0.17434655718E+03  0.32849040375E+03  0.17300000000E+03 0. -1.
         -6    1    1    2    0  502  0.11959734633E+03  0.18241901794E+03  0.14750292673E+03  0.31506560705E+03  0.17300000000E+03 0.  1.
</event>
<event>
 4    1  0.6017350E+000  0.1000000E+03  0.7546771E-02  0.1280296E+00
         21   -1    0    0  503  502  0.00000000000E+00  0.00000000000E+00  0.86769985252E+02  0.86769985252E+02  0.00000000000E+00 0.  1.
         21   -1    0    0  501  503 -0.00000000000E+00 -0.00000000000E+00 -0.99218731320E+03  0.99218731320E+03  0.00000000000E+00 0. -1.
          6    1    1    2  501    0 -0.14006819131E+03  0.14271561772E+03 -0.68655542486E+03  0.73571339336E+03  0.17300000000E+03 0. -1.
         -6    1    1    2    0  502  0.14006819131E+03 -0.14271561772E+03 -0.21886190308E+03  0.34324390509E+03  0.17300000000E+03 0.  1.
</event>
<event>
 4    1  0.6017350E+000  0.1000000E+03  0.7546771E-02  0.1280296E+00
         21   -1    0    0  503  502  0.00000000000E+00  0.00000000000E+00  0.12607689062E+04  0.12607689062E+04  0.00000000000E+00 0.  1.
         21   -1    0    0  501  503 -0.00000000000E+00 -0.00000000000E+00 -0.95304740757E+02  0.95304740757E+02  0.00000000000E+00 0. -1.
          6    1    1    2  501    0 -0.28296608337E+03  0.95407865033E+02  0.51917458498E+03  0.62341295682E+03  0.17300000000E+03 0. -1.
         -6    1    1    2    0  502  0.28296608337E+03 -0.95407865033E+02  0.64628958044E+03  0.73266069011E+03  0.17300000000E+03 0.  1.
</event>
<event>
 4    1  0.6017350E+000  0.1000000E+03  0.7546771E-02  0.1280296E+00
         21   -1    0    0  501  502  0.00000000000E+00  0.00000000000E+00  0.14402832423E+04  0.14402832423E+04  0.00000000000E+00 0.  1.
         21   -1    0    0  502  503 -0.00000000000E+00 -0.00000000000E+00 -0.22678391929E+02  0.22678391929E+02  0.00000000000E+00 0.  1.
          6    1    1    2  501    0  0.29162125311E+00 -0.33278948029E+02  0.87204415527E+03  0.88966149864E+03  0.17300000000E+03 0.  1.
         -6    1    1    2    0  503 -0.29162125311E+00  0.33278948029E+02  0.54556069511E+03  0.57330013559E+03  0.17300000000E+03 0.  1.
</event>
<event>
 4    1  0.6017350E+000  0.1000000E+03  0.7546771E-02  0.1280296E+00
         21   -1    0    0  503  502  0.00000000000E+00  0.00000000000E+00  0.23460864837E+03  0.23460864837E+03  0.00000000000E+00 0.  1.
         21   -1    0    0  501  503 -0.00000000000E+00 -0.00000000000E+00 -0.65672664572E+03  0.65672664572E+03  0.00000000000E+00 0.  1.
          6    1    1    2  501    0 -0.34696449799E+02 -0.53645675627E+01 -0.60911497634E+03  0.63417874185E+03  0.17300000000E+03 0.  1.
         -6    1    1    2    0  502  0.34696449799E+02  0.53645675627E+01  0.18699697899E+03  0.25715655225E+03  0.17300000000E+03 0.  1.
</event>
<event>
 4    1  0.6017350E+000  0.1000000E+03  0.7546771E-02  0.1280296E+00
         21   -1    0    0  503  502  0.00000000000E+00  0.00000000000E+00  0.23145004165E+04  0.23145004165E+04  0.00000000000E+00 0.  1.
         21   -1    0    0  501  503 -0.00000000000E+00 -0.00000000000E+00 -0.37764033170E+02  0.37764033170E+02  0.00000000000E+00 0.  1.
          6    1    1    2  501    0  0.23971201125E+03 -0.27122306108E+01  0.11486393649E+04  0.11860736044E+04  0.17300000000E+03 0.  1.
         -6    1    1    2    0  502 -0.23971201125E+03  0.27122306108E+01  0.11280970185E+04  0.11661908453E+04  0.17300000000E+03 0.  1.
</event>
<event>
 4    1  0.6017350E+000  0.1000000E+03  0.7546771E-02  0.1280296E+00
         21   -1    0    0  501  502  0.00000000000E+00  0.00000000000E+00  0.40593613751E+03  0.40593613751E+03  0.00000000000E+00 0. -1.
         21   -1    0    0  502  503 -0.00000000000E+00 -0.00000000000E+00 -0.14972884746E+03  0.14972884746E+03  0.00000000000E+00 0.  1.
          6    1    1    2  501    0  0.41914500712E+02  0.13799643331E+03  0.15119612683E+02  0.22573755484E+03  0.17300000000E+03 0. -1.
         -6    1    1    2    0  503 -0.41914500712E+02 -0.13799643331E+03  0.24108767737E+03  0.32992743014E+03  0.17300000000E+03 0.  1.
</event>
<event>
 4    1  0.6017350E+000  0.1000000E+03  0.7546771E-02  0.1280296E+00
         21   -1    0    0  501  502  0.00000000000E+00  0.00000000000E+00  0.24240923294E+03  0.24240923294E+03  0.00000000000E+00 0. -1.
         21   -1    0    0  502  503 -0.00000000000E+00 -0.00000000000E+00 -0.10056352152E+04  0.10056352152E+04  0.00000000000E+00 0.  1.
          6    1    1    2  501    0 -0.26961473886E+03 -0.10854360140E+03  0.72983549948E+02  0.34601939162E+03  0.17300000000E+03 0. -1.
         -6    1    1    2    0  503  0.26961473886E+03  0.10854360140E+03 -0.83620953217E+03  0.90202505648E+03  0.17300000000E+03 0.  1.
</event>
<event>
 4    1  0.6017350E+000  0.1000000E+03  0.7546771E-02  0.1280296E+00
         21   -1    0    0  501  502  0.00000000000E+00  0.00000000000E+00  0.27938740663E+03  0.27938740663E+03  0.00000000000E+00 0. -1.
         21   -1    0    0  502  503 -0.00000000000E+00 -0.00000000000E+00 -0.15455293930E+03  0.15455293930E+03  0.00000000000E+00 0.  1.
          6    1    1    2  501    0 -0.36699969619E+02 -0.91833946613E+02  0.12393091831E+03  0.23466621835E+03  0.17300000000E+03 0. -1.
         -6    1    1    2    0  503  0.36699969619E+02  0.91833946613E+02  0.90354902185E+00  0.19927412758E+03  0.17300000000E+03 0.  1.
</event>
<event>
 4    1  0.6017350E+000  0.1000000E+03  0.7546771E-02  0.1280296E+00
         21   -1    0    0  501  502  0.00000000000E+00  0.00000000000E+00  0.22603141582E+04  0.22603141582E+04  0.00000000000E+00 0. -1.
         21   -1    0    0  502  503 -0.00000000000E+00 -0.00000000000E+00 -0.73173321112E+02  0.73173321112E+02  0.00000000000E+00 0.  1.
          6    1    1    2  501    0  0.12664231452E+03 -0.12074542510E+03  0.20225254388E+04  0.20374385596E+04  0.17300000000E+03 0. -1.
         -6    1    1    2    0  503 -0.12664231452E+03  0.12074542510E+03  0.16461539826E+03  0.29604891970E+03  0.17300000000E+03 0.  1.
</event>
<event>
 4    1  0.6017350E+000  0.1000000E+03  0.7546771E-02  0.1280296E+00
         21   -1    0    0  503  502  0.00000000000E+00  0.00000000000E+00  0.15799887999E+03  0.15799887999E+03  0.00000000000E+00 0.  1.
         21   -1    0    0  501  503 -0.00000000000E+00 -0.00000000000E+00 -0.38080529904E+03  0.38080529904E+03  0.00000000000E+00 0.  1.
          6    1    1    2  501    0 -0.91062893883E+02 -0.12292268250E+03 -0.20220692357E+03  0.30695126071E+03  0.17300000000E+03 0.  1.
         -6    1    1    2    0  502  0.91062893883E+02  0.12292268250E+03 -0.20599495485E+02  0.23185291831E+03  0.17300000000E+03 0.  1.
</event>
<event>
 4    1  0.6017350E+000  0.1000000E+03  0.7546771E-02  0.1280296E+00
         21   -1    0    0  503  502  0.00000000000E+00  0.00000000000E+00  0.47217181590E+02  0.47217181590E+02  0.00000000000E+00 0.  1.
         21   -1    0    0  501  503 -0.00000000000E+00 -0.00000000000E+00 -0.87209599103E+03  0.87209599103E+03  0.00000000000E+00 0.  1.
          6    1    1    2  501    0  0.85397617508E+02  0.38384893816E+01 -0.55464873599E+03  0.58725778616E+03  0.17300000000E+03 0.  1.
         -6    1    1    2    0  502 -0.85397617508E+02 -0.38384893816E+01 -0.27023007346E+03  0.33205538646E+03  0.17300000000E+03 0.  1.
</event>
<event>
 4    1  0.6017350E+000  0.1000000E+03  0.7546771E-02  0.1280296E+00
         21   -1    0    0  501  502  0.00000000000E+00  0.00000000000E+00  0.50052945163E+03  0.50052945163E+03  0.00000000000E+00 0.  1.
         21   -1    0    0  502  503 -0.00000000000E+00 -0.00000000000E+00 -0.91336258596E+02  0.91336258596E+02  0.00000000000E+00 0.  1.
          6    1    1    2  501    0  0.10683198491E+03  0.42741317120E+02  0.13473767349E+03  0.24763508202E+03  0.17300000000E+03 0. -1.
         -6    1    1    2    0  503 -0.10683198491E+03 -0.42741317120E+02  0.27445551954E+03  0.34423062821E+03  0.17300000000E+03 0. -1.
</event>
<event>
 4    1  0.6017350E+000  0.1000000E+03  0.7546771E-02  0.1280296E+00
         21   -1    0    0  501  502  0.00000000000E+00  0.00000000000E+00  0.97481353947E+03  0.97481353947E+03  0.00000000000E+00 0.  1.
         21   -1    0    0  502  503 -0.00000000000E+00 -0.00000000000E+00 -0.69760121721E+02  0.69760121721E+02  0.00000000000E+00 0.  1.
          6    1    1    2  501    0 -0.15485632522E+03 -0.89708323757E+02  0.29679379110E+03  0.38735464273E+03  0.17300000000E+03 0. -1.
         -6    1    1    2    0  503  0.15485632522E+03  0.89708323757E+02  0.60825962665E+03  0.65721901846E+03  0.17300000000E+03 0. -1.
</event>
<event>
 4    1  0.6017350E+000  0.1000000E+03  0.7546771E-02  0.1280296E+00
         21   -1    0    0  501  502  0.00000000000E+00  0.00000000000E+00  0.31079470206E+03  0.31079470206E+03  0.00000000000E+00 0.  1.
         21   -1    0    0  502  503 -0.00000000000E+00 -0.00000000000E+00 -0.11065911974E+03  0.11065911974E+03  0.00000000000E+00 0.  1.
          6    1    1    2  501    0 -0.14791843483E+01 -0.56090362081E+02  0.14127227231E+03  0.23029366389E+03  0.17300000000E+03 0. -1.
         -6    1    1    2    0  503  0.14791843483E+01  0.56090362081E+02  0.58863310014E+02  0.19116015791E+03  0.17300000000E+03 0. -1.
</event>
<event>
 4    1  0.6017350E+000  0.1000000E+03  0.7546771E-02  0.1280296E+00
         21   -1    0    0  501  502  0.00000000000E+00  0.00000000000E+00  0.23716498007E+03  0.23716498007E+03  0.00000000000E+00 0.  1.
         21   -1    0    0  502  503 -0.00000000000E+00 -0.00000000000E+00 -0.22839816403E+03  0.22839816403E+03  0.00000000000E+00 0.  1.
          6    1    1    2  501    0  0.79815090792E+02  0.12648485638E+03  0.47636636680E+02  0.23359605469E+03  0.17300000000E+03 0. -1.
         -6    1    1    2    0  503 -0.79815090792E+02 -0.12648485638E+03 -0.38869820639E+02  0.23196708941E+03  0.17300000000E+03 0. -1.
</event>
<event>
 4    1  0.6017350E+000  0.1000000E+03  0.7546771E-02  0.1280296E+00
         21   -1    0    0  501  502  0.00000000000E+00  0.00000000000E+00  0.62762890030E+03  0.62762890030E+03  0.00000000000E+00 0. -1.
         21   -1    0    0  502  503 -0.00000000000E+00 -0.00000000000E+00 -0.10218459916E+04  0.10218459916E+04  0.00000000000E+00 0. -1.
          6    1    1    2  501    0 -0.27662594166E+03 -0.36723292141E+02  0.55512941531E+03  0.64495595162E+03  0.17300000000E+03 0. -1.
         -6    1    1    2    0  503  0.27662594166E+03  0.36723292141E+02 -0.94934650665E+03  0.10045189403E+04  0.17300000000E+03 0. -1.
</event>
<event>
 4    1  0.6017350E+000  0.1000000E+03  0.7546771E-02  0.1280296E+00
         21   -1    0    0  501  502  0.00000000000E+00  0.00000000000E+00  0.81911558652E+03  0.81911558652E+03  0.00000000000E+00 0. -1.
         21   -1    0    0  502  503 -0.00000000000E+00 -0.00000000000E+00 -0.12456417623E+03  0.12456417623E+03  0.00000000000E+00 0. -1.
          6    1    1    2  501    0 -0.94332863892E+02 -0.14050319374E+03  0.65523153245E+03  0.69849638351E+03  0.17300000000E+03 0. -1.
         -6    1    1    2    0  503  0.94332863892E+02  0.14050319374E+03  0.39319877840E+02  0.24518337924E+03  0.17300000000E+03 0. -1.
</event>
<event>
 4    1  0.6017350E+000  0.1000000E+03  0.7546771E-02  0.1280296E+00
         21   -1    0    0  501  502  0.00000000000E+00  0.00000000000E+00  0.24999291923E+03  0.24999291923E+03  0.00000000000E+00 0. -1.
         21   -1    0    0  502  503 -0.00000000000E+00 -0.00000000000E+00 -0.15379231390E+03  0.15379231390E+03  0.00000000000E+00 0. -1.
          6    1    1    2  501    0  0.70662766384E+02  0.19999234405E+02  0.10565753913E+03  0.21560545333E+03  0.17300000000E+03 0. -1.
         -6    1    1    2    0  503 -0.70662766384E+02 -0.19999234405E+02 -0.94569338053E+01  0.18817977980E+03  0.17300000000E+03 0. -1.
</event>
<event>
 4    1  0.6017350E+000  0.1000000E+03  0.7546771E-02  0.1280296E+00
         21   -1    0    0  503  502  0.00000000000E+00  0.00000000000E+00  0.60097602520E+03  0.60097602520E+03  0.00000000000E+00 0. -1.
         21   -1    0    0  501  503 -0.00000000000E+00 -0.00000000000E+00 -0.12550971617E+03  0.12550971617E+03  0.00000000000E+00 0. -1.
          6    1    1    2  501    0 -0.67300279840E+02  0.12463905763E+03  0.26799127044E+02  0.22519195271E+03  0.17300000000E+03 0. -1.
         -6    1    1    2    0  502  0.67300279840E+02 -0.12463905763E+03  0.44866718200E+03  0.50129378866E+03  0.17300000000E+03 0. -1.
</event>
<event>
 4    1  0.6017350E+000  0.1000000E+03  0.7546771E-02  0.1280296E+00
         21   -1    0    0  503  502  0.00000000000E+00  0.00000000000E+00  0.32735102690E+03  0.32735102690E+03  0.00000000000E+00 0. -1.
         21   -1    0    0  501  503 -0.00000000000E+00 -0.00000000000E+00 -0.10879581171E+03  0.10879581171E+03  0.00000000000E+00 0. -1.
          6    1    1    2  501    0 -0.74183915097E+02 -0.12510840659E+02  0.11512957749E+03  0.22100586871E+03  0.17300000000E+03 0. -1.
         -6    1    1    2    0  502  0.74183915097E+02  0.12510840659E+02  0.10342563771E+03  0.21514096990E+03  0.17300000000E+03 0. -1.
</event>
<event>
 4    1  0.6017350E+000  0.1000000E+03  0.7546771E-02  0.1280296E+00
         21   -1    0    0  501  502  0.00000000000E+00  0.00000000000E+00  0.78547597166E+02  0.78547597166E+02  0.00000000000E+00 0. -1.
         21   -1    0    0  502  503 -0.00000000000E+00 -0.00000000000E+00 -0.49104056333E+03  0.49104056333E+03  0.00000000000E+00 0.  1.
          6    1    1    2  501    0  0.53469320224E+02  0.50436385150E+02 -0.12372602586E+03  0.22503316784E+03  0.17300000000E+03 0. -1.
         -6    1    1    2    0  503 -0.53469320224E+02 -0.50436385150E+02 -0.28876694030E+03  0.34455499266E+03  0.17300000000E+03 0.  1.
</event>
<event>
 4    1  0.6017350E+000  0.1000000E+03  0.7546771E-02  0.1280296E+00
         21   -1    0    0  503  502  0.00000000000E+00  0.00000000000E+00  0.62467812790E+03  0.62467812790E+03  0.00000000000E+00 0. -1.
         21   -1    0    0  501  503 -0.00000000000E+00 -0.00000000000E+00 -0.76911686318E+02  0.76911686318E+02  0.00000000000E+00 0. -1.
          6    1    1    2  501    0 -0.13386740198E+02 -0.78100489595E+02  0.99761614267E+02  0.21484941464E+03  0.17300000000E+03 0.  1.
         -6    1    1    2    0  502  0.13386740198E+02  0.78100489595E+02  0.44800482732E+03  0.48674039959E+03  0.17300000000E+03 0.  1.
</event>
<event>
 4    1  0.6017350E+000  0.1000000E+03  0.7546771E-02  0.1280296E+00
         21   -1    0    0  503  502  0.00000000000E+00  0.00000000000E+00  0.32016456734E+02  0.32016456734E+02  0.00000000000E+00 0. -1.
         21   -1    0    0  501  503 -0.00000000000E+00 -0.00000000000E+00 -0.10350178033E+04  0.10350178033E+04  0.00000000000E+00 0. -1.
          6    1    1    2  501    0 -0.15118294233E+02 -0.45790143475E+02 -0.58860557462E+03  0.61539485092E+03  0.17300000000E+03 0.  1.
         -6    1    1    2    0  502  0.15118294233E+02  0.45790143475E+02 -0.41439577191E+03  0.45163940909E+03  0.17300000000E+03 0.  1.
</event>
<event>
 4    1  0.6017350E+000  0.1000000E+03  0.7546771E-02  0.1280296E+00
         21   -1    0    0  503  502  0.00000000000E+00  0.00000000000E+00  0.76813512041E+03  0.76813512041E+03  0.00000000000E+00 0. -1.
         21   -1    0    0  501  503 -0.00000000000E+00 -0.00000000000E+00 -0.78510935883E+02  0.78510935883E+02  0.00000000000E+00 0. -1.
          6    1    1    2  501    0  0.42147776271E+02  0.13757697336E+03  0.51436076000E+03  0.56142662038E+03  0.17300000000E+03 0.  1.
         -6    1    1    2    0  502 -0.42147776271E+02 -0.13757697336E+03  0.17526342452E+03  0.28521943591E+03  0.17300000000E+03 0.  1.
</event>
<event>
 4    1  0.6017350E+000  0.1000000E+03  0.7546771E-02  0.1280296E+00
         21   -1    0    0  503  502  0.00000000000E+00  0.00000000000E+00  0.29809922483E+03  0.29809922483E+03  0.00000000000E+00 0. -1.
         21   -1    0    0  501  503 -0.00000000000E+00 -0.00000000000E+00 -0.32376194697E+03  0.32376194697E+03  0.00000000000E+00 0. -1.
          6    1    1    2  501    0 -0.70083469275E+01 -0.16677134463E+03 -0.20977918264E+03  0.31905815110E+03  0.17300000000E+03 0.  1.
         -6    1    1    2    0  502  0.70083469275E+01  0.16677134463E+03  0.18411646050E+03  0.30280302070E+03  0.17300000000E+03 0.  1.
</event>
<event>
 4    1  0.6017350E+000  0.1000000E+03  0.7546771E-02  0.1280296E+00
         21   -1    0    0  503  502  0.00000000000E+00  0.00000000000E+00  0.52330667131E+02  0.52330667131E+02  0.00000000000E+00 0.  1.
         21   -1    0    0  501  503 -0.00000000000E+00 -0.00000000000E+00 -0.20238857665E+04  0.20238857665E+04  0.00000000000E+00 0.  1.
          6    1    1    2  501    0  0.17049030099E+03  0.18260667848E+03 -0.13573673876E+04  0.13909663428E+04  0.17300000000E+03 0.  1.
         -6    1    1    2    0  502 -0.17049030099E+03 -0.18260667848E+03 -0.61418771175E+03  0.68525009086E+03  0.17300000000E+03 0.  1.
</event>
<event>
 4    1  0.6017350E+000  0.1000000E+03  0.7546771E-02  0.1280296E+00
         21   -1    0    0  503  502  0.00000000000E+00  0.00000000000E+00  0.24223717447E+03  0.24223717447E+03  0.00000000000E+00 0.  1.
         21   -1    0    0  501  503 -0.00000000000E+00 -0.00000000000E+00 -0.11873410246E+04  0.11873410246E+04  0.00000000000E+00 0.  1.
          6    1    1    2  501    0  0.83394331821E+02  0.76825878274E+02 -0.11320357505E+04  0.11507783325E+04  0.17300000000E+03 0. -1.
         -6    1    1    2    0  502 -0.83394331821E+02 -0.76825878274E+02  0.18693190045E+03  0.27879986649E+03  0.17300000000E+03 0. -1.
</event>
<event>
 4    1  0.6017350E+000  0.1000000E+03  0.7546771E-02  0.1280296E+00
         21   -1    0    0  501  502  0.00000000000E+00  0.00000000000E+00  0.52091700669E+03  0.52091700669E+03  0.00000000000E+00 0. -1.
         21   -1    0    0  502  503 -0.00000000000E+00 -0.00000000000E+00 -0.13101278347E+03  0.13101278347E+03  0.00000000000E+00 0. -1.
          6    1    1    2  501    0  0.82520951144E+02 -0.35617053254E+02  0.41193079319E+03  0.45573485739E+03  0.17300000000E+03 0. -1.
         -6    1    1    2    0  503 -0.82520951144E+02  0.35617053254E+02 -0.22026569978E+02  0.19619493277E+03  0.17300000000E+03 0. -1.
</event>
<event>
 4    1  0.6017350E+000  0.1000000E+03  0.7546771E-02  0.1280296E+00
         21   -1    0    0  501  502  0.00000000000E+00  0.00000000000E+00  0.13816875922E+03  0.13816875922E+03  0.00000000000E+00 0. -1.
         21   -1    0    0  502  503 -0.00000000000E+00 -0.00000000000E+00 -0.59548429312E+03  0.59548429312E+03  0.00000000000E+00 0. -1.
          6    1    1    2  501    0  0.14253352506E+03 -0.42631371884E+02 -0.45095423798E+03  0.50539288122E+03  0.17300000000E+03 0. -1.
         -6    1    1    2    0  503 -0.14253352506E+03  0.42631371884E+02 -0.63612959177E+01  0.22826017112E+03  0.17300000000E+03 0. -1.
</event>
<event>
 4    1  0.6017350E+000  0.1000000E+03  0.7546771E-02  0.1280296E+00
         21   -1    0    0  501  502  0.00000000000E+00  0.00000000000E+00  0.16763114487E+03  0.16763114487E+03  0.00000000000E+00 0. -1.
         21   -1    0    0  502  503 -0.00000000000E+00 -0.00000000000E+00 -0.29902443566E+03  0.29902443566E+03  0.00000000000E+00 0. -1.
          6    1    1    2  501    0  0.29150816520E+02  0.26164561553E+02  0.76673900151E+02  0.19324140692E+03  0.17300000000E+03 0. -1.
         -6    1    1    2    0  503 -0.29150816520E+02 -0.26164561553E+02 -0.20806719094E+03  0.27341417361E+03  0.17300000000E+03 0. -1.
</event>
<event>
 4    1  0.6017350E+000  0.1000000E+03  0.7546771E-02  0.1280296E+00
         21   -1    0    0  501  502  0.00000000000E+00  0.00000000000E+00  0.18371163301E+03  0.18371163301E+03  0.00000000000E+00 0. -1.
         21   -1    0    0  502  503 -0.00000000000E+00 -0.00000000000E+00 -0.49923942730E+03  0.49923942730E+03  0.00000000000E+00 0. -1.
          6    1    1    2  501    0 -0.10311588192E+03  0.13682007233E+03  0.45303519988E+02  0.24765707384E+03  0.17300000000E+03 0. -1.
         -6    1    1    2    0  503  0.10311588192E+03 -0.13682007233E+03 -0.36083131427E+03  0.43529398647E+03  0.17300000000E+03 0. -1.
</event>
<event>
 4    1  0.6017350E+000  0.1000000E+03  0.7546771E-02  0.1280296E+00
         21   -1    0    0  501  502  0.00000000000E+00  0.00000000000E+00  0.90605252429E+03  0.90605252429E+03  0.00000000000E+00 0. -1.
         21   -1    0    0  502  503 -0.00000000000E+00 -0.00000000000E+00 -0.37852876941E+02  0.37852876941E+02  0.00000000000E+00 0. -1.
          6    1    1    2  501    0  0.12487909372E+02  0.27951445636E+01  0.59933415447E+03  0.62393444321E+03  0.17300000000E+03 0. -1.
         -6    1    1    2    0  503 -0.12487909372E+02 -0.27951445636E+01  0.26886549288E+03  0.31997095802E+03  0.17300000000E+03 0. -1.
</event>
<event>
 4    1  0.6017350E+000  0.1000000E+03  0.7546771E-02  0.1280296E+00
         21   -1    0    0  503  502  0.00000000000E+00  0.00000000000E+00  0.13541604964E+04  0.13541604964E+04  0.00000000000E+00 0. -1.
         21   -1    0    0  501  503 -0.00000000000E+00 -0.00000000000E+00 -0.23284480864E+02  0.23284480864E+02  0.00000000000E+00 0.  1.
          6    1    1    2  501    0 -0.31677951993E+02  0.16496314162E+02  0.59537536063E+03  0.62102853482E+03  0.17300000000E+03 0.  1.
         -6    1    1    2    0  502  0.31677951993E+02 -0.16496314162E+02  0.73550065494E+03  0.75641644247E+03  0.17300000000E+03 0. -1.
</event>
<event>
 4    1  0.6017350E+000  0.1000000E+03  0.7546771E-02  0.1280296E+00
         21   -1    0    0  503  502  0.00000000000E+00  0.00000000000E+00  0.69916280157E+03  0.69916280157E+03  0.00000000000E+00 0.  1.
         21   -1    0    0  501  503 -0.00000000000E+00 -0.00000000000E+00 -0.41182003657E+03  0.41182003657E+03  0.00000000000E+00 0.  1.
          6    1    1    2  501    0  0.12334381782E+02 -0.18002616972E+03 -0.34785710010E+03  0.42836330474E+03  0.17300000000E+03 0.  1.
         -6    1    1    2    0  502 -0.12334381782E+02  0.18002616972E+03  0.63519986509E+03  0.68261953340E+03  0.17300000000E+03 0.  1.
</event>
<event>
 4    1  0.6017350E+000  0.1000000E+03  0.7546771E-02  0.1280296E+00
         21   -1    0    0  503  502  0.00000000000E+00  0.00000000000E+00  0.31872318506E+02  0.31872318506E+02  0.00000000000E+00 0.  1.
         21   -1    0    0  501  503 -0.00000000000E+00 -0.00000000000E+00 -0.17901724589E+04  0.17901724589E+04  0.00000000000E+00 0.  1.
          6    1    1    2  501    0 -0.22810986724E+02 -0.21479301885E+02 -0.14958578844E+04  0.15061545445E+04  0.17300000000E+03 0.  1.
         -6    1    1    2    0  502  0.22810986724E+02  0.21479301885E+02 -0.26244225595E+03  0.31589023289E+03  0.17300000000E+03 0.  1.
</event>
<event>
 4    1  0.6017350E+000  0.1000000E+03  0.7546771E-02  0.1280296E+00
         21   -1    0    0  503  502  0.00000000000E+00  0.00000000000E+00  0.17256109887E+03  0.17256109887E+03  0.00000000000E+00 0.  1.
         21   -1    0    0  501  503 -0.00000000000E+00 -0.00000000000E+00 -0.41031657183E+03  0.41031657183E+03  0.00000000000E+00 0.  1.
          6    1    1    2  501    0  0.19887783944E+03  0.10054452180E+02 -0.15716779877E+03  0.30705733015E+03  0.17300000000E+03 0.  1.
         -6    1    1    2    0  502 -0.19887783944E+03 -0.10054452180E+02 -0.80587674194E+02  0.27582034055E+03  0.17300000000E+03 0.  1.
</event>
<event>
 4    1  0.6017350E+000  0.1000000E+03  0.7546771E-02  0.1280296E+00
         21   -1    0    0  503  502  0.00000000000E+00  0.00000000000E+00  0.15839766556E+03  0.15839766556E+03  0.00000000000E+00 0.  1.
         21   -1    0    0  501  503 -0.00000000000E+00 -0.00000000000E+00 -0.40279952332E+03  0.40279952332E+03  0.00000000000E+00 0.  1.
          6    1    1    2  501    0 -0.15128739546E+03 -0.93122978652E+02 -0.17563568269E+03  0.30386947562E+03  0.17300000000E+03 0.  1.
         -6    1    1    2    0  502  0.15128739546E+03  0.93122978652E+02 -0.68766175064E+02  0.25732771326E+03  0.17300000000E+03 0.  1.
</event>
<event>
 4    1  0.6017350E+000  0.1000000E+03  0.7546771E-02  0.1280296E+00
         21   -1    0    0  501  502  0.00000000000E+00  0.00000000000E+00  0.16795112785E+03  0.16795112785E+03  0.00000000000E+00 0. -1.
         21   -1    0    0  502  503 -0.00000000000E+00 -0.00000000000E+00 -0.38352505625E+03  0.38352505625E+03  0.00000000000E+00 0. -1.
          6    1    1    2  501    0 -0.41844480575E+02  0.86516182334E+02  0.64846839702E+02  0.20825494707E+03  0.17300000000E+03 0. -1.
         -6    1    1    2    0  503  0.41844480575E+02 -0.86516182334E+02 -0.28042076811E+03  0.34322123703E+03  0.17300000000E+03 0. -1.
</event>
<event>
 4    1  0.6017350E+000  0.1000000E+03  0.7546771E-02  0.1280296E+00
         21   -1    0    0  501  502  0.00000000000E+00  0.00000000000E+00  0.13019576153E+03  0.13019576153E+03  0.00000000000E+00 0. -1.
         21   -1    0    0  502  503 -0.00000000000E+00 -0.00000000000E+00 -0.33713671597E+03  0.33713671597E+03  0.00000000000E+00 0. -1.
          6    1    1    2  501    0 -0.74020656647E+02  0.18459781176E+02 -0.28146924304E+01  0.18909453621E+03  0.17300000000E+03 0. -1.
         -6    1    1    2    0  503  0.74020656647E+02 -0.18459781176E+02 -0.20412626201E+03  0.27823794129E+03  0.17300000000E+03 0. -1.
</event>
<event>
 4    1  0.6017350E+000  0.1000000E+03  0.7546771E-02  0.1280296E+00
         21   -1    0    0  503  502  0.00000000000E+00  0.00000000000E+00  0.19005875224E+03  0.19005875224E+03  0.00000000000E+00 0.  1.
         21   -1    0    0  501  503 -0.00000000000E+00 -0.00000000000E+00 -0.24367890477E+03  0.24367890477E+03  0.00000000000E+00 0.  1.
          6    1    1    2  501    0  0.69461338768E+02 -0.96254975267E+02 -0.75080355709E+02  0.22283616776E+03  0.17300000000E+03 0.  1.
         -6    1    1    2    0  502 -0.69461338768E+02  0.96254975267E+02  0.21460203181E+02  0.21090148925E+03  0.17300000000E+03 0.  1.
</event>
<event>
 4    1  0.6017350E+000  0.1000000E+03  0.7546771E-02  0.1280296E+00
         21   -1    0    0  503  502  0.00000000000E+00  0.00000000000E+00  0.43464511667E+03  0.43464511667E+03  0.00000000000E+00 0.  1.
         21   -1    0    0  501  503 -0.00000000000E+00 -0.00000000000E+00 -0.79526611399E+02  0.79526611399E+02  0.00000000000E+00 0.  1.
          6    1    1    2  501    0 -0.67076767131E+02  0.11723012171E+02  0.17806085644E+03  0.25743230236E+03  0.17300000000E+03 0.  1.
         -6    1    1    2    0  502  0.67076767131E+02 -0.11723012171E+02  0.17705764883E+03  0.25673942571E+03  0.17300000000E+03 0.  1.
</event>
<event>
 4    1  0.6017350E+000  0.1000000E+03  0.7546771E-02  0.1280296E+00
         21   -1    0    0  503  502  0.00000000000E+00  0.00000000000E+00  0.44493305667E+02  0.44493305667E+02  0.00000000000E+00 0.  1.
         21   -1    0    0  501  503 -0.00000000000E+00 -0.00000000000E+00 -0.75938709004E+03  0.75938709004E+03  0.00000000000E+00 0.  1.
          6    1    1    2  501    0  0.86112357005E+01 -0.48248134932E+02 -0.44090212051E+03  0.47615723850E+03  0.17300000000E+03 0.  1.
         -6    1    1    2    0  502 -0.86112357005E+01  0.48248134932E+02 -0.27399166386E+03  0.32772315721E+03  0.17300000000E+03 0.  1.
</event>
<event>
 4    1  0.6017350E+000  0.1000000E+03  0.7546771E-02  0.1280296E+00
         21   -1    0    0  503  502  0.00000000000E+00  0.00000000000E+00  0.67532105326E+03  0.67532105326E+03  0.00000000000E+00 0.  1.
         21   -1    0    0  501  503 -0.00000000000E+00 -0.00000000000E+00 -0.54060881734E+02  0.54060881734E+02  0.00000000000E+00 0.  1.
          6    1    1    2  501    0  0.88902369877E+01 -0.34961953306E+01  0.15688892943E+03  0.23374001770E+03  0.17300000000E+03 0.  1.
         -6    1    1    2    0  502 -0.88902369877E+01  0.34961953306E+01  0.46437124210E+03  0.49564191730E+03  0.17300000000E+03 0.  1.
</event>
<event>
 4    1  0.6017350E+000  0.1000000E+03  0.7546771E-02  0.1280296E+00
         21   -1    0    0  503  502  0.00000000000E+00  0.00000000000E+00  0.19903010547E+03  0.19903010547E+03  0.00000000000E+00 0. -1.
         21   -1    0    0  501  503 -0.00000000000E+00 -0.00000000000E+00 -0.18190683885E+03  0.18190683885E+03  0.00000000000E+00 0. -1.
          6    1    1    2  501    0 -0.11276562759E+02  0.71769455994E+02 -0.23060227198E+02  0.18904705700E+03  0.17300000000E+03 0. -1.
         -6    1    1    2    0  502  0.11276562759E+02 -0.71769455994E+02  0.40183493813E+02  0.19188988732E+03  0.17300000000E+03 0. -1.
</event>
<event>
 4    1  0.6017350E+000  0.1000000E+03  0.7546771E-02  0.1280296E+00
         21   -1    0    0  503  502  0.00000000000E+00  0.00000000000E+00  0.11378235259E+04  0.11378235259E+04  0.00000000000E+00 0. -1.
         21   -1    0    0  501  503 -0.00000000000E+00 -0.00000000000E+00 -0.44836091530E+02  0.44836091530E+02  0.00000000000E+00 0. -1.
          6    1    1    2  501    0  0.10386840154E+03 -0.97618391023E+02  0.47391343592E+03  0.52425274425E+03  0.17300000000E+03 0. -1.
         -6    1    1    2    0  502 -0.10386840154E+03  0.97618391023E+02  0.61907399848E+03  0.65840687322E+03  0.17300000000E+03 0. -1.
</event>
<event>
 4    1  0.6017350E+000  0.1000000E+03  0.7546771E-02  0.1280296E+00
         21   -1    0    0  501  502  0.00000000000E+00  0.00000000000E+00  0.59759459593E+03  0.59759459593E+03  0.00000000000E+00 0.  1.
         21   -1    0    0  502  503 -0.00000000000E+00 -0.00000000000E+00 -0.17004263007E+03  0.17004263007E+03  0.00000000000E+00 0.  1.
          6    1    1    2  501    0 -0.12514781133E+03  0.19838608943E+02  0.49776802892E+03  0.54199405504E+03  0.17300000000E+03 0.  1.
         -6    1    1    2    0  503  0.12514781133E+03 -0.19838608943E+02 -0.70216063064E+02  0.22564317095E+03  0.17300000000E+03 0.  1.
</event>
<event>
 4    1  0.6017350E+000  0.1000000E+03  0.7546771E-02  0.1280296E+00
         21   -1    0    0  501  502  0.00000000000E+00  0.00000000000E+00  0.69834200595E+03  0.69834200595E+03  0.00000000000E+00 0.  1.
         21   -1    0    0  502  503 -0.00000000000E+00 -0.00000000000E+00 -0.14859262764E+03  0.14859262764E+03  0.00000000000E+00 0.  1.
          6    1    1    2  501    0  0.12547895364E+03 -0.13357990921E+03  0.53861411384E+03  0.59466185650E+03  0.17300000000E+03 0.  1.
         -6    1    1    2    0  503 -0.12547895364E+03  0.13357990921E+03  0.11135264472E+02  0.25227277710E+03  0.17300000000E+03 0.  1.
</event>
<event>
 4    1  0.6017350E+000  0.1000000E+03  0.7546771E-02  0.1280296E+00
         21   -1    0    0  503  502  0.00000000000E+00  0.00000000000E+00  0.39353238633E+03  0.39353238633E+03  0.00000000000E+00 0.  1.
         21   -1    0    0  501  503 -0.00000000000E+00 -0.00000000000E+00 -0.35571337070E+03  0.35571337070E+03  0.00000000000E+00 0.  1.
          6    1    1    2  501    0  0.14078327714E+03  0.87749146991E+02 -0.26874777601E+03  0.36010305613E+03  0.17300000000E+03 0.  1.
         -6    1    1    2    0  502 -0.14078327714E+03 -0.87749146991E+02  0.30656679165E+03  0.38914270090E+03  0.17300000000E+03 0.  1.
</event>
<event>
 4    1  0.6017350E+000  0.1000000E+03  0.7546771E-02  0.1280296E+00
         21   -1    0    0  503  502  0.00000000000E+00  0.00000000000E+00  0.41483629442E+02  0.41483629442E+02  0.00000000000E+00 0.  1.
         21   -1    0    0  501  503 -0.00000000000E+00 -0.00000000000E+00 -0.12268329274E+04  0.12268329274E+04  0.00000000000E+00 0.  1.
          6    1    1    2  501    0 -0.13164067934E+03 -0.55735021336E+02 -0.65731759328E+03  0.69457258763E+03  0.17300000000E+03 0.  1.
         -6    1    1    2    0  502  0.13164067934E+03  0.55735021336E+02 -0.52803170473E+03  0.57374396925E+03  0.17300000000E+03 0.  1.
</event>
<event>
 4    1  0.6017350E+000  0.1000000E+03  0.7546771E-02  0.1280296E+00
         21   -1    0    0  503  502  0.00000000000E+00  0.00000000000E+00  0.15392578081E+03  0.15392578081E+03  0.00000000000E+00 0. -1.
         21   -1    0    0  501  503 -0.00000000000E+00 -0.00000000000E+00 -0.47781129028E+03  0.47781129028E+03  0.00000000000E+00 0. -1.
          6    1    1    2  501    0 -0.68530885411E+02 -0.83993187226E+02 -0.36986167551E+03  0.42246656290E+03  0.17300000000E+03 0. -1.
         -6    1    1    2    0  502  0.68530885411E+02  0.83993187226E+02  0.45976166042E+02  0.20927050819E+03  0.17300000000E+03 0. -1.
</event>
<event>
 4    1  0.6017350E+000  0.1000000E+03  0.7546771E-02  0.1280296E+00
         21   -1    0    0  503  502  0.00000000000E+00  0.00000000000E+00  0.95493185757E+03  0.95493185757E+03  0.00000000000E+00 0. -1.
         21   -1    0    0  501  503 -0.00000000000E+00 -0.00000000000E+00 -0.77005943049E+02  0.77005943049E+02  0.00000000000E+00 0. -1.
          6    1    1    2  501    0  0.60367909629E+02 -0.80830812053E+02  0.91079473657E+02  0.22000539814E+03  0.17300000000E+03 0. -1.
         -6    1    1    2    0  502 -0.60367909629E+02  0.80830812053E+02  0.78684644086E+03  0.81193240247E+03  0.17300000000E+03 0. -1.
</event>
<event>
 4    1  0.6017350E+000  0.1000000E+03  0.7546771E-02  0.1280296E+00
         21   -1    0    0  503  502  0.00000000000E+00  0.00000000000E+00  0.24031683294E+03  0.24031683294E+03  0.00000000000E+00 0. -1.
         21   -1    0    0  501  503 -0.00000000000E+00 -0.00000000000E+00 -0.47739105950E+03  0.47739105950E+03  0.00000000000E+00 0.  1.
          6    1    1    2  501    0  0.11595586342E+03 -0.16134175127E+03 -0.34408020689E+03  0.43335564118E+03  0.17300000000E+03 0.  1.
         -6    1    1    2    0  502 -0.11595586342E+03  0.16134175127E+03  0.10700598034E+03  0.28435225125E+03  0.17300000000E+03 0. -1.
</event>
<event>
 4    1  0.6017350E+000  0.1000000E+03  0.7546771E-02  0.1280296E+00
         21   -1    0    0  503  502  0.00000000000E+00  0.00000000000E+00  0.13191755388E+03  0.13191755388E+03  0.00000000000E+00 0. -1.
         21   -1    0    0  501  503 -0.00000000000E+00 -0.00000000000E+00 -0.13581915127E+04  0.13581915127E+04  0.00000000000E+00 0.  1.
          6    1    1    2  501    0  0.11346033589E+01 -0.10619734237E+03 -0.12669215192E+04  0.12830815635E+04  0.17300000000E+03 0.  1.
         -6    1    1    2    0  502 -0.11346033589E+01  0.10619734237E+03  0.40647560388E+02  0.20702750304E+03  0.17300000000E+03 0. -1.
</event>
<event>
 4    1  0.6017350E+000  0.1000000E+03  0.7546771E-02  0.1280296E+00
         21   -1    0    0  503  502  0.00000000000E+00  0.00000000000E+00  0.22002956659E+03  0.22002956659E+03  0.00000000000E+00 0. -1.
         21   -1    0    0  501  503 -0.00000000000E+00 -0.00000000000E+00 -0.17967591763E+03  0.17967591763E+03  0.00000000000E+00 0.  1.
          6    1    1    2  501    0 -0.28060811363E+02  0.38959404695E+02 -0.65700645315E+02  0.19118268526E+03  0.17300000000E+03 0.  1.
         -6    1    1    2    0  502  0.28060811363E+02 -0.38959404695E+02  0.10605429428E+03  0.20852279895E+03  0.17300000000E+03 0. -1.
</event>
<event>
 4    1  0.6017350E+000  0.1000000E+03  0.7546771E-02  0.1280296E+00
         21   -1    0    0  503  502  0.00000000000E+00  0.00000000000E+00  0.37338300119E+02  0.37338300119E+02  0.00000000000E+00 0.  1.
         21   -1    0    0  501  503 -0.00000000000E+00 -0.00000000000E+00 -0.10700598778E+04  0.10700598778E+04  0.00000000000E+00 0.  1.
          6    1    1    2  501    0 -0.79222933150E+02 -0.10219248512E+02 -0.68358998856E+03  0.70965130778E+03  0.17300000000E+03 0.  1.
         -6    1    1    2    0  502  0.79222933150E+02  0.10219248512E+02 -0.34913158908E+03  0.39774687010E+03  0.17300000000E+03 0.  1.
</event>
<event>
 4    1  0.6017350E+000  0.1000000E+03  0.7546771E-02  0.1280296E+00
         21   -1    0    0  503  502  0.00000000000E+00  0.00000000000E+00  0.47044363228E+03  0.47044363228E+03  0.00000000000E+00 0.  1.
         21   -1    0    0  501  503 -0.00000000000E+00 -0.00000000000E+00 -0.42001662271E+03  0.42001662271E+03  0.00000000000E+00 0.  1.
          6    1    1    2  501    0  0.30141901843E+03  0.17773185017E+02 -0.25180986126E+03  0.42954221796E+03  0.17300000000E+03 0.  1.
         -6    1    1    2    0  502 -0.30141901843E+03 -0.17773185017E+02  0.30223687083E+03  0.46091803704E+03  0.17300000000E+03 0.  1.
</event>
<event>
 4    1  0.6017350E+000  0.1000000E+03  0.7546771E-02  0.1280296E+00
         21   -1    0    0  503  502  0.00000000000E+00  0.00000000000E+00  0.57863056501E+02  0.57863056501E+02  0.00000000000E+00 0.  1.
         21   -1    0    0  501  503 -0.00000000000E+00 -0.00000000000E+00 -0.12996321187E+04  0.12996321187E+04  0.00000000000E+00 0. -1.
          6    1    1    2  501    0 -0.83694191154E+02  0.18223722205E+03 -0.79688958927E+03  0.83974826003E+03  0.17300000000E+03 0.  1.
         -6    1    1    2    0  502  0.83694191154E+02 -0.18223722205E+03 -0.44487947291E+03  0.51774691516E+03  0.17300000000E+03 0. -1.
</event>
<event>
 4    1  0.6017350E+000  0.1000000E+03  0.7546771E-02  0.1280296E+00
         21   -1    0    0  503  502  0.00000000000E+00  0.00000000000E+00  0.20745248784E+03  0.20745248784E+03  0.00000000000E+00 0.  1.
         21   -1    0    0  501  503 -0.00000000000E+00 -0.00000000000E+00 -0.51537575767E+03  0.51537575767E+03  0.00000000000E+00 0. -1.
          6    1    1    2  501    0  0.20760995208E+03  0.13352597732E+03 -0.29401746362E+03  0.42107760298E+03  0.17300000000E+03 0.  1.
         -6    1    1    2    0  502 -0.20760995208E+03 -0.13352597732E+03 -0.13905806204E+02  0.30175064253E+03  0.17300000000E+03 0. -1.
</event>
<event>
 4    1  0.6017350E+000  0.1000000E+03  0.7546771E-02  0.1280296E+00
         21   -1    0    0  501  502  0.00000000000E+00  0.00000000000E+00  0.12267736735E+03  0.12267736735E+03  0.00000000000E+00 0.  1.
         21   -1    0    0  502  503 -0.00000000000E+00 -0.00000000000E+00 -0.28904218290E+03  0.28904218290E+03  0.00000000000E+00 0.  1.
          6    1    1    2  501    0 -0.52656799538E+02  0.46351737908E+02 -0.56210320641E+02  0.19496107891E+03  0.17300000000E+03 0.  1.
         -6    1    1    2    0  503  0.52656799538E+02 -0.46351737908E+02 -0.11015449492E+03  0.21675847133E+03  0.17300000000E+03 0.  1.
</event>
<event>
 4    1  0.6017350E+000  0.1000000E+03  0.7546771E-02  0.1280296E+00
         21   -1    0    0  501  502  0.00000000000E+00  0.00000000000E+00  0.44791694277E+03  0.44791694277E+03  0.00000000000E+00 0.  1.
         21   -1    0    0  502  503 -0.00000000000E+00 -0.00000000000E+00 -0.48775929386E+03  0.48775929386E+03  0.00000000000E+00 0.  1.
          6    1    1    2  501    0 -0.21030915436E+03  0.57524946633E+02  0.35592949572E+03  0.45183389184E+03  0.17300000000E+03 0.  1.
         -6    1    1    2    0  503  0.21030915436E+03 -0.57524946633E+02 -0.39577184681E+03  0.48384234480E+03  0.17300000000E+03 0.  1.
</event>
<event>
 4    1  0.6017350E+000  0.1000000E+03  0.7546771E-02  0.1280296E+00
         21   -1    0    0  501  502  0.00000000000E+00  0.00000000000E+00  0.11989346615E+03  0.11989346615E+03  0.00000000000E+00 0.  1.
         21   -1    0    0  502  503 -0.00000000000E+00 -0.00000000000E+00 -0.29520677104E+03  0.29520677104E+03  0.00000000000E+00 0.  1.
          6    1    1    2  501    0 -0.35758570573E+02  0.24759037503E+02 -0.21715126880E+02  0.17970039522E+03  0.17300000000E+03 0.  1.
         -6    1    1    2    0  503  0.35758570573E+02 -0.24759037503E+02 -0.15359817802E+03  0.23539984197E+03  0.17300000000E+03 0.  1.
</event>
<event>
 4    1  0.6017350E+000  0.1000000E+03  0.7546771E-02  0.1280296E+00
         21   -1    0    0  501  502  0.00000000000E+00  0.00000000000E+00  0.13028175353E+03  0.13028175353E+03  0.00000000000E+00 0.  1.
         21   -1    0    0  502  503 -0.00000000000E+00 -0.00000000000E+00 -0.88631117185E+03  0.88631117185E+03  0.00000000000E+00 0. -1.
          6    1    1    2  501    0 -0.26804248834E+03 -0.63585240587E+02 -0.23106273354E+03  0.39900983097E+03  0.17300000000E+03 0.  1.
         -6    1    1    2    0  503  0.26804248834E+03  0.63585240587E+02 -0.52496668478E+03  0.61758309441E+03  0.17300000000E+03 0. -1.
</event>
<event>
 4    1  0.6017350E+000  0.1000000E+03  0.7546771E-02  0.1280296E+00
         21   -1    0    0  501  502  0.00000000000E+00  0.00000000000E+00  0.10973869344E+04  0.10973869344E+04  0.00000000000E+00 0.  1.
         21   -1    0    0  502  503 -0.00000000000E+00 -0.00000000000E+00 -0.52326665258E+03  0.52326665258E+03  0.00000000000E+00 0. -1.
          6    1    1    2  501    0  0.33407296862E+02  0.39839156711E+02  0.10740254932E+04  0.10891110898E+04  0.17300000000E+03 0.  1.
         -6    1    1    2    0  503 -0.33407296862E+02 -0.39839156711E+02 -0.49990521140E+03  0.53154249715E+03  0.17300000000E+03 0. -1.
</event>
<event>
 4    1  0.6017350E+000  0.1000000E+03  0.7546771E-02  0.1280296E+00
         21   -1    0    0  501  502  0.00000000000E+00  0.00000000000E+00  0.26490621166E+03  0.26490621166E+03  0.00000000000E+00 0. -1.
         21   -1    0    0  502  503 -0.00000000000E+00 -0.00000000000E+00 -0.20269293429E+03  0.20269293429E+03  0.00000000000E+00 0.  1.
          6    1    1    2  501    0  0.47122299427E+02  0.70432275104E+02  0.16104226111E+03  0.25108728829E+03  0.17300000000E+03 0. -1.
         -6    1    1    2    0  503 -0.47122299427E+02 -0.70432275104E+02 -0.98828983732E+02  0.21651185766E+03  0.17300000000E+03 0.  1.
</event>
<event>
 4    1  0.6017350E+000  0.1000000E+03  0.7546771E-02  0.1280296E+00
         21   -1    0    0  501  502  0.00000000000E+00  0.00000000000E+00  0.54105996311E+02  0.54105996311E+02  0.00000000000E+00 0.  1.
         21   -1    0    0  502  503 -0.00000000000E+00 -0.00000000000E+00 -0.63859431524E+03  0.63859431524E+03  0.00000000000E+00 0.  1.
          6    1    1    2  501    0 -0.16037153419E+02 -0.41058272832E+02 -0.19578751851E+03  0.26496174151E+03  0.17300000000E+03 0.  1.
         -6    1    1    2    0  503  0.16037153419E+02  0.41058272832E+02 -0.38870080042E+03  0.42773857005E+03  0.17300000000E+03 0.  1.
</event>
<event>
 4    1  0.6017350E+000  0.1000000E+03  0.7546771E-02  0.1280296E+00
         21   -1    0    0  501  502  0.00000000000E+00  0.00000000000E+00  0.19633437610E+03  0.19633437610E+03  0.00000000000E+00 0.  1.
         21   -1    0    0  502  503 -0.00000000000E+00 -0.00000000000E+00 -0.21576240830E+03  0.21576240830E+03  0.00000000000E+00 0.  1.
          6    1    1    2  501    0 -0.12326875979E+02  0.19741370340E+01  0.10120972183E+03  0.20081896544E+03  0.17300000000E+03 0.  1.
         -6    1    1    2    0  503  0.12326875979E+02 -0.19741370340E+01 -0.12063775403E+03  0.21127781896E+03  0.17300000000E+03 0.  1.
</event>
<event>
 4    1  0.6017350E+000  0.1000000E+03  0.7546771E-02  0.1280296E+00
         21   -1    0    0  501  502  0.00000000000E+00  0.00000000000E+00  0.61911374063E+02  0.61911374063E+02  0.00000000000E+00 0. -1.
         21   -1    0    0  502  503 -0.00000000000E+00 -0.00000000000E+00 -0.54826320086E+03  0.54826320086E+03  0.00000000000E+00 0. -1.
          6    1    1    2  501    0 -0.15079250605E+02 -0.13298032887E+02 -0.34267713560E+03  0.38439672312E+03  0.17300000000E+03 0. -1.
         -6    1    1    2    0  503  0.15079250605E+02  0.13298032887E+02 -0.14367469120E+03  0.22577785181E+03  0.17300000000E+03 0. -1.
</event>
<event>
 4    1  0.6017350E+000  0.1000000E+03  0.7546771E-02  0.1280296E+00
         21   -1    0    0  503  502  0.00000000000E+00  0.00000000000E+00  0.18631269244E+03  0.18631269244E+03  0.00000000000E+00 0.  1.
         21   -1    0    0  501  503 -0.00000000000E+00 -0.00000000000E+00 -0.28806965880E+03  0.28806965880E+03  0.00000000000E+00 0. -1.
          6    1    1    2  501    0 -0.62778490925E+02 -0.10095657859E+03 -0.15123834446E+03  0.25871877883E+03  0.17300000000E+03 0. -1.
         -6    1    1    2    0  502  0.62778490925E+02  0.10095657859E+03  0.49481378097E+02  0.21566357240E+03  0.17300000000E+03 0.  1.
</event>
<event>
 4    1  0.6017350E+000  0.1000000E+03  0.7546771E-02  0.1280296E+00
         21   -1    0    0  501  502  0.00000000000E+00  0.00000000000E+00  0.63597229684E+03  0.63597229684E+03  0.00000000000E+00 0. -1.
         21   -1    0    0  502  503 -0.00000000000E+00 -0.00000000000E+00 -0.96628923850E+02  0.96628923850E+02  0.00000000000E+00 0.  1.
          6    1    1    2  501    0 -0.14958468506E+03 -0.35050141042E+02  0.40117412937E+03  0.46311313139E+03  0.17300000000E+03 0. -1.
         -6    1    1    2    0  503  0.14958468506E+03  0.35050141042E+02  0.13816924362E+03  0.26948808930E+03  0.17300000000E+03 0.  1.
</event>
<event>
 4    1  0.6017350E+000  0.1000000E+03  0.7546771E-02  0.1280296E+00
         21   -1    0    0  501  502  0.00000000000E+00  0.00000000000E+00  0.35704574890E+03  0.35704574890E+03  0.00000000000E+00 0. -1.
         21   -1    0    0  502  503 -0.00000000000E+00 -0.00000000000E+00 -0.63554933812E+03  0.63554933812E+03  0.00000000000E+00 0.  1.
          6    1    1    2  501    0  0.57212619632E+02 -0.28115251572E+02  0.31836563318E+03  0.36789866486E+03  0.17300000000E+03 0. -1.
         -6    1    1    2    0  503 -0.57212619632E+02  0.28115251572E+02 -0.59686922239E+03  0.62469642216E+03  0.17300000000E+03 0.  1.
</event>
<event>
 4    1  0.6017350E+000  0.1000000E+03  0.7546771E-02  0.1280296E+00
         21   -1    0    0  501  502  0.00000000000E+00  0.00000000000E+00  0.45834221501E+03  0.45834221501E+03  0.00000000000E+00 0. -1.
         21   -1    0    0  502  503 -0.00000000000E+00 -0.00000000000E+00 -0.44859796011E+03  0.44859796011E+03  0.00000000000E+00 0.  1.
          6    1    1    2  501    0  0.13558656359E+03  0.89908926014E+02  0.39117806606E+03  0.45762059675E+03  0.17300000000E+03 0. -1.
         -6    1    1    2    0  503 -0.13558656359E+03 -0.89908926014E+02 -0.38143381116E+03  0.44931957836E+03  0.17300000000E+03 0.  1.
</event>
<event>
 4    1  0.6017350E+000  0.1000000E+03  0.7546771E-02  0.1280296E+00
         21   -1    0    0  501  502  0.00000000000E+00  0.00000000000E+00  0.12019405871E+03  0.12019405871E+03  0.00000000000E+00 0. -1.
         21   -1    0    0  502  503 -0.00000000000E+00 -0.00000000000E+00 -0.47140580722E+03  0.47140580722E+03  0.00000000000E+00 0.  1.
          6    1    1    2  501    0  0.76670549697E+02 -0.10658387589E+03 -0.54531129796E+02  0.22392217377E+03  0.17300000000E+03 0. -1.
         -6    1    1    2    0  503 -0.76670549697E+02  0.10658387589E+03 -0.29668061871E+03  0.36767769216E+03  0.17300000000E+03 0.  1.
</event>
<event>
 4    1  0.6017350E+000  0.1000000E+03  0.7546771E-02  0.1280296E+00
         21   -1    0    0  501  502  0.00000000000E+00  0.00000000000E+00  0.14312413673E+03  0.14312413673E+03  0.00000000000E+00 0. -1.
         21   -1    0    0  502  503 -0.00000000000E+00 -0.00000000000E+00 -0.38630592086E+03  0.38630592086E+03  0.00000000000E+00 0.  1.
          6    1    1    2  501    0 -0.10050148854E+02 -0.82831205960E+02  0.31112925603E+02  0.19457396617E+03  0.17300000000E+03 0. -1.
         -6    1    1    2    0  503  0.10050148854E+02  0.82831205960E+02 -0.27429470974E+03  0.33485609142E+03  0.17300000000E+03 0.  1.
</event>
<event>
 4    1  0.6017350E+000  0.1000000E+03  0.7546771E-02  0.1280296E+00
         21   -1    0    0  501  502  0.00000000000E+00  0.00000000000E+00  0.59595681548E+02  0.59595681548E+02  0.00000000000E+00 0. -1.
         21   -1    0    0  502  503 -0.00000000000E+00 -0.00000000000E+00 -0.83277648111E+03  0.83277648111E+03  0.00000000000E+00 0.  1.
          6    1    1    2  501    0 -0.84218246201E+02 -0.10862055909E+03 -0.32959785747E+03  0.39680585492E+03  0.17300000000E+03 0. -1.
         -6    1    1    2    0  503  0.84218246201E+02  0.10862055909E+03 -0.44358294209E+03  0.49556630774E+03  0.17300000000E+03 0.  1.
</event>
<event>
 4    1  0.6017350E+000  0.1000000E+03  0.7546771E-02  0.1280296E+00
         21   -1    0    0  501  502  0.00000000000E+00  0.00000000000E+00  0.16333643335E+03  0.16333643335E+03  0.00000000000E+00 0. -1.
         21   -1    0    0  502  503 -0.00000000000E+00 -0.00000000000E+00 -0.21227858529E+03  0.21227858529E+03  0.00000000000E+00 0.  1.
          6    1    1    2  501    0 -0.78040916707E+01 -0.68076042766E+02 -0.17441531204E+02  0.18689156871E+03  0.17300000000E+03 0. -1.
         -6    1    1    2    0  503  0.78040916707E+01  0.68076042766E+02 -0.31500620727E+02  0.18872344993E+03  0.17300000000E+03 0.  1.
</event>
<event>
 4    1  0.6017350E+000  0.1000000E+03  0.7546771E-02  0.1280296E+00
         21   -1    0    0  501  502  0.00000000000E+00  0.00000000000E+00  0.11895057660E+04  0.11895057660E+04  0.00000000000E+00 0.  1.
         21   -1    0    0  502  503 -0.00000000000E+00 -0.00000000000E+00 -0.38277151350E+02  0.38277151350E+02  0.00000000000E+00 0.  1.
          6    1    1    2  501    0 -0.63885372687E+02  0.99020051779E+02  0.45645057663E+03  0.50215778437E+03  0.17300000000E+03 0.  1.
         -6    1    1    2    0  503  0.63885372687E+02 -0.99020051779E+02  0.69477803803E+03  0.72562513299E+03  0.17300000000E+03 0.  1.
</event>
<event>
 4    1  0.6017350E+000  0.1000000E+03  0.7546771E-02  0.1280296E+00
         21   -1    0    0  501  502  0.00000000000E+00  0.00000000000E+00  0.32750176963E+03  0.32750176963E+03  0.00000000000E+00 0.  1.
         21   -1    0    0  502  503 -0.00000000000E+00 -0.00000000000E+00 -0.14124452687E+03  0.14124452687E+03  0.00000000000E+00 0.  1.
          6    1    1    2  501    0 -0.16807406806E+02  0.29600266918E+02  0.22734651108E+03  0.28770488495E+03  0.17300000000E+03 0.  1.
         -6    1    1    2    0  503  0.16807406806E+02 -0.29600266918E+02 -0.41089268318E+02  0.18104141155E+03  0.17300000000E+03 0.  1.
</event>
<event>
 4    1  0.6017350E+000  0.1000000E+03  0.7546771E-02  0.1280296E+00
         21   -1    0    0  501  502  0.00000000000E+00  0.00000000000E+00  0.26723579197E+03  0.26723579197E+03  0.00000000000E+00 0.  1.
         21   -1    0    0  502  503 -0.00000000000E+00 -0.00000000000E+00 -0.31777638390E+03  0.31777638390E+03  0.00000000000E+00 0.  1.
          6    1    1    2  501    0  0.11606907476E+03  0.12226041293E+03  0.13835245489E+03  0.27837032970E+03  0.17300000000E+03 0.  1.
         -6    1    1    2    0  503 -0.11606907476E+03 -0.12226041293E+03 -0.18889304681E+03  0.30664184617E+03  0.17300000000E+03 0.  1.
</event>
<event>
 4    1  0.6017350E+000  0.1000000E+03  0.7546771E-02  0.1280296E+00
         21   -1    0    0  501  502  0.00000000000E+00  0.00000000000E+00  0.16331289877E+03  0.16331289877E+03  0.00000000000E+00 0.  1.
         21   -1    0    0  502  503 -0.00000000000E+00 -0.00000000000E+00 -0.43331978414E+03  0.43331978414E+03  0.00000000000E+00 0.  1.
          6    1    1    2  501    0  0.81287859923E+02 -0.85392767285E+02  0.49050774688E+02  0.21502236947E+03  0.17300000000E+03 0.  1.
         -6    1    1    2    0  503 -0.81287859923E+02  0.85392767285E+02 -0.31905766006E+03  0.38161031343E+03  0.17300000000E+03 0.  1.
</event>
<event>
 4    1  0.6017350E+000  0.1000000E+03  0.7546771E-02  0.1280296E+00
         21   -1    0    0  501  502  0.00000000000E+00  0.00000000000E+00  0.22787512048E+03  0.22787512048E+03  0.00000000000E+00 0. -1.
         21   -1    0    0  502  503 -0.00000000000E+00 -0.00000000000E+00 -0.23217957290E+03  0.23217957290E+03  0.00000000000E+00 0. -1.
          6    1    1    2  501    0 -0.62770203298E+02  0.13251896329E+03  0.36288682415E+02  0.22966767845E+03  0.17300000000E+03 0. -1.
         -6    1    1    2    0  503  0.62770203298E+02 -0.13251896329E+03 -0.40593134829E+02  0.23038701493E+03  0.17300000000E+03 0. -1.
</event>
<event>
 4    1  0.6017350E+000  0.1000000E+03  0.7546771E-02  0.1280296E+00
         21   -1    0    0  501  502  0.00000000000E+00  0.00000000000E+00  0.55344569433E+03  0.55344569433E+03  0.00000000000E+00 0. -1.
         21   -1    0    0  502  503 -0.00000000000E+00 -0.00000000000E+00 -0.19700107951E+04  0.19700107951E+04  0.00000000000E+00 0. -1.
          6    1    1    2  501    0 -0.26329845704E+03 -0.14734926891E+03  0.48139480374E+03  0.59389211276E+03  0.17300000000E+03 0. -1.
         -6    1    1    2    0  503  0.26329845704E+03  0.14734926891E+03 -0.18979599045E+04  0.19295643766E+04  0.17300000000E+03 0. -1.
</event>
<event>
 4    1  0.6017350E+000  0.1000000E+03  0.7546771E-02  0.1280296E+00
         21   -1    0    0  501  502  0.00000000000E+00  0.00000000000E+00  0.16095013550E+03  0.16095013550E+03  0.00000000000E+00 0.  1.
         21   -1    0    0  502  503 -0.00000000000E+00 -0.00000000000E+00 -0.22877499368E+03  0.22877499368E+03  0.00000000000E+00 0.  1.
          6    1    1    2  501    0 -0.62059919715E+02  0.50705106976E+02 -0.55926107229E+02  0.19869366114E+03  0.17300000000E+03 0.  1.
         -6    1    1    2    0  503  0.62059919715E+02 -0.50705106976E+02 -0.11898750953E+02  0.19103146804E+03  0.17300000000E+03 0.  1.
</event>
<event>
 4    1  0.6017350E+000  0.1000000E+03  0.7546771E-02  0.1280296E+00
         21   -1    0    0  501  502  0.00000000000E+00  0.00000000000E+00  0.16938244413E+03  0.16938244413E+03  0.00000000000E+00 0.  1.
         21   -1    0    0  502  503 -0.00000000000E+00 -0.00000000000E+00 -0.28828315377E+03  0.28828315377E+03  0.00000000000E+00 0.  1.
          6    1    1    2  501    0  0.71951049309E+02  0.35989043752E+02  0.55998996169E+02  0.19883926257E+03  0.17300000000E+03 0.  1.
         -6    1    1    2    0  503 -0.71951049309E+02 -0.35989043752E+02 -0.17489970582E+03  0.25882633533E+03  0.17300000000E+03 0.  1.
</event>
<event>
 4    1  0.6017350E+000  0.1000000E+03  0.7546771E-02  0.1280296E+00
         21   -1    0    0  501  502  0.00000000000E+00  0.00000000000E+00  0.21155410120E+03  0.21155410120E+03  0.00000000000E+00 0.  1.
         21   -1    0    0  502  503 -0.00000000000E+00 -0.00000000000E+00 -0.50828022351E+03  0.50828022351E+03  0.00000000000E+00 0. -1.
          6    1    1    2  501    0 -0.19090821441E+03  0.15786852915E+03 -0.85275394752E+01  0.30227493735E+03  0.17300000000E+03 0.  1.
         -6    1    1    2    0  503  0.19090821441E+03 -0.15786852915E+03 -0.28819858283E+03  0.41755938735E+03  0.17300000000E+03 0. -1.
</event>
<event>
 4    1  0.6017350E+000  0.1000000E+03  0.7546771E-02  0.1280296E+00
         21   -1    0    0  501  502  0.00000000000E+00  0.00000000000E+00  0.85881993707E+03  0.85881993707E+03  0.00000000000E+00 0.  1.
         21   -1    0    0  502  503 -0.00000000000E+00 -0.00000000000E+00 -0.45653596579E+02  0.45653596579E+02  0.00000000000E+00 0. -1.
          6    1    1    2  501    0 -0.51397813466E+02 -0.69385193779E+02  0.50410277155E+03  0.53991170077E+03  0.17300000000E+03 0.  1.
         -6    1    1    2    0  503  0.51397813466E+02  0.69385193779E+02  0.30906356894E+03  0.36456183288E+03  0.17300000000E+03 0. -1.
</event>
<event>
 4    1  0.6017350E+000  0.1000000E+03  0.7546771E-02  0.1280296E+00
         21   -1    0    0  503  502  0.00000000000E+00  0.00000000000E+00  0.66591787011E+03  0.66591787011E+03  0.00000000000E+00 0.  1.
         21   -1    0    0  501  503 -0.00000000000E+00 -0.00000000000E+00 -0.11369943953E+03  0.11369943953E+03  0.00000000000E+00 0. -1.
          6    1    1    2  501    0 -0.57918828819E+02 -0.19813219493E+03  0.35592738800E+03  0.44634545246E+03  0.17300000000E+03 0. -1.
         -6    1    1    2    0  502  0.57918828819E+02  0.19813219493E+03  0.19629104258E+03  0.33327185719E+03  0.17300000000E+03 0.  1.
</event>
<event>
 4    1  0.6017350E+000  0.1000000E+03  0.7546771E-02  0.1280296E+00
         21   -1    0    0  503  502  0.00000000000E+00  0.00000000000E+00  0.27434478229E+03  0.27434478229E+03  0.00000000000E+00 0.  1.
         21   -1    0    0  501  503 -0.00000000000E+00 -0.00000000000E+00 -0.25663412896E+03  0.25663412896E+03  0.00000000000E+00 0. -1.
          6    1    1    2  501    0 -0.19718779517E+03 -0.17280938614E+02 -0.27158834671E+02  0.26428821333E+03  0.17300000000E+03 0. -1.
         -6    1    1    2    0  502  0.19718779517E+03  0.17280938614E+02  0.44869488009E+02  0.26669069792E+03  0.17300000000E+03 0.  1.
</event>
<event>
 4    1  0.6017350E+000  0.1000000E+03  0.7546771E-02  0.1280296E+00
         21   -1    0    0  501  502  0.00000000000E+00  0.00000000000E+00  0.10680533793E+04  0.10680533793E+04  0.00000000000E+00 0.  1.
         21   -1    0    0  502  503 -0.00000000000E+00 -0.00000000000E+00 -0.86262900889E+02  0.86262900889E+02  0.00000000000E+00 0.  1.
          6    1    1    2  501    0  0.58170923037E+02  0.32505776148E+02  0.94789352842E+03  0.96585279571E+03  0.17300000000E+03 0.  1.
         -6    1    1    2    0  503 -0.58170923037E+02 -0.32505776148E+02  0.33896950019E+02  0.18846348450E+03  0.17300000000E+03 0.  1.
</event>
<event>
 4    1  0.6017350E+000  0.1000000E+03  0.7546771E-02  0.1280296E+00
         21   -1    0    0  503  502  0.00000000000E+00  0.00000000000E+00  0.12349792659E+03  0.12349792659E+03  0.00000000000E+00 0. -1.
         21   -1    0    0  501  503 -0.00000000000E+00 -0.00000000000E+00 -0.47267426307E+03  0.47267426307E+03  0.00000000000E+00 0. -1.
          6    1    1    2  501    0  0.11828540132E+03 -0.52929066868E+02 -0.30776786567E+03  0.37608906049E+03  0.17300000000E+03 0. -1.
         -6    1    1    2    0  502 -0.11828540132E+03  0.52929066868E+02 -0.41408470816E+02  0.22008312916E+03  0.17300000000E+03 0. -1.
</event>
<event>
 4    1  0.6017350E+000  0.1000000E+03  0.7546771E-02  0.1280296E+00
         21   -1    0    0  503  502  0.00000000000E+00  0.00000000000E+00  0.41727267924E+03  0.41727267924E+03  0.00000000000E+00 0.  1.
         21   -1    0    0  501  503 -0.00000000000E+00 -0.00000000000E+00 -0.21338820339E+03  0.21338820339E+03  0.00000000000E+00 0. -1.
          6    1    1    2  501    0  0.38262489722E+00 -0.36577473773E+02 -0.15205966700E+03  0.23321492301E+03  0.17300000000E+03 0. -1.
         -6    1    1    2    0  502 -0.38262489722E+00  0.36577473773E+02  0.35594414284E+03  0.39744595961E+03  0.17300000000E+03 0.  1.
</event>
<event>
 4    1  0.6017350E+000  0.1000000E+03  0.7546771E-02  0.1280296E+00
         21   -1    0    0  503  502  0.00000000000E+00  0.00000000000E+00  0.81901560906E+03  0.81901560906E+03  0.00000000000E+00 0. -1.
         21   -1    0    0  501  503 -0.00000000000E+00 -0.00000000000E+00 -0.67290947898E+02  0.67290947898E+02  0.00000000000E+00 0.  1.
          6    1    1    2  501    0  0.15385944649E+03  0.38585202554E+02  0.38467390778E+03  0.45062685501E+03  0.17300000000E+03 0.  1.
         -6    1    1    2    0  502 -0.15385944649E+03 -0.38585202554E+02  0.36705075338E+03  0.43567970195E+03  0.17300000000E+03 0. -1.
</event>
<event>
 4    1  0.6017350E+000  0.1000000E+03  0.7546771E-02  0.1280296E+00
         21   -1    0    0  501  502  0.00000000000E+00  0.00000000000E+00  0.38834636580E+03  0.38834636580E+03  0.00000000000E+00 0. -1.
         21   -1    0    0  502  503 -0.00000000000E+00 -0.00000000000E+00 -0.14290141181E+03  0.14290141181E+03  0.00000000000E+00 0. -1.
          6    1    1    2  501    0 -0.15125955347E+03  0.50080171089E+02  0.10764655056E+03  0.25865857013E+03  0.17300000000E+03 0. -1.
         -6    1    1    2    0  503  0.15125955347E+03 -0.50080171089E+02  0.13779840343E+03  0.27258920749E+03  0.17300000000E+03 0. -1.
</event>
<event>
 4    1  0.6017350E+000  0.1000000E+03  0.7546771E-02  0.1280296E+00
         21   -1    0    0  501  502  0.00000000000E+00  0.00000000000E+00  0.40601492900E+02  0.40601492900E+02  0.00000000000E+00 0. -1.
         21   -1    0    0  502  503 -0.00000000000E+00 -0.00000000000E+00 -0.11069586757E+04  0.11069586757E+04  0.00000000000E+00 0. -1.
          6    1    1    2  501    0  0.10926344159E+03  0.55211758299E+02 -0.51877121698E+03  0.56039219613E+03  0.17300000000E+03 0. -1.
         -6    1    1    2    0  503 -0.10926344159E+03 -0.55211758299E+02 -0.54758596582E+03  0.58716797247E+03  0.17300000000E+03 0. -1.
</event>
<event>
 4    1  0.6017350E+000  0.1000000E+03  0.7546771E-02  0.1280296E+00
         21   -1    0    0  503  502  0.00000000000E+00  0.00000000000E+00  0.15228580920E+03  0.15228580920E+03  0.00000000000E+00 0.  1.
         21   -1    0    0  501  503 -0.00000000000E+00 -0.00000000000E+00 -0.43152588393E+03  0.43152588393E+03  0.00000000000E+00 0. -1.
          6    1    1    2  501    0  0.92209740025E+02 -0.66828765309E+02 -0.31162625289E+03  0.37417728621E+03  0.17300000000E+03 0. -1.
         -6    1    1    2    0  502 -0.92209740025E+02  0.66828765309E+02  0.32386178162E+02  0.20963440692E+03  0.17300000000E+03 0.  1.
</event>
<event>
 4    1  0.6017350E+000  0.1000000E+03  0.7546771E-02  0.1280296E+00
         21   -1    0    0  503  502  0.00000000000E+00  0.00000000000E+00  0.45380399331E+03  0.45380399331E+03  0.00000000000E+00 0. -1.
         21   -1    0    0  501  503 -0.00000000000E+00 -0.00000000000E+00 -0.97949263683E+02  0.97949263683E+02  0.00000000000E+00 0.  1.
          6    1    1    2  501    0 -0.10758564704E+02  0.33436446681E+02  0.27095177052E+02  0.17859700810E+03  0.17300000000E+03 0.  1.
         -6    1    1    2    0  502  0.10758564704E+02 -0.33436446681E+02  0.32875955258E+03  0.37315624890E+03  0.17300000000E+03 0. -1.
</event>
<event>
 4    1  0.6017350E+000  0.1000000E+03  0.7546771E-02  0.1280296E+00
         21   -1    0    0  503  502  0.00000000000E+00  0.00000000000E+00  0.48063052242E+03  0.48063052242E+03  0.00000000000E+00 0. -1.
         21   -1    0    0  501  503 -0.00000000000E+00 -0.00000000000E+00 -0.10220647687E+03  0.10220647687E+03  0.00000000000E+00 0.  1.
          6    1    1    2  501    0 -0.88334219028E+01  0.13134877214E+03  0.13244476981E+03  0.25456069283E+03  0.17300000000E+03 0.  1.
         -6    1    1    2    0  502  0.88334219028E+01 -0.13134877214E+03  0.24597927574E+03  0.32827630646E+03  0.17300000000E+03 0. -1.
</event>
<event>
 4    1  0.6017350E+000  0.1000000E+03  0.7546771E-02  0.1280296E+00
         21   -1    0    0  501  502  0.00000000000E+00  0.00000000000E+00  0.40595450829E+03  0.40595450829E+03  0.00000000000E+00 0. -1.
         21   -1    0    0  502  503 -0.00000000000E+00 -0.00000000000E+00 -0.10455831447E+03  0.10455831447E+03  0.00000000000E+00 0.  1.
          6    1    1    2  501    0  0.57840450802E+02 -0.89472608996E+02  0.10839053972E+03  0.23027890613E+03  0.17300000000E+03 0. -1.
         -6    1    1    2    0  503 -0.57840450802E+02  0.89472608996E+02  0.19300565410E+03  0.28023391662E+03  0.17300000000E+03 0.  1.
</event>
<event>
 4    1  0.6017350E+000  0.1000000E+03  0.7546771E-02  0.1280296E+00
         21   -1    0    0  501  502  0.00000000000E+00  0.00000000000E+00  0.42755290818E+03  0.42755290818E+03  0.00000000000E+00 0. -1.
         21   -1    0    0  502  503 -0.00000000000E+00 -0.00000000000E+00 -0.23695634709E+03  0.23695634709E+03  0.00000000000E+00 0.  1.
          6    1    1    2  501    0  0.13723873369E+03 -0.14844057663E+03  0.27764020162E+03  0.38455449076E+03  0.17300000000E+03 0. -1.
         -6    1    1    2    0  503 -0.13723873369E+03  0.14844057663E+03 -0.87043640534E+02  0.27995476451E+03  0.17300000000E+03 0. -1.
</event>
<event>
 4    1  0.6017350E+000  0.1000000E+03  0.7546771E-02  0.1280296E+00
         21   -1    0    0  501  502  0.00000000000E+00  0.00000000000E+00  0.10903150094E+03  0.10903150094E+03  0.00000000000E+00 0. -1.
         21   -1    0    0  502  503 -0.00000000000E+00 -0.00000000000E+00 -0.46799627579E+03  0.46799627579E+03  0.00000000000E+00 0.  1.
          6    1    1    2  501    0  0.52936582509E+02  0.14811436244E+02 -0.77639990885E+01  0.18168913037E+03  0.17300000000E+03 0. -1.
         -6    1    1    2    0  503 -0.52936582509E+02 -0.14811436244E+02 -0.35120077577E+03  0.39533864637E+03  0.17300000000E+03 0. -1.
</event>
<event>
 4    1  0.6017350E+000  0.1000000E+03  0.7546771E-02  0.1280296E+00
         21   -1    0    0  503  502  0.00000000000E+00  0.00000000000E+00  0.72354830242E+03  0.72354830242E+03  0.00000000000E+00 0.  1.
         21   -1    0    0  501  503 -0.00000000000E+00 -0.00000000000E+00 -0.51126797549E+02  0.51126797549E+02  0.00000000000E+00 0. -1.
          6    1    1    2  501    0 -0.25304382401E+02 -0.76096113836E+02  0.38686979472E+03  0.43130982875E+03  0.17300000000E+03 0.  1.
         -6    1    1    2    0  502  0.25304382401E+02  0.76096113836E+02  0.28555171015E+03  0.34336527122E+03  0.17300000000E+03 0. -1.
</event>
<event>
 4    1  0.6017350E+000  0.1000000E+03  0.7546771E-02  0.1280296E+00
         21   -1    0    0  501  502  0.00000000000E+00  0.00000000000E+00  0.17495203149E+03  0.17495203149E+03  0.00000000000E+00 0.  1.
         21   -1    0    0  502  503 -0.00000000000E+00 -0.00000000000E+00 -0.28460703309E+03  0.28460703309E+03  0.00000000000E+00 0.  1.
          6    1    1    2  501    0 -0.13281657532E+03 -0.12747780351E+01 -0.10336448663E+03  0.24136090163E+03  0.17300000000E+03 0. -1.
         -6    1    1    2    0  503  0.13281657532E+03  0.12747780351E+01 -0.62905149697E+01  0.21819816296E+03  0.17300000000E+03 0. -1.
</event>
<event>
 4    1  0.6017350E+000  0.1000000E+03  0.7546771E-02  0.1280296E+00
         21   -1    0    0  501  502  0.00000000000E+00  0.00000000000E+00  0.81268043612E+03  0.81268043612E+03  0.00000000000E+00 0. -1.
         21   -1    0    0  502  503 -0.00000000000E+00 -0.00000000000E+00 -0.17551246669E+03  0.17551246669E+03  0.00000000000E+00 0. -1.
          6    1    1    2  501    0 -0.63289219927E+02  0.24219453318E+02  0.74875356954E+03  0.77146160965E+03  0.17300000000E+03 0. -1.
         -6    1    1    2    0  503  0.63289219927E+02 -0.24219453318E+02 -0.11158560011E+03  0.21673129315E+03  0.17300000000E+03 0. -1.
</event>
<event>
 4    1  0.6017350E+000  0.1000000E+03  0.7546771E-02  0.1280296E+00
         21   -1    0    0  501  502  0.00000000000E+00  0.00000000000E+00  0.11723806781E+04  0.11723806781E+04  0.00000000000E+00 0. -1.
         21   -1    0    0  502  503 -0.00000000000E+00 -0.00000000000E+00 -0.60067011200E+02  0.60067011200E+02  0.00000000000E+00 0. -1.
          6    1    1    2  501    0 -0.31795309635E+02 -0.94847907256E+02  0.96160155933E+03  0.98214745641E+03  0.17300000000E+03 0. -1.
         -6    1    1    2    0  503  0.31795309635E+02  0.94847907256E+02  0.15071210761E+03  0.25030023294E+03  0.17300000000E+03 0. -1.
</event>
<event>
 4    1  0.6017350E+000  0.1000000E+03  0.7546771E-02  0.1280296E+00
         21   -1    0    0  501  502  0.00000000000E+00  0.00000000000E+00  0.25515085812E+03  0.25515085812E+03  0.00000000000E+00 0. -1.
         21   -1    0    0  502  503 -0.00000000000E+00 -0.00000000000E+00 -0.18037329524E+03  0.18037329524E+03  0.00000000000E+00 0. -1.
          6    1    1    2  501    0  0.12189969905E+01  0.88151129907E+02  0.12998495297E+03  0.23366042809E+03  0.17300000000E+03 0. -1.
         -6    1    1    2    0  503 -0.12189969905E+01 -0.88151129907E+02 -0.55207390089E+02  0.20186372527E+03  0.17300000000E+03 0. -1.
</event>
<event>
 4    1  0.6017350E+000  0.1000000E+03  0.7546771E-02  0.1280296E+00
         21   -1    0    0  501  502  0.00000000000E+00  0.00000000000E+00  0.71141844782E+03  0.71141844782E+03  0.00000000000E+00 0. -1.
         21   -1    0    0  502  503 -0.00000000000E+00 -0.00000000000E+00 -0.14639536134E+03  0.14639536134E+03  0.00000000000E+00 0.  1.
          6    1    1    2  501    0 -0.19671329373E+03  0.18605342989E+03  0.32254537126E+03  0.45527630646E+03  0.17300000000E+03 0.  1.
         -6    1    1    2    0  503  0.19671329373E+03 -0.18605342989E+03  0.24247771522E+03  0.40253750270E+03  0.17300000000E+03 0. -1.
</event>
<event>
 4    1  0.6017350E+000  0.1000000E+03  0.7546771E-02  0.1280296E+00
         21   -1    0    0  501  502  0.00000000000E+00  0.00000000000E+00  0.16736309219E+03  0.16736309219E+03  0.00000000000E+00 0.  1.
         21   -1    0    0  502  503 -0.00000000000E+00 -0.00000000000E+00 -0.57850722336E+03  0.57850722336E+03  0.00000000000E+00 0.  1.
          6    1    1    2  501    0 -0.19615017338E+03  0.16823653766E+03 -0.19281266077E+03  0.36590182464E+03  0.17300000000E+03 0.  1.
         -6    1    1    2    0  503  0.19615017338E+03 -0.16823653766E+03 -0.21833147040E+03  0.37996849092E+03  0.17300000000E+03 0.  1.
</event>
<event>
 4    1  0.6017350E+000  0.1000000E+03  0.7546771E-02  0.1280296E+00
         21   -1    0    0  501  502  0.00000000000E+00  0.00000000000E+00  0.12709940971E+03  0.12709940971E+03  0.00000000000E+00 0.  1.
         21   -1    0    0  502  503 -0.00000000000E+00 -0.00000000000E+00 -0.89471885872E+03  0.89471885872E+03  0.00000000000E+00 0.  1.
          6    1    1    2  501    0 -0.94432735631E+02  0.81142047880E+02  0.12103252605E+02  0.21348785028E+03  0.17300000000E+03 0.  1.
         -6    1    1    2    0  503  0.94432735631E+02 -0.81142047880E+02 -0.77972270162E+03  0.80833041815E+03  0.17300000000E+03 0.  1.
</event>
<event>
 4    1  0.6017350E+000  0.1000000E+03  0.7546771E-02  0.1280296E+00
         21   -1    0    0  503  502  0.00000000000E+00  0.00000000000E+00  0.57109194249E+03  0.57109194249E+03  0.00000000000E+00 0.  1.
         21   -1    0    0  501  503 -0.00000000000E+00 -0.00000000000E+00 -0.10995405222E+03  0.10995405222E+03  0.00000000000E+00 0.  1.
          6    1    1    2  501    0 -0.11725120616E+03  0.39906234862E+02  0.50677346461E+02  0.21871796079E+03  0.17300000000E+03 0.  1.
         -6    1    1    2    0  502  0.11725120616E+03 -0.39906234862E+02  0.41046054381E+03  0.46232803392E+03  0.17300000000E+03 0.  1.
</event>
<event>
 4    1  0.6017350E+000  0.1000000E+03  0.7546771E-02  0.1280296E+00
         21   -1    0    0  503  502  0.00000000000E+00  0.00000000000E+00  0.10152710250E+03  0.10152710250E+03  0.00000000000E+00 0.  1.
         21   -1    0    0  501  503 -0.00000000000E+00 -0.00000000000E+00 -0.74190267127E+03  0.74190267127E+03  0.00000000000E+00 0. -1.
          6    1    1    2  501    0 -0.17036004736E+03 -0.45939772440E+02 -0.50368640779E+03  0.56103654588E+03  0.17300000000E+03 0. -1.
         -6    1    1    2    0  502  0.17036004736E+03  0.45939772440E+02 -0.13668916098E+03  0.28239322789E+03  0.17300000000E+03 0.  1.
</event>
<event>
 4    1  0.6017350E+000  0.1000000E+03  0.7546771E-02  0.1280296E+00
         21   -1    0    0  503  502  0.00000000000E+00  0.00000000000E+00  0.33091129648E+03  0.33091129648E+03  0.00000000000E+00 0.  1.
         21   -1    0    0  501  503 -0.00000000000E+00 -0.00000000000E+00 -0.12814691482E+03  0.12814691482E+03  0.00000000000E+00 0. -1.
          6    1    1    2  501    0  0.76511786012E+02 -0.80660030017E+02  0.89368652848E+02  0.22422276859E+03  0.17300000000E+03 0. -1.
         -6    1    1    2    0  502 -0.76511786012E+02  0.80660030017E+02  0.11339572881E+03  0.23483544271E+03  0.17300000000E+03 0.  1.
</event>
<event>
 4    1  0.6017350E+000  0.1000000E+03  0.7546771E-02  0.1280296E+00
         21   -1    0    0  503  502  0.00000000000E+00  0.00000000000E+00  0.85483105276E+03  0.85483105276E+03  0.00000000000E+00 0.  1.
         21   -1    0    0  501  503 -0.00000000000E+00 -0.00000000000E+00 -0.46085809624E+02  0.46085809624E+02  0.00000000000E+00 0. -1.
          6    1    1    2  501    0  0.82496751044E+02  0.40127143324E+02  0.47793675324E+03  0.51649631331E+03  0.17300000000E+03 0. -1.
         -6    1    1    2    0  502 -0.82496751044E+02 -0.40127143324E+02  0.33080848990E+03  0.38442054908E+03  0.17300000000E+03 0.  1.
</event>
<event>
 4    1  0.6017350E+000  0.1000000E+03  0.7546771E-02  0.1280296E+00
         21   -1    0    0  501  502  0.00000000000E+00  0.00000000000E+00  0.34191226615E+03  0.34191226615E+03  0.00000000000E+00 0.  1.
         21   -1    0    0  502  503 -0.00000000000E+00 -0.00000000000E+00 -0.13391352225E+03  0.13391352225E+03  0.00000000000E+00 0.  1.
          6    1    1    2  501    0 -0.11050447255E+03  0.34955946307E+02  0.15874648707E+03  0.26184461765E+03  0.17300000000E+03 0.  1.
         -6    1    1    2    0  503  0.11050447255E+03 -0.34955946307E+02  0.49252256828E+02  0.21398117076E+03  0.17300000000E+03 0.  1.
</event>
<event>
 4    1  0.6017350E+000  0.1000000E+03  0.7546771E-02  0.1280296E+00
         21   -1    0    0  501  502  0.00000000000E+00  0.00000000000E+00  0.48178465288E+03  0.48178465288E+03  0.00000000000E+00 0.  1.
         21   -1    0    0  502  503 -0.00000000000E+00 -0.00000000000E+00 -0.12983767755E+03  0.12983767755E+03  0.00000000000E+00 0.  1.
          6    1    1    2  501    0  0.36895092730E+02 -0.52657132055E+02  0.38235873461E+03  0.42457181178E+03  0.17300000000E+03 0.  1.
         -6    1    1    2    0  503 -0.36895092730E+02  0.52657132055E+02 -0.30411759284E+02  0.18705051865E+03  0.17300000000E+03 0.  1.
</event>
<event>
 4    1  0.6017350E+000  0.1000000E+03  0.7546771E-02  0.1280296E+00
         21   -1    0    0  501  502  0.00000000000E+00  0.00000000000E+00  0.10992020370E+03  0.10992020370E+03  0.00000000000E+00 0.  1.
         21   -1    0    0  502  503 -0.00000000000E+00 -0.00000000000E+00 -0.38796641238E+03  0.38796641238E+03  0.00000000000E+00 0.  1.
          6    1    1    2  501    0  0.70378053281E+01  0.10058940333E+02 -0.38915307432E+01  0.17347869320E+03  0.17300000000E+03 0.  1.
         -6    1    1    2    0  503 -0.70378053281E+01 -0.10058940333E+02 -0.27415467795E+03  0.32440792287E+03  0.17300000000E+03 0.  1.
</event>
<event>
 4    1  0.6017350E+000  0.1000000E+03  0.7546771E-02  0.1280296E+00
         21   -1    0    0  501  502  0.00000000000E+00  0.00000000000E+00  0.17390212504E+04  0.17390212504E+04  0.00000000000E+00 0.  1.
         21   -1    0    0  502  503 -0.00000000000E+00 -0.00000000000E+00 -0.14692988503E+03  0.14692988503E+03  0.00000000000E+00 0.  1.
          6    1    1    2  501    0  0.17081310369E+03  0.85820383139E+02  0.16071433557E+04  0.16276919304E+04  0.17300000000E+03 0.  1.
         -6    1    1    2    0  503 -0.17081310369E+03 -0.85820383139E+02 -0.15051990352E+02  0.25825920500E+03  0.17300000000E+03 0.  1.
</event>
<event>
 4    1  0.6017350E+000  0.1000000E+03  0.7546771E-02  0.1280296E+00
         21   -1    0    0  503  502  0.00000000000E+00  0.00000000000E+00  0.77149544814E+03  0.77149544814E+03  0.00000000000E+00 0. -1.
         21   -1    0    0  501  503 -0.00000000000E+00 -0.00000000000E+00 -0.33932507534E+03  0.33932507534E+03  0.00000000000E+00 0.  1.
          6    1    1    2  501    0  0.20020659791E+03 -0.27774423272E+03 -0.15144783121E+03  0.41241967247E+03  0.17300000000E+03 0.  1.
         -6    1    1    2    0  502 -0.20020659791E+03  0.27774423272E+03  0.58361820400E+03  0.69840085102E+03  0.17300000000E+03 0. -1.
</event>
<event>
 4    1  0.6017350E+000  0.1000000E+03  0.7546771E-02  0.1280296E+00
         21   -1    0    0  503  502  0.00000000000E+00  0.00000000000E+00  0.39492066244E+03  0.39492066244E+03  0.00000000000E+00 0. -1.
         21   -1    0    0  501  503 -0.00000000000E+00 -0.00000000000E+00 -0.36093262059E+03  0.36093262059E+03  0.00000000000E+00 0.  1.
          6    1    1    2  501    0  0.19042790851E+03  0.15859935246E+03 -0.20949644283E+03  0.36774216851E+03  0.17300000000E+03 0.  1.
         -6    1    1    2    0  502 -0.19042790851E+03 -0.15859935246E+03  0.24348448468E+03  0.38811111453E+03  0.17300000000E+03 0. -1.
</event>
<event>
 4    1  0.6017350E+000  0.1000000E+03  0.7546771E-02  0.1280296E+00
         21   -1    0    0  503  502  0.00000000000E+00  0.00000000000E+00  0.10857637512E+03  0.10857637512E+03  0.00000000000E+00 0. -1.
         21   -1    0    0  501  503 -0.00000000000E+00 -0.00000000000E+00 -0.51147635232E+03  0.51147635232E+03  0.00000000000E+00 0.  1.
          6    1    1    2  501    0  0.15765517304E+03  0.10401786119E+02 -0.23478119533E+03  0.33168442897E+03  0.17300000000E+03 0.  1.
         -6    1    1    2    0  502 -0.15765517304E+03 -0.10401786119E+02 -0.16811878188E+03  0.28836829847E+03  0.17300000000E+03 0. -1.
</event>
<event>
 4    1  0.6017350E+000  0.1000000E+03  0.7546771E-02  0.1280296E+00
         21   -1    0    0  503  502  0.00000000000E+00  0.00000000000E+00  0.19305372398E+03  0.19305372398E+03  0.00000000000E+00 0. -1.
         21   -1    0    0  501  503 -0.00000000000E+00 -0.00000000000E+00 -0.33889187073E+03  0.33889187073E+03  0.00000000000E+00 0.  1.
          6    1    1    2  501    0 -0.15747193098E+02 -0.12997278896E+03 -0.21379542498E+03  0.30459544269E+03  0.17300000000E+03 0.  1.
         -6    1    1    2    0  502  0.15747193098E+02  0.12997278896E+03  0.67957278240E+02  0.22735015203E+03  0.17300000000E+03 0. -1.
</event>
<event>
 4    1  0.6017350E+000  0.1000000E+03  0.7546771E-02  0.1280296E+00
         21   -1    0    0  503  502  0.00000000000E+00  0.00000000000E+00  0.28664859081E+02  0.28664859081E+02  0.00000000000E+00 0. -1.
         21   -1    0    0  501  503 -0.00000000000E+00 -0.00000000000E+00 -0.19484790230E+04  0.19484790230E+04  0.00000000000E+00 0.  1.
          6    1    1    2  501    0  0.89754176875E+02  0.13172274655E+03 -0.86477929966E+03  0.89620250577E+03  0.17300000000E+03 0.  1.
         -6    1    1    2    0  502 -0.89754176875E+02 -0.13172274655E+03 -0.10550348643E+04  0.10809413763E+04  0.17300000000E+03 0. -1.
</event>
<event>
 4    1  0.6017350E+000  0.1000000E+03  0.7546771E-02  0.1280296E+00
         21   -1    0    0  503  502  0.00000000000E+00  0.00000000000E+00  0.31406083299E+03  0.31406083299E+03  0.00000000000E+00 0. -1.
         21   -1    0    0  501  503 -0.00000000000E+00 -0.00000000000E+00 -0.19321408120E+03  0.19321408120E+03  0.00000000000E+00 0.  1.
          6    1    1    2  501    0  0.58724354098E+02  0.15324652546E+02 -0.10897913978E+03  0.21328114696E+03  0.17300000000E+03 0.  1.
         -6    1    1    2    0  502 -0.58724354098E+02 -0.15324652546E+02  0.22982589156E+03  0.29399376723E+03  0.17300000000E+03 0. -1.
</event>
<event>
 4    1  0.6017350E+000  0.1000000E+03  0.7546771E-02  0.1280296E+00
         21   -1    0    0  503  502  0.00000000000E+00  0.00000000000E+00  0.85183545403E+03  0.85183545403E+03  0.00000000000E+00 0.  1.
         21   -1    0    0  501  503 -0.00000000000E+00 -0.00000000000E+00 -0.75321581304E+02  0.75321581304E+02  0.00000000000E+00 0.  1.
          6    1    1    2  501    0  0.13862434631E+03  0.46680103013E+02  0.18090170383E+03  0.28991406978E+03  0.17300000000E+03 0.  1.
         -6    1    1    2    0  502 -0.13862434631E+03 -0.46680103013E+02  0.59561216890E+03  0.63724296556E+03  0.17300000000E+03 0.  1.
</event>
<event>
 4    1  0.6017350E+000  0.1000000E+03  0.7546771E-02  0.1280296E+00
         21   -1    0    0  503  502  0.00000000000E+00  0.00000000000E+00  0.32217289067E+03  0.32217289067E+03  0.00000000000E+00 0.  1.
         21   -1    0    0  501  503 -0.00000000000E+00 -0.00000000000E+00 -0.15428647755E+03  0.15428647755E+03  0.00000000000E+00 0.  1.
          6    1    1    2  501    0 -0.40352589849E+02 -0.13277846558E+03  0.59589399580E+02  0.22964831585E+03  0.17300000000E+03 0.  1.
         -6    1    1    2    0  502  0.40352589849E+02  0.13277846558E+03  0.10829701354E+03  0.24681105237E+03  0.17300000000E+03 0.  1.
</event>
<event>
 4    1  0.6017350E+000  0.1000000E+03  0.7546771E-02  0.1280296E+00
         21   -1    0    0  503  502  0.00000000000E+00  0.00000000000E+00  0.78991101723E+02  0.78991101723E+02  0.00000000000E+00 0. -1.
         21   -1    0    0  501  503 -0.00000000000E+00 -0.00000000000E+00 -0.85635275508E+03  0.85635275508E+03  0.00000000000E+00 0. -1.
          6    1    1    2  501    0  0.10703564745E+03  0.14694205703E+02 -0.67886174808E+03  0.70884047748E+03  0.17300000000E+03 0. -1.
         -6    1    1    2    0  502 -0.10703564745E+03 -0.14694205703E+02 -0.98499905275E+02  0.22650337932E+03  0.17300000000E+03 0. -1.
</event>
<event>
 4    1  0.6017350E+000  0.1000000E+03  0.7546771E-02  0.1280296E+00
         21   -1    0    0  503  502  0.00000000000E+00  0.00000000000E+00  0.69814035941E+03  0.69814035941E+03  0.00000000000E+00 0. -1.
         21   -1    0    0  501  503 -0.00000000000E+00 -0.00000000000E+00 -0.19283715167E+03  0.19283715167E+03  0.00000000000E+00 0. -1.
          6    1    1    2  501    0  0.10147683025E+03  0.96119249113E+02 -0.10166605379E+03  0.24454333689E+03  0.17300000000E+03 0. -1.
         -6    1    1    2    0  502 -0.10147683025E+03 -0.96119249113E+02  0.60696926152E+03  0.64643417419E+03  0.17300000000E+03 0. -1.
</event>
<event>
 4    1  0.6017350E+000  0.1000000E+03  0.7546771E-02  0.1280296E+00
         21   -1    0    0  503  502  0.00000000000E+00  0.00000000000E+00  0.13651882954E+03  0.13651882954E+03  0.00000000000E+00 0.  1.
         21   -1    0    0  501  503 -0.00000000000E+00 -0.00000000000E+00 -0.50877607470E+03  0.50877607470E+03  0.00000000000E+00 0. -1.
          6    1    1    2  501    0 -0.74728287016E+02  0.80319447659E+02 -0.38912091993E+03  0.43974949787E+03  0.17300000000E+03 0. -1.
         -6    1    1    2    0  502  0.74728287016E+02 -0.80319447659E+02  0.16863674771E+02  0.20554540637E+03  0.17300000000E+03 0.  1.
</event>
<event>
 4    1  0.6017350E+000  0.1000000E+03  0.7546771E-02  0.1280296E+00
         21   -1    0    0  503  502  0.00000000000E+00  0.00000000000E+00  0.15369346528E+03  0.15369346528E+03  0.00000000000E+00 0.  1.
         21   -1    0    0  501  503 -0.00000000000E+00 -0.00000000000E+00 -0.40011854788E+03  0.40011854788E+03  0.00000000000E+00 0. -1.
          6    1    1    2  501    0 -0.77249670805E+01 -0.93752617791E+02 -0.29151460156E+03  0.35179396155E+03  0.17300000000E+03 0. -1.
         -6    1    1    2    0  502  0.77249670805E+01  0.93752617791E+02  0.45089518960E+02  0.20201805162E+03  0.17300000000E+03 0.  1.
</event>
<event>
 4    1  0.6017350E+000  0.1000000E+03  0.7546771E-02  0.1280296E+00
         21   -1    0    0  503  502  0.00000000000E+00  0.00000000000E+00  0.15329048371E+03  0.15329048371E+03  0.00000000000E+00 0.  1.
         21   -1    0    0  501  503 -0.00000000000E+00 -0.00000000000E+00 -0.64532400913E+03  0.64532400913E+03  0.00000000000E+00 0.  1.
          6    1    1    2  501    0 -0.66163727909E+02 -0.23239735032E+03 -0.37677051044E+03  0.47986579880E+03  0.17300000000E+03 0. -1.
         -6    1    1    2    0  502  0.66163727909E+02  0.23239735032E+03 -0.11526301498E+03  0.31874869404E+03  0.17300000000E+03 0. -1.
</event>
<event>
 4    1  0.6017350E+000  0.1000000E+03  0.7546771E-02  0.1280296E+00
         21   -1    0    0  501  502  0.00000000000E+00  0.00000000000E+00  0.35181295250E+03  0.35181295250E+03  0.00000000000E+00 0. -1.
         21   -1    0    0  502  503 -0.00000000000E+00 -0.00000000000E+00 -0.49518014695E+03  0.49518014695E+03  0.00000000000E+00 0.  1.
          6    1    1    2  501    0  0.37778151484E+03 -0.33656968427E+02 -0.92726697052E+02  0.42705843256E+03  0.17300000000E+03 0. -1.
         -6    1    1    2    0  503 -0.37778151484E+03  0.33656968427E+02 -0.50640497396E+02  0.41993466689E+03  0.17300000000E+03 0.  1.
</event>
<event>
 4    1  0.6017350E+000  0.1000000E+03  0.7546771E-02  0.1280296E+00
         21   -1    0    0  501  502  0.00000000000E+00  0.00000000000E+00  0.18371647544E+04  0.18371647544E+04  0.00000000000E+00 0.  1.
         21   -1    0    0  502  503 -0.00000000000E+00 -0.00000000000E+00 -0.23079339671E+02  0.23079339671E+02  0.00000000000E+00 0.  1.
          6    1    1    2  501    0  0.20009230191E+02 -0.72680121002E+02  0.12792201677E+04  0.12930645795E+04  0.17300000000E+03 0. -1.
         -6    1    1    2    0  503 -0.20009230191E+02  0.72680121002E+02  0.53486524706E+03  0.56717951461E+03  0.17300000000E+03 0. -1.
</event>
<event>
 4    1  0.6017350E+000  0.1000000E+03  0.7546771E-02  0.1280296E+00
         21   -1    0    0  501  502  0.00000000000E+00  0.00000000000E+00  0.82647425920E+02  0.82647425920E+02  0.00000000000E+00 0. -1.
         21   -1    0    0  502  503 -0.00000000000E+00 -0.00000000000E+00 -0.14495536407E+04  0.14495536407E+04  0.00000000000E+00 0.  1.
          6    1    1    2  501    0  0.14073999928E+02 -0.73403430888E+02 -0.40863686670E+02  0.19283407901E+03  0.17300000000E+03 0. -1.
         -6    1    1    2    0  503 -0.14073999928E+02  0.73403430888E+02 -0.13260425281E+04  0.13393669876E+04  0.17300000000E+03 0. -1.
</event>
<event>
 4    1  0.6017350E+000  0.1000000E+03  0.7546771E-02  0.1280296E+00
         21   -1    0    0  501  502  0.00000000000E+00  0.00000000000E+00  0.15298185469E+03  0.15298185469E+03  0.00000000000E+00 0.  1.
         21   -1    0    0  502  503 -0.00000000000E+00 -0.00000000000E+00 -0.47003543531E+03  0.47003543531E+03  0.00000000000E+00 0.  1.
          6    1    1    2  501    0  0.77188162286E+02  0.25719437359E+02  0.59912666862E+02  0.20034477659E+03  0.17300000000E+03 0.  1.
         -6    1    1    2    0  503 -0.77188162286E+02 -0.25719437359E+02 -0.37696624748E+03  0.42267251341E+03  0.17300000000E+03 0.  1.
</event>
<event>
 4    1  0.6017350E+000  0.1000000E+03  0.7546771E-02  0.1280296E+00
         21   -1    0    0  501  502  0.00000000000E+00  0.00000000000E+00  0.24754289002E+03  0.24754289002E+03  0.00000000000E+00 0. -1.
         21   -1    0    0  502  503 -0.00000000000E+00 -0.00000000000E+00 -0.13882606613E+03  0.13882606613E+03  0.00000000000E+00 0. -1.
          6    1    1    2  501    0  0.49032266689E+02  0.25853669325E+02  0.15873398060E+02  0.18235553230E+03  0.17300000000E+03 0. -1.
         -6    1    1    2    0  503 -0.49032266689E+02 -0.25853669325E+02  0.92843425827E+02  0.20401342386E+03  0.17300000000E+03 0. -1.
</event>
<event>
 4    1  0.6017350E+000  0.1000000E+03  0.7546771E-02  0.1280296E+00
         21   -1    0    0  501  502  0.00000000000E+00  0.00000000000E+00  0.21757208739E+04  0.21757208739E+04  0.00000000000E+00 0. -1.
         21   -1    0    0  502  503 -0.00000000000E+00 -0.00000000000E+00 -0.21742820251E+02  0.21742820251E+02  0.00000000000E+00 0. -1.
          6    1    1    2  501    0  0.81602062661E+02 -0.30388147023E+02  0.15769473240E+04  0.15887964624E+04  0.17300000000E+03 0. -1.
         -6    1    1    2    0  503 -0.81602062661E+02  0.30388147023E+02  0.57703072968E+03  0.60866723183E+03  0.17300000000E+03 0. -1.
</event>
<event>
 4    1  0.6017350E+000  0.1000000E+03  0.7546771E-02  0.1280296E+00
         21   -1    0    0  503  502  0.00000000000E+00  0.00000000000E+00  0.31121955003E+03  0.31121955003E+03  0.00000000000E+00 0.  1.
         21   -1    0    0  501  503 -0.00000000000E+00 -0.00000000000E+00 -0.13778678111E+03  0.13778678111E+03  0.00000000000E+00 0.  1.
          6    1    1    2  501    0  0.63885482073E+02  0.28330132473E+01 -0.15351551443E+02  0.18507849933E+03  0.17300000000E+03 0.  1.
         -6    1    1    2    0  502 -0.63885482073E+02 -0.28330132473E+01  0.18878432036E+03  0.26392783180E+03  0.17300000000E+03 0.  1.
</event>
<event>
 4    1  0.6017350E+000  0.1000000E+03  0.7546771E-02  0.1280296E+00
         21   -1    0    0  503  502  0.00000000000E+00  0.00000000000E+00  0.12376835994E+03  0.12376835994E+03  0.00000000000E+00 0.  1.
         21   -1    0    0  501  503 -0.00000000000E+00 -0.00000000000E+00 -0.25624514582E+03  0.25624514582E+03  0.00000000000E+00 0.  1.
          6    1    1    2  501    0  0.31046876699E+02 -0.28645654008E+02 -0.64906055261E+02  0.18954228567E+03  0.17300000000E+03 0.  1.
         -6    1    1    2    0  502 -0.31046876699E+02  0.28645654008E+02 -0.67570730626E+02  0.19047122009E+03  0.17300000000E+03 0.  1.
</event>
<event>
 4    1  0.6017350E+000  0.1000000E+03  0.7546771E-02  0.1280296E+00
         21   -1    0    0  501  502  0.00000000000E+00  0.00000000000E+00  0.90084537139E+02  0.90084537139E+02  0.00000000000E+00 0. -1.
         21   -1    0    0  502  503 -0.00000000000E+00 -0.00000000000E+00 -0.60141214562E+03  0.60141214562E+03  0.00000000000E+00 0. -1.
          6    1    1    2  501    0 -0.92141844506E+01 -0.27991363129E+02 -0.28533052108E+02  0.17779637979E+03  0.17300000000E+03 0. -1.
         -6    1    1    2    0  503  0.92141844506E+01  0.27991363129E+02 -0.48279455637E+03  0.51370030297E+03  0.17300000000E+03 0. -1.
</event>
<event>
 4    1  0.6017350E+000  0.1000000E+03  0.7546771E-02  0.1280296E+00
         21   -1    0    0  503  502  0.00000000000E+00  0.00000000000E+00  0.19468528035E+03  0.19468528035E+03  0.00000000000E+00 0. -1.
         21   -1    0    0  501  503 -0.00000000000E+00 -0.00000000000E+00 -0.53314445923E+03  0.53314445923E+03  0.00000000000E+00 0. -1.
          6    1    1    2  501    0  0.27042422851E+03  0.14545281280E+02 -0.14333447778E+03  0.35187299000E+03  0.17300000000E+03 0. -1.
         -6    1    1    2    0  502 -0.27042422851E+03 -0.14545281280E+02 -0.19512470110E+03  0.37595674958E+03  0.17300000000E+03 0. -1.
</event>
<event>
 4    1  0.6017350E+000  0.1000000E+03  0.7546771E-02  0.1280296E+00
         21   -1    0    0  503  502  0.00000000000E+00  0.00000000000E+00  0.12819897184E+04  0.12819897184E+04  0.00000000000E+00 0. -1.
         21   -1    0    0  501  503 -0.00000000000E+00 -0.00000000000E+00 -0.88203990308E+02  0.88203990308E+02  0.00000000000E+00 0. -1.
          6    1    1    2  501    0  0.13252503534E+03  0.44940187851E+02  0.83233790383E+02  0.23756971469E+03  0.17300000000E+03 0. -1.
         -6    1    1    2    0  502 -0.13252503534E+03 -0.44940187851E+02  0.11105519377E+04  0.11326239940E+04  0.17300000000E+03 0. -1.
</event>
<event>
 4    1  0.6017350E+000  0.1000000E+03  0.7546771E-02  0.1280296E+00
         21   -1    0    0  503  502  0.00000000000E+00  0.00000000000E+00  0.13086728253E+03  0.13086728253E+03  0.00000000000E+00 0.  1.
         21   -1    0    0  501  503 -0.00000000000E+00 -0.00000000000E+00 -0.28476845409E+03  0.28476845409E+03  0.00000000000E+00 0.  1.
          6    1    1    2  501    0  0.16179307219E+02 -0.72595473066E+02 -0.12269945915E+03  0.22475771392E+03  0.17300000000E+03 0.  1.
         -6    1    1    2    0  502 -0.16179307219E+02  0.72595473066E+02 -0.31201712414E+02  0.19087802270E+03  0.17300000000E+03 0.  1.
</event>
<event>
 4    1  0.6017350E+000  0.1000000E+03  0.7546771E-02  0.1280296E+00
         21   -1    0    0  503  502  0.00000000000E+00  0.00000000000E+00  0.73354665309E+03  0.73354665309E+03  0.00000000000E+00 0.  1.
         21   -1    0    0  501  503 -0.00000000000E+00 -0.00000000000E+00 -0.17758699498E+03  0.17758699498E+03  0.00000000000E+00 0.  1.
          6    1    1    2  501    0 -0.41619533990E+02  0.94085763936E+02 -0.10016837041E+03  0.22482664214E+03  0.17300000000E+03 0.  1.
         -6    1    1    2    0  502  0.41619533990E+02 -0.94085763936E+02  0.65612802851E+03  0.68630700593E+03  0.17300000000E+03 0.  1.
</event>
<event>
 4    1  0.6017350E+000  0.1000000E+03  0.7546771E-02  0.1280296E+00
         21   -1    0    0  501  502  0.00000000000E+00  0.00000000000E+00  0.30786316808E+03  0.30786316808E+03  0.00000000000E+00 0. -1.
         21   -1    0    0  502  503 -0.00000000000E+00 -0.00000000000E+00 -0.45245243893E+03  0.45245243893E+03  0.00000000000E+00 0.  1.
          6    1    1    2  501    0  0.21802657656E+03  0.91695256716E+02  0.16313108275E+03  0.33538687862E+03  0.17300000000E+03 0.  1.
         -6    1    1    2    0  503 -0.21802657656E+03 -0.91695256716E+02 -0.30772035360E+03  0.42492872839E+03  0.17300000000E+03 0. -1.
</event>
<event>
 4    1  0.6017350E+000  0.1000000E+03  0.7546771E-02  0.1280296E+00
         21   -1    0    0  501  502  0.00000000000E+00  0.00000000000E+00  0.34321233097E+02  0.34321233097E+02  0.00000000000E+00 0.  1.
         21   -1    0    0  502  503 -0.00000000000E+00 -0.00000000000E+00 -0.93834329507E+03  0.93834329507E+03  0.00000000000E+00 0.  1.
          6    1    1    2  501    0 -0.21603455483E+02  0.42447032565E+02 -0.44452086135E+03  0.47937068750E+03  0.17300000000E+03 0.  1.
         -6    1    1    2    0  503  0.21603455483E+02 -0.42447032565E+02 -0.45950120063E+03  0.49329384067E+03  0.17300000000E+03 0.  1.
</event>
<event>
 4    1  0.6017350E+000  0.1000000E+03  0.7546771E-02  0.1280296E+00
         21   -1    0    0  501  502  0.00000000000E+00  0.00000000000E+00  0.10647031484E+04  0.10647031484E+04  0.00000000000E+00 0.  1.
         21   -1    0    0  502  503 -0.00000000000E+00 -0.00000000000E+00 -0.46330001367E+02  0.46330001367E+02  0.00000000000E+00 0.  1.
          6    1    1    2  501    0  0.26884488624E+02 -0.35573174694E+02  0.83921919284E+03  0.85802452187E+03  0.17300000000E+03 0.  1.
         -6    1    1    2    0  503 -0.26884488624E+02  0.35573174694E+02  0.17915395416E+03  0.25300862787E+03  0.17300000000E+03 0.  1.
</event>
<event>
 4    1  0.6017350E+000  0.1000000E+03  0.7546771E-02  0.1280296E+00
         21   -1    0    0  501  502  0.00000000000E+00  0.00000000000E+00  0.36613337807E+03  0.36613337807E+03  0.00000000000E+00 0.  1.
         21   -1    0    0  502  503 -0.00000000000E+00 -0.00000000000E+00 -0.16263121122E+03  0.16263121122E+03  0.00000000000E+00 0.  1.
          6    1    1    2  501    0 -0.14174200964E+03 -0.23746453715E+02  0.20431381131E+03  0.30385494048E+03  0.17300000000E+03 0.  1.
         -6    1    1    2    0  503  0.14174200964E+03  0.23746453715E+02 -0.81164446961E+00  0.22490964881E+03  0.17300000000E+03 0.  1.
</event>
<event>
 4    1  0.6017350E+000  0.1000000E+03  0.7546771E-02  0.1280296E+00
         21   -1    0    0  501  502  0.00000000000E+00  0.00000000000E+00  0.40216271988E+03  0.40216271988E+03  0.00000000000E+00 0.  1.
         21   -1    0    0  502  503 -0.00000000000E+00 -0.00000000000E+00 -0.11605591626E+03  0.11605591626E+03  0.00000000000E+00 0.  1.
          6    1    1    2  501    0  0.34485226115E+02  0.40816450634E+02  0.28440030903E+03  0.33714648039E+03  0.17300000000E+03 0.  1.
         -6    1    1    2    0  503 -0.34485226115E+02 -0.40816450634E+02  0.17064945922E+01  0.18107215575E+03  0.17300000000E+03 0.  1.
</event>
<event>
 4    1  0.6017350E+000  0.1000000E+03  0.7546771E-02  0.1280296E+00
         21   -1    0    0  501  502  0.00000000000E+00  0.00000000000E+00  0.17407023162E+03  0.17407023162E+03  0.00000000000E+00 0.  1.
         21   -1    0    0  502  503 -0.00000000000E+00 -0.00000000000E+00 -0.58926681463E+03  0.58926681463E+03  0.00000000000E+00 0.  1.
          6    1    1    2  501    0 -0.21718853604E+03  0.15004120315E+03 -0.14274523852E+03  0.34639345541E+03  0.17300000000E+03 0.  1.
         -6    1    1    2    0  503  0.21718853604E+03 -0.15004120315E+03 -0.27245134450E+03  0.41694359085E+03  0.17300000000E+03 0.  1.
</event>
<event>
 4    1  0.6017350E+000  0.1000000E+03  0.7546771E-02  0.1280296E+00
         21   -1    0    0  501  502  0.00000000000E+00  0.00000000000E+00  0.14385630603E+03  0.14385630603E+03  0.00000000000E+00 0.  1.
         21   -1    0    0  502  503 -0.00000000000E+00 -0.00000000000E+00 -0.53477928058E+03  0.53477928058E+03  0.00000000000E+00 0.  1.
          6    1    1    2  501    0  0.90890779949E+02  0.15417155805E+02  0.44590484696E+02  0.20103764299E+03  0.17300000000E+03 0.  1.
         -6    1    1    2    0  503 -0.90890779949E+02 -0.15417155805E+02 -0.43551345924E+03  0.47759794362E+03  0.17300000000E+03 0.  1.
</event>
<event>
 4    1  0.6017350E+000  0.1000000E+03  0.7546771E-02  0.1280296E+00
         21   -1    0    0  501  502  0.00000000000E+00  0.00000000000E+00  0.46594215506E+03  0.46594215506E+03  0.00000000000E+00 0.  1.
         21   -1    0    0  502  503 -0.00000000000E+00 -0.00000000000E+00 -0.88117725709E+02  0.88117725709E+02  0.00000000000E+00 0.  1.
          6    1    1    2  501    0  0.17774996124E+02  0.10169955549E+03  0.21855260884E+03  0.29724231345E+03  0.17300000000E+03 0.  1.
         -6    1    1    2    0  503 -0.17774996124E+02 -0.10169955549E+03  0.15927182051E+03  0.25681756732E+03  0.17300000000E+03 0.  1.
</event>
<event>
 4    1  0.6017350E+000  0.1000000E+03  0.7546771E-02  0.1280296E+00
         21   -1    0    0  501  502  0.00000000000E+00  0.00000000000E+00  0.66672372612E+03  0.66672372612E+03  0.00000000000E+00 0.  1.
         21   -1    0    0  502  503 -0.00000000000E+00 -0.00000000000E+00 -0.49490772265E+02  0.49490772265E+02  0.00000000000E+00 0.  1.
          6    1    1    2  501    0 -0.40016029776E+02  0.36807827728E+02  0.28779276600E+03  0.34016139549E+03  0.17300000000E+03 0.  1.
         -6    1    1    2    0  503  0.40016029776E+02 -0.36807827728E+02  0.32944018785E+03  0.37605310289E+03  0.17300000000E+03 0.  1.
</event>
<event>
 4    1  0.6017350E+000  0.1000000E+03  0.7546771E-02  0.1280296E+00
         21   -1    0    0  501  502  0.00000000000E+00  0.00000000000E+00  0.53962745170E+03  0.53962745170E+03  0.00000000000E+00 0.  1.
         21   -1    0    0  502  503 -0.00000000000E+00 -0.00000000000E+00 -0.15484583153E+03  0.15484583153E+03  0.00000000000E+00 0.  1.
          6    1    1    2  501    0 -0.34315861791E+02  0.10802356325E+03  0.43497944299E+03  0.48164591186E+03  0.17300000000E+03 0.  1.
         -6    1    1    2    0  503  0.34315861791E+02 -0.10802356325E+03 -0.50197822816E+02  0.21282737137E+03  0.17300000000E+03 0.  1.
</event>
<event>
 4    1  0.6017350E+000  0.1000000E+03  0.7546771E-02  0.1280296E+00
         21   -1    0    0  501  502  0.00000000000E+00  0.00000000000E+00  0.12145715526E+03  0.12145715526E+03  0.00000000000E+00 0. -1.
         21   -1    0    0  502  503 -0.00000000000E+00 -0.00000000000E+00 -0.27237871000E+03  0.27237871000E+03  0.00000000000E+00 0. -1.
          6    1    1    2  501    0 -0.43083049062E+02 -0.99580567194E+01 -0.37987540294E+02  0.18255784077E+03  0.17300000000E+03 0. -1.
         -6    1    1    2    0  503  0.43083049062E+02  0.99580567194E+01 -0.11293401444E+03  0.21127802448E+03  0.17300000000E+03 0. -1.
</event>
<event>
 4    1  0.6017350E+000  0.1000000E+03  0.7546771E-02  0.1280296E+00
         21   -1    0    0  501  502  0.00000000000E+00  0.00000000000E+00  0.19391311308E+03  0.19391311308E+03  0.00000000000E+00 0.  1.
         21   -1    0    0  502  503 -0.00000000000E+00 -0.00000000000E+00 -0.23297443002E+03  0.23297443002E+03  0.00000000000E+00 0.  1.
          6    1    1    2  501    0  0.88971574079E+02 -0.79979620721E+02  0.11177839492E+02  0.21063386437E+03  0.17300000000E+03 0.  1.
         -6    1    1    2    0  503 -0.88971574079E+02  0.79979620721E+02 -0.50239156434E+02  0.21625367873E+03  0.17300000000E+03 0.  1.
</event>
<event>
 4    1  0.6017350E+000  0.1000000E+03  0.7546771E-02  0.1280296E+00
         21   -1    0    0  501  502  0.00000000000E+00  0.00000000000E+00  0.41845336954E+03  0.41845336954E+03  0.00000000000E+00 0.  1.
         21   -1    0    0  502  503 -0.00000000000E+00 -0.00000000000E+00 -0.72641169010E+02  0.72641169010E+02  0.00000000000E+00 0.  1.
          6    1    1    2  501    0  0.20397677415E+02  0.54251018375E+01  0.17957846286E+03  0.25024572183E+03  0.17300000000E+03 0.  1.
         -6    1    1    2    0  503 -0.20397677415E+02 -0.54251018375E+01  0.16623373768E+03  0.24084881672E+03  0.17300000000E+03 0.  1.
</event>
<event>
 4    1  0.6017350E+000  0.1000000E+03  0.7546771E-02  0.1280296E+00
         21   -1    0    0  501  502  0.00000000000E+00  0.00000000000E+00  0.14007421406E+04  0.14007421406E+04  0.00000000000E+00 0.  1.
         21   -1    0    0  502  503 -0.00000000000E+00 -0.00000000000E+00 -0.19333608851E+03  0.19333608851E+03  0.00000000000E+00 0.  1.
          6    1    1    2  501    0  0.59576600680E+01 -0.21905863729E+03  0.12763207963E+04  0.13065014181E+04  0.17300000000E+03 0.  1.
         -6    1    1    2    0  503 -0.59576600680E+01  0.21905863729E+03 -0.68914744222E+02  0.28757681106E+03  0.17300000000E+03 0.  1.
</event>
<event>
 4    1  0.6017350E+000  0.1000000E+03  0.7546771E-02  0.1280296E+00
         21   -1    0    0  503  502  0.00000000000E+00  0.00000000000E+00  0.10072621901E+03  0.10072621901E+03  0.00000000000E+00 0.  1.
         21   -1    0    0  501  503 -0.00000000000E+00 -0.00000000000E+00 -0.10360954924E+04  0.10360954924E+04  0.00000000000E+00 0. -1.
          6    1    1    2  501    0  0.49836585583E+02 -0.11516625015E+03 -0.89392892748E+03  0.91912179706E+03  0.17300000000E+03 0. -1.
         -6    1    1    2    0  502 -0.49836585583E+02  0.11516625015E+03 -0.41440345892E+02  0.21769991434E+03  0.17300000000E+03 0.  1.
</event>
<event>
 4    1  0.6017350E+000  0.1000000E+03  0.7546771E-02  0.1280296E+00
         21   -1    0    0  503  502  0.00000000000E+00  0.00000000000E+00  0.11964283226E+03  0.11964283226E+03  0.00000000000E+00 0.  1.
         21   -1    0    0  501  503 -0.00000000000E+00 -0.00000000000E+00 -0.12008511324E+04  0.12008511324E+04  0.00000000000E+00 0. -1.
          6    1    1    2  501    0 -0.16503962912E+03  0.90539328275E+02 -0.10280470280E+04  0.10593607228E+04  0.17300000000E+03 0. -1.
         -6    1    1    2    0  502  0.16503962912E+03 -0.90539328275E+02 -0.53161272081E+02  0.26113324184E+03  0.17300000000E+03 0.  1.
</event>
<event>
 4    1  0.6017350E+000  0.1000000E+03  0.7546771E-02  0.1280296E+00
         21   -1    0    0  503  502  0.00000000000E+00  0.00000000000E+00  0.27255200403E+03  0.27255200403E+03  0.00000000000E+00 0.  1.
         21   -1    0    0  501  503 -0.00000000000E+00 -0.00000000000E+00 -0.85386592284E+03  0.85386592284E+03  0.00000000000E+00 0. -1.
          6    1    1    2  501    0  0.29756891300E+03 -0.27302787325E+03 -0.52328301551E+03  0.68326099835E+03  0.17300000000E+03 0. -1.
         -6    1    1    2    0  502 -0.29756891300E+03  0.27302787325E+03 -0.58030903295E+02  0.44315692852E+03  0.17300000000E+03 0.  1.
</event>
<event>
 4    1  0.6017350E+000  0.1000000E+03  0.7546771E-02  0.1280296E+00
         21   -1    0    0  503  502  0.00000000000E+00  0.00000000000E+00  0.12357726035E+03  0.12357726035E+03  0.00000000000E+00 0.  1.
         21   -1    0    0  501  503 -0.00000000000E+00 -0.00000000000E+00 -0.32001939935E+03  0.32001939935E+03  0.00000000000E+00 0. -1.
          6    1    1    2  501    0  0.86391647227E+01  0.20240401876E+02  0.83714829235E+01  0.17459493338E+03  0.17300000000E+03 0. -1.
         -6    1    1    2    0  502 -0.86391647227E+01 -0.20240401876E+02 -0.20481362193E+03  0.26900172632E+03  0.17300000000E+03 0.  1.
</event>
<event>
 4    1  0.6017350E+000  0.1000000E+03  0.7546771E-02  0.1280296E+00
         21   -1    0    0  501  502  0.00000000000E+00  0.00000000000E+00  0.24436624293E+02  0.24436624293E+02  0.00000000000E+00 0. -1.
         21   -1    0    0  502  503 -0.00000000000E+00 -0.00000000000E+00 -0.21864544878E+04  0.21864544878E+04  0.00000000000E+00 0. -1.
          6    1    1    2  501    0  0.75430893924E+02  0.11541679370E+03 -0.76056229614E+03  0.79208261080E+03  0.17300000000E+03 0.  1.
         -6    1    1    2    0  503 -0.75430893924E+02 -0.11541679370E+03 -0.14014555673E+04  0.14188085012E+04  0.17300000000E+03 0.  1.
</event>
<event>
 4    1  0.6017350E+000  0.1000000E+03  0.7546771E-02  0.1280296E+00
         21   -1    0    0  503  502  0.00000000000E+00  0.00000000000E+00  0.13183444184E+03  0.13183444184E+03  0.00000000000E+00 0. -1.
         21   -1    0    0  501  503 -0.00000000000E+00 -0.00000000000E+00 -0.52003575077E+03  0.52003575077E+03  0.00000000000E+00 0.  1.
          6    1    1    2  501    0  0.18435221251E+03  0.50452724578E+02 -0.25112298655E+03  0.35989299805E+03  0.17300000000E+03 0.  1.
         -6    1    1    2    0  502 -0.18435221251E+03 -0.50452724578E+02 -0.13707832239E+03  0.29197719456E+03  0.17300000000E+03 0. -1.
</event>
<event>
 4    1  0.6017350E+000  0.1000000E+03  0.7546771E-02  0.1280296E+00
         21   -1    0    0  503  502  0.00000000000E+00  0.00000000000E+00  0.15999984129E+04  0.15999984129E+04  0.00000000000E+00 0. -1.
         21   -1    0    0  501  503 -0.00000000000E+00 -0.00000000000E+00 -0.20343393255E+03  0.20343393255E+03  0.00000000000E+00 0.  1.
          6    1    1    2  501    0  0.23539811463E+03  0.10705984061E+03 -0.57545479924E+02  0.31640885592E+03  0.17300000000E+03 0.  1.
         -6    1    1    2    0  502 -0.23539811463E+03 -0.10705984061E+03  0.14541099603E+04  0.14870234895E+04  0.17300000000E+03 0. -1.
</event>
<event>
 4    1  0.6017350E+000  0.1000000E+03  0.7546771E-02  0.1280296E+00
         21   -1    0    0  501  502  0.00000000000E+00  0.00000000000E+00  0.47271891656E+03  0.47271891656E+03  0.00000000000E+00 0. -1.
         21   -1    0    0  502  503 -0.00000000000E+00 -0.00000000000E+00 -0.16471178137E+03  0.16471178137E+03  0.00000000000E+00 0.  1.
          6    1    1    2  501    0 -0.12518291988E+03  0.12881493954E+03  0.29697993847E+03  0.38780167088E+03  0.17300000000E+03 0. -1.
         -6    1    1    2    0  503  0.12518291988E+03 -0.12881493954E+03  0.11027196707E+02  0.24962902705E+03  0.17300000000E+03 0.  1.
</event>
<event>
 4    1  0.6017350E+000  0.1000000E+03  0.7546771E-02  0.1280296E+00
         21   -1    0    0  503  502  0.00000000000E+00  0.00000000000E+00  0.19563737769E+03  0.19563737769E+03  0.00000000000E+00 0.  1.
         21   -1    0    0  501  503 -0.00000000000E+00 -0.00000000000E+00 -0.35685469569E+03  0.35685469569E+03  0.00000000000E+00 0.  1.
          6    1    1    2  501    0  0.79653208244E+02  0.89500078658E+02 -0.24766066823E+03  0.32499185259E+03  0.17300000000E+03 0.  1.
         -6    1    1    2    0  502 -0.79653208244E+02 -0.89500078658E+02  0.86443350223E+02  0.22750022079E+03  0.17300000000E+03 0.  1.
</event>
<event>
 4    1  0.6017350E+000  0.1000000E+03  0.7546771E-02  0.1280296E+00
         21   -1    0    0  503  502  0.00000000000E+00  0.00000000000E+00  0.52499749175E+03  0.52499749175E+03  0.00000000000E+00 0.  1.
         21   -1    0    0  501  503 -0.00000000000E+00 -0.00000000000E+00 -0.18371633605E+03  0.18371633605E+03  0.00000000000E+00 0.  1.
          6    1    1    2  501    0 -0.75865506603E+02  0.20222812128E+03  0.98037655450E+01  0.27690594422E+03  0.17300000000E+03 0.  1.
         -6    1    1    2    0  502  0.75865506603E+02 -0.20222812128E+03  0.33147739016E+03  0.43180788357E+03  0.17300000000E+03 0.  1.
</event>
<event>
 4    1  0.6017350E+000  0.1000000E+03  0.7546771E-02  0.1280296E+00
         21   -1    0    0  503  502  0.00000000000E+00  0.00000000000E+00  0.25963430681E+03  0.25963430681E+03  0.00000000000E+00 0.  1.
         21   -1    0    0  501  503 -0.00000000000E+00 -0.00000000000E+00 -0.41350934648E+03  0.41350934648E+03  0.00000000000E+00 0.  1.
          6    1    1    2  501    0  0.13282733972E+03 -0.23517457419E+03 -0.14570631825E+03  0.35229180192E+03  0.17300000000E+03 0.  1.
         -6    1    1    2    0  502 -0.13282733972E+03  0.23517457419E+03 -0.81687214155E+01  0.32085185138E+03  0.17300000000E+03 0.  1.
</event>
<event>
 4    1  0.6017350E+000  0.1000000E+03  0.7546771E-02  0.1280296E+00
         21   -1    0    0  503  502  0.00000000000E+00  0.00000000000E+00  0.62820953541E+02  0.62820953541E+02  0.00000000000E+00 0.  1.
         21   -1    0    0  501  503 -0.00000000000E+00 -0.00000000000E+00 -0.67219676950E+03  0.67219676950E+03  0.00000000000E+00 0.  1.
          6    1    1    2  501    0 -0.62494130659E+02 -0.52529646069E+02 -0.43892792725E+03  0.47880226127E+03  0.17300000000E+03 0.  1.
         -6    1    1    2    0  502  0.62494130659E+02  0.52529646069E+02 -0.17044788872E+03  0.25621546177E+03  0.17300000000E+03 0.  1.
</event>
<event>
 4    1  0.6017350E+000  0.1000000E+03  0.7546771E-02  0.1280296E+00
         21   -1    0    0  503  502  0.00000000000E+00  0.00000000000E+00  0.86251458656E+03  0.86251458656E+03  0.00000000000E+00 0. -1.
         21   -1    0    0  501  503 -0.00000000000E+00 -0.00000000000E+00 -0.23317955421E+03  0.23317955421E+03  0.00000000000E+00 0.  1.
          6    1    1    2  501    0  0.10240356708E+03  0.52838931267E+02 -0.17077775246E+03  0.26902134477E+03  0.17300000000E+03 0.  1.
         -6    1    1    2    0  502 -0.10240356708E+03 -0.52838931267E+02  0.80011278481E+03  0.82667279599E+03  0.17300000000E+03 0. -1.
</event>
<event>
 4    1  0.6017350E+000  0.1000000E+03  0.7546771E-02  0.1280296E+00
         21   -1    0    0  503  502  0.00000000000E+00  0.00000000000E+00  0.84942195980E+02  0.84942195980E+02  0.00000000000E+00 0.  1.
         21   -1    0    0  501  503 -0.00000000000E+00 -0.00000000000E+00 -0.85759225697E+03  0.85759225697E+03  0.00000000000E+00 0. -1.
          6    1    1    2  501    0  0.15504911548E+02 -0.40644696168E+02 -0.73998512806E+03  0.76118288430E+03  0.17300000000E+03 0. -1.
         -6    1    1    2    0  502 -0.15504911548E+02  0.40644696168E+02 -0.32664932936E+02  0.18135156865E+03  0.17300000000E+03 0.  1.
</event>
<event>
 4    1  0.6017350E+000  0.1000000E+03  0.7546771E-02  0.1280296E+00
         21   -1    0    0  503  502  0.00000000000E+00  0.00000000000E+00  0.16041180966E+03  0.16041180966E+03  0.00000000000E+00 0.  1.
         21   -1    0    0  501  503 -0.00000000000E+00 -0.00000000000E+00 -0.56132795023E+03  0.56132795023E+03  0.00000000000E+00 0. -1.
          6    1    1    2  501    0  0.19100716508E+02 -0.26261161041E+02 -0.49271942404E+03  0.52321689267E+03  0.17300000000E+03 0. -1.
         -6    1    1    2    0  502 -0.19100716508E+02  0.26261161041E+02  0.91803283480E+02  0.19852286722E+03  0.17300000000E+03 0.  1.
</event>
<event>
 4    1  0.6017350E+000  0.1000000E+03  0.7546771E-02  0.1280296E+00
         21   -1    0    0  503  502  0.00000000000E+00  0.00000000000E+00  0.13691511330E+03  0.13691511330E+03  0.00000000000E+00 0. -1.
         21   -1    0    0  501  503 -0.00000000000E+00 -0.00000000000E+00 -0.91760477118E+03  0.91760477118E+03  0.00000000000E+00 0.  1.
          6    1    1    2  501    0  0.10002977355E+03 -0.22478003532E+03 -0.66932645099E+03  0.73379760007E+03  0.17300000000E+03 0. -1.
         -6    1    1    2    0  502 -0.10002977355E+03  0.22478003532E+03 -0.11136320689E+03  0.32072228442E+03  0.17300000000E+03 0. -1.
</event>
<event>
 4    1  0.6017350E+000  0.1000000E+03  0.7546771E-02  0.1280296E+00
         21   -1    0    0  501  502  0.00000000000E+00  0.00000000000E+00  0.13604249062E+04  0.13604249062E+04  0.00000000000E+00 0.  1.
         21   -1    0    0  502  503 -0.00000000000E+00 -0.00000000000E+00 -0.12053305197E+03  0.12053305197E+03  0.00000000000E+00 0.  1.
          6    1    1    2  501    0  0.58855943769E+02 -0.11735905452E+03  0.12449205385E+04  0.12637220093E+04  0.17300000000E+03 0.  1.
         -6    1    1    2    0  503 -0.58855943769E+02  0.11735905452E+03 -0.50286842422E+01  0.21723594882E+03  0.17300000000E+03 0.  1.
</event>
<event>
 4    1  0.6017350E+000  0.1000000E+03  0.7546771E-02  0.1280296E+00
         21   -1    0    0  501  502  0.00000000000E+00  0.00000000000E+00  0.16948204536E+03  0.16948204536E+03  0.00000000000E+00 0. -1.
         21   -1    0    0  502  503 -0.00000000000E+00 -0.00000000000E+00 -0.25812275642E+03  0.25812275642E+03  0.00000000000E+00 0. -1.
          6    1    1    2  501    0 -0.19455917664E+02 -0.11575518422E+03 -0.37824950327E+02  0.21245593019E+03  0.17300000000E+03 0. -1.
         -6    1    1    2    0  503  0.19455917664E+02  0.11575518422E+03 -0.50815760735E+02  0.21514887159E+03  0.17300000000E+03 0. -1.
</event>
<event>
 4    1  0.6017350E+000  0.1000000E+03  0.7546771E-02  0.1280296E+00
         21   -1    0    0  501  502  0.00000000000E+00  0.00000000000E+00  0.57787971508E+02  0.57787971508E+02  0.00000000000E+00 0. -1.
         21   -1    0    0  502  503 -0.00000000000E+00 -0.00000000000E+00 -0.14843793407E+04  0.14843793407E+04  0.00000000000E+00 0. -1.
          6    1    1    2  501    0  0.23414398747E+03 -0.24957032186E+02 -0.66037727684E+03  0.72213115713E+03  0.17300000000E+03 0. -1.
         -6    1    1    2    0  503 -0.23414398747E+03  0.24957032186E+02 -0.76621409236E+03  0.82003615509E+03  0.17300000000E+03 0. -1.
</event>
<event>
 4    1  0.6017350E+000  0.1000000E+03  0.7546771E-02  0.1280296E+00
         21   -1    0    0  501  502  0.00000000000E+00  0.00000000000E+00  0.26725430041E+03  0.26725430041E+03  0.00000000000E+00 0.  1.
         21   -1    0    0  502  503 -0.00000000000E+00 -0.00000000000E+00 -0.12637984388E+03  0.12637984388E+03  0.00000000000E+00 0. -1.
          6    1    1    2  501    0  0.69419054150E+01  0.60807691742E+02  0.59685628027E+02  0.19296927118E+03  0.17300000000E+03 0. -1.
         -6    1    1    2    0  503 -0.69419054150E+01 -0.60807691742E+02  0.81188828507E+02  0.20066487311E+03  0.17300000000E+03 0. -1.
</event>
<event>
 4    1  0.6017350E+000  0.1000000E+03  0.7546771E-02  0.1280296E+00
         21   -1    0    0  501  502  0.00000000000E+00  0.00000000000E+00  0.24422468713E+03  0.24422468713E+03  0.00000000000E+00 0. -1.
         21   -1    0    0  502  503 -0.00000000000E+00 -0.00000000000E+00 -0.13677668292E+03  0.13677668292E+03  0.00000000000E+00 0. -1.
          6    1    1    2  501    0  0.43696278594E+02  0.21427231061E+02  0.88399348332E+02  0.20027964395E+03  0.17300000000E+03 0.  1.
         -6    1    1    2    0  503 -0.43696278594E+02 -0.21427231061E+02  0.19048655874E+02  0.18072172610E+03  0.17300000000E+03 0.  1.
</event>
<event>
 4    1  0.6017350E+000  0.1000000E+03  0.7546771E-02  0.1280296E+00
         21   -1    0    0  501  502  0.00000000000E+00  0.00000000000E+00  0.41905684085E+03  0.41905684085E+03  0.00000000000E+00 0. -1.
         21   -1    0    0  502  503 -0.00000000000E+00 -0.00000000000E+00 -0.17505163524E+03  0.17505163524E+03  0.00000000000E+00 0. -1.
          6    1    1    2  501    0  0.26176003108E+02 -0.85212755256E+02  0.32859544884E+03  0.38190360799E+03  0.17300000000E+03 0.  1.
         -6    1    1    2    0  503 -0.26176003108E+02  0.85212755256E+02 -0.84590243228E+02  0.21220486810E+03  0.17300000000E+03 0.  1.
</event>
<event>
 4    1  0.6017350E+000  0.1000000E+03  0.7546771E-02  0.1280296E+00
         21   -1    0    0  501  502  0.00000000000E+00  0.00000000000E+00  0.20912733957E+04  0.20912733957E+04  0.00000000000E+00 0. -1.
         21   -1    0    0  502  503 -0.00000000000E+00 -0.00000000000E+00 -0.27542989866E+02  0.27542989866E+02  0.00000000000E+00 0. -1.
          6    1    1    2  501    0 -0.15590754248E+03  0.50384950194E+02  0.11586625393E+04  0.11829089926E+04  0.17300000000E+03 0. -1.
         -6    1    1    2    0  503  0.15590754248E+03 -0.50384950194E+02  0.90506786658E+03  0.93590739292E+03  0.17300000000E+03 0. -1.
</event>
<event>
 4    1  0.6017350E+000  0.1000000E+03  0.7546771E-02  0.1280296E+00
         21   -1    0    0  501  502  0.00000000000E+00  0.00000000000E+00  0.71354943594E+03  0.71354943594E+03  0.00000000000E+00 0. -1.
         21   -1    0    0  502  503 -0.00000000000E+00 -0.00000000000E+00 -0.87709859579E+02  0.87709859579E+02  0.00000000000E+00 0. -1.
          6    1    1    2  501    0  0.13638672225E+03 -0.11367748434E+03  0.25902966857E+03  0.35853769349E+03  0.17300000000E+03 0. -1.
         -6    1    1    2    0  503 -0.13638672225E+03  0.11367748434E+03  0.36680990779E+03  0.44272160203E+03  0.17300000000E+03 0. -1.
</event>
<event>
 4    1  0.6017350E+000  0.1000000E+03  0.7546771E-02  0.1280296E+00
         21   -1    0    0  501  502  0.00000000000E+00  0.00000000000E+00  0.54878438125E+03  0.54878438125E+03  0.00000000000E+00 0. -1.
         21   -1    0    0  502  503 -0.00000000000E+00 -0.00000000000E+00 -0.15876123080E+03  0.15876123080E+03  0.00000000000E+00 0. -1.
          6    1    1    2  501    0 -0.70863858457E+02 -0.77996284654E+02  0.45232481326E+03  0.49561259422E+03  0.17300000000E+03 0. -1.
         -6    1    1    2    0  503  0.70863858457E+02  0.77996284654E+02 -0.62301662817E+02  0.21193301783E+03  0.17300000000E+03 0. -1.
</event>
<event>
 4    1  0.6017350E+000  0.1000000E+03  0.7546771E-02  0.1280296E+00
         21   -1    0    0  501  502  0.00000000000E+00  0.00000000000E+00  0.61136512595E+03  0.61136512595E+03  0.00000000000E+00 0. -1.
         21   -1    0    0  502  503 -0.00000000000E+00 -0.00000000000E+00 -0.76186175106E+02  0.76186175106E+02  0.00000000000E+00 0. -1.
          6    1    1    2  501    0 -0.37893608162E+02 -0.10315959818E+03  0.37528063783E+03  0.42760073125E+03  0.17300000000E+03 0. -1.
         -6    1    1    2    0  503  0.37893608162E+02  0.10315959818E+03  0.15989831301E+03  0.25995056980E+03  0.17300000000E+03 0. -1.
</event>
<event>
 4    1  0.6017350E+000  0.1000000E+03  0.7546771E-02  0.1280296E+00
         21   -1    0    0  501  502  0.00000000000E+00  0.00000000000E+00  0.10315847834E+04  0.10315847834E+04  0.00000000000E+00 0. -1.
         21   -1    0    0  502  503 -0.00000000000E+00 -0.00000000000E+00 -0.50697260411E+02  0.50697260411E+02  0.00000000000E+00 0. -1.
          6    1    1    2  501    0 -0.89308478154E+01  0.51578356389E+02  0.82197133378E+03  0.84160914945E+03  0.17300000000E+03 0. -1.
         -6    1    1    2    0  503  0.89308478154E+01 -0.51578356389E+02  0.15891618924E+03  0.24067289439E+03  0.17300000000E+03 0. -1.
</event>
<event>
 4    1  0.6017350E+000  0.1000000E+03  0.7546771E-02  0.1280296E+00
         21   -1    0    0  501  502  0.00000000000E+00  0.00000000000E+00  0.95782751501E+02  0.95782751501E+02  0.00000000000E+00 0. -1.
         21   -1    0    0  502  503 -0.00000000000E+00 -0.00000000000E+00 -0.48019390200E+03  0.48019390200E+03  0.00000000000E+00 0. -1.
          6    1    1    2  501    0  0.58330884448E+02 -0.47868790325E+02 -0.55451214521E+02  0.19671743786E+03  0.17300000000E+03 0. -1.
         -6    1    1    2    0  503 -0.58330884448E+02  0.47868790325E+02 -0.32895993598E+03  0.37925921564E+03  0.17300000000E+03 0. -1.
</event>
<event>
 4    1  0.6017350E+000  0.1000000E+03  0.7546771E-02  0.1280296E+00
         21   -1    0    0  501  502  0.00000000000E+00  0.00000000000E+00  0.49280359790E+02  0.49280359790E+02  0.00000000000E+00 0.  1.
         21   -1    0    0  502  503 -0.00000000000E+00 -0.00000000000E+00 -0.18958002991E+04  0.18958002991E+04  0.00000000000E+00 0. -1.
          6    1    1    2  501    0 -0.16415430113E+03 -0.49526466415E+02 -0.33572482834E+03  0.41477664570E+03  0.17300000000E+03 0.  1.
         -6    1    1    2    0  503  0.16415430113E+03  0.49526466415E+02 -0.15107951109E+04  0.15303040131E+04  0.17300000000E+03 0. -1.
</event>
<event>
 4    1  0.6017350E+000  0.1000000E+03  0.7546771E-02  0.1280296E+00
         21   -1    0    0  501  502  0.00000000000E+00  0.00000000000E+00  0.12804063297E+04  0.12804063297E+04  0.00000000000E+00 0.  1.
         21   -1    0    0  502  503 -0.00000000000E+00 -0.00000000000E+00 -0.73116280230E+02  0.73116280230E+02  0.00000000000E+00 0. -1.
          6    1    1    2  501    0 -0.38593524291E+02  0.70462548787E+02  0.11328036220E+04  0.11487503980E+04  0.17300000000E+03 0.  1.
         -6    1    1    2    0  503  0.38593524291E+02 -0.70462548787E+02  0.74486427466E+02  0.20477221192E+03  0.17300000000E+03 0. -1.
</event>
<event>
 4    1  0.6017350E+000  0.1000000E+03  0.7546771E-02  0.1280296E+00
         21   -1    0    0  501  502  0.00000000000E+00  0.00000000000E+00  0.70409156353E+02  0.70409156353E+02  0.00000000000E+00 0. -1.
         21   -1    0    0  502  503 -0.00000000000E+00 -0.00000000000E+00 -0.78525295773E+03  0.78525295773E+03  0.00000000000E+00 0. -1.
          6    1    1    2  501    0 -0.44352385526E+02  0.43529855203E+02 -0.90642595847E+02  0.20495624552E+03  0.17300000000E+03 0. -1.
         -6    1    1    2    0  503  0.44352385526E+02 -0.43529855203E+02 -0.62420120553E+03  0.65070586856E+03  0.17300000000E+03 0. -1.
</event>
<event>
 4    1  0.6017350E+000  0.1000000E+03  0.7546771E-02  0.1280296E+00
         21   -1    0    0  501  502  0.00000000000E+00  0.00000000000E+00  0.31107792422E+02  0.31107792422E+02  0.00000000000E+00 0. -1.
         21   -1    0    0  502  503 -0.00000000000E+00 -0.00000000000E+00 -0.22340961074E+04  0.22340961074E+04  0.00000000000E+00 0. -1.
          6    1    1    2  501    0 -0.50869931867E+02  0.17077918340E+02 -0.27856576889E+03  0.33227592880E+03  0.17300000000E+03 0. -1.
         -6    1    1    2    0  503  0.50869931867E+02 -0.17077918340E+02 -0.19244225461E+04  0.19329279710E+04  0.17300000000E+03 0. -1.
</event>
<event>
 4    1  0.6017350E+000  0.1000000E+03  0.7546771E-02  0.1280296E+00
         21   -1    0    0  501  502  0.00000000000E+00  0.00000000000E+00  0.11161673865E+03  0.11161673865E+03  0.00000000000E+00 0. -1.
         21   -1    0    0  502  503 -0.00000000000E+00 -0.00000000000E+00 -0.55209598782E+03  0.55209598782E+03  0.00000000000E+00 0. -1.
          6    1    1    2  501    0 -0.98048312703E+02  0.12646027033E+03 -0.32455124752E+03  0.40108376165E+03  0.17300000000E+03 0. -1.
         -6    1    1    2    0  503  0.98048312703E+02 -0.12646027033E+03 -0.11592800166E+03  0.26262896482E+03  0.17300000000E+03 0. -1.
</event>
<event>
 4    1  0.6017350E+000  0.1000000E+03  0.7546771E-02  0.1280296E+00
         21   -1    0    0  501  502  0.00000000000E+00  0.00000000000E+00  0.17845274382E+03  0.17845274382E+03  0.00000000000E+00 0.  1.
         21   -1    0    0  502  503 -0.00000000000E+00 -0.00000000000E+00 -0.64542254551E+03  0.64542254551E+03  0.00000000000E+00 0. -1.
          6    1    1    2  501    0  0.22373355764E+03 -0.15177997087E+03 -0.99666012470E+02  0.33608953928E+03  0.17300000000E+03 0. -1.
         -6    1    1    2    0  503 -0.22373355764E+03  0.15177997087E+03 -0.36730378922E+03  0.48778575005E+03  0.17300000000E+03 0.  1.
</event>
<event>
 4    1  0.6017350E+000  0.1000000E+03  0.7546771E-02  0.1280296E+00
         21   -1    0    0  501  502  0.00000000000E+00  0.00000000000E+00  0.13788789846E+03  0.13788789846E+03  0.00000000000E+00 0.  1.
         21   -1    0    0  502  503 -0.00000000000E+00 -0.00000000000E+00 -0.41369369299E+03  0.41369369299E+03  0.00000000000E+00 0.  1.
          6    1    1    2  501    0  0.13606034650E+03 -0.48721000734E+02 -0.22903229946E+03  0.32135797485E+03  0.17300000000E+03 0.  1.
         -6    1    1    2    0  503 -0.13606034650E+03  0.48721000734E+02 -0.46773495074E+02  0.23022361661E+03  0.17300000000E+03 0.  1.
</event>
<event>
 4    1  0.6017350E+000  0.1000000E+03  0.7546771E-02  0.1280296E+00
         21   -1    0    0  501  502  0.00000000000E+00  0.00000000000E+00  0.14534451895E+03  0.14534451895E+03  0.00000000000E+00 0.  1.
         21   -1    0    0  502  503 -0.00000000000E+00 -0.00000000000E+00 -0.44421761559E+03  0.44421761559E+03  0.00000000000E+00 0.  1.
          6    1    1    2  501    0 -0.10012885300E+03 -0.87926326269E+02  0.12841027730E+01  0.21837462072E+03  0.17300000000E+03 0.  1.
         -6    1    1    2    0  503  0.10012885300E+03  0.87926326269E+02 -0.30015719941E+03  0.37118751382E+03  0.17300000000E+03 0.  1.
</event>
<event>
 4    1  0.6017350E+000  0.1000000E+03  0.7546771E-02  0.1280296E+00
         21   -1    0    0  501  502  0.00000000000E+00  0.00000000000E+00  0.48931208515E+02  0.48931208515E+02  0.00000000000E+00 0. -1.
         21   -1    0    0  502  503 -0.00000000000E+00 -0.00000000000E+00 -0.65694350552E+03  0.65694350552E+03  0.00000000000E+00 0. -1.
          6    1    1    2  501    0  0.56368144410E+01  0.20019162168E+02 -0.38713984584E+03  0.42454540483E+03  0.17300000000E+03 0. -1.
         -6    1    1    2    0  503 -0.56368144410E+01 -0.20019162168E+02 -0.22087245117E+03  0.28132930920E+03  0.17300000000E+03 0. -1.
</event>
<event>
 4    1  0.6017350E+000  0.1000000E+03  0.7546771E-02  0.1280296E+00
         21   -1    0    0  501  502  0.00000000000E+00  0.00000000000E+00  0.31197888255E+03  0.31197888255E+03  0.00000000000E+00 0. -1.
         21   -1    0    0  502  503 -0.00000000000E+00 -0.00000000000E+00 -0.19276125727E+03  0.19276125727E+03  0.00000000000E+00 0. -1.
          6    1    1    2  501    0 -0.56233838614E+02 -0.61044828221E+02  0.21676341181E+03  0.28948936484E+03  0.17300000000E+03 0. -1.
         -6    1    1    2    0  503  0.56233838614E+02  0.61044828221E+02 -0.97545786527E+02  0.21525077497E+03  0.17300000000E+03 0. -1.
</event>
<event>
 4    1  0.6017350E+000  0.1000000E+03  0.7546771E-02  0.1280296E+00
         21   -1    0    0  501  502  0.00000000000E+00  0.00000000000E+00  0.58173905435E+03  0.58173905435E+03  0.00000000000E+00 0. -1.
         21   -1    0    0  502  503 -0.00000000000E+00 -0.00000000000E+00 -0.11744126737E+03  0.11744126737E+03  0.00000000000E+00 0. -1.
          6    1    1    2  501    0  0.15894315581E+03  0.55539712259E+02  0.36618725628E+03  0.43859969571E+03  0.17300000000E+03 0. -1.
         -6    1    1    2    0  503 -0.15894315581E+03 -0.55539712259E+02  0.98110530691E+02  0.26058062600E+03  0.17300000000E+03 0. -1.
</event>
<event>
 4    1  0.6017350E+000  0.1000000E+03  0.7546771E-02  0.1280296E+00
         21   -1    0    0  501  502  0.00000000000E+00  0.00000000000E+00  0.95840362110E+03  0.95840362110E+03  0.00000000000E+00 0.  1.
         21   -1    0    0  502  503 -0.00000000000E+00 -0.00000000000E+00 -0.13372013004E+03  0.13372013004E+03  0.00000000000E+00 0. -1.
          6    1    1    2  501    0  0.69715738930E+02  0.27303433363E+03  0.20308061392E+03  0.38804480070E+03  0.17300000000E+03 0.  1.
         -6    1    1    2    0  503 -0.69715738930E+02 -0.27303433363E+03  0.62160287713E+03  0.70407895044E+03  0.17300000000E+03 0. -1.
</event>
<event>
 4    1  0.6017350E+000  0.1000000E+03  0.7546771E-02  0.1280296E+00
         21   -1    0    0  501  502  0.00000000000E+00  0.00000000000E+00  0.12572156283E+03  0.12572156283E+03  0.00000000000E+00 0.  1.
         21   -1    0    0  502  503 -0.00000000000E+00 -0.00000000000E+00 -0.35129265517E+03  0.35129265517E+03  0.00000000000E+00 0. -1.
          6    1    1    2  501    0 -0.44597239006E+02 -0.51653731775E+01  0.12674604825E+02  0.17917935265E+03  0.17300000000E+03 0.  1.
         -6    1    1    2    0  503  0.44597239006E+02  0.51653731775E+01 -0.23824569716E+03  0.29783486536E+03  0.17300000000E+03 0. -1.
</event>
<event>
 4    1  0.6017350E+000  0.1000000E+03  0.7546771E-02  0.1280296E+00
         21   -1    0    0  501  502  0.00000000000E+00  0.00000000000E+00  0.44389972557E+03  0.44389972557E+03  0.00000000000E+00 0.  1.
         21   -1    0    0  502  503 -0.00000000000E+00 -0.00000000000E+00 -0.23573345775E+03  0.23573345775E+03  0.00000000000E+00 0. -1.
          6    1    1    2  501    0  0.11442401789E+02  0.69169114928E+02  0.38161455089E+03  0.42482226927E+03  0.17300000000E+03 0.  1.
         -6    1    1    2    0  503 -0.11442401789E+02 -0.69169114928E+02 -0.17344828307E+03  0.25481091405E+03  0.17300000000E+03 0. -1.
</event>
<event>
 4    1  0.6017350E+000  0.1000000E+03  0.7546771E-02  0.1280296E+00
         21   -1    0    0  501  502  0.00000000000E+00  0.00000000000E+00  0.73222156874E+02  0.73222156874E+02  0.00000000000E+00 0.  1.
         21   -1    0    0  502  503 -0.00000000000E+00 -0.00000000000E+00 -0.11952513924E+04  0.11952513924E+04  0.00000000000E+00 0. -1.
          6    1    1    2  501    0  0.80424488937E+01  0.85877050210E+02 -0.80908260711E+02  0.20955833409E+03  0.17300000000E+03 0.  1.
         -6    1    1    2    0  503 -0.80424488937E+01 -0.85877050210E+02 -0.10411209748E+04  0.10589152151E+04  0.17300000000E+03 0. -1.
</event>
<event>
 4    1  0.6017350E+000  0.1000000E+03  0.7546771E-02  0.1280296E+00
         21   -1    0    0  501  502  0.00000000000E+00  0.00000000000E+00  0.17284300041E+04  0.17284300041E+04  0.00000000000E+00 0.  1.
         21   -1    0    0  502  503 -0.00000000000E+00 -0.00000000000E+00 -0.68366717186E+02  0.68366717186E+02  0.00000000000E+00 0. -1.
          6    1    1    2  501    0  0.73252507745E+02 -0.96200960354E+01  0.15819702355E+04  0.15931155960E+04  0.17300000000E+03 0.  1.
         -6    1    1    2    0  503 -0.73252507745E+02  0.96200960354E+01  0.78093051459E+02  0.20368112535E+03  0.17300000000E+03 0. -1.
</event>
<event>
 4    1  0.6017350E+000  0.1000000E+03  0.7546771E-02  0.1280296E+00
         21   -1    0    0  501  502  0.00000000000E+00  0.00000000000E+00  0.82505377862E+02  0.82505377862E+02  0.00000000000E+00 0. -1.
         21   -1    0    0  502  503 -0.00000000000E+00 -0.00000000000E+00 -0.49650119340E+03  0.49650119340E+03  0.00000000000E+00 0.  1.
          6    1    1    2  501    0 -0.68617146518E+02  0.77975913715E+02 -0.18454214660E+03  0.27344717916E+03  0.17300000000E+03 0. -1.
         -6    1    1    2    0  503  0.68617146518E+02 -0.77975913715E+02 -0.22945366893E+03  0.30555939210E+03  0.17300000000E+03 0.  1.
</event>
<event>
 4    1  0.6017350E+000  0.1000000E+03  0.7546771E-02  0.1280296E+00
         21   -1    0    0  501  502  0.00000000000E+00  0.00000000000E+00  0.83837036144E+03  0.83837036144E+03  0.00000000000E+00 0. -1.
         21   -1    0    0  502  503 -0.00000000000E+00 -0.00000000000E+00 -0.77146559993E+02  0.77146559993E+02  0.00000000000E+00 0.  1.
          6    1    1    2  501    0 -0.66666853617E+02  0.13680348584E+03  0.57437808706E+03  0.61886900876E+03  0.17300000000E+03 0. -1.
         -6    1    1    2    0  503  0.66666853617E+02 -0.13680348584E+03  0.18684571439E+03  0.29664791268E+03  0.17300000000E+03 0.  1.
</event>
<event>
 4    1  0.6017350E+000  0.1000000E+03  0.7546771E-02  0.1280296E+00
         21   -1    0    0  501  502  0.00000000000E+00  0.00000000000E+00  0.73115538959E+03  0.73115538959E+03  0.00000000000E+00 0. -1.
         21   -1    0    0  502  503 -0.00000000000E+00 -0.00000000000E+00 -0.15094888924E+03  0.15094888924E+03  0.00000000000E+00 0.  1.
          6    1    1    2  501    0 -0.81309547773E+02  0.32427432957E+02  0.64825095329E+03  0.67662477002E+03  0.17300000000E+03 0. -1.
         -6    1    1    2    0  503  0.81309547773E+02 -0.32427432957E+02 -0.68044452932E+02  0.20547950881E+03  0.17300000000E+03 0.  1.
</event>
<event>
 4    1  0.6017350E+000  0.1000000E+03  0.7546771E-02  0.1280296E+00
         21   -1    0    0  503  502  0.00000000000E+00  0.00000000000E+00  0.83052221242E+03  0.83052221242E+03  0.00000000000E+00 0. -1.
         21   -1    0    0  501  503 -0.00000000000E+00 -0.00000000000E+00 -0.42078930144E+02  0.42078930144E+02  0.00000000000E+00 0. -1.
          6    1    1    2  501    0  0.10838829874E+02  0.66325911197E+02  0.44650668890E+03  0.48354299702E+03  0.17300000000E+03 0. -1.
         -6    1    1    2    0  502 -0.10838829874E+02 -0.66325911197E+02  0.34193659337E+03  0.38905814555E+03  0.17300000000E+03 0. -1.
</event>
<event>
 4    1  0.6017350E+000  0.1000000E+03  0.7546771E-02  0.1280296E+00
         21   -1    0    0  503  502  0.00000000000E+00  0.00000000000E+00  0.75494661144E+03  0.75494661144E+03  0.00000000000E+00 0. -1.
         21   -1    0    0  501  503 -0.00000000000E+00 -0.00000000000E+00 -0.15984023496E+03  0.15984023496E+03  0.00000000000E+00 0. -1.
          6    1    1    2  501    0  0.91417840260E+02 -0.14931452074E+03 -0.25213797324E+02  0.24742025624E+03  0.17300000000E+03 0. -1.
         -6    1    1    2    0  502 -0.91417840260E+02  0.14931452074E+03  0.62032017381E+03  0.66736659015E+03  0.17300000000E+03 0. -1.
</event>
<event>
 4    1  0.6017350E+000  0.1000000E+03  0.7546771E-02  0.1280296E+00
         21   -1    0    0  503  502  0.00000000000E+00  0.00000000000E+00  0.59787002733E+03  0.59787002733E+03  0.00000000000E+00 0. -1.
         21   -1    0    0  501  503 -0.00000000000E+00 -0.00000000000E+00 -0.60506881247E+02  0.60506881247E+02  0.00000000000E+00 0.  1.
          6    1    1    2  501    0  0.16022096803E+02 -0.76770064867E+02  0.25173238879E+03  0.31535463531E+03  0.17300000000E+03 0.  1.
         -6    1    1    2    0  502 -0.16022096803E+02  0.76770064867E+02  0.28563075729E+03  0.34302227327E+03  0.17300000000E+03 0. -1.
</event>
<event>
 4    1  0.6017350E+000  0.1000000E+03  0.7546771E-02  0.1280296E+00
         21   -1    0    0  503  502  0.00000000000E+00  0.00000000000E+00  0.78432840214E+03  0.78432840214E+03  0.00000000000E+00 0.  1.
         21   -1    0    0  501  503 -0.00000000000E+00 -0.00000000000E+00 -0.44239000993E+02  0.44239000993E+02  0.00000000000E+00 0.  1.
          6    1    1    2  501    0  0.35986884805E+02  0.57584708314E+02  0.34210195119E+03  0.38932479951E+03  0.17300000000E+03 0.  1.
         -6    1    1    2    0  502 -0.35986884805E+02 -0.57584708314E+02  0.39798744996E+03  0.43924260362E+03  0.17300000000E+03 0.  1.
</event>
<event>
 4    1  0.6017350E+000  0.1000000E+03  0.7546771E-02  0.1280296E+00
         21   -1    0    0  503  502  0.00000000000E+00  0.00000000000E+00  0.33957207508E+03  0.33957207508E+03  0.00000000000E+00 0.  1.
         21   -1    0    0  501  503 -0.00000000000E+00 -0.00000000000E+00 -0.18283456172E+03  0.18283456172E+03  0.00000000000E+00 0.  1.
          6    1    1    2  501    0 -0.67231365138E+01  0.14036898551E+03 -0.38401431633E+02  0.22616879230E+03  0.17300000000E+03 0.  1.
         -6    1    1    2    0  502  0.67231365138E+01 -0.14036898551E+03  0.19513894499E+03  0.29623784450E+03  0.17300000000E+03 0.  1.
</event>
<event>
 4    1  0.6017350E+000  0.1000000E+03  0.7546771E-02  0.1280296E+00
         21   -1    0    0  503  502  0.00000000000E+00  0.00000000000E+00  0.52090716251E+03  0.52090716251E+03  0.00000000000E+00 0.  1.
         21   -1    0    0  501  503 -0.00000000000E+00 -0.00000000000E+00 -0.86321532290E+02  0.86321532290E+02  0.00000000000E+00 0.  1.
          6    1    1    2  501    0 -0.49381182380E+02  0.10365295020E+03  0.27894458150E+03  0.34773770978E+03  0.17300000000E+03 0.  1.
         -6    1    1    2    0  502  0.49381182380E+02 -0.10365295020E+03  0.15564104872E+03  0.25949098502E+03  0.17300000000E+03 0.  1.
</event>
<event>
 4    1  0.6017350E+000  0.1000000E+03  0.7546771E-02  0.1280296E+00
         21   -1    0    0  503  502  0.00000000000E+00  0.00000000000E+00  0.46746286578E+03  0.46746286578E+03  0.00000000000E+00 0.  1.
         21   -1    0    0  501  503 -0.00000000000E+00 -0.00000000000E+00 -0.56917554947E+03  0.56917554947E+03  0.00000000000E+00 0.  1.
          6    1    1    2  501    0  0.11538365687E+03 -0.79104731680E+02 -0.51848191935E+03  0.56420160186E+03  0.17300000000E+03 0.  1.
         -6    1    1    2    0  502 -0.11538365687E+03  0.79104731680E+02  0.41676923566E+03  0.47243681338E+03  0.17300000000E+03 0.  1.
</event>
<event>
 4    1  0.6017350E+000  0.1000000E+03  0.7546771E-02  0.1280296E+00
         21   -1    0    0  503  502  0.00000000000E+00  0.00000000000E+00  0.11533725601E+03  0.11533725601E+03  0.00000000000E+00 0.  1.
         21   -1    0    0  501  503 -0.00000000000E+00 -0.00000000000E+00 -0.28558705234E+03  0.28558705234E+03  0.00000000000E+00 0. -1.
          6    1    1    2  501    0 -0.35098799709E+02 -0.23999725678E+02 -0.46832276851E+02  0.18420145148E+03  0.17300000000E+03 0.  1.
         -6    1    1    2    0  502  0.35098799709E+02  0.23999725678E+02 -0.12341751948E+03  0.21672285687E+03  0.17300000000E+03 0.  1.
</event>
<event>
 4    1  0.6017350E+000  0.1000000E+03  0.7546771E-02  0.1280296E+00
         21   -1    0    0  503  502  0.00000000000E+00  0.00000000000E+00  0.27847330681E+02  0.27847330681E+02  0.00000000000E+00 0.  1.
         21   -1    0    0  501  503 -0.00000000000E+00 -0.00000000000E+00 -0.21671484795E+04  0.21671484795E+04  0.00000000000E+00 0. -1.
          6    1    1    2  501    0 -0.95084557209E+02 -0.97427036889E+02 -0.15567384972E+04  0.15722267168E+04  0.17300000000E+03 0.  1.
         -6    1    1    2    0  502  0.95084557209E+02  0.97427036889E+02 -0.58256265162E+03  0.62276909332E+03  0.17300000000E+03 0.  1.
</event>
<event>
 4    1  0.6017350E+000  0.1000000E+03  0.7546771E-02  0.1280296E+00
         21   -1    0    0  503  502  0.00000000000E+00  0.00000000000E+00  0.91540629833E+03  0.91540629833E+03  0.00000000000E+00 0. -1.
         21   -1    0    0  501  503 -0.00000000000E+00 -0.00000000000E+00 -0.10582808499E+03  0.10582808499E+03  0.00000000000E+00 0.  1.
          6    1    1    2  501    0 -0.12936747963E+03  0.14550469871E+02  0.37955745389E+02  0.21981196411E+03  0.17300000000E+03 0.  1.
         -6    1    1    2    0  502  0.12936747963E+03 -0.14550469871E+02  0.77162246795E+03  0.80142241921E+03  0.17300000000E+03 0. -1.
</event>
<event>
 4    1  0.6017350E+000  0.1000000E+03  0.7546771E-02  0.1280296E+00
         21   -1    0    0  503  502  0.00000000000E+00  0.00000000000E+00  0.12561487190E+04  0.12561487190E+04  0.00000000000E+00 0. -1.
         21   -1    0    0  501  503 -0.00000000000E+00 -0.00000000000E+00 -0.73700062372E+02  0.73700062372E+02  0.00000000000E+00 0. -1.
          6    1    1    2  501    0  0.12530046424E+03 -0.21196761285E+03  0.49303584538E+03  0.57761909600E+03  0.17300000000E+03 0. -1.
         -6    1    1    2    0  502 -0.12530046424E+03  0.21196761285E+03  0.68941281122E+03  0.75222968534E+03  0.17300000000E+03 0. -1.
</event>
<event>
 4    1  0.6017350E+000  0.1000000E+03  0.7546771E-02  0.1280296E+00
         21   -1    0    0  503  502  0.00000000000E+00  0.00000000000E+00  0.40681784117E+03  0.40681784117E+03  0.00000000000E+00 0.  1.
         21   -1    0    0  501  503 -0.00000000000E+00 -0.00000000000E+00 -0.85755958739E+02  0.85755958739E+02  0.00000000000E+00 0.  1.
          6    1    1    2  501    0  0.19157259871E+02  0.67414740379E+02  0.16950375431E+03  0.25213542106E+03  0.17300000000E+03 0.  1.
         -6    1    1    2    0  502 -0.19157259871E+02 -0.67414740379E+02  0.15155812812E+03  0.24043837885E+03  0.17300000000E+03 0.  1.
</event>
<event>
 4    1  0.6017350E+000  0.1000000E+03  0.7546771E-02  0.1280296E+00
         21   -1    0    0  501  502  0.00000000000E+00  0.00000000000E+00  0.22175180305E+03  0.22175180305E+03  0.00000000000E+00 0. -1.
         21   -1    0    0  502  503 -0.00000000000E+00 -0.00000000000E+00 -0.16943774096E+04  0.16943774096E+04  0.00000000000E+00 0. -1.
          6    1    1    2  501    0 -0.67278416424E+02  0.76543736052E+02  0.16889569279E+03  0.26237393904E+03  0.17300000000E+03 0. -1.
         -6    1    1    2    0  503  0.67278416424E+02 -0.76543736052E+02 -0.16415212993E+04  0.16537552736E+04  0.17300000000E+03 0. -1.
</event>
<event>
 4    1  0.6017350E+000  0.1000000E+03  0.7546771E-02  0.1280296E+00
         21   -1    0    0  501  502  0.00000000000E+00  0.00000000000E+00  0.92189082119E+03  0.92189082119E+03  0.00000000000E+00 0. -1.
         21   -1    0    0  502  503 -0.00000000000E+00 -0.00000000000E+00 -0.50298585574E+02  0.50298585574E+02  0.00000000000E+00 0. -1.
          6    1    1    2  501    0 -0.53483256566E+02 -0.11520821572E+03  0.47537505516E+03  0.52157821539E+03  0.17300000000E+03 0. -1.
         -6    1    1    2    0  503  0.53483256566E+02  0.11520821572E+03  0.39621718046E+03  0.45061119138E+03  0.17300000000E+03 0. -1.
</event>
<event>
 4    1  0.6017350E+000  0.1000000E+03  0.7546771E-02  0.1280296E+00
         21   -1    0    0  501  502  0.00000000000E+00  0.00000000000E+00  0.22775244105E+03  0.22775244105E+03  0.00000000000E+00 0. -1.
         21   -1    0    0  502  503 -0.00000000000E+00 -0.00000000000E+00 -0.20395596083E+03  0.20395596083E+03  0.00000000000E+00 0. -1.
          6    1    1    2  501    0  0.28739924865E+02  0.24549885167E+02  0.13494208792E+03  0.22263658108E+03  0.17300000000E+03 0. -1.
         -6    1    1    2    0  503 -0.28739924865E+02 -0.24549885167E+02 -0.11114560770E+03  0.20907182080E+03  0.17300000000E+03 0. -1.
</event>
<event>
 4    1  0.6017350E+000  0.1000000E+03  0.7546771E-02  0.1280296E+00
         21   -1    0    0  501  502  0.00000000000E+00  0.00000000000E+00  0.13373184209E+04  0.13373184209E+04  0.00000000000E+00 0. -1.
         21   -1    0    0  502  503 -0.00000000000E+00 -0.00000000000E+00 -0.24976729459E+02  0.24976729459E+02  0.00000000000E+00 0. -1.
          6    1    1    2  501    0 -0.16534744689E+02 -0.11204863840E+02  0.44953748696E+03  0.48209117284E+03  0.17300000000E+03 0. -1.
         -6    1    1    2    0  503  0.16534744689E+02  0.11204863840E+02  0.86280420450E+03  0.88020397753E+03  0.17300000000E+03 0. -1.
</event>
<event>
 4    1  0.6017350E+000  0.1000000E+03  0.7546771E-02  0.1280296E+00
         21   -1    0    0  503  502  0.00000000000E+00  0.00000000000E+00  0.13263431061E+04  0.13263431061E+04  0.00000000000E+00 0. -1.
         21   -1    0    0  501  503 -0.00000000000E+00 -0.00000000000E+00 -0.16456057657E+03  0.16456057657E+03  0.00000000000E+00 0.  1.
          6    1    1    2  501    0 -0.43071068676E+03 -0.52020112609E+02  0.56363213785E+03  0.73200271490E+03  0.17300000000E+03 0.  1.
         -6    1    1    2    0  502  0.43071068676E+03  0.52020112609E+02  0.59815039166E+03  0.75890096775E+03  0.17300000000E+03 0. -1.
</event>
<event>
 4    1  0.6017350E+000  0.1000000E+03  0.7546771E-02  0.1280296E+00
         21   -1    0    0  503  502  0.00000000000E+00  0.00000000000E+00  0.30883702883E+03  0.30883702883E+03  0.00000000000E+00 0. -1.
         21   -1    0    0  501  503 -0.00000000000E+00 -0.00000000000E+00 -0.30327215034E+03  0.30327215034E+03  0.00000000000E+00 0.  1.
          6    1    1    2  501    0  0.12077675699E+03  0.13965681787E+03  0.17495696748E+03  0.30761988277E+03  0.17300000000E+03 0.  1.
         -6    1    1    2    0  502 -0.12077675699E+03 -0.13965681787E+03 -0.16939208899E+03  0.30448929640E+03  0.17300000000E+03 0. -1.
</event>
<event>
 4    1  0.6017350E+000  0.1000000E+03  0.7546771E-02  0.1280296E+00
         21   -1    0    0  503  502  0.00000000000E+00  0.00000000000E+00  0.39451418688E+03  0.39451418688E+03  0.00000000000E+00 0. -1.
         21   -1    0    0  501  503 -0.00000000000E+00 -0.00000000000E+00 -0.25066378118E+03  0.25066378118E+03  0.00000000000E+00 0.  1.
          6    1    1    2  501    0  0.30749096060E+02 -0.20267728600E+02 -0.19479889400E+03  0.26311954856E+03  0.17300000000E+03 0. -1.
         -6    1    1    2    0  502 -0.30749096060E+02  0.20267728600E+02  0.33864929969E+03  0.38205841950E+03  0.17300000000E+03 0. -1.
</event>
<event>
 4    1  0.6017350E+000  0.1000000E+03  0.7546771E-02  0.1280296E+00
         21   -1    0    0  501  502  0.00000000000E+00  0.00000000000E+00  0.30944387752E+03  0.30944387752E+03  0.00000000000E+00 0.  1.
         21   -1    0    0  502  503 -0.00000000000E+00 -0.00000000000E+00 -0.25268562109E+03  0.25268562109E+03  0.00000000000E+00 0.  1.
          6    1    1    2  501    0 -0.12661325121E+03  0.88445124170E+00  0.20883217521E+03  0.29928510661E+03  0.17300000000E+03 0.  1.
         -6    1    1    2    0  503  0.12661325121E+03 -0.88445124170E+00 -0.15207391878E+03  0.26284439200E+03  0.17300000000E+03 0.  1.
</event>
<event>
 4    1  0.6017350E+000  0.1000000E+03  0.7546771E-02  0.1280296E+00
         21   -1    0    0  501  502  0.00000000000E+00  0.00000000000E+00  0.10563088859E+03  0.10563088859E+03  0.00000000000E+00 0.  1.
         21   -1    0    0  502  503 -0.00000000000E+00 -0.00000000000E+00 -0.11199914943E+04  0.11199914943E+04  0.00000000000E+00 0.  1.
          6    1    1    2  501    0  0.20140539046E+03  0.15585537277E+03 -0.23393171942E+03  0.38666274437E+03  0.17300000000E+03 0.  1.
         -6    1    1    2    0  503 -0.20140539046E+03 -0.15585537277E+03 -0.78042888633E+03  0.83895963857E+03  0.17300000000E+03 0.  1.
</event>
<event>
 4    1  0.6017350E+000  0.1000000E+03  0.7546771E-02  0.1280296E+00
         21   -1    0    0  503  502  0.00000000000E+00  0.00000000000E+00  0.38279366909E+03  0.38279366909E+03  0.00000000000E+00 0. -1.
         21   -1    0    0  501  503 -0.00000000000E+00 -0.00000000000E+00 -0.10883062745E+03  0.10883062745E+03  0.00000000000E+00 0. -1.
          6    1    1    2  501    0 -0.12181972895E+02 -0.69436776291E+02  0.37956548356E+02  0.19062939419E+03  0.17300000000E+03 0.  1.
         -6    1    1    2    0  502  0.12181972895E+02  0.69436776291E+02  0.23600649329E+03  0.30099490235E+03  0.17300000000E+03 0.  1.
</event>
<event>
 4    1  0.6017350E+000  0.1000000E+03  0.7546771E-02  0.1280296E+00
         21   -1    0    0  503  502  0.00000000000E+00  0.00000000000E+00  0.38390850977E+03  0.38390850977E+03  0.00000000000E+00 0. -1.
         21   -1    0    0  501  503 -0.00000000000E+00 -0.00000000000E+00 -0.19958314743E+03  0.19958314743E+03  0.00000000000E+00 0. -1.
          6    1    1    2  501    0 -0.74787558949E+02 -0.12897017751E+03 -0.72696053601E+02  0.23966685601E+03  0.17300000000E+03 0. -1.
         -6    1    1    2    0  502  0.74787558949E+02  0.12897017751E+03  0.25702141594E+03  0.34382480119E+03  0.17300000000E+03 0. -1.
</event>
<event>
 4    1  0.6017350E+000  0.1000000E+03  0.7546771E-02  0.1280296E+00
         21   -1    0    0  503  502  0.00000000000E+00  0.00000000000E+00  0.25165983947E+02  0.25165983947E+02  0.00000000000E+00 0. -1.
         21   -1    0    0  501  503 -0.00000000000E+00 -0.00000000000E+00 -0.20435851184E+04  0.20435851184E+04  0.00000000000E+00 0. -1.
          6    1    1    2  501    0  0.96394344308E+01  0.23968214203E+02 -0.16675415507E+04  0.16766905550E+04  0.17300000000E+03 0. -1.
         -6    1    1    2    0  502 -0.96394344308E+01 -0.23968214203E+02 -0.35087758374E+03  0.39206054731E+03  0.17300000000E+03 0. -1.
</event>
<event>
 4    1  0.6017350E+000  0.1000000E+03  0.7546771E-02  0.1280296E+00
         21   -1    0    0  503  502  0.00000000000E+00  0.00000000000E+00  0.27662695416E+03  0.27662695416E+03  0.00000000000E+00 0. -1.
         21   -1    0    0  501  503 -0.00000000000E+00 -0.00000000000E+00 -0.11519737930E+03  0.11519737930E+03  0.00000000000E+00 0. -1.
          6    1    1    2  501    0  0.73123541198E+01  0.28206895345E+02  0.44504900842E+02  0.18099388295E+03  0.17300000000E+03 0. -1.
         -6    1    1    2    0  502 -0.73123541198E+01 -0.28206895345E+02  0.11692467401E+03  0.21083045051E+03  0.17300000000E+03 0. -1.
</event>
<event>
 4    1  0.6017350E+000  0.1000000E+03  0.7546771E-02  0.1280296E+00
         21   -1    0    0  503  502  0.00000000000E+00  0.00000000000E+00  0.68331519020E+03  0.68331519020E+03  0.00000000000E+00 0.  1.
         21   -1    0    0  501  503 -0.00000000000E+00 -0.00000000000E+00 -0.83696141835E+02  0.83696141835E+02  0.00000000000E+00 0.  1.
          6    1    1    2  501    0  0.41089422155E+02  0.14392873190E+03  0.18803614460E+03  0.29612566953E+03  0.17300000000E+03 0.  1.
         -6    1    1    2    0  502 -0.41089422155E+02 -0.14392873190E+03  0.41158290376E+03  0.47088566250E+03  0.17300000000E+03 0.  1.
</event>
<event>
 4    1  0.6017350E+000  0.1000000E+03  0.7546771E-02  0.1280296E+00
         21   -1    0    0  503  502  0.00000000000E+00  0.00000000000E+00  0.68867617967E+02  0.68867617967E+02  0.00000000000E+00 0.  1.
         21   -1    0    0  501  503 -0.00000000000E+00 -0.00000000000E+00 -0.98287491980E+03  0.98287491980E+03  0.00000000000E+00 0.  1.
          6    1    1    2  501    0  0.74895602300E+02 -0.17284513904E+03 -0.55340032455E+03  0.60964392275E+03  0.17300000000E+03 0.  1.
         -6    1    1    2    0  502 -0.74895602300E+02  0.17284513904E+03 -0.36060697728E+03  0.44209861502E+03  0.17300000000E+03 0.  1.
</event>
<event>
 4    1  0.6017350E+000  0.1000000E+03  0.7546771E-02  0.1280296E+00
         21   -1    0    0  503  502  0.00000000000E+00  0.00000000000E+00  0.43539753669E+03  0.43539753669E+03  0.00000000000E+00 0.  1.
         21   -1    0    0  501  503 -0.00000000000E+00 -0.00000000000E+00 -0.49435230315E+03  0.49435230315E+03  0.00000000000E+00 0.  1.
          6    1    1    2  501    0 -0.11558945859E+03 -0.18440798278E+03 -0.40163383113E+03  0.48847309174E+03  0.17300000000E+03 0.  1.
         -6    1    1    2    0  502  0.11558945859E+03  0.18440798278E+03  0.34267906467E+03  0.44127674810E+03  0.17300000000E+03 0.  1.
</event>
<event>
 4    1  0.6017350E+000  0.1000000E+03  0.7546771E-02  0.1280296E+00
         21   -1    0    0  503  502  0.00000000000E+00  0.00000000000E+00  0.23391293550E+03  0.23391293550E+03  0.00000000000E+00 0.  1.
         21   -1    0    0  501  503 -0.00000000000E+00 -0.00000000000E+00 -0.13897223486E+03  0.13897223486E+03  0.00000000000E+00 0.  1.
          6    1    1    2  501    0  0.36724900862E+02 -0.12885630714E+02  0.13745312369E+02  0.17785581642E+03  0.17300000000E+03 0.  1.
         -6    1    1    2    0  502 -0.36724900862E+02  0.12885630714E+02  0.81195388268E+02  0.19502935394E+03  0.17300000000E+03 0.  1.
</event>
<event>
 4    1  0.6017350E+000  0.1000000E+03  0.7546771E-02  0.1280296E+00
         21   -1    0    0  503  502  0.00000000000E+00  0.00000000000E+00  0.23290548963E+03  0.23290548963E+03  0.00000000000E+00 0.  1.
         21   -1    0    0  501  503 -0.00000000000E+00 -0.00000000000E+00 -0.60982029131E+03  0.60982029131E+03  0.00000000000E+00 0.  1.
          6    1    1    2  501    0  0.28146618638E+03  0.12040554666E+03 -0.34003935436E+03  0.48915894376E+03  0.17300000000E+03 0.  1.
         -6    1    1    2    0  502 -0.28146618638E+03 -0.12040554666E+03 -0.36875447318E+02  0.35356683719E+03  0.17300000000E+03 0.  1.
</event>
<event>
 4    1  0.6017350E+000  0.1000000E+03  0.7546771E-02  0.1280296E+00
         21   -1    0    0  503  502  0.00000000000E+00  0.00000000000E+00  0.48943519693E+03  0.48943519693E+03  0.00000000000E+00 0. -1.
         21   -1    0    0  501  503 -0.00000000000E+00 -0.00000000000E+00 -0.28715425328E+03  0.28715425328E+03  0.00000000000E+00 0.  1.
          6    1    1    2  501    0 -0.70959348253E+02 -0.28208044810E+03 -0.65901146856E+02  0.34478481617E+03  0.17300000000E+03 0. -1.
         -6    1    1    2    0  502  0.70959348253E+02  0.28208044810E+03  0.26818209051E+03  0.43180463404E+03  0.17300000000E+03 0. -1.
</event>
<event>
 4    1  0.6017350E+000  0.1000000E+03  0.7546771E-02  0.1280296E+00
         21   -1    0    0  503  502  0.00000000000E+00  0.00000000000E+00  0.45699554466E+03  0.45699554466E+03  0.00000000000E+00 0. -1.
         21   -1    0    0  501  503 -0.00000000000E+00 -0.00000000000E+00 -0.92473103064E+02  0.92473103064E+02  0.00000000000E+00 0.  1.
          6    1    1    2  501    0 -0.52996837267E+02  0.63783676967E+02  0.83565621851E+02  0.20925877607E+03  0.17300000000E+03 0. -1.
         -6    1    1    2    0  502  0.52996837267E+02 -0.63783676967E+02  0.28095681974E+03  0.34020987165E+03  0.17300000000E+03 0. -1.
</event>
<event>
 4    1  0.6017350E+000  0.1000000E+03  0.7546771E-02  0.1280296E+00
         21   -1    0    0  501  502  0.00000000000E+00  0.00000000000E+00  0.13762560301E+04  0.13762560301E+04  0.00000000000E+00 0. -1.
         21   -1    0    0  502  503 -0.00000000000E+00 -0.00000000000E+00 -0.62910356675E+02  0.62910356675E+02  0.00000000000E+00 0.  1.
          6    1    1    2  501    0 -0.78024701851E+02  0.21779048215E+03  0.79351703343E+03  0.84446363483E+03  0.17300000000E+03 0.  1.
         -6    1    1    2    0  503  0.78024701851E+02 -0.21779048215E+03  0.51982864003E+03  0.59470275198E+03  0.17300000000E+03 0. -1.
</event>
<event>
 4    1  0.6017350E+000  0.1000000E+03  0.7546771E-02  0.1280296E+00
         21   -1    0    0  503  502  0.00000000000E+00  0.00000000000E+00  0.19442448299E+03  0.19442448299E+03  0.00000000000E+00 0.  1.
         21   -1    0    0  501  503 -0.00000000000E+00 -0.00000000000E+00 -0.47380201999E+03  0.47380201999E+03  0.00000000000E+00 0. -1.
          6    1    1    2  501    0  0.49337942914E+02 -0.21059543936E+03 -0.27632038324E+03  0.39123730125E+03  0.17300000000E+03 0. -1.
         -6    1    1    2    0  502 -0.49337942914E+02  0.21059543936E+03 -0.30571537584E+01  0.27698920174E+03  0.17300000000E+03 0.  1.
</event>
<event>
 4    1  0.6017350E+000  0.1000000E+03  0.7546771E-02  0.1280296E+00
         21   -1    0    0  501  502  0.00000000000E+00  0.00000000000E+00  0.38496498708E+02  0.38496498708E+02  0.00000000000E+00 0. -1.
         21   -1    0    0  502  503 -0.00000000000E+00 -0.00000000000E+00 -0.26054115765E+04  0.26054115765E+04  0.00000000000E+00 0. -1.
          6    1    1    2  501    0 -0.22885472215E+02 -0.64469520592E+02 -0.21362025616E+03  0.28327138536E+03  0.17300000000E+03 0. -1.
         -6    1    1    2    0  503  0.22885472215E+02  0.64469520592E+02 -0.23532948216E+04  0.23606366898E+04  0.17300000000E+03 0. -1.
</event>
<event>
 4    1  0.6017350E+000  0.1000000E+03  0.7546771E-02  0.1280296E+00
         21   -1    0    0  503  502  0.00000000000E+00  0.00000000000E+00  0.13811315161E+03  0.13811315161E+03  0.00000000000E+00 0. -1.
         21   -1    0    0  501  503 -0.00000000000E+00 -0.00000000000E+00 -0.65594190823E+03  0.65594190823E+03  0.00000000000E+00 0. -1.
          6    1    1    2  501    0 -0.94266529081E+02 -0.64536363219E+02 -0.54674575131E+03  0.58473159420E+03  0.17300000000E+03 0. -1.
         -6    1    1    2    0  502  0.94266529081E+02  0.64536363219E+02  0.28916994692E+02  0.20932346563E+03  0.17300000000E+03 0. -1.
</event>
<event>
 4    1  0.6017350E+000  0.1000000E+03  0.7546771E-02  0.1280296E+00
         21   -1    0    0  501  502  0.00000000000E+00  0.00000000000E+00  0.10127595448E+03  0.10127595448E+03  0.00000000000E+00 0. -1.
         21   -1    0    0  502  503 -0.00000000000E+00 -0.00000000000E+00 -0.10883164891E+04  0.10883164891E+04  0.00000000000E+00 0. -1.
          6    1    1    2  501    0  0.15529169656E+03  0.13400956688E+03 -0.14327929604E+03  0.30419078176E+03  0.17300000000E+03 0. -1.
         -6    1    1    2    0  503 -0.15529169656E+03 -0.13400956688E+03 -0.84376123857E+03  0.88540166182E+03  0.17300000000E+03 0. -1.
</event>
<event>
 4    1  0.6017350E+000  0.1000000E+03  0.7546771E-02  0.1280296E+00
         21   -1    0    0  501  502  0.00000000000E+00  0.00000000000E+00  0.15108942787E+03  0.15108942787E+03  0.00000000000E+00 0.  1.
         21   -1    0    0  502  503 -0.00000000000E+00 -0.00000000000E+00 -0.44941882134E+03  0.44941882134E+03  0.00000000000E+00 0.  1.
          6    1    1    2  501    0 -0.15035785749E+03  0.28959555388E+02 -0.10285038206E+02  0.23125942828E+03  0.17300000000E+03 0.  1.
         -6    1    1    2    0  503  0.15035785749E+03 -0.28959555388E+02 -0.28804435526E+03  0.36924882093E+03  0.17300000000E+03 0.  1.
</event>
<event>
 4    1  0.6017350E+000  0.1000000E+03  0.7546771E-02  0.1280296E+00
         21   -1    0    0  501  502  0.00000000000E+00  0.00000000000E+00  0.14372727301E+03  0.14372727301E+03  0.00000000000E+00 0.  1.
         21   -1    0    0  502  503 -0.00000000000E+00 -0.00000000000E+00 -0.12709676828E+04  0.12709676828E+04  0.00000000000E+00 0.  1.
          6    1    1    2  501    0 -0.50158380380E+02  0.20569750002E+03 -0.19944813014E+02  0.27414251805E+03  0.17300000000E+03 0.  1.
         -6    1    1    2    0  503  0.50158380380E+02 -0.20569750002E+03 -0.11072955968E+04  0.11405524378E+04  0.17300000000E+03 0.  1.
</event>
<event>
 4    1  0.6017350E+000  0.1000000E+03  0.7546771E-02  0.1280296E+00
         21   -1    0    0  503  502  0.00000000000E+00  0.00000000000E+00  0.81631312858E+02  0.81631312858E+02  0.00000000000E+00 0. -1.
         21   -1    0    0  501  503 -0.00000000000E+00 -0.00000000000E+00 -0.14991733442E+04  0.14991733442E+04  0.00000000000E+00 0.  1.
          6    1    1    2  501    0 -0.35381906858E+02 -0.62287205319E+00 -0.13910894075E+04  0.14022521196E+04  0.17300000000E+03 0.  1.
         -6    1    1    2    0  502  0.35381906858E+02  0.62287205319E+00 -0.26452623786E+02  0.17855253739E+03  0.17300000000E+03 0. -1.
</event>
<event>
 4    1  0.6017350E+000  0.1000000E+03  0.7546771E-02  0.1280296E+00
         21   -1    0    0  501  502  0.00000000000E+00  0.00000000000E+00  0.13426909058E+03  0.13426909058E+03  0.00000000000E+00 0.  1.
         21   -1    0    0  502  503 -0.00000000000E+00 -0.00000000000E+00 -0.35366438237E+03  0.35366438237E+03  0.00000000000E+00 0.  1.
          6    1    1    2  501    0 -0.50361224854E+02 -0.94851631285E+01  0.27103897225E+02  0.18245504250E+03  0.17300000000E+03 0. -1.
         -6    1    1    2    0  503  0.50361224854E+02  0.94851631285E+01 -0.24649918902E+03  0.30547843046E+03  0.17300000000E+03 0. -1.
</event>
<event>
 4    1  0.6017350E+000  0.1000000E+03  0.7546771E-02  0.1280296E+00
         21   -1    0    0  501  502  0.00000000000E+00  0.00000000000E+00  0.10875852649E+04  0.10875852649E+04  0.00000000000E+00 0. -1.
         21   -1    0    0  502  503 -0.00000000000E+00 -0.00000000000E+00 -0.84711705914E+02  0.84711705914E+02  0.00000000000E+00 0. -1.
          6    1    1    2  501    0  0.52675992359E+00 -0.86482029938E+02  0.95317659310E+03  0.97260168446E+03  0.17300000000E+03 0. -1.
         -6    1    1    2    0  503 -0.52675992359E+00  0.86482029938E+02  0.49696965898E+02  0.19969528637E+03  0.17300000000E+03 0. -1.
</event>
<event>
 4    1  0.6017350E+000  0.1000000E+03  0.7546771E-02  0.1280296E+00
         21   -1    0    0  501  502  0.00000000000E+00  0.00000000000E+00  0.13451683994E+04  0.13451683994E+04  0.00000000000E+00 0. -1.
         21   -1    0    0  502  503 -0.00000000000E+00 -0.00000000000E+00 -0.29752444856E+02  0.29752444856E+02  0.00000000000E+00 0. -1.
          6    1    1    2  501    0 -0.99868540369E+02 -0.97315559809E+01  0.64065725263E+03  0.67114763196E+03  0.17300000000E+03 0. -1.
         -6    1    1    2    0  503  0.99868540369E+02  0.97315559809E+01  0.67475870192E+03  0.70377321230E+03  0.17300000000E+03 0. -1.
</event>
<event>
 4    1  0.6017350E+000  0.1000000E+03  0.7546771E-02  0.1280296E+00
         21   -1    0    0  503  502  0.00000000000E+00  0.00000000000E+00  0.21966665325E+03  0.21966665325E+03  0.00000000000E+00 0.  1.
         21   -1    0    0  501  503 -0.00000000000E+00 -0.00000000000E+00 -0.38105570718E+03  0.38105570718E+03  0.00000000000E+00 0.  1.
          6    1    1    2  501    0  0.17452922898E+03 -0.20692276903E+02 -0.23775529638E+03  0.34255686104E+03  0.17300000000E+03 0.  1.
         -6    1    1    2    0  502 -0.17452922898E+03  0.20692276903E+02  0.76366242449E+02  0.25816549939E+03  0.17300000000E+03 0.  1.
</event>
<event>
 4    1  0.6017350E+000  0.1000000E+03  0.7546771E-02  0.1280296E+00
         21   -1    0    0  503  502  0.00000000000E+00  0.00000000000E+00  0.76898429545E+03  0.76898429545E+03  0.00000000000E+00 0.  1.
         21   -1    0    0  501  503 -0.00000000000E+00 -0.00000000000E+00 -0.58166106421E+02  0.58166106421E+02  0.00000000000E+00 0.  1.
          6    1    1    2  501    0 -0.54219078162E+02  0.10440526571E+03  0.29483063973E+03  0.36151663042E+03  0.17300000000E+03 0.  1.
         -6    1    1    2    0  502  0.54219078162E+02 -0.10440526571E+03  0.41598754930E+03  0.46563377146E+03  0.17300000000E+03 0.  1.
</event>
<event>
 4    1  0.6017350E+000  0.1000000E+03  0.7546771E-02  0.1280296E+00
         21   -1    0    0  503  502  0.00000000000E+00  0.00000000000E+00  0.75296030259E+02  0.75296030259E+02  0.00000000000E+00 0.  1.
         21   -1    0    0  501  503 -0.00000000000E+00 -0.00000000000E+00 -0.59471044013E+03  0.59471044013E+03  0.00000000000E+00 0.  1.
          6    1    1    2  501    0 -0.42150950170E+01  0.42460173270E+02 -0.44041522212E+03  0.47509493916E+03  0.17300000000E+03 0.  1.
         -6    1    1    2    0  502  0.42150950170E+01 -0.42460173270E+02 -0.78999187748E+02  0.19491153123E+03  0.17300000000E+03 0.  1.
</event>
<event>
 4    1  0.6017350E+000  0.1000000E+03  0.7546771E-02  0.1280296E+00
         21   -1    0    0  503  502  0.00000000000E+00  0.00000000000E+00  0.66281249179E+02  0.66281249179E+02  0.00000000000E+00 0.  1.
         21   -1    0    0  501  503 -0.00000000000E+00 -0.00000000000E+00 -0.73913177890E+03  0.73913177890E+03  0.00000000000E+00 0.  1.
          6    1    1    2  501    0 -0.93664405707E+02  0.51063580129E+02 -0.49588210935E+03  0.53591844201E+03  0.17300000000E+03 0.  1.
         -6    1    1    2    0  502  0.93664405707E+02 -0.51063580129E+02 -0.17696842037E+03  0.26949458607E+03  0.17300000000E+03 0.  1.
</event>
<event>
 4    1  0.6017350E+000  0.1000000E+03  0.7546771E-02  0.1280296E+00
         21   -1    0    0  501  502  0.00000000000E+00  0.00000000000E+00  0.36409509790E+03  0.36409509790E+03  0.00000000000E+00 0. -1.
         21   -1    0    0  502  503 -0.00000000000E+00 -0.00000000000E+00 -0.11335453270E+03  0.11335453270E+03  0.00000000000E+00 0. -1.
          6    1    1    2  501    0  0.64204839471E+02 -0.21068902741E+02  0.22210421898E+03  0.28952624089E+03  0.17300000000E+03 0. -1.
         -6    1    1    2    0  503 -0.64204839471E+02  0.21068902741E+02  0.28636346220E+02  0.18792338971E+03  0.17300000000E+03 0. -1.
</event>
<event>
 4    1  0.6017350E+000  0.1000000E+03  0.7546771E-02  0.1280296E+00
         21   -1    0    0  503  502  0.00000000000E+00  0.00000000000E+00  0.50026044848E+03  0.50026044848E+03  0.00000000000E+00 0. -1.
         21   -1    0    0  501  503 -0.00000000000E+00 -0.00000000000E+00 -0.22737075914E+03  0.22737075914E+03  0.00000000000E+00 0. -1.
          6    1    1    2  501    0 -0.11550604431E+03  0.18182723306E+03 -0.72208855214E+02  0.28556244102E+03  0.17300000000E+03 0. -1.
         -6    1    1    2    0  502  0.11550604431E+03 -0.18182723306E+03  0.34509854455E+03  0.44206876660E+03  0.17300000000E+03 0. -1.
</event>
<event>
 4    1  0.6017350E+000  0.1000000E+03  0.7546771E-02  0.1280296E+00
         21   -1    0    0  503  502  0.00000000000E+00  0.00000000000E+00  0.30654523697E+03  0.30654523697E+03  0.00000000000E+00 0.  1.
         21   -1    0    0  501  503 -0.00000000000E+00 -0.00000000000E+00 -0.15904443392E+03  0.15904443392E+03  0.00000000000E+00 0.  1.
          6    1    1    2  501    0  0.74920426224E+02 -0.36267605602E+02 -0.41245880661E+02  0.19636352042E+03  0.17300000000E+03 0.  1.
         -6    1    1    2    0  502 -0.74920426224E+02  0.36267605602E+02  0.18874668371E+03  0.26922615047E+03  0.17300000000E+03 0.  1.
</event>
<event>
 4    1  0.6017350E+000  0.1000000E+03  0.7546771E-02  0.1280296E+00
         21   -1    0    0  503  502  0.00000000000E+00  0.00000000000E+00  0.49662660275E+03  0.49662660275E+03  0.00000000000E+00 0.  1.
         21   -1    0    0  501  503 -0.00000000000E+00 -0.00000000000E+00 -0.67088133002E+03  0.67088133002E+03  0.00000000000E+00 0.  1.
          6    1    1    2  501    0  0.12818535008E+03  0.19906034266E+03 -0.58994351275E+03  0.65880107182E+03  0.17300000000E+03 0.  1.
         -6    1    1    2    0  502 -0.12818535008E+03 -0.19906034266E+03  0.41568878549E+03  0.50870686095E+03  0.17300000000E+03 0.  1.
</event>
<event>
 4    1  0.6017350E+000  0.1000000E+03  0.7546771E-02  0.1280296E+00
         21   -1    0    0  503  502  0.00000000000E+00  0.00000000000E+00  0.10270372087E+03  0.10270372087E+03  0.00000000000E+00 0. -1.
         21   -1    0    0  501  503 -0.00000000000E+00 -0.00000000000E+00 -0.32461448665E+03  0.32461448665E+03  0.00000000000E+00 0.  1.
          6    1    1    2  501    0 -0.53286251682E+02 -0.18945558955E+02 -0.93927405957E+02  0.20481629919E+03  0.17300000000E+03 0.  1.
         -6    1    1    2    0  502  0.53286251682E+02  0.18945558955E+02 -0.12798335982E+03  0.22250190834E+03  0.17300000000E+03 0.  1.
</event>
<event>
 4    1  0.6017350E+000  0.1000000E+03  0.7546771E-02  0.1280296E+00
         21   -1    0    0  503  502  0.00000000000E+00  0.00000000000E+00  0.43158791785E+03  0.43158791785E+03  0.00000000000E+00 0. -1.
         21   -1    0    0  501  503 -0.00000000000E+00 -0.00000000000E+00 -0.15702353385E+03  0.15702353385E+03  0.00000000000E+00 0.  1.
          6    1    1    2  501    0  0.42305351336E+01 -0.11908941082E+03 -0.36541095526E+02  0.21322391249E+03  0.17300000000E+03 0.  1.
         -6    1    1    2    0  502 -0.42305351336E+01  0.11908941082E+03  0.31110547953E+03  0.37538753921E+03  0.17300000000E+03 0.  1.
</event>
<event>
 4    1  0.6017350E+000  0.1000000E+03  0.7546771E-02  0.1280296E+00
         21   -1    0    0  503  502  0.00000000000E+00  0.00000000000E+00  0.13558525937E+03  0.13558525937E+03  0.00000000000E+00 0. -1.
         21   -1    0    0  501  503 -0.00000000000E+00 -0.00000000000E+00 -0.47713011453E+03  0.47713011453E+03  0.00000000000E+00 0.  1.
          6    1    1    2  501    0 -0.37792473296E+02 -0.86835353099E+02 -0.36422068883E+03  0.41419121159E+03  0.17300000000E+03 0.  1.
         -6    1    1    2    0  502  0.37792473296E+02  0.86835353099E+02  0.22675833674E+02  0.19852416230E+03  0.17300000000E+03 0.  1.
</event>
<event>
 4    1  0.6017350E+000  0.1000000E+03  0.7546771E-02  0.1280296E+00
         21   -1    0    0  501  502  0.00000000000E+00  0.00000000000E+00  0.23859903651E+03  0.23859903651E+03  0.00000000000E+00 0.  1.
         21   -1    0    0  502  503 -0.00000000000E+00 -0.00000000000E+00 -0.19808769710E+03  0.19808769710E+03  0.00000000000E+00 0.  1.
          6    1    1    2  501    0 -0.26338458696E+02  0.35028433744E+02  0.14494582447E+03  0.22991084709E+03  0.17300000000E+03 0.  1.
         -6    1    1    2    0  503  0.26338458696E+02 -0.35028433744E+02 -0.10443448506E+03  0.20677588652E+03  0.17300000000E+03 0.  1.
</event>
<event>
 4    1  0.6017350E+000  0.1000000E+03  0.7546771E-02  0.1280296E+00
         21   -1    0    0  501  502  0.00000000000E+00  0.00000000000E+00  0.92616536383E+02  0.92616536383E+02  0.00000000000E+00 0.  1.
         21   -1    0    0  502  503 -0.00000000000E+00 -0.00000000000E+00 -0.69038509310E+03  0.69038509310E+03  0.00000000000E+00 0.  1.
          6    1    1    2  501    0  0.80853927925E+02 -0.15498578764E+02 -0.43377455012E+02  0.19643871107E+03  0.17300000000E+03 0.  1.
         -6    1    1    2    0  503 -0.80853927925E+02  0.15498578764E+02 -0.55439110171E+03  0.58656291841E+03  0.17300000000E+03 0.  1.
</event>
<event>
 4    1  0.6017350E+000  0.1000000E+03  0.7546771E-02  0.1280296E+00
         21   -1    0    0  501  502  0.00000000000E+00  0.00000000000E+00  0.25434841058E+04  0.25434841058E+04  0.00000000000E+00 0.  1.
         21   -1    0    0  502  503 -0.00000000000E+00 -0.00000000000E+00 -0.20021213291E+03  0.20021213291E+03  0.00000000000E+00 0.  1.
          6    1    1    2  501    0 -0.61229001569E+03 -0.24263085441E+02  0.17910571414E+04  0.19008688657E+04  0.17300000000E+03 0.  1.
         -6    1    1    2    0  503  0.61229001569E+03  0.24263085441E+02  0.55221483140E+03  0.84282737298E+03  0.17300000000E+03 0.  1.
</event>
<event>
 4    1  0.6017350E+000  0.1000000E+03  0.7546771E-02  0.1280296E+00
         21   -1    0    0  501  502  0.00000000000E+00  0.00000000000E+00  0.40178736056E+03  0.40178736056E+03  0.00000000000E+00 0.  1.
         21   -1    0    0  502  503 -0.00000000000E+00 -0.00000000000E+00 -0.13132963076E+03  0.13132963076E+03  0.00000000000E+00 0.  1.
          6    1    1    2  501    0  0.14400131471E+03  0.44540988539E+02  0.14779714223E+03  0.27293455910E+03  0.17300000000E+03 0.  1.
         -6    1    1    2    0  503 -0.14400131471E+03 -0.44540988539E+02  0.12266058756E+03  0.26018243223E+03  0.17300000000E+03 0.  1.
</event>
<event>
 4    1  0.6017350E+000  0.1000000E+03  0.7546771E-02  0.1280296E+00
         21   -1    0    0  503  502  0.00000000000E+00  0.00000000000E+00  0.28970414151E+03  0.28970414151E+03  0.00000000000E+00 0.  1.
         21   -1    0    0  501  503 -0.00000000000E+00 -0.00000000000E+00 -0.19507948602E+03  0.19507948602E+03  0.00000000000E+00 0.  1.
          6    1    1    2  501    0  0.56669612544E+02  0.13166302504E+03 -0.31927557971E+02  0.22692502310E+03  0.17300000000E+03 0.  1.
         -6    1    1    2    0  502 -0.56669612544E+02 -0.13166302504E+03  0.12655221346E+03  0.25785860443E+03  0.17300000000E+03 0.  1.
</event>
<event>
 4    1  0.6017350E+000  0.1000000E+03  0.7546771E-02  0.1280296E+00
         21   -1    0    0  503  502  0.00000000000E+00  0.00000000000E+00  0.69921806485E+03  0.69921806485E+03  0.00000000000E+00 0.  1.
         21   -1    0    0  501  503 -0.00000000000E+00 -0.00000000000E+00 -0.16195114604E+03  0.16195114604E+03  0.00000000000E+00 0.  1.
          6    1    1    2  501    0  0.15967859188E+03  0.18507202068E+03  0.72225341303E+02  0.30804935557E+03  0.17300000000E+03 0.  1.
         -6    1    1    2    0  502 -0.15967859188E+03 -0.18507202068E+03  0.46504157750E+03  0.55311985532E+03  0.17300000000E+03 0.  1.
</event>
<event>
 4    1  0.6017350E+000  0.1000000E+03  0.7546771E-02  0.1280296E+00
         21   -1    0    0  503  502  0.00000000000E+00  0.00000000000E+00  0.62930839752E+03  0.62930839752E+03  0.00000000000E+00 0. -1.
         21   -1    0    0  501  503 -0.00000000000E+00 -0.00000000000E+00 -0.52259589234E+03  0.52259589234E+03  0.00000000000E+00 0. -1.
          6    1    1    2  501    0 -0.16276919517E+02 -0.52872629219E+03 -0.85547092404E+02  0.56308412798E+03  0.17300000000E+03 0. -1.
         -6    1    1    2    0  502  0.16276919517E+02  0.52872629219E+03  0.19225959759E+03  0.58882016188E+03  0.17300000000E+03 0. -1.
</event>
<event>
 4    1  0.6017350E+000  0.1000000E+03  0.7546771E-02  0.1280296E+00
         21   -1    0    0  501  502  0.00000000000E+00  0.00000000000E+00  0.53104530229E+02  0.53104530229E+02  0.00000000000E+00 0. -1.
         21   -1    0    0  502  503 -0.00000000000E+00 -0.00000000000E+00 -0.79542076625E+03  0.79542076625E+03  0.00000000000E+00 0. -1.
          6    1    1    2  501    0 -0.92751800412E+02 -0.22393734817E+02 -0.25425535136E+03  0.32199248366E+03  0.17300000000E+03 0. -1.
         -6    1    1    2    0  503  0.92751800412E+02  0.22393734817E+02 -0.48806088466E+03  0.52653281282E+03  0.17300000000E+03 0. -1.
</event>
<event>
 4    1  0.6017350E+000  0.1000000E+03  0.7546771E-02  0.1280296E+00
         21   -1    0    0  501  502  0.00000000000E+00  0.00000000000E+00  0.92007642443E+02  0.92007642443E+02  0.00000000000E+00 0. -1.
         21   -1    0    0  502  503 -0.00000000000E+00 -0.00000000000E+00 -0.37975225776E+03  0.37975225776E+03  0.00000000000E+00 0. -1.
          6    1    1    2  501    0 -0.35651821210E+02 -0.33536098006E+02 -0.79337066979E+02  0.19651740997E+03  0.17300000000E+03 0. -1.
         -6    1    1    2    0  503  0.35651821210E+02  0.33536098006E+02 -0.20840754834E+03  0.27524249023E+03  0.17300000000E+03 0. -1.
</event>
<event>
 4    1  0.6017350E+000  0.1000000E+03  0.7546771E-02  0.1280296E+00
         21   -1    0    0  501  502  0.00000000000E+00  0.00000000000E+00  0.39352938696E+03  0.39352938696E+03  0.00000000000E+00 0. -1.
         21   -1    0    0  502  503 -0.00000000000E+00 -0.00000000000E+00 -0.54067271426E+03  0.54067271426E+03  0.00000000000E+00 0. -1.
          6    1    1    2  501    0  0.73201317076E+01  0.17550731057E+03  0.32120882912E+03  0.40492037773E+03  0.17300000000E+03 0. -1.
         -6    1    1    2    0  503 -0.73201317076E+01 -0.17550731057E+03 -0.46835215643E+03  0.52928172349E+03  0.17300000000E+03 0. -1.
</event>
<event>
 4    1  0.6017350E+000  0.1000000E+03  0.7546771E-02  0.1280296E+00
         21   -1    0    0  501  502  0.00000000000E+00  0.00000000000E+00  0.21182422572E+03  0.21182422572E+03  0.00000000000E+00 0. -1.
         21   -1    0    0  502  503 -0.00000000000E+00 -0.00000000000E+00 -0.40051865961E+03  0.40051865961E+03  0.00000000000E+00 0. -1.
          6    1    1    2  501    0 -0.47678743994E+02  0.84338337775E+02  0.12993110863E+03  0.23705971998E+03  0.17300000000E+03 0. -1.
         -6    1    1    2    0  503  0.47678743994E+02 -0.84338337775E+02 -0.31862554252E+03  0.37528316535E+03  0.17300000000E+03 0. -1.
</event>
<event>
 4    1  0.6017350E+000  0.1000000E+03  0.7546771E-02  0.1280296E+00
         21   -1    0    0  501  502  0.00000000000E+00  0.00000000000E+00  0.10717862258E+03  0.10717862258E+03  0.00000000000E+00 0.  1.
         21   -1    0    0  502  503 -0.00000000000E+00 -0.00000000000E+00 -0.48356989459E+03  0.48356989459E+03  0.00000000000E+00 0.  1.
          6    1    1    2  501    0  0.74680288000E+02  0.12601606111E+03 -0.16091341558E+03  0.27799158331E+03  0.17300000000E+03 0.  1.
         -6    1    1    2    0  503 -0.74680288000E+02 -0.12601606111E+03 -0.21547785642E+03  0.31275693387E+03  0.17300000000E+03 0.  1.
</event>
<event>
 4    1  0.6017350E+000  0.1000000E+03  0.7546771E-02  0.1280296E+00
         21   -1    0    0  503  502  0.00000000000E+00  0.00000000000E+00  0.10293616150E+03  0.10293616150E+03  0.00000000000E+00 0. -1.
         21   -1    0    0  501  503 -0.00000000000E+00 -0.00000000000E+00 -0.55808243105E+03  0.55808243105E+03  0.00000000000E+00 0. -1.
          6    1    1    2  501    0 -0.99404900230E+02  0.33637594290E+02 -0.50415926720E+02  0.20852718673E+03  0.17300000000E+03 0. -1.
         -6    1    1    2    0  502  0.99404900230E+02 -0.33637594290E+02 -0.40473034283E+03  0.45249140583E+03  0.17300000000E+03 0. -1.
</event>
<event>
 4    1  0.6017350E+000  0.1000000E+03  0.7546771E-02  0.1280296E+00
         21   -1    0    0  503  502  0.00000000000E+00  0.00000000000E+00  0.28872811587E+03  0.28872811587E+03  0.00000000000E+00 0. -1.
         21   -1    0    0  501  503 -0.00000000000E+00 -0.00000000000E+00 -0.20944969245E+03  0.20944969245E+03  0.00000000000E+00 0. -1.
          6    1    1    2  501    0 -0.70834244293E+02 -0.96064258616E+02 -0.89676977988E+02  0.22850993923E+03  0.17300000000E+03 0. -1.
         -6    1    1    2    0  502  0.70834244293E+02  0.96064258616E+02  0.16895540141E+03  0.26966786908E+03  0.17300000000E+03 0. -1.
</event>
<event>
 4    1  0.6017350E+000  0.1000000E+03  0.7546771E-02  0.1280296E+00
         21   -1    0    0  503  502  0.00000000000E+00  0.00000000000E+00  0.38600434784E+02  0.38600434784E+02  0.00000000000E+00 0.  1.
         21   -1    0    0  501  503 -0.00000000000E+00 -0.00000000000E+00 -0.11826999910E+04  0.11826999910E+04  0.00000000000E+00 0.  1.
          6    1    1    2  501    0  0.37257434732E+02 -0.95335076178E+02 -0.77906775323E+03  0.80458216318E+03  0.17300000000E+03 0.  1.
         -6    1    1    2    0  502 -0.37257434732E+02  0.95335076178E+02 -0.36503180299E+03  0.41671826260E+03  0.17300000000E+03 0.  1.
</event>
<event>
 4    1  0.6017350E+000  0.1000000E+03  0.7546771E-02  0.1280296E+00
         21   -1    0    0  503  502  0.00000000000E+00  0.00000000000E+00  0.22858265792E+03  0.22858265792E+03  0.00000000000E+00 0.  1.
         21   -1    0    0  501  503 -0.00000000000E+00 -0.00000000000E+00 -0.14921513715E+03  0.14921513715E+03  0.00000000000E+00 0.  1.
          6    1    1    2  501    0  0.48915485566E+02  0.34217745060E+01 -0.34032748157E+01  0.17984720056E+03  0.17300000000E+03 0.  1.
         -6    1    1    2    0  502 -0.48915485566E+02 -0.34217745060E+01  0.82770795586E+02  0.19795059452E+03  0.17300000000E+03 0.  1.
</event>
<event>
 4    1  0.6017350E+000  0.1000000E+03  0.7546771E-02  0.1280296E+00
         21   -1    0    0  503  502  0.00000000000E+00  0.00000000000E+00  0.59606321722E+02  0.59606321722E+02  0.00000000000E+00 0.  1.
         21   -1    0    0  501  503 -0.00000000000E+00 -0.00000000000E+00 -0.13066241411E+04  0.13066241411E+04  0.00000000000E+00 0.  1.
          6    1    1    2  501    0  0.65993407930E+01 -0.86513954638E+02 -0.11156640355E+04  0.11323265676E+04  0.17300000000E+03 0.  1.
         -6    1    1    2    0  502 -0.65993407930E+01  0.86513954638E+02 -0.13135378387E+03  0.23390389518E+03  0.17300000000E+03 0.  1.
</event>
<event>
 4    1  0.6017350E+000  0.1000000E+03  0.7546771E-02  0.1280296E+00
         21   -1    0    0  501  502  0.00000000000E+00  0.00000000000E+00  0.52145130425E+03  0.52145130425E+03  0.00000000000E+00 0. -1.
         21   -1    0    0  502  503 -0.00000000000E+00 -0.00000000000E+00 -0.10395219771E+03  0.10395219771E+03  0.00000000000E+00 0. -1.
          6    1    1    2  501    0 -0.61798376546E+01 -0.83031033741E+02  0.38563396779E+03  0.43078405271E+03  0.17300000000E+03 0. -1.
         -6    1    1    2    0  503  0.61798376546E+01  0.83031033741E+02  0.31865138755E+02  0.19461944925E+03  0.17300000000E+03 0. -1.
</event>
<event>
 4    1  0.6017350E+000  0.1000000E+03  0.7546771E-02  0.1280296E+00
         21   -1    0    0  501  502  0.00000000000E+00  0.00000000000E+00  0.21977535943E+04  0.21977535943E+04  0.00000000000E+00 0. -1.
         21   -1    0    0  502  503 -0.00000000000E+00 -0.00000000000E+00 -0.57124109552E+02  0.57124109552E+02  0.00000000000E+00 0. -1.
          6    1    1    2  501    0  0.60499425149E+02 -0.78601684315E+02  0.20022376590E+04  0.20121438936E+04  0.17300000000E+03 0. -1.
         -6    1    1    2    0  503 -0.60499425149E+02  0.78601684315E+02  0.13839182570E+03  0.24273381025E+03  0.17300000000E+03 0. -1.
</event>
<event>
 4    1  0.6017350E+000  0.1000000E+03  0.7546771E-02  0.1280296E+00
         21   -1    0    0  501  502  0.00000000000E+00  0.00000000000E+00  0.88293310297E+03  0.88293310297E+03  0.00000000000E+00 0. -1.
         21   -1    0    0  502  503 -0.00000000000E+00 -0.00000000000E+00 -0.12555736389E+03  0.12555736389E+03  0.00000000000E+00 0. -1.
          6    1    1    2  501    0 -0.92285034724E+02  0.78277925640E+02  0.76860025516E+03  0.79706920246E+03  0.17300000000E+03 0. -1.
         -6    1    1    2    0  503  0.92285034724E+02 -0.78277925640E+02 -0.11224516085E+02  0.21142126439E+03  0.17300000000E+03 0. -1.
</event>
<event>
 4    1  0.6017350E+000  0.1000000E+03  0.7546771E-02  0.1280296E+00
         21   -1    0    0  503  502  0.00000000000E+00  0.00000000000E+00  0.21645091224E+03  0.21645091224E+03  0.00000000000E+00 0. -1.
         21   -1    0    0  501  503 -0.00000000000E+00 -0.00000000000E+00 -0.40743321876E+03  0.40743321876E+03  0.00000000000E+00 0.  1.
          6    1    1    2  501    0  0.11339960304E+03 -0.20036681601E+03 -0.17163055079E+03  0.33524972318E+03  0.17300000000E+03 0.  1.
         -6    1    1    2    0  502 -0.11339960304E+03  0.20036681601E+03 -0.19351755729E+02  0.28863440782E+03  0.17300000000E+03 0.  1.
</event>
<event>
 4    1  0.6017350E+000  0.1000000E+03  0.7546771E-02  0.1280296E+00
         21   -1    0    0  503  502  0.00000000000E+00  0.00000000000E+00  0.11163849165E+03  0.11163849165E+03  0.00000000000E+00 0. -1.
         21   -1    0    0  501  503 -0.00000000000E+00 -0.00000000000E+00 -0.68164108089E+03  0.68164108089E+03  0.00000000000E+00 0.  1.
          6    1    1    2  501    0 -0.16497871969E+03  0.11522725614E+03 -0.39329943748E+03  0.47445626356E+03  0.17300000000E+03 0.  1.
         -6    1    1    2    0  502  0.16497871969E+03 -0.11522725614E+03 -0.17670315176E+03  0.31882330898E+03  0.17300000000E+03 0.  1.
</event>
<event>
 4    1  0.6017350E+000  0.1000000E+03  0.7546771E-02  0.1280296E+00
         21   -1    0    0  503  502  0.00000000000E+00  0.00000000000E+00  0.26421697025E+03  0.26421697025E+03  0.00000000000E+00 0. -1.
         21   -1    0    0  501  503 -0.00000000000E+00 -0.00000000000E+00 -0.16689837385E+03  0.16689837385E+03  0.00000000000E+00 0.  1.
          6    1    1    2  501    0 -0.79292395298E+02  0.80677577927E+01 -0.42091328217E+02  0.19507191643E+03  0.17300000000E+03 0.  1.
         -6    1    1    2    0  502  0.79292395298E+02 -0.80677577927E+01  0.13940992462E+03  0.23604342768E+03  0.17300000000E+03 0.  1.
</event>
<event>
 4    1  0.6017350E+000  0.1000000E+03  0.7546771E-02  0.1280296E+00
         21   -1    0    0  501  502  0.00000000000E+00  0.00000000000E+00  0.96380818275E+02  0.96380818275E+02  0.00000000000E+00 0. -1.
         21   -1    0    0  502  503 -0.00000000000E+00 -0.00000000000E+00 -0.72483175793E+03  0.72483175793E+03  0.00000000000E+00 0. -1.
          6    1    1    2  501    0 -0.72099703501E+02 -0.13681584931E+03 -0.11763579567E+03  0.26016172718E+03  0.17300000000E+03 0. -1.
         -6    1    1    2    0  503  0.72099703501E+02  0.13681584931E+03 -0.51081514398E+03  0.56105084902E+03  0.17300000000E+03 0. -1.
</event>
<event>
 4    1  0.6017350E+000  0.1000000E+03  0.7546771E-02  0.1280296E+00
         21   -1    0    0  501  502  0.00000000000E+00  0.00000000000E+00  0.12240733384E+04  0.12240733384E+04  0.00000000000E+00 0. -1.
         21   -1    0    0  502  503 -0.00000000000E+00 -0.00000000000E+00 -0.32618072049E+02  0.32618072049E+02  0.00000000000E+00 0. -1.
          6    1    1    2  501    0 -0.92885385066E+02  0.34273351998E+02  0.63970205843E+03  0.67003737282E+03  0.17300000000E+03 0. -1.
         -6    1    1    2    0  503  0.92885385066E+02 -0.34273351998E+02  0.55175320793E+03  0.58665403764E+03  0.17300000000E+03 0. -1.
</event>
<event>
 4    1  0.6017350E+000  0.1000000E+03  0.7546771E-02  0.1280296E+00
         21   -1    0    0  501  502  0.00000000000E+00  0.00000000000E+00  0.75632150333E+02  0.75632150333E+02  0.00000000000E+00 0. -1.
         21   -1    0    0  502  503 -0.00000000000E+00 -0.00000000000E+00 -0.82800899145E+03  0.82800899145E+03  0.00000000000E+00 0. -1.
          6    1    1    2  501    0 -0.16069266032E+03  0.73198843182E+02 -0.44646118843E+03  0.51033008386E+03  0.17300000000E+03 0. -1.
         -6    1    1    2    0  503  0.16069266032E+03 -0.73198843182E+02 -0.30591565269E+03  0.39331105792E+03  0.17300000000E+03 0. -1.
</event>
<event>
 4    1  0.6017350E+000  0.1000000E+03  0.7546771E-02  0.1280296E+00
         21   -1    0    0  501  502  0.00000000000E+00  0.00000000000E+00  0.25585364230E+03  0.25585364230E+03  0.00000000000E+00 0. -1.
         21   -1    0    0  502  503 -0.00000000000E+00 -0.00000000000E+00 -0.21007681388E+03  0.21007681388E+03  0.00000000000E+00 0. -1.
          6    1    1    2  501    0  0.13821726096E+03 -0.67572684092E+02  0.35188803697E+02  0.23417371921E+03  0.17300000000E+03 0. -1.
         -6    1    1    2    0  503 -0.13821726096E+03  0.67572684092E+02  0.10588024729E+02  0.23175673697E+03  0.17300000000E+03 0. -1.
</event>
<event>
 4    1  0.6017350E+000  0.1000000E+03  0.7546771E-02  0.1280296E+00
         21   -1    0    0  501  502  0.00000000000E+00  0.00000000000E+00  0.17396151504E+04  0.17396151504E+04  0.00000000000E+00 0. -1.
         21   -1    0    0  502  503 -0.00000000000E+00 -0.00000000000E+00 -0.35066670505E+02  0.35066670505E+02  0.00000000000E+00 0. -1.
          6    1    1    2  501    0  0.12738333369E+03 -0.37938786014E+02  0.12682738437E+04  0.12869006985E+04  0.17300000000E+03 0. -1.
         -6    1    1    2    0  503 -0.12738333369E+03  0.37938786014E+02  0.43627463620E+03  0.48778112241E+03  0.17300000000E+03 0. -1.
</event>
<event>
 4    1  0.6017350E+000  0.1000000E+03  0.7546771E-02  0.1280296E+00
         21   -1    0    0  503  502  0.00000000000E+00  0.00000000000E+00  0.26043445883E+04  0.26043445883E+04  0.00000000000E+00 0.  1.
         21   -1    0    0  501  503 -0.00000000000E+00 -0.00000000000E+00 -0.24208452460E+02  0.24208452460E+02  0.00000000000E+00 0.  1.
          6    1    1    2  501    0 -0.67047889278E+02 -0.96141735841E+02  0.56140746544E+03  0.59903755732E+03  0.17300000000E+03 0.  1.
         -6    1    1    2    0  502  0.67047889278E+02  0.96141735841E+02  0.20187286704E+04  0.20295154834E+04  0.17300000000E+03 0.  1.
</event>
<event>
 4    1  0.6017350E+000  0.1000000E+03  0.7546771E-02  0.1280296E+00
         21   -1    0    0  503  502  0.00000000000E+00  0.00000000000E+00  0.20817263741E+03  0.20817263741E+03  0.00000000000E+00 0.  1.
         21   -1    0    0  501  503 -0.00000000000E+00 -0.00000000000E+00 -0.16656982572E+03  0.16656982572E+03  0.00000000000E+00 0.  1.
          6    1    1    2  501    0  0.22221854358E+02 -0.45820267994E+01 -0.44652982614E+02  0.18010467689E+03  0.17300000000E+03 0.  1.
         -6    1    1    2    0  502 -0.22221854358E+02  0.45820267994E+01  0.86255794301E+02  0.19463778624E+03  0.17300000000E+03 0.  1.
</event>
<event>
 4    1  0.6017350E+000  0.1000000E+03  0.7546771E-02  0.1280296E+00
         21   -1    0    0  503  502  0.00000000000E+00  0.00000000000E+00  0.68551190631E+03  0.68551190631E+03  0.00000000000E+00 0.  1.
         21   -1    0    0  501  503 -0.00000000000E+00 -0.00000000000E+00 -0.10207411854E+03  0.10207411854E+03  0.00000000000E+00 0.  1.
          6    1    1    2  501    0 -0.16740368959E+02  0.86216540680E+02  0.24043259563E+02  0.19550092115E+03  0.17300000000E+03 0.  1.
         -6    1    1    2    0  502  0.16740368959E+02 -0.86216540680E+02  0.55939452821E+03  0.59208510370E+03  0.17300000000E+03 0.  1.
</event>
<event>
 4    1  0.6017350E+000  0.1000000E+03  0.7546771E-02  0.1280296E+00
         21   -1    0    0  503  502  0.00000000000E+00  0.00000000000E+00  0.63841016658E+03  0.63841016658E+03  0.00000000000E+00 0.  1.
         21   -1    0    0  501  503 -0.00000000000E+00 -0.00000000000E+00 -0.89237203139E+02  0.89237203139E+02  0.00000000000E+00 0.  1.
          6    1    1    2  501    0 -0.19954583225E+01  0.15954769651E+03  0.21396855171E+03  0.31807387575E+03  0.17300000000E+03 0.  1.
         -6    1    1    2    0  502  0.19954583225E+01 -0.15954769651E+03  0.33520441172E+03  0.40957349396E+03  0.17300000000E+03 0.  1.
</event>
<event>
 4    1  0.6017350E+000  0.1000000E+03  0.7546771E-02  0.1280296E+00
         21   -1    0    0  501  502  0.00000000000E+00  0.00000000000E+00  0.65197317279E+03  0.65197317279E+03  0.00000000000E+00 0.  1.
         21   -1    0    0  502  503 -0.00000000000E+00 -0.00000000000E+00 -0.17362120267E+03  0.17362120267E+03  0.00000000000E+00 0.  1.
          6    1    1    2  501    0 -0.44939895863E+02 -0.58236182487E+02  0.58152368995E+03  0.61115452151E+03  0.17300000000E+03 0.  1.
         -6    1    1    2    0  503  0.44939895863E+02  0.58236182487E+02 -0.10317171983E+03  0.21443985395E+03  0.17300000000E+03 0.  1.
</event>
<event>
 4    1  0.6017350E+000  0.1000000E+03  0.7546771E-02  0.1280296E+00
         21   -1    0    0  501  502  0.00000000000E+00  0.00000000000E+00  0.85075315259E+02  0.85075315259E+02  0.00000000000E+00 0.  1.
         21   -1    0    0  502  503 -0.00000000000E+00 -0.00000000000E+00 -0.88351136370E+03  0.88351136370E+03  0.00000000000E+00 0.  1.
          6    1    1    2  501    0 -0.17427011513E+03  0.44576494647E+02 -0.19875257219E+03  0.31904344823E+03  0.17300000000E+03 0.  1.
         -6    1    1    2    0  503  0.17427011513E+03 -0.44576494647E+02 -0.59968347624E+03  0.64954323073E+03  0.17300000000E+03 0.  1.
</event>
<event>
 4    1  0.6017350E+000  0.1000000E+03  0.7546771E-02  0.1280296E+00
         21   -1    0    0  503  502  0.00000000000E+00  0.00000000000E+00  0.99478960419E+02  0.99478960419E+02  0.00000000000E+00 0. -1.
         21   -1    0    0  501  503 -0.00000000000E+00 -0.00000000000E+00 -0.59002556176E+03  0.59002556176E+03  0.00000000000E+00 0. -1.
          6    1    1    2  501    0  0.11203858694E+03 -0.11012913051E+03 -0.33622383723E+03  0.40945883685E+03  0.17300000000E+03 0. -1.
         -6    1    1    2    0  502 -0.11203858694E+03  0.11012913051E+03 -0.15432276411E+03  0.28004568533E+03  0.17300000000E+03 0. -1.
</event>
<event>
 4    1  0.6017350E+000  0.1000000E+03  0.7546771E-02  0.1280296E+00
         21   -1    0    0  503  502  0.00000000000E+00  0.00000000000E+00  0.48347794629E+03  0.48347794629E+03  0.00000000000E+00 0. -1.
         21   -1    0    0  501  503 -0.00000000000E+00 -0.00000000000E+00 -0.89497874855E+02  0.89497874855E+02  0.00000000000E+00 0. -1.
          6    1    1    2  501    0  0.10080838991E+03 -0.35320801400E+02  0.13646388944E+03  0.24486993202E+03  0.17300000000E+03 0. -1.
         -6    1    1    2    0  502 -0.10080838991E+03  0.35320801400E+02  0.25751618200E+03  0.32810588912E+03  0.17300000000E+03 0. -1.
</event>
<event>
 4    1  0.6017350E+000  0.1000000E+03  0.7546771E-02  0.1280296E+00
         21   -1    0    0  503  502  0.00000000000E+00  0.00000000000E+00  0.97802026327E+02  0.97802026327E+02  0.00000000000E+00 0. -1.
         21   -1    0    0  501  503 -0.00000000000E+00 -0.00000000000E+00 -0.62647899535E+03  0.62647899535E+03  0.00000000000E+00 0. -1.
          6    1    1    2  501    0 -0.10481221388E+03 -0.35020324142E+02 -0.46668987092E+03  0.50984356316E+03  0.17300000000E+03 0. -1.
         -6    1    1    2    0  502  0.10481221388E+03  0.35020324142E+02 -0.61987098099E+02  0.21443745851E+03  0.17300000000E+03 0. -1.
</event>
<event>
 4    1  0.6017350E+000  0.1000000E+03  0.7546771E-02  0.1280296E+00
         21   -1    0    0  501  502  0.00000000000E+00  0.00000000000E+00  0.14003011671E+03  0.14003011671E+03  0.00000000000E+00 0. -1.
         21   -1    0    0  502  503 -0.00000000000E+00 -0.00000000000E+00 -0.47790529052E+03  0.47790529052E+03  0.00000000000E+00 0. -1.
          6    1    1    2  501    0  0.14597861013E+03  0.21870572179E+02 -0.21668638408E+02  0.22844388027E+03  0.17300000000E+03 0. -1.
         -6    1    1    2    0  503 -0.14597861013E+03 -0.21870572179E+02 -0.31620653541E+03  0.38949152696E+03  0.17300000000E+03 0. -1.
</event>
<event>
 4    1  0.6017350E+000  0.1000000E+03  0.7546771E-02  0.1280296E+00
         21   -1    0    0  503  502  0.00000000000E+00  0.00000000000E+00  0.17735962815E+03  0.17735962815E+03  0.00000000000E+00 0. -1.
         21   -1    0    0  501  503 -0.00000000000E+00 -0.00000000000E+00 -0.33296940593E+03  0.33296940593E+03  0.00000000000E+00 0. -1.
          6    1    1    2  501    0 -0.21587013120E+02 -0.74679108689E+00 -0.25556205003E+03  0.30936631725E+03  0.17300000000E+03 0. -1.
         -6    1    1    2    0  502  0.21587013120E+02  0.74679108689E+00  0.99952272248E+02  0.20096271684E+03  0.17300000000E+03 0. -1.
</event>
<event>
 4    1  0.6017350E+000  0.1000000E+03  0.7546771E-02  0.1280296E+00
         21   -1    0    0  503  502  0.00000000000E+00  0.00000000000E+00  0.45556116204E+03  0.45556116204E+03  0.00000000000E+00 0. -1.
         21   -1    0    0  501  503 -0.00000000000E+00 -0.00000000000E+00 -0.19875318774E+03  0.19875318774E+03  0.00000000000E+00 0. -1.
          6    1    1    2  501    0 -0.85550922993E+02  0.53641259046E+02 -0.11572687428E+03  0.23133969510E+03  0.17300000000E+03 0. -1.
         -6    1    1    2    0  502  0.85550922993E+02 -0.53641259046E+02  0.37253484858E+03  0.42297465468E+03  0.17300000000E+03 0. -1.
</event>
<event>
 4    1  0.6017350E+000  0.1000000E+03  0.7546771E-02  0.1280296E+00
         21   -1    0    0  503  502  0.00000000000E+00  0.00000000000E+00  0.22122848468E+03  0.22122848468E+03  0.00000000000E+00 0. -1.
         21   -1    0    0  501  503 -0.00000000000E+00 -0.00000000000E+00 -0.21377598517E+03  0.21377598517E+03  0.00000000000E+00 0. -1.
          6    1    1    2  501    0 -0.12983514062E+03 -0.14240217974E+02  0.21175578619E+02  0.21780117694E+03  0.17300000000E+03 0. -1.
         -6    1    1    2    0  502  0.12983514062E+03  0.14240217974E+02 -0.13723079112E+02  0.21720329290E+03  0.17300000000E+03 0. -1.
</event>
<event>
 4    1  0.6017350E+000  0.1000000E+03  0.7546771E-02  0.1280296E+00
         21   -1    0    0  503  502  0.00000000000E+00  0.00000000000E+00  0.12998703906E+03  0.12998703906E+03  0.00000000000E+00 0. -1.
         21   -1    0    0  501  503 -0.00000000000E+00 -0.00000000000E+00 -0.43163388217E+03  0.43163388217E+03  0.00000000000E+00 0. -1.
          6    1    1    2  501    0 -0.88639075364E+02 -0.16829908100E+02 -0.31004276063E+03  0.36632723747E+03  0.17300000000E+03 0. -1.
         -6    1    1    2    0  502  0.88639075364E+02  0.16829908100E+02  0.83959175216E+01  0.19529368377E+03  0.17300000000E+03 0. -1.
</event>
<event>
 4    1  0.6017350E+000  0.1000000E+03  0.7546771E-02  0.1280296E+00
         21   -1    0    0  501  502  0.00000000000E+00  0.00000000000E+00  0.51989991416E+02  0.51989991416E+02  0.00000000000E+00 0.  1.
         21   -1    0    0  502  503 -0.00000000000E+00 -0.00000000000E+00 -0.98995805531E+03  0.98995805531E+03  0.00000000000E+00 0.  1.
          6    1    1    2  501    0  0.11126405312E+03 -0.71475643380E+02 -0.61513430621E+03  0.65253940248E+03  0.17300000000E+03 0.  1.
         -6    1    1    2    0  503 -0.11126405312E+03  0.71475643380E+02 -0.32283375769E+03  0.38940864425E+03  0.17300000000E+03 0.  1.
</event>
<event>
 4    1  0.6017350E+000  0.1000000E+03  0.7546771E-02  0.1280296E+00
         21   -1    0    0  501  502  0.00000000000E+00  0.00000000000E+00  0.17104719801E+03  0.17104719801E+03  0.00000000000E+00 0.  1.
         21   -1    0    0  502  503 -0.00000000000E+00 -0.00000000000E+00 -0.41782479711E+03  0.41782479711E+03  0.00000000000E+00 0.  1.
          6    1    1    2  501    0  0.11831410915E+03  0.72691998423E+02  0.40920949734E+02  0.22557898658E+03  0.17300000000E+03 0.  1.
         -6    1    1    2    0  503 -0.11831410915E+03 -0.72691998423E+02 -0.28769854883E+03  0.36329300855E+03  0.17300000000E+03 0.  1.
</event>
<event>
 4    1  0.6017350E+000  0.1000000E+03  0.7546771E-02  0.1280296E+00
         21   -1    0    0  501  502  0.00000000000E+00  0.00000000000E+00  0.93427912084E+03  0.93427912084E+03  0.00000000000E+00 0. -1.
         21   -1    0    0  502  503 -0.00000000000E+00 -0.00000000000E+00 -0.92748609400E+02  0.92748609400E+02  0.00000000000E+00 0. -1.
          6    1    1    2  501    0 -0.91187939525E+02 -0.80136818230E+02  0.77821686591E+03  0.80640414206E+03  0.17300000000E+03 0. -1.
         -6    1    1    2    0  503  0.91187939525E+02  0.80136818230E+02  0.63313645534E+02  0.22062358818E+03  0.17300000000E+03 0. -1.
</event>
<event>
 4    1  0.6017350E+000  0.1000000E+03  0.7546771E-02  0.1280296E+00
         21   -1    0    0  501  502  0.00000000000E+00  0.00000000000E+00  0.10791891345E+03  0.10791891345E+03  0.00000000000E+00 0. -1.
         21   -1    0    0  502  503 -0.00000000000E+00 -0.00000000000E+00 -0.35200735551E+03  0.35200735551E+03  0.00000000000E+00 0. -1.
          6    1    1    2  501    0 -0.19128992785E+02 -0.18370334969E+02 -0.22323720600E+03  0.28366747736E+03  0.17300000000E+03 0. -1.
         -6    1    1    2    0  503  0.19128992785E+02  0.18370334969E+02 -0.20851236058E+02  0.17625879160E+03  0.17300000000E+03 0. -1.
</event>
<event>
 4    1  0.6017350E+000  0.1000000E+03  0.7546771E-02  0.1280296E+00
         21   -1    0    0  503  502  0.00000000000E+00  0.00000000000E+00  0.23102462317E+03  0.23102462317E+03  0.00000000000E+00 0. -1.
         21   -1    0    0  501  503 -0.00000000000E+00 -0.00000000000E+00 -0.29271159765E+03  0.29271159765E+03  0.00000000000E+00 0. -1.
          6    1    1    2  501    0  0.21806115854E+02 -0.83619636227E+01 -0.22493564943E+03  0.28472877534E+03  0.17300000000E+03 0. -1.
         -6    1    1    2    0  502 -0.21806115854E+02  0.83619636227E+01  0.16324867495E+03  0.23900744548E+03  0.17300000000E+03 0. -1.
</event>
<event>
 4    1  0.6017350E+000  0.1000000E+03  0.7546771E-02  0.1280296E+00
         21   -1    0    0  503  502  0.00000000000E+00  0.00000000000E+00  0.20672953990E+04  0.20672953990E+04  0.00000000000E+00 0. -1.
         21   -1    0    0  501  503 -0.00000000000E+00 -0.00000000000E+00 -0.24114866483E+02  0.24114866483E+02  0.00000000000E+00 0. -1.
          6    1    1    2  501    0  0.41948117535E+02 -0.12953010797E+02  0.39330761137E+03  0.43191122029E+03  0.17300000000E+03 0. -1.
         -6    1    1    2    0  502 -0.41948117535E+02  0.12953010797E+02  0.16498729211E+04  0.16594990452E+04  0.17300000000E+03 0. -1.
</event>
<event>
 4    1  0.6017350E+000  0.1000000E+03  0.7546771E-02  0.1280296E+00
         21   -1    0    0  501  502  0.00000000000E+00  0.00000000000E+00  0.18566813836E+03  0.18566813836E+03  0.00000000000E+00 0. -1.
         21   -1    0    0  502  503 -0.00000000000E+00 -0.00000000000E+00 -0.18183375138E+03  0.18183375138E+03  0.00000000000E+00 0. -1.
          6    1    1    2  501    0 -0.15292487388E+02 -0.50542631690E+02  0.34219359203E+02  0.18408797444E+03  0.17300000000E+03 0. -1.
         -6    1    1    2    0  503  0.15292487388E+02  0.50542631690E+02 -0.30384972219E+02  0.18341391530E+03  0.17300000000E+03 0. -1.
</event>
<event>
 4    1  0.6017350E+000  0.1000000E+03  0.7546771E-02  0.1280296E+00
         21   -1    0    0  501  502  0.00000000000E+00  0.00000000000E+00  0.16735330630E+04  0.16735330630E+04  0.00000000000E+00 0. -1.
         21   -1    0    0  502  503 -0.00000000000E+00 -0.00000000000E+00 -0.25636790374E+02  0.25636790374E+02  0.00000000000E+00 0. -1.
          6    1    1    2  501    0 -0.84522639476E+02 -0.15214200620E+02  0.11308723849E+04  0.11472475318E+04  0.17300000000E+03 0. -1.
         -6    1    1    2    0  503  0.84522639476E+02  0.15214200620E+02  0.51702388781E+03  0.55192232157E+03  0.17300000000E+03 0. -1.
</event>
<event>
 4    1  0.6017350E+000  0.1000000E+03  0.7546771E-02  0.1280296E+00
         21   -1    0    0  501  502  0.00000000000E+00  0.00000000000E+00  0.79428094555E+03  0.79428094555E+03  0.00000000000E+00 0. -1.
         21   -1    0    0  502  503 -0.00000000000E+00 -0.00000000000E+00 -0.81755260674E+02  0.81755260674E+02  0.00000000000E+00 0.  1.
          6    1    1    2  501    0 -0.99148724778E+02  0.11010301594E+03  0.55265642338E+03  0.59775518906E+03  0.17300000000E+03 0. -1.
         -6    1    1    2    0  503  0.99148724778E+02 -0.11010301594E+03  0.15986926150E+03  0.27828101717E+03  0.17300000000E+03 0.  1.
</event>
<event>
 4    1  0.6017350E+000  0.1000000E+03  0.7546771E-02  0.1280296E+00
         21   -1    0    0  501  502  0.00000000000E+00  0.00000000000E+00  0.47696432312E+03  0.47696432312E+03  0.00000000000E+00 0. -1.
         21   -1    0    0  502  503 -0.00000000000E+00 -0.00000000000E+00 -0.12716772966E+03  0.12716772966E+03  0.00000000000E+00 0.  1.
          6    1    1    2  501    0  0.66153813851E+02  0.11808216689E+03  0.31150811038E+03  0.38116404350E+03  0.17300000000E+03 0. -1.
         -6    1    1    2    0  503 -0.66153813851E+02 -0.11808216689E+03  0.38288483084E+02  0.22296800928E+03  0.17300000000E+03 0.  1.
</event>
<event>
 4    1  0.6017350E+000  0.1000000E+03  0.7546771E-02  0.1280296E+00
         21   -1    0    0  501  502  0.00000000000E+00  0.00000000000E+00  0.24796913136E+03  0.24796913136E+03  0.00000000000E+00 0. -1.
         21   -1    0    0  502  503 -0.00000000000E+00 -0.00000000000E+00 -0.19444099296E+03  0.19444099296E+03  0.00000000000E+00 0. -1.
          6    1    1    2  501    0 -0.12196324860E+03 -0.31423856943E+02  0.76361264365E+02  0.22720593190E+03  0.17300000000E+03 0. -1.
         -6    1    1    2    0  503  0.12196324860E+03  0.31423856943E+02 -0.22833125959E+02  0.21520419242E+03  0.17300000000E+03 0. -1.
</event>
<event>
 4    1  0.6017350E+000  0.1000000E+03  0.7546771E-02  0.1280296E+00
         21   -1    0    0  501  502  0.00000000000E+00  0.00000000000E+00  0.26953989755E+04  0.26953989755E+04  0.00000000000E+00 0. -1.
         21   -1    0    0  502  503 -0.00000000000E+00 -0.00000000000E+00 -0.17422392215E+02  0.17422392215E+02  0.00000000000E+00 0. -1.
          6    1    1    2  501    0  0.72973035368E+02  0.44899771211E+02  0.72282878571E+03  0.74816542743E+03  0.17300000000E+03 0. -1.
         -6    1    1    2    0  503 -0.72973035368E+02 -0.44899771211E+02  0.19551477976E+04  0.19646559403E+04  0.17300000000E+03 0. -1.
</event>
<event>
 4    1  0.6017350E+000  0.1000000E+03  0.7546771E-02  0.1280296E+00
         21   -1    0    0  501  502  0.00000000000E+00  0.00000000000E+00  0.74679876848E+02  0.74679876848E+02  0.00000000000E+00 0. -1.
         21   -1    0    0  502  503 -0.00000000000E+00 -0.00000000000E+00 -0.60860112272E+03  0.60860112272E+03  0.00000000000E+00 0. -1.
          6    1    1    2  501    0  0.50351914663E+02  0.76620662403E+01 -0.44916297874E+03  0.48401487998E+03  0.17300000000E+03 0. -1.
         -6    1    1    2    0  503 -0.50351914663E+02 -0.76620662403E+01 -0.84758267132E+02  0.19926611959E+03  0.17300000000E+03 0. -1.
</event>
<event>
 4    1  0.6017350E+000  0.1000000E+03  0.7546771E-02  0.1280296E+00
         21   -1    0    0  501  502  0.00000000000E+00  0.00000000000E+00  0.19610152113E+04  0.19610152113E+04  0.00000000000E+00 0. -1.
         21   -1    0    0  502  503 -0.00000000000E+00 -0.00000000000E+00 -0.33789138826E+02  0.33789138826E+02  0.00000000000E+00 0. -1.
          6    1    1    2  501    0  0.36328994226E+02 -0.18634489092E+03  0.89787943383E+03  0.93389543948E+03  0.17300000000E+03 0. -1.
         -6    1    1    2    0  503 -0.36328994226E+02  0.18634489092E+03  0.10293466387E+04  0.10609089107E+04  0.17300000000E+03 0. -1.
</event>
<event>
 4    1  0.6017350E+000  0.1000000E+03  0.7546771E-02  0.1280296E+00
         21   -1    0    0  501  502  0.00000000000E+00  0.00000000000E+00  0.58031891609E+02  0.58031891609E+02  0.00000000000E+00 0.  1.
         21   -1    0    0  502  503 -0.00000000000E+00 -0.00000000000E+00 -0.67078822821E+03  0.67078822821E+03  0.00000000000E+00 0.  1.
          6    1    1    2  501    0 -0.73205557519E+02  0.28386867776E+02 -0.20806626569E+03  0.28175421706E+03  0.17300000000E+03 0.  1.
         -6    1    1    2    0  503  0.73205557519E+02 -0.28386867776E+02 -0.40469007091E+03  0.44706590276E+03  0.17300000000E+03 0.  1.
</event>
<event>
 4    1  0.6017350E+000  0.1000000E+03  0.7546771E-02  0.1280296E+00
         21   -1    0    0  501  502  0.00000000000E+00  0.00000000000E+00  0.14285572712E+03  0.14285572712E+03  0.00000000000E+00 0. -1.
         21   -1    0    0  502  503 -0.00000000000E+00 -0.00000000000E+00 -0.45096582164E+03  0.45096582164E+03  0.00000000000E+00 0.  1.
          6    1    1    2  501    0  0.82366026934E+02  0.25542231502E+02  0.38364419872E+02  0.19707205965E+03  0.17300000000E+03 0.  1.
         -6    1    1    2    0  503 -0.82366026934E+02 -0.25542231502E+02 -0.34647451439E+03  0.39674948911E+03  0.17300000000E+03 0. -1.
</event>
<event>
 4    1  0.6017350E+000  0.1000000E+03  0.7546771E-02  0.1280296E+00
         21   -1    0    0  501  502  0.00000000000E+00  0.00000000000E+00  0.30091477117E+03  0.30091477117E+03  0.00000000000E+00 0. -1.
         21   -1    0    0  502  503 -0.00000000000E+00 -0.00000000000E+00 -0.16679154600E+03  0.16679154600E+03  0.00000000000E+00 0.  1.
          6    1    1    2  501    0  0.12460151041E+01  0.12056414753E+03  0.14603407798E+03  0.25649993792E+03  0.17300000000E+03 0.  1.
         -6    1    1    2    0  503 -0.12460151041E+01 -0.12056414753E+03 -0.11910852815E+02  0.21120637925E+03  0.17300000000E+03 0. -1.
</event>
<event>
 4    1  0.6017350E+000  0.1000000E+03  0.7546771E-02  0.1280296E+00
         21   -1    0    0  501  502  0.00000000000E+00  0.00000000000E+00  0.30156750556E+02  0.30156750556E+02  0.00000000000E+00 0. -1.
         21   -1    0    0  502  503 -0.00000000000E+00 -0.00000000000E+00 -0.13341530189E+04  0.13341530189E+04  0.00000000000E+00 0.  1.
          6    1    1    2  501    0  0.14628799143E+02 -0.84228985596E+02 -0.46584386058E+03  0.50423013220E+03  0.17300000000E+03 0. -1.
         -6    1    1    2    0  503 -0.14628799143E+02  0.84228985596E+02 -0.83815240773E+03  0.86007963722E+03  0.17300000000E+03 0.  1.
</event>
<event>
 4    1  0.6017350E+000  0.1000000E+03  0.7546771E-02  0.1280296E+00
         21   -1    0    0  501  502  0.00000000000E+00  0.00000000000E+00  0.27486786332E+02  0.27486786332E+02  0.00000000000E+00 0. -1.
         21   -1    0    0  502  503 -0.00000000000E+00 -0.00000000000E+00 -0.15527518873E+04  0.15527518873E+04  0.00000000000E+00 0.  1.
          6    1    1    2  501    0 -0.18514661989E+02  0.60760056384E+02 -0.40556302266E+03  0.44547159562E+03  0.17300000000E+03 0. -1.
         -6    1    1    2    0  503  0.18514661989E+02 -0.60760056384E+02 -0.11197020783E+04  0.11347670780E+04  0.17300000000E+03 0.  1.
</event>
<event>
 4    1  0.6017350E+000  0.1000000E+03  0.7546771E-02  0.1280296E+00
         21   -1    0    0  503  502  0.00000000000E+00  0.00000000000E+00  0.10761032555E+04  0.10761032555E+04  0.00000000000E+00 0.  1.
         21   -1    0    0  501  503 -0.00000000000E+00 -0.00000000000E+00 -0.66254892392E+02  0.66254892392E+02  0.00000000000E+00 0.  1.
          6    1    1    2  501    0 -0.83807657560E+02 -0.12183305017E+03  0.20620316387E+03  0.30710871100E+03  0.17300000000E+03 0.  1.
         -6    1    1    2    0  502  0.83807657560E+02  0.12183305017E+03  0.80364519925E+03  0.83524943691E+03  0.17300000000E+03 0.  1.
</event>
<event>
 4    1  0.6017350E+000  0.1000000E+03  0.7546771E-02  0.1280296E+00
         21   -1    0    0  503  502  0.00000000000E+00  0.00000000000E+00  0.12399184212E+04  0.12399184212E+04  0.00000000000E+00 0.  1.
         21   -1    0    0  501  503 -0.00000000000E+00 -0.00000000000E+00 -0.11322077249E+03  0.11322077249E+03  0.00000000000E+00 0.  1.
          6    1    1    2  501    0 -0.18772715770E+03 -0.11595008939E+03  0.11456178803E+03  0.30288498187E+03  0.17300000000E+03 0.  1.
         -6    1    1    2    0  502  0.18772715770E+03  0.11595008939E+03  0.10121358607E+04  0.10502542118E+04  0.17300000000E+03 0.  1.
</event>
<event>
 4    1  0.6017350E+000  0.1000000E+03  0.7546771E-02  0.1280296E+00
         21   -1    0    0  503  502  0.00000000000E+00  0.00000000000E+00  0.23080032587E+02  0.23080032587E+02  0.00000000000E+00 0.  1.
         21   -1    0    0  501  503 -0.00000000000E+00 -0.00000000000E+00 -0.17170579371E+04  0.17170579371E+04  0.00000000000E+00 0. -1.
          6    1    1    2  501    0  0.79114143124E+02 -0.57994358463E+02 -0.88567816557E+03  0.90773190217E+03  0.17300000000E+03 0. -1.
         -6    1    1    2    0  502 -0.79114143124E+02  0.57994358463E+02 -0.80829973892E+03  0.83240606749E+03  0.17300000000E+03 0. -1.
</event>
<event>
 4    1  0.6017350E+000  0.1000000E+03  0.7546771E-02  0.1280296E+00
         21   -1    0    0  503  502  0.00000000000E+00  0.00000000000E+00  0.13646077084E+03  0.13646077084E+03  0.00000000000E+00 0.  1.
         21   -1    0    0  501  503 -0.00000000000E+00 -0.00000000000E+00 -0.46288461168E+03  0.46288461168E+03  0.00000000000E+00 0. -1.
          6    1    1    2  501    0 -0.44082400530E+02  0.71842733961E+02 -0.35596123075E+03  0.40465050878E+03  0.17300000000E+03 0. -1.
         -6    1    1    2    0  502  0.44082400530E+02 -0.71842733961E+02  0.29537389914E+02  0.19469487374E+03  0.17300000000E+03 0. -1.
</event>
<event>
 4    1  0.6017350E+000  0.1000000E+03  0.7546771E-02  0.1280296E+00
         21   -1    0    0  503  502  0.00000000000E+00  0.00000000000E+00  0.68055013976E+02  0.68055013976E+02  0.00000000000E+00 0.  1.
         21   -1    0    0  501  503 -0.00000000000E+00 -0.00000000000E+00 -0.81460473690E+03  0.81460473690E+03  0.00000000000E+00 0. -1.
          6    1    1    2  501    0 -0.11494770049E+03 -0.11077609314E+03 -0.36397439649E+03  0.43346358320E+03  0.17300000000E+03 0. -1.
         -6    1    1    2    0  502  0.11494770049E+03  0.11077609314E+03 -0.38257532644E+03  0.44919616768E+03  0.17300000000E+03 0. -1.
</event>
<event>
 4    1  0.6017350E+000  0.1000000E+03  0.7546771E-02  0.1280296E+00
         21   -1    0    0  503  502  0.00000000000E+00  0.00000000000E+00  0.11392006928E+04  0.11392006928E+04  0.00000000000E+00 0.  1.
         21   -1    0    0  501  503 -0.00000000000E+00 -0.00000000000E+00 -0.52411622486E+02  0.52411622486E+02  0.00000000000E+00 0. -1.
          6    1    1    2  501    0 -0.12669008427E+03 -0.31520900385E+02  0.26823756800E+03  0.34485408146E+03  0.17300000000E+03 0. -1.
         -6    1    1    2    0  502  0.12669008427E+03  0.31520900385E+02  0.81855150232E+03  0.84675823383E+03  0.17300000000E+03 0. -1.
</event>
<event>
 4    1  0.6017350E+000  0.1000000E+03  0.7546771E-02  0.1280296E+00
         21   -1    0    0  503  502  0.00000000000E+00  0.00000000000E+00  0.42001961418E+02  0.42001961418E+02  0.00000000000E+00 0.  1.
         21   -1    0    0  501  503 -0.00000000000E+00 -0.00000000000E+00 -0.15558675744E+04  0.15558675744E+04  0.00000000000E+00 0. -1.
          6    1    1    2  501    0 -0.17548216773E+02  0.67619449394E+02 -0.13031003324E+04  0.13163889266E+04  0.17300000000E+03 0. -1.
         -6    1    1    2    0  502  0.17548216773E+02 -0.67619449394E+02 -0.21076528056E+03  0.28148060917E+03  0.17300000000E+03 0. -1.
</event>
<event>
 4    1  0.6017350E+000  0.1000000E+03  0.7546771E-02  0.1280296E+00
         21   -1    0    0  503  502  0.00000000000E+00  0.00000000000E+00  0.17196231380E+03  0.17196231380E+03  0.00000000000E+00 0.  1.
         21   -1    0    0  501  503 -0.00000000000E+00 -0.00000000000E+00 -0.27650473531E+03  0.27650473531E+03  0.00000000000E+00 0. -1.
          6    1    1    2  501    0 -0.14793798981E+02  0.40675219469E+02 -0.18130950815E+03  0.25431371908E+03  0.17300000000E+03 0.  1.
         -6    1    1    2    0  502  0.14793798981E+02 -0.40675219469E+02  0.76767086645E+02  0.19415333002E+03  0.17300000000E+03 0.  1.
</event>
<event>
 4    1  0.6017350E+000  0.1000000E+03  0.7546771E-02  0.1280296E+00
         21   -1    0    0  501  502  0.00000000000E+00  0.00000000000E+00  0.52468981200E+03  0.52468981200E+03  0.00000000000E+00 0.  1.
         21   -1    0    0  502  503 -0.00000000000E+00 -0.00000000000E+00 -0.71994869685E+02  0.71994869685E+02  0.00000000000E+00 0. -1.
          6    1    1    2  501    0 -0.33372132677E+02  0.49576040483E+01  0.35206607190E+03  0.39372299407E+03  0.17300000000E+03 0.  1.
         -6    1    1    2    0  503  0.33372132677E+02 -0.49576040483E+01  0.10062887041E+03  0.20296168761E+03  0.17300000000E+03 0. -1.
</event>
<event>
 4    1  0.6017350E+000  0.1000000E+03  0.7546771E-02  0.1280296E+00
         21   -1    0    0  501  502  0.00000000000E+00  0.00000000000E+00  0.29784984384E+03  0.29784984384E+03  0.00000000000E+00 0.  1.
         21   -1    0    0  502  503 -0.00000000000E+00 -0.00000000000E+00 -0.14944612490E+04  0.14944612490E+04  0.00000000000E+00 0. -1.
          6    1    1    2  501    0 -0.34729644869E+03 -0.49884491196E+02  0.12763772655E+03  0.41148958064E+03  0.17300000000E+03 0.  1.
         -6    1    1    2    0  503  0.34729644869E+03  0.49884491196E+02 -0.13242491317E+04  0.13808215122E+04  0.17300000000E+03 0. -1.
</event>
<event>
 4    1  0.6017350E+000  0.1000000E+03  0.7546771E-02  0.1280296E+00
         21   -1    0    0  501  502  0.00000000000E+00  0.00000000000E+00  0.29543628197E+03  0.29543628197E+03  0.00000000000E+00 0.  1.
         21   -1    0    0  502  503 -0.00000000000E+00 -0.00000000000E+00 -0.33313787158E+03  0.33313787158E+03  0.00000000000E+00 0. -1.
          6    1    1    2  501    0  0.66207301989E+02  0.47326966452E+02  0.23033215983E+03  0.29934119737E+03  0.17300000000E+03 0.  1.
         -6    1    1    2    0  503 -0.66207301989E+02 -0.47326966452E+02 -0.26803374944E+03  0.32923295617E+03  0.17300000000E+03 0. -1.
</event>
<event>
 4    1  0.6017350E+000  0.1000000E+03  0.7546771E-02  0.1280296E+00
         21   -1    0    0  503  502  0.00000000000E+00  0.00000000000E+00  0.14945446178E+03  0.14945446178E+03  0.00000000000E+00 0. -1.
         21   -1    0    0  501  503 -0.00000000000E+00 -0.00000000000E+00 -0.31262171689E+03  0.31262171689E+03  0.00000000000E+00 0. -1.
          6    1    1    2  501    0  0.42602646214E+02 -0.35123812483E+02 -0.20689561495E+03  0.27528796405E+03  0.17300000000E+03 0. -1.
         -6    1    1    2    0  502 -0.42602646214E+02  0.35123812483E+02  0.43728359833E+02  0.18678821462E+03  0.17300000000E+03 0. -1.
</event>
<event>
 4    1  0.6017350E+000  0.1000000E+03  0.7546771E-02  0.1280296E+00
         21   -1    0    0  501  502  0.00000000000E+00  0.00000000000E+00  0.41648642594E+03  0.41648642594E+03  0.00000000000E+00 0.  1.
         21   -1    0    0  502  503 -0.00000000000E+00 -0.00000000000E+00 -0.10674785997E+03  0.10674785997E+03  0.00000000000E+00 0.  1.
          6    1    1    2  501    0 -0.32895967855E+02 -0.69923549110E+02  0.26965483456E+03  0.32956665065E+03  0.17300000000E+03 0.  1.
         -6    1    1    2    0  503  0.32895967855E+02  0.69923549110E+02  0.40083731404E+02  0.19366763525E+03  0.17300000000E+03 0.  1.
</event>
<event>
 4    1  0.6017350E+000  0.1000000E+03  0.7546771E-02  0.1280296E+00
         21   -1    0    0  501  502  0.00000000000E+00  0.00000000000E+00  0.38499410249E+02  0.38499410249E+02  0.00000000000E+00 0. -1.
         21   -1    0    0  502  503 -0.00000000000E+00 -0.00000000000E+00 -0.11884564593E+04  0.11884564593E+04  0.00000000000E+00 0. -1.
          6    1    1    2  501    0  0.68927516581E+02 -0.65248455355E+02 -0.33817228517E+03  0.39153270352E+03  0.17300000000E+03 0. -1.
         -6    1    1    2    0  503 -0.68927516581E+02  0.65248455355E+02 -0.81178476386E+03  0.83542316601E+03  0.17300000000E+03 0. -1.
</event>
<event>
 4    1  0.6017350E+000  0.1000000E+03  0.7546771E-02  0.1280296E+00
         21   -1    0    0  501  502  0.00000000000E+00  0.00000000000E+00  0.33600308613E+03  0.33600308613E+03  0.00000000000E+00 0. -1.
         21   -1    0    0  502  503 -0.00000000000E+00 -0.00000000000E+00 -0.22047325549E+03  0.22047325549E+03  0.00000000000E+00 0. -1.
          6    1    1    2  501    0  0.14638034793E+02 -0.16143448832E+03  0.19444150404E+03  0.30661354271E+03  0.17300000000E+03 0. -1.
         -6    1    1    2    0  503 -0.14638034793E+02  0.16143448832E+03 -0.78911673388E+02  0.24986279891E+03  0.17300000000E+03 0. -1.
</event>
<event>
 4    1  0.6017350E+000  0.1000000E+03  0.7546771E-02  0.1280296E+00
         21   -1    0    0  503  502  0.00000000000E+00  0.00000000000E+00  0.14824102422E+03  0.14824102422E+03  0.00000000000E+00 0. -1.
         21   -1    0    0  501  503 -0.00000000000E+00 -0.00000000000E+00 -0.61516889507E+03  0.61516889507E+03  0.00000000000E+00 0. -1.
          6    1    1    2  501    0  0.43771582223E+02  0.95816660267E+02 -0.51657547584E+03  0.55486575496E+03  0.17300000000E+03 0. -1.
         -6    1    1    2    0  502 -0.43771582223E+02 -0.95816660267E+02  0.49647604987E+02  0.20854416433E+03  0.17300000000E+03 0. -1.
</event>
<event>
 4    1  0.6017350E+000  0.1000000E+03  0.7546771E-02  0.1280296E+00
         21   -1    0    0  503  502  0.00000000000E+00  0.00000000000E+00  0.11730424686E+04  0.11730424686E+04  0.00000000000E+00 0.  1.
         21   -1    0    0  501  503 -0.00000000000E+00 -0.00000000000E+00 -0.55494110512E+02  0.55494110512E+02  0.00000000000E+00 0.  1.
          6    1    1    2  501    0  0.28330580199E+02 -0.17348062182E+02  0.11442132859E+03  0.21005908091E+03  0.17300000000E+03 0.  1.
         -6    1    1    2    0  502 -0.28330580199E+02  0.17348062182E+02  0.10031270295E+04  0.10184774982E+04  0.17300000000E+03 0.  1.
</event>
<event>
 4    1  0.6017350E+000  0.1000000E+03  0.7546771E-02  0.1280296E+00
         21   -1    0    0  503  502  0.00000000000E+00  0.00000000000E+00  0.42382460157E+03  0.42382460157E+03  0.00000000000E+00 0.  1.
         21   -1    0    0  501  503 -0.00000000000E+00 -0.00000000000E+00 -0.83839254587E+02  0.83839254587E+02  0.00000000000E+00 0.  1.
          6    1    1    2  501    0 -0.88946843222E+01  0.64269775391E+02  0.22027624830E+03  0.28750712166E+03  0.17300000000E+03 0.  1.
         -6    1    1    2    0  502  0.88946843222E+01 -0.64269775391E+02  0.11970909868E+03  0.22015673450E+03  0.17300000000E+03 0.  1.
</event>
<event>
 4    1  0.6017350E+000  0.1000000E+03  0.7546771E-02  0.1280296E+00
         21   -1    0    0  501  502  0.00000000000E+00  0.00000000000E+00  0.26775163934E+02  0.26775163934E+02  0.00000000000E+00 0. -1.
         21   -1    0    0  502  503 -0.00000000000E+00 -0.00000000000E+00 -0.20881581148E+04  0.20881581148E+04  0.00000000000E+00 0. -1.
          6    1    1    2  501    0  0.34089924405E+02  0.10009288670E+03 -0.48660813635E+03  0.52715954631E+03  0.17300000000E+03 0. -1.
         -6    1    1    2    0  503 -0.34089924405E+02 -0.10009288670E+03 -0.15747748145E+04  0.15877737324E+04  0.17300000000E+03 0. -1.
</event>
<event>
 4    1  0.6017350E+000  0.1000000E+03  0.7546771E-02  0.1280296E+00
         21   -1    0    0  501  502  0.00000000000E+00  0.00000000000E+00  0.33689157196E+03  0.33689157196E+03  0.00000000000E+00 0. -1.
         21   -1    0    0  502  503 -0.00000000000E+00 -0.00000000000E+00 -0.38735740834E+03  0.38735740834E+03  0.00000000000E+00 0. -1.
          6    1    1    2  501    0 -0.87653898782E+02  0.27328642441E+03  0.11000231236E+03  0.35270126802E+03  0.17300000000E+03 0. -1.
         -6    1    1    2    0  503  0.87653898782E+02 -0.27328642441E+03 -0.16046814874E+03  0.37154771228E+03  0.17300000000E+03 0. -1.
</event>
<event>
 4    1  0.6017350E+000  0.1000000E+03  0.7546771E-02  0.1280296E+00
         21   -1    0    0  501  502  0.00000000000E+00  0.00000000000E+00  0.41833496641E+03  0.41833496641E+03  0.00000000000E+00 0. -1.
         21   -1    0    0  502  503 -0.00000000000E+00 -0.00000000000E+00 -0.15851398169E+03  0.15851398169E+03  0.00000000000E+00 0. -1.
          6    1    1    2  501    0  0.10169797609E+02 -0.33989961283E+02  0.33982354908E+03  0.38297230548E+03  0.17300000000E+03 0. -1.
         -6    1    1    2    0  503 -0.10169797609E+02  0.33989961283E+02 -0.80002564362E+02  0.19387664263E+03  0.17300000000E+03 0. -1.
</event>
<event>
 4    1  0.6017350E+000  0.1000000E+03  0.7546771E-02  0.1280296E+00
         21   -1    0    0  503  502  0.00000000000E+00  0.00000000000E+00  0.58424655967E+02  0.58424655967E+02  0.00000000000E+00 0. -1.
         21   -1    0    0  501  503 -0.00000000000E+00 -0.00000000000E+00 -0.85731707668E+03  0.85731707668E+03  0.00000000000E+00 0. -1.
          6    1    1    2  501    0 -0.80909076083E+02 -0.11248222871E+03 -0.46286514082E+03  0.51319749507E+03  0.17300000000E+03 0. -1.
         -6    1    1    2    0  502  0.80909076083E+02  0.11248222871E+03 -0.33602727990E+03  0.40254423758E+03  0.17300000000E+03 0. -1.
</event>
<event>
 4    1  0.6017350E+000  0.1000000E+03  0.7546771E-02  0.1280296E+00
         21   -1    0    0  503  502  0.00000000000E+00  0.00000000000E+00  0.50056710866E+02  0.50056710866E+02  0.00000000000E+00 0.  1.
         21   -1    0    0  501  503 -0.00000000000E+00 -0.00000000000E+00 -0.19624000785E+04  0.19624000785E+04  0.00000000000E+00 0.  1.
          6    1    1    2  501    0  0.23332610515E+02 -0.75106515921E+02 -0.17563310679E+04  0.17665823557E+04  0.17300000000E+03 0.  1.
         -6    1    1    2    0  502 -0.23332610515E+02  0.75106515921E+02 -0.15601229969E+03  0.24587443361E+03  0.17300000000E+03 0.  1.
</event>
<event>
 4    1  0.6017350E+000  0.1000000E+03  0.7546771E-02  0.1280296E+00
         21   -1    0    0  503  502  0.00000000000E+00  0.00000000000E+00  0.24965944889E+03  0.24965944889E+03  0.00000000000E+00 0. -1.
         21   -1    0    0  501  503 -0.00000000000E+00 -0.00000000000E+00 -0.54772187672E+03  0.54772187672E+03  0.00000000000E+00 0.  1.
          6    1    1    2  501    0  0.94417176418E+02  0.18462698581E+03 -0.42138745353E+03  0.50049786521E+03  0.17300000000E+03 0.  1.
         -6    1    1    2    0  502 -0.94417176418E+02 -0.18462698581E+03  0.12332502570E+03  0.29688346039E+03  0.17300000000E+03 0. -1.
</event>
<event>
 4    1  0.6017350E+000  0.1000000E+03  0.7546771E-02  0.1280296E+00
         21   -1    0    0  503  502  0.00000000000E+00  0.00000000000E+00  0.27721024617E+03  0.27721024617E+03  0.00000000000E+00 0. -1.
         21   -1    0    0  501  503 -0.00000000000E+00 -0.00000000000E+00 -0.59264796107E+03  0.59264796107E+03  0.00000000000E+00 0.  1.
          6    1    1    2  501    0  0.79439877658E+02  0.16900166405E+03 -0.49617175066E+03  0.55766267830E+03  0.17300000000E+03 0.  1.
         -6    1    1    2    0  502 -0.79439877658E+02 -0.16900166405E+03  0.18073403575E+03  0.31219552895E+03  0.17300000000E+03 0. -1.
</event>
<event>
 4    1  0.6017350E+000  0.1000000E+03  0.7546771E-02  0.1280296E+00
         21   -1    0    0  501  502  0.00000000000E+00  0.00000000000E+00  0.32655371808E+02  0.32655371808E+02  0.00000000000E+00 0. -1.
         21   -1    0    0  502  503 -0.00000000000E+00 -0.00000000000E+00 -0.16855954821E+04  0.16855954821E+04  0.00000000000E+00 0. -1.
          6    1    1    2  501    0 -0.37254131528E+02  0.12044046181E+03 -0.47483599982E+03  0.52085698794E+03  0.17300000000E+03 0. -1.
         -6    1    1    2    0  503  0.37254131528E+02 -0.12044046181E+03 -0.11781041105E+04  0.11973938660E+04  0.17300000000E+03 0. -1.
</event>
<event>
 4    1  0.6017350E+000  0.1000000E+03  0.7546771E-02  0.1280296E+00
         21   -1    0    0  501  502  0.00000000000E+00  0.00000000000E+00  0.13988338906E+04  0.13988338906E+04  0.00000000000E+00 0. -1.
         21   -1    0    0  502  503 -0.00000000000E+00 -0.00000000000E+00 -0.73658354331E+02  0.73658354331E+02  0.00000000000E+00 0. -1.
          6    1    1    2  501    0  0.87163605959E+02  0.16906173471E+03  0.11033491447E+04  0.11329111614E+04  0.17300000000E+03 0. -1.
         -6    1    1    2    0  503 -0.87163605959E+02 -0.16906173471E+03  0.22182639157E+03  0.33958108361E+03  0.17300000000E+03 0. -1.
</event>
<event>
 4    1  0.6017350E+000  0.1000000E+03  0.7546771E-02  0.1280296E+00
         21   -1    0    0  501  502  0.00000000000E+00  0.00000000000E+00  0.88218275972E+02  0.88218275972E+02  0.00000000000E+00 0. -1.
         21   -1    0    0  502  503 -0.00000000000E+00 -0.00000000000E+00 -0.73576208700E+03  0.73576208700E+03  0.00000000000E+00 0. -1.
          6    1    1    2  501    0  0.82598333791E+02 -0.15365552807E+03 -0.21473812132E+03  0.32630348879E+03  0.17300000000E+03 0. -1.
         -6    1    1    2    0  503 -0.82598333791E+02  0.15365552807E+03 -0.43280568971E+03  0.49767687418E+03  0.17300000000E+03 0. -1.
</event>
<event>
 4    1  0.6017350E+000  0.1000000E+03  0.7546771E-02  0.1280296E+00
         21   -1    0    0  503  502  0.00000000000E+00  0.00000000000E+00  0.78255446617E+02  0.78255446617E+02  0.00000000000E+00 0. -1.
         21   -1    0    0  501  503 -0.00000000000E+00 -0.00000000000E+00 -0.40323670609E+03  0.40323670609E+03  0.00000000000E+00 0.  1.
          6    1    1    2  501    0 -0.16551470787E+02  0.36079222195E+02 -0.17215078192E+03  0.24726615857E+03  0.17300000000E+03 0.  1.
         -6    1    1    2    0  502  0.16551470787E+02 -0.36079222195E+02 -0.15283047755E+03  0.23422599414E+03  0.17300000000E+03 0. -1.
</event>
<event>
 4    1  0.6017350E+000  0.1000000E+03  0.7546771E-02  0.1280296E+00
         21   -1    0    0  503  502  0.00000000000E+00  0.00000000000E+00  0.12477769192E+03  0.12477769192E+03  0.00000000000E+00 0.  1.
         21   -1    0    0  501  503 -0.00000000000E+00 -0.00000000000E+00 -0.25743415271E+03  0.25743415271E+03  0.00000000000E+00 0.  1.
          6    1    1    2  501    0 -0.34053299520E+02  0.32145951572E+02 -0.66566627569E+02  0.19118866419E+03  0.17300000000E+03 0.  1.
         -6    1    1    2    0  502  0.34053299520E+02 -0.32145951572E+02 -0.66089833223E+02  0.19102318044E+03  0.17300000000E+03 0.  1.
</event>
<event>
 4    1  0.6017350E+000  0.1000000E+03  0.7546771E-02  0.1280296E+00
         21   -1    0    0  503  502  0.00000000000E+00  0.00000000000E+00  0.22005435716E+02  0.22005435716E+02  0.00000000000E+00 0.  1.
         21   -1    0    0  501  503 -0.00000000000E+00 -0.00000000000E+00 -0.18941818800E+04  0.18941818800E+04  0.00000000000E+00 0.  1.
          6    1    1    2  501    0  0.61021449092E+02 -0.10655549401E+02 -0.13536193540E+04  0.13660349606E+04  0.17300000000E+03 0.  1.
         -6    1    1    2    0  502 -0.61021449092E+02  0.10655549401E+02 -0.51855709023E+03  0.55015235509E+03  0.17300000000E+03 0.  1.
</event>
<event>
 4    1  0.6017350E+000  0.1000000E+03  0.7546771E-02  0.1280296E+00
         21   -1    0    0  503  502  0.00000000000E+00  0.00000000000E+00  0.56078562743E+03  0.56078562743E+03  0.00000000000E+00 0. -1.
         21   -1    0    0  501  503 -0.00000000000E+00 -0.00000000000E+00 -0.55304810049E+02  0.55304810049E+02  0.00000000000E+00 0.  1.
          6    1    1    2  501    0 -0.23940131593E+02 -0.15395025125E+02  0.22373322323E+03  0.28424583000E+03  0.17300000000E+03 0.  1.
         -6    1    1    2    0  502  0.23940131593E+02  0.15395025125E+02  0.28174759416E+03  0.33184460748E+03  0.17300000000E+03 0. -1.
</event>
<event>
 4    1  0.6017350E+000  0.1000000E+03  0.7546771E-02  0.1280296E+00
         21   -1    0    0  503  502  0.00000000000E+00  0.00000000000E+00  0.10516243481E+04  0.10516243481E+04  0.00000000000E+00 0. -1.
         21   -1    0    0  501  503 -0.00000000000E+00 -0.00000000000E+00 -0.67550260432E+02  0.67550260432E+02  0.00000000000E+00 0.  1.
          6    1    1    2  501    0  0.24208183683E+02 -0.24553580007E+02  0.72551473072E+02  0.19073969354E+03  0.17300000000E+03 0.  1.
         -6    1    1    2    0  502 -0.24208183683E+02  0.24553580007E+02  0.91152261461E+03  0.92843491501E+03  0.17300000000E+03 0. -1.
</event>
<event>
 4    1  0.6017350E+000  0.1000000E+03  0.7546771E-02  0.1280296E+00
         21   -1    0    0  503  502  0.00000000000E+00  0.00000000000E+00  0.32884358830E+03  0.32884358830E+03  0.00000000000E+00 0. -1.
         21   -1    0    0  501  503 -0.00000000000E+00 -0.00000000000E+00 -0.16951462982E+03  0.16951462982E+03  0.00000000000E+00 0.  1.
          6    1    1    2  501    0 -0.14096237977E+03 -0.77075629927E+02  0.81709297354E+02  0.24983285315E+03  0.17300000000E+03 0.  1.
         -6    1    1    2    0  502  0.14096237977E+03  0.77075629927E+02  0.77619661130E+02  0.24852536497E+03  0.17300000000E+03 0. -1.
</event>
<event>
 4    1  0.6017350E+000  0.1000000E+03  0.7546771E-02  0.1280296E+00
         21   -1    0    0  503  502  0.00000000000E+00  0.00000000000E+00  0.58133879887E+03  0.58133879887E+03  0.00000000000E+00 0. -1.
         21   -1    0    0  501  503 -0.00000000000E+00 -0.00000000000E+00 -0.16348715578E+03  0.16348715578E+03  0.00000000000E+00 0.  1.
          6    1    1    2  501    0 -0.19718817942E+02  0.28846173908E+02 -0.96418502725E+02  0.20111305576E+03  0.17300000000E+03 0.  1.
         -6    1    1    2    0  502  0.19718817942E+02 -0.28846173908E+02  0.51427014582E+03  0.54371289888E+03  0.17300000000E+03 0. -1.
</event>
<event>
 4    1  0.6017350E+000  0.1000000E+03  0.7546771E-02  0.1280296E+00
         21   -1    0    0  503  502  0.00000000000E+00  0.00000000000E+00  0.43711756522E+03  0.43711756522E+03  0.00000000000E+00 0. -1.
         21   -1    0    0  501  503 -0.00000000000E+00 -0.00000000000E+00 -0.10028668287E+03  0.10028668287E+03  0.00000000000E+00 0.  1.
          6    1    1    2  501    0 -0.38066562254E+02  0.96792496868E+02  0.97073480900E+02  0.22398685521E+03  0.17300000000E+03 0.  1.
         -6    1    1    2    0  502  0.38066562254E+02 -0.96792496868E+02  0.23975740145E+03  0.31341739288E+03  0.17300000000E+03 0. -1.
</event>
<event>
 4    1  0.6017350E+000  0.1000000E+03  0.7546771E-02  0.1280296E+00
         21   -1    0    0  503  502  0.00000000000E+00  0.00000000000E+00  0.73360267080E+02  0.73360267080E+02  0.00000000000E+00 0. -1.
         21   -1    0    0  501  503 -0.00000000000E+00 -0.00000000000E+00 -0.82043665941E+03  0.82043665941E+03  0.00000000000E+00 0.  1.
          6    1    1    2  501    0  0.12266503395E+03  0.76790386092E+02 -0.19772688650E+03  0.29994732137E+03  0.17300000000E+03 0.  1.
         -6    1    1    2    0  502 -0.12266503395E+03 -0.76790386092E+02 -0.54934950583E+03  0.59384960512E+03  0.17300000000E+03 0. -1.
</event>
<event>
 4    1  0.6017350E+000  0.1000000E+03  0.7546771E-02  0.1280296E+00
         21   -1    0    0  501  502  0.00000000000E+00  0.00000000000E+00  0.54887337616E+03  0.54887337616E+03  0.00000000000E+00 0. -1.
         21   -1    0    0  502  503 -0.00000000000E+00 -0.00000000000E+00 -0.64076291154E+02  0.64076291154E+02  0.00000000000E+00 0. -1.
          6    1    1    2  501    0  0.42052402262E+02  0.58877444492E+02  0.24633841580E+03  0.30959097710E+03  0.17300000000E+03 0. -1.
         -6    1    1    2    0  503 -0.42052402262E+02 -0.58877444492E+02  0.23845866921E+03  0.30335869021E+03  0.17300000000E+03 0. -1.
</event>
<event>
 4    1  0.6017350E+000  0.1000000E+03  0.7546771E-02  0.1280296E+00
         21   -1    0    0  501  502  0.00000000000E+00  0.00000000000E+00  0.33707250926E+03  0.33707250926E+03  0.00000000000E+00 0. -1.
         21   -1    0    0  502  503 -0.00000000000E+00 -0.00000000000E+00 -0.36543036934E+03  0.36543036934E+03  0.00000000000E+00 0. -1.
          6    1    1    2  501    0  0.48228146951E+02 -0.10023647001E+03  0.27043699714E+03  0.33976237800E+03  0.17300000000E+03 0. -1.
         -6    1    1    2    0  503 -0.48228146951E+02  0.10023647001E+03 -0.29879485722E+03  0.36274050060E+03  0.17300000000E+03 0. -1.
</event>
<event>
 4    1  0.6017350E+000  0.1000000E+03  0.7546771E-02  0.1280296E+00
         21   -1    0    0  503  502  0.00000000000E+00  0.00000000000E+00  0.87561783860E+02  0.87561783860E+02  0.00000000000E+00 0. -1.
         21   -1    0    0  501  503 -0.00000000000E+00 -0.00000000000E+00 -0.86125436961E+03  0.86125436961E+03  0.00000000000E+00 0. -1.
          6    1    1    2  501    0 -0.12090038076E+03  0.17988644529E+02 -0.68876378947E+03  0.72060047952E+03  0.17300000000E+03 0. -1.
         -6    1    1    2    0  502  0.12090038076E+03 -0.17988644529E+02 -0.84928796281E+02  0.22821567395E+03  0.17300000000E+03 0. -1.
</event>
<event>
 4    1  0.6017350E+000  0.1000000E+03  0.7546771E-02  0.1280296E+00
         21   -1    0    0  501  502  0.00000000000E+00  0.00000000000E+00  0.13283378710E+03  0.13283378710E+03  0.00000000000E+00 0. -1.
         21   -1    0    0  502  503 -0.00000000000E+00 -0.00000000000E+00 -0.71560076441E+03  0.71560076441E+03  0.00000000000E+00 0. -1.
          6    1    1    2  501    0  0.20376016480E+03 -0.14044873005E+03 -0.20564471153E+03  0.36532560533E+03  0.17300000000E+03 0. -1.
         -6    1    1    2    0  503 -0.20376016480E+03  0.14044873005E+03 -0.37712226577E+03  0.48310894617E+03  0.17300000000E+03 0. -1.
</event>
<event>
 4    1  0.6017350E+000  0.1000000E+03  0.7546771E-02  0.1280296E+00
         21   -1    0    0  501  502  0.00000000000E+00  0.00000000000E+00  0.32716925323E+03  0.32716925323E+03  0.00000000000E+00 0.  1.
         21   -1    0    0  502  503 -0.00000000000E+00 -0.00000000000E+00 -0.29272706402E+03  0.29272706402E+03  0.00000000000E+00 0.  1.
          6    1    1    2  501    0 -0.73669062571E+02 -0.58234702305E+02  0.25638727989E+03  0.32323652118E+03  0.17300000000E+03 0.  1.
         -6    1    1    2    0  503  0.73669062571E+02  0.58234702305E+02 -0.22194509068E+03  0.29665979608E+03  0.17300000000E+03 0.  1.
</event>
<event>
 4    1  0.6017350E+000  0.1000000E+03  0.7546771E-02  0.1280296E+00
         21   -1    0    0  501  502  0.00000000000E+00  0.00000000000E+00  0.20398556058E+03  0.20398556058E+03  0.00000000000E+00 0.  1.
         21   -1    0    0  502  503 -0.00000000000E+00 -0.00000000000E+00 -0.36380044596E+03  0.36380044596E+03  0.00000000000E+00 0.  1.
          6    1    1    2  501    0  0.92351902580E+02 -0.53577997709E+01  0.11706256784E+03  0.22845179955E+03  0.17300000000E+03 0.  1.
         -6    1    1    2    0  503 -0.92351902580E+02  0.53577997709E+01 -0.27687745322E+03  0.33933420699E+03  0.17300000000E+03 0.  1.
</event>
<event>
 4    1  0.6017350E+000  0.1000000E+03  0.7546771E-02  0.1280296E+00
         21   -1    0    0  503  502  0.00000000000E+00  0.00000000000E+00  0.56461363227E+03  0.56461363227E+03  0.00000000000E+00 0. -1.
         21   -1    0    0  501  503 -0.00000000000E+00 -0.00000000000E+00 -0.20441371710E+03  0.20441371710E+03  0.00000000000E+00 0.  1.
          6    1    1    2  501    0  0.21596826595E+02 -0.33904523351E+02 -0.14768119462E+03  0.23098630883E+03  0.17300000000E+03 0.  1.
         -6    1    1    2    0  502 -0.21596826595E+02  0.33904523351E+02  0.50788110979E+03  0.53804104054E+03  0.17300000000E+03 0. -1.
</event>
<event>
 4    1  0.6017350E+000  0.1000000E+03  0.7546771E-02  0.1280296E+00
         21   -1    0    0  503  502  0.00000000000E+00  0.00000000000E+00  0.35483993243E+02  0.35483993243E+02  0.00000000000E+00 0. -1.
         21   -1    0    0  501  503 -0.00000000000E+00 -0.00000000000E+00 -0.10219397691E+04  0.10219397691E+04  0.00000000000E+00 0.  1.
          6    1    1    2  501    0 -0.15796269855E+02  0.75928807417E+01 -0.70876230366E+03  0.72978091033E+03  0.17300000000E+03 0.  1.
         -6    1    1    2    0  502  0.15796269855E+02 -0.75928807417E+01 -0.27769347219E+03  0.32764285201E+03  0.17300000000E+03 0. -1.
</event>
<event>
 4    1  0.6017350E+000  0.1000000E+03  0.7546771E-02  0.1280296E+00
         21   -1    0    0  503  502  0.00000000000E+00  0.00000000000E+00  0.55713907392E+03  0.55713907392E+03  0.00000000000E+00 0.  1.
         21   -1    0    0  501  503 -0.00000000000E+00 -0.00000000000E+00 -0.12994246819E+03  0.12994246819E+03  0.00000000000E+00 0.  1.
          6    1    1    2  501    0  0.14365934035E+03  0.14631808884E+03  0.18743064836E+03  0.32727089259E+03  0.17300000000E+03 0.  1.
         -6    1    1    2    0  502 -0.14365934035E+03 -0.14631808884E+03  0.23976595738E+03  0.35981064952E+03  0.17300000000E+03 0.  1.
</event>
<event>
 4    1  0.6017350E+000  0.1000000E+03  0.7546771E-02  0.1280296E+00
         21   -1    0    0  503  502  0.00000000000E+00  0.00000000000E+00  0.30997691635E+03  0.30997691635E+03  0.00000000000E+00 0.  1.
         21   -1    0    0  501  503 -0.00000000000E+00 -0.00000000000E+00 -0.28678063089E+03  0.28678063089E+03  0.00000000000E+00 0.  1.
          6    1    1    2  501    0 -0.20084936630E+02  0.22427079820E+02 -0.22954051803E+03  0.28900558473E+03  0.17300000000E+03 0.  1.
         -6    1    1    2    0  502  0.20084936630E+02 -0.22427079820E+02  0.25273680350E+03  0.30775196251E+03  0.17300000000E+03 0.  1.
</event>
<event>
 4    1  0.6017350E+000  0.1000000E+03  0.7546771E-02  0.1280296E+00
         21   -1    0    0  503  502  0.00000000000E+00  0.00000000000E+00  0.12464726323E+03  0.12464726323E+03  0.00000000000E+00 0. -1.
         21   -1    0    0  501  503 -0.00000000000E+00 -0.00000000000E+00 -0.45951437471E+03  0.45951437471E+03  0.00000000000E+00 0. -1.
          6    1    1    2  501    0  0.80651863835E+02  0.13708700396E+03 -0.22269939437E+03  0.32376162535E+03  0.17300000000E+03 0. -1.
         -6    1    1    2    0  502 -0.80651863835E+02 -0.13708700396E+03 -0.11216771711E+03  0.26040001259E+03  0.17300000000E+03 0. -1.
</event>
<event>
 4    1  0.6017350E+000  0.1000000E+03  0.7546771E-02  0.1280296E+00
         21   -1    0    0  503  502  0.00000000000E+00  0.00000000000E+00  0.26247669899E+03  0.26247669899E+03  0.00000000000E+00 0. -1.
         21   -1    0    0  501  503 -0.00000000000E+00 -0.00000000000E+00 -0.45694883044E+03  0.45694883044E+03  0.00000000000E+00 0. -1.
          6    1    1    2  501    0  0.31133644963E+00 -0.45115058097E+02 -0.40530914218E+03  0.44298980364E+03  0.17300000000E+03 0. -1.
         -6    1    1    2    0  502 -0.31133644963E+00  0.45115058097E+02  0.21083701073E+03  0.27643572579E+03  0.17300000000E+03 0. -1.
</event>
<event>
 4    1  0.6017350E+000  0.1000000E+03  0.7546771E-02  0.1280296E+00
         21   -1    0    0  501  502  0.00000000000E+00  0.00000000000E+00  0.18116295807E+03  0.18116295807E+03  0.00000000000E+00 0.  1.
         21   -1    0    0  502  503 -0.00000000000E+00 -0.00000000000E+00 -0.55095446207E+03  0.55095446207E+03  0.00000000000E+00 0.  1.
          6    1    1    2  501    0  0.24144571275E+03 -0.24957983192E+02 -0.63569515628E+02  0.30477699461E+03  0.17300000000E+03 0.  1.
         -6    1    1    2    0  503 -0.24144571275E+03  0.24957983192E+02 -0.30622198837E+03  0.42734042553E+03  0.17300000000E+03 0.  1.
</event>
<event>
 4    1  0.6017350E+000  0.1000000E+03  0.7546771E-02  0.1280296E+00
         21   -1    0    0  501  502  0.00000000000E+00  0.00000000000E+00  0.73499307667E+03  0.73499307667E+03  0.00000000000E+00 0.  1.
         21   -1    0    0  502  503 -0.00000000000E+00 -0.00000000000E+00 -0.62435235433E+02  0.62435235433E+02  0.00000000000E+00 0.  1.
          6    1    1    2  501    0  0.41472732941E+02 -0.10071939076E+03  0.45540024232E+03  0.49918209499E+03  0.17300000000E+03 0.  1.
         -6    1    1    2    0  503 -0.41472732941E+02  0.10071939076E+03  0.21715759891E+03  0.29824621711E+03  0.17300000000E+03 0.  1.
</event>
<event>
 4    1  0.6017350E+000  0.1000000E+03  0.7546771E-02  0.1280296E+00
         21   -1    0    0  501  502  0.00000000000E+00  0.00000000000E+00  0.58564398637E+02  0.58564398637E+02  0.00000000000E+00 0.  1.
         21   -1    0    0  502  503 -0.00000000000E+00 -0.00000000000E+00 -0.10775441445E+04  0.10775441445E+04  0.00000000000E+00 0.  1.
          6    1    1    2  501    0  0.36795830244E+02 -0.17481502777E+03 -0.42914267052E+03  0.49599058329E+03  0.17300000000E+03 0.  1.
         -6    1    1    2    0  503 -0.36795830244E+02  0.17481502777E+03 -0.58983707530E+03  0.64011795980E+03  0.17300000000E+03 0.  1.
</event>
<event>
 4    1  0.6017350E+000  0.1000000E+03  0.7546771E-02  0.1280296E+00
         21   -1    0    0  503  502  0.00000000000E+00  0.00000000000E+00  0.14736948098E+04  0.14736948098E+04  0.00000000000E+00 0.  1.
         21   -1    0    0  501  503 -0.00000000000E+00 -0.00000000000E+00 -0.55224564524E+02  0.55224564524E+02  0.00000000000E+00 0. -1.
          6    1    1    2  501    0 -0.30156607580E+02 -0.10528845147E+03  0.17692636018E+03  0.27060490742E+03  0.17300000000E+03 0. -1.
         -6    1    1    2    0  502  0.30156607580E+02  0.10528845147E+03  0.12415438851E+04  0.12583144669E+04  0.17300000000E+03 0.  1.
</event>
<event>
 4    1  0.6017350E+000  0.1000000E+03  0.7546771E-02  0.1280296E+00
         21   -1    0    0  503  502  0.00000000000E+00  0.00000000000E+00  0.27481378684E+03  0.27481378684E+03  0.00000000000E+00 0.  1.
         21   -1    0    0  501  503 -0.00000000000E+00 -0.00000000000E+00 -0.27781558560E+03  0.27781558560E+03  0.00000000000E+00 0. -1.
          6    1    1    2  501    0 -0.49552286323E+02 -0.13518399203E+03 -0.16177931432E+03  0.27718529421E+03  0.17300000000E+03 0. -1.
         -6    1    1    2    0  502  0.49552286323E+02  0.13518399203E+03  0.15877751557E+03  0.27544407823E+03  0.17300000000E+03 0.  1.
</event>
<event>
 4    1  0.6017350E+000  0.1000000E+03  0.7546771E-02  0.1280296E+00
         21   -1    0    0  501  502  0.00000000000E+00  0.00000000000E+00  0.91167641773E+02  0.91167641773E+02  0.00000000000E+00 0.  1.
         21   -1    0    0  502  503 -0.00000000000E+00 -0.00000000000E+00 -0.19108334714E+04  0.19108334714E+04  0.00000000000E+00 0. -1.
          6    1    1    2  501    0 -0.40379472477E+02 -0.19544573331E+02 -0.52443399917E+01  0.17879875628E+03  0.17300000000E+03 0.  1.
         -6    1    1    2    0  503  0.40379472477E+02  0.19544573331E+02 -0.18144214897E+04  0.18232023569E+04  0.17300000000E+03 0. -1.
</event>
<event>
 4    1  0.6017350E+000  0.1000000E+03  0.7546771E-02  0.1280296E+00
         21   -1    0    0  501  502  0.00000000000E+00  0.00000000000E+00  0.86201150799E+03  0.86201150799E+03  0.00000000000E+00 0.  1.
         21   -1    0    0  502  503 -0.00000000000E+00 -0.00000000000E+00 -0.84334860959E+02  0.84334860959E+02  0.00000000000E+00 0. -1.
          6    1    1    2  501    0  0.10569757935E+03 -0.93740984850E+02  0.65388094622E+03  0.69097658597E+03  0.17300000000E+03 0.  1.
         -6    1    1    2    0  503 -0.10569757935E+03  0.93740984850E+02  0.12379570081E+03  0.25536978298E+03  0.17300000000E+03 0. -1.
</event>
<event>
 4    1  0.6017350E+000  0.1000000E+03  0.7546771E-02  0.1280296E+00
         21   -1    0    0  501  502  0.00000000000E+00  0.00000000000E+00  0.66183170299E+03  0.66183170299E+03  0.00000000000E+00 0.  1.
         21   -1    0    0  502  503 -0.00000000000E+00 -0.00000000000E+00 -0.22527912974E+03  0.22527912974E+03  0.00000000000E+00 0. -1.
          6    1    1    2  501    0 -0.11750380130E+03 -0.79729788475E+02  0.57971922797E+03  0.62142366045E+03  0.17300000000E+03 0.  1.
         -6    1    1    2    0  503  0.11750380130E+03  0.79729788475E+02 -0.14316665472E+03  0.26568717228E+03  0.17300000000E+03 0. -1.
</event>
<event>
 4    1  0.6017350E+000  0.1000000E+03  0.7546771E-02  0.1280296E+00
         21   -1    0    0  503  502  0.00000000000E+00  0.00000000000E+00  0.15394601217E+03  0.15394601217E+03  0.00000000000E+00 0. -1.
         21   -1    0    0  501  503 -0.00000000000E+00 -0.00000000000E+00 -0.13349712804E+04  0.13349712804E+04  0.00000000000E+00 0. -1.
          6    1    1    2  501    0  0.24851360203E+03 -0.25742377580E+03 -0.94863747229E+03  0.10285271336E+04  0.17300000000E+03 0. -1.
         -6    1    1    2    0  502 -0.24851360203E+03  0.25742377580E+03 -0.23238779590E+03  0.46039015891E+03  0.17300000000E+03 0. -1.
</event>
<event>
 4    1  0.6017350E+000  0.1000000E+03  0.7546771E-02  0.1280296E+00
         21   -1    0    0  503  502  0.00000000000E+00  0.00000000000E+00  0.22715168613E+04  0.22715168613E+04  0.00000000000E+00 0.  1.
         21   -1    0    0  501  503 -0.00000000000E+00 -0.00000000000E+00 -0.14881664521E+02  0.14881664521E+02  0.00000000000E+00 0.  1.
          6    1    1    2  501    0 -0.21952761443E+02  0.56568824292E+02  0.10419377071E+04  0.10579438270E+04  0.17300000000E+03 0.  1.
         -6    1    1    2    0  502  0.21952761443E+02 -0.56568824292E+02  0.12146974896E+04  0.12284546988E+04  0.17300000000E+03 0.  1.
</event>
<event>
 4    1  0.6017350E+000  0.1000000E+03  0.7546771E-02  0.1280296E+00
         21   -1    0    0  503  502  0.00000000000E+00  0.00000000000E+00  0.11853075463E+04  0.11853075463E+04  0.00000000000E+00 0.  1.
         21   -1    0    0  501  503 -0.00000000000E+00 -0.00000000000E+00 -0.68137590029E+02  0.68137590029E+02  0.00000000000E+00 0.  1.
          6    1    1    2  501    0 -0.36175901775E+02  0.73055056785E+02  0.95004860619E+02  0.21354311212E+03  0.17300000000E+03 0.  1.
         -6    1    1    2    0  502  0.36175901775E+02 -0.73055056785E+02  0.10221650957E+04  0.10399020242E+04  0.17300000000E+03 0.  1.
</event>
<event>
 4    1  0.6017350E+000  0.1000000E+03  0.7546771E-02  0.1280296E+00
         21   -1    0    0  503  502  0.00000000000E+00  0.00000000000E+00  0.52427211010E+02  0.52427211010E+02  0.00000000000E+00 0.  1.
         21   -1    0    0  501  503 -0.00000000000E+00 -0.00000000000E+00 -0.19162991725E+04  0.19162991725E+04  0.00000000000E+00 0.  1.
          6    1    1    2  501    0  0.25747057541E+03 -0.63719012209E+02 -0.88957996871E+03  0.94426306210E+03  0.17300000000E+03 0.  1.
         -6    1    1    2    0  502 -0.25747057541E+03  0.63719012209E+02 -0.97429199277E+03  0.10244633214E+04  0.17300000000E+03 0.  1.
</event>
<event>
 4    1  0.6017350E+000  0.1000000E+03  0.7546771E-02  0.1280296E+00
         21   -1    0    0  503  502  0.00000000000E+00  0.00000000000E+00  0.12441273397E+03  0.12441273397E+03  0.00000000000E+00 0.  1.
         21   -1    0    0  501  503 -0.00000000000E+00 -0.00000000000E+00 -0.37758129617E+03  0.37758129617E+03  0.00000000000E+00 0.  1.
          6    1    1    2  501    0  0.90486055915E+02  0.19390856131E-01 -0.23558466452E+03  0.30596872528E+03  0.17300000000E+03 0.  1.
         -6    1    1    2    0  502 -0.90486055915E+02 -0.19390856131E-01 -0.17583897683E+02  0.19602530487E+03  0.17300000000E+03 0.  1.
</event>
<event>
 4    1  0.6017350E+000  0.1000000E+03  0.7546771E-02  0.1280296E+00
         21   -1    0    0  501  502  0.00000000000E+00  0.00000000000E+00  0.25584990612E+03  0.25584990612E+03  0.00000000000E+00 0.  1.
         21   -1    0    0  502  503 -0.00000000000E+00 -0.00000000000E+00 -0.37935108199E+03  0.37935108199E+03  0.00000000000E+00 0.  1.
          6    1    1    2  501    0  0.14311784747E+03  0.70155233577E+02  0.14648648562E+03  0.27711327202E+03  0.17300000000E+03 0.  1.
         -6    1    1    2    0  503 -0.14311784747E+03 -0.70155233577E+02 -0.26998766149E+03  0.35808771609E+03  0.17300000000E+03 0.  1.
</event>
<event>
 4    1  0.6017350E+000  0.1000000E+03  0.7546771E-02  0.1280296E+00
         21   -1    0    0  501  502  0.00000000000E+00  0.00000000000E+00  0.27986999951E+03  0.27986999951E+03  0.00000000000E+00 0.  1.
         21   -1    0    0  502  503 -0.00000000000E+00 -0.00000000000E+00 -0.15844908592E+03  0.15844908592E+03  0.00000000000E+00 0.  1.
          6    1    1    2  501    0  0.56208087974E+02 -0.77673491694E+02  0.13592872745E+03  0.23999612374E+03  0.17300000000E+03 0.  1.
         -6    1    1    2    0  503 -0.56208087974E+02  0.77673491694E+02 -0.14507813861E+02  0.19832296168E+03  0.17300000000E+03 0.  1.
</event>
<event>
 4    1  0.6017350E+000  0.1000000E+03  0.7546771E-02  0.1280296E+00
         21   -1    0    0  501  502  0.00000000000E+00  0.00000000000E+00  0.27253934306E+03  0.27253934306E+03  0.00000000000E+00 0.  1.
         21   -1    0    0  502  503 -0.00000000000E+00 -0.00000000000E+00 -0.17250391939E+03  0.17250391939E+03  0.00000000000E+00 0.  1.
          6    1    1    2  501    0  0.49951886670E+01 -0.99196548015E+02 -0.37185543438E+02  0.20292035799E+03  0.17300000000E+03 0.  1.
         -6    1    1    2    0  503 -0.49951886670E+01  0.99196548015E+02  0.13722096711E+03  0.24212290446E+03  0.17300000000E+03 0.  1.
</event>
<event>
 4    1  0.6017350E+000  0.1000000E+03  0.7546771E-02  0.1280296E+00
         21   -1    0    0  501  502  0.00000000000E+00  0.00000000000E+00  0.70636934533E+02  0.70636934533E+02  0.00000000000E+00 0.  1.
         21   -1    0    0  502  503 -0.00000000000E+00 -0.00000000000E+00 -0.48610937201E+03  0.48610937201E+03  0.00000000000E+00 0.  1.
          6    1    1    2  501    0 -0.15104529160E+02 -0.44379348883E+02 -0.13710450295E+03  0.22566417114E+03  0.17300000000E+03 0.  1.
         -6    1    1    2    0  503  0.15104529160E+02  0.44379348883E+02 -0.27836793453E+03  0.33108213540E+03  0.17300000000E+03 0.  1.
</event>
<event>
 4    1  0.6017350E+000  0.1000000E+03  0.7546771E-02  0.1280296E+00
         21   -1    0    0  503  502  0.00000000000E+00  0.00000000000E+00  0.61096767940E+02  0.61096767940E+02  0.00000000000E+00 0. -1.
         21   -1    0    0  501  503 -0.00000000000E+00 -0.00000000000E+00 -0.57077912152E+03  0.57077912152E+03  0.00000000000E+00 0. -1.
          6    1    1    2  501    0 -0.32625350762E+02  0.24139963541E+02 -0.35197987903E+03  0.39429175314E+03  0.17300000000E+03 0. -1.
         -6    1    1    2    0  502  0.32625350762E+02 -0.24139963541E+02 -0.15770247455E+03  0.23758413632E+03  0.17300000000E+03 0. -1.
</event>
<event>
 4    1  0.6017350E+000  0.1000000E+03  0.7546771E-02  0.1280296E+00
         21   -1    0    0  503  502  0.00000000000E+00  0.00000000000E+00  0.13163342679E+03  0.13163342679E+03  0.00000000000E+00 0. -1.
         21   -1    0    0  501  503 -0.00000000000E+00 -0.00000000000E+00 -0.77019832973E+03  0.77019832973E+03  0.00000000000E+00 0. -1.
          6    1    1    2  501    0 -0.55011774439E+02 -0.18043802028E+03 -0.58749611532E+03  0.64083138188E+03  0.17300000000E+03 0. -1.
         -6    1    1    2    0  502  0.55011774439E+02  0.18043802028E+03 -0.51068787631E+02  0.26100037464E+03  0.17300000000E+03 0. -1.
</event>
<event>
 4    1  0.6017350E+000  0.1000000E+03  0.7546771E-02  0.1280296E+00
         21   -1    0    0  501  502  0.00000000000E+00  0.00000000000E+00  0.39712436771E+03  0.39712436771E+03  0.00000000000E+00 0. -1.
         21   -1    0    0  502  503 -0.00000000000E+00 -0.00000000000E+00 -0.28135829106E+03  0.28135829106E+03  0.00000000000E+00 0. -1.
          6    1    1    2  501    0  0.20588798245E+03  0.57530616242E+01  0.25928608059E+03  0.37360571546E+03  0.17300000000E+03 0. -1.
         -6    1    1    2    0  503 -0.20588798245E+03 -0.57530616242E+01 -0.14352000394E+03  0.30487694331E+03  0.17300000000E+03 0. -1.
</event>
<event>
 4    1  0.6017350E+000  0.1000000E+03  0.7546771E-02  0.1280296E+00
         21   -1    0    0  501  502  0.00000000000E+00  0.00000000000E+00  0.49728961577E+03  0.49728961577E+03  0.00000000000E+00 0. -1.
         21   -1    0    0  502  503 -0.00000000000E+00 -0.00000000000E+00 -0.16818487341E+03  0.16818487341E+03  0.00000000000E+00 0. -1.
          6    1    1    2  501    0 -0.16108714188E+03  0.33786881447E+02  0.35226027740E+03  0.42556659135E+03  0.17300000000E+03 0. -1.
         -6    1    1    2    0  503  0.16108714188E+03 -0.33786881447E+02 -0.23155535034E+02  0.23990789783E+03  0.17300000000E+03 0. -1.
</event>
<event>
 4    1  0.6017350E+000  0.1000000E+03  0.7546771E-02  0.1280296E+00
         21   -1    0    0  501  502  0.00000000000E+00  0.00000000000E+00  0.79331373462E+02  0.79331373462E+02  0.00000000000E+00 0. -1.
         21   -1    0    0  502  503 -0.00000000000E+00 -0.00000000000E+00 -0.56793195440E+03  0.56793195440E+03  0.00000000000E+00 0. -1.
          6    1    1    2  501    0  0.46590526526E+01  0.85694733871E+02 -0.10998483276E+03  0.22224076499E+03  0.17300000000E+03 0. -1.
         -6    1    1    2    0  503 -0.46590526526E+01 -0.85694733871E+02 -0.37861574818E+03  0.42502256287E+03  0.17300000000E+03 0. -1.
</event>
<event>
 4    1  0.6017350E+000  0.1000000E+03  0.7546771E-02  0.1280296E+00
         21   -1    0    0  501  502  0.00000000000E+00  0.00000000000E+00  0.56431413113E+03  0.56431413113E+03  0.00000000000E+00 0. -1.
         21   -1    0    0  502  503 -0.00000000000E+00 -0.00000000000E+00 -0.12609718118E+03  0.12609718118E+03  0.00000000000E+00 0. -1.
          6    1    1    2  501    0  0.15854599442E+03 -0.76366211614E+01  0.38297466621E+03  0.44921458713E+03  0.17300000000E+03 0. -1.
         -6    1    1    2    0  503 -0.15854599442E+03  0.76366211614E+01  0.55242283738E+02  0.24119672519E+03  0.17300000000E+03 0. -1.
</event>
<event>
 4    1  0.6017350E+000  0.1000000E+03  0.7546771E-02  0.1280296E+00
         21   -1    0    0  503  502  0.00000000000E+00  0.00000000000E+00  0.72461011814E+02  0.72461011814E+02  0.00000000000E+00 0. -1.
         21   -1    0    0  501  503 -0.00000000000E+00 -0.00000000000E+00 -0.60490041371E+03  0.60490041371E+03  0.00000000000E+00 0. -1.
          6    1    1    2  501    0  0.11535456453E+03  0.20105254986E+02 -0.24381600300E+03  0.32107030407E+03  0.17300000000E+03 0. -1.
         -6    1    1    2    0  502 -0.11535456453E+03 -0.20105254986E+02 -0.28862339889E+03  0.35629112145E+03  0.17300000000E+03 0. -1.
</event>
<event>
 4    1  0.6017350E+000  0.1000000E+03  0.7546771E-02  0.1280296E+00
         21   -1    0    0  501  502  0.00000000000E+00  0.00000000000E+00  0.52441342034E+03  0.52441342034E+03  0.00000000000E+00 0.  1.
         21   -1    0    0  502  503 -0.00000000000E+00 -0.00000000000E+00 -0.68262550680E+03  0.68262550680E+03  0.00000000000E+00 0.  1.
          6    1    1    2  501    0 -0.35591868999E+03 -0.25913240050E+03  0.29044444891E+03  0.55508079842E+03  0.17300000000E+03 0.  1.
         -6    1    1    2    0  503  0.35591868999E+03  0.25913240050E+03 -0.44865653536E+03  0.65195812872E+03  0.17300000000E+03 0.  1.
</event>
<event>
 4    1  0.6017350E+000  0.1000000E+03  0.7546771E-02  0.1280296E+00
         21   -1    0    0  501  502  0.00000000000E+00  0.00000000000E+00  0.33152757767E+03  0.33152757767E+03  0.00000000000E+00 0.  1.
         21   -1    0    0  502  503 -0.00000000000E+00 -0.00000000000E+00 -0.11741145598E+03  0.11741145598E+03  0.00000000000E+00 0. -1.
          6    1    1    2  501    0 -0.90238430405E+02  0.10008249330E+02  0.13827847799E+03  0.23935972270E+03  0.17300000000E+03 0.  1.
         -6    1    1    2    0  503  0.90238430405E+02 -0.10008249330E+02  0.75837643697E+02  0.20957931095E+03  0.17300000000E+03 0. -1.
</event>
<event>
 4    1  0.6017350E+000  0.1000000E+03  0.7546771E-02  0.1280296E+00
         21   -1    0    0  501  502  0.00000000000E+00  0.00000000000E+00  0.29551000705E+03  0.29551000705E+03  0.00000000000E+00 0.  1.
         21   -1    0    0  502  503 -0.00000000000E+00 -0.00000000000E+00 -0.16460778434E+03  0.16460778434E+03  0.00000000000E+00 0. -1.
          6    1    1    2  501    0 -0.89238028451E+02 -0.58258149212E+02 -0.24017874642E+02  0.20460521981E+03  0.17300000000E+03 0.  1.
         -6    1    1    2    0  503  0.89238028451E+02  0.58258149212E+02  0.15492009735E+03  0.25551257158E+03  0.17300000000E+03 0. -1.
</event>
<event>
 4    1  0.6017350E+000  0.1000000E+03  0.7546771E-02  0.1280296E+00
         21   -1    0    0  501  502  0.00000000000E+00  0.00000000000E+00  0.40922875999E+03  0.40922875999E+03  0.00000000000E+00 0.  1.
         21   -1    0    0  502  503 -0.00000000000E+00 -0.00000000000E+00 -0.21434595690E+03  0.21434595690E+03  0.00000000000E+00 0. -1.
          6    1    1    2  501    0 -0.14630049379E+03 -0.90524687392E+02  0.27419059291E+03  0.36702593199E+03  0.17300000000E+03 0.  1.
         -6    1    1    2    0  503  0.14630049379E+03  0.90524687392E+02 -0.79307789816E+02  0.25654878490E+03  0.17300000000E+03 0. -1.
</event>
<event>
 4    1  0.6017350E+000  0.1000000E+03  0.7546771E-02  0.1280296E+00
         21   -1    0    0  501  502  0.00000000000E+00  0.00000000000E+00  0.97540967857E+02  0.97540967857E+02  0.00000000000E+00 0.  1.
         21   -1    0    0  502  503 -0.00000000000E+00 -0.00000000000E+00 -0.40043667638E+03  0.40043667638E+03  0.00000000000E+00 0. -1.
          6    1    1    2  501    0  0.50998248456E+02 -0.80345924582E+02 -0.16226293279E+03  0.25556711115E+03  0.17300000000E+03 0.  1.
         -6    1    1    2    0  503 -0.50998248456E+02  0.80345924582E+02 -0.14063277573E+03  0.24241053309E+03  0.17300000000E+03 0. -1.
</event>
<event>
 4    1  0.6017350E+000  0.1000000E+03  0.7546771E-02  0.1280296E+00
         21   -1    0    0  501  502  0.00000000000E+00  0.00000000000E+00  0.53693933328E+02  0.53693933328E+02  0.00000000000E+00 0. -1.
         21   -1    0    0  502  503 -0.00000000000E+00 -0.00000000000E+00 -0.13700191791E+04  0.13700191791E+04  0.00000000000E+00 0. -1.
          6    1    1    2  501    0 -0.45090523523E+02  0.44886345183E+01 -0.12297538931E+03  0.21703743808E+03  0.17300000000E+03 0. -1.
         -6    1    1    2    0  503  0.45090523523E+02 -0.44886345183E+01 -0.11933498564E+04  0.12066756743E+04  0.17300000000E+03 0. -1.
</event>
<event>
 4    1  0.6017350E+000  0.1000000E+03  0.7546771E-02  0.1280296E+00
         21   -1    0    0  501  502  0.00000000000E+00  0.00000000000E+00  0.39235340132E+03  0.39235340132E+03  0.00000000000E+00 0.  1.
         21   -1    0    0  502  503 -0.00000000000E+00 -0.00000000000E+00 -0.21517457730E+03  0.21517457730E+03  0.00000000000E+00 0.  1.
          6    1    1    2  501    0 -0.14211891055E+02 -0.58182233393E+02  0.32447234040E+03  0.37255663974E+03  0.17300000000E+03 0.  1.
         -6    1    1    2    0  503  0.14211891055E+02  0.58182233393E+02 -0.14729351637E+03  0.23497133888E+03  0.17300000000E+03 0.  1.
</event>
<event>
 4    1  0.6017350E+000  0.1000000E+03  0.7546771E-02  0.1280296E+00
         21   -1    0    0  501  502  0.00000000000E+00  0.00000000000E+00  0.53657889206E+03  0.53657889206E+03  0.00000000000E+00 0.  1.
         21   -1    0    0  502  503 -0.00000000000E+00 -0.00000000000E+00 -0.16884177257E+03  0.16884177257E+03  0.00000000000E+00 0.  1.
          6    1    1    2  501    0 -0.53862582020E+02  0.30043174117E+01  0.46549050081E+03  0.49952037997E+03  0.17300000000E+03 0.  1.
         -6    1    1    2    0  503  0.53862582020E+02 -0.30043174117E+01 -0.97753381318E+02  0.20590028466E+03  0.17300000000E+03 0.  1.
</event>
<event>
 4    1  0.6017350E+000  0.1000000E+03  0.7546771E-02  0.1280296E+00
         21   -1    0    0  501  502  0.00000000000E+00  0.00000000000E+00  0.20834262886E+04  0.20834262886E+04  0.00000000000E+00 0.  1.
         21   -1    0    0  502  503 -0.00000000000E+00 -0.00000000000E+00 -0.36355651525E+02  0.36355651525E+02  0.00000000000E+00 0.  1.
          6    1    1    2  501    0 -0.97373837116E+02 -0.24489283564E+02  0.17515272288E+04  0.17629118022E+04  0.17300000000E+03 0.  1.
         -6    1    1    2    0  503  0.97373837116E+02  0.24489283564E+02  0.29554340834E+03  0.35687013797E+03  0.17300000000E+03 0.  1.
</event>
<event>
 4    1  0.6017350E+000  0.1000000E+03  0.7546771E-02  0.1280296E+00
         21   -1    0    0  501  502  0.00000000000E+00  0.00000000000E+00  0.91555778139E+03  0.91555778139E+03  0.00000000000E+00 0.  1.
         21   -1    0    0  502  503 -0.00000000000E+00 -0.00000000000E+00 -0.37949185022E+02  0.37949185022E+02  0.00000000000E+00 0.  1.
          6    1    1    2  501    0 -0.41195867263E+02  0.97059403797E+01  0.29814546643E+03  0.34729097874E+03  0.17300000000E+03 0.  1.
         -6    1    1    2    0  503  0.41195867263E+02 -0.97059403797E+01  0.57946312993E+03  0.60621598767E+03  0.17300000000E+03 0.  1.
</event>
<event>
 4    1  0.6017350E+000  0.1000000E+03  0.7546771E-02  0.1280296E+00
         21   -1    0    0  501  502  0.00000000000E+00  0.00000000000E+00  0.18079819013E+03  0.18079819013E+03  0.00000000000E+00 0.  1.
         21   -1    0    0  502  503 -0.00000000000E+00 -0.00000000000E+00 -0.35344836949E+03  0.35344836949E+03  0.00000000000E+00 0.  1.
          6    1    1    2  501    0  0.94523091739E+02  0.12675385185E+03  0.13769959234E+02  0.23477599027E+03  0.17300000000E+03 0.  1.
         -6    1    1    2    0  503 -0.94523091739E+02 -0.12675385185E+03 -0.18642013859E+03  0.29947056934E+03  0.17300000000E+03 0.  1.
</event>
<event>
 4    1  0.6017350E+000  0.1000000E+03  0.7546771E-02  0.1280296E+00
         21   -1    0    0  503  502  0.00000000000E+00  0.00000000000E+00  0.20658604444E+03  0.20658604444E+03  0.00000000000E+00 0. -1.
         21   -1    0    0  501  503 -0.00000000000E+00 -0.00000000000E+00 -0.40625503930E+03  0.40625503930E+03  0.00000000000E+00 0. -1.
          6    1    1    2  501    0 -0.59468059229E+02 -0.19459853196E+02 -0.33654141128E+03  0.38354172845E+03  0.17300000000E+03 0. -1.
         -6    1    1    2    0  502  0.59468059229E+02  0.19459853196E+02  0.13687241643E+03  0.22929935528E+03  0.17300000000E+03 0. -1.
</event>
<event>
 4    1  0.6017350E+000  0.1000000E+03  0.7546771E-02  0.1280296E+00
         21   -1    0    0  503  502  0.00000000000E+00  0.00000000000E+00  0.10560676882E+04  0.10560676882E+04  0.00000000000E+00 0. -1.
         21   -1    0    0  501  503 -0.00000000000E+00 -0.00000000000E+00 -0.43160579710E+02  0.43160579710E+02  0.00000000000E+00 0. -1.
          6    1    1    2  501    0  0.11357231050E+03  0.52846213970E+01  0.64083626644E+03  0.67344392292E+03  0.17300000000E+03 0. -1.
         -6    1    1    2    0  502 -0.11357231050E+03 -0.52846213970E+01  0.37207084206E+03  0.42578434500E+03  0.17300000000E+03 0. -1.
</event>
<event>
 4    1  0.6017350E+000  0.1000000E+03  0.7546771E-02  0.1280296E+00
         21   -1    0    0  503  502  0.00000000000E+00  0.00000000000E+00  0.22297537340E+03  0.22297537340E+03  0.00000000000E+00 0. -1.
         21   -1    0    0  501  503 -0.00000000000E+00 -0.00000000000E+00 -0.76175511787E+03  0.76175511787E+03  0.00000000000E+00 0. -1.
          6    1    1    2  501    0 -0.30188364067E+03  0.56168505897E+02 -0.52460138921E+03  0.63200019867E+03  0.17300000000E+03 0. -1.
         -6    1    1    2    0  502  0.30188364067E+03 -0.56168505897E+02 -0.14178355257E+02  0.35273029260E+03  0.17300000000E+03 0. -1.
</event>
<event>
 4    1  0.6017350E+000  0.1000000E+03  0.7546771E-02  0.1280296E+00
         21   -1    0    0  503  502  0.00000000000E+00  0.00000000000E+00  0.72449674187E+03  0.72449674187E+03  0.00000000000E+00 0.  1.
         21   -1    0    0  501  503 -0.00000000000E+00 -0.00000000000E+00 -0.43797573592E+02  0.43797573592E+02  0.00000000000E+00 0.  1.
          6    1    1    2  501    0  0.14988410026E+02  0.39452228886E+02  0.35024814158E+03  0.39291715600E+03  0.17300000000E+03 0.  1.
         -6    1    1    2    0  502 -0.14988410026E+02 -0.39452228886E+02  0.33045102670E+03  0.37537715946E+03  0.17300000000E+03 0.  1.
</event>
<event>
 4    1  0.6017350E+000  0.1000000E+03  0.7546771E-02  0.1280296E+00
         21   -1    0    0  503  502  0.00000000000E+00  0.00000000000E+00  0.16473000319E+04  0.16473000319E+04  0.00000000000E+00 0. -1.
         21   -1    0    0  501  503 -0.00000000000E+00 -0.00000000000E+00 -0.36537126357E+02  0.36537126357E+02  0.00000000000E+00 0. -1.
          6    1    1    2  501    0  0.56746989412E+02  0.79435242726E+02  0.31129862524E+03  0.36927769046E+03  0.17300000000E+03 0. -1.
         -6    1    1    2    0  502 -0.56746989412E+02 -0.79435242726E+02  0.12994642804E+04  0.13145594678E+04  0.17300000000E+03 0. -1.
</event>
<event>
 4    1  0.6017350E+000  0.1000000E+03  0.7546771E-02  0.1280296E+00
         21   -1    0    0  503  502  0.00000000000E+00  0.00000000000E+00  0.82007321739E+02  0.82007321739E+02  0.00000000000E+00 0. -1.
         21   -1    0    0  501  503 -0.00000000000E+00 -0.00000000000E+00 -0.97763072843E+03  0.97763072843E+03  0.00000000000E+00 0. -1.
          6    1    1    2  501    0  0.10310248492E+03  0.17092055530E+02 -0.81885919245E+03  0.84343443006E+03  0.17300000000E+03 0. -1.
         -6    1    1    2    0  502 -0.10310248492E+03 -0.17092055530E+02 -0.76764214242E+02  0.21620362010E+03  0.17300000000E+03 0. -1.
</event>
<event>
 4    1  0.6017350E+000  0.1000000E+03  0.7546771E-02  0.1280296E+00
         21   -1    0    0  503  502  0.00000000000E+00  0.00000000000E+00  0.37186190782E+03  0.37186190782E+03  0.00000000000E+00 0.  1.
         21   -1    0    0  501  503 -0.00000000000E+00 -0.00000000000E+00 -0.21984054688E+03  0.21984054688E+03  0.00000000000E+00 0. -1.
          6    1    1    2  501    0  0.11855361293E+03  0.10456629925E+03 -0.93484447034E+02  0.25230420511E+03  0.17300000000E+03 0. -1.
         -6    1    1    2    0  502 -0.11855361293E+03 -0.10456629925E+03  0.24550580798E+03  0.33939824960E+03  0.17300000000E+03 0.  1.
</event>
<event>
 4    1  0.6017350E+000  0.1000000E+03  0.7546771E-02  0.1280296E+00
         21   -1    0    0  503  502  0.00000000000E+00  0.00000000000E+00  0.25431079811E+02  0.25431079811E+02  0.00000000000E+00 0.  1.
         21   -1    0    0  501  503 -0.00000000000E+00 -0.00000000000E+00 -0.17557208603E+04  0.17557208603E+04  0.00000000000E+00 0. -1.
          6    1    1    2  501    0 -0.13466260689E+02  0.67976972775E+01 -0.13725383967E+04  0.13834804658E+04  0.17300000000E+03 0. -1.
         -6    1    1    2    0  502  0.13466260689E+02 -0.67976972775E+01 -0.35775138375E+03  0.39767147426E+03  0.17300000000E+03 0.  1.
</event>
<event>
 4    1  0.6017350E+000  0.1000000E+03  0.7546771E-02  0.1280296E+00
         21   -1    0    0  503  502  0.00000000000E+00  0.00000000000E+00  0.70236087686E+02  0.70236087686E+02  0.00000000000E+00 0.  1.
         21   -1    0    0  501  503 -0.00000000000E+00 -0.00000000000E+00 -0.15777836003E+04  0.15777836003E+04  0.00000000000E+00 0. -1.
          6    1    1    2  501    0 -0.20346786969E+03  0.96910142698E+02 -0.11832057926E+04  0.12168384024E+04  0.17300000000E+03 0. -1.
         -6    1    1    2    0  502  0.20346786969E+03 -0.96910142698E+02 -0.32434172002E+03  0.43118128566E+03  0.17300000000E+03 0.  1.
</event>
<event>
 4    1  0.6017350E+000  0.1000000E+03  0.7546771E-02  0.1280296E+00
         21   -1    0    0  503  502  0.00000000000E+00  0.00000000000E+00  0.19734971852E+03  0.19734971852E+03  0.00000000000E+00 0.  1.
         21   -1    0    0  501  503 -0.00000000000E+00 -0.00000000000E+00 -0.70321462949E+03  0.70321462949E+03  0.00000000000E+00 0. -1.
          6    1    1    2  501    0 -0.26248953692E+01 -0.62964896394E+02 -0.64437342873E+03  0.67016235638E+03  0.17300000000E+03 0. -1.
         -6    1    1    2    0  502  0.26248953692E+01  0.62964896394E+02  0.13850851777E+03  0.23040199163E+03  0.17300000000E+03 0.  1.
</event>
<event>
 4    1  0.6017350E+000  0.1000000E+03  0.7546771E-02  0.1280296E+00
         21   -1    0    0  503  502  0.00000000000E+00  0.00000000000E+00  0.39058403328E+03  0.39058403328E+03  0.00000000000E+00 0.  1.
         21   -1    0    0  501  503 -0.00000000000E+00 -0.00000000000E+00 -0.16085309162E+03  0.16085309162E+03  0.00000000000E+00 0. -1.
          6    1    1    2  501    0 -0.64510494063E+02 -0.85539229550E+02 -0.46122905444E+02  0.20865015227E+03  0.17300000000E+03 0. -1.
         -6    1    1    2    0  502  0.64510494063E+02  0.85539229550E+02  0.27585384711E+03  0.34278697262E+03  0.17300000000E+03 0.  1.
</event>
<event>
 4    1  0.6017350E+000  0.1000000E+03  0.7546771E-02  0.1280296E+00
         21   -1    0    0  503  502  0.00000000000E+00  0.00000000000E+00  0.47323164811E+03  0.47323164811E+03  0.00000000000E+00 0.  1.
         21   -1    0    0  501  503 -0.00000000000E+00 -0.00000000000E+00 -0.10712904313E+03  0.10712904313E+03  0.00000000000E+00 0. -1.
          6    1    1    2  501    0  0.19684012198E+02  0.14146165047E+03  0.15829489714E+03  0.27456353245E+03  0.17300000000E+03 0. -1.
         -6    1    1    2    0  502 -0.19684012198E+02 -0.14146165047E+03  0.20780770784E+03  0.30579715879E+03  0.17300000000E+03 0.  1.
</event>
<event>
 4    1  0.6017350E+000  0.1000000E+03  0.7546771E-02  0.1280296E+00
         21   -1    0    0  503  502  0.00000000000E+00  0.00000000000E+00  0.41531205437E+03  0.41531205437E+03  0.00000000000E+00 0.  1.
         21   -1    0    0  501  503 -0.00000000000E+00 -0.00000000000E+00 -0.15373745754E+03  0.15373745754E+03  0.00000000000E+00 0. -1.
          6    1    1    2  501    0 -0.99283438410E+02 -0.57542118648E+02 -0.31419862239E+02  0.20996310224E+03  0.17300000000E+03 0. -1.
         -6    1    1    2    0  502  0.99283438410E+02  0.57542118648E+02  0.29299445907E+03  0.35908640967E+03  0.17300000000E+03 0.  1.
</event>
<event>
 4    1  0.6017350E+000  0.1000000E+03  0.7546771E-02  0.1280296E+00
         21   -1    0    0  501  502  0.00000000000E+00  0.00000000000E+00  0.74803310552E+03  0.74803310552E+03  0.00000000000E+00 0. -1.
         21   -1    0    0  502  503 -0.00000000000E+00 -0.00000000000E+00 -0.58452061883E+02  0.58452061883E+02  0.00000000000E+00 0.  1.
          6    1    1    2  501    0  0.63567778805E+02  0.37513096121E+02  0.52097628537E+03  0.55388932541E+03  0.17300000000E+03 0.  1.
         -6    1    1    2    0  503 -0.63567778805E+02 -0.37513096121E+02  0.16860475826E+03  0.25259584199E+03  0.17300000000E+03 0. -1.
</event>
<event>
 4    1  0.6017350E+000  0.1000000E+03  0.7546771E-02  0.1280296E+00
         21   -1    0    0  501  502  0.00000000000E+00  0.00000000000E+00  0.92165507280E+02  0.92165507280E+02  0.00000000000E+00 0. -1.
         21   -1    0    0  502  503 -0.00000000000E+00 -0.00000000000E+00 -0.33572715217E+03  0.33572715217E+03  0.00000000000E+00 0.  1.
          6    1    1    2  501    0 -0.25637374383E+02 -0.13470175798E+02 -0.13785863282E+03  0.22309801264E+03  0.17300000000E+03 0.  1.
         -6    1    1    2    0  503  0.25637374383E+02  0.13470175798E+02 -0.10570301207E+03  0.20479464681E+03  0.17300000000E+03 0. -1.
</event>
<event>
 4    1  0.6017350E+000  0.1000000E+03  0.7546771E-02  0.1280296E+00
         21   -1    0    0  503  502  0.00000000000E+00  0.00000000000E+00  0.11143393215E+04  0.11143393215E+04  0.00000000000E+00 0.  1.
         21   -1    0    0  501  503 -0.00000000000E+00 -0.00000000000E+00 -0.37863971174E+02  0.37863971174E+02  0.00000000000E+00 0.  1.
          6    1    1    2  501    0 -0.25094331714E+02 -0.94125129863E+02  0.39049279778E+03  0.43806722163E+03  0.17300000000E+03 0.  1.
         -6    1    1    2    0  502  0.25094331714E+02  0.94125129863E+02  0.68598255256E+03  0.71413607105E+03  0.17300000000E+03 0.  1.
</event>
<event>
 4    1  0.6017350E+000  0.1000000E+03  0.7546771E-02  0.1280296E+00
         21   -1    0    0  503  502  0.00000000000E+00  0.00000000000E+00  0.15676848720E+03  0.15676848720E+03  0.00000000000E+00 0.  1.
         21   -1    0    0  501  503 -0.00000000000E+00 -0.00000000000E+00 -0.63066638744E+03  0.63066638744E+03  0.00000000000E+00 0.  1.
          6    1    1    2  501    0 -0.86909127589E+02  0.19372022600E+03 -0.43538218058E+02  0.27731804639E+03  0.17300000000E+03 0.  1.
         -6    1    1    2    0  502  0.86909127589E+02 -0.19372022600E+03 -0.43035968218E+03  0.51011682826E+03  0.17300000000E+03 0.  1.
</event>
<event>
 4    1  0.6017350E+000  0.1000000E+03  0.7546771E-02  0.1280296E+00
         21   -1    0    0  503  502  0.00000000000E+00  0.00000000000E+00  0.42664287420E+03  0.42664287420E+03  0.00000000000E+00 0.  1.
         21   -1    0    0  501  503 -0.00000000000E+00 -0.00000000000E+00 -0.32594836529E+03  0.32594836529E+03  0.00000000000E+00 0.  1.
          6    1    1    2  501    0  0.15837282498E+03 -0.40055250526E+02 -0.23939579612E+03  0.33752884616E+03  0.17300000000E+03 0.  1.
         -6    1    1    2    0  502 -0.15837282498E+03  0.40055250526E+02  0.34009030502E+03  0.41506239333E+03  0.17300000000E+03 0.  1.
</event>
<event>
 4    1  0.6017350E+000  0.1000000E+03  0.7546771E-02  0.1280296E+00
         21   -1    0    0  501  502  0.00000000000E+00  0.00000000000E+00  0.26065085915E+03  0.26065085915E+03  0.00000000000E+00 0.  1.
         21   -1    0    0  502  503 -0.00000000000E+00 -0.00000000000E+00 -0.26524498548E+03  0.26524498548E+03  0.00000000000E+00 0. -1.
          6    1    1    2  501    0 -0.14421128715E+03  0.12351804230E+03  0.53863171267E+02  0.26245731716E+03  0.17300000000E+03 0.  1.
         -6    1    1    2    0  503  0.14421128715E+03 -0.12351804230E+03 -0.58457297593E+02  0.26343852747E+03  0.17300000000E+03 0. -1.
</event>
<event>
 4    1  0.6017350E+000  0.1000000E+03  0.7546771E-02  0.1280296E+00
         21   -1    0    0  501  502  0.00000000000E+00  0.00000000000E+00  0.45031498172E+03  0.45031498172E+03  0.00000000000E+00 0.  1.
         21   -1    0    0  502  503 -0.00000000000E+00 -0.00000000000E+00 -0.91206747063E+02  0.91206747063E+02  0.00000000000E+00 0. -1.
          6    1    1    2  501    0 -0.55991345747E+02 -0.28890869574E+02  0.29270714653E+03  0.34579789874E+03  0.17300000000E+03 0.  1.
         -6    1    1    2    0  503  0.55991345747E+02  0.28890869574E+02  0.66401088133E+02  0.19572383005E+03  0.17300000000E+03 0. -1.
</event>
<event>
 4    1  0.6017350E+000  0.1000000E+03  0.7546771E-02  0.1280296E+00
         21   -1    0    0  503  502  0.00000000000E+00  0.00000000000E+00  0.19928547482E+04  0.19928547482E+04  0.00000000000E+00 0.  1.
         21   -1    0    0  501  503 -0.00000000000E+00 -0.00000000000E+00 -0.19751979575E+02  0.19751979575E+02  0.00000000000E+00 0. -1.
          6    1    1    2  501    0  0.18271932358E+02 -0.42504408216E+02  0.55339077130E+03  0.58164493807E+03  0.17300000000E+03 0.  1.
         -6    1    1    2    0  502 -0.18271932358E+02  0.42504408216E+02  0.14197119973E+04  0.14309617897E+04  0.17300000000E+03 0.  1.
</event>
<event>
 4    1  0.6017350E+000  0.1000000E+03  0.7546771E-02  0.1280296E+00
         21   -1    0    0  503  502  0.00000000000E+00  0.00000000000E+00  0.17159598581E+04  0.17159598581E+04  0.00000000000E+00 0.  1.
         21   -1    0    0  501  503 -0.00000000000E+00 -0.00000000000E+00 -0.44758570577E+02  0.44758570577E+02  0.00000000000E+00 0. -1.
          6    1    1    2  501    0  0.16336007951E+03 -0.74213051908E+02  0.45070466670E+03  0.51503183323E+03  0.17300000000E+03 0.  1.
         -6    1    1    2    0  502 -0.16336007951E+03  0.74213051908E+02  0.12204966208E+04  0.12456865954E+04  0.17300000000E+03 0.  1.
</event>
<event>
 4    1  0.6017350E+000  0.1000000E+03  0.7546771E-02  0.1280296E+00
         21   -1    0    0  501  502  0.00000000000E+00  0.00000000000E+00  0.79886039224E+02  0.79886039224E+02  0.00000000000E+00 0.  1.
         21   -1    0    0  502  503 -0.00000000000E+00 -0.00000000000E+00 -0.40500082399E+03  0.40500082399E+03  0.00000000000E+00 0. -1.
          6    1    1    2  501    0 -0.39274993844E+02  0.62577445259E+01 -0.12341752689E+03  0.21620030169E+03  0.17300000000E+03 0.  1.
         -6    1    1    2    0  503  0.39274993844E+02 -0.62577445259E+01 -0.20169725787E+03  0.26868656152E+03  0.17300000000E+03 0. -1.
</event>
<event>
 4    1  0.6017350E+000  0.1000000E+03  0.7546771E-02  0.1280296E+00
         21   -1    0    0  501  502  0.00000000000E+00  0.00000000000E+00  0.35585854460E+02  0.35585854460E+02  0.00000000000E+00 0.  1.
         21   -1    0    0  502  503 -0.00000000000E+00 -0.00000000000E+00 -0.11295444412E+04  0.11295444412E+04  0.00000000000E+00 0. -1.
          6    1    1    2  501    0  0.92300279961E+02  0.18586561131E+02 -0.43817939756E+03  0.48041126796E+03  0.17300000000E+03 0.  1.
         -6    1    1    2    0  503 -0.92300279961E+02 -0.18586561131E+02 -0.65577918921E+03  0.68471902773E+03  0.17300000000E+03 0. -1.
</event>
<event>
 4    1  0.6017350E+000  0.1000000E+03  0.7546771E-02  0.1280296E+00
         21   -1    0    0  501  502  0.00000000000E+00  0.00000000000E+00  0.45310893073E+03  0.45310893073E+03  0.00000000000E+00 0. -1.
         21   -1    0    0  502  503 -0.00000000000E+00 -0.00000000000E+00 -0.16120201388E+03  0.16120201388E+03  0.00000000000E+00 0. -1.
          6    1    1    2  501    0  0.14401598983E+03 -0.73461006042E+02  0.29403083957E+03  0.37751855498E+03  0.17300000000E+03 0. -1.
         -6    1    1    2    0  503 -0.14401598983E+03  0.73461006042E+02 -0.21239227263E+01  0.23679238962E+03  0.17300000000E+03 0. -1.
</event>
<event>
 4    1  0.6017350E+000  0.1000000E+03  0.7546771E-02  0.1280296E+00
         21   -1    0    0  501  502  0.00000000000E+00  0.00000000000E+00  0.24023613236E+03  0.24023613236E+03  0.00000000000E+00 0. -1.
         21   -1    0    0  502  503 -0.00000000000E+00 -0.00000000000E+00 -0.19701582366E+03  0.19701582366E+03  0.00000000000E+00 0. -1.
          6    1    1    2  501    0 -0.99615808610E+02 -0.57320186023E+02  0.86677596829E+02  0.22505759006E+03  0.17300000000E+03 0. -1.
         -6    1    1    2    0  503  0.99615808610E+02  0.57320186023E+02 -0.43457288129E+02  0.21219436595E+03  0.17300000000E+03 0. -1.
</event>
<event>
 4    1  0.6017350E+000  0.1000000E+03  0.7546771E-02  0.1280296E+00
         21   -1    0    0  503  502  0.00000000000E+00  0.00000000000E+00  0.72672477565E+02  0.72672477565E+02  0.00000000000E+00 0. -1.
         21   -1    0    0  501  503 -0.00000000000E+00 -0.00000000000E+00 -0.62987393248E+03  0.62987393248E+03  0.00000000000E+00 0.  1.
          6    1    1    2  501    0 -0.48572304720E+02  0.10910477232E+03 -0.34391205194E+03  0.40307272247E+03  0.17300000000E+03 0.  1.
         -6    1    1    2    0  502  0.48572304720E+02 -0.10910477232E+03 -0.21328940297E+03  0.29947368758E+03  0.17300000000E+03 0.  1.
</event>
<event>
 4    1  0.6017350E+000  0.1000000E+03  0.7546771E-02  0.1280296E+00
         21   -1    0    0  501  502  0.00000000000E+00  0.00000000000E+00  0.21605662939E+02  0.21605662939E+02  0.00000000000E+00 0. -1.
         21   -1    0    0  502  503 -0.00000000000E+00 -0.00000000000E+00 -0.18286962358E+04  0.18286962358E+04  0.00000000000E+00 0. -1.
          6    1    1    2  501    0 -0.22610956978E+02 -0.38908302358E+02 -0.49896345271E+03  0.53001758320E+03  0.17300000000E+03 0. -1.
         -6    1    1    2    0  503  0.22610956978E+02  0.38908302358E+02 -0.13081271201E+04  0.13202843155E+04  0.17300000000E+03 0. -1.
</event>
<event>
 4    1  0.6017350E+000  0.1000000E+03  0.7546771E-02  0.1280296E+00
         21   -1    0    0  501  502  0.00000000000E+00  0.00000000000E+00  0.42885284258E+03  0.42885284258E+03  0.00000000000E+00 0. -1.
         21   -1    0    0  502  503 -0.00000000000E+00 -0.00000000000E+00 -0.11000616561E+03  0.11000616561E+03  0.00000000000E+00 0. -1.
          6    1    1    2  501    0  0.12607069454E+03  0.14981854881E+02  0.20110684431E+03  0.29409392858E+03  0.17300000000E+03 0. -1.
         -6    1    1    2    0  503 -0.12607069454E+03 -0.14981854881E+02  0.11773983266E+03  0.24476507960E+03  0.17300000000E+03 0. -1.
</event>
<event>
 4    1  0.6017350E+000  0.1000000E+03  0.7546771E-02  0.1280296E+00
         21   -1    0    0  501  502  0.00000000000E+00  0.00000000000E+00  0.14122261869E+03  0.14122261869E+03  0.00000000000E+00 0. -1.
         21   -1    0    0  502  503 -0.00000000000E+00 -0.00000000000E+00 -0.78792180134E+03  0.78792180134E+03  0.00000000000E+00 0. -1.
          6    1    1    2  501    0  0.22032219839E+03  0.90488453609E+01 -0.71428973152E+02  0.28923148326E+03  0.17300000000E+03 0. -1.
         -6    1    1    2    0  503 -0.22032219839E+03 -0.90488453609E+01 -0.57527020950E+03  0.63991293677E+03  0.17300000000E+03 0. -1.
</event>
<event>
 4    1  0.6017350E+000  0.1000000E+03  0.7546771E-02  0.1280296E+00
         21   -1    0    0  503  502  0.00000000000E+00  0.00000000000E+00  0.31375401765E+03  0.31375401765E+03  0.00000000000E+00 0. -1.
         21   -1    0    0  501  503 -0.00000000000E+00 -0.00000000000E+00 -0.12927213256E+03  0.12927213256E+03  0.00000000000E+00 0. -1.
          6    1    1    2  501    0  0.75990760830E+02 -0.10460254935E+02  0.16462560031E+02  0.18995796521E+03  0.17300000000E+03 0. -1.
         -6    1    1    2    0  502 -0.75990760830E+02  0.10460254935E+02  0.16801932506E+03  0.25306818500E+03  0.17300000000E+03 0. -1.
</event>
<event>
 4    1  0.6017350E+000  0.1000000E+03  0.7546771E-02  0.1280296E+00
         21   -1    0    0  503  502  0.00000000000E+00  0.00000000000E+00  0.19577860017E+03  0.19577860017E+03  0.00000000000E+00 0.  1.
         21   -1    0    0  501  503 -0.00000000000E+00 -0.00000000000E+00 -0.30867607453E+03  0.30867607453E+03  0.00000000000E+00 0.  1.
          6    1    1    2  501    0  0.10531028841E+03 -0.89030418305E+02  0.53515603226E+02  0.22761720501E+03  0.17300000000E+03 0.  1.
         -6    1    1    2    0  502 -0.10531028841E+03  0.89030418305E+02 -0.16641307759E+03  0.27683746968E+03  0.17300000000E+03 0.  1.
</event>
<event>
 4    1  0.6017350E+000  0.1000000E+03  0.7546771E-02  0.1280296E+00
         21   -1    0    0  503  502  0.00000000000E+00  0.00000000000E+00  0.37311266704E+03  0.37311266704E+03  0.00000000000E+00 0.  1.
         21   -1    0    0  501  503 -0.00000000000E+00 -0.00000000000E+00 -0.25346763952E+03  0.25346763952E+03  0.00000000000E+00 0.  1.
          6    1    1    2  501    0 -0.10721808580E+03  0.14408297616E+03  0.24316085448E+03  0.34829846840E+03  0.17300000000E+03 0.  1.
         -6    1    1    2    0  502  0.10721808580E+03 -0.14408297616E+03 -0.12351582696E+03  0.27828183816E+03  0.17300000000E+03 0.  1.
</event>
<event>
 4    1  0.6017350E+000  0.1000000E+03  0.7546771E-02  0.1280296E+00
         21   -1    0    0  501  502  0.00000000000E+00  0.00000000000E+00  0.32117230533E+03  0.32117230533E+03  0.00000000000E+00 0. -1.
         21   -1    0    0  502  503 -0.00000000000E+00 -0.00000000000E+00 -0.16595911993E+03  0.16595911993E+03  0.00000000000E+00 0. -1.
          6    1    1    2  501    0 -0.19188397649E+02  0.71144620133E+02  0.21892238712E+03  0.28859272888E+03  0.17300000000E+03 0. -1.
         -6    1    1    2    0  503  0.19188397649E+02 -0.71144620133E+02 -0.63709201716E+02  0.19853869638E+03  0.17300000000E+03 0. -1.
</event>
<event>
 4    1  0.6017350E+000  0.1000000E+03  0.7546771E-02  0.1280296E+00
         21   -1    0    0  501  502  0.00000000000E+00  0.00000000000E+00  0.25433096839E+03  0.25433096839E+03  0.00000000000E+00 0. -1.
         21   -1    0    0  502  503 -0.00000000000E+00 -0.00000000000E+00 -0.20256303566E+03  0.20256303566E+03  0.00000000000E+00 0. -1.
          6    1    1    2  501    0 -0.81420566138E+00 -0.29873667475E+02  0.17067726702E+03  0.24485266676E+03  0.17300000000E+03 0. -1.
         -6    1    1    2    0  503  0.81420566138E+00  0.29873667475E+02 -0.11890933429E+03  0.21204133729E+03  0.17300000000E+03 0. -1.
</event>
<event>
 4    1  0.6017350E+000  0.1000000E+03  0.7546771E-02  0.1280296E+00
         21   -1    0    0  501  502  0.00000000000E+00  0.00000000000E+00  0.57363479359E+02  0.57363479359E+02  0.00000000000E+00 0. -1.
         21   -1    0    0  502  503 -0.00000000000E+00 -0.00000000000E+00 -0.70511531916E+03  0.70511531916E+03  0.00000000000E+00 0. -1.
          6    1    1    2  501    0 -0.59177139771E+02  0.83407720221E+02 -0.30918198794E+03  0.36875640107E+03  0.17300000000E+03 0. -1.
         -6    1    1    2    0  503  0.59177139771E+02 -0.83407720221E+02 -0.33856985186E+03  0.39372239745E+03  0.17300000000E+03 0. -1.
</event>
<event>
 4    1  0.6017350E+000  0.1000000E+03  0.7546771E-02  0.1280296E+00
         21   -1    0    0  501  502  0.00000000000E+00  0.00000000000E+00  0.16067467333E+03  0.16067467333E+03  0.00000000000E+00 0. -1.
         21   -1    0    0  502  503 -0.00000000000E+00 -0.00000000000E+00 -0.19557226992E+03  0.19557226992E+03  0.00000000000E+00 0. -1.
          6    1    1    2  501    0 -0.15563284051E+02 -0.10203269639E+02 -0.51497480892E+02  0.18145884674E+03  0.17300000000E+03 0. -1.
         -6    1    1    2    0  503  0.15563284051E+02  0.10203269639E+02  0.16599884302E+02  0.17478809651E+03  0.17300000000E+03 0. -1.
</event>
<event>
 4    1  0.6017350E+000  0.1000000E+03  0.7546771E-02  0.1280296E+00
         21   -1    0    0  501  502  0.00000000000E+00  0.00000000000E+00  0.17923319625E+04  0.17923319625E+04  0.00000000000E+00 0. -1.
         21   -1    0    0  502  503 -0.00000000000E+00 -0.00000000000E+00 -0.28311148354E+02  0.28311148354E+02  0.00000000000E+00 0. -1.
          6    1    1    2  501    0  0.48888671209E+01 -0.14075105288E+03  0.10084683607E+04  0.10328466462E+04  0.17300000000E+03 0. -1.
         -6    1    1    2    0  503 -0.48888671209E+01  0.14075105288E+03  0.75555245340E+03  0.78779646467E+03  0.17300000000E+03 0. -1.
</event>
<event>
 4    1  0.6017350E+000  0.1000000E+03  0.7546771E-02  0.1280296E+00
         21   -1    0    0  503  502  0.00000000000E+00  0.00000000000E+00  0.36961653484E+03  0.36961653484E+03  0.00000000000E+00 0. -1.
         21   -1    0    0  501  503 -0.00000000000E+00 -0.00000000000E+00 -0.21048952073E+03  0.21048952073E+03  0.00000000000E+00 0. -1.
          6    1    1    2  501    0  0.19775506726E+02  0.65036376698E+02 -0.13669966468E+03  0.23073057726E+03  0.17300000000E+03 0.  1.
         -6    1    1    2    0  502 -0.19775506726E+02 -0.65036376698E+02  0.29582667879E+03  0.34937547831E+03  0.17300000000E+03 0.  1.
</event>
<event>
 4    1  0.6017350E+000  0.1000000E+03  0.7546771E-02  0.1280296E+00
         21   -1    0    0  503  502  0.00000000000E+00  0.00000000000E+00  0.17167224475E+03  0.17167224475E+03  0.00000000000E+00 0. -1.
         21   -1    0    0  501  503 -0.00000000000E+00 -0.00000000000E+00 -0.79828866330E+03  0.79828866330E+03  0.00000000000E+00 0. -1.
          6    1    1    2  501    0  0.24624947469E+03 -0.54746544739E+02 -0.58647888657E+03  0.66145481504E+03  0.17300000000E+03 0.  1.
         -6    1    1    2    0  502 -0.24624947469E+03  0.54746544739E+02 -0.40137531981E+02  0.30850609300E+03  0.17300000000E+03 0.  1.
</event>
<event>
 4    1  0.6017350E+000  0.1000000E+03  0.7546771E-02  0.1280296E+00
         21   -1    0    0  503  502  0.00000000000E+00  0.00000000000E+00  0.90355445454E+03  0.90355445454E+03  0.00000000000E+00 0. -1.
         21   -1    0    0  501  503 -0.00000000000E+00 -0.00000000000E+00 -0.78894362139E+02  0.78894362139E+02  0.00000000000E+00 0. -1.
          6    1    1    2  501    0  0.12566024264E+03 -0.56056753153E+02  0.13682379870E+03  0.25996655178E+03  0.17300000000E+03 0. -1.
         -6    1    1    2    0  502 -0.12566024264E+03  0.56056753153E+02  0.68783629371E+03  0.72248226490E+03  0.17300000000E+03 0. -1.
</event>
<event>
 4    1  0.6017350E+000  0.1000000E+03  0.7546771E-02  0.1280296E+00
         21   -1    0    0  501  502  0.00000000000E+00  0.00000000000E+00  0.39233083743E+03  0.39233083743E+03  0.00000000000E+00 0. -1.
         21   -1    0    0  502  503 -0.00000000000E+00 -0.00000000000E+00 -0.22510044902E+03  0.22510044902E+03  0.00000000000E+00 0. -1.
          6    1    1    2  501    0  0.51403917018E+02  0.51305608117E+02  0.32302023018E+03  0.37355815774E+03  0.17300000000E+03 0. -1.
         -6    1    1    2    0  503 -0.51403917018E+02 -0.51305608117E+02 -0.15578984177E+03  0.24387312871E+03  0.17300000000E+03 0. -1.
</event>
<event>
 4    1  0.6017350E+000  0.1000000E+03  0.7546771E-02  0.1280296E+00
         21   -1    0    0  501  502  0.00000000000E+00  0.00000000000E+00  0.41003337418E+03  0.41003337418E+03  0.00000000000E+00 0. -1.
         21   -1    0    0  502  503 -0.00000000000E+00 -0.00000000000E+00 -0.65180564341E+03  0.65180564341E+03  0.00000000000E+00 0. -1.
          6    1    1    2  501    0 -0.24802115169E+02 -0.37804189814E+03  0.19364717154E+03  0.45930278544E+03  0.17300000000E+03 0. -1.
         -6    1    1    2    0  503  0.24802115169E+02  0.37804189814E+03 -0.43541944076E+03  0.60253623215E+03  0.17300000000E+03 0. -1.
</event>
<event>
 4    1  0.6017350E+000  0.1000000E+03  0.7546771E-02  0.1280296E+00
         21   -1    0    0  503  502  0.00000000000E+00  0.00000000000E+00  0.19027390627E+03  0.19027390627E+03  0.00000000000E+00 0. -1.
         21   -1    0    0  501  503 -0.00000000000E+00 -0.00000000000E+00 -0.83032344257E+03  0.83032344257E+03  0.00000000000E+00 0. -1.
          6    1    1    2  501    0 -0.92105872357E+02 -0.23527554456E+03 -0.64537599474E+03  0.71433692903E+03  0.17300000000E+03 0.  1.
         -6    1    1    2    0  502  0.92105872357E+02  0.23527554456E+03  0.53264584372E+01  0.30626041982E+03  0.17300000000E+03 0.  1.
</event>
<event>
 4    1  0.6017350E+000  0.1000000E+03  0.7546771E-02  0.1280296E+00
         21   -1    0    0  501  502  0.00000000000E+00  0.00000000000E+00  0.48254839612E+02  0.48254839612E+02  0.00000000000E+00 0. -1.
         21   -1    0    0  502  503 -0.00000000000E+00 -0.00000000000E+00 -0.15125419654E+04  0.15125419654E+04  0.00000000000E+00 0.  1.
          6    1    1    2  501    0  0.13536245806E+03  0.69814562896E+02 -0.32504725407E+03  0.39847432241E+03  0.17300000000E+03 0. -1.
         -6    1    1    2    0  503 -0.13536245806E+03 -0.69814562896E+02 -0.11392398718E+04  0.11623224826E+04  0.17300000000E+03 0.  1.
</event>
<event>
 4    1  0.6017350E+000  0.1000000E+03  0.7546771E-02  0.1280296E+00
         21   -1    0    0  501  502  0.00000000000E+00  0.00000000000E+00  0.33119581619E+03  0.33119581619E+03  0.00000000000E+00 0. -1.
         21   -1    0    0  502  503 -0.00000000000E+00 -0.00000000000E+00 -0.19791612590E+03  0.19791612590E+03  0.00000000000E+00 0. -1.
          6    1    1    2  501    0  0.39673390178E+02 -0.84384985938E+02  0.23619614772E+03  0.30726604749E+03  0.17300000000E+03 0.  1.
         -6    1    1    2    0  503 -0.39673390178E+02  0.84384985938E+02 -0.10291645743E+03  0.22184589460E+03  0.17300000000E+03 0.  1.
</event>
<event>
 4    1  0.6017350E+000  0.1000000E+03  0.7546771E-02  0.1280296E+00
         21   -1    0    0  501  502  0.00000000000E+00  0.00000000000E+00  0.79851282744E+03  0.79851282744E+03  0.00000000000E+00 0. -1.
         21   -1    0    0  502  503 -0.00000000000E+00 -0.00000000000E+00 -0.48218405159E+02  0.48218405159E+02  0.00000000000E+00 0. -1.
          6    1    1    2  501    0 -0.87167354805E+02  0.23824271845E+02  0.41874281274E+03  0.46199598147E+03  0.17300000000E+03 0.  1.
         -6    1    1    2    0  503  0.87167354805E+02 -0.23824271845E+02  0.33155160954E+03  0.38473525113E+03  0.17300000000E+03 0.  1.
</event>
<event>
 4    1  0.6017350E+000  0.1000000E+03  0.7546771E-02  0.1280296E+00
         21   -1    0    0  501  502  0.00000000000E+00  0.00000000000E+00  0.33637657425E+02  0.33637657425E+02  0.00000000000E+00 0. -1.
         21   -1    0    0  502  503 -0.00000000000E+00 -0.00000000000E+00 -0.10197466028E+04  0.10197466028E+04  0.00000000000E+00 0. -1.
          6    1    1    2  501    0 -0.61868179297E+02 -0.19196029260E+02 -0.53085955435E+03  0.56208275689E+03  0.17300000000E+03 0.  1.
         -6    1    1    2    0  503  0.61868179297E+02  0.19196029260E+02 -0.45524939101E+03  0.49130150332E+03  0.17300000000E+03 0.  1.
</event>
<event>
 4    1  0.6017350E+000  0.1000000E+03  0.7546771E-02  0.1280296E+00
         21   -1    0    0  503  502  0.00000000000E+00  0.00000000000E+00  0.29743935975E+03  0.29743935975E+03  0.00000000000E+00 0. -1.
         21   -1    0    0  501  503 -0.00000000000E+00 -0.00000000000E+00 -0.16697648513E+03  0.16697648513E+03  0.00000000000E+00 0.  1.
          6    1    1    2  501    0  0.45822920617E+02  0.71124080909E+02 -0.51625908798E+02  0.19938056424E+03  0.17300000000E+03 0.  1.
         -6    1    1    2    0  502 -0.45822920617E+02 -0.71124080909E+02  0.18208878342E+03  0.26503528064E+03  0.17300000000E+03 0. -1.
</event>
<event>
 4    1  0.6017350E+000  0.1000000E+03  0.7546771E-02  0.1280296E+00
         21   -1    0    0  501  502  0.00000000000E+00  0.00000000000E+00  0.16197306169E+03  0.16197306169E+03  0.00000000000E+00 0. -1.
         21   -1    0    0  502  503 -0.00000000000E+00 -0.00000000000E+00 -0.25428438720E+03  0.25428438720E+03  0.00000000000E+00 0. -1.
          6    1    1    2  501    0 -0.86408660070E+02 -0.27099929551E+02  0.10549673205E+02  0.19555346666E+03  0.17300000000E+03 0. -1.
         -6    1    1    2    0  503  0.86408660070E+02  0.27099929551E+02 -0.10286099871E+03  0.22070398223E+03  0.17300000000E+03 0. -1.
</event>
<event>
 4    1  0.6017350E+000  0.1000000E+03  0.7546771E-02  0.1280296E+00
         21   -1    0    0  501  502  0.00000000000E+00  0.00000000000E+00  0.23234656172E+03  0.23234656172E+03  0.00000000000E+00 0. -1.
         21   -1    0    0  502  503 -0.00000000000E+00 -0.00000000000E+00 -0.42567424649E+03  0.42567424649E+03  0.00000000000E+00 0. -1.
          6    1    1    2  501    0 -0.86621687278E+02 -0.91465316351E+02  0.14442299339E+03  0.25817866260E+03  0.17300000000E+03 0. -1.
         -6    1    1    2    0  503  0.86621687278E+02  0.91465316351E+02 -0.33775067817E+03  0.39984214561E+03  0.17300000000E+03 0. -1.
</event>
<event>
 4    1  0.6017350E+000  0.1000000E+03  0.7546771E-02  0.1280296E+00
         21   -1    0    0  503  502  0.00000000000E+00  0.00000000000E+00  0.47607291284E+02  0.47607291284E+02  0.00000000000E+00 0. -1.
         21   -1    0    0  501  503 -0.00000000000E+00 -0.00000000000E+00 -0.11016187375E+04  0.11016187375E+04  0.00000000000E+00 0. -1.
          6    1    1    2  501    0  0.87306389657E+02 -0.10692252815E+03 -0.37938761392E+03  0.43922522047E+03  0.17300000000E+03 0. -1.
         -6    1    1    2    0  502 -0.87306389657E+02  0.10692252815E+03 -0.67462383225E+03  0.71000080826E+03  0.17300000000E+03 0. -1.
</event>
<event>
 4    1  0.6017350E+000  0.1000000E+03  0.7546771E-02  0.1280296E+00
         21   -1    0    0  503  502  0.00000000000E+00  0.00000000000E+00  0.39089345747E+03  0.39089345747E+03  0.00000000000E+00 0. -1.
         21   -1    0    0  501  503 -0.00000000000E+00 -0.00000000000E+00 -0.17598516039E+03  0.17598516039E+03  0.00000000000E+00 0. -1.
          6    1    1    2  501    0  0.14162791171E+02 -0.38223554883E+01 -0.10499361776E+03  0.20289863190E+03  0.17300000000E+03 0. -1.
         -6    1    1    2    0  502 -0.14162791171E+02  0.38223554883E+01  0.31990191484E+03  0.36397998595E+03  0.17300000000E+03 0. -1.
</event>
<event>
 4    1  0.6017350E+000  0.1000000E+03  0.7546771E-02  0.1280296E+00
         21   -1    0    0  503  502  0.00000000000E+00  0.00000000000E+00  0.20815305003E+03  0.20815305003E+03  0.00000000000E+00 0. -1.
         21   -1    0    0  501  503 -0.00000000000E+00 -0.00000000000E+00 -0.29505667984E+03  0.29505667984E+03  0.00000000000E+00 0. -1.
          6    1    1    2  501    0 -0.78396397351E+02  0.80391920216E+02 -0.18294900809E+03  0.27569583877E+03  0.17300000000E+03 0. -1.
         -6    1    1    2    0  502  0.78396397351E+02 -0.80391920216E+02  0.96045378284E+02  0.22751389110E+03  0.17300000000E+03 0. -1.
</event>
<event>
 4    1  0.6017350E+000  0.1000000E+03  0.7546771E-02  0.1280296E+00
         21   -1    0    0  503  502  0.00000000000E+00  0.00000000000E+00  0.38154815521E+02  0.38154815521E+02  0.00000000000E+00 0. -1.
         21   -1    0    0  501  503 -0.00000000000E+00 -0.00000000000E+00 -0.13984033273E+04  0.13984033273E+04  0.00000000000E+00 0. -1.
          6    1    1    2  501    0  0.22094288042E+02  0.15030879632E+03 -0.62228856898E+03  0.66351560261E+03  0.17300000000E+03 0. -1.
         -6    1    1    2    0  502 -0.22094288042E+02 -0.15030879632E+03 -0.73795994283E+03  0.77304254025E+03  0.17300000000E+03 0. -1.
</event>
<event>
 4    1  0.6017350E+000  0.1000000E+03  0.7546771E-02  0.1280296E+00
         21   -1    0    0  503  502  0.00000000000E+00  0.00000000000E+00  0.14707738415E+03  0.14707738415E+03  0.00000000000E+00 0. -1.
         21   -1    0    0  501  503 -0.00000000000E+00 -0.00000000000E+00 -0.21671051093E+03  0.21671051093E+03  0.00000000000E+00 0. -1.
          6    1    1    2  501    0 -0.40664293410E+02 -0.44843350899E+01 -0.18059194122E+02  0.17868639711E+03  0.17300000000E+03 0. -1.
         -6    1    1    2    0  502  0.40664293410E+02  0.44843350899E+01 -0.51573932653E+02  0.18510149797E+03  0.17300000000E+03 0. -1.
</event>
<event>
 4    1  0.6017350E+000  0.1000000E+03  0.7546771E-02  0.1280296E+00
         21   -1    0    0  503  502  0.00000000000E+00  0.00000000000E+00  0.38530130866E+03  0.38530130866E+03  0.00000000000E+00 0. -1.
         21   -1    0    0  501  503 -0.00000000000E+00 -0.00000000000E+00 -0.11530378872E+04  0.11530378872E+04  0.00000000000E+00 0. -1.
          6    1    1    2  501    0  0.32965165068E+02  0.12490482548E+02 -0.11255630345E+04  0.11393260546E+04  0.17300000000E+03 0. -1.
         -6    1    1    2    0  502 -0.32965165068E+02 -0.12490482548E+02  0.35782645594E+03  0.39901314118E+03  0.17300000000E+03 0. -1.
</event>
<event>
 4    1  0.6017350E+000  0.1000000E+03  0.7546771E-02  0.1280296E+00
         21   -1    0    0  501  502  0.00000000000E+00  0.00000000000E+00  0.81223142726E+02  0.81223142726E+02  0.00000000000E+00 0. -1.
         21   -1    0    0  502  503 -0.00000000000E+00 -0.00000000000E+00 -0.42304032644E+03  0.42304032644E+03  0.00000000000E+00 0.  1.
          6    1    1    2  501    0 -0.60746303760E+02  0.95388978477E+01 -0.13621568542E+03  0.22861499720E+03  0.17300000000E+03 0. -1.
         -6    1    1    2    0  503  0.60746303760E+02 -0.95388978477E+01 -0.20560149829E+03  0.27564847196E+03  0.17300000000E+03 0. -1.
</event>
<event>
 4    1  0.6017350E+000  0.1000000E+03  0.7546771E-02  0.1280296E+00
         21   -1    0    0  501  502  0.00000000000E+00  0.00000000000E+00  0.11437257755E+03  0.11437257755E+03  0.00000000000E+00 0. -1.
         21   -1    0    0  502  503 -0.00000000000E+00 -0.00000000000E+00 -0.51854741489E+03  0.51854741489E+03  0.00000000000E+00 0.  1.
          6    1    1    2  501    0  0.78597270897E+02 -0.80670892289E+02 -0.34193690153E+02  0.20924514881E+03  0.17300000000E+03 0. -1.
         -6    1    1    2    0  503 -0.78597270897E+02  0.80670892289E+02 -0.36998114718E+03  0.42367484363E+03  0.17300000000E+03 0. -1.
</event>
<event>
 4    1  0.6017350E+000  0.1000000E+03  0.7546771E-02  0.1280296E+00
         21   -1    0    0  501  502  0.00000000000E+00  0.00000000000E+00  0.10929184627E+04  0.10929184627E+04  0.00000000000E+00 0.  1.
         21   -1    0    0  502  503 -0.00000000000E+00 -0.00000000000E+00 -0.14062628768E+03  0.14062628768E+03  0.00000000000E+00 0. -1.
          6    1    1    2  501    0 -0.14593721457E+03 -0.19250678841E+03  0.87850317647E+03  0.92739062171E+03  0.17300000000E+03 0.  1.
         -6    1    1    2    0  503  0.14593721457E+03  0.19250678841E+03  0.73788998537E+02  0.30615412864E+03  0.17300000000E+03 0.  1.
</event>
<event>
 4    1  0.6017350E+000  0.1000000E+03  0.7546771E-02  0.1280296E+00
         21   -1    0    0  503  502  0.00000000000E+00  0.00000000000E+00  0.62296266255E+03  0.62296266255E+03  0.00000000000E+00 0. -1.
         21   -1    0    0  501  503 -0.00000000000E+00 -0.00000000000E+00 -0.15090516428E+03  0.15090516428E+03  0.00000000000E+00 0.  1.
          6    1    1    2  501    0 -0.22886377705E+03  0.97330763998E+02  0.29558818672E+03  0.42326502595E+03  0.17300000000E+03 0. -1.
         -6    1    1    2    0  502  0.22886377705E+03 -0.97330763998E+02  0.17646931156E+03  0.35060280088E+03  0.17300000000E+03 0.  1.
</event>
<event>
 4    1  0.6017350E+000  0.1000000E+03  0.7546771E-02  0.1280296E+00
         21   -1    0    0  503  502  0.00000000000E+00  0.00000000000E+00  0.23497477195E+03  0.23497477195E+03  0.00000000000E+00 0. -1.
         21   -1    0    0  501  503 -0.00000000000E+00 -0.00000000000E+00 -0.42311099779E+03  0.42311099779E+03  0.00000000000E+00 0.  1.
          6    1    1    2  501    0  0.25263092448E+03 -0.28701655473E+01 -0.17258321288E+03  0.35148909972E+03  0.17300000000E+03 0. -1.
         -6    1    1    2    0  502 -0.25263092448E+03  0.28701655473E+01 -0.15553012957E+02  0.30659667002E+03  0.17300000000E+03 0.  1.
</event>
<event>
 4    1  0.6017350E+000  0.1000000E+03  0.7546771E-02  0.1280296E+00
         21   -1    0    0  503  502  0.00000000000E+00  0.00000000000E+00  0.33347414385E+03  0.33347414385E+03  0.00000000000E+00 0. -1.
         21   -1    0    0  501  503 -0.00000000000E+00 -0.00000000000E+00 -0.18630177625E+03  0.18630177625E+03  0.00000000000E+00 0.  1.
          6    1    1    2  501    0 -0.99097877103E+02  0.14946303648E+03  0.80033625485E+02  0.26171352607E+03  0.17300000000E+03 0. -1.
         -6    1    1    2    0  502  0.99097877103E+02 -0.14946303648E+03  0.67138742122E+02  0.25806239403E+03  0.17300000000E+03 0.  1.
</event>
<event>
 4    1  0.6017350E+000  0.1000000E+03  0.7546771E-02  0.1280296E+00
         21   -1    0    0  501  502  0.00000000000E+00  0.00000000000E+00  0.31800208396E+03  0.31800208396E+03  0.00000000000E+00 0.  1.
         21   -1    0    0  502  503 -0.00000000000E+00 -0.00000000000E+00 -0.13924757552E+03  0.13924757552E+03  0.00000000000E+00 0. -1.
          6    1    1    2  501    0 -0.64939161704E+02  0.88986446639E+02  0.14052570323E+03  0.24862050534E+03  0.17300000000E+03 0.  1.
         -6    1    1    2    0  503  0.64939161704E+02 -0.88986446639E+02  0.38228805220E+02  0.20862915414E+03  0.17300000000E+03 0.  1.
</event>
<event>
 4    1  0.6017350E+000  0.1000000E+03  0.7546771E-02  0.1280296E+00
         21   -1    0    0  501  502  0.00000000000E+00  0.00000000000E+00  0.13894440885E+03  0.13894440885E+03  0.00000000000E+00 0.  1.
         21   -1    0    0  502  503 -0.00000000000E+00 -0.00000000000E+00 -0.25410531144E+03  0.25410531144E+03  0.00000000000E+00 0. -1.
          6    1    1    2  501    0  0.33490649478E+01 -0.68298618769E+02 -0.29877040415E+02  0.18840794863E+03  0.17300000000E+03 0.  1.
         -6    1    1    2    0  503 -0.33490649478E+01  0.68298618769E+02 -0.85283862176E+02  0.20464177166E+03  0.17300000000E+03 0.  1.
</event>
<event>
 4    1  0.6017350E+000  0.1000000E+03  0.7546771E-02  0.1280296E+00
         21   -1    0    0  501  502  0.00000000000E+00  0.00000000000E+00  0.15088246108E+04  0.15088246108E+04  0.00000000000E+00 0.  1.
         21   -1    0    0  502  503 -0.00000000000E+00 -0.00000000000E+00 -0.24725399522E+02  0.24725399522E+02  0.00000000000E+00 0. -1.
          6    1    1    2  501    0  0.36639689043E+02  0.62913850262E+02  0.92295889049E+03  0.94185069565E+03  0.17300000000E+03 0.  1.
         -6    1    1    2    0  503 -0.36639689043E+02 -0.62913850262E+02  0.56114032083E+03  0.59169931471E+03  0.17300000000E+03 0.  1.
</event>
<event>
 4    1  0.6017350E+000  0.1000000E+03  0.7546771E-02  0.1280296E+00
         21   -1    0    0  503  502  0.00000000000E+00  0.00000000000E+00  0.10409252996E+03  0.10409252996E+03  0.00000000000E+00 0. -1.
         21   -1    0    0  501  503 -0.00000000000E+00 -0.00000000000E+00 -0.38793013225E+03  0.38793013225E+03  0.00000000000E+00 0. -1.
          6    1    1    2  501    0 -0.31569749146E+02 -0.94910160283E+02 -0.16780345783E+03  0.26094364918E+03  0.17300000000E+03 0. -1.
         -6    1    1    2    0  502  0.31569749146E+02  0.94910160283E+02 -0.11603414445E+03  0.23107901304E+03  0.17300000000E+03 0. -1.
</event>
<event>
 4    1  0.6017350E+000  0.1000000E+03  0.7546771E-02  0.1280296E+00
         21   -1    0    0  503  502  0.00000000000E+00  0.00000000000E+00  0.81448979799E+03  0.81448979799E+03  0.00000000000E+00 0.  1.
         21   -1    0    0  501  503 -0.00000000000E+00 -0.00000000000E+00 -0.19140765681E+03  0.19140765681E+03  0.00000000000E+00 0.  1.
          6    1    1    2  501    0  0.11503612209E+03 -0.24782916413E+02 -0.11498810978E+03  0.23874414699E+03  0.17300000000E+03 0.  1.
         -6    1    1    2    0  502 -0.11503612209E+03  0.24782916413E+02  0.73807025096E+03  0.76715330781E+03  0.17300000000E+03 0.  1.
</event>
<event>
 4    1  0.6017350E+000  0.1000000E+03  0.7546771E-02  0.1280296E+00
         21   -1    0    0  503  502  0.00000000000E+00  0.00000000000E+00  0.98145826097E+03  0.98145826097E+03  0.00000000000E+00 0. -1.
         21   -1    0    0  501  503 -0.00000000000E+00 -0.00000000000E+00 -0.42954677235E+02  0.42954677235E+02  0.00000000000E+00 0. -1.
          6    1    1    2  501    0 -0.10140369284E+03  0.27198378969E+02  0.38259257915E+03  0.43281467438E+03  0.17300000000E+03 0. -1.
         -6    1    1    2    0  502  0.10140369284E+03 -0.27198378969E+02  0.55591100458E+03  0.59159826382E+03  0.17300000000E+03 0. -1.
</event>
<event>
 4    1  0.6017350E+000  0.1000000E+03  0.7546771E-02  0.1280296E+00
         21   -1    0    0  503  502  0.00000000000E+00  0.00000000000E+00  0.16623247292E+03  0.16623247292E+03  0.00000000000E+00 0. -1.
         21   -1    0    0  501  503 -0.00000000000E+00 -0.00000000000E+00 -0.34046547510E+03  0.34046547510E+03  0.00000000000E+00 0. -1.
          6    1    1    2  501    0  0.38862001083E+02 -0.64672946102E+02 -0.24134734663E+03  0.30638274561E+03  0.17300000000E+03 0. -1.
         -6    1    1    2    0  502 -0.38862001083E+02  0.64672946102E+02  0.67114344442E+02  0.20031520241E+03  0.17300000000E+03 0. -1.
</event>
<event>
 4    1  0.6017350E+000  0.1000000E+03  0.7546771E-02  0.1280296E+00
         21   -1    0    0  503  502  0.00000000000E+00  0.00000000000E+00  0.43958758205E+03  0.43958758205E+03  0.00000000000E+00 0. -1.
         21   -1    0    0  501  503 -0.00000000000E+00 -0.00000000000E+00 -0.20946521920E+03  0.20946521920E+03  0.00000000000E+00 0. -1.
          6    1    1    2  501    0  0.49361837982E+02 -0.36257171052E+02 -0.14338543842E+03  0.23289387594E+03  0.17300000000E+03 0. -1.
         -6    1    1    2    0  502 -0.49361837982E+02  0.36257171052E+02  0.37350780127E+03  0.41615892531E+03  0.17300000000E+03 0. -1.
</event>
<event>
 4    1  0.6017350E+000  0.1000000E+03  0.7546771E-02  0.1280296E+00
         21   -1    0    0  503  502  0.00000000000E+00  0.00000000000E+00  0.29857420596E+03  0.29857420596E+03  0.00000000000E+00 0.  1.
         21   -1    0    0  501  503 -0.00000000000E+00 -0.00000000000E+00 -0.40431938650E+03  0.40431938650E+03  0.00000000000E+00 0. -1.
          6    1    1    2  501    0  0.25928317811E+03 -0.25375206147E+02 -0.20600456737E+03  0.37448437793E+03  0.17300000000E+03 0. -1.
         -6    1    1    2    0  502 -0.25928317811E+03  0.25375206147E+02  0.10025938683E+03  0.32840921453E+03  0.17300000000E+03 0.  1.
</event>
<event>
 4    1  0.6017350E+000  0.1000000E+03  0.7546771E-02  0.1280296E+00
         21   -1    0    0  503  502  0.00000000000E+00  0.00000000000E+00  0.22583384599E+03  0.22583384599E+03  0.00000000000E+00 0.  1.
         21   -1    0    0  501  503 -0.00000000000E+00 -0.00000000000E+00 -0.26070731403E+03  0.26070731403E+03  0.00000000000E+00 0. -1.
          6    1    1    2  501    0  0.46753285785E+01 -0.52033643631E+01 -0.18787098735E+03  0.25548667594E+03  0.17300000000E+03 0. -1.
         -6    1    1    2    0  502 -0.46753285785E+01  0.52033643631E+01  0.15299751930E+03  0.23105448407E+03  0.17300000000E+03 0.  1.
</event>
<event>
 4    1  0.6017350E+000  0.1000000E+03  0.7546771E-02  0.1280296E+00
         21   -1    0    0  503  502  0.00000000000E+00  0.00000000000E+00  0.38987946321E+02  0.38987946321E+02  0.00000000000E+00 0.  1.
         21   -1    0    0  501  503 -0.00000000000E+00 -0.00000000000E+00 -0.12441466203E+04  0.12441466203E+04  0.00000000000E+00 0. -1.
          6    1    1    2  501    0 -0.49554204109E+02 -0.10111601550E+03 -0.82628701443E+03  0.85168027918E+03  0.17300000000E+03 0. -1.
         -6    1    1    2    0  502  0.49554204109E+02  0.10111601550E+03 -0.37887165951E+03  0.43145428740E+03  0.17300000000E+03 0.  1.
</event>
<event>
 4    1  0.6017350E+000  0.1000000E+03  0.7546771E-02  0.1280296E+00
         21   -1    0    0  503  502  0.00000000000E+00  0.00000000000E+00  0.27850570364E+03  0.27850570364E+03  0.00000000000E+00 0.  1.
         21   -1    0    0  501  503 -0.00000000000E+00 -0.00000000000E+00 -0.29182982819E+03  0.29182982819E+03  0.00000000000E+00 0. -1.
          6    1    1    2  501    0 -0.38239502995E+01  0.21124909086E+03 -0.88577463173E+02  0.28708146573E+03  0.17300000000E+03 0. -1.
         -6    1    1    2    0  502  0.38239502995E+01 -0.21124909086E+03  0.75253338619E+02  0.28325406609E+03  0.17300000000E+03 0.  1.
</event>
<event>
 4    1  0.6017350E+000  0.1000000E+03  0.7546771E-02  0.1280296E+00
         21   -1    0    0  503  502  0.00000000000E+00  0.00000000000E+00  0.33509107201E+03  0.33509107201E+03  0.00000000000E+00 0.  1.
         21   -1    0    0  501  503 -0.00000000000E+00 -0.00000000000E+00 -0.10170739402E+03  0.10170739402E+03  0.00000000000E+00 0. -1.
          6    1    1    2  501    0 -0.70605605248E+01 -0.69668334717E+01  0.41368887362E+02  0.17815379066E+03  0.17300000000E+03 0. -1.
         -6    1    1    2    0  502  0.70605605248E+01  0.69668334717E+01  0.19201479063E+03  0.25864467538E+03  0.17300000000E+03 0.  1.
</event>
<event>
 4    1  0.6017350E+000  0.1000000E+03  0.7546771E-02  0.1280296E+00
         21   -1    0    0  503  502  0.00000000000E+00  0.00000000000E+00  0.18443971721E+03  0.18443971721E+03  0.00000000000E+00 0. -1.
         21   -1    0    0  501  503 -0.00000000000E+00 -0.00000000000E+00 -0.35889411988E+03  0.35889411988E+03  0.00000000000E+00 0. -1.
          6    1    1    2  501    0 -0.77867643605E+02  0.14651665047E+03 -0.18591276354E+03  0.30335301949E+03  0.17300000000E+03 0. -1.
         -6    1    1    2    0  502  0.77867643605E+02 -0.14651665047E+03  0.11458360871E+02  0.23998081761E+03  0.17300000000E+03 0. -1.
</event>
<event>
 4    1  0.6017350E+000  0.1000000E+03  0.7546771E-02  0.1280296E+00
         21   -1    0    0  503  502  0.00000000000E+00  0.00000000000E+00  0.18715589690E+04  0.18715589690E+04  0.00000000000E+00 0. -1.
         21   -1    0    0  501  503 -0.00000000000E+00 -0.00000000000E+00 -0.49782105425E+02  0.49782105425E+02  0.00000000000E+00 0. -1.
          6    1    1    2  501    0 -0.12347700479E+03  0.88252905925E+02  0.27981264597E+03  0.36229720253E+03  0.17300000000E+03 0. -1.
         -6    1    1    2    0  502  0.12347700479E+03 -0.88252905925E+02  0.15419642176E+04  0.15590438719E+04  0.17300000000E+03 0. -1.
</event>
<event>
 4    1  0.6017350E+000  0.1000000E+03  0.7546771E-02  0.1280296E+00
         21   -1    0    0  503  502  0.00000000000E+00  0.00000000000E+00  0.21616485775E+03  0.21616485775E+03  0.00000000000E+00 0.  1.
         21   -1    0    0  501  503 -0.00000000000E+00 -0.00000000000E+00 -0.15007004165E+03  0.15007004165E+03  0.00000000000E+00 0.  1.
          6    1    1    2  501    0 -0.36307166971E+02 -0.22763569401E+02  0.66431288277E+01  0.17835224032E+03  0.17300000000E+03 0.  1.
         -6    1    1    2    0  502  0.36307166971E+02  0.22763569401E+02  0.59451687270E+02  0.18788265908E+03  0.17300000000E+03 0.  1.
</event>
<event>
 4    1  0.6017350E+000  0.1000000E+03  0.7546771E-02  0.1280296E+00
         21   -1    0    0  503  502  0.00000000000E+00  0.00000000000E+00  0.49114962679E+03  0.49114962679E+03  0.00000000000E+00 0.  1.
         21   -1    0    0  501  503 -0.00000000000E+00 -0.00000000000E+00 -0.96060262864E+02  0.96060262864E+02  0.00000000000E+00 0.  1.
          6    1    1    2  501    0  0.79088864496E+02 -0.10339338115E+03  0.17391008100E+03  0.27770299967E+03  0.17300000000E+03 0.  1.
         -6    1    1    2    0  502 -0.79088864496E+02  0.10339338115E+03  0.22117928293E+03  0.30950688999E+03  0.17300000000E+03 0.  1.
</event>
<event>
 4    1  0.6017350E+000  0.1000000E+03  0.7546771E-02  0.1280296E+00
         21   -1    0    0  501  502  0.00000000000E+00  0.00000000000E+00  0.10883775442E+03  0.10883775442E+03  0.00000000000E+00 0.  1.
         21   -1    0    0  502  503 -0.00000000000E+00 -0.00000000000E+00 -0.40060780582E+03  0.40060780582E+03  0.00000000000E+00 0. -1.
          6    1    1    2  501    0  0.84549322169E+01  0.43398659684E+02 -0.13836814048E+02  0.17909602721E+03  0.17300000000E+03 0.  1.
         -6    1    1    2    0  503 -0.84549322169E+01 -0.43398659684E+02 -0.27793323736E+03  0.33034953303E+03  0.17300000000E+03 0. -1.
</event>
<event>
 4    1  0.6017350E+000  0.1000000E+03  0.7546771E-02  0.1280296E+00
         21   -1    0    0  501  502  0.00000000000E+00  0.00000000000E+00  0.38790842340E+03  0.38790842340E+03  0.00000000000E+00 0.  1.
         21   -1    0    0  502  503 -0.00000000000E+00 -0.00000000000E+00 -0.32920797808E+03  0.32920797808E+03  0.00000000000E+00 0. -1.
          6    1    1    2  501    0  0.22986930720E+03  0.13635105785E+03  0.19219902468E+03  0.37188838978E+03  0.17300000000E+03 0.  1.
         -6    1    1    2    0  503 -0.22986930720E+03 -0.13635105785E+03 -0.13349857936E+03  0.34522801170E+03  0.17300000000E+03 0. -1.
</event>
<event>
 4    1  0.6017350E+000  0.1000000E+03  0.7546771E-02  0.1280296E+00
         21   -1    0    0  503  502  0.00000000000E+00  0.00000000000E+00  0.23605639716E+02  0.23605639716E+02  0.00000000000E+00 0.  1.
         21   -1    0    0  501  503 -0.00000000000E+00 -0.00000000000E+00 -0.25117448035E+04  0.25117448035E+04  0.00000000000E+00 0.  1.
          6    1    1    2  501    0  0.10283155279E+03 -0.32419126981E+02 -0.19374197464E+04  0.19481143708E+04  0.17300000000E+03 0.  1.
         -6    1    1    2    0  502 -0.10283155279E+03  0.32419126981E+02 -0.55071941740E+03  0.58723607241E+03  0.17300000000E+03 0.  1.
</event>
<event>
 4    1  0.6017350E+000  0.1000000E+03  0.7546771E-02  0.1280296E+00
         21   -1    0    0  501  502  0.00000000000E+00  0.00000000000E+00  0.53705327697E+03  0.53705327697E+03  0.00000000000E+00 0.  1.
         21   -1    0    0  502  503 -0.00000000000E+00 -0.00000000000E+00 -0.33137723180E+03  0.33137723180E+03  0.00000000000E+00 0.  1.
          6    1    1    2  501    0 -0.97583127546E+02  0.31793740089E+03  0.30197599608E+03  0.48137839573E+03  0.17300000000E+03 0.  1.
         -6    1    1    2    0  503  0.97583127546E+02 -0.31793740089E+03 -0.96299950900E+02  0.38705211304E+03  0.17300000000E+03 0.  1.
</event>
<event>
 4    1  0.6017350E+000  0.1000000E+03  0.7546771E-02  0.1280296E+00
         21   -1    0    0  501  502  0.00000000000E+00  0.00000000000E+00  0.61911073691E+03  0.61911073691E+03  0.00000000000E+00 0.  1.
         21   -1    0    0  502  503 -0.00000000000E+00 -0.00000000000E+00 -0.65137108606E+02  0.65137108606E+02  0.00000000000E+00 0.  1.
          6    1    1    2  501    0 -0.55610099300E+01 -0.98974733992E+01  0.44963153821E+03  0.48189874970E+03  0.17300000000E+03 0.  1.
         -6    1    1    2    0  503  0.55610099300E+01  0.98974733992E+01  0.10434209009E+03  0.20234909581E+03  0.17300000000E+03 0.  1.
</event>
<event>
 4    1  0.6017350E+000  0.1000000E+03  0.7546771E-02  0.1280296E+00
         21   -1    0    0  503  502  0.00000000000E+00  0.00000000000E+00  0.35015186986E+03  0.35015186986E+03  0.00000000000E+00 0.  1.
         21   -1    0    0  501  503 -0.00000000000E+00 -0.00000000000E+00 -0.15493877322E+03  0.15493877322E+03  0.00000000000E+00 0.  1.
          6    1    1    2  501    0  0.14530579590E+03 -0.24846419496E+02  0.15280756285E+03  0.27388002875E+03  0.17300000000E+03 0.  1.
         -6    1    1    2    0  502 -0.14530579590E+03  0.24846419496E+02  0.42405533796E+02  0.23121061433E+03  0.17300000000E+03 0.  1.
</event>
<event>
 4    1  0.6017350E+000  0.1000000E+03  0.7546771E-02  0.1280296E+00
         21   -1    0    0  503  502  0.00000000000E+00  0.00000000000E+00  0.46637001264E+03  0.46637001264E+03  0.00000000000E+00 0.  1.
         21   -1    0    0  501  503 -0.00000000000E+00 -0.00000000000E+00 -0.12529065622E+03  0.12529065622E+03  0.00000000000E+00 0.  1.
          6    1    1    2  501    0  0.69465662527E+01 -0.55311462453E+02 -0.24486902346E+02  0.18340180219E+03  0.17300000000E+03 0.  1.
         -6    1    1    2    0  502 -0.69465662527E+01  0.55311462453E+02  0.36556625877E+03  0.40825886667E+03  0.17300000000E+03 0.  1.
</event>
<event>
 4    1  0.6017350E+000  0.1000000E+03  0.7546771E-02  0.1280296E+00
         21   -1    0    0  501  502  0.00000000000E+00  0.00000000000E+00  0.33486704590E+03  0.33486704590E+03  0.00000000000E+00 0.  1.
         21   -1    0    0  502  503 -0.00000000000E+00 -0.00000000000E+00 -0.11282611669E+03  0.11282611669E+03  0.00000000000E+00 0.  1.
          6    1    1    2  501    0  0.60327842004E+02  0.35588988273E+02  0.17353473325E+03  0.25485158083E+03  0.17300000000E+03 0.  1.
         -6    1    1    2    0  503 -0.60327842004E+02 -0.35588988273E+02  0.48506195963E+02  0.19284158176E+03  0.17300000000E+03 0.  1.
</event>
<event>
 4    1  0.6017350E+000  0.1000000E+03  0.7546771E-02  0.1280296E+00
         21   -1    0    0  501  502  0.00000000000E+00  0.00000000000E+00  0.11325632023E+04  0.11325632023E+04  0.00000000000E+00 0.  1.
         21   -1    0    0  502  503 -0.00000000000E+00 -0.00000000000E+00 -0.33051099639E+02  0.33051099639E+02  0.00000000000E+00 0.  1.
          6    1    1    2  501    0 -0.54440072266E+02  0.22855029770E+01  0.75260187820E+03  0.77414955407E+03  0.17300000000E+03 0.  1.
         -6    1    1    2    0  503  0.54440072266E+02 -0.22855029770E+01  0.34691022447E+03  0.39146474788E+03  0.17300000000E+03 0.  1.
</event>
<event>
 4    1  0.6017350E+000  0.1000000E+03  0.7546771E-02  0.1280296E+00
         21   -1    0    0  503  502  0.00000000000E+00  0.00000000000E+00  0.15100987521E+03  0.15100987521E+03  0.00000000000E+00 0. -1.
         21   -1    0    0  501  503 -0.00000000000E+00 -0.00000000000E+00 -0.43894351237E+03  0.43894351237E+03  0.00000000000E+00 0.  1.
          6    1    1    2  501    0 -0.49792359670E+02  0.13602018960E+03 -0.28603236102E+03  0.36431344007E+03  0.17300000000E+03 0.  1.
         -6    1    1    2    0  502  0.49792359670E+02 -0.13602018960E+03 -0.19012761356E+01  0.22563994751E+03  0.17300000000E+03 0. -1.
</event>
<event>
 4    1  0.6017350E+000  0.1000000E+03  0.7546771E-02  0.1280296E+00
         21   -1    0    0  503  502  0.00000000000E+00  0.00000000000E+00  0.15681545481E+03  0.15681545481E+03  0.00000000000E+00 0. -1.
         21   -1    0    0  501  503 -0.00000000000E+00 -0.00000000000E+00 -0.72682002226E+03  0.72682002226E+03  0.00000000000E+00 0.  1.
          6    1    1    2  501    0 -0.24922279640E+03  0.14509294415E+03 -0.32390454476E+03  0.46691232454E+03  0.17300000000E+03 0.  1.
         -6    1    1    2    0  502  0.24922279640E+03 -0.14509294415E+03 -0.24610002269E+03  0.41672315253E+03  0.17300000000E+03 0. -1.
</event>
<event>
 4    1  0.6017350E+000  0.1000000E+03  0.7546771E-02  0.1280296E+00
         21   -1    0    0  501  502  0.00000000000E+00  0.00000000000E+00  0.16045015719E+03  0.16045015719E+03  0.00000000000E+00 0. -1.
         21   -1    0    0  502  503 -0.00000000000E+00 -0.00000000000E+00 -0.39004334980E+03  0.39004334980E+03  0.00000000000E+00 0. -1.
          6    1    1    2  501    0 -0.37419142452E+02 -0.39058541137E+01 -0.30925995479E+03  0.35635118570E+03  0.17300000000E+03 0. -1.
         -6    1    1    2    0  503  0.37419142452E+02  0.39058541137E+01  0.79666762173E+02  0.19414232128E+03  0.17300000000E+03 0. -1.
</event>
<event>
 4    1  0.6017350E+000  0.1000000E+03  0.7546771E-02  0.1280296E+00
         21   -1    0    0  501  502  0.00000000000E+00  0.00000000000E+00  0.45729971216E+03  0.45729971216E+03  0.00000000000E+00 0.  1.
         21   -1    0    0  502  503 -0.00000000000E+00 -0.00000000000E+00 -0.74730660569E+02  0.74730660569E+02  0.00000000000E+00 0.  1.
          6    1    1    2  501    0  0.39840199554E+02  0.20926366724E+02  0.25908741924E+03  0.31477046420E+03  0.17300000000E+03 0.  1.
         -6    1    1    2    0  503 -0.39840199554E+02 -0.20926366724E+02  0.12348163235E+03  0.21725990852E+03  0.17300000000E+03 0.  1.
</event>
<event>
 4    1  0.6017350E+000  0.1000000E+03  0.7546771E-02  0.1280296E+00
         21   -1    0    0  503  502  0.00000000000E+00  0.00000000000E+00  0.16105313570E+02  0.16105313570E+02  0.00000000000E+00 0. -1.
         21   -1    0    0  501  503 -0.00000000000E+00 -0.00000000000E+00 -0.39542356163E+04  0.39542356163E+04  0.00000000000E+00 0. -1.
          6    1    1    2  501    0  0.56177938502E+01  0.17590004789E+01 -0.34136041502E+04  0.34179901914E+04  0.17300000000E+03 0. -1.
         -6    1    1    2    0  502 -0.56177938502E+01 -0.17590004789E+01 -0.52452615253E+03  0.55235073855E+03  0.17300000000E+03 0. -1.
</event>
<event>
 4    1  0.6017350E+000  0.1000000E+03  0.7546771E-02  0.1280296E+00
         21   -1    0    0  503  502  0.00000000000E+00  0.00000000000E+00  0.12648194964E+03  0.12648194964E+03  0.00000000000E+00 0. -1.
         21   -1    0    0  501  503 -0.00000000000E+00 -0.00000000000E+00 -0.30317240995E+03  0.30317240995E+03  0.00000000000E+00 0. -1.
          6    1    1    2  501    0  0.37409802621E+02  0.82223532055E+02 -0.70770527007E+02  0.20759978335E+03  0.17300000000E+03 0. -1.
         -6    1    1    2    0  502 -0.37409802621E+02 -0.82223532055E+02 -0.10591993330E+03  0.22205457623E+03  0.17300000000E+03 0. -1.
</event>
<event>
 4    1  0.6017350E+000  0.1000000E+03  0.7546771E-02  0.1280296E+00
         21   -1    0    0  503  502  0.00000000000E+00  0.00000000000E+00  0.39650599704E+03  0.39650599704E+03  0.00000000000E+00 0.  1.
         21   -1    0    0  501  503 -0.00000000000E+00 -0.00000000000E+00 -0.87617689837E+02  0.87617689837E+02  0.00000000000E+00 0. -1.
          6    1    1    2  501    0 -0.33960207997E+02  0.86387621355E+01  0.76695925802E+02  0.19245568054E+03  0.17300000000E+03 0.  1.
         -6    1    1    2    0  502  0.33960207997E+02 -0.86387621355E+01  0.23219238140E+03  0.29166800634E+03  0.17300000000E+03 0.  1.
</event>
<event>
 4    1  0.6017350E+000  0.1000000E+03  0.7546771E-02  0.1280296E+00
         21   -1    0    0  503  502  0.00000000000E+00  0.00000000000E+00  0.35328102210E+03  0.35328102210E+03  0.00000000000E+00 0. -1.
         21   -1    0    0  501  503 -0.00000000000E+00 -0.00000000000E+00 -0.23048604960E+03  0.23048604960E+03  0.00000000000E+00 0.  1.
          6    1    1    2  501    0  0.82687695530E+02  0.18552580642E+02 -0.15393367350E+03  0.24658878539E+03  0.17300000000E+03 0.  1.
         -6    1    1    2    0  502 -0.82687695530E+02 -0.18552580642E+02  0.27672864600E+03  0.33717828631E+03  0.17300000000E+03 0.  1.
</event>
<event>
 4    1  0.6017350E+000  0.1000000E+03  0.7546771E-02  0.1280296E+00
         21   -1    0    0  503  502  0.00000000000E+00  0.00000000000E+00  0.41074230165E+02  0.41074230165E+02  0.00000000000E+00 0. -1.
         21   -1    0    0  501  503 -0.00000000000E+00 -0.00000000000E+00 -0.16032934488E+04  0.16032934488E+04  0.00000000000E+00 0.  1.
          6    1    1    2  501    0 -0.17224177299E+02 -0.18570452588E+03 -0.67282943059E+03  0.71931306528E+03  0.17300000000E+03 0.  1.
         -6    1    1    2    0  502  0.17224177299E+02  0.18570452588E+03 -0.88938978804E+03  0.92505461368E+03  0.17300000000E+03 0.  1.
</event>
<event>
 4    1  0.6017350E+000  0.1000000E+03  0.7546771E-02  0.1280296E+00
         21   -1    0    0  503  502  0.00000000000E+00  0.00000000000E+00  0.10794523967E+03  0.10794523967E+03  0.00000000000E+00 0.  1.
         21   -1    0    0  501  503 -0.00000000000E+00 -0.00000000000E+00 -0.10375787385E+04  0.10375787385E+04  0.00000000000E+00 0.  1.
          6    1    1    2  501    0 -0.14561791406E+03 -0.18770457033E+02 -0.88583044352E+03  0.91442959358E+03  0.17300000000E+03 0.  1.
         -6    1    1    2    0  502  0.14561791406E+03  0.18770457033E+02 -0.43803055361E+02  0.23109438464E+03  0.17300000000E+03 0.  1.
</event>
<event>
 4    1  0.6017350E+000  0.1000000E+03  0.7546771E-02  0.1280296E+00
         21   -1    0    0  501  502  0.00000000000E+00  0.00000000000E+00  0.10669225764E+03  0.10669225764E+03  0.00000000000E+00 0. -1.
         21   -1    0    0  502  503 -0.00000000000E+00 -0.00000000000E+00 -0.57228733814E+03  0.57228733814E+03  0.00000000000E+00 0.  1.
          6    1    1    2  501    0  0.17467087391E+03 -0.24880020287E+02 -0.23394581019E+03  0.34027719833E+03  0.17300000000E+03 0.  1.
         -6    1    1    2    0  503 -0.17467087391E+03  0.24880020287E+02 -0.23164927031E+03  0.33870239745E+03  0.17300000000E+03 0. -1.
</event>
<event>
 4    1  0.6017350E+000  0.1000000E+03  0.7546771E-02  0.1280296E+00
         21   -1    0    0  503  502  0.00000000000E+00  0.00000000000E+00  0.47922774385E+03  0.47922774385E+03  0.00000000000E+00 0. -1.
         21   -1    0    0  501  503 -0.00000000000E+00 -0.00000000000E+00 -0.12803283290E+03  0.12803283290E+03  0.00000000000E+00 0. -1.
          6    1    1    2  501    0 -0.97065359426E+02 -0.14961926882E+02 -0.53138586884E+01  0.19900447319E+03  0.17300000000E+03 0. -1.
         -6    1    1    2    0  502  0.97065359426E+02  0.14961926882E+02  0.35650876965E+03  0.40825610356E+03  0.17300000000E+03 0. -1.
</event>
<event>
 4    1  0.6017350E+000  0.1000000E+03  0.7546771E-02  0.1280296E+00
         21   -1    0    0  501  502  0.00000000000E+00  0.00000000000E+00  0.17018952244E+04  0.17018952244E+04  0.00000000000E+00 0. -1.
         21   -1    0    0  502  503 -0.00000000000E+00 -0.00000000000E+00 -0.11525840381E+03  0.11525840381E+03  0.00000000000E+00 0. -1.
          6    1    1    2  501    0  0.35270555136E+03 -0.13208571066E+03  0.11136381349E+04  0.11882620656E+04  0.17300000000E+03 0. -1.
         -6    1    1    2    0  503 -0.35270555136E+03  0.13208571066E+03  0.47299868568E+03  0.62889156266E+03  0.17300000000E+03 0. -1.
</event>
<event>
 4    1  0.6017350E+000  0.1000000E+03  0.7546771E-02  0.1280296E+00
         21   -1    0    0  501  502  0.00000000000E+00  0.00000000000E+00  0.52419235080E+02  0.52419235080E+02  0.00000000000E+00 0.  1.
         21   -1    0    0  502  503 -0.00000000000E+00 -0.00000000000E+00 -0.66740029498E+03  0.66740029498E+03  0.00000000000E+00 0. -1.
          6    1    1    2  501    0  0.39848176905E+02  0.57250519888E+02 -0.28095902847E+03  0.33724245715E+03  0.17300000000E+03 0.  1.
         -6    1    1    2    0  503 -0.39848176905E+02 -0.57250519888E+02 -0.33402203143E+03  0.38257707290E+03  0.17300000000E+03 0. -1.
</event>
<event>
 4    1  0.6017350E+000  0.1000000E+03  0.7546771E-02  0.1280296E+00
         21   -1    0    0  501  502  0.00000000000E+00  0.00000000000E+00  0.48403739123E+03  0.48403739123E+03  0.00000000000E+00 0. -1.
         21   -1    0    0  502  503 -0.00000000000E+00 -0.00000000000E+00 -0.99877410388E+02  0.99877410388E+02  0.00000000000E+00 0.  1.
          6    1    1    2  501    0  0.94487784009E+02 -0.23049105011E+02  0.31774323062E+03  0.37463177011E+03  0.17300000000E+03 0. -1.
         -6    1    1    2    0  503 -0.94487784009E+02  0.23049105011E+02  0.66416750225E+02  0.20928303151E+03  0.17300000000E+03 0.  1.
</event>
<event>
 4    1  0.6017350E+000  0.1000000E+03  0.7546771E-02  0.1280296E+00
         21   -1    0    0  501  502  0.00000000000E+00  0.00000000000E+00  0.33089968482E+03  0.33089968482E+03  0.00000000000E+00 0. -1.
         21   -1    0    0  502  503 -0.00000000000E+00 -0.00000000000E+00 -0.26632706920E+03  0.26632706920E+03  0.00000000000E+00 0.  1.
          6    1    1    2  501    0 -0.23858688238E+03 -0.34690798267E+02  0.23787144832E+02  0.29769444098E+03  0.17300000000E+03 0. -1.
         -6    1    1    2    0  503  0.23858688238E+03  0.34690798267E+02  0.40785470790E+02  0.29953231304E+03  0.17300000000E+03 0.  1.
</event>
<event>
 4    1  0.6017350E+000  0.1000000E+03  0.7546771E-02  0.1280296E+00
         21   -1    0    0  503  502  0.00000000000E+00  0.00000000000E+00  0.62977677307E+03  0.62977677307E+03  0.00000000000E+00 0. -1.
         21   -1    0    0  501  503 -0.00000000000E+00 -0.00000000000E+00 -0.72373111391E+02  0.72373111391E+02  0.00000000000E+00 0.  1.
          6    1    1    2  501    0 -0.70370198958E+02 -0.61118049513E+02  0.14148694334E+03  0.24214651766E+03  0.17300000000E+03 0.  1.
         -6    1    1    2    0  502  0.70370198958E+02  0.61118049513E+02  0.41591671833E+03  0.46000336680E+03  0.17300000000E+03 0. -1.
</event>
<event>
 4    1  0.6017350E+000  0.1000000E+03  0.7546771E-02  0.1280296E+00
         21   -1    0    0  503  502  0.00000000000E+00  0.00000000000E+00  0.26067236345E+03  0.26067236345E+03  0.00000000000E+00 0. -1.
         21   -1    0    0  501  503 -0.00000000000E+00 -0.00000000000E+00 -0.31931111530E+03  0.31931111530E+03  0.00000000000E+00 0.  1.
          6    1    1    2  501    0  0.14545908006E+03 -0.17641253025E+03 -0.61529053143E+02  0.29324827226E+03  0.17300000000E+03 0.  1.
         -6    1    1    2    0  502 -0.14545908006E+03  0.17641253025E+03  0.28903012894E+01  0.28673520649E+03  0.17300000000E+03 0. -1.
</event>
<event>
 4    1  0.6017350E+000  0.1000000E+03  0.7546771E-02  0.1280296E+00
         21   -1    0    0  503  502  0.00000000000E+00  0.00000000000E+00  0.13010338036E+03  0.13010338036E+03  0.00000000000E+00 0. -1.
         21   -1    0    0  501  503 -0.00000000000E+00 -0.00000000000E+00 -0.29997685832E+03  0.29997685832E+03  0.00000000000E+00 0.  1.
          6    1    1    2  501    0  0.37711619593E+02 -0.86704532939E+01 -0.17984096561E+03  0.25252547579E+03  0.17300000000E+03 0.  1.
         -6    1    1    2    0  502 -0.37711619593E+02  0.86704532939E+01  0.99674876463E+01  0.17755476288E+03  0.17300000000E+03 0. -1.
</event>
<event>
 4    1  0.6017350E+000  0.1000000E+03  0.7546771E-02  0.1280296E+00
         21   -1    0    0  503  502  0.00000000000E+00  0.00000000000E+00  0.19631674727E+02  0.19631674727E+02  0.00000000000E+00 0. -1.
         21   -1    0    0  501  503 -0.00000000000E+00 -0.00000000000E+00 -0.17441628099E+04  0.17441628099E+04  0.00000000000E+00 0. -1.
          6    1    1    2  501    0 -0.31243561102E+02  0.10478190070E+02 -0.11329543119E+04  0.11465602580E+04  0.17300000000E+03 0. -1.
         -6    1    1    2    0  502  0.31243561102E+02 -0.10478190070E+02 -0.59157682334E+03  0.61723422660E+03  0.17300000000E+03 0. -1.
</event>
<event>
 4    1  0.6017350E+000  0.1000000E+03  0.7546771E-02  0.1280296E+00
         21   -1    0    0  501  502  0.00000000000E+00  0.00000000000E+00  0.39463666881E+03  0.39463666881E+03  0.00000000000E+00 0.  1.
         21   -1    0    0  502  503 -0.00000000000E+00 -0.00000000000E+00 -0.13399346584E+03  0.13399346584E+03  0.00000000000E+00 0.  1.
          6    1    1    2  501    0 -0.12050252344E+03 -0.10969323214E+02  0.23509331144E+03  0.31597317812E+03  0.17300000000E+03 0.  1.
         -6    1    1    2    0  503  0.12050252344E+03  0.10969323214E+02  0.25549891530E+02  0.21265695654E+03  0.17300000000E+03 0.  1.
</event>
<event>
 4    1  0.6017350E+000  0.1000000E+03  0.7546771E-02  0.1280296E+00
         21   -1    0    0  501  502  0.00000000000E+00  0.00000000000E+00  0.24850249326E+03  0.24850249326E+03  0.00000000000E+00 0.  1.
         21   -1    0    0  502  503 -0.00000000000E+00 -0.00000000000E+00 -0.23912302957E+03  0.23912302957E+03  0.00000000000E+00 0.  1.
          6    1    1    2  501    0  0.60963670102E+02 -0.44458090126E+02  0.15899263944E+03  0.24678077365E+03  0.17300000000E+03 0.  1.
         -6    1    1    2    0  503 -0.60963670102E+02  0.44458090126E+02 -0.14961317574E+03  0.24084474918E+03  0.17300000000E+03 0.  1.
</event>
<event>
 4    1  0.6017350E+000  0.1000000E+03  0.7546771E-02  0.1280296E+00
         21   -1    0    0  501  502  0.00000000000E+00  0.00000000000E+00  0.30043368176E+03  0.30043368176E+03  0.00000000000E+00 0.  1.
         21   -1    0    0  502  503 -0.00000000000E+00 -0.00000000000E+00 -0.15226550603E+03  0.15226550603E+03  0.00000000000E+00 0.  1.
          6    1    1    2  501    0 -0.11518515589E+02 -0.85154182466E+01  0.20631315495E+03  0.26962808915E+03  0.17300000000E+03 0.  1.
         -6    1    1    2    0  503  0.11518515589E+02  0.85154182466E+01 -0.58144979222E+02  0.18307109864E+03  0.17300000000E+03 0.  1.
</event>
<event>
 4    1  0.6017350E+000  0.1000000E+03  0.7546771E-02  0.1280296E+00
         21   -1    0    0  501  502  0.00000000000E+00  0.00000000000E+00  0.82402509435E+03  0.82402509435E+03  0.00000000000E+00 0. -1.
         21   -1    0    0  502  503 -0.00000000000E+00 -0.00000000000E+00 -0.16024076608E+03  0.16024076608E+03  0.00000000000E+00 0. -1.
          6    1    1    2  501    0 -0.18262280417E+03  0.33661680989E+02  0.68409502088E+03  0.72965690222E+03  0.17300000000E+03 0. -1.
         -6    1    1    2    0  503  0.18262280417E+03 -0.33661680989E+02 -0.20310692610E+02  0.25460895821E+03  0.17300000000E+03 0. -1.
</event>
<event>
 4    1  0.6017350E+000  0.1000000E+03  0.7546771E-02  0.1280296E+00
         21   -1    0    0  501  502  0.00000000000E+00  0.00000000000E+00  0.36217622084E+03  0.36217622084E+03  0.00000000000E+00 0. -1.
         21   -1    0    0  502  503 -0.00000000000E+00 -0.00000000000E+00 -0.11187643431E+03  0.11187643431E+03  0.00000000000E+00 0. -1.
          6    1    1    2  501    0  0.10098886016E+03 -0.14404794829E+02  0.10918872543E+03  0.22859883147E+03  0.17300000000E+03 0. -1.
         -6    1    1    2    0  503 -0.10098886016E+03  0.14404794829E+02  0.14111106110E+03  0.24545382367E+03  0.17300000000E+03 0. -1.
</event>
<event>
 4    1  0.6017350E+000  0.1000000E+03  0.7546771E-02  0.1280296E+00
         21   -1    0    0  501  502  0.00000000000E+00  0.00000000000E+00  0.12933824517E+04  0.12933824517E+04  0.00000000000E+00 0. -1.
         21   -1    0    0  502  503 -0.00000000000E+00 -0.00000000000E+00 -0.32197237877E+02  0.32197237877E+02  0.00000000000E+00 0. -1.
          6    1    1    2  501    0  0.87938498610E+02 -0.45674684578E+02  0.48920671647E+03  0.52827224779E+03  0.17300000000E+03 0. -1.
         -6    1    1    2    0  503 -0.87938498610E+02  0.45674684578E+02  0.77197849734E+03  0.79730744177E+03  0.17300000000E+03 0. -1.
</event>
<event>
 4    1  0.6017350E+000  0.1000000E+03  0.7546771E-02  0.1280296E+00
         21   -1    0    0  501  502  0.00000000000E+00  0.00000000000E+00  0.12887478424E+04  0.12887478424E+04  0.00000000000E+00 0. -1.
         21   -1    0    0  502  503 -0.00000000000E+00 -0.00000000000E+00 -0.33725417857E+02  0.33725417857E+02  0.00000000000E+00 0. -1.
          6    1    1    2  501    0 -0.32452698758E+02  0.78258575618E+02  0.88039418320E+03  0.90122167092E+03  0.17300000000E+03 0. -1.
         -6    1    1    2    0  503  0.32452698758E+02 -0.78258575618E+02  0.37462824137E+03  0.42125158937E+03  0.17300000000E+03 0. -1.
</event>
<event>
 4    1  0.6017350E+000  0.1000000E+03  0.7546771E-02  0.1280296E+00
         21   -1    0    0  501  502  0.00000000000E+00  0.00000000000E+00  0.14258616624E+03  0.14258616624E+03  0.00000000000E+00 0. -1.
         21   -1    0    0  502  503 -0.00000000000E+00 -0.00000000000E+00 -0.38359074664E+03  0.38359074664E+03  0.00000000000E+00 0. -1.
          6    1    1    2  501    0 -0.11834552652E+03  0.15177528916E+02 -0.50673448797E+01  0.21021583912E+03  0.17300000000E+03 0. -1.
         -6    1    1    2    0  503  0.11834552652E+03 -0.15177528916E+02 -0.23593723551E+03  0.31596107376E+03  0.17300000000E+03 0. -1.
</event>
<event>
 4    1  0.6017350E+000  0.1000000E+03  0.7546771E-02  0.1280296E+00
         21   -1    0    0  501  502  0.00000000000E+00  0.00000000000E+00  0.20592249818E+03  0.20592249818E+03  0.00000000000E+00 0. -1.
         21   -1    0    0  502  503 -0.00000000000E+00 -0.00000000000E+00 -0.17477689128E+03  0.17477689128E+03  0.00000000000E+00 0. -1.
          6    1    1    2  501    0  0.16820265362E+02  0.38767017893E+01 -0.60600551571E+02  0.18411783454E+03  0.17300000000E+03 0. -1.
         -6    1    1    2    0  503 -0.16820265362E+02 -0.38767017893E+01  0.91746158471E+02  0.19658155493E+03  0.17300000000E+03 0. -1.
</event>
<event>
 4    1  0.6017350E+000  0.1000000E+03  0.7546771E-02  0.1280296E+00
         21   -1    0    0  501  502  0.00000000000E+00  0.00000000000E+00  0.41124226103E+02  0.41124226103E+02  0.00000000000E+00 0. -1.
         21   -1    0    0  502  503 -0.00000000000E+00 -0.00000000000E+00 -0.87941479667E+03  0.87941479667E+03  0.00000000000E+00 0. -1.
          6    1    1    2  501    0  0.49755607765E+02 -0.52607333384E+02 -0.49541693562E+03  0.52972643140E+03  0.17300000000E+03 0. -1.
         -6    1    1    2    0  503 -0.49755607765E+02  0.52607333384E+02 -0.34287363495E+03  0.39081259137E+03  0.17300000000E+03 0. -1.
</event>
