<event>
 4    1  0.5880538E-001  0.1000000E+03  0.7546771E-02  0.1280296E+00
          2   -1    0    0  502    0  0.00000000000E+00  0.00000000000E+00  0.36038290684E+03  0.36038290684E+03  0.00000000000E+00 0.  1.
         -2   -1    0    0    0  501 -0.00000000000E+00 -0.00000000000E+00 -0.18457617841E+03  0.18457617841E+03  0.00000000000E+00 0. -1.
          6    1    1    2  502    0 -0.64969074611E+02 -0.17456978212E+03  0.41930896965E+02  0.25764857773E+03  0.17300000000E+03 0.  1.
         -6    1    1    2    0  501  0.64969074611E+02  0.17456978212E+03  0.13387583147E+03  0.28731050753E+03  0.17300000000E+03 0. -1.
</event>
<event>
 4    1  0.5880538E-001  0.1000000E+03  0.7546771E-02  0.1280296E+00
          4   -1    0    0  502    0  0.00000000000E+00  0.00000000000E+00  0.29086014829E+03  0.29086014829E+03  0.00000000000E+00 0.  1.
         -4   -1    0    0    0  501 -0.00000000000E+00 -0.00000000000E+00 -0.41152060154E+03  0.41152060154E+03  0.00000000000E+00 0. -1.
          6    1    1    2  502    0  0.10435273559E+03  0.23129816089E+03 -0.22203769098E+03  0.37896974664E+03  0.17300000000E+03 0.  1.
         -6    1    1    2    0  501 -0.10435273559E+03 -0.23129816089E+03  0.10137723772E+03  0.32341100319E+03  0.17300000000E+03 0. -1.
</event>
<event>
 4    1  0.5880538E-001  0.1000000E+03  0.7546771E-02  0.1280296E+00
         -1   -1    0    0    0  501 -0.00000000000E+00  0.00000000000E+00  0.62781709622E+03  0.62781709622E+03  0.00000000000E+00 0.  1.
          1   -1    0    0  502    0  0.00000000000E+00 -0.00000000000E+00 -0.48739058294E+02  0.48739058294E+02  0.00000000000E+00 0. -1.
          6    1    1    2  502    0  0.24240893001E+02  0.82407219616E+01  0.28212871781E+03  0.33193545127E+03  0.17300000000E+03 0. -1.
         -6    1    1    2    0  501 -0.24240893001E+02 -0.82407219616E+01  0.29694932011E+03  0.34462070325E+03  0.17300000000E+03 0.  1.
</event>
<event>
 4    1  0.5880538E-001  0.1000000E+03  0.7546771E-02  0.1280296E+00
         -1   -1    0    0    0  501 -0.00000000000E+00  0.00000000000E+00  0.73624092551E+02  0.73624092551E+02  0.00000000000E+00 0.  1.
          1   -1    0    0  502    0  0.00000000000E+00 -0.00000000000E+00 -0.27889451055E+04  0.27889451055E+04  0.00000000000E+00 0. -1.
          6    1    1    2  502    0  0.36010657673E+03  0.11350858153E+03 -0.78523171830E+03  0.88830107290E+03  0.17300000000E+03 0. -1.
         -6    1    1    2    0  501 -0.36010657673E+03 -0.11350858153E+03 -0.19300892947E+04  0.19742681252E+04  0.17300000000E+03 0.  1.
</event>
<event>
 4    1  0.5880538E-001  0.1000000E+03  0.7546771E-02  0.1280296E+00
          2   -1    0    0  502    0  0.00000000000E+00  0.00000000000E+00  0.19672718165E+04  0.19672718165E+04  0.00000000000E+00 0. -1.
         -2   -1    0    0    0  501 -0.00000000000E+00 -0.00000000000E+00 -0.43748652599E+02  0.43748652599E+02  0.00000000000E+00 0.  1.
          6    1    1    2  502    0  0.44186772772E+02 -0.23067788789E+03  0.85491876856E+03  0.90331603533E+03  0.17300000000E+03 0. -1.
         -6    1    1    2    0  501 -0.44186772772E+02  0.23067788789E+03  0.10686043953E+04  0.11077044337E+04  0.17300000000E+03 0.  1.
</event>
<event>
 4    1  0.5880538E-001  0.1000000E+03  0.7546771E-02  0.1280296E+00
          1   -1    0    0  502    0  0.00000000000E+00  0.00000000000E+00  0.52614309739E+03  0.52614309739E+03  0.00000000000E+00 0. -1.
         -1   -1    0    0    0  501 -0.00000000000E+00 -0.00000000000E+00 -0.18196117753E+03  0.18196117753E+03  0.00000000000E+00 0.  1.
          6    1    1    2  502    0 -0.74080792241E+02 -0.22738809066E+03  0.27829997152E+03  0.40567620303E+03  0.17300000000E+03 0. -1.
         -6    1    1    2    0  501  0.74080792241E+02  0.22738809066E+03  0.65881948337E+02  0.30242807189E+03  0.17300000000E+03 0.  1.
</event>
<event>
 4    1  0.5880538E-001  0.1000000E+03  0.7546771E-02  0.1280296E+00
          1   -1    0    0  502    0  0.00000000000E+00  0.00000000000E+00  0.15611068270E+04  0.15611068270E+04  0.00000000000E+00 0. -1.
         -1   -1    0    0    0  501 -0.00000000000E+00 -0.00000000000E+00 -0.31654200934E+02  0.31654200934E+02  0.00000000000E+00 0.  1.
          6    1    1    2  502    0 -0.13930368877E+03 -0.83447775954E+01  0.77684146203E+03  0.80801411507E+03  0.17300000000E+03 0. -1.
         -6    1    1    2    0  501  0.13930368877E+03  0.83447775954E+01  0.75261116399E+03  0.78474691282E+03  0.17300000000E+03 0.  1.
</event>
<event>
 4    1  0.5880538E-001  0.1000000E+03  0.7546771E-02  0.1280296E+00
          2   -1    0    0  502    0  0.00000000000E+00  0.00000000000E+00  0.14376489049E+04  0.14376489049E+04  0.00000000000E+00 0. -1.
         -2   -1    0    0    0  501 -0.00000000000E+00 -0.00000000000E+00 -0.29293678032E+02  0.29293678032E+02  0.00000000000E+00 0.  1.
          6    1    1    2  502    0 -0.33023963177E+02  0.24854015455E+02  0.33834500310E+03  0.38224945435E+03  0.17300000000E+03 0. -1.
         -6    1    1    2    0  501  0.33023963177E+02 -0.24854015455E+02  0.10700102238E+04  0.10846931286E+04  0.17300000000E+03 0.  1.
</event>
<event>
 4    1  0.5880538E-001  0.1000000E+03  0.7546771E-02  0.1280296E+00
         -1   -1    0    0    0  501 -0.00000000000E+00  0.00000000000E+00  0.21019640204E+03  0.21019640204E+03  0.00000000000E+00 0. -1.
          1   -1    0    0  502    0  0.00000000000E+00 -0.00000000000E+00 -0.19315751819E+03  0.19315751819E+03  0.00000000000E+00 0.  1.
          6    1    1    2  502    0 -0.46538417067E+02  0.12618756647E+02 -0.82923871699E+02  0.19781411926E+03  0.17300000000E+03 0.  1.
         -6    1    1    2    0  501  0.46538417067E+02 -0.12618756647E+02  0.99962755559E+02  0.20553980097E+03  0.17300000000E+03 0. -1.
</event>
<event>
 4    1  0.5880538E-001  0.1000000E+03  0.7546771E-02  0.1280296E+00
         -1   -1    0    0    0  501 -0.00000000000E+00  0.00000000000E+00  0.10339218960E+03  0.10339218960E+03  0.00000000000E+00 0. -1.
          1   -1    0    0  502    0  0.00000000000E+00 -0.00000000000E+00 -0.38052631447E+03  0.38052631447E+03  0.00000000000E+00 0.  1.
          6    1    1    2  502    0 -0.95759210344E+02 -0.14840007090E+02 -0.14459226109E+03  0.24540980857E+03  0.17300000000E+03 0.  1.
         -6    1    1    2    0  501  0.95759210344E+02  0.14840007090E+02 -0.13254186378E+03  0.23850869550E+03  0.17300000000E+03 0. -1.
</event>
<event>
 4    1  0.5880538E-001  0.1000000E+03  0.7546771E-02  0.1280296E+00
         -2   -1    0    0    0  501 -0.00000000000E+00  0.00000000000E+00  0.48323394257E+02  0.48323394257E+02  0.00000000000E+00 0. -1.
          2   -1    0    0  502    0  0.00000000000E+00 -0.00000000000E+00 -0.90511813273E+03  0.90511813273E+03  0.00000000000E+00 0.  1.
          6    1    1    2  502    0 -0.66050786435E+02  0.95238273295E+02 -0.47261810464E+03  0.51645900894E+03  0.17300000000E+03 0. -1.
         -6    1    1    2    0  501  0.66050786435E+02 -0.95238273295E+02 -0.38417663384E+03  0.43698251804E+03  0.17300000000E+03 0.  1.
</event>
<event>
 4    1  0.5880538E-001  0.1000000E+03  0.7546771E-02  0.1280296E+00
         -1   -1    0    0    0  501 -0.00000000000E+00  0.00000000000E+00  0.38506573780E+02  0.38506573780E+02  0.00000000000E+00 0. -1.
          1   -1    0    0  502    0  0.00000000000E+00 -0.00000000000E+00 -0.14709798850E+04  0.14709798850E+04  0.00000000000E+00 0.  1.
          6    1    1    2  502    0  0.85810871000E+02 -0.13363529837E+03 -0.59376386882E+03  0.63851893509E+03  0.17300000000E+03 0.  1.
         -6    1    1    2    0  501 -0.85810871000E+02  0.13363529837E+03 -0.83870944243E+03  0.87096752372E+03  0.17300000000E+03 0. -1.
</event>
<event>
 4    1  0.5880538E-001  0.1000000E+03  0.7546771E-02  0.1280296E+00
         -2   -1    0    0    0  501 -0.00000000000E+00  0.00000000000E+00  0.88409226316E+02  0.88409226316E+02  0.00000000000E+00 0.  1.
          2   -1    0    0  502    0  0.00000000000E+00 -0.00000000000E+00 -0.90392189453E+03  0.90392189453E+03  0.00000000000E+00 0. -1.
          6    1    1    2  502    0 -0.99296913658E+02 -0.11471472477E+03 -0.11953495558E+03  0.25930088844E+03  0.17300000000E+03 0.  1.
         -6    1    1    2    0  501  0.99296913658E+02  0.11471472477E+03 -0.69597771263E+03  0.73303023241E+03  0.17300000000E+03 0.  1.
</event>
<event>
 4    1  0.5880538E-001  0.1000000E+03  0.7546771E-02  0.1280296E+00
         -2   -1    0    0    0  501 -0.00000000000E+00  0.00000000000E+00  0.79041668142E+02  0.79041668142E+02  0.00000000000E+00 0.  1.
          2   -1    0    0  502    0  0.00000000000E+00 -0.00000000000E+00 -0.71428477426E+03  0.71428477426E+03  0.00000000000E+00 0. -1.
          6    1    1    2  502    0  0.19526412238E+02 -0.63592761542E+02 -0.69426548738E+02  0.19792515193E+03  0.17300000000E+03 0.  1.
         -6    1    1    2    0  501 -0.19526412238E+02  0.63592761542E+02 -0.56581655738E+03  0.59540129048E+03  0.17300000000E+03 0.  1.
</event>
<event>
 4    1  0.5880538E-001  0.1000000E+03  0.7546771E-02  0.1280296E+00
         -2   -1    0    0    0  501 -0.00000000000E+00  0.00000000000E+00  0.64935171502E+02  0.64935171502E+02  0.00000000000E+00 0.  1.
          2   -1    0    0  502    0  0.00000000000E+00 -0.00000000000E+00 -0.74134144851E+03  0.74134144851E+03  0.00000000000E+00 0. -1.
          6    1    1    2  502    0 -0.78626390799E+02  0.52669895472E+02 -0.16144985256E+03  0.25485541413E+03  0.17300000000E+03 0.  1.
         -6    1    1    2    0  501  0.78626390799E+02 -0.52669895472E+02 -0.51495642444E+03  0.55142120588E+03  0.17300000000E+03 0.  1.
</event>
<event>
 4    1  0.5880538E-001  0.1000000E+03  0.7546771E-02  0.1280296E+00
         -2   -1    0    0    0  501 -0.00000000000E+00  0.00000000000E+00  0.60584031217E+02  0.60584031217E+02  0.00000000000E+00 0.  1.
          2   -1    0    0  502    0  0.00000000000E+00 -0.00000000000E+00 -0.95943520896E+03  0.95943520896E+03  0.00000000000E+00 0. -1.
          6    1    1    2  502    0 -0.31375512289E+02 -0.15907233673E+03 -0.54185216725E+03  0.59145684732E+03  0.17300000000E+03 0. -1.
         -6    1    1    2    0  501  0.31375512289E+02  0.15907233673E+03 -0.35699901049E+03  0.42856239286E+03  0.17300000000E+03 0.  1.
</event>
<event>
 4    1  0.5880538E-001  0.1000000E+03  0.7546771E-02  0.1280296E+00
         -2   -1    0    0    0  501 -0.00000000000E+00  0.00000000000E+00  0.29784447097E+02  0.29784447097E+02  0.00000000000E+00 0.  1.
          2   -1    0    0  502    0  0.00000000000E+00 -0.00000000000E+00 -0.30270788811E+04  0.30270788811E+04  0.00000000000E+00 0. -1.
          6    1    1    2  502    0  0.78587155780E+02 -0.21519118798E+03 -0.19466959870E+04  0.19677493372E+04  0.17300000000E+03 0. -1.
         -6    1    1    2    0  501 -0.78587155780E+02  0.21519118798E+03 -0.10505984470E+04  0.10891139909E+04  0.17300000000E+03 0.  1.
</event>
<event>
 4    1  0.5880538E-001  0.1000000E+03  0.7546771E-02  0.1280296E+00
         -2   -1    0    0    0  501 -0.00000000000E+00  0.00000000000E+00  0.70509838445E+02  0.70509838445E+02  0.00000000000E+00 0. -1.
          2   -1    0    0  502    0  0.00000000000E+00 -0.00000000000E+00 -0.10945577489E+04  0.10945577489E+04  0.00000000000E+00 0.  1.
          6    1    1    2  502    0  0.47857789410E+02 -0.10454443196E+03 -0.12521518748E+03  0.24254432468E+03  0.17300000000E+03 0.  1.
         -6    1    1    2    0  501 -0.47857789410E+02  0.10454443196E+03 -0.89883272293E+03  0.92252326261E+03  0.17300000000E+03 0. -1.
</event>
<event>
 4    1  0.5880538E-001  0.1000000E+03  0.7546771E-02  0.1280296E+00
         -3   -1    0    0    0  501 -0.00000000000E+00  0.00000000000E+00  0.19230432731E+03  0.19230432731E+03  0.00000000000E+00 0. -1.
          3   -1    0    0  502    0  0.00000000000E+00 -0.00000000000E+00 -0.20900343165E+03  0.20900343165E+03  0.00000000000E+00 0.  1.
          6    1    1    2  502    0 -0.45095661709E+01  0.10114515398E+03 -0.47988059605E+01  0.20050612684E+03  0.17300000000E+03 0.  1.
         -6    1    1    2    0  501  0.45095661709E+01 -0.10114515398E+03 -0.11900298374E+02  0.20080163212E+03  0.17300000000E+03 0. -1.
</event>
<event>
 4    1  0.5880538E-001  0.1000000E+03  0.7546771E-02  0.1280296E+00
          2   -1    0    0  502    0  0.00000000000E+00  0.00000000000E+00  0.13628207638E+04  0.13628207638E+04  0.00000000000E+00 0. -1.
         -2   -1    0    0    0  501 -0.00000000000E+00 -0.00000000000E+00 -0.45394831498E+02  0.45394831498E+02  0.00000000000E+00 0.  1.
          6    1    1    2  502    0 -0.12709584689E+03  0.26892839324E+02  0.10061059058E+04  0.10291038202E+04  0.17300000000E+03 0.  1.
         -6    1    1    2    0  501  0.12709584689E+03 -0.26892839324E+02  0.31132002651E+03  0.37911177509E+03  0.17300000000E+03 0.  1.
</event>
<event>
 4    1  0.5880538E-001  0.1000000E+03  0.7546771E-02  0.1280296E+00
          2   -1    0    0  502    0  0.00000000000E+00  0.00000000000E+00  0.40415561925E+03  0.40415561925E+03  0.00000000000E+00 0. -1.
         -2   -1    0    0    0  501 -0.00000000000E+00 -0.00000000000E+00 -0.16008774029E+03  0.16008774029E+03  0.00000000000E+00 0.  1.
          6    1    1    2  502    0  0.14123614136E+02 -0.12451403638E+03  0.27519108274E+03  0.34837100016E+03  0.17300000000E+03 0.  1.
         -6    1    1    2    0  501 -0.14123614136E+02  0.12451403638E+03 -0.31123203782E+02  0.21587235938E+03  0.17300000000E+03 0.  1.
</event>
<event>
 4    1  0.5880538E-001  0.1000000E+03  0.7546771E-02  0.1280296E+00
         -1   -1    0    0    0  501 -0.00000000000E+00  0.00000000000E+00  0.25632754855E+03  0.25632754855E+03  0.00000000000E+00 0. -1.
          1   -1    0    0  502    0  0.00000000000E+00 -0.00000000000E+00 -0.23609304972E+03  0.23609304972E+03  0.00000000000E+00 0.  1.
          6    1    1    2  502    0 -0.41682989335E+02  0.70047572920E+02  0.16498660570E+03  0.25257417550E+03  0.17300000000E+03 0.  1.
         -6    1    1    2    0  501  0.41682989335E+02 -0.70047572920E+02 -0.14475210686E+03  0.23984642277E+03  0.17300000000E+03 0. -1.
</event>
<event>
 4    1  0.5880538E-001  0.1000000E+03  0.7546771E-02  0.1280296E+00
         -2   -1    0    0    0  501 -0.00000000000E+00  0.00000000000E+00  0.20097367581E+02  0.20097367581E+02  0.00000000000E+00 0. -1.
          2   -1    0    0  502    0  0.00000000000E+00 -0.00000000000E+00 -0.19163679545E+04  0.19163679545E+04  0.00000000000E+00 0.  1.
          6    1    1    2  502    0 -0.10753782169E+02  0.92015823600E+02 -0.95577146961E+03  0.97571033496E+03  0.17300000000E+03 0.  1.
         -6    1    1    2    0  501  0.10753782169E+02 -0.92015823600E+02 -0.94049911731E+03  0.96075498712E+03  0.17300000000E+03 0.  1.
</event>
<event>
 4    1  0.5880538E-001  0.1000000E+03  0.7546771E-02  0.1280296E+00
         -2   -1    0    0    0  501 -0.00000000000E+00  0.00000000000E+00  0.46081231253E+02  0.46081231253E+02  0.00000000000E+00 0.  1.
          2   -1    0    0  502    0  0.00000000000E+00 -0.00000000000E+00 -0.11143949728E+04  0.11143949728E+04  0.00000000000E+00 0. -1.
          6    1    1    2  502    0 -0.46249012290E+02 -0.13883681931E+03 -0.52645027127E+03  0.57314354367E+03  0.17300000000E+03 0. -1.
         -6    1    1    2    0  501  0.46249012290E+02  0.13883681931E+03 -0.54186347033E+03  0.58733266043E+03  0.17300000000E+03 0. -1.
</event>
<event>
 4    1  0.5880538E-001  0.1000000E+03  0.7546771E-02  0.1280296E+00
         -1   -1    0    0    0  501 -0.00000000000E+00  0.00000000000E+00  0.39730140176E+03  0.39730140176E+03  0.00000000000E+00 0.  1.
          1   -1    0    0  502    0  0.00000000000E+00 -0.00000000000E+00 -0.80732147531E+02  0.80732147531E+02  0.00000000000E+00 0. -1.
          6    1    1    2  502    0  0.58662923929E+01  0.41502642135E+02  0.13195875435E+03  0.22158293152E+03  0.17300000000E+03 0. -1.
         -6    1    1    2    0  501 -0.58662923929E+01 -0.41502642135E+02  0.18461049987E+03  0.25645061777E+03  0.17300000000E+03 0. -1.
</event>
<event>
 4    1  0.5880538E-001  0.1000000E+03  0.7546771E-02  0.1280296E+00
         -2   -1    0    0    0  501 -0.00000000000E+00  0.00000000000E+00  0.77308007556E+02  0.77308007556E+02  0.00000000000E+00 0. -1.
          2   -1    0    0  502    0  0.00000000000E+00 -0.00000000000E+00 -0.18100141230E+04  0.18100141230E+04  0.00000000000E+00 0.  1.
          6    1    1    2  502    0 -0.18260834737E+03 -0.25850781182E+03 -0.11164360058E+04  0.11732563455E+04  0.17300000000E+03 0.  1.
         -6    1    1    2    0  501  0.18260834737E+03  0.25850781182E+03 -0.61627010968E+03  0.71406578506E+03  0.17300000000E+03 0. -1.
</event>
<event>
 4    1  0.5880538E-001  0.1000000E+03  0.7546771E-02  0.1280296E+00
          1   -1    0    0  502    0  0.00000000000E+00  0.00000000000E+00  0.26129904579E+04  0.26129904579E+04  0.00000000000E+00 0. -1.
         -1   -1    0    0    0  501 -0.00000000000E+00 -0.00000000000E+00 -0.15286840904E+02  0.15286840904E+02  0.00000000000E+00 0.  1.
          6    1    1    2  502    0 -0.75990003099E+02 -0.51018931287E+02  0.15649639666E+04  0.15771552330E+04  0.17300000000E+03 0. -1.
         -6    1    1    2    0  501  0.75990003099E+02  0.51018931287E+02  0.10327396504E+04  0.10511220659E+04  0.17300000000E+03 0.  1.
</event>
<event>
 4    1  0.5880538E-001  0.1000000E+03  0.7546771E-02  0.1280296E+00
          3   -1    0    0  502    0  0.00000000000E+00  0.00000000000E+00  0.12722139790E+03  0.12722139790E+03  0.00000000000E+00 0. -1.
         -3   -1    0    0    0  501 -0.00000000000E+00 -0.00000000000E+00 -0.34800023121E+03  0.34800023121E+03  0.00000000000E+00 0.  1.
          6    1    1    2  502    0 -0.11333804633E+03  0.23612932501E+01 -0.15402335678E+03  0.25788230433E+03  0.17300000000E+03 0. -1.
         -6    1    1    2    0  501  0.11333804633E+03 -0.23612932501E+01 -0.66755476523E+02  0.21733932478E+03  0.17300000000E+03 0.  1.
</event>
<event>
 4    1  0.5880538E-001  0.1000000E+03  0.7546771E-02  0.1280296E+00
          2   -1    0    0  502    0  0.00000000000E+00  0.00000000000E+00  0.11181478003E+03  0.11181478003E+03  0.00000000000E+00 0. -1.
         -2   -1    0    0    0  501 -0.00000000000E+00 -0.00000000000E+00 -0.27861457024E+03  0.27861457024E+03  0.00000000000E+00 0.  1.
          6    1    1    2  502    0  0.17909501231E+02  0.28947946210E+02 -0.92350627775E+02  0.19903862006E+03  0.17300000000E+03 0. -1.
         -6    1    1    2    0  501 -0.17909501231E+02 -0.28947946210E+02 -0.74449162430E+02  0.19139073021E+03  0.17300000000E+03 0.  1.
</event>
<event>
 4    1  0.5880538E-001  0.1000000E+03  0.7546771E-02  0.1280296E+00
          1   -1    0    0  502    0  0.00000000000E+00  0.00000000000E+00  0.40136263015E+03  0.40136263015E+03  0.00000000000E+00 0.  1.
         -1   -1    0    0    0  501 -0.00000000000E+00 -0.00000000000E+00 -0.11761644489E+03  0.11761644489E+03  0.00000000000E+00 0. -1.
          6    1    1    2  502    0  0.10280047357E+03 -0.70876459576E+02  0.92827242685E+02  0.23267425056E+03  0.17300000000E+03 0.  1.
         -6    1    1    2    0  501 -0.10280047357E+03  0.70876459576E+02  0.19091894258E+03  0.28630482449E+03  0.17300000000E+03 0. -1.
</event>
<event>
 4    1  0.5880538E-001  0.1000000E+03  0.7546771E-02  0.1280296E+00
          1   -1    0    0  502    0  0.00000000000E+00  0.00000000000E+00  0.75195673798E+02  0.75195673798E+02  0.00000000000E+00 0. -1.
         -1   -1    0    0    0  501 -0.00000000000E+00 -0.00000000000E+00 -0.95318145340E+03  0.95318145340E+03  0.00000000000E+00 0.  1.
          6    1    1    2  502    0  0.18628766437E+03  0.41696292985E+02 -0.29911204498E+03  0.39476409437E+03  0.17300000000E+03 0. -1.
         -6    1    1    2    0  501 -0.18628766437E+03 -0.41696292985E+02 -0.57887373462E+03  0.63361303284E+03  0.17300000000E+03 0.  1.
</event>
<event>
 4    1  0.5880538E-001  0.1000000E+03  0.7546771E-02  0.1280296E+00
          2   -1    0    0  502    0  0.00000000000E+00  0.00000000000E+00  0.18995925136E+04  0.18995925136E+04  0.00000000000E+00 0. -1.
         -2   -1    0    0    0  501 -0.00000000000E+00 -0.00000000000E+00 -0.30065658236E+02  0.30065658236E+02  0.00000000000E+00 0.  1.
          6    1    1    2  502    0 -0.73841149965E+02  0.39327424885E+02  0.15083408586E+04  0.15205329025E+04  0.17300000000E+03 0. -1.
         -6    1    1    2    0  501  0.73841149965E+02 -0.39327424885E+02  0.36118599678E+03  0.40912526938E+03  0.17300000000E+03 0.  1.
</event>
<event>
 4    1  0.5880538E-001  0.1000000E+03  0.7546771E-02  0.1280296E+00
         -2   -1    0    0    0  501 -0.00000000000E+00  0.00000000000E+00  0.11130724887E+03  0.11130724887E+03  0.00000000000E+00 0.  1.
          2   -1    0    0  502    0  0.00000000000E+00 -0.00000000000E+00 -0.18733731609E+04  0.18733731609E+04  0.00000000000E+00 0. -1.
          6    1    1    2  502    0  0.59232334838E+02  0.41808199944E+03 -0.84402676288E+03  0.95948486398E+03  0.17300000000E+03 0. -1.
         -6    1    1    2    0  501 -0.59232334838E+02 -0.41808199944E+03 -0.91803914916E+03  0.10251955458E+04  0.17300000000E+03 0.  1.
</event>
<event>
 4    1  0.5880538E-001  0.1000000E+03  0.7546771E-02  0.1280296E+00
          2   -1    0    0  502    0  0.00000000000E+00  0.00000000000E+00  0.57233849737E+02  0.57233849737E+02  0.00000000000E+00 0.  1.
         -2   -1    0    0    0  501 -0.00000000000E+00 -0.00000000000E+00 -0.10002130944E+04  0.10002130944E+04  0.00000000000E+00 0. -1.
          6    1    1    2  502    0 -0.10719301529E+03 -0.12163724176E+03 -0.54244789660E+03  0.59200057570E+03  0.17300000000E+03 0. -1.
         -6    1    1    2    0  501  0.10719301529E+03  0.12163724176E+03 -0.40053134811E+03  0.46544636847E+03  0.17300000000E+03 0.  1.
</event>
<event>
 4    1  0.5880538E-001  0.1000000E+03  0.7546771E-02  0.1280296E+00
          2   -1    0    0  502    0  0.00000000000E+00  0.00000000000E+00  0.53681165837E+03  0.53681165837E+03  0.00000000000E+00 0.  1.
         -2   -1    0    0    0  501 -0.00000000000E+00 -0.00000000000E+00 -0.83243903757E+02  0.83243903757E+02  0.00000000000E+00 0. -1.
          6    1    1    2  502    0  0.79486714428E+02  0.25681810033E+02  0.97426204629E+02  0.21540324623E+03  0.17300000000E+03 0. -1.
         -6    1    1    2    0  501 -0.79486714428E+02 -0.25681810033E+02  0.35614154999E+03  0.40465231590E+03  0.17300000000E+03 0.  1.
</event>
<event>
 4    1  0.5880538E-001  0.1000000E+03  0.7546771E-02  0.1280296E+00
          2   -1    0    0  502    0  0.00000000000E+00  0.00000000000E+00  0.10581649501E+03  0.10581649501E+03  0.00000000000E+00 0.  1.
         -2   -1    0    0    0  501 -0.00000000000E+00 -0.00000000000E+00 -0.40599758361E+03  0.40599758361E+03  0.00000000000E+00 0. -1.
          6    1    1    2  502    0 -0.71347350288E+02  0.41148630600E+02 -0.24768715488E+03  0.31314785786E+03  0.17300000000E+03 0.  1.
         -6    1    1    2    0  501  0.71347350288E+02 -0.41148630600E+02 -0.52493933720E+02  0.19866622076E+03  0.17300000000E+03 0. -1.
</event>
<event>
 4    1  0.5880538E-001  0.1000000E+03  0.7546771E-02  0.1280296E+00
          1   -1    0    0  502    0  0.00000000000E+00  0.00000000000E+00  0.48681710604E+03  0.48681710604E+03  0.00000000000E+00 0.  1.
         -1   -1    0    0    0  501 -0.00000000000E+00 -0.00000000000E+00 -0.18634961979E+03  0.18634961979E+03  0.00000000000E+00 0. -1.
          6    1    1    2  502    0 -0.65259736219E+02  0.20046041618E+03  0.73605218629E+01  0.27281200287E+03  0.17300000000E+03 0.  1.
         -6    1    1    2    0  501  0.65259736219E+02 -0.20046041618E+03  0.29310696439E+03  0.40035472297E+03  0.17300000000E+03 0. -1.
</event>
<event>
 4    1  0.5880538E-001  0.1000000E+03  0.7546771E-02  0.1280296E+00
          1   -1    0    0  502    0  0.00000000000E+00  0.00000000000E+00  0.35903072717E+03  0.35903072717E+03  0.00000000000E+00 0. -1.
         -1   -1    0    0    0  501 -0.00000000000E+00 -0.00000000000E+00 -0.97821287065E+02  0.97821287065E+02  0.00000000000E+00 0.  1.
          6    1    1    2  502    0  0.64300054668E+02 -0.15737219610E+02  0.16528819736E+03  0.24825661179E+03  0.17300000000E+03 0.  1.
         -6    1    1    2    0  501 -0.64300054668E+02  0.15737219610E+02  0.95921242749E+02  0.20859540245E+03  0.17300000000E+03 0. -1.
</event>
<event>
 4    1  0.5880538E-001  0.1000000E+03  0.7546771E-02  0.1280296E+00
          2   -1    0    0  502    0  0.00000000000E+00  0.00000000000E+00  0.35023943715E+02  0.35023943715E+02  0.00000000000E+00 0. -1.
         -2   -1    0    0    0  501 -0.00000000000E+00 -0.00000000000E+00 -0.11744040472E+04  0.11744040472E+04  0.00000000000E+00 0.  1.
          6    1    1    2  502    0  0.58055462994E+02 -0.88279796232E+02 -0.58843000485E+03  0.62236856429E+03  0.17300000000E+03 0.  1.
         -6    1    1    2    0  501 -0.58055462994E+02  0.88279796232E+02 -0.55095009863E+03  0.58705942662E+03  0.17300000000E+03 0. -1.
</event>
<event>
 4    1  0.5880538E-001  0.1000000E+03  0.7546771E-02  0.1280296E+00
          1   -1    0    0  502    0  0.00000000000E+00  0.00000000000E+00  0.34497420798E+03  0.34497420798E+03  0.00000000000E+00 0. -1.
         -1   -1    0    0    0  501 -0.00000000000E+00 -0.00000000000E+00 -0.25875475305E+03  0.25875475305E+03  0.00000000000E+00 0.  1.
          6    1    1    2  502    0 -0.22002037007E+03  0.10261929123E+03  0.23028434560E+02  0.29899664041E+03  0.17300000000E+03 0.  1.
         -6    1    1    2    0  501  0.22002037007E+03 -0.10261929123E+03  0.63191020373E+02  0.30473232062E+03  0.17300000000E+03 0.  1.
</event>
<event>
 4    1  0.5880538E-001  0.1000000E+03  0.7546771E-02  0.1280296E+00
          2   -1    0    0  502    0  0.00000000000E+00  0.00000000000E+00  0.52144244783E+02  0.52144244783E+02  0.00000000000E+00 0. -1.
         -2   -1    0    0    0  501 -0.00000000000E+00 -0.00000000000E+00 -0.72754246311E+03  0.72754246311E+03  0.00000000000E+00 0.  1.
          6    1    1    2  502    0  0.40655483620E+02  0.79575744433E+02 -0.34729484916E+03  0.39815559735E+03  0.17300000000E+03 0.  1.
         -6    1    1    2    0  501 -0.40655483620E+02 -0.79575744433E+02 -0.32810336916E+03  0.38153111054E+03  0.17300000000E+03 0.  1.
</event>
<event>
 4    1  0.5880538E-001  0.1000000E+03  0.7546771E-02  0.1280296E+00
          1   -1    0    0  502    0  0.00000000000E+00  0.00000000000E+00  0.14471431348E+03  0.14471431348E+03  0.00000000000E+00 0. -1.
         -1   -1    0    0    0  501 -0.00000000000E+00 -0.00000000000E+00 -0.25167482712E+03  0.25167482712E+03  0.00000000000E+00 0.  1.
          6    1    1    2  502    0 -0.78902668954E+02 -0.16293393047E+02 -0.52526169569E+02  0.19793712212E+03  0.17300000000E+03 0.  1.
         -6    1    1    2    0  501  0.78902668954E+02  0.16293393047E+02 -0.54434344072E+02  0.19845201848E+03  0.17300000000E+03 0.  1.
</event>
<event>
 4    1  0.5880538E-001  0.1000000E+03  0.7546771E-02  0.1280296E+00
         -1   -1    0    0    0  501 -0.00000000000E+00  0.00000000000E+00  0.37846274819E+02  0.37846274819E+02  0.00000000000E+00 0.  1.
          1   -1    0    0  502    0  0.00000000000E+00 -0.00000000000E+00 -0.88216785790E+03  0.88216785790E+03  0.00000000000E+00 0. -1.
          6    1    1    2  502    0  0.79127947945E+01 -0.46774760610E+02 -0.33468644305E+03  0.37972951652E+03  0.17300000000E+03 0. -1.
         -6    1    1    2    0  501 -0.79127947945E+01  0.46774760610E+02 -0.50963514003E+03  0.54028461620E+03  0.17300000000E+03 0. -1.
</event>
<event>
 4    1  0.5880538E-001  0.1000000E+03  0.7546771E-02  0.1280296E+00
         -1   -1    0    0    0  501 -0.00000000000E+00  0.00000000000E+00  0.13963488033E+03  0.13963488033E+03  0.00000000000E+00 0.  1.
          1   -1    0    0  502    0  0.00000000000E+00 -0.00000000000E+00 -0.22635270983E+03  0.22635270983E+03  0.00000000000E+00 0. -1.
          6    1    1    2  502    0  0.33649578460E+02  0.21362201816E+02 -0.33643193266E+02  0.18069173266E+03  0.17300000000E+03 0. -1.
         -6    1    1    2    0  501 -0.33649578460E+02 -0.21362201816E+02 -0.53074636230E+02  0.18529585750E+03  0.17300000000E+03 0. -1.
</event>
<event>
 4    1  0.5880538E-001  0.1000000E+03  0.7546771E-02  0.1280296E+00
         -1   -1    0    0    0  501 -0.00000000000E+00  0.00000000000E+00  0.34259265681E+03  0.34259265681E+03  0.00000000000E+00 0. -1.
          1   -1    0    0  502    0  0.00000000000E+00 -0.00000000000E+00 -0.94861344134E+02  0.94861344134E+02  0.00000000000E+00 0.  1.
          6    1    1    2  502    0 -0.26696146334E+02  0.42755886692E+02  0.13040509703E+03  0.22243030236E+03  0.17300000000E+03 0.  1.
         -6    1    1    2    0  501  0.26696146334E+02 -0.42755886692E+02  0.11732621565E+03  0.21502369859E+03  0.17300000000E+03 0. -1.
</event>
<event>
 4    1  0.5880538E-001  0.1000000E+03  0.7546771E-02  0.1280296E+00
         -2   -1    0    0    0  501 -0.00000000000E+00  0.00000000000E+00  0.22450614535E+03  0.22450614535E+03  0.00000000000E+00 0. -1.
          2   -1    0    0  502    0  0.00000000000E+00 -0.00000000000E+00 -0.19564049763E+03  0.19564049763E+03  0.00000000000E+00 0.  1.
          6    1    1    2  502    0  0.75720095387E+02  0.77464781643E+02  0.62076113726E+02  0.21334659392E+03  0.17300000000E+03 0.  1.
         -6    1    1    2    0  501 -0.75720095387E+02 -0.77464781643E+02 -0.33210466007E+02  0.20680004906E+03  0.17300000000E+03 0. -1.
</event>
<event>
 4    1  0.5880538E-001  0.1000000E+03  0.7546771E-02  0.1280296E+00
         -1   -1    0    0    0  501 -0.00000000000E+00  0.00000000000E+00  0.55250185157E+02  0.55250185157E+02  0.00000000000E+00 0. -1.
          1   -1    0    0  502    0  0.00000000000E+00 -0.00000000000E+00 -0.18803547495E+04  0.18803547495E+04  0.00000000000E+00 0.  1.
          6    1    1    2  502    0 -0.11281093320E+03  0.24697932553E+03 -0.95866510986E+03  0.10112827927E+04  0.17300000000E+03 0.  1.
         -6    1    1    2    0  501  0.11281093320E+03 -0.24697932553E+03 -0.86643945451E+03  0.92432214202E+03  0.17300000000E+03 0. -1.
</event>
<event>
 4    1  0.5880538E-001  0.1000000E+03  0.7546771E-02  0.1280296E+00
         -2   -1    0    0    0  501 -0.00000000000E+00  0.00000000000E+00  0.22764955427E+02  0.22764955427E+02  0.00000000000E+00 0. -1.
          2   -1    0    0  502    0  0.00000000000E+00 -0.00000000000E+00 -0.18706362574E+04  0.18706362574E+04  0.00000000000E+00 0.  1.
          6    1    1    2  502    0  0.55869988027E+02  0.68263525611E+01 -0.13707936594E+04  0.13828131874E+04  0.17300000000E+03 0.  1.
         -6    1    1    2    0  501 -0.55869988027E+02 -0.68263525611E+01 -0.47707764265E+03  0.51058802549E+03  0.17300000000E+03 0. -1.
</event>
<event>
 4    1  0.5880538E-001  0.1000000E+03  0.7546771E-02  0.1280296E+00
          2   -1    0    0  502    0  0.00000000000E+00  0.00000000000E+00  0.30386768747E+04  0.30386768747E+04  0.00000000000E+00 0.  1.
         -2   -1    0    0    0  501 -0.00000000000E+00 -0.00000000000E+00 -0.30487019481E+02  0.30487019481E+02  0.00000000000E+00 0. -1.
          6    1    1    2  502    0 -0.12829087235E+03  0.18788348907E+02  0.42391766210E+03  0.47586419725E+03  0.17300000000E+03 0.  1.
         -6    1    1    2    0  501  0.12829087235E+03 -0.18788348907E+02  0.25842721931E+04  0.25932996969E+04  0.17300000000E+03 0. -1.
</event>
<event>
 4    1  0.5880538E-001  0.1000000E+03  0.7546771E-02  0.1280296E+00
          4   -1    0    0  502    0  0.00000000000E+00  0.00000000000E+00  0.16297325193E+03  0.16297325193E+03  0.00000000000E+00 0. -1.
         -4   -1    0    0    0  501 -0.00000000000E+00 -0.00000000000E+00 -0.43799167875E+03  0.43799167875E+03  0.00000000000E+00 0.  1.
          6    1    1    2  502    0 -0.17439818366E+03 -0.93437312858E+02 -0.83493414859E+02  0.27576331921E+03  0.17300000000E+03 0.  1.
         -6    1    1    2    0  501  0.17439818366E+03  0.93437312858E+02 -0.19152501196E+03  0.32520161147E+03  0.17300000000E+03 0. -1.
</event>
<event>
 4    1  0.5880538E-001  0.1000000E+03  0.7546771E-02  0.1280296E+00
          1   -1    0    0  502    0  0.00000000000E+00  0.00000000000E+00  0.71085584030E+03  0.71085584030E+03  0.00000000000E+00 0. -1.
         -1   -1    0    0    0  501 -0.00000000000E+00 -0.00000000000E+00 -0.68043784706E+02  0.68043784706E+02  0.00000000000E+00 0.  1.
          6    1    1    2  502    0  0.11925905364E+03 -0.28141754111E+02  0.21776362823E+03  0.30391557706E+03  0.17300000000E+03 0.  1.
         -6    1    1    2    0  501 -0.11925905364E+03  0.28141754111E+02  0.42504842737E+03  0.47498404795E+03  0.17300000000E+03 0. -1.
</event>
<event>
 4    1  0.5880538E-001  0.1000000E+03  0.7546771E-02  0.1280296E+00
          2   -1    0    0  502    0  0.00000000000E+00  0.00000000000E+00  0.69180999498E+03  0.69180999498E+03  0.00000000000E+00 0.  1.
         -2   -1    0    0    0  501 -0.00000000000E+00 -0.00000000000E+00 -0.13706181365E+03  0.13706181365E+03  0.00000000000E+00 0. -1.
          6    1    1    2  502    0  0.21909400005E+03  0.99303737414E+02  0.16454230338E+03  0.33891972903E+03  0.17300000000E+03 0.  1.
         -6    1    1    2    0  501 -0.21909400005E+03 -0.99303737414E+02  0.39020587795E+03  0.48995207961E+03  0.17300000000E+03 0. -1.
</event>
<event>
 4    1  0.5880538E-001  0.1000000E+03  0.7546771E-02  0.1280296E+00
          2   -1    0    0  502    0  0.00000000000E+00  0.00000000000E+00  0.91285763635E+03  0.91285763635E+03  0.00000000000E+00 0.  1.
         -2   -1    0    0    0  501 -0.00000000000E+00 -0.00000000000E+00 -0.96594300680E+02  0.96594300680E+02  0.00000000000E+00 0. -1.
          6    1    1    2  502    0 -0.19830170975E+03  0.31795008658E+02  0.63562403544E+03  0.68868091675E+03  0.17300000000E+03 0. -1.
         -6    1    1    2    0  501  0.19830170975E+03 -0.31795008658E+02  0.18063930023E+03  0.32077102028E+03  0.17300000000E+03 0.  1.
</event>
<event>
 4    1  0.5880538E-001  0.1000000E+03  0.7546771E-02  0.1280296E+00
          2   -1    0    0  502    0  0.00000000000E+00  0.00000000000E+00  0.76122425998E+03  0.76122425998E+03  0.00000000000E+00 0.  1.
         -2   -1    0    0    0  501 -0.00000000000E+00 -0.00000000000E+00 -0.61768555529E+02  0.61768555529E+02  0.00000000000E+00 0. -1.
          6    1    1    2  502    0  0.84156780692E+02  0.51091197486E+02  0.51295207542E+03  0.55021950699E+03  0.17300000000E+03 0. -1.
         -6    1    1    2    0  501 -0.84156780692E+02 -0.51091197486E+02  0.18650362903E+03  0.27277330852E+03  0.17300000000E+03 0.  1.
</event>
<event>
 4    1  0.5880538E-001  0.1000000E+03  0.7546771E-02  0.1280296E+00
          2   -1    0    0  502    0  0.00000000000E+00  0.00000000000E+00  0.30780151698E+03  0.30780151698E+03  0.00000000000E+00 0.  1.
         -2   -1    0    0    0  501 -0.00000000000E+00 -0.00000000000E+00 -0.10691525502E+03  0.10691525502E+03  0.00000000000E+00 0. -1.
          6    1    1    2  502    0  0.24988873503E+02  0.34715994858E+02  0.13920651195E+03  0.22613513010E+03  0.17300000000E+03 0.  1.
         -6    1    1    2    0  501 -0.24988873503E+02 -0.34715994858E+02  0.61679750007E+02  0.18858164189E+03  0.17300000000E+03 0. -1.
</event>
<event>
 4    1  0.5880538E-001  0.1000000E+03  0.7546771E-02  0.1280296E+00
          1   -1    0    0  502    0  0.00000000000E+00  0.00000000000E+00  0.12272406039E+04  0.12272406039E+04  0.00000000000E+00 0.  1.
         -1   -1    0    0    0  501 -0.00000000000E+00 -0.00000000000E+00 -0.28950374680E+02  0.28950374680E+02  0.00000000000E+00 0. -1.
          6    1    1    2  502    0 -0.37800020586E+02 -0.55565243271E+02  0.48944785691E+03  0.52345443207E+03  0.17300000000E+03 0.  1.
         -6    1    1    2    0  501  0.37800020586E+02  0.55565243271E+02  0.70884237230E+03  0.73273654651E+03  0.17300000000E+03 0. -1.
</event>
<event>
 4    1  0.5880538E-001  0.1000000E+03  0.7546771E-02  0.1280296E+00
          2   -1    0    0  502    0  0.00000000000E+00  0.00000000000E+00  0.17417198675E+04  0.17417198675E+04  0.00000000000E+00 0.  1.
         -2   -1    0    0    0  501 -0.00000000000E+00 -0.00000000000E+00 -0.25551512916E+02  0.25551512916E+02  0.00000000000E+00 0. -1.
          6    1    1    2  502    0  0.98690581009E+02 -0.23022706416E+02  0.11329035392E+04  0.11505082811E+04  0.17300000000E+03 0. -1.
         -6    1    1    2    0  501 -0.98690581009E+02  0.23022706416E+02  0.58326481538E+03  0.61676309930E+03  0.17300000000E+03 0. -1.
</event>
<event>
 4    1  0.5880538E-001  0.1000000E+03  0.7546771E-02  0.1280296E+00
          1   -1    0    0  502    0  0.00000000000E+00  0.00000000000E+00  0.36786340848E+03  0.36786340848E+03  0.00000000000E+00 0.  1.
         -1   -1    0    0    0  501 -0.00000000000E+00 -0.00000000000E+00 -0.13907996671E+03  0.13907996671E+03  0.00000000000E+00 0. -1.
          6    1    1    2  502    0 -0.11649316437E+03  0.85762916667E+02  0.94741240449E+02  0.24460342978E+03  0.17300000000E+03 0. -1.
         -6    1    1    2    0  501  0.11649316437E+03 -0.85762916667E+02  0.13404220132E+03  0.26233994541E+03  0.17300000000E+03 0. -1.
</event>
<event>
 4    1  0.5880538E-001  0.1000000E+03  0.7546771E-02  0.1280296E+00
          2   -1    0    0  502    0  0.00000000000E+00  0.00000000000E+00  0.11151035603E+04  0.11151035603E+04  0.00000000000E+00 0.  1.
         -2   -1    0    0    0  501 -0.00000000000E+00 -0.00000000000E+00 -0.33733061757E+02  0.33733061757E+02  0.00000000000E+00 0. -1.
          6    1    1    2  502    0 -0.28469404697E+02 -0.60349507121E+02  0.70912015134E+03  0.73296177189E+03  0.17300000000E+03 0. -1.
         -6    1    1    2    0  501  0.28469404697E+02  0.60349507121E+02  0.37225034725E+03  0.41587485022E+03  0.17300000000E+03 0. -1.
</event>
<event>
 4    1  0.5880538E-001  0.1000000E+03  0.7546771E-02  0.1280296E+00
          2   -1    0    0  502    0  0.00000000000E+00  0.00000000000E+00  0.68310585634E+03  0.68310585634E+03  0.00000000000E+00 0.  1.
         -2   -1    0    0    0  501 -0.00000000000E+00 -0.00000000000E+00 -0.11584475257E+03  0.11584475257E+03  0.00000000000E+00 0. -1.
          6    1    1    2  502    0 -0.15376914279E+03  0.26876163634E+02  0.50743341387E+03  0.55837706522E+03  0.17300000000E+03 0. -1.
         -6    1    1    2    0  501  0.15376914279E+03 -0.26876163634E+02  0.59827689905E+02  0.24057354370E+03  0.17300000000E+03 0. -1.
</event>
<event>
 4    1  0.5880538E-001  0.1000000E+03  0.7546771E-02  0.1280296E+00
          3   -1    0    0  502    0  0.00000000000E+00  0.00000000000E+00  0.14555830135E+04  0.14555830135E+04  0.00000000000E+00 0.  1.
         -3   -1    0    0    0  501 -0.00000000000E+00 -0.00000000000E+00 -0.24006747342E+02  0.24006747342E+02  0.00000000000E+00 0. -1.
          6    1    1    2  502    0  0.70494731595E+01  0.63629312746E+02  0.59598294829E+03  0.62387743921E+03  0.17300000000E+03 0. -1.
         -6    1    1    2    0  501 -0.70494731595E+01 -0.63629312746E+02  0.83559331787E+03  0.85571232162E+03  0.17300000000E+03 0. -1.
</event>
<event>
 4    1  0.5880538E-001  0.1000000E+03  0.7546771E-02  0.1280296E+00
          1   -1    0    0  502    0  0.00000000000E+00  0.00000000000E+00  0.53322498612E+03  0.53322498612E+03  0.00000000000E+00 0.  1.
         -1   -1    0    0    0  501 -0.00000000000E+00 -0.00000000000E+00 -0.10343145916E+03  0.10343145916E+03  0.00000000000E+00 0. -1.
          6    1    1    2  502    0 -0.28099419578E+02  0.56477454465E+02  0.17331180074E+02  0.18495580566E+03  0.17300000000E+03 0. -1.
         -6    1    1    2    0  501  0.28099419578E+02 -0.56477454465E+02  0.41246234688E+03  0.45170063963E+03  0.17300000000E+03 0. -1.
</event>
<event>
 4    1  0.5880538E-001  0.1000000E+03  0.7546771E-02  0.1280296E+00
          2   -1    0    0  502    0  0.00000000000E+00  0.00000000000E+00  0.20869337586E+04  0.20869337586E+04  0.00000000000E+00 0.  1.
         -2   -1    0    0    0  501 -0.00000000000E+00 -0.00000000000E+00 -0.14977247540E+02  0.14977247540E+02  0.00000000000E+00 0. -1.
          6    1    1    2  502    0 -0.14330732556E+02 -0.10961292551E+02  0.84780900751E+03  0.86546786945E+03  0.17300000000E+03 0.  1.
         -6    1    1    2    0  501  0.14330732556E+02  0.10961292551E+02  0.12241475035E+04  0.12364431367E+04  0.17300000000E+03 0. -1.
</event>
<event>
 4    1  0.5880538E-001  0.1000000E+03  0.7546771E-02  0.1280296E+00
          2   -1    0    0  502    0  0.00000000000E+00  0.00000000000E+00  0.19730683508E+04  0.19730683508E+04  0.00000000000E+00 0.  1.
         -2   -1    0    0    0  501 -0.00000000000E+00 -0.00000000000E+00 -0.20151075307E+02  0.20151075307E+02  0.00000000000E+00 0. -1.
          6    1    1    2  502    0 -0.95393608594E+02  0.13227865781E+02  0.85865479704E+03  0.88118782191E+03  0.17300000000E+03 0.  1.
         -6    1    1    2    0  501  0.95393608594E+02 -0.13227865781E+02  0.10942624785E+04  0.11120316042E+04  0.17300000000E+03 0. -1.
</event>
<event>
 4    1  0.5880538E-001  0.1000000E+03  0.7546771E-02  0.1280296E+00
          2   -1    0    0  502    0  0.00000000000E+00  0.00000000000E+00  0.20594028171E+03  0.20594028171E+03  0.00000000000E+00 0.  1.
         -2   -1    0    0    0  501 -0.00000000000E+00 -0.00000000000E+00 -0.28195559369E+03  0.28195559369E+03  0.00000000000E+00 0. -1.
          6    1    1    2  502    0  0.14366634777E+03 -0.84951277328E+02 -0.54956052976E+02  0.24658853737E+03  0.17300000000E+03 0.  1.
         -6    1    1    2    0  501 -0.14366634777E+03  0.84951277328E+02 -0.21059259005E+02  0.24130733804E+03  0.17300000000E+03 0. -1.
</event>
<event>
 4    1  0.5880538E-001  0.1000000E+03  0.7546771E-02  0.1280296E+00
          2   -1    0    0  502    0  0.00000000000E+00  0.00000000000E+00  0.13315884389E+03  0.13315884389E+03  0.00000000000E+00 0. -1.
         -2   -1    0    0    0  501 -0.00000000000E+00 -0.00000000000E+00 -0.46887798231E+03  0.46887798231E+03  0.00000000000E+00 0.  1.
          6    1    1    2  502    0 -0.15391528606E+03 -0.52030175020E+02 -0.73698766674E+02  0.24851068911E+03  0.17300000000E+03 0. -1.
         -6    1    1    2    0  501  0.15391528606E+03  0.52030175020E+02 -0.26202037174E+03  0.35352613708E+03  0.17300000000E+03 0. -1.
</event>
<event>
 4    1  0.5880538E-001  0.1000000E+03  0.7546771E-02  0.1280296E+00
         -2   -1    0    0    0  501 -0.00000000000E+00  0.00000000000E+00  0.67172489816E+02  0.67172489816E+02  0.00000000000E+00 0. -1.
          2   -1    0    0  502    0  0.00000000000E+00 -0.00000000000E+00 -0.57651694712E+03  0.57651694712E+03  0.00000000000E+00 0.  1.
          6    1    1    2  502    0  0.56639737146E+02  0.60866408539E+02 -0.18367856940E+03  0.26566820730E+03  0.17300000000E+03 0.  1.
         -6    1    1    2    0  501 -0.56639737146E+02 -0.60866408539E+02 -0.32566588791E+03  0.37802122964E+03  0.17300000000E+03 0. -1.
</event>
<event>
 4    1  0.5880538E-001  0.1000000E+03  0.7546771E-02  0.1280296E+00
         -1   -1    0    0    0  501 -0.00000000000E+00  0.00000000000E+00  0.10925808486E+03  0.10925808486E+03  0.00000000000E+00 0. -1.
          1   -1    0    0  502    0  0.00000000000E+00 -0.00000000000E+00 -0.69223076709E+03  0.69223076709E+03  0.00000000000E+00 0.  1.
          6    1    1    2  502    0 -0.57259679076E+02 -0.51227560374E+01  0.85593497421E+01  0.18250253682E+03  0.17300000000E+03 0.  1.
         -6    1    1    2    0  501  0.57259679076E+02  0.51227560374E+01 -0.59153203197E+03  0.61898631513E+03  0.17300000000E+03 0. -1.
</event>
<event>
 4    1  0.5880538E-001  0.1000000E+03  0.7546771E-02  0.1280296E+00
          2   -1    0    0  502    0  0.00000000000E+00  0.00000000000E+00  0.37266559245E+04  0.37266559245E+04  0.00000000000E+00 0.  1.
         -2   -1    0    0    0  501 -0.00000000000E+00 -0.00000000000E+00 -0.22357007904E+02  0.22357007904E+02  0.00000000000E+00 0. -1.
          6    1    1    2  502    0 -0.15638217429E+03 -0.16707332966E+03  0.20594527874E+04  0.20793373140E+04  0.17300000000E+03 0. -1.
         -6    1    1    2    0  501  0.15638217429E+03  0.16707332966E+03  0.16448461292E+04  0.16696756184E+04  0.17300000000E+03 0.  1.
</event>
<event>
 4    1  0.5880538E-001  0.1000000E+03  0.7546771E-02  0.1280296E+00
         -1   -1    0    0    0  501 -0.00000000000E+00  0.00000000000E+00  0.78651267231E+03  0.78651267231E+03  0.00000000000E+00 0.  1.
          1   -1    0    0  502    0  0.00000000000E+00 -0.00000000000E+00 -0.68622558942E+02  0.68622558942E+02  0.00000000000E+00 0. -1.
          6    1    1    2  502    0  0.45639266822E+02  0.13634086163E+03  0.25207760311E+03  0.33785187763E+03  0.17300000000E+03 0.  1.
         -6    1    1    2    0  501 -0.45639266822E+02 -0.13634086163E+03  0.46581251026E+03  0.51728335362E+03  0.17300000000E+03 0. -1.
</event>
<event>
 4    1  0.5880538E-001  0.1000000E+03  0.7546771E-02  0.1280296E+00
         -2   -1    0    0    0  501 -0.00000000000E+00  0.00000000000E+00  0.83390679119E+02  0.83390679119E+02  0.00000000000E+00 0.  1.
          2   -1    0    0  502    0  0.00000000000E+00 -0.00000000000E+00 -0.15432902231E+04  0.15432902231E+04  0.00000000000E+00 0. -1.
          6    1    1    2  502    0  0.22156818960E+02  0.43644161088E+02 -0.26126482614E+02  0.18167919671E+03  0.17300000000E+03 0.  1.
         -6    1    1    2    0  501 -0.22156818960E+02 -0.43644161088E+02 -0.14337730614E+04  0.14450017055E+04  0.17300000000E+03 0. -1.
</event>
<event>
 4    1  0.5880538E-001  0.1000000E+03  0.7546771E-02  0.1280296E+00
         -1   -1    0    0    0  501 -0.00000000000E+00  0.00000000000E+00  0.79592205882E+03  0.79592205882E+03  0.00000000000E+00 0.  1.
          1   -1    0    0  502    0  0.00000000000E+00 -0.00000000000E+00 -0.11963564328E+03  0.11963564328E+03  0.00000000000E+00 0. -1.
          6    1    1    2  502    0 -0.12823927928E+03  0.22070271890E+03  0.32080171663E+03  0.44496937453E+03  0.17300000000E+03 0.  1.
         -6    1    1    2    0  501  0.12823927928E+03 -0.22070271890E+03  0.35548469891E+03  0.47058832757E+03  0.17300000000E+03 0. -1.
</event>
<event>
 4    1  0.5880538E-001  0.1000000E+03  0.7546771E-02  0.1280296E+00
         -1   -1    0    0    0  501 -0.00000000000E+00  0.00000000000E+00  0.55215286388E+03  0.55215286388E+03  0.00000000000E+00 0.  1.
          1   -1    0    0  502    0  0.00000000000E+00 -0.00000000000E+00 -0.11602242681E+03  0.11602242681E+03  0.00000000000E+00 0. -1.
          6    1    1    2  502    0 -0.16470916726E+03  0.63032889064E+02  0.29073314058E+03  0.38151934934E+03  0.17300000000E+03 0.  1.
         -6    1    1    2    0  501  0.16470916726E+03 -0.63032889064E+02  0.14539729649E+03  0.28665594135E+03  0.17300000000E+03 0. -1.
</event>
<event>
 4    1  0.5880538E-001  0.1000000E+03  0.7546771E-02  0.1280296E+00
         -1   -1    0    0    0  501 -0.00000000000E+00  0.00000000000E+00  0.75579849314E+03  0.75579849314E+03  0.00000000000E+00 0.  1.
          1   -1    0    0  502    0  0.00000000000E+00 -0.00000000000E+00 -0.47908488565E+02  0.47908488565E+02  0.00000000000E+00 0. -1.
          6    1    1    2  502    0  0.33520020930E+01 -0.60439140289E+02  0.24593088700E+03  0.30671668813E+03  0.17300000000E+03 0.  1.
         -6    1    1    2    0  501 -0.33520020930E+01  0.60439140289E+02  0.46195911758E+03  0.49699029358E+03  0.17300000000E+03 0. -1.
</event>
<event>
 4    1  0.5880538E-001  0.1000000E+03  0.7546771E-02  0.1280296E+00
          2   -1    0    0  502    0  0.00000000000E+00  0.00000000000E+00  0.93034737591E+03  0.93034737591E+03  0.00000000000E+00 0. -1.
         -2   -1    0    0    0  501 -0.00000000000E+00 -0.00000000000E+00 -0.26626207273E+03  0.26626207273E+03  0.00000000000E+00 0.  1.
          6    1    1    2  502    0 -0.22604402669E+03  0.36096621564E+03  0.56137448337E+03  0.72557757780E+03  0.17300000000E+03 0.  1.
         -6    1    1    2    0  501  0.22604402669E+03 -0.36096621564E+03  0.10271081982E+03  0.47103187083E+03  0.17300000000E+03 0. -1.
</event>
<event>
 4    1  0.5880538E-001  0.1000000E+03  0.7546771E-02  0.1280296E+00
          1   -1    0    0  502    0  0.00000000000E+00  0.00000000000E+00  0.14170116212E+04  0.14170116212E+04  0.00000000000E+00 0. -1.
         -1   -1    0    0    0  501 -0.00000000000E+00 -0.00000000000E+00 -0.26182112146E+02  0.26182112146E+02  0.00000000000E+00 0.  1.
          6    1    1    2  502    0 -0.49915016585E+02 -0.49158285993E+02  0.51718601685E+03  0.54983490430E+03  0.17300000000E+03 0.  1.
         -6    1    1    2    0  501  0.49915016585E+02  0.49158285993E+02  0.87364349220E+03  0.89335882904E+03  0.17300000000E+03 0. -1.
</event>
<event>
 4    1  0.5880538E-001  0.1000000E+03  0.7546771E-02  0.1280296E+00
          2   -1    0    0  502    0  0.00000000000E+00  0.00000000000E+00  0.36217800962E+04  0.36217800962E+04  0.00000000000E+00 0. -1.
         -2   -1    0    0    0  501 -0.00000000000E+00 -0.00000000000E+00 -0.14896464367E+02  0.14896464367E+02  0.00000000000E+00 0.  1.
          6    1    1    2  502    0 -0.52452944146E+02 -0.24247674602E+02  0.67758384601E+03  0.70170373338E+03  0.17300000000E+03 0.  1.
         -6    1    1    2    0  501  0.52452944146E+02  0.24247674602E+02  0.29292997859E+04  0.29349728272E+04  0.17300000000E+03 0. -1.
</event>
<event>
 4    1  0.5880538E-001  0.1000000E+03  0.7546771E-02  0.1280296E+00
          2   -1    0    0  502    0  0.00000000000E+00  0.00000000000E+00  0.11153445803E+03  0.11153445803E+03  0.00000000000E+00 0. -1.
         -2   -1    0    0    0  501 -0.00000000000E+00 -0.00000000000E+00 -0.70605756445E+03  0.70605756445E+03  0.00000000000E+00 0.  1.
          6    1    1    2  502    0 -0.21061733268E+03  0.34707082926E+02 -0.21413151836E+03  0.34834688112E+03  0.17300000000E+03 0. -1.
         -6    1    1    2    0  501  0.21061733268E+03 -0.34707082926E+02 -0.38039158806E+03  0.46924514137E+03  0.17300000000E+03 0.  1.
</event>
<event>
 4    1  0.5880538E-001  0.1000000E+03  0.7546771E-02  0.1280296E+00
          2   -1    0    0  502    0  0.00000000000E+00  0.00000000000E+00  0.17034503256E+04  0.17034503256E+04  0.00000000000E+00 0. -1.
         -2   -1    0    0    0  501 -0.00000000000E+00 -0.00000000000E+00 -0.21059799397E+02  0.21059799397E+02  0.00000000000E+00 0.  1.
          6    1    1    2  502    0  0.34554406969E+02  0.67313897106E+02  0.90874249282E+03  0.92815251228E+03  0.17300000000E+03 0. -1.
         -6    1    1    2    0  501 -0.34554406969E+02 -0.67313897106E+02  0.77364803341E+03  0.79635761275E+03  0.17300000000E+03 0.  1.
</event>
<event>
 4    1  0.5880538E-001  0.1000000E+03  0.7546771E-02  0.1280296E+00
          2   -1    0    0  502    0  0.00000000000E+00  0.00000000000E+00  0.12809319817E+04  0.12809319817E+04  0.00000000000E+00 0. -1.
         -2   -1    0    0    0  501 -0.00000000000E+00 -0.00000000000E+00 -0.39150018264E+02  0.39150018264E+02  0.00000000000E+00 0.  1.
          6    1    1    2  502    0  0.36889735459E+02 -0.95532800141E+02  0.91165864946E+03  0.93356192168E+03  0.17300000000E+03 0. -1.
         -6    1    1    2    0  501 -0.36889735459E+02  0.95532800141E+02  0.33012331401E+03  0.38652007831E+03  0.17300000000E+03 0.  1.
</event>
<event>
 4    1  0.5880538E-001  0.1000000E+03  0.7546771E-02  0.1280296E+00
         -2   -1    0    0    0  501 -0.00000000000E+00  0.00000000000E+00  0.93870142446E+02  0.93870142446E+02  0.00000000000E+00 0. -1.
          2   -1    0    0  502    0  0.00000000000E+00 -0.00000000000E+00 -0.43710495696E+03  0.43710495696E+03  0.00000000000E+00 0.  1.
          6    1    1    2  502    0  0.89379128181E+02  0.51964032233E+01 -0.98802747404E+02  0.21841843799E+03  0.17300000000E+03 0. -1.
         -6    1    1    2    0  501 -0.89379128181E+02 -0.51964032233E+01 -0.24443206711E+03  0.31255666141E+03  0.17300000000E+03 0.  1.
</event>
<event>
 4    1  0.5880538E-001  0.1000000E+03  0.7546771E-02  0.1280296E+00
         -1   -1    0    0    0  501 -0.00000000000E+00  0.00000000000E+00  0.59075520215E+02  0.59075520215E+02  0.00000000000E+00 0. -1.
          1   -1    0    0  502    0  0.00000000000E+00 -0.00000000000E+00 -0.93897790885E+03  0.93897790885E+03  0.00000000000E+00 0.  1.
          6    1    1    2  502    0 -0.64716187293E+02 -0.11906482507E+03 -0.26045157555E+03  0.34077652600E+03  0.17300000000E+03 0. -1.
         -6    1    1    2    0  501  0.64716187293E+02  0.11906482507E+03 -0.61945081308E+03  0.65727690306E+03  0.17300000000E+03 0.  1.
</event>
<event>
 4    1  0.5880538E-001  0.1000000E+03  0.7546771E-02  0.1280296E+00
         -1   -1    0    0    0  501 -0.00000000000E+00  0.00000000000E+00  0.57441797389E+03  0.57441797389E+03  0.00000000000E+00 0.  1.
          1   -1    0    0  502    0  0.00000000000E+00 -0.00000000000E+00 -0.14954274191E+03  0.14954274191E+03  0.00000000000E+00 0. -1.
          6    1    1    2  502    0 -0.78359200175E+02 -0.19937725289E+03  0.88441048334E+02  0.28920973748E+03  0.17300000000E+03 0.  1.
         -6    1    1    2    0  501  0.78359200175E+02  0.19937725289E+03  0.33643418364E+03  0.43475097832E+03  0.17300000000E+03 0. -1.
</event>
<event>
 4    1  0.5880538E-001  0.1000000E+03  0.7546771E-02  0.1280296E+00
         -2   -1    0    0    0  501 -0.00000000000E+00  0.00000000000E+00  0.30243873424E+02  0.30243873424E+02  0.00000000000E+00 0.  1.
          2   -1    0    0  502    0  0.00000000000E+00 -0.00000000000E+00 -0.27661067106E+04  0.27661067106E+04  0.00000000000E+00 0. -1.
          6    1    1    2  502    0  0.21170313705E+03 -0.68466993819E+02 -0.10538006736E+04  0.10908394965E+04  0.17300000000E+03 0.  1.
         -6    1    1    2    0  501 -0.21170313705E+03  0.68466993819E+02 -0.16820621636E+04  0.17055110875E+04  0.17300000000E+03 0. -1.
</event>
<event>
 4    1  0.5880538E-001  0.1000000E+03  0.7546771E-02  0.1280296E+00
         -2   -1    0    0    0  501 -0.00000000000E+00  0.00000000000E+00  0.83687270276E+02  0.83687270276E+02  0.00000000000E+00 0.  1.
          2   -1    0    0  502    0  0.00000000000E+00 -0.00000000000E+00 -0.86925872062E+03  0.86925872062E+03  0.00000000000E+00 0. -1.
          6    1    1    2  502    0  0.16249011016E+03  0.62647311574E+02 -0.59021011992E+03  0.63922195456E+03  0.17300000000E+03 0. -1.
         -6    1    1    2    0  501 -0.16249011016E+03 -0.62647311574E+02 -0.19536133043E+03  0.31372403633E+03  0.17300000000E+03 0.  1.
</event>
<event>
 4    1  0.5880538E-001  0.1000000E+03  0.7546771E-02  0.1280296E+00
         -1   -1    0    0    0  501 -0.00000000000E+00  0.00000000000E+00  0.21227472555E+04  0.21227472555E+04  0.00000000000E+00 0.  1.
          1   -1    0    0  502    0  0.00000000000E+00 -0.00000000000E+00 -0.39671489048E+02  0.39671489048E+02  0.00000000000E+00 0. -1.
          6    1    1    2  502    0  0.22845455986E+03  0.61221159704E+01  0.12104196455E+04  0.12438945633E+04  0.17300000000E+03 0. -1.
         -6    1    1    2    0  501 -0.22845455986E+03 -0.61221159704E+01  0.87265612089E+03  0.91852418125E+03  0.17300000000E+03 0.  1.
</event>
<event>
 4    1  0.5880538E-001  0.1000000E+03  0.7546771E-02  0.1280296E+00
         -1   -1    0    0    0  501 -0.00000000000E+00  0.00000000000E+00  0.49144217970E+03  0.49144217970E+03  0.00000000000E+00 0.  1.
          1   -1    0    0  502    0  0.00000000000E+00 -0.00000000000E+00 -0.16542515220E+03  0.16542515220E+03  0.00000000000E+00 0. -1.
          6    1    1    2  502    0  0.39337036776E+02  0.16941069651E+03  0.33041138055E+03  0.41151921821E+03  0.17300000000E+03 0. -1.
         -6    1    1    2    0  501 -0.39337036776E+02 -0.16941069651E+03 -0.43943530419E+01  0.24534811369E+03  0.17300000000E+03 0.  1.
</event>
<event>
 4    1  0.5880538E-001  0.1000000E+03  0.7546771E-02  0.1280296E+00
         -2   -1    0    0    0  501 -0.00000000000E+00  0.00000000000E+00  0.10041234813E+03  0.10041234813E+03  0.00000000000E+00 0.  1.
          2   -1    0    0  502    0  0.00000000000E+00 -0.00000000000E+00 -0.58577914921E+03  0.58577914921E+03  0.00000000000E+00 0. -1.
          6    1    1    2  502    0  0.13373278334E+03 -0.16470588613E+02 -0.96111666375E+02  0.23942052970E+03  0.17300000000E+03 0.  1.
         -6    1    1    2    0  501 -0.13373278334E+03  0.16470588613E+02 -0.38925513470E+03  0.44677096763E+03  0.17300000000E+03 0.  1.
</event>
<event>
 4    1  0.5880538E-001  0.1000000E+03  0.7546771E-02  0.1280296E+00
         -4   -1    0    0    0  501 -0.00000000000E+00  0.00000000000E+00  0.10752510490E+03  0.10752510490E+03  0.00000000000E+00 0.  1.
          4   -1    0    0  502    0  0.00000000000E+00 -0.00000000000E+00 -0.29002827385E+03  0.29002827385E+03  0.00000000000E+00 0. -1.
          6    1    1    2  502    0 -0.17182092319E+02  0.28515569347E+02 -0.10494338058E+03  0.20506212502E+03  0.17300000000E+03 0.  1.
         -6    1    1    2    0  501  0.17182092319E+02 -0.28515569347E+02 -0.77559788371E+02  0.19249125373E+03  0.17300000000E+03 0.  1.
</event>
<event>
 4    1  0.5880538E-001  0.1000000E+03  0.7546771E-02  0.1280296E+00
         -2   -1    0    0    0  501 -0.00000000000E+00  0.00000000000E+00  0.18743999494E+03  0.18743999494E+03  0.00000000000E+00 0. -1.
          2   -1    0    0  502    0  0.00000000000E+00 -0.00000000000E+00 -0.18202695472E+04  0.18202695472E+04  0.00000000000E+00 0.  1.
          6    1    1    2  502    0  0.16316605434E+03 -0.52738410196E+03 -0.95502682274E+03  0.11165851443E+04  0.17300000000E+03 0. -1.
         -6    1    1    2    0  501 -0.16316605434E+03  0.52738410196E+03 -0.67780272954E+03  0.89112439786E+03  0.17300000000E+03 0.  1.
</event>
<event>
 4    1  0.5880538E-001  0.1000000E+03  0.7546771E-02  0.1280296E+00
         -2   -1    0    0    0  501 -0.00000000000E+00  0.00000000000E+00  0.26504305825E+03  0.26504305825E+03  0.00000000000E+00 0. -1.
          2   -1    0    0  502    0  0.00000000000E+00 -0.00000000000E+00 -0.24943976595E+03  0.24943976595E+03  0.00000000000E+00 0.  1.
          6    1    1    2  502    0  0.29964241486E+02 -0.18778449118E+03  0.12537482898E+02  0.25738504108E+03  0.17300000000E+03 0. -1.
         -6    1    1    2    0  501 -0.29964241486E+02  0.18778449118E+03  0.30658094000E+01  0.25709778312E+03  0.17300000000E+03 0.  1.
</event>
<event>
 4    1  0.5880538E-001  0.1000000E+03  0.7546771E-02  0.1280296E+00
         -2   -1    0    0    0  501 -0.00000000000E+00  0.00000000000E+00  0.10109918634E+03  0.10109918634E+03  0.00000000000E+00 0. -1.
          2   -1    0    0  502    0  0.00000000000E+00 -0.00000000000E+00 -0.75221033436E+03  0.75221033436E+03  0.00000000000E+00 0.  1.
          6    1    1    2  502    0 -0.17126752714E+03 -0.20079481969E+02 -0.12752548806E+03  0.27554945392E+03  0.17300000000E+03 0. -1.
         -6    1    1    2    0  501  0.17126752714E+03  0.20079481969E+02 -0.52358565996E+03  0.57776006678E+03  0.17300000000E+03 0.  1.
</event>
<event>
 4    1  0.5880538E-001  0.1000000E+03  0.7546771E-02  0.1280296E+00
          1   -1    0    0  502    0  0.00000000000E+00  0.00000000000E+00  0.10886440146E+04  0.10886440146E+04  0.00000000000E+00 0.  1.
         -1   -1    0    0    0  501 -0.00000000000E+00 -0.00000000000E+00 -0.70857673340E+02  0.70857673340E+02  0.00000000000E+00 0. -1.
          6    1    1    2  502    0  0.15129289297E+03  0.13856497429E+03  0.65825498293E+03  0.71085752026E+03  0.17300000000E+03 0.  1.
         -6    1    1    2    0  501 -0.15129289297E+03 -0.13856497429E+03  0.35953135830E+03  0.44864416765E+03  0.17300000000E+03 0. -1.
</event>
<event>
 4    1  0.5880538E-001  0.1000000E+03  0.7546771E-02  0.1280296E+00
          1   -1    0    0  502    0  0.00000000000E+00  0.00000000000E+00  0.36331643496E+04  0.36331643496E+04  0.00000000000E+00 0.  1.
         -1   -1    0    0    0  501 -0.00000000000E+00 -0.00000000000E+00 -0.10617898405E+02  0.10617898405E+02  0.00000000000E+00 0. -1.
          6    1    1    2  502    0  0.79381532286E+02 -0.46571686854E+02  0.19347591083E+04  0.19446573367E+04  0.17300000000E+03 0.  1.
         -6    1    1    2    0  501 -0.79381532286E+02  0.46571686854E+02  0.16877873428E+04  0.16991249113E+04  0.17300000000E+03 0. -1.
</event>
<event>
 4    1  0.5880538E-001  0.1000000E+03  0.7546771E-02  0.1280296E+00
          2   -1    0    0  502    0  0.00000000000E+00  0.00000000000E+00  0.55085733005E+03  0.55085733005E+03  0.00000000000E+00 0.  1.
         -2   -1    0    0    0  501 -0.00000000000E+00 -0.00000000000E+00 -0.26142848861E+03  0.26142848861E+03  0.00000000000E+00 0. -1.
          6    1    1    2  502    0  0.12378594043E+03 -0.20491176063E+03  0.39971344307E+03  0.49700264110E+03  0.17300000000E+03 0.  1.
         -6    1    1    2    0  501 -0.12378594043E+03  0.20491176063E+03 -0.11028460163E+03  0.31528317755E+03  0.17300000000E+03 0. -1.
</event>
<event>
 4    1  0.5880538E-001  0.1000000E+03  0.7546771E-02  0.1280296E+00
          1   -1    0    0  502    0  0.00000000000E+00  0.00000000000E+00  0.23432561213E+02  0.23432561213E+02  0.00000000000E+00 0.  1.
         -1   -1    0    0    0  501 -0.00000000000E+00 -0.00000000000E+00 -0.31617133191E+04  0.31617133191E+04  0.00000000000E+00 0. -1.
          6    1    1    2  502    0 -0.17382241554E+03 -0.89350492558E+02 -0.11174277810E+04  0.11475066834E+04  0.17300000000E+03 0.  1.
         -6    1    1    2    0  501  0.17382241554E+03  0.89350492558E+02 -0.20208529769E+04  0.20376391969E+04  0.17300000000E+03 0. -1.
</event>
<event>
 4    1  0.5880538E-001  0.1000000E+03  0.7546771E-02  0.1280296E+00
          2   -1    0    0  502    0  0.00000000000E+00  0.00000000000E+00  0.31548290807E+03  0.31548290807E+03  0.00000000000E+00 0. -1.
         -2   -1    0    0    0  501 -0.00000000000E+00 -0.00000000000E+00 -0.10670432635E+03  0.10670432635E+03  0.00000000000E+00 0.  1.
          6    1    1    2  502    0 -0.44170049144E+01 -0.12441098834E+02  0.17303719576E+03  0.24504114346E+03  0.17300000000E+03 0. -1.
         -6    1    1    2    0  501  0.44170049144E+01  0.12441098834E+02  0.35741385956E+02  0.17714609096E+03  0.17300000000E+03 0.  1.
</event>
<event>
 4    1  0.5880538E-001  0.1000000E+03  0.7546771E-02  0.1280296E+00
         -1   -1    0    0    0  501 -0.00000000000E+00  0.00000000000E+00  0.27392940636E+03  0.27392940636E+03  0.00000000000E+00 0.  1.
          1   -1    0    0  502    0  0.00000000000E+00 -0.00000000000E+00 -0.14868476384E+03  0.14868476384E+03  0.00000000000E+00 0. -1.
          6    1    1    2  502    0 -0.25781809459E+02  0.82818159930E+02  0.26885134844E+01  0.19354528519E+03  0.17300000000E+03 0. -1.
         -6    1    1    2    0  501  0.25781809459E+02 -0.82818159930E+02  0.12255612904E+03  0.22906888501E+03  0.17300000000E+03 0. -1.
</event>
<event>
 4    1  0.5880538E-001  0.1000000E+03  0.7546771E-02  0.1280296E+00
         -2   -1    0    0    0  501 -0.00000000000E+00  0.00000000000E+00  0.14258426834E+03  0.14258426834E+03  0.00000000000E+00 0.  1.
          2   -1    0    0  502    0  0.00000000000E+00 -0.00000000000E+00 -0.25144740239E+03  0.25144740239E+03  0.00000000000E+00 0. -1.
          6    1    1    2  502    0 -0.28372419752E+01 -0.76907735589E+02 -0.55233602909E+02  0.19723742197E+03  0.17300000000E+03 0. -1.
         -6    1    1    2    0  501  0.28372419752E+01  0.76907735589E+02 -0.53629531143E+02  0.19679424876E+03  0.17300000000E+03 0. -1.
</event>
<event>
 4    1  0.5880538E-001  0.1000000E+03  0.7546771E-02  0.1280296E+00
         -1   -1    0    0    0  501 -0.00000000000E+00  0.00000000000E+00  0.13665741346E+03  0.13665741346E+03  0.00000000000E+00 0. -1.
          1   -1    0    0  502    0  0.00000000000E+00 -0.00000000000E+00 -0.11131049126E+04  0.11131049126E+04  0.00000000000E+00 0.  1.
          6    1    1    2  502    0  0.17675111221E+03 -0.23556757380E+03 -0.18655302933E+03  0.38918385147E+03  0.17300000000E+03 0.  1.
         -6    1    1    2    0  501 -0.17675111221E+03  0.23556757380E+03 -0.78989446980E+03  0.86057847458E+03  0.17300000000E+03 0. -1.
</event>
<event>
 4    1  0.5880538E-001  0.1000000E+03  0.7546771E-02  0.1280296E+00
         -1   -1    0    0    0  501 -0.00000000000E+00  0.00000000000E+00  0.26086782753E+03  0.26086782753E+03  0.00000000000E+00 0.  1.
          1   -1    0    0  502    0  0.00000000000E+00 -0.00000000000E+00 -0.84639145211E+03  0.84639145211E+03  0.00000000000E+00 0. -1.
          6    1    1    2  502    0 -0.17107629134E+02 -0.10875328057E+03 -0.79089244170E+03  0.81704332893E+03  0.17300000000E+03 0. -1.
         -6    1    1    2    0  501  0.17107629134E+02  0.10875328057E+03  0.20536881711E+03  0.29021595072E+03  0.17300000000E+03 0.  1.
</event>
<event>
 4    1  0.5880538E-001  0.1000000E+03  0.7546771E-02  0.1280296E+00
         -1   -1    0    0    0  501 -0.00000000000E+00  0.00000000000E+00  0.18682467260E+03  0.18682467260E+03  0.00000000000E+00 0.  1.
          1   -1    0    0  502    0  0.00000000000E+00 -0.00000000000E+00 -0.56143642745E+03  0.56143642745E+03  0.00000000000E+00 0. -1.
          6    1    1    2  502    0 -0.89682366859E+02  0.15804605840E+03  0.49268871917E+02  0.25569103473E+03  0.17300000000E+03 0. -1.
         -6    1    1    2    0  501  0.89682366859E+02 -0.15804605840E+03 -0.42388062677E+03  0.49257006532E+03  0.17300000000E+03 0.  1.
</event>
<event>
 4    1  0.5880538E-001  0.1000000E+03  0.7546771E-02  0.1280296E+00
          1   -1    0    0  502    0  0.00000000000E+00  0.00000000000E+00  0.45174481125E+04  0.45174481125E+04  0.00000000000E+00 0. -1.
         -1   -1    0    0    0  501 -0.00000000000E+00 -0.00000000000E+00 -0.72421855584E+01  0.72421855584E+01  0.00000000000E+00 0.  1.
          6    1    1    2  502    0  0.49327366332E+02  0.17527243867E+02  0.21695333522E+04  0.21770494619E+04  0.17300000000E+03 0. -1.
         -6    1    1    2    0  501 -0.49327366332E+02 -0.17527243867E+02  0.23406725747E+04  0.23476408361E+04  0.17300000000E+03 0.  1.
</event>
<event>
 4    1  0.5880538E-001  0.1000000E+03  0.7546771E-02  0.1280296E+00
         -2   -1    0    0    0  501 -0.00000000000E+00  0.00000000000E+00  0.12644650992E+02  0.12644650992E+02  0.00000000000E+00 0. -1.
          2   -1    0    0  502    0  0.00000000000E+00 -0.00000000000E+00 -0.24874828039E+04  0.24874828039E+04  0.00000000000E+00 0.  1.
          6    1    1    2  502    0  0.26447353810E+02 -0.28128272548E+02 -0.12783307298E+04  0.12905615510E+04  0.17300000000E+03 0. -1.
         -6    1    1    2    0  501 -0.26447353810E+02  0.28128272548E+02 -0.11965074231E+04  0.12095659038E+04  0.17300000000E+03 0. -1.
</event>
<event>
 4    1  0.5880538E-001  0.1000000E+03  0.7546771E-02  0.1280296E+00
         -1   -1    0    0    0  501 -0.00000000000E+00  0.00000000000E+00  0.45447454909E+02  0.45447454909E+02  0.00000000000E+00 0. -1.
          1   -1    0    0  502    0  0.00000000000E+00 -0.00000000000E+00 -0.87377733950E+03  0.87377733950E+03  0.00000000000E+00 0.  1.
          6    1    1    2  502    0  0.11080790144E+02  0.39350461773E+02 -0.62187909672E+03  0.64678733266E+03  0.17300000000E+03 0. -1.
         -6    1    1    2    0  501 -0.11080790144E+02 -0.39350461773E+02 -0.20645078787E+03  0.27243746175E+03  0.17300000000E+03 0. -1.
</event>
<event>
 4    1  0.5880538E-001  0.1000000E+03  0.7546771E-02  0.1280296E+00
         -1   -1    0    0    0  501 -0.00000000000E+00  0.00000000000E+00  0.95288656739E+02  0.95288656739E+02  0.00000000000E+00 0. -1.
          1   -1    0    0  502    0  0.00000000000E+00 -0.00000000000E+00 -0.61947647006E+03  0.61947647006E+03  0.00000000000E+00 0.  1.
          6    1    1    2  502    0  0.99170801284E+02  0.12603621858E+02 -0.46541834130E+03  0.50649474976E+03  0.17300000000E+03 0. -1.
         -6    1    1    2    0  501 -0.99170801284E+02 -0.12603621858E+02 -0.58769472017E+02  0.20827037704E+03  0.17300000000E+03 0. -1.
</event>
<event>
 4    1  0.5880538E-001  0.1000000E+03  0.7546771E-02  0.1280296E+00
         -2   -1    0    0    0  501 -0.00000000000E+00  0.00000000000E+00  0.38032632791E+03  0.38032632791E+03  0.00000000000E+00 0. -1.
          2   -1    0    0  502    0  0.00000000000E+00 -0.00000000000E+00 -0.14432224118E+03  0.14432224118E+03  0.00000000000E+00 0.  1.
          6    1    1    2  502    0  0.12407148745E+03  0.70250629839E+02  0.41800784255E+02  0.22804646578E+03  0.17300000000E+03 0. -1.
         -6    1    1    2    0  501 -0.12407148745E+03 -0.70250629839E+02  0.19420330248E+03  0.29660210330E+03  0.17300000000E+03 0. -1.
</event>
<event>
 4    1  0.5880538E-001  0.1000000E+03  0.7546771E-02  0.1280296E+00
         -2   -1    0    0    0  501 -0.00000000000E+00  0.00000000000E+00  0.30105725778E+03  0.30105725778E+03  0.00000000000E+00 0.  1.
          2   -1    0    0  502    0  0.00000000000E+00 -0.00000000000E+00 -0.29039518159E+03  0.29039518159E+03  0.00000000000E+00 0. -1.
          6    1    1    2  502    0  0.95408795102E+02 -0.21919232374E+03  0.24001264418E+02  0.29606278669E+03  0.17300000000E+03 0. -1.
         -6    1    1    2    0  501 -0.95408795102E+02  0.21919232374E+03 -0.13339188221E+02  0.29538965268E+03  0.17300000000E+03 0.  1.
</event>
<event>
 4    1  0.5880538E-001  0.1000000E+03  0.7546771E-02  0.1280296E+00
         -2   -1    0    0    0  501 -0.00000000000E+00  0.00000000000E+00  0.26025285663E+03  0.26025285663E+03  0.00000000000E+00 0.  1.
          2   -1    0    0  502    0  0.00000000000E+00 -0.00000000000E+00 -0.14968337751E+03  0.14968337751E+03  0.00000000000E+00 0. -1.
          6    1    1    2  502    0  0.61989566676E+02  0.42838386738E+02 -0.48104110689E+01  0.18875903637E+03  0.17300000000E+03 0. -1.
         -6    1    1    2    0  501 -0.61989566676E+02 -0.42838386738E+02  0.11537989018E+03  0.22117719777E+03  0.17300000000E+03 0.  1.
</event>
<event>
 4    1  0.5880538E-001  0.1000000E+03  0.7546771E-02  0.1280296E+00
         -2   -1    0    0    0  501 -0.00000000000E+00  0.00000000000E+00  0.29467249325E+02  0.29467249325E+02  0.00000000000E+00 0.  1.
          2   -1    0    0  502    0  0.00000000000E+00 -0.00000000000E+00 -0.13974978012E+04  0.13974978012E+04  0.00000000000E+00 0. -1.
          6    1    1    2  502    0  0.93551092119E+01 -0.10084431887E+03 -0.79488204056E+03  0.81977042709E+03  0.17300000000E+03 0. -1.
         -6    1    1    2    0  501 -0.93551092119E+01  0.10084431887E+03 -0.57314851134E+03  0.60719462347E+03  0.17300000000E+03 0.  1.
</event>
<event>
 4    1  0.5880538E-001  0.1000000E+03  0.7546771E-02  0.1280296E+00
         -2   -1    0    0    0  501 -0.00000000000E+00  0.00000000000E+00  0.36062794239E+02  0.36062794239E+02  0.00000000000E+00 0.  1.
          2   -1    0    0  502    0  0.00000000000E+00 -0.00000000000E+00 -0.10677012689E+04  0.10677012689E+04  0.00000000000E+00 0. -1.
          6    1    1    2  502    0 -0.16030163531E+02 -0.11752912890E+02 -0.77019368955E+03  0.78963435623E+03  0.17300000000E+03 0. -1.
         -6    1    1    2    0  501  0.16030163531E+02  0.11752912890E+02 -0.26144478509E+03  0.31412970690E+03  0.17300000000E+03 0.  1.
</event>
<event>
 4    1  0.5880538E-001  0.1000000E+03  0.7546771E-02  0.1280296E+00
          2   -1    0    0  502    0  0.00000000000E+00  0.00000000000E+00  0.82469042860E+03  0.82469042860E+03  0.00000000000E+00 0.  1.
         -2   -1    0    0    0  501 -0.00000000000E+00 -0.00000000000E+00 -0.10494920121E+03  0.10494920121E+03  0.00000000000E+00 0. -1.
          6    1    1    2  502    0  0.17588465629E+03  0.79669531351E+02  0.57958884335E+03  0.63492903059E+03  0.17300000000E+03 0. -1.
         -6    1    1    2    0  501 -0.17588465629E+03 -0.79669531351E+02  0.14015238404E+03  0.29471059922E+03  0.17300000000E+03 0.  1.
</event>
<event>
 4    1  0.5880538E-001  0.1000000E+03  0.7546771E-02  0.1280296E+00
         -2   -1    0    0    0  501 -0.00000000000E+00  0.00000000000E+00  0.58830865725E+02  0.58830865725E+02  0.00000000000E+00 0.  1.
          2   -1    0    0  502    0  0.00000000000E+00 -0.00000000000E+00 -0.68325915502E+03  0.68325915502E+03  0.00000000000E+00 0. -1.
          6    1    1    2  502    0  0.39845328735E+02 -0.85778514543E+02 -0.37950674520E+03  0.42766806454E+03  0.17300000000E+03 0.  1.
         -6    1    1    2    0  501 -0.39845328735E+02  0.85778514543E+02 -0.24492154410E+03  0.31442195620E+03  0.17300000000E+03 0. -1.
</event>
<event>
 4    1  0.5880538E-001  0.1000000E+03  0.7546771E-02  0.1280296E+00
         -4   -1    0    0    0  501 -0.00000000000E+00  0.00000000000E+00  0.42153232043E+03  0.42153232043E+03  0.00000000000E+00 0. -1.
          4   -1    0    0  502    0  0.00000000000E+00 -0.00000000000E+00 -0.10791557362E+03  0.10791557362E+03  0.00000000000E+00 0.  1.
          6    1    1    2  502    0 -0.38242149742E+02  0.11295846297E+03  0.11139353618E+03  0.23782261515E+03  0.17300000000E+03 0.  1.
         -6    1    1    2    0  501  0.38242149742E+02 -0.11295846297E+03  0.20222321063E+03  0.29162527890E+03  0.17300000000E+03 0.  1.
</event>
<event>
 4    1  0.5880538E-001  0.1000000E+03  0.7546771E-02  0.1280296E+00
         -1   -1    0    0    0  501 -0.00000000000E+00  0.00000000000E+00  0.35090383063E+03  0.35090383063E+03  0.00000000000E+00 0. -1.
          1   -1    0    0  502    0  0.00000000000E+00 -0.00000000000E+00 -0.15018228656E+03  0.15018228656E+03  0.00000000000E+00 0.  1.
          6    1    1    2  502    0  0.24678207052E+01 -0.68678022217E+02  0.24697997138E+03  0.30927474378E+03  0.17300000000E+03 0. -1.
         -6    1    1    2    0  501 -0.24678207052E+01  0.68678022217E+02 -0.46258427316E+02  0.19181137342E+03  0.17300000000E+03 0. -1.
</event>
<event>
 4    1  0.5880538E-001  0.1000000E+03  0.7546771E-02  0.1280296E+00
          2   -1    0    0  502    0  0.00000000000E+00  0.00000000000E+00  0.85064126885E+03  0.85064126885E+03  0.00000000000E+00 0.  1.
         -2   -1    0    0    0  501 -0.00000000000E+00 -0.00000000000E+00 -0.57916229867E+02  0.57916229867E+02  0.00000000000E+00 0. -1.
          6    1    1    2  502    0 -0.13096635248E+03 -0.45096062760E+02  0.37120464409E+03  0.43232826434E+03  0.17300000000E+03 0.  1.
         -6    1    1    2    0  501  0.13096635248E+03  0.45096062760E+02  0.42152039490E+03  0.47622923437E+03  0.17300000000E+03 0.  1.
</event>
<event>
 4    1  0.5880538E-001  0.1000000E+03  0.7546771E-02  0.1280296E+00
          2   -1    0    0  502    0  0.00000000000E+00  0.00000000000E+00  0.25943659344E+04  0.25943659344E+04  0.00000000000E+00 0.  1.
         -2   -1    0    0    0  501 -0.00000000000E+00 -0.00000000000E+00 -0.12614937067E+02  0.12614937067E+02  0.00000000000E+00 0. -1.
          6    1    1    2  502    0  0.44842885698E+02 -0.22859029373E+02  0.14082446078E+04  0.14197236685E+04  0.17300000000E+03 0.  1.
         -6    1    1    2    0  501 -0.44842885698E+02  0.22859029373E+02  0.11735063895E+04  0.11872572029E+04  0.17300000000E+03 0.  1.
</event>
<event>
 4    1  0.5880538E-001  0.1000000E+03  0.7546771E-02  0.1280296E+00
          2   -1    0    0  502    0  0.00000000000E+00  0.00000000000E+00  0.71187916787E+03  0.71187916787E+03  0.00000000000E+00 0.  1.
         -2   -1    0    0    0  501 -0.00000000000E+00 -0.00000000000E+00 -0.49861758349E+02  0.49861758349E+02  0.00000000000E+00 0. -1.
          6    1    1    2  502    0 -0.48164226235E+02 -0.27974327951E+02  0.23065634953E+03  0.29365576326E+03  0.17300000000E+03 0.  1.
         -6    1    1    2    0  501  0.48164226235E+02  0.27974327951E+02  0.43136105999E+03  0.46808516297E+03  0.17300000000E+03 0. -1.
</event>
<event>
 4    1  0.5880538E-001  0.1000000E+03  0.7546771E-02  0.1280296E+00
          2   -1    0    0  502    0  0.00000000000E+00  0.00000000000E+00  0.66472773110E+03  0.66472773110E+03  0.00000000000E+00 0.  1.
         -2   -1    0    0    0  501 -0.00000000000E+00 -0.00000000000E+00 -0.99881985318E+02  0.99881985318E+02  0.00000000000E+00 0. -1.
          6    1    1    2  502    0 -0.17196491867E+03 -0.45852144181E+02  0.38511950506E+03  0.45817069478E+03  0.17300000000E+03 0. -1.
         -6    1    1    2    0  501  0.17196491867E+03  0.45852144181E+02  0.17972624072E+03  0.30643902163E+03  0.17300000000E+03 0.  1.
</event>
<event>
 4    1  0.5880538E-001  0.1000000E+03  0.7546771E-02  0.1280296E+00
          1   -1    0    0  502    0  0.00000000000E+00  0.00000000000E+00  0.69765706324E+02  0.69765706324E+02  0.00000000000E+00 0. -1.
         -1   -1    0    0    0  501 -0.00000000000E+00 -0.00000000000E+00 -0.62301428401E+03  0.62301428401E+03  0.00000000000E+00 0.  1.
          6    1    1    2  502    0  0.62287610356E+02  0.78126400592E+02 -0.17759458451E+03  0.26730566272E+03  0.17300000000E+03 0.  1.
         -6    1    1    2    0  501 -0.62287610356E+02 -0.78126400592E+02 -0.37565399318E+03  0.42547432762E+03  0.17300000000E+03 0.  1.
</event>
<event>
 4    1  0.5880538E-001  0.1000000E+03  0.7546771E-02  0.1280296E+00
          1   -1    0    0  502    0  0.00000000000E+00  0.00000000000E+00  0.72856073618E+03  0.72856073618E+03  0.00000000000E+00 0. -1.
         -1   -1    0    0    0  501 -0.00000000000E+00 -0.00000000000E+00 -0.24048387305E+03  0.24048387305E+03  0.00000000000E+00 0.  1.
          6    1    1    2  502    0  0.58053934315E+01 -0.36099817536E+03  0.38545198812E+03  0.55574780283E+03  0.17300000000E+03 0.  1.
         -6    1    1    2    0  501 -0.58053934315E+01  0.36099817536E+03  0.10262487500E+03  0.41329680640E+03  0.17300000000E+03 0.  1.
</event>
<event>
 4    1  0.5880538E-001  0.1000000E+03  0.7546771E-02  0.1280296E+00
          1   -1    0    0  502    0  0.00000000000E+00  0.00000000000E+00  0.31887782914E+04  0.31887782914E+04  0.00000000000E+00 0. -1.
         -1   -1    0    0    0  501 -0.00000000000E+00 -0.00000000000E+00 -0.14109093525E+02  0.14109093525E+02  0.00000000000E+00 0.  1.
          6    1    1    2  502    0 -0.58201210901E+02  0.77618767617E+01  0.77367350940E+03  0.79495114745E+03  0.17300000000E+03 0.  1.
         -6    1    1    2    0  501  0.58201210901E+02 -0.77618767617E+01  0.24009956884E+04  0.24079362374E+04  0.17300000000E+03 0.  1.
</event>
<event>
 4    1  0.5880538E-001  0.1000000E+03  0.7546771E-02  0.1280296E+00
         -1   -1    0    0    0  501 -0.00000000000E+00  0.00000000000E+00  0.58137196972E+03  0.58137196972E+03  0.00000000000E+00 0.  1.
          1   -1    0    0  502    0  0.00000000000E+00 -0.00000000000E+00 -0.75609118383E+02  0.75609118383E+02  0.00000000000E+00 0. -1.
          6    1    1    2  502    0 -0.10427308354E+03  0.49356847389E+02  0.29489480412E+03  0.36083364565E+03  0.17300000000E+03 0.  1.
         -6    1    1    2    0  501  0.10427308354E+03 -0.49356847389E+02  0.21086804722E+03  0.29614744246E+03  0.17300000000E+03 0. -1.
</event>
<event>
 4    1  0.5880538E-001  0.1000000E+03  0.7546771E-02  0.1280296E+00
         -2   -1    0    0    0  501 -0.00000000000E+00  0.00000000000E+00  0.26970328469E+02  0.26970328469E+02  0.00000000000E+00 0.  1.
          2   -1    0    0  502    0  0.00000000000E+00 -0.00000000000E+00 -0.15683576436E+04  0.15683576436E+04  0.00000000000E+00 0. -1.
          6    1    1    2  502    0 -0.44672767458E+02  0.81692686155E+02 -0.53475432702E+03  0.56970215147E+03  0.17300000000E+03 0.  1.
         -6    1    1    2    0  501  0.44672767458E+02 -0.81692686155E+02 -0.10066329881E+04  0.10256258206E+04  0.17300000000E+03 0. -1.
</event>
<event>
 4    1  0.5880538E-001  0.1000000E+03  0.7546771E-02  0.1280296E+00
         -3   -1    0    0    0  501 -0.00000000000E+00  0.00000000000E+00  0.52179859792E+03  0.52179859792E+03  0.00000000000E+00 0.  1.
          3   -1    0    0  502    0  0.00000000000E+00 -0.00000000000E+00 -0.87930684838E+02  0.87930684838E+02  0.00000000000E+00 0. -1.
          6    1    1    2  502    0 -0.19903287629E+02  0.46573728835E+02  0.38161396297E+03  0.42204676258E+03  0.17300000000E+03 0.  1.
         -6    1    1    2    0  501  0.19903287629E+02 -0.46573728835E+02  0.52253950113E+02  0.18768252017E+03  0.17300000000E+03 0. -1.
</event>
<event>
 4    1  0.5880538E-001  0.1000000E+03  0.7546771E-02  0.1280296E+00
         -2   -1    0    0    0  501 -0.00000000000E+00  0.00000000000E+00  0.72321009350E+02  0.72321009350E+02  0.00000000000E+00 0.  1.
          2   -1    0    0  502    0  0.00000000000E+00 -0.00000000000E+00 -0.19402033212E+04  0.19402033212E+04  0.00000000000E+00 0. -1.
          6    1    1    2  502    0 -0.26298633173E+03  0.16096795245E+03 -0.60149023669E+03  0.69770480665E+03  0.17300000000E+03 0.  1.
         -6    1    1    2    0  501  0.26298633173E+03 -0.16096795245E+03 -0.12663920752E+04  0.13148195239E+04  0.17300000000E+03 0. -1.
</event>
<event>
 4    1  0.5880538E-001  0.1000000E+03  0.7546771E-02  0.1280296E+00
         -1   -1    0    0    0  501 -0.00000000000E+00  0.00000000000E+00  0.31539642392E+03  0.31539642392E+03  0.00000000000E+00 0.  1.
          1   -1    0    0  502    0  0.00000000000E+00 -0.00000000000E+00 -0.43334270983E+03  0.43334270983E+03  0.00000000000E+00 0. -1.
          6    1    1    2  502    0 -0.26048917617E+03 -0.13414969547E+03  0.87405421574E+02  0.35131105792E+03  0.17300000000E+03 0. -1.
         -6    1    1    2    0  501  0.26048917617E+03  0.13414969547E+03 -0.20535170748E+03  0.39742807584E+03  0.17300000000E+03 0.  1.
</event>
<event>
 4    1  0.5880538E-001  0.1000000E+03  0.7546771E-02  0.1280296E+00
         -2   -1    0    0    0  501 -0.00000000000E+00  0.00000000000E+00  0.88364706989E+02  0.88364706989E+02  0.00000000000E+00 0.  1.
          2   -1    0    0  502    0  0.00000000000E+00 -0.00000000000E+00 -0.59899794375E+03  0.59899794375E+03  0.00000000000E+00 0. -1.
          6    1    1    2  502    0  0.21347354156E+02 -0.12969736377E+03 -0.36833779112E+03  0.42764336083E+03  0.17300000000E+03 0. -1.
         -6    1    1    2    0  501 -0.21347354156E+02  0.12969736377E+03 -0.14229544564E+03  0.25971928990E+03  0.17300000000E+03 0.  1.
</event>
<event>
 4    1  0.5880538E-001  0.1000000E+03  0.7546771E-02  0.1280296E+00
         -1   -1    0    0    0  501 -0.00000000000E+00  0.00000000000E+00  0.38262571710E+02  0.38262571710E+02  0.00000000000E+00 0.  1.
          1   -1    0    0  502    0  0.00000000000E+00 -0.00000000000E+00 -0.15523060699E+04  0.15523060699E+04  0.00000000000E+00 0. -1.
          6    1    1    2  502    0 -0.77349668941E+02  0.12240158321E+03 -0.10578955102E+04  0.10816824993E+04  0.17300000000E+03 0. -1.
         -6    1    1    2    0  501  0.77349668941E+02 -0.12240158321E+03 -0.45614798801E+03  0.50888614230E+03  0.17300000000E+03 0.  1.
</event>
<event>
 4    1  0.5880538E-001  0.1000000E+03  0.7546771E-02  0.1280296E+00
         -2   -1    0    0    0  501 -0.00000000000E+00  0.00000000000E+00  0.87684968953E+02  0.87684968953E+02  0.00000000000E+00 0.  1.
          2   -1    0    0  502    0  0.00000000000E+00 -0.00000000000E+00 -0.56016553213E+03  0.56016553213E+03  0.00000000000E+00 0. -1.
          6    1    1    2  502    0 -0.69214616184E+02  0.10406707607E+03 -0.14892996956E+03  0.26024940970E+03  0.17300000000E+03 0. -1.
         -6    1    1    2    0  501  0.69214616184E+02 -0.10406707607E+03 -0.32355059362E+03  0.38760109139E+03  0.17300000000E+03 0.  1.
</event>
<event>
 4    1  0.5880538E-001  0.1000000E+03  0.7546771E-02  0.1280296E+00
          2   -1    0    0  502    0  0.00000000000E+00  0.00000000000E+00  0.89825979044E+03  0.89825979044E+03  0.00000000000E+00 0.  1.
         -2   -1    0    0    0  501 -0.00000000000E+00 -0.00000000000E+00 -0.41932572502E+02  0.41932572502E+02  0.00000000000E+00 0. -1.
          6    1    1    2  502    0 -0.45586097271E+02  0.51938929548E+02  0.29634609195E+03  0.35003678504E+03  0.17300000000E+03 0. -1.
         -6    1    1    2    0  501  0.45586097271E+02 -0.51938929548E+02  0.55998112599E+03  0.59015557791E+03  0.17300000000E+03 0.  1.
</event>
<event>
 4    1  0.5880538E-001  0.1000000E+03  0.7546771E-02  0.1280296E+00
          2   -1    0    0  502    0  0.00000000000E+00  0.00000000000E+00  0.52996633832E+03  0.52996633832E+03  0.00000000000E+00 0.  1.
         -2   -1    0    0    0  501 -0.00000000000E+00 -0.00000000000E+00 -0.80141174327E+02  0.80141174327E+02  0.00000000000E+00 0. -1.
          6    1    1    2  502    0 -0.59779771877E+02 -0.94421981394E+02  0.21403598202E+03  0.29703456582E+03  0.17300000000E+03 0. -1.
         -6    1    1    2    0  501  0.59779771877E+02  0.94421981394E+02  0.23578918198E+03  0.31307294683E+03  0.17300000000E+03 0.  1.
</event>
<event>
 4    1  0.5880538E-001  0.1000000E+03  0.7546771E-02  0.1280296E+00
          2   -1    0    0  502    0  0.00000000000E+00  0.00000000000E+00  0.43271748447E+03  0.43271748447E+03  0.00000000000E+00 0.  1.
         -2   -1    0    0    0  501 -0.00000000000E+00 -0.00000000000E+00 -0.28058637037E+03  0.28058637037E+03  0.00000000000E+00 0. -1.
          6    1    1    2  502    0  0.62046064087E+02  0.18281137080E+03  0.31439213208E+03  0.40748144016E+03  0.17300000000E+03 0. -1.
         -6    1    1    2    0  501 -0.62046064087E+02 -0.18281137080E+03 -0.16226101799E+03  0.30582241468E+03  0.17300000000E+03 0.  1.
</event>
<event>
 4    1  0.5880538E-001  0.1000000E+03  0.7546771E-02  0.1280296E+00
          2   -1    0    0  502    0  0.00000000000E+00  0.00000000000E+00  0.29992735948E+04  0.29992735948E+04  0.00000000000E+00 0.  1.
         -2   -1    0    0    0  501 -0.00000000000E+00 -0.00000000000E+00 -0.12417492455E+02  0.12417492455E+02  0.00000000000E+00 0. -1.
          6    1    1    2  502    0 -0.51999457151E+02 -0.26879699412E+02  0.19799677787E+04  0.19883731708E+04  0.17300000000E+03 0. -1.
         -6    1    1    2    0  501  0.51999457151E+02  0.26879699412E+02  0.10068883236E+04  0.10233179164E+04  0.17300000000E+03 0.  1.
</event>
<event>
 4    1  0.5880538E-001  0.1000000E+03  0.7546771E-02  0.1280296E+00
          1   -1    0    0  502    0  0.00000000000E+00  0.00000000000E+00  0.28269871651E+03  0.28269871651E+03  0.00000000000E+00 0.  1.
         -1   -1    0    0    0  501 -0.00000000000E+00 -0.00000000000E+00 -0.24027436736E+03  0.24027436736E+03  0.00000000000E+00 0. -1.
          6    1    1    2  502    0  0.12678578851E+03 -0.28905635009E+02 -0.12447846897E+03  0.24966790170E+03  0.17300000000E+03 0. -1.
         -6    1    1    2    0  501 -0.12678578851E+03  0.28905635009E+02  0.16690281812E+03  0.27330518217E+03  0.17300000000E+03 0.  1.
</event>
<event>
 4    1  0.5880538E-001  0.1000000E+03  0.7546771E-02  0.1280296E+00
         -2   -1    0    0    0  501 -0.00000000000E+00  0.00000000000E+00  0.75240360238E+02  0.75240360238E+02  0.00000000000E+00 0. -1.
          2   -1    0    0  502    0  0.00000000000E+00 -0.00000000000E+00 -0.15835972376E+04  0.15835972376E+04  0.00000000000E+00 0.  1.
          6    1    1    2  502    0 -0.17708860413E+03 -0.23699188962E+03 -0.85313072476E+03  0.91939467204E+03  0.17300000000E+03 0. -1.
         -6    1    1    2    0  501  0.17708860413E+03  0.23699188962E+03 -0.65522615265E+03  0.73944292584E+03  0.17300000000E+03 0.  1.
</event>
<event>
 4    1  0.5880538E-001  0.1000000E+03  0.7546771E-02  0.1280296E+00
         -2   -1    0    0    0  501 -0.00000000000E+00  0.00000000000E+00  0.11208203868E+03  0.11208203868E+03  0.00000000000E+00 0. -1.
          2   -1    0    0  502    0  0.00000000000E+00 -0.00000000000E+00 -0.54596635041E+03  0.54596635041E+03  0.00000000000E+00 0.  1.
          6    1    1    2  502    0  0.10467472117E+03 -0.13436904619E+03 -0.15382043963E+03  0.28740488074E+03  0.17300000000E+03 0. -1.
         -6    1    1    2    0  501 -0.10467472117E+03  0.13436904619E+03 -0.28006387209E+03  0.37064350834E+03  0.17300000000E+03 0.  1.
</event>
<event>
 4    1  0.5880538E-001  0.1000000E+03  0.7546771E-02  0.1280296E+00
         -1   -1    0    0    0  501 -0.00000000000E+00  0.00000000000E+00  0.93100495348E+03  0.93100495348E+03  0.00000000000E+00 0. -1.
          1   -1    0    0  502    0  0.00000000000E+00 -0.00000000000E+00 -0.56719131025E+02  0.56719131025E+02  0.00000000000E+00 0.  1.
          6    1    1    2  502    0 -0.84112666167E+02  0.10782852543E+03  0.29828013340E+03  0.37094739451E+03  0.17300000000E+03 0. -1.
         -6    1    1    2    0  501  0.84112666167E+02 -0.10782852543E+03  0.57600568905E+03  0.61677669000E+03  0.17300000000E+03 0.  1.
</event>
<event>
 4    1  0.5880538E-001  0.1000000E+03  0.7546771E-02  0.1280296E+00
         -2   -1    0    0    0  501 -0.00000000000E+00  0.00000000000E+00  0.34386941015E+02  0.34386941015E+02  0.00000000000E+00 0. -1.
          2   -1    0    0  502    0  0.00000000000E+00 -0.00000000000E+00 -0.21998034766E+04  0.21998034766E+04  0.00000000000E+00 0.  1.
          6    1    1    2  502    0 -0.71422352139E+02 -0.12502284289E+03 -0.17246999601E+04  0.17393248161E+04  0.17300000000E+03 0. -1.
         -6    1    1    2    0  501  0.71422352139E+02  0.12502284289E+03 -0.44071657551E+03  0.49486560152E+03  0.17300000000E+03 0.  1.
</event>
<event>
 4    1  0.5880538E-001  0.1000000E+03  0.7546771E-02  0.1280296E+00
         -2   -1    0    0    0  501 -0.00000000000E+00  0.00000000000E+00  0.75914678842E+02  0.75914678842E+02  0.00000000000E+00 0. -1.
          2   -1    0    0  502    0  0.00000000000E+00 -0.00000000000E+00 -0.25876069916E+04  0.25876069916E+04  0.00000000000E+00 0.  1.
          6    1    1    2  502    0 -0.12212836694E+03 -0.10021902194E+03 -0.23863390972E+04  0.23978120187E+04  0.17300000000E+03 0.  1.
         -6    1    1    2    0  501  0.12212836694E+03  0.10021902194E+03 -0.12535321559E+03  0.26570965174E+03  0.17300000000E+03 0. -1.
</event>
<event>
 4    1  0.5880538E-001  0.1000000E+03  0.7546771E-02  0.1280296E+00
         -2   -1    0    0    0  501 -0.00000000000E+00  0.00000000000E+00  0.48628225122E+02  0.48628225122E+02  0.00000000000E+00 0. -1.
          2   -1    0    0  502    0  0.00000000000E+00 -0.00000000000E+00 -0.19239190314E+04  0.19239190314E+04  0.00000000000E+00 0.  1.
          6    1    1    2  502    0  0.22288602968E+03 -0.50603468092E+02 -0.59353308358E+03  0.65912776797E+03  0.17300000000E+03 0.  1.
         -6    1    1    2    0  501 -0.22288602968E+03  0.50603468092E+02 -0.12817577227E+04  0.13134194886E+04  0.17300000000E+03 0. -1.
</event>
<event>
 4    1  0.5880538E-001  0.1000000E+03  0.7546771E-02  0.1280296E+00
         -2   -1    0    0    0  501 -0.00000000000E+00  0.00000000000E+00  0.10874771349E+03  0.10874771349E+03  0.00000000000E+00 0.  1.
          2   -1    0    0  502    0  0.00000000000E+00 -0.00000000000E+00 -0.74785979144E+03  0.74785979144E+03  0.00000000000E+00 0. -1.
          6    1    1    2  502    0 -0.43678195315E+02 -0.11219212729E+03 -0.60807178791E+03  0.64356441591E+03  0.17300000000E+03 0. -1.
         -6    1    1    2    0  501  0.43678195315E+02  0.11219212729E+03 -0.31040290034E+02  0.21304308902E+03  0.17300000000E+03 0.  1.
</event>
<event>
 4    1  0.5880538E-001  0.1000000E+03  0.7546771E-02  0.1280296E+00
         -2   -1    0    0    0  501 -0.00000000000E+00  0.00000000000E+00  0.15742569233E+03  0.15742569233E+03  0.00000000000E+00 0.  1.
          2   -1    0    0  502    0  0.00000000000E+00 -0.00000000000E+00 -0.59288735826E+03  0.59288735826E+03  0.00000000000E+00 0. -1.
          6    1    1    2  502    0  0.12242884792E+03  0.23543343560E+02 -0.48638355368E+03  0.53107539306E+03  0.17300000000E+03 0. -1.
         -6    1    1    2    0  501 -0.12242884792E+03 -0.23543343560E+02  0.50921887751E+02  0.21923765753E+03  0.17300000000E+03 0.  1.
</event>
<event>
 4    1  0.5880538E-001  0.1000000E+03  0.7546771E-02  0.1280296E+00
          2   -1    0    0  502    0  0.00000000000E+00  0.00000000000E+00  0.20473693474E+03  0.20473693474E+03  0.00000000000E+00 0. -1.
         -2   -1    0    0    0  501 -0.00000000000E+00 -0.00000000000E+00 -0.15851948516E+03  0.15851948516E+03  0.00000000000E+00 0.  1.
          6    1    1    2  502    0  0.44050061491E+02 -0.12262460484E+02  0.44136692865E+02  0.18430361774E+03  0.17300000000E+03 0. -1.
         -6    1    1    2    0  501 -0.44050061491E+02  0.12262460484E+02  0.20807567168E+01  0.17895280217E+03  0.17300000000E+03 0.  1.
</event>
<event>
 4    1  0.5880538E-001  0.1000000E+03  0.7546771E-02  0.1280296E+00
          4   -1    0    0  502    0  0.00000000000E+00  0.00000000000E+00  0.86448933273E+03  0.86448933273E+03  0.00000000000E+00 0. -1.
         -4   -1    0    0    0  501 -0.00000000000E+00 -0.00000000000E+00 -0.21740096361E+03  0.21740096361E+03  0.00000000000E+00 0.  1.
          6    1    1    2  502    0 -0.33771594651E+03  0.74346816872E+02  0.78924788194E+02  0.39463607526E+03  0.17300000000E+03 0. -1.
         -6    1    1    2    0  501  0.33771594651E+03 -0.74346816872E+02  0.56816358092E+03  0.68725422108E+03  0.17300000000E+03 0.  1.
</event>
<event>
 4    1  0.5880538E-001  0.1000000E+03  0.7546771E-02  0.1280296E+00
          2   -1    0    0  502    0  0.00000000000E+00  0.00000000000E+00  0.97545027242E+03  0.97545027242E+03  0.00000000000E+00 0.  1.
         -2   -1    0    0    0  501 -0.00000000000E+00 -0.00000000000E+00 -0.43400014883E+02  0.43400014883E+02  0.00000000000E+00 0. -1.
          6    1    1    2  502    0  0.63984289659E+02 -0.55281677696E+02  0.64551503045E+03  0.67362356531E+03  0.17300000000E+03 0.  1.
         -6    1    1    2    0  501 -0.63984289659E+02  0.55281677696E+02  0.28653522709E+03  0.34522672199E+03  0.17300000000E+03 0. -1.
</event>
<event>
 4    1  0.5880538E-001  0.1000000E+03  0.7546771E-02  0.1280296E+00
          1   -1    0    0  502    0  0.00000000000E+00  0.00000000000E+00  0.27665634145E+03  0.27665634145E+03  0.00000000000E+00 0.  1.
         -1   -1    0    0    0  501 -0.00000000000E+00 -0.00000000000E+00 -0.20131957362E+03  0.20131957362E+03  0.00000000000E+00 0. -1.
          6    1    1    2  502    0 -0.44765550578E+02 -0.15043582319E+03  0.71746165504E+02  0.24435916943E+03  0.17300000000E+03 0.  1.
         -6    1    1    2    0  501  0.44765550578E+02  0.15043582319E+03  0.35906023275E+01  0.23361674564E+03  0.17300000000E+03 0. -1.
</event>
<event>
 4    1  0.5880538E-001  0.1000000E+03  0.7546771E-02  0.1280296E+00
          2   -1    0    0  502    0  0.00000000000E+00  0.00000000000E+00  0.12757975542E+04  0.12757975542E+04  0.00000000000E+00 0. -1.
         -2   -1    0    0    0  501 -0.00000000000E+00 -0.00000000000E+00 -0.25061432085E+02  0.25061432085E+02  0.00000000000E+00 0.  1.
          6    1    1    2  502    0  0.39397569950E+02 -0.39501183562E+01  0.54596140568E+03  0.57408242304E+03  0.17300000000E+03 0.  1.
         -6    1    1    2    0  501 -0.39397569950E+02  0.39501183562E+01  0.70477471643E+03  0.72677656324E+03  0.17300000000E+03 0. -1.
</event>
<event>
 4    1  0.5880538E-001  0.1000000E+03  0.7546771E-02  0.1280296E+00
         -1   -1    0    0    0  501 -0.00000000000E+00  0.00000000000E+00  0.20383284985E+02  0.20383284985E+02  0.00000000000E+00 0.  1.
          1   -1    0    0  502    0  0.00000000000E+00 -0.00000000000E+00 -0.19971668151E+04  0.19971668151E+04  0.00000000000E+00 0. -1.
          6    1    1    2  502    0  0.10101398969E+03  0.83809915469E+01 -0.87595213655E+03  0.89860737403E+03  0.17300000000E+03 0.  1.
         -6    1    1    2    0  501 -0.10101398969E+03 -0.83809915469E+01 -0.11008313935E+04  0.11189427260E+04  0.17300000000E+03 0. -1.
</event>
<event>
 4    1  0.5880538E-001  0.1000000E+03  0.7546771E-02  0.1280296E+00
         -3   -1    0    0    0  501 -0.00000000000E+00  0.00000000000E+00  0.86299124977E+02  0.86299124977E+02  0.00000000000E+00 0.  1.
          3   -1    0    0  502    0  0.00000000000E+00 -0.00000000000E+00 -0.41895741937E+03  0.41895741937E+03  0.00000000000E+00 0. -1.
          6    1    1    2  502    0 -0.58921476830E+02  0.50583853658E+02 -0.14771965713E+03  0.24037588021E+03  0.17300000000E+03 0.  1.
         -6    1    1    2    0  501  0.58921476830E+02 -0.50583853658E+02 -0.18493863726E+03  0.26488066414E+03  0.17300000000E+03 0. -1.
</event>
<event>
 4    1  0.5880538E-001  0.1000000E+03  0.7546771E-02  0.1280296E+00
         -2   -1    0    0    0  501 -0.00000000000E+00  0.00000000000E+00  0.14410131650E+03  0.14410131650E+03  0.00000000000E+00 0.  1.
          2   -1    0    0  502    0  0.00000000000E+00 -0.00000000000E+00 -0.56113238856E+03  0.56113238856E+03  0.00000000000E+00 0. -1.
          6    1    1    2  502    0  0.25552369307E+02  0.51761734665E+02  0.62026053214E+02  0.19263549006E+03  0.17300000000E+03 0. -1.
         -6    1    1    2    0  501 -0.25552369307E+02 -0.51761734665E+02 -0.47905712527E+03  0.51259821500E+03  0.17300000000E+03 0. -1.
</event>
<event>
 4    1  0.5880538E-001  0.1000000E+03  0.7546771E-02  0.1280296E+00
         -2   -1    0    0    0  501 -0.00000000000E+00  0.00000000000E+00  0.28891265588E+02  0.28891265588E+02  0.00000000000E+00 0. -1.
          2   -1    0    0  502    0  0.00000000000E+00 -0.00000000000E+00 -0.10826161316E+04  0.10826161316E+04  0.00000000000E+00 0.  1.
          6    1    1    2  502    0  0.16129645476E+02  0.21727352687E+01 -0.63033598071E+03  0.65384809766E+03  0.17300000000E+03 0. -1.
         -6    1    1    2    0  501 -0.16129645476E+02 -0.21727352687E+01 -0.42338888527E+03  0.45765929950E+03  0.17300000000E+03 0.  1.
</event>
<event>
 4    1  0.5880538E-001  0.1000000E+03  0.7546771E-02  0.1280296E+00
         -2   -1    0    0    0  501 -0.00000000000E+00  0.00000000000E+00  0.14079551929E+03  0.14079551929E+03  0.00000000000E+00 0. -1.
          2   -1    0    0  502    0  0.00000000000E+00 -0.00000000000E+00 -0.31990537889E+03  0.31990537889E+03  0.00000000000E+00 0.  1.
          6    1    1    2  502    0  0.81905830092E+02  0.19452339039E+02 -0.18678802693E+03  0.26815242960E+03  0.17300000000E+03 0. -1.
         -6    1    1    2    0  501 -0.81905830092E+02 -0.19452339039E+02  0.76781673255E+01  0.19254846858E+03  0.17300000000E+03 0.  1.
</event>
<event>
 4    1  0.5880538E-001  0.1000000E+03  0.7546771E-02  0.1280296E+00
          1   -1    0    0  502    0  0.00000000000E+00  0.00000000000E+00  0.10802416845E+03  0.10802416845E+03  0.00000000000E+00 0. -1.
         -1   -1    0    0    0  501 -0.00000000000E+00 -0.00000000000E+00 -0.45778501343E+03  0.45778501343E+03  0.00000000000E+00 0.  1.
          6    1    1    2  502    0  0.71235464044E+02  0.10124040475E+03 -0.25731472188E+03  0.33386221258E+03  0.17300000000E+03 0.  1.
         -6    1    1    2    0  501 -0.71235464044E+02 -0.10124040475E+03 -0.92446123110E+02  0.23194696930E+03  0.17300000000E+03 0. -1.
</event>
<event>
 4    1  0.5880538E-001  0.1000000E+03  0.7546771E-02  0.1280296E+00
          1   -1    0    0  502    0  0.00000000000E+00  0.00000000000E+00  0.75609299160E+03  0.75609299160E+03  0.00000000000E+00 0. -1.
         -1   -1    0    0    0  501 -0.00000000000E+00 -0.00000000000E+00 -0.66786359406E+02  0.66786359406E+02  0.00000000000E+00 0.  1.
          6    1    1    2  502    0 -0.61474766185E+02  0.60195741377E+02  0.55473370225E+03  0.58741906214E+03  0.17300000000E+03 0.  1.
         -6    1    1    2    0  501  0.61474766185E+02 -0.60195741377E+02  0.13457292994E+03  0.23546028886E+03  0.17300000000E+03 0. -1.
</event>
<event>
 4    1  0.5880538E-001  0.1000000E+03  0.7546771E-02  0.1280296E+00
          2   -1    0    0  502    0  0.00000000000E+00  0.00000000000E+00  0.21119957781E+03  0.21119957781E+03  0.00000000000E+00 0.  1.
         -2   -1    0    0    0  501 -0.00000000000E+00 -0.00000000000E+00 -0.15312476508E+03  0.15312476508E+03  0.00000000000E+00 0. -1.
          6    1    1    2  502    0 -0.26646408785E+02  0.41074925162E+02  0.25287408928E+02  0.18156440628E+03  0.17300000000E+03 0.  1.
         -6    1    1    2    0  501  0.26646408785E+02 -0.41074925162E+02  0.32787403805E+02  0.18275993660E+03  0.17300000000E+03 0. -1.
</event>
<event>
 4    1  0.5880538E-001  0.1000000E+03  0.7546771E-02  0.1280296E+00
          1   -1    0    0  502    0  0.00000000000E+00  0.00000000000E+00  0.16044545210E+04  0.16044545210E+04  0.00000000000E+00 0.  1.
         -1   -1    0    0    0  501 -0.00000000000E+00 -0.00000000000E+00 -0.70604907330E+02  0.70604907330E+02  0.00000000000E+00 0. -1.
          6    1    1    2  502    0  0.18276013515E+03  0.14187489400E+03  0.11966582787E+04  0.12310360630E+04  0.17300000000E+03 0.  1.
         -6    1    1    2    0  501 -0.18276013515E+03 -0.14187489400E+03  0.33719133504E+03  0.44402336534E+03  0.17300000000E+03 0. -1.
</event>
<event>
 4    1  0.5880538E-001  0.1000000E+03  0.7546771E-02  0.1280296E+00
          2   -1    0    0  502    0  0.00000000000E+00  0.00000000000E+00  0.19660593609E+03  0.19660593609E+03  0.00000000000E+00 0.  1.
         -2   -1    0    0    0  501 -0.00000000000E+00 -0.00000000000E+00 -0.19798594895E+03  0.19798594895E+03  0.00000000000E+00 0. -1.
          6    1    1    2  502    0  0.54936890183E+02  0.11806291590E+01  0.76619955032E+02  0.19702556509E+03  0.17300000000E+03 0.  1.
         -6    1    1    2    0  501 -0.54936890183E+02 -0.11806291590E+01 -0.77999967900E+02  0.19756631996E+03  0.17300000000E+03 0. -1.
</event>
<event>
 4    1  0.5880538E-001  0.1000000E+03  0.7546771E-02  0.1280296E+00
          1   -1    0    0  502    0  0.00000000000E+00  0.00000000000E+00  0.52427299945E+03  0.52427299945E+03  0.00000000000E+00 0. -1.
         -1   -1    0    0    0  501 -0.00000000000E+00 -0.00000000000E+00 -0.64252750409E+02  0.64252750409E+02  0.00000000000E+00 0.  1.
          6    1    1    2  502    0 -0.49881431373E+01 -0.17570818275E+01  0.13210445743E+03  0.21773506052E+03  0.17300000000E+03 0. -1.
         -6    1    1    2    0  501  0.49881431373E+01  0.17570818275E+01  0.32791579161E+03  0.37079068934E+03  0.17300000000E+03 0.  1.
</event>
<event>
 4    1  0.5880538E-001  0.1000000E+03  0.7546771E-02  0.1280296E+00
          2   -1    0    0  502    0  0.00000000000E+00  0.00000000000E+00  0.86374196824E+03  0.86374196824E+03  0.00000000000E+00 0. -1.
         -2   -1    0    0    0  501 -0.00000000000E+00 -0.00000000000E+00 -0.74991737376E+02  0.74991737376E+02  0.00000000000E+00 0.  1.
          6    1    1    2  502    0  0.13176497583E+03  0.31053562414E+02  0.63140045178E+03  0.66852214855E+03  0.17300000000E+03 0. -1.
         -6    1    1    2    0  501 -0.13176497583E+03 -0.31053562414E+02  0.15734977909E+03  0.27021155707E+03  0.17300000000E+03 0.  1.
</event>
<event>
 4    1  0.5880538E-001  0.1000000E+03  0.7546771E-02  0.1280296E+00
          1   -1    0    0  502    0  0.00000000000E+00  0.00000000000E+00  0.21336632907E+04  0.21336632907E+04  0.00000000000E+00 0. -1.
         -1   -1    0    0    0  501 -0.00000000000E+00 -0.00000000000E+00 -0.37589526873E+02  0.37589526873E+02  0.00000000000E+00 0.  1.
          6    1    1    2  502    0  0.11479349846E+03 -0.14429038111E+03  0.55896468688E+03  0.61348820898E+03  0.17300000000E+03 0. -1.
         -6    1    1    2    0  501 -0.11479349846E+03  0.14429038111E+03  0.15371090769E+04  0.15577646086E+04  0.17300000000E+03 0.  1.
</event>
<event>
 4    1  0.5880538E-001  0.1000000E+03  0.7546771E-02  0.1280296E+00
          1   -1    0    0  502    0  0.00000000000E+00  0.00000000000E+00  0.75645478148E+03  0.75645478148E+03  0.00000000000E+00 0. -1.
         -1   -1    0    0    0  501 -0.00000000000E+00 -0.00000000000E+00 -0.77221093734E+02  0.77221093734E+02  0.00000000000E+00 0.  1.
          6    1    1    2  502    0  0.12779358859E+03 -0.10570936783E+02  0.52887859433E+03  0.57103810165E+03  0.17300000000E+03 0. -1.
         -6    1    1    2    0  501 -0.12779358859E+03  0.10570936783E+02  0.15035509341E+03  0.26263777357E+03  0.17300000000E+03 0.  1.
</event>
<event>
 4    1  0.5880538E-001  0.1000000E+03  0.7546771E-02  0.1280296E+00
          2   -1    0    0  502    0  0.00000000000E+00  0.00000000000E+00  0.63971557111E+03  0.63971557111E+03  0.00000000000E+00 0. -1.
         -2   -1    0    0    0  501 -0.00000000000E+00 -0.00000000000E+00 -0.82560008136E+02  0.82560008136E+02  0.00000000000E+00 0.  1.
          6    1    1    2  502    0  0.11990614299E+03  0.28455498166E+02  0.14069691834E+03  0.25477798440E+03  0.17300000000E+03 0. -1.
         -6    1    1    2    0  501 -0.11990614299E+03 -0.28455498166E+02  0.41645864463E+03  0.46749759485E+03  0.17300000000E+03 0.  1.
</event>
<event>
 4    1  0.5880538E-001  0.1000000E+03  0.7546771E-02  0.1280296E+00
          3   -1    0    0  502    0  0.00000000000E+00  0.00000000000E+00  0.12263633152E+03  0.12263633152E+03  0.00000000000E+00 0. -1.
         -3   -1    0    0    0  501 -0.00000000000E+00 -0.00000000000E+00 -0.10111245824E+04  0.10111245824E+04  0.00000000000E+00 0.  1.
          6    1    1    2  502    0  0.17894071400E+03  0.14967374468E+02 -0.43957112256E+02  0.25318970979E+03  0.17300000000E+03 0. -1.
         -6    1    1    2    0  501 -0.17894071400E+03 -0.14967374468E+02 -0.84453113863E+03  0.88057120413E+03  0.17300000000E+03 0.  1.
</event>
<event>
 4    1  0.5880538E-001  0.1000000E+03  0.7546771E-02  0.1280296E+00
          2   -1    0    0  502    0  0.00000000000E+00  0.00000000000E+00  0.22035637233E+04  0.22035637233E+04  0.00000000000E+00 0.  1.
         -2   -1    0    0    0  501 -0.00000000000E+00 -0.00000000000E+00 -0.22679179175E+02  0.22679179175E+02  0.00000000000E+00 0. -1.
          6    1    1    2  502    0 -0.40608221650E+02  0.13484351216E+03  0.10175650012E+04  0.10417290109E+04  0.17300000000E+03 0. -1.
         -6    1    1    2    0  501  0.40608221650E+02 -0.13484351216E+03  0.11633195430E+04  0.11845138916E+04  0.17300000000E+03 0.  1.
</event>
<event>
 4    1  0.5880538E-001  0.1000000E+03  0.7546771E-02  0.1280296E+00
          2   -1    0    0  502    0  0.00000000000E+00  0.00000000000E+00  0.81967673588E+03  0.81967673588E+03  0.00000000000E+00 0.  1.
         -2   -1    0    0    0  501 -0.00000000000E+00 -0.00000000000E+00 -0.16317813600E+03  0.16317813600E+03  0.00000000000E+00 0. -1.
          6    1    1    2  502    0 -0.54678389791E+02 -0.20560769563E+03  0.30812187895E+01  0.27423118845E+03  0.17300000000E+03 0. -1.
         -6    1    1    2    0  501  0.54678389791E+02  0.20560769563E+03  0.65341738109E+03  0.70862368343E+03  0.17300000000E+03 0.  1.
</event>
<event>
 4    1  0.5880538E-001  0.1000000E+03  0.7546771E-02  0.1280296E+00
         -1   -1    0    0    0  501 -0.00000000000E+00  0.00000000000E+00  0.18845742298E+02  0.18845742298E+02  0.00000000000E+00 0. -1.
          1   -1    0    0  502    0  0.00000000000E+00 -0.00000000000E+00 -0.29998691947E+04  0.29998691947E+04  0.00000000000E+00 0.  1.
          6    1    1    2  502    0 -0.85003388776E+02 -0.13630056958E+03 -0.16703216491E+04  0.16869222960E+04  0.17300000000E+03 0.  1.
         -6    1    1    2    0  501  0.85003388776E+02  0.13630056958E+03 -0.13107018033E+04  0.13317926410E+04  0.17300000000E+03 0. -1.
</event>
<event>
 4    1  0.5880538E-001  0.1000000E+03  0.7546771E-02  0.1280296E+00
         -4   -1    0    0    0  501 -0.00000000000E+00  0.00000000000E+00  0.11085624867E+03  0.11085624867E+03  0.00000000000E+00 0. -1.
          4   -1    0    0  502    0  0.00000000000E+00 -0.00000000000E+00 -0.58424882331E+03  0.58424882331E+03  0.00000000000E+00 0.  1.
          6    1    1    2  502    0 -0.17005429797E+03  0.74606451952E+02 -0.21099994905E+03  0.33005236770E+03  0.17300000000E+03 0.  1.
         -6    1    1    2    0  501  0.17005429797E+03 -0.74606451952E+02 -0.26239262560E+03  0.36505270427E+03  0.17300000000E+03 0. -1.
</event>
<event>
 4    1  0.5880538E-001  0.1000000E+03  0.7546771E-02  0.1280296E+00
         -4   -1    0    0    0  501 -0.00000000000E+00  0.00000000000E+00  0.11312610892E+03  0.11312610892E+03  0.00000000000E+00 0. -1.
          4   -1    0    0  502    0  0.00000000000E+00 -0.00000000000E+00 -0.57233846949E+03  0.57233846949E+03  0.00000000000E+00 0.  1.
          6    1    1    2  502    0 -0.14190292366E+03  0.47384242718E+02 -0.79401813807E+02  0.24210608054E+03  0.17300000000E+03 0.  1.
         -6    1    1    2    0  501  0.14190292366E+03 -0.47384242718E+02 -0.37981054676E+03  0.44335849787E+03  0.17300000000E+03 0. -1.
</event>
<event>
 4    1  0.5880538E-001  0.1000000E+03  0.7546771E-02  0.1280296E+00
         -2   -1    0    0    0  501 -0.00000000000E+00  0.00000000000E+00  0.22619871447E+03  0.22619871447E+03  0.00000000000E+00 0. -1.
          2   -1    0    0  502    0  0.00000000000E+00 -0.00000000000E+00 -0.21657521801E+03  0.21657521801E+03  0.00000000000E+00 0.  1.
          6    1    1    2  502    0 -0.88736944398E+01  0.82516906596E+02 -0.10554225648E+03  0.21898847054E+03  0.17300000000E+03 0.  1.
         -6    1    1    2    0  501  0.88736944398E+01 -0.82516906596E+02  0.11516575294E+03  0.22378546194E+03  0.17300000000E+03 0. -1.
</event>
<event>
 4    1  0.5880538E-001  0.1000000E+03  0.7546771E-02  0.1280296E+00
         -2   -1    0    0    0  501 -0.00000000000E+00  0.00000000000E+00  0.28446965925E+02  0.28446965925E+02  0.00000000000E+00 0.  1.
          2   -1    0    0  502    0  0.00000000000E+00 -0.00000000000E+00 -0.24889548368E+04  0.24889548368E+04  0.00000000000E+00 0. -1.
          6    1    1    2  502    0  0.47216466268E+02  0.55591487369E+02 -0.33829929745E+03  0.38690466889E+03  0.17300000000E+03 0. -1.
         -6    1    1    2    0  501 -0.47216466268E+02 -0.55591487369E+02 -0.21222085734E+04  0.21304971338E+04  0.17300000000E+03 0.  1.
</event>
<event>
 4    1  0.5880538E-001  0.1000000E+03  0.7546771E-02  0.1280296E+00
         -2   -1    0    0    0  501 -0.00000000000E+00  0.00000000000E+00  0.18780602608E+03  0.18780602608E+03  0.00000000000E+00 0.  1.
          2   -1    0    0  502    0  0.00000000000E+00 -0.00000000000E+00 -0.24211252035E+04  0.24211252035E+04  0.00000000000E+00 0. -1.
          6    1    1    2  502    0  0.58210477175E+03  0.89440088456E+02 -0.57663396592E+03  0.84218835505E+03  0.17300000000E+03 0. -1.
         -6    1    1    2    0  501 -0.58210477175E+03 -0.89440088456E+02 -0.16566852115E+04  0.17667428745E+04  0.17300000000E+03 0.  1.
</event>
<event>
 4    1  0.5880538E-001  0.1000000E+03  0.7546771E-02  0.1280296E+00
          2   -1    0    0  502    0  0.00000000000E+00  0.00000000000E+00  0.24079916978E+03  0.24079916978E+03  0.00000000000E+00 0.  1.
         -2   -1    0    0    0  501 -0.00000000000E+00 -0.00000000000E+00 -0.16104500631E+03  0.16104500631E+03  0.00000000000E+00 0. -1.
          6    1    1    2  502    0  0.44324837198E+02 -0.22977628501E+02 -0.41477384019E+02  0.18477563689E+03  0.17300000000E+03 0.  1.
         -6    1    1    2    0  501 -0.44324837198E+02  0.22977628501E+02  0.12123154749E+03  0.21706853920E+03  0.17300000000E+03 0. -1.
</event>
<event>
 4    1  0.5880538E-001  0.1000000E+03  0.7546771E-02  0.1280296E+00
          1   -1    0    0  502    0  0.00000000000E+00  0.00000000000E+00  0.16598504594E+03  0.16598504594E+03  0.00000000000E+00 0.  1.
         -1   -1    0    0    0  501 -0.00000000000E+00 -0.00000000000E+00 -0.91143785259E+03  0.91143785259E+03  0.00000000000E+00 0. -1.
          6    1    1    2  502    0 -0.19487687536E+03  0.22893895614E+03 -0.61645182480E+03  0.70734142709E+03  0.17300000000E+03 0.  1.
         -6    1    1    2    0  501  0.19487687536E+03 -0.22893895614E+03 -0.12900098185E+03  0.37008147144E+03  0.17300000000E+03 0. -1.
</event>
<event>
 4    1  0.5880538E-001  0.1000000E+03  0.7546771E-02  0.1280296E+00
          2   -1    0    0  502    0  0.00000000000E+00  0.00000000000E+00  0.36570738396E+03  0.36570738396E+03  0.00000000000E+00 0.  1.
         -2   -1    0    0    0  501 -0.00000000000E+00 -0.00000000000E+00 -0.13153295729E+03  0.13153295729E+03  0.00000000000E+00 0. -1.
          6    1    1    2  502    0 -0.58059613618E+02 -0.12065654457E+03  0.13481798689E+03  0.25697044591E+03  0.17300000000E+03 0.  1.
         -6    1    1    2    0  501  0.58059613618E+02  0.12065654457E+03  0.99356439776E+02  0.24026989534E+03  0.17300000000E+03 0. -1.
</event>
<event>
 4    1  0.5880538E-001  0.1000000E+03  0.7546771E-02  0.1280296E+00
          2   -1    0    0  502    0  0.00000000000E+00  0.00000000000E+00  0.10245924532E+04  0.10245924532E+04  0.00000000000E+00 0.  1.
         -2   -1    0    0    0  501 -0.00000000000E+00 -0.00000000000E+00 -0.41479205950E+02  0.41479205950E+02  0.00000000000E+00 0. -1.
          6    1    1    2  502    0 -0.76954451432E+02 -0.80256496788E+02  0.45433901699E+03  0.49871438242E+03  0.17300000000E+03 0.  1.
         -6    1    1    2    0  501  0.76954451432E+02  0.80256496788E+02  0.52877423025E+03  0.56735727672E+03  0.17300000000E+03 0. -1.
</event>
<event>
 4    1  0.5880538E-001  0.1000000E+03  0.7546771E-02  0.1280296E+00
          1   -1    0    0  502    0  0.00000000000E+00  0.00000000000E+00  0.10255733125E+04  0.10255733125E+04  0.00000000000E+00 0.  1.
         -1   -1    0    0    0  501 -0.00000000000E+00 -0.00000000000E+00 -0.32713301739E+02  0.32713301739E+02  0.00000000000E+00 0. -1.
          6    1    1    2  502    0 -0.40625457856E+02 -0.41652608509E+02  0.54076464043E+03  0.57073703574E+03  0.17300000000E+03 0.  1.
         -6    1    1    2    0  501  0.40625457856E+02  0.41652608509E+02  0.45209537029E+03  0.48754957846E+03  0.17300000000E+03 0.  1.
</event>
<event>
 4    1  0.5880538E-001  0.1000000E+03  0.7546771E-02  0.1280296E+00
          1   -1    0    0  502    0  0.00000000000E+00  0.00000000000E+00  0.81389280517E+03  0.81389280517E+03  0.00000000000E+00 0. -1.
         -1   -1    0    0    0  501 -0.00000000000E+00 -0.00000000000E+00 -0.45816321297E+02  0.45816321297E+02  0.00000000000E+00 0.  1.
          6    1    1    2  502    0  0.70197765498E+00 -0.75278244981E+02  0.47563721244E+03  0.51169039936E+03  0.17300000000E+03 0. -1.
         -6    1    1    2    0  501 -0.70197765498E+00  0.75278244981E+02  0.29243927143E+03  0.34801872711E+03  0.17300000000E+03 0.  1.
</event>
<event>
 4    1  0.5880538E-001  0.1000000E+03  0.7546771E-02  0.1280296E+00
          1   -1    0    0  502    0  0.00000000000E+00  0.00000000000E+00  0.34048647292E+02  0.34048647292E+02  0.00000000000E+00 0.  1.
         -1   -1    0    0    0  501 -0.00000000000E+00 -0.00000000000E+00 -0.12046058954E+04  0.12046058954E+04  0.00000000000E+00 0. -1.
          6    1    1    2  502    0  0.75313592292E+02  0.66947802993E+02 -0.49191692962E+03  0.53109830649E+03  0.17300000000E+03 0.  1.
         -6    1    1    2    0  501 -0.75313592292E+02 -0.66947802993E+02 -0.67864031845E+03  0.70755623617E+03  0.17300000000E+03 0. -1.
</event>
<event>
 4    1  0.5880538E-001  0.1000000E+03  0.7546771E-02  0.1280296E+00
          2   -1    0    0  502    0  0.00000000000E+00  0.00000000000E+00  0.94526765276E+03  0.94526765276E+03  0.00000000000E+00 0.  1.
         -2   -1    0    0    0  501 -0.00000000000E+00 -0.00000000000E+00 -0.40432145641E+02  0.40432145641E+02  0.00000000000E+00 0. -1.
          6    1    1    2  502    0 -0.34792888059E+01 -0.90983531982E+02  0.45317767426E+03  0.49354747795E+03  0.17300000000E+03 0.  1.
         -6    1    1    2    0  501  0.34792888059E+01  0.90983531982E+02  0.45165783285E+03  0.49215232045E+03  0.17300000000E+03 0. -1.
</event>
<event>
 4    1  0.5880538E-001  0.1000000E+03  0.7546771E-02  0.1280296E+00
          1   -1    0    0  502    0  0.00000000000E+00  0.00000000000E+00  0.66333579027E+02  0.66333579027E+02  0.00000000000E+00 0.  1.
         -1   -1    0    0    0  501 -0.00000000000E+00 -0.00000000000E+00 -0.53021954173E+03  0.53021954173E+03  0.00000000000E+00 0. -1.
          6    1    1    2  502    0 -0.70703388339E+02  0.13204586169E+02 -0.21872873510E+03  0.28800102392E+03  0.17300000000E+03 0.  1.
         -6    1    1    2    0  501  0.70703388339E+02 -0.13204586169E+02 -0.24515722760E+03  0.30855209684E+03  0.17300000000E+03 0. -1.
</event>
<event>
 4    1  0.5880538E-001  0.1000000E+03  0.7546771E-02  0.1280296E+00
         -1   -1    0    0    0  501 -0.00000000000E+00  0.00000000000E+00  0.92729649573E+02  0.92729649573E+02  0.00000000000E+00 0. -1.
          1   -1    0    0  502    0  0.00000000000E+00 -0.00000000000E+00 -0.38021477435E+03  0.38021477435E+03  0.00000000000E+00 0.  1.
          6    1    1    2  502    0 -0.53024965272E+02  0.45596525115E+02 -0.11740098748E+03  0.22046015945E+03  0.17300000000E+03 0.  1.
         -6    1    1    2    0  501  0.53024965272E+02 -0.45596525115E+02 -0.17008413729E+03  0.25248426447E+03  0.17300000000E+03 0. -1.
</event>
<event>
 4    1  0.5880538E-001  0.1000000E+03  0.7546771E-02  0.1280296E+00
         -2   -1    0    0    0  501 -0.00000000000E+00  0.00000000000E+00  0.23218876265E+02  0.23218876265E+02  0.00000000000E+00 0. -1.
          2   -1    0    0  502    0  0.00000000000E+00 -0.00000000000E+00 -0.16734448046E+04  0.16734448046E+04  0.00000000000E+00 0.  1.
          6    1    1    2  502    0 -0.22949333674E+02 -0.81706818385E+02 -0.64642845117E+03  0.67453792967E+03  0.17300000000E+03 0.  1.
         -6    1    1    2    0  501  0.22949333674E+02  0.81706818385E+02 -0.10037974772E+04  0.10221257512E+04  0.17300000000E+03 0. -1.
</event>
<event>
 4    1  0.5880538E-001  0.1000000E+03  0.7546771E-02  0.1280296E+00
         -1   -1    0    0    0  501 -0.00000000000E+00  0.00000000000E+00  0.61212314936E+02  0.61212314936E+02  0.00000000000E+00 0. -1.
          1   -1    0    0  502    0  0.00000000000E+00 -0.00000000000E+00 -0.73922995091E+03  0.73922995091E+03  0.00000000000E+00 0.  1.
          6    1    1    2  502    0  0.10777138390E+03 -0.45252611612E+02 -0.26238753329E+03  0.33531878515E+03  0.17300000000E+03 0. -1.
         -6    1    1    2    0  501 -0.10777138390E+03  0.45252611612E+02 -0.41563010269E+03  0.46512348070E+03  0.17300000000E+03 0.  1.
</event>
<event>
 4    1  0.5880538E-001  0.1000000E+03  0.7546771E-02  0.1280296E+00
         -2   -1    0    0    0  501 -0.00000000000E+00  0.00000000000E+00  0.49600539097E+02  0.49600539097E+02  0.00000000000E+00 0. -1.
          2   -1    0    0  502    0  0.00000000000E+00 -0.00000000000E+00 -0.88761900923E+03  0.88761900923E+03  0.00000000000E+00 0.  1.
          6    1    1    2  502    0 -0.80322604995E+02 -0.84221029212E+02 -0.36651487682E+03  0.42167174148E+03  0.17300000000E+03 0.  1.
         -6    1    1    2    0  501  0.80322604995E+02  0.84221029212E+02 -0.47150359331E+03  0.51554780685E+03  0.17300000000E+03 0. -1.
</event>
<event>
 4    1  0.5880538E-001  0.1000000E+03  0.7546771E-02  0.1280296E+00
         -1   -1    0    0    0  501 -0.00000000000E+00  0.00000000000E+00  0.40099975701E+03  0.40099975701E+03  0.00000000000E+00 0. -1.
          1   -1    0    0  502    0  0.00000000000E+00 -0.00000000000E+00 -0.78212604834E+02  0.78212604834E+02  0.00000000000E+00 0.  1.
          6    1    1    2  502    0 -0.29904370800E+02  0.23103795669E+02  0.15803048631E+03  0.23734087590E+03  0.17300000000E+03 0.  1.
         -6    1    1    2    0  501  0.29904370800E+02 -0.23103795669E+02  0.16475666586E+03  0.24187148594E+03  0.17300000000E+03 0. -1.
</event>
<event>
 4    1  0.5880538E-001  0.1000000E+03  0.7546771E-02  0.1280296E+00
          2   -1    0    0  502    0  0.00000000000E+00  0.00000000000E+00  0.17662769584E+04  0.17662769584E+04  0.00000000000E+00 0.  1.
         -2   -1    0    0    0  501 -0.00000000000E+00 -0.00000000000E+00 -0.37174313887E+02  0.37174313887E+02  0.00000000000E+00 0. -1.
          6    1    1    2  502    0  0.29766718526E+02 -0.14458450643E+03  0.44906081509E+03  0.50336403594E+03  0.17300000000E+03 0. -1.
         -6    1    1    2    0  501 -0.29766718526E+02  0.14458450643E+03  0.12800418295E+04  0.13000872364E+04  0.17300000000E+03 0.  1.
</event>
<event>
 4    1  0.5880538E-001  0.1000000E+03  0.7546771E-02  0.1280296E+00
         -2   -1    0    0    0  501 -0.00000000000E+00  0.00000000000E+00  0.11656688036E+03  0.11656688036E+03  0.00000000000E+00 0. -1.
          2   -1    0    0  502    0  0.00000000000E+00 -0.00000000000E+00 -0.64547570441E+03  0.64547570441E+03  0.00000000000E+00 0.  1.
          6    1    1    2  502    0 -0.31138240772E+02  0.18567861260E+03 -0.40242649084E+03  0.47678319784E+03  0.17300000000E+03 0. -1.
         -6    1    1    2    0  501  0.31138240772E+02 -0.18567861260E+03 -0.12648233321E+03  0.28525938693E+03  0.17300000000E+03 0. -1.
</event>
<event>
 4    1  0.5880538E-001  0.1000000E+03  0.7546771E-02  0.1280296E+00
         -1   -1    0    0    0  501 -0.00000000000E+00  0.00000000000E+00  0.10614175633E+03  0.10614175633E+03  0.00000000000E+00 0.  1.
          1   -1    0    0  502    0  0.00000000000E+00 -0.00000000000E+00 -0.97967322654E+03  0.97967322654E+03  0.00000000000E+00 0. -1.
          6    1    1    2  502    0 -0.13428325319E+03 -0.19906402744E+03 -0.65235199116E+03  0.71634530743E+03  0.17300000000E+03 0. -1.
         -6    1    1    2    0  501  0.13428325319E+03  0.19906402744E+03 -0.22117947905E+03  0.36946967543E+03  0.17300000000E+03 0.  1.
</event>
<event>
 4    1  0.5880538E-001  0.1000000E+03  0.7546771E-02  0.1280296E+00
         -2   -1    0    0    0  501 -0.00000000000E+00  0.00000000000E+00  0.32100967969E+03  0.32100967969E+03  0.00000000000E+00 0.  1.
          2   -1    0    0  502    0  0.00000000000E+00 -0.00000000000E+00 -0.42676331381E+03  0.42676331381E+03  0.00000000000E+00 0. -1.
          6    1    1    2  502    0 -0.25788824608E+03 -0.11112573575E+03  0.11678943989E+03  0.34989148300E+03  0.17300000000E+03 0. -1.
         -6    1    1    2    0  501  0.25788824608E+03  0.11112573575E+03 -0.22254307401E+03  0.39788151050E+03  0.17300000000E+03 0.  1.
</event>
<event>
 4    1  0.5880538E-001  0.1000000E+03  0.7546771E-02  0.1280296E+00
          2   -1    0    0  502    0  0.00000000000E+00  0.00000000000E+00  0.31034636686E+04  0.31034636686E+04  0.00000000000E+00 0. -1.
         -2   -1    0    0    0  501 -0.00000000000E+00 -0.00000000000E+00 -0.29648117827E+02  0.29648117827E+02  0.00000000000E+00 0.  1.
          6    1    1    2  502    0 -0.16187293493E+03 -0.51702180757E+02  0.59580267828E+03  0.64326183938E+03  0.17300000000E+03 0.  1.
         -6    1    1    2    0  501  0.16187293493E+03  0.51702180757E+02  0.24780128725E+04  0.24898499470E+04  0.17300000000E+03 0. -1.
</event>
<event>
 4    1  0.5880538E-001  0.1000000E+03  0.7546771E-02  0.1280296E+00
          2   -1    0    0  502    0  0.00000000000E+00  0.00000000000E+00  0.17985648759E+04  0.17985648759E+04  0.00000000000E+00 0.  1.
         -2   -1    0    0    0  501 -0.00000000000E+00 -0.00000000000E+00 -0.31901670641E+02  0.31901670641E+02  0.00000000000E+00 0. -1.
          6    1    1    2  502    0 -0.82663286933E+02  0.57345550723E+02  0.13862729815E+04  0.14006439628E+04  0.17300000000E+03 0.  1.
         -6    1    1    2    0  501  0.82663286933E+02 -0.57345550723E+02  0.38039022379E+03  0.42982258381E+03  0.17300000000E+03 0. -1.
</event>
<event>
 4    1  0.5880538E-001  0.1000000E+03  0.7546771E-02  0.1280296E+00
          1   -1    0    0  502    0  0.00000000000E+00  0.00000000000E+00  0.11900699138E+03  0.11900699138E+03  0.00000000000E+00 0.  1.
         -1   -1    0    0    0  501 -0.00000000000E+00 -0.00000000000E+00 -0.11475964839E+04  0.11475964839E+04  0.00000000000E+00 0. -1.
          6    1    1    2  502    0  0.86764835774E+02 -0.38197338830E+02  0.21229240527E+02  0.19841082146E+03  0.17300000000E+03 0.  1.
         -6    1    1    2    0  501 -0.86764835774E+02  0.38197338830E+02 -0.10498187331E+04  0.10681926539E+04  0.17300000000E+03 0. -1.
</event>
<event>
 4    1  0.5880538E-001  0.1000000E+03  0.7546771E-02  0.1280296E+00
          1   -1    0    0  502    0  0.00000000000E+00  0.00000000000E+00  0.24385410738E+04  0.24385410738E+04  0.00000000000E+00 0.  1.
         -1   -1    0    0    0  501 -0.00000000000E+00 -0.00000000000E+00 -0.64095973130E+02  0.64095973130E+02  0.00000000000E+00 0. -1.
          6    1    1    2  502    0  0.62512948791E+02  0.32740195428E+03  0.15783622817E+04  0.16224230031E+04  0.17300000000E+03 0.  1.
         -6    1    1    2    0  501 -0.62512948791E+02 -0.32740195428E+03  0.79608281894E+03  0.88021404389E+03  0.17300000000E+03 0. -1.
</event>
<event>
 4    1  0.5880538E-001  0.1000000E+03  0.7546771E-02  0.1280296E+00
          4   -1    0    0  502    0  0.00000000000E+00  0.00000000000E+00  0.43400436296E+02  0.43400436296E+02  0.00000000000E+00 0.  1.
         -4   -1    0    0    0  501 -0.00000000000E+00 -0.00000000000E+00 -0.10245268818E+04  0.10245268818E+04  0.00000000000E+00 0. -1.
          6    1    1    2  502    0  0.10899943820E+03  0.47041131236E+02 -0.54381041123E+03  0.58288292900E+03  0.17300000000E+03 0.  1.
         -6    1    1    2    0  501 -0.10899943820E+03 -0.47041131236E+02 -0.43731603423E+03  0.48504438905E+03  0.17300000000E+03 0. -1.
</event>
<event>
 4    1  0.5880538E-001  0.1000000E+03  0.7546771E-02  0.1280296E+00
          1   -1    0    0  502    0  0.00000000000E+00  0.00000000000E+00  0.70888061556E+03  0.70888061556E+03  0.00000000000E+00 0.  1.
         -1   -1    0    0    0  501 -0.00000000000E+00 -0.00000000000E+00 -0.76211171593E+02  0.76211171593E+02  0.00000000000E+00 0. -1.
          6    1    1    2  502    0 -0.63756300710E+02  0.96807768815E+02  0.49069720695E+03  0.53305661884E+03  0.17300000000E+03 0.  1.
         -6    1    1    2    0  501  0.63756300710E+02 -0.96807768815E+02  0.14197223702E+03  0.25203516832E+03  0.17300000000E+03 0. -1.
</event>
<event>
 4    1  0.5880538E-001  0.1000000E+03  0.7546771E-02  0.1280296E+00
         -4   -1    0    0    0  501 -0.00000000000E+00  0.00000000000E+00  0.10201009367E+04  0.10201009367E+04  0.00000000000E+00 0. -1.
          4   -1    0    0  502    0  0.00000000000E+00 -0.00000000000E+00 -0.13831758085E+03  0.13831758085E+03  0.00000000000E+00 0.  1.
          6    1    1    2  502    0 -0.58868944766E+02  0.29508979322E+03  0.66234181163E+03  0.74777617918E+03  0.17300000000E+03 0. -1.
         -6    1    1    2    0  501  0.58868944766E+02 -0.29508979322E+03  0.21944154419E+03  0.41064233834E+03  0.17300000000E+03 0.  1.
</event>
<event>
 4    1  0.5880538E-001  0.1000000E+03  0.7546771E-02  0.1280296E+00
          2   -1    0    0  502    0  0.00000000000E+00  0.00000000000E+00  0.14849193877E+04  0.14849193877E+04  0.00000000000E+00 0.  1.
         -2   -1    0    0    0  501 -0.00000000000E+00 -0.00000000000E+00 -0.82992165018E+02  0.82992165018E+02  0.00000000000E+00 0. -1.
          6    1    1    2  502    0  0.25587162713E+03 -0.15979861346E+03  0.59382296053E+03  0.68815739107E+03  0.17300000000E+03 0.  1.
         -6    1    1    2    0  501 -0.25587162713E+03  0.15979861346E+03  0.80810426215E+03  0.87975416165E+03  0.17300000000E+03 0. -1.
</event>
<event>
 4    1  0.5880538E-001  0.1000000E+03  0.7546771E-02  0.1280296E+00
          2   -1    0    0  502    0  0.00000000000E+00  0.00000000000E+00  0.15516014165E+04  0.15516014165E+04  0.00000000000E+00 0.  1.
         -2   -1    0    0    0  501 -0.00000000000E+00 -0.00000000000E+00 -0.44417616097E+02  0.44417616097E+02  0.00000000000E+00 0. -1.
          6    1    1    2  502    0  0.18847767706E+03  0.34294757803E+02  0.60814384227E+03  0.66065717134E+03  0.17300000000E+03 0.  1.
         -6    1    1    2    0  501 -0.18847767706E+03 -0.34294757803E+02  0.89903995818E+03  0.93536186129E+03  0.17300000000E+03 0. -1.
</event>
<event>
 4    1  0.5880538E-001  0.1000000E+03  0.7546771E-02  0.1280296E+00
         -1   -1    0    0    0  501 -0.00000000000E+00  0.00000000000E+00  0.27670681808E+02  0.27670681808E+02  0.00000000000E+00 0. -1.
          1   -1    0    0  502    0  0.00000000000E+00 -0.00000000000E+00 -0.11681418412E+04  0.11681418412E+04  0.00000000000E+00 0.  1.
          6    1    1    2  502    0  0.40925388514E+02 -0.24901490301E+02 -0.53709417689E+03  0.56629861954E+03  0.17300000000E+03 0.  1.
         -6    1    1    2    0  501 -0.40925388514E+02  0.24901490301E+02 -0.60337698246E+03  0.62951390343E+03  0.17300000000E+03 0. -1.
</event>
<event>
 4    1  0.5880538E-001  0.1000000E+03  0.7546771E-02  0.1280296E+00
         -2   -1    0    0    0  501 -0.00000000000E+00  0.00000000000E+00  0.93984463972E+02  0.93984463972E+02  0.00000000000E+00 0. -1.
          2   -1    0    0  502    0  0.00000000000E+00 -0.00000000000E+00 -0.46436940969E+03  0.46436940969E+03  0.00000000000E+00 0.  1.
          6    1    1    2  502    0 -0.14993234810E+02 -0.86643384980E+01 -0.33997047935E+03  0.38184917793E+03  0.17300000000E+03 0.  1.
         -6    1    1    2    0  501  0.14993234810E+02  0.86643384980E+01 -0.30414466363E+02  0.17650469573E+03  0.17300000000E+03 0. -1.
</event>
<event>
 4    1  0.5880538E-001  0.1000000E+03  0.7546771E-02  0.1280296E+00
         -2   -1    0    0    0  501 -0.00000000000E+00  0.00000000000E+00  0.74621788910E+02  0.74621788910E+02  0.00000000000E+00 0. -1.
          2   -1    0    0  502    0  0.00000000000E+00 -0.00000000000E+00 -0.76430883162E+03  0.76430883162E+03  0.00000000000E+00 0.  1.
          6    1    1    2  502    0  0.17247054875E+02  0.38976266180E+02 -0.62415588782E+03  0.64908873240E+03  0.17300000000E+03 0.  1.
         -6    1    1    2    0  501 -0.17247054875E+02 -0.38976266180E+02 -0.65531154887E+02  0.18984188813E+03  0.17300000000E+03 0. -1.
</event>
<event>
 4    1  0.5880538E-001  0.1000000E+03  0.7546771E-02  0.1280296E+00
          2   -1    0    0  502    0  0.00000000000E+00  0.00000000000E+00  0.19938781855E+03  0.19938781855E+03  0.00000000000E+00 0.  1.
         -2   -1    0    0    0  501 -0.00000000000E+00 -0.00000000000E+00 -0.29529556908E+03  0.29529556908E+03  0.00000000000E+00 0. -1.
          6    1    1    2  502    0 -0.96005469432E+02 -0.72529442545E+01  0.95043680609E+02  0.21961775107E+03  0.17300000000E+03 0. -1.
         -6    1    1    2    0  501  0.96005469432E+02  0.72529442545E+01 -0.19095143113E+03  0.27506563656E+03  0.17300000000E+03 0.  1.
</event>
<event>
 4    1  0.5880538E-001  0.1000000E+03  0.7546771E-02  0.1280296E+00
          1   -1    0    0  502    0  0.00000000000E+00  0.00000000000E+00  0.44533181572E+03  0.44533181572E+03  0.00000000000E+00 0.  1.
         -1   -1    0    0    0  501 -0.00000000000E+00 -0.00000000000E+00 -0.17330425311E+03  0.17330425311E+03  0.00000000000E+00 0. -1.
          6    1    1    2  502    0 -0.13443447431E+03  0.13571226894E+03  0.25150091966E+03  0.36010020885E+03  0.17300000000E+03 0. -1.
         -6    1    1    2    0  501  0.13443447431E+03 -0.13571226894E+03  0.20526642951E+02  0.25853585998E+03  0.17300000000E+03 0.  1.
</event>
<event>
 4    1  0.5880538E-001  0.1000000E+03  0.7546771E-02  0.1280296E+00
          1   -1    0    0  502    0  0.00000000000E+00  0.00000000000E+00  0.70033901109E+03  0.70033901109E+03  0.00000000000E+00 0.  1.
         -1   -1    0    0    0  501 -0.00000000000E+00 -0.00000000000E+00 -0.17931424428E+03  0.17931424428E+03  0.00000000000E+00 0. -1.
          6    1    1    2  502    0 -0.25157758846E+03  0.14968060634E+03  0.13667076174E+03  0.36647437024E+03  0.17300000000E+03 0.  1.
         -6    1    1    2    0  501  0.25157758846E+03 -0.14968060634E+03  0.38435400507E+03  0.51317888513E+03  0.17300000000E+03 0.  1.
</event>
<event>
 4    1  0.5880538E-001  0.1000000E+03  0.7546771E-02  0.1280296E+00
          2   -1    0    0  502    0  0.00000000000E+00  0.00000000000E+00  0.19956956832E+02  0.19956956832E+02  0.00000000000E+00 0.  1.
         -2   -1    0    0    0  501 -0.00000000000E+00 -0.00000000000E+00 -0.16300656998E+04  0.16300656998E+04  0.00000000000E+00 0. -1.
          6    1    1    2  502    0  0.27376961453E+02  0.16318100373E+02 -0.98723943531E+03  0.10027893503E+04  0.17300000000E+03 0.  1.
         -6    1    1    2    0  501 -0.27376961453E+02 -0.16318100373E+02 -0.62286930763E+03  0.64723330632E+03  0.17300000000E+03 0.  1.
</event>
<event>
 4    1  0.5880538E-001  0.1000000E+03  0.7546771E-02  0.1280296E+00
          2   -1    0    0  502    0  0.00000000000E+00  0.00000000000E+00  0.42540208241E+03  0.42540208241E+03  0.00000000000E+00 0. -1.
         -2   -1    0    0    0  501 -0.00000000000E+00 -0.00000000000E+00 -0.96322242831E+02  0.96322242831E+02  0.00000000000E+00 0.  1.
          6    1    1    2  502    0 -0.99718500861E+02  0.14224547770E+02  0.12586711718E+03  0.23646912771E+03  0.17300000000E+03 0. -1.
         -6    1    1    2    0  501  0.99718500861E+02 -0.14224547770E+02  0.20321272239E+03  0.28525519753E+03  0.17300000000E+03 0.  1.
</event>
<event>
 4    1  0.5880538E-001  0.1000000E+03  0.7546771E-02  0.1280296E+00
         -2   -1    0    0    0  501 -0.00000000000E+00  0.00000000000E+00  0.70107780904E+02  0.70107780904E+02  0.00000000000E+00 0. -1.
          2   -1    0    0  502    0  0.00000000000E+00 -0.00000000000E+00 -0.69276298947E+03  0.69276298947E+03  0.00000000000E+00 0.  1.
          6    1    1    2  502    0 -0.37309132223E+02 -0.12785544390E+03 -0.25940117023E+03  0.33905302387E+03  0.17300000000E+03 0.  1.
         -6    1    1    2    0  501  0.37309132223E+02  0.12785544390E+03 -0.36325403833E+03  0.42381774649E+03  0.17300000000E+03 0. -1.
</event>
<event>
 4    1  0.5880538E-001  0.1000000E+03  0.7546771E-02  0.1280296E+00
         -2   -1    0    0    0  501 -0.00000000000E+00  0.00000000000E+00  0.36306668018E+02  0.36306668018E+02  0.00000000000E+00 0. -1.
          2   -1    0    0  502    0  0.00000000000E+00 -0.00000000000E+00 -0.17555579382E+04  0.17555579382E+04  0.00000000000E+00 0.  1.
          6    1    1    2  502    0  0.11799812486E+03 -0.65011959516E+02 -0.13037056588E+04  0.13220164738E+04  0.17300000000E+03 0.  1.
         -6    1    1    2    0  501 -0.11799812486E+03  0.65011959516E+02 -0.41554561141E+03  0.46984813239E+03  0.17300000000E+03 0. -1.
</event>
<event>
 4    1  0.5880538E-001  0.1000000E+03  0.7546771E-02  0.1280296E+00
         -2   -1    0    0    0  501 -0.00000000000E+00  0.00000000000E+00  0.17150684859E+03  0.17150684859E+03  0.00000000000E+00 0. -1.
          2   -1    0    0  502    0  0.00000000000E+00 -0.00000000000E+00 -0.62365281669E+03  0.62365281669E+03  0.00000000000E+00 0.  1.
          6    1    1    2  502    0 -0.83359544275E+02 -0.89865031550E+01 -0.54771137761E+03  0.58047077792E+03  0.17300000000E+03 0.  1.
         -6    1    1    2    0  501  0.83359544275E+02  0.89865031550E+01  0.95565409508E+02  0.21468888736E+03  0.17300000000E+03 0. -1.
</event>
<event>
 4    1  0.5880538E-001  0.1000000E+03  0.7546771E-02  0.1280296E+00
         -1   -1    0    0    0  501 -0.00000000000E+00  0.00000000000E+00  0.39901733954E+02  0.39901733954E+02  0.00000000000E+00 0. -1.
          1   -1    0    0  502    0  0.00000000000E+00 -0.00000000000E+00 -0.89053692699E+03  0.89053692699E+03  0.00000000000E+00 0.  1.
          6    1    1    2  502    0  0.18298846354E+02 -0.15570502131E+02 -0.60031019568E+03  0.62520286256E+03  0.17300000000E+03 0.  1.
         -6    1    1    2    0  501 -0.18298846354E+02  0.15570502131E+02 -0.25032499736E+03  0.30523579838E+03  0.17300000000E+03 0. -1.
</event>
<event>
 4    1  0.5880538E-001  0.1000000E+03  0.7546771E-02  0.1280296E+00
         -2   -1    0    0    0  501 -0.00000000000E+00  0.00000000000E+00  0.56335135867E+03  0.56335135867E+03  0.00000000000E+00 0. -1.
          2   -1    0    0  502    0  0.00000000000E+00 -0.00000000000E+00 -0.86950121986E+02  0.86950121986E+02  0.00000000000E+00 0.  1.
          6    1    1    2  502    0 -0.27108647070E+02 -0.12379237813E+03  0.31860155811E+03  0.38405127842E+03  0.17300000000E+03 0. -1.
         -6    1    1    2    0  501  0.27108647070E+02  0.12379237813E+03  0.15779967857E+03  0.26625020223E+03  0.17300000000E+03 0.  1.
</event>
<event>
 4    1  0.5880538E-001  0.1000000E+03  0.7546771E-02  0.1280296E+00
          1   -1    0    0  502    0  0.00000000000E+00  0.00000000000E+00  0.26916363234E+04  0.26916363234E+04  0.00000000000E+00 0. -1.
         -1   -1    0    0    0  501 -0.00000000000E+00 -0.00000000000E+00 -0.13927399044E+02  0.13927399044E+02  0.00000000000E+00 0.  1.
          6    1    1    2  502    0  0.70122360086E+02  0.40853120799E+02  0.15567259568E+04  0.15684102867E+04  0.17300000000E+03 0. -1.
         -6    1    1    2    0  501 -0.70122360086E+02 -0.40853120799E+02  0.11209829675E+04  0.11371534357E+04  0.17300000000E+03 0.  1.
</event>
<event>
 4    1  0.5880538E-001  0.1000000E+03  0.7546771E-02  0.1280296E+00
          2   -1    0    0  502    0  0.00000000000E+00  0.00000000000E+00  0.26401858739E+04  0.26401858739E+04  0.00000000000E+00 0. -1.
         -2   -1    0    0    0  501 -0.00000000000E+00 -0.00000000000E+00 -0.19815908935E+02  0.19815908935E+02  0.00000000000E+00 0.  1.
          6    1    1    2  502    0  0.84579247466E+02  0.61243793194E+02  0.19333149699E+04  0.19438467594E+04  0.17300000000E+03 0. -1.
         -6    1    1    2    0  501 -0.84579247466E+02 -0.61243793194E+02  0.68705499509E+03  0.71615502343E+03  0.17300000000E+03 0.  1.
</event>
<event>
 4    1  0.5880538E-001  0.1000000E+03  0.7546771E-02  0.1280296E+00
         -1   -1    0    0    0  501 -0.00000000000E+00  0.00000000000E+00  0.23357069082E+02  0.23357069082E+02  0.00000000000E+00 0. -1.
          1   -1    0    0  502    0  0.00000000000E+00 -0.00000000000E+00 -0.17840546235E+04  0.17840546235E+04  0.00000000000E+00 0.  1.
          6    1    1    2  502    0  0.72158823724E+01  0.90048421238E+02 -0.11452510486E+04  0.11617614865E+04  0.17300000000E+03 0.  1.
         -6    1    1    2    0  501 -0.72158823724E+01 -0.90048421238E+02 -0.61544650575E+03  0.64565020605E+03  0.17300000000E+03 0. -1.
</event>
<event>
 4    1  0.5880538E-001  0.1000000E+03  0.7546771E-02  0.1280296E+00
         -2   -1    0    0    0  501 -0.00000000000E+00  0.00000000000E+00  0.58299662359E+02  0.58299662359E+02  0.00000000000E+00 0. -1.
          2   -1    0    0  502    0  0.00000000000E+00 -0.00000000000E+00 -0.96074220527E+03  0.96074220527E+03  0.00000000000E+00 0.  1.
          6    1    1    2  502    0  0.59847772903E+02  0.14507572007E+03 -0.53329272269E+03  0.58220172496E+03  0.17300000000E+03 0. -1.
         -6    1    1    2    0  501 -0.59847772903E+02 -0.14507572007E+03 -0.36914982022E+03  0.43684014267E+03  0.17300000000E+03 0.  1.
</event>
<event>
 4    1  0.5880538E-001  0.1000000E+03  0.7546771E-02  0.1280296E+00
         -2   -1    0    0    0  501 -0.00000000000E+00  0.00000000000E+00  0.48919752700E+02  0.48919752700E+02  0.00000000000E+00 0. -1.
          2   -1    0    0  502    0  0.00000000000E+00 -0.00000000000E+00 -0.15934409384E+04  0.15934409384E+04  0.00000000000E+00 0.  1.
          6    1    1    2  502    0  0.81352206003E+02  0.14779494059E+02 -0.13691565146E+04  0.13825176948E+04  0.17300000000E+03 0. -1.
         -6    1    1    2    0  501 -0.81352206003E+02 -0.14779494059E+02 -0.17536467105E+03  0.25984299628E+03  0.17300000000E+03 0.  1.
</event>
<event>
 4    1  0.5880538E-001  0.1000000E+03  0.7546771E-02  0.1280296E+00
         -2   -1    0    0    0  501 -0.00000000000E+00  0.00000000000E+00  0.37387510970E+03  0.37387510970E+03  0.00000000000E+00 0. -1.
          2   -1    0    0  502    0  0.00000000000E+00 -0.00000000000E+00 -0.13264092844E+03  0.13264092844E+03  0.00000000000E+00 0.  1.
          6    1    1    2  502    0 -0.28002168214E+02 -0.96402419384E+02  0.23195626793E+03  0.30628460314E+03  0.17300000000E+03 0. -1.
         -6    1    1    2    0  501  0.28002168214E+02  0.96402419384E+02  0.92779133335E+01  0.20023143500E+03  0.17300000000E+03 0.  1.
</event>
<event>
 4    1  0.5880538E-001  0.1000000E+03  0.7546771E-02  0.1280296E+00
          2   -1    0    0  502    0  0.00000000000E+00  0.00000000000E+00  0.83929550436E+03  0.83929550436E+03  0.00000000000E+00 0.  1.
         -2   -1    0    0    0  501 -0.00000000000E+00 -0.00000000000E+00 -0.52270926986E+02  0.52270926986E+02  0.00000000000E+00 0. -1.
          6    1    1    2  502    0  0.44365872272E+01  0.11600593622E+03  0.43939187095E+03  0.48628312412E+03  0.17300000000E+03 0.  1.
         -6    1    1    2    0  501 -0.44365872272E+01 -0.11600593622E+03  0.34763270643E+03  0.40528330723E+03  0.17300000000E+03 0. -1.
</event>
<event>
 4    1  0.5880538E-001  0.1000000E+03  0.7546771E-02  0.1280296E+00
          2   -1    0    0  502    0  0.00000000000E+00  0.00000000000E+00  0.28869609243E+03  0.28869609243E+03  0.00000000000E+00 0.  1.
         -2   -1    0    0    0  501 -0.00000000000E+00 -0.00000000000E+00 -0.13727323413E+03  0.13727323413E+03  0.00000000000E+00 0. -1.
          6    1    1    2  502    0  0.48694164009E+02  0.44322324292E+01 -0.15764723913E+02  0.18046687456E+03  0.17300000000E+03 0.  1.
         -6    1    1    2    0  501 -0.48694164009E+02 -0.44322324292E+01  0.16718758221E+03  0.24550245200E+03  0.17300000000E+03 0. -1.
</event>
<event>
 4    1  0.5880538E-001  0.1000000E+03  0.7546771E-02  0.1280296E+00
         -1   -1    0    0    0  501 -0.00000000000E+00  0.00000000000E+00  0.26810081840E+02  0.26810081840E+02  0.00000000000E+00 0. -1.
          1   -1    0    0  502    0  0.00000000000E+00 -0.00000000000E+00 -0.11576373850E+04  0.11576373850E+04  0.00000000000E+00 0.  1.
          6    1    1    2  502    0 -0.21532736946E+02  0.24844461440E+02 -0.58270141254E+03  0.60872887413E+03  0.17300000000E+03 0. -1.
         -6    1    1    2    0  501  0.21532736946E+02 -0.24844461440E+02 -0.54812589067E+03  0.57571859275E+03  0.17300000000E+03 0.  1.
</event>
<event>
 4    1  0.5880538E-001  0.1000000E+03  0.7546771E-02  0.1280296E+00
         -1   -1    0    0    0  501 -0.00000000000E+00  0.00000000000E+00  0.36559623603E+03  0.36559623603E+03  0.00000000000E+00 0. -1.
          1   -1    0    0  502    0  0.00000000000E+00 -0.00000000000E+00 -0.30185306248E+03  0.30185306248E+03  0.00000000000E+00 0.  1.
          6    1    1    2  502    0  0.13267786659E+03  0.39643570384E+02  0.28050007320E+03  0.35746932739E+03  0.17300000000E+03 0. -1.
         -6    1    1    2    0  501 -0.13267786659E+03 -0.39643570384E+02 -0.21675689966E+03  0.30997997113E+03  0.17300000000E+03 0.  1.
</event>
<event>
 4    1  0.5880538E-001  0.1000000E+03  0.7546771E-02  0.1280296E+00
         -1   -1    0    0    0  501 -0.00000000000E+00  0.00000000000E+00  0.48792960324E+02  0.48792960324E+02  0.00000000000E+00 0.  1.
          1   -1    0    0  502    0  0.00000000000E+00 -0.00000000000E+00 -0.99469476323E+03  0.99469476323E+03  0.00000000000E+00 0. -1.
          6    1    1    2  502    0 -0.13395923578E+03 -0.25690283109E+02 -0.47339154323E+03  0.52214329518E+03  0.17300000000E+03 0. -1.
         -6    1    1    2    0  501  0.13395923578E+03  0.25690283109E+02 -0.47251025968E+03  0.52134442838E+03  0.17300000000E+03 0.  1.
</event>
<event>
 4    1  0.5880538E-001  0.1000000E+03  0.7546771E-02  0.1280296E+00
          1   -1    0    0  502    0  0.00000000000E+00  0.00000000000E+00  0.85712574737E+02  0.85712574737E+02  0.00000000000E+00 0. -1.
         -1   -1    0    0    0  501 -0.00000000000E+00 -0.00000000000E+00 -0.50661180330E+03  0.50661180330E+03  0.00000000000E+00 0.  1.
          6    1    1    2  502    0  0.11365022017E+03 -0.15990865505E+02 -0.23594988755E+03  0.31428240447E+03  0.17300000000E+03 0.  1.
         -6    1    1    2    0  501 -0.11365022017E+03  0.15990865505E+02 -0.18494934101E+03  0.27804197357E+03  0.17300000000E+03 0. -1.
</event>
<event>
 4    1  0.5880538E-001  0.1000000E+03  0.7546771E-02  0.1280296E+00
          1   -1    0    0  502    0  0.00000000000E+00  0.00000000000E+00  0.15770374377E+03  0.15770374377E+03  0.00000000000E+00 0. -1.
         -1   -1    0    0    0  501 -0.00000000000E+00 -0.00000000000E+00 -0.24307450028E+03  0.24307450028E+03  0.00000000000E+00 0.  1.
          6    1    1    2  502    0 -0.79731255142E+02  0.33114387862E+02 -0.11120670142E+02  0.19366544615E+03  0.17300000000E+03 0.  1.
         -6    1    1    2    0  501  0.79731255142E+02 -0.33114387862E+02 -0.74250086368E+02  0.20711279790E+03  0.17300000000E+03 0. -1.
</event>
<event>
 4    1  0.5880538E-001  0.1000000E+03  0.7546771E-02  0.1280296E+00
         -1   -1    0    0    0  501 -0.00000000000E+00  0.00000000000E+00  0.39855753624E+02  0.39855753624E+02  0.00000000000E+00 0.  1.
          1   -1    0    0  502    0  0.00000000000E+00 -0.00000000000E+00 -0.10376688007E+04  0.10376688007E+04  0.00000000000E+00 0. -1.
          6    1    1    2  502    0  0.38771861343E+02 -0.70118226431E+02 -0.68639097257E+03  0.71237728075E+03  0.17300000000E+03 0. -1.
         -6    1    1    2    0  501 -0.38771861343E+02  0.70118226431E+02 -0.31142207455E+03  0.36514727361E+03  0.17300000000E+03 0.  1.
</event>
<event>
 4    1  0.5880538E-001  0.1000000E+03  0.7546771E-02  0.1280296E+00
          1   -1    0    0  502    0  0.00000000000E+00  0.00000000000E+00  0.17502417797E+04  0.17502417797E+04  0.00000000000E+00 0.  1.
         -1   -1    0    0    0  501 -0.00000000000E+00 -0.00000000000E+00 -0.23254461752E+02  0.23254461752E+02  0.00000000000E+00 0. -1.
          6    1    1    2  502    0  0.19894687156E+02  0.71219351783E+02  0.54338513409E+03  0.57503425863E+03  0.17300000000E+03 0.  1.
         -6    1    1    2    0  501 -0.19894687156E+02 -0.71219351783E+02  0.11836021839E+04  0.11984619829E+04  0.17300000000E+03 0. -1.
</event>
<event>
 4    1  0.5880538E-001  0.1000000E+03  0.7546771E-02  0.1280296E+00
          1   -1    0    0  502    0  0.00000000000E+00  0.00000000000E+00  0.11162766929E+04  0.11162766929E+04  0.00000000000E+00 0.  1.
         -1   -1    0    0    0  501 -0.00000000000E+00 -0.00000000000E+00 -0.37035462121E+02  0.37035462121E+02  0.00000000000E+00 0. -1.
          6    1    1    2  502    0  0.49100653482E+02  0.59793454425E+02  0.33069598619E+03  0.38114953319E+03  0.17300000000E+03 0.  1.
         -6    1    1    2    0  501 -0.49100653482E+02 -0.59793454425E+02  0.74854524457E+03  0.77216262182E+03  0.17300000000E+03 0. -1.
</event>
<event>
 4    1  0.5880538E-001  0.1000000E+03  0.7546771E-02  0.1280296E+00
          1   -1    0    0  502    0  0.00000000000E+00  0.00000000000E+00  0.91189846344E+02  0.91189846344E+02  0.00000000000E+00 0.  1.
         -1   -1    0    0    0  501 -0.00000000000E+00 -0.00000000000E+00 -0.35892551177E+03  0.35892551177E+03  0.00000000000E+00 0. -1.
          6    1    1    2  502    0 -0.13157882331E+02  0.51235533189E+02 -0.13607659322E+03  0.22637148440E+03  0.17300000000E+03 0.  1.
         -6    1    1    2    0  501  0.13157882331E+02 -0.51235533189E+02 -0.13165907221E+03  0.22374387371E+03  0.17300000000E+03 0. -1.
</event>
<event>
 4    1  0.5880538E-001  0.1000000E+03  0.7546771E-02  0.1280296E+00
          1   -1    0    0  502    0  0.00000000000E+00  0.00000000000E+00  0.17496724254E+03  0.17496724254E+03  0.00000000000E+00 0.  1.
         -1   -1    0    0    0  501 -0.00000000000E+00 -0.00000000000E+00 -0.36559490255E+03  0.36559490255E+03  0.00000000000E+00 0. -1.
          6    1    1    2  502    0  0.10050015514E+03 -0.13243487217E+02 -0.26004770001E+03  0.32837399017E+03  0.17300000000E+03 0.  1.
         -6    1    1    2    0  501 -0.10050015514E+03  0.13243487217E+02  0.69420040004E+02  0.21218815493E+03  0.17300000000E+03 0. -1.
</event>
<event>
 4    1  0.5880538E-001  0.1000000E+03  0.7546771E-02  0.1280296E+00
          2   -1    0    0  502    0  0.00000000000E+00  0.00000000000E+00  0.44448464626E+03  0.44448464626E+03  0.00000000000E+00 0.  1.
         -2   -1    0    0    0  501 -0.00000000000E+00 -0.00000000000E+00 -0.75314678940E+02  0.75314678940E+02  0.00000000000E+00 0. -1.
          6    1    1    2  502    0 -0.35070718510E+02 -0.42414069875E+02  0.15224556324E+03  0.23693167822E+03  0.17300000000E+03 0. -1.
         -6    1    1    2    0  501  0.35070718510E+02  0.42414069875E+02  0.21692440408E+03  0.28286764698E+03  0.17300000000E+03 0. -1.
</event>
<event>
 4    1  0.5880538E-001  0.1000000E+03  0.7546771E-02  0.1280296E+00
          1   -1    0    0  502    0  0.00000000000E+00  0.00000000000E+00  0.31711889673E+02  0.31711889673E+02  0.00000000000E+00 0.  1.
         -1   -1    0    0    0  501 -0.00000000000E+00 -0.00000000000E+00 -0.12099676613E+04  0.12099676613E+04  0.00000000000E+00 0. -1.
          6    1    1    2  502    0  0.72624116063E+02  0.27255843616E+02 -0.74517919020E+03  0.76892013158E+03  0.17300000000E+03 0. -1.
         -6    1    1    2    0  501 -0.72624116063E+02 -0.27255843616E+02 -0.43307658146E+03  0.47275941943E+03  0.17300000000E+03 0. -1.
</event>
<event>
 4    1  0.5880538E-001  0.1000000E+03  0.7546771E-02  0.1280296E+00
          1   -1    0    0  502    0  0.00000000000E+00  0.00000000000E+00  0.72644060901E+03  0.72644060901E+03  0.00000000000E+00 0.  1.
         -1   -1    0    0    0  501 -0.00000000000E+00 -0.00000000000E+00 -0.81841370160E+02  0.81841370160E+02  0.00000000000E+00 0. -1.
          6    1    1    2  502    0 -0.15342045161E+03  0.71462064385E+00  0.45053220457E+03  0.50640558154E+03  0.17300000000E+03 0. -1.
         -6    1    1    2    0  501  0.15342045161E+03 -0.71462064385E+00  0.19406703427E+03  0.30187639763E+03  0.17300000000E+03 0. -1.
</event>
<event>
 4    1  0.5880538E-001  0.1000000E+03  0.7546771E-02  0.1280296E+00
         -2   -1    0    0    0  501 -0.00000000000E+00  0.00000000000E+00  0.25673432643E+02  0.25673432643E+02  0.00000000000E+00 0. -1.
          2   -1    0    0  502    0  0.00000000000E+00 -0.00000000000E+00 -0.26494009186E+04  0.26494009186E+04  0.00000000000E+00 0.  1.
          6    1    1    2  502    0 -0.81454214108E+02 -0.17109136699E+03 -0.15514897467E+04  0.15725636645E+04  0.17300000000E+03 0. -1.
         -6    1    1    2    0  501  0.81454214108E+02  0.17109136699E+03 -0.10722377393E+04  0.11025106868E+04  0.17300000000E+03 0.  1.
</event>
<event>
 4    1  0.5880538E-001  0.1000000E+03  0.7546771E-02  0.1280296E+00
         -1   -1    0    0    0  501 -0.00000000000E+00  0.00000000000E+00  0.15858861734E+03  0.15858861734E+03  0.00000000000E+00 0. -1.
          1   -1    0    0  502    0  0.00000000000E+00 -0.00000000000E+00 -0.35734302416E+03  0.35734302416E+03  0.00000000000E+00 0.  1.
          6    1    1    2  502    0 -0.12457117105E+03 -0.70642922928E+02 -0.18493051799E+03  0.29092386581E+03  0.17300000000E+03 0. -1.
         -6    1    1    2    0  501  0.12457117105E+03  0.70642922928E+02 -0.13823888834E+02  0.22500777568E+03  0.17300000000E+03 0.  1.
</event>
<event>
 4    1  0.5880538E-001  0.1000000E+03  0.7546771E-02  0.1280296E+00
         -1   -1    0    0    0  501 -0.00000000000E+00  0.00000000000E+00  0.33125001045E+02  0.33125001045E+02  0.00000000000E+00 0. -1.
          1   -1    0    0  502    0  0.00000000000E+00 -0.00000000000E+00 -0.20930780344E+04  0.20930780344E+04  0.00000000000E+00 0.  1.
          6    1    1    2  502    0  0.14241995599E+03 -0.38192436625E+02 -0.49340783382E+03  0.54325168803E+03  0.17300000000E+03 0. -1.
         -6    1    1    2    0  501 -0.14241995599E+03  0.38192436625E+02 -0.15665451996E+04  0.15829513474E+04  0.17300000000E+03 0.  1.
</event>
<event>
 4    1  0.5880538E-001  0.1000000E+03  0.7546771E-02  0.1280296E+00
         -2   -1    0    0    0  501 -0.00000000000E+00  0.00000000000E+00  0.84137330129E+02  0.84137330129E+02  0.00000000000E+00 0.  1.
          2   -1    0    0  502    0  0.00000000000E+00 -0.00000000000E+00 -0.52106714111E+03  0.52106714111E+03  0.00000000000E+00 0. -1.
          6    1    1    2  502    0 -0.64285296331E+02 -0.62060730859E+02 -0.10719252402E+03  0.22226869065E+03  0.17300000000E+03 0.  1.
         -6    1    1    2    0  501  0.64285296331E+02  0.62060730859E+02 -0.32973728696E+03  0.38293578058E+03  0.17300000000E+03 0. -1.
</event>
<event>
 4    1  0.5880538E-001  0.1000000E+03  0.7546771E-02  0.1280296E+00
         -2   -1    0    0    0  501 -0.00000000000E+00  0.00000000000E+00  0.53475094806E+03  0.53475094806E+03  0.00000000000E+00 0.  1.
          2   -1    0    0  502    0  0.00000000000E+00 -0.00000000000E+00 -0.99006904318E+03  0.99006904318E+03  0.00000000000E+00 0. -1.
          6    1    1    2  502    0  0.11361562595E+02 -0.41429927445E+03  0.37219240409E+03  0.58329165910E+03  0.17300000000E+03 0.  1.
         -6    1    1    2    0  501 -0.11361562595E+02  0.41429927445E+03 -0.82751049921E+03  0.94152833214E+03  0.17300000000E+03 0. -1.
</event>
<event>
 4    1  0.5880538E-001  0.1000000E+03  0.7546771E-02  0.1280296E+00
         -1   -1    0    0    0  501 -0.00000000000E+00  0.00000000000E+00  0.19221575031E+03  0.19221575031E+03  0.00000000000E+00 0.  1.
          1   -1    0    0  502    0  0.00000000000E+00 -0.00000000000E+00 -0.22677813170E+03  0.22677813170E+03  0.00000000000E+00 0. -1.
          6    1    1    2  502    0  0.67971283592E+02  0.10774125835E+02 -0.11207727829E+03  0.21731657435E+03  0.17300000000E+03 0.  1.
         -6    1    1    2    0  501 -0.67971283592E+02 -0.10774125835E+02  0.77514896896E+02  0.20167730765E+03  0.17300000000E+03 0. -1.
</event>
<event>
 4    1  0.5880538E-001  0.1000000E+03  0.7546771E-02  0.1280296E+00
          1   -1    0    0  502    0  0.00000000000E+00  0.00000000000E+00  0.69861235592E+03  0.69861235592E+03  0.00000000000E+00 0. -1.
         -1   -1    0    0    0  501 -0.00000000000E+00 -0.00000000000E+00 -0.88563400007E+02  0.88563400007E+02  0.00000000000E+00 0.  1.
          6    1    1    2  502    0 -0.61423240669E+02  0.16521242926E+03  0.35181763755E+03  0.42985184816E+03  0.17300000000E+03 0.  1.
         -6    1    1    2    0  501  0.61423240669E+02 -0.16521242926E+03  0.25823131836E+03  0.35732390776E+03  0.17300000000E+03 0.  1.
</event>
<event>
 4    1  0.5880538E-001  0.1000000E+03  0.7546771E-02  0.1280296E+00
          1   -1    0    0  502    0  0.00000000000E+00  0.00000000000E+00  0.22233978061E+03  0.22233978061E+03  0.00000000000E+00 0. -1.
         -1   -1    0    0    0  501 -0.00000000000E+00 -0.00000000000E+00 -0.19963565975E+03  0.19963565975E+03  0.00000000000E+00 0.  1.
          6    1    1    2  502    0  0.13252825129E+02  0.11782899883E+03 -0.86428345167E+01  0.20991190754E+03  0.17300000000E+03 0.  1.
         -6    1    1    2    0  501 -0.13252825129E+02 -0.11782899883E+03  0.31346955379E+02  0.21206353282E+03  0.17300000000E+03 0.  1.
</event>
<event>
 4    1  0.5880538E-001  0.1000000E+03  0.7546771E-02  0.1280296E+00
          2   -1    0    0  502    0  0.00000000000E+00  0.00000000000E+00  0.56771583790E+03  0.56771583790E+03  0.00000000000E+00 0. -1.
         -2   -1    0    0    0  501 -0.00000000000E+00 -0.00000000000E+00 -0.10140326992E+03  0.10140326992E+03  0.00000000000E+00 0.  1.
          6    1    1    2  502    0  0.26420983600E+02  0.16406296509E+03  0.24006058447E+03  0.33937119663E+03  0.17300000000E+03 0.  1.
         -6    1    1    2    0  501 -0.26420983600E+02 -0.16406296509E+03  0.22625198350E+03  0.32974791118E+03  0.17300000000E+03 0.  1.
</event>
<event>
 4    1  0.5880538E-001  0.1000000E+03  0.7546771E-02  0.1280296E+00
          1   -1    0    0  502    0  0.00000000000E+00  0.00000000000E+00  0.28360059024E+03  0.28360059024E+03  0.00000000000E+00 0. -1.
         -1   -1    0    0    0  501 -0.00000000000E+00 -0.00000000000E+00 -0.11459857195E+03  0.11459857195E+03  0.00000000000E+00 0.  1.
          6    1    1    2  502    0  0.44016057158E+02 -0.23046093503E+02  0.95692418151E+02  0.20384939197E+03  0.17300000000E+03 0.  1.
         -6    1    1    2    0  501 -0.44016057158E+02  0.23046093503E+02  0.73309600145E+02  0.19434977023E+03  0.17300000000E+03 0.  1.
</event>
<event>
 4    1  0.5880538E-001  0.1000000E+03  0.7546771E-02  0.1280296E+00
         -4   -1    0    0    0  501 -0.00000000000E+00  0.00000000000E+00  0.10807284162E+03  0.10807284162E+03  0.00000000000E+00 0.  1.
          4   -1    0    0  502    0  0.00000000000E+00 -0.00000000000E+00 -0.33156952230E+03  0.33156952230E+03  0.00000000000E+00 0. -1.
          6    1    1    2  502    0 -0.71832512468E+02 -0.27096752947E+02 -0.10798250216E+03  0.21790677970E+03  0.17300000000E+03 0. -1.
         -6    1    1    2    0  501  0.71832512468E+02  0.27096752947E+02 -0.11551417852E+03  0.22173558422E+03  0.17300000000E+03 0.  1.
</event>
<event>
 4    1  0.5880538E-001  0.1000000E+03  0.7546771E-02  0.1280296E+00
          2   -1    0    0  502    0  0.00000000000E+00  0.00000000000E+00  0.55745064965E+03  0.55745064965E+03  0.00000000000E+00 0.  1.
         -2   -1    0    0    0  501 -0.00000000000E+00 -0.00000000000E+00 -0.81194352105E+02  0.81194352105E+02  0.00000000000E+00 0. -1.
          6    1    1    2  502    0 -0.82277837194E+02  0.49506204925E+02  0.12078248062E+03  0.23181439654E+03  0.17300000000E+03 0.  1.
         -6    1    1    2    0  501  0.82277837194E+02 -0.49506204925E+02  0.35547381693E+03  0.40683060522E+03  0.17300000000E+03 0.  1.
</event>
<event>
 4    1  0.5880538E-001  0.1000000E+03  0.7546771E-02  0.1280296E+00
         -2   -1    0    0    0  501 -0.00000000000E+00  0.00000000000E+00  0.23640757674E+02  0.23640757674E+02  0.00000000000E+00 0.  1.
          2   -1    0    0  502    0  0.00000000000E+00 -0.00000000000E+00 -0.17311981232E+04  0.17311981232E+04  0.00000000000E+00 0. -1.
          6    1    1    2  502    0  0.22601094632E+02  0.95449099570E+02 -0.10146914582E+04  0.10339966612E+04  0.17300000000E+03 0.  1.
         -6    1    1    2    0  501 -0.22601094632E+02 -0.95449099570E+02 -0.69286590733E+03  0.72084221965E+03  0.17300000000E+03 0.  1.
</event>
<event>
 4    1  0.5880538E-001  0.1000000E+03  0.7546771E-02  0.1280296E+00
          2   -1    0    0  502    0  0.00000000000E+00  0.00000000000E+00  0.40668884935E+03  0.40668884935E+03  0.00000000000E+00 0.  1.
         -2   -1    0    0    0  501 -0.00000000000E+00 -0.00000000000E+00 -0.82855698399E+02  0.82855698399E+02  0.00000000000E+00 0. -1.
          6    1    1    2  502    0  0.24174747086E+02  0.94216338715E+01  0.23609051097E+03  0.29383824624E+03  0.17300000000E+03 0.  1.
         -6    1    1    2    0  501 -0.24174747086E+02 -0.94216338715E+01  0.87742639984E+02  0.19570630152E+03  0.17300000000E+03 0. -1.
</event>
<event>
 4    1  0.5880538E-001  0.1000000E+03  0.7546771E-02  0.1280296E+00
         -2   -1    0    0    0  501 -0.00000000000E+00  0.00000000000E+00  0.77956915357E+02  0.77956915357E+02  0.00000000000E+00 0.  1.
          2   -1    0    0  502    0  0.00000000000E+00 -0.00000000000E+00 -0.58491245595E+03  0.58491245595E+03  0.00000000000E+00 0. -1.
          6    1    1    2  502    0  0.95198536241E+02 -0.16015124729E+02 -0.12979686167E+03  0.23684482435E+03  0.17300000000E+03 0. -1.
         -6    1    1    2    0  501 -0.95198536241E+02  0.16015124729E+02 -0.37715867892E+03  0.42602454695E+03  0.17300000000E+03 0.  1.
</event>
<event>
 4    1  0.5880538E-001  0.1000000E+03  0.7546771E-02  0.1280296E+00
         -1   -1    0    0    0  501 -0.00000000000E+00  0.00000000000E+00  0.31215583175E+02  0.31215583175E+02  0.00000000000E+00 0.  1.
          1   -1    0    0  502    0  0.00000000000E+00 -0.00000000000E+00 -0.13586942055E+04  0.13586942055E+04  0.00000000000E+00 0. -1.
          6    1    1    2  502    0 -0.34040527673E+02 -0.10232003553E+03 -0.56505107140E+03  0.60069947602E+03  0.17300000000E+03 0. -1.
         -6    1    1    2    0  501  0.34040527673E+02  0.10232003553E+03 -0.76242755091E+03  0.78921031264E+03  0.17300000000E+03 0.  1.
</event>
<event>
 4    1  0.5880538E-001  0.1000000E+03  0.7546771E-02  0.1280296E+00
         -1   -1    0    0    0  501 -0.00000000000E+00  0.00000000000E+00  0.91654694596E+02  0.91654694596E+02  0.00000000000E+00 0.  1.
          1   -1    0    0  502    0  0.00000000000E+00 -0.00000000000E+00 -0.33714000430E+03  0.33714000430E+03  0.00000000000E+00 0. -1.
          6    1    1    2  502    0  0.20234149065E+02  0.16569785861E+02 -0.14342238714E+03  0.22623651280E+03  0.17300000000E+03 0. -1.
         -6    1    1    2    0  501 -0.20234149065E+02 -0.16569785861E+02 -0.10206292256E+03  0.20255818609E+03  0.17300000000E+03 0.  1.
</event>
<event>
 4    1  0.5880538E-001  0.1000000E+03  0.7546771E-02  0.1280296E+00
          2   -1    0    0  502    0  0.00000000000E+00  0.00000000000E+00  0.13925282189E+04  0.13925282189E+04  0.00000000000E+00 0.  1.
         -2   -1    0    0    0  501 -0.00000000000E+00 -0.00000000000E+00 -0.29449462287E+02  0.29449462287E+02  0.00000000000E+00 0. -1.
          6    1    1    2  502    0 -0.26661152484E+02 -0.36320318251E+01  0.32424820983E+03  0.36849682534E+03  0.17300000000E+03 0.  1.
         -6    1    1    2    0  501  0.26661152484E+02  0.36320318251E+01  0.10388305468E+04  0.10534808558E+04  0.17300000000E+03 0. -1.
</event>
<event>
 4    1  0.5880538E-001  0.1000000E+03  0.7546771E-02  0.1280296E+00
          2   -1    0    0  502    0  0.00000000000E+00  0.00000000000E+00  0.29804169940E+03  0.29804169940E+03  0.00000000000E+00 0.  1.
         -2   -1    0    0    0  501 -0.00000000000E+00 -0.00000000000E+00 -0.12773152880E+03  0.12773152880E+03  0.00000000000E+00 0. -1.
          6    1    1    2  502    0 -0.77878655882E+02 -0.25123427901E+02  0.12661724647E+03  0.22947156420E+03  0.17300000000E+03 0.  1.
         -6    1    1    2    0  501  0.77878655882E+02  0.25123427901E+02  0.43692924131E+02  0.19630166400E+03  0.17300000000E+03 0. -1.
</event>
<event>
 4    1  0.5880538E-001  0.1000000E+03  0.7546771E-02  0.1280296E+00
          2   -1    0    0  502    0  0.00000000000E+00  0.00000000000E+00  0.36511880011E+03  0.36511880011E+03  0.00000000000E+00 0.  1.
         -2   -1    0    0    0  501 -0.00000000000E+00 -0.00000000000E+00 -0.85910002647E+02  0.85910002647E+02  0.00000000000E+00 0. -1.
          6    1    1    2  502    0 -0.12945258452E+02 -0.17319542099E+02  0.99930706193E+02  0.20095445329E+03  0.17300000000E+03 0.  1.
         -6    1    1    2    0  501  0.12945258452E+02  0.17319542099E+02  0.17927809127E+03  0.25007434947E+03  0.17300000000E+03 0. -1.
</event>
<event>
 4    1  0.5880538E-001  0.1000000E+03  0.7546771E-02  0.1280296E+00
         -2   -1    0    0    0  501 -0.00000000000E+00  0.00000000000E+00  0.24392937895E+02  0.24392937895E+02  0.00000000000E+00 0.  1.
          2   -1    0    0  502    0  0.00000000000E+00 -0.00000000000E+00 -0.22426258960E+04  0.22426258960E+04  0.00000000000E+00 0. -1.
          6    1    1    2  502    0 -0.94926361171E+02 -0.98361987653E+02 -0.73094164547E+03  0.76347284414E+03  0.17300000000E+03 0. -1.
         -6    1    1    2    0  501  0.94926361171E+02  0.98361987653E+02 -0.14872913127E+04  0.15035459898E+04  0.17300000000E+03 0.  1.
</event>
<event>
 4    1  0.5880538E-001  0.1000000E+03  0.7546771E-02  0.1280296E+00
          1   -1    0    0  502    0  0.00000000000E+00  0.00000000000E+00  0.96467945426E+03  0.96467945426E+03  0.00000000000E+00 0.  1.
         -1   -1    0    0    0  501 -0.00000000000E+00 -0.00000000000E+00 -0.36245512009E+02  0.36245512009E+02  0.00000000000E+00 0. -1.
          6    1    1    2  502    0  0.58818692370E+02  0.39702487861E+02  0.46257882013E+03  0.49894297364E+03  0.17300000000E+03 0.  1.
         -6    1    1    2    0  501 -0.58818692370E+02 -0.39702487861E+02  0.46585512212E+03  0.50198199263E+03  0.17300000000E+03 0. -1.
</event>
<event>
 4    1  0.5880538E-001  0.1000000E+03  0.7546771E-02  0.1280296E+00
          1   -1    0    0  502    0  0.00000000000E+00  0.00000000000E+00  0.38622920787E+03  0.38622920787E+03  0.00000000000E+00 0.  1.
         -1   -1    0    0    0  501 -0.00000000000E+00 -0.00000000000E+00 -0.11865881398E+03  0.11865881398E+03  0.00000000000E+00 0. -1.
          6    1    1    2  502    0  0.60142966015E+02 -0.12245235190E+02  0.38929080185E+01  0.18360630947E+03  0.17300000000E+03 0.  1.
         -6    1    1    2    0  501 -0.60142966015E+02  0.12245235190E+02  0.26367748588E+03  0.32128171237E+03  0.17300000000E+03 0. -1.
</event>
<event>
 4    1  0.5880538E-001  0.1000000E+03  0.7546771E-02  0.1280296E+00
          2   -1    0    0  502    0  0.00000000000E+00  0.00000000000E+00  0.22971553971E+04  0.22971553971E+04  0.00000000000E+00 0.  1.
         -2   -1    0    0    0  501 -0.00000000000E+00 -0.00000000000E+00 -0.27133756696E+02  0.27133756696E+02  0.00000000000E+00 0. -1.
          6    1    1    2  502    0  0.13341280293E+03 -0.55679368286E+02  0.63577915916E+03  0.67456897887E+03  0.17300000000E+03 0. -1.
         -6    1    1    2    0  501 -0.13341280293E+03  0.55679368286E+02  0.16342424812E+04  0.16497201749E+04  0.17300000000E+03 0.  1.
</event>
<event>
 4    1  0.5880538E-001  0.1000000E+03  0.7546771E-02  0.1280296E+00
         -2   -1    0    0    0  501 -0.00000000000E+00  0.00000000000E+00  0.32808521618E+02  0.32808521618E+02  0.00000000000E+00 0.  1.
          2   -1    0    0  502    0  0.00000000000E+00 -0.00000000000E+00 -0.23054629063E+04  0.23054629063E+04  0.00000000000E+00 0. -1.
          6    1    1    2  502    0  0.12145347208E+03  0.11574202523E+03 -0.16996894712E+04  0.17166888073E+04  0.17300000000E+03 0.  1.
         -6    1    1    2    0  501 -0.12145347208E+03 -0.11574202523E+03 -0.57296491344E+03  0.62158262067E+03  0.17300000000E+03 0. -1.
</event>
<event>
 4    1  0.5880538E-001  0.1000000E+03  0.7546771E-02  0.1280296E+00
         -2   -1    0    0    0  501 -0.00000000000E+00  0.00000000000E+00  0.62732281382E+02  0.62732281382E+02  0.00000000000E+00 0.  1.
          2   -1    0    0  502    0  0.00000000000E+00 -0.00000000000E+00 -0.49904239163E+03  0.49904239163E+03  0.00000000000E+00 0. -1.
          6    1    1    2  502    0  0.35094357570E+02  0.11346673564E+02 -0.21166625315E+03  0.27584771824E+03  0.17300000000E+03 0.  1.
         -6    1    1    2    0  501 -0.35094357570E+02 -0.11346673564E+02 -0.22464385709E+03  0.28592695477E+03  0.17300000000E+03 0. -1.
</event>
<event>
 4    1  0.5880538E-001  0.1000000E+03  0.7546771E-02  0.1280296E+00
         -2   -1    0    0    0  501 -0.00000000000E+00  0.00000000000E+00  0.19346429713E+03  0.19346429713E+03  0.00000000000E+00 0. -1.
          2   -1    0    0  502    0  0.00000000000E+00 -0.00000000000E+00 -0.19427261838E+03  0.19427261838E+03  0.00000000000E+00 0.  1.
          6    1    1    2  502    0 -0.85255250579E+02 -0.19264440808E+02 -0.44339502613E+01  0.19387685872E+03  0.17300000000E+03 0.  1.
         -6    1    1    2    0  501  0.85255250579E+02  0.19264440808E+02  0.36256290095E+01  0.19386005679E+03  0.17300000000E+03 0. -1.
</event>
<event>
 4    1  0.5880538E-001  0.1000000E+03  0.7546771E-02  0.1280296E+00
         -2   -1    0    0    0  501 -0.00000000000E+00  0.00000000000E+00  0.69290855338E+02  0.69290855338E+02  0.00000000000E+00 0. -1.
          2   -1    0    0  502    0  0.00000000000E+00 -0.00000000000E+00 -0.14270416539E+04  0.14270416539E+04  0.00000000000E+00 0.  1.
          6    1    1    2  502    0 -0.10165354184E+03  0.14527569882E+03 -0.11396997535E+04  0.11663117076E+04  0.17300000000E+03 0.  1.
         -6    1    1    2    0  501  0.10165354184E+03 -0.14527569882E+03 -0.21805104505E+03  0.33002080159E+03  0.17300000000E+03 0. -1.
</event>
<event>
 4    1  0.5880538E-001  0.1000000E+03  0.7546771E-02  0.1280296E+00
         -2   -1    0    0    0  501 -0.00000000000E+00  0.00000000000E+00  0.63414776708E+02  0.63414776708E+02  0.00000000000E+00 0. -1.
          2   -1    0    0  502    0  0.00000000000E+00 -0.00000000000E+00 -0.51123318342E+03  0.51123318342E+03  0.00000000000E+00 0.  1.
          6    1    1    2  502    0  0.23800922938E+02  0.42522218408E+02 -0.20671382943E+03  0.27392376726E+03  0.17300000000E+03 0.  1.
         -6    1    1    2    0  501 -0.23800922938E+02 -0.42522218408E+02 -0.24110457728E+03  0.30072419287E+03  0.17300000000E+03 0. -1.
</event>
<event>
 4    1  0.5880538E-001  0.1000000E+03  0.7546771E-02  0.1280296E+00
         -1   -1    0    0    0  501 -0.00000000000E+00  0.00000000000E+00  0.50628075841E+03  0.50628075841E+03  0.00000000000E+00 0. -1.
          1   -1    0    0  502    0  0.00000000000E+00 -0.00000000000E+00 -0.69935114042E+02  0.69935114042E+02  0.00000000000E+00 0.  1.
          6    1    1    2  502    0  0.54442453020E+02 -0.19558585180E+02  0.28885867329E+03  0.34163555448E+03  0.17300000000E+03 0.  1.
         -6    1    1    2    0  501 -0.54442453020E+02  0.19558585180E+02  0.14748697107E+03  0.23458031798E+03  0.17300000000E+03 0. -1.
</event>
<event>
 4    1  0.5880538E-001  0.1000000E+03  0.7546771E-02  0.1280296E+00
          1   -1    0    0  502    0  0.00000000000E+00  0.00000000000E+00  0.44545803311E+02  0.44545803311E+02  0.00000000000E+00 0.  1.
         -1   -1    0    0    0  501 -0.00000000000E+00 -0.00000000000E+00 -0.18463808163E+04  0.18463808163E+04  0.00000000000E+00 0. -1.
          6    1    1    2  502    0 -0.71516265158E+02  0.17450984200E+03 -0.13275995091E+04  0.13520420547E+04  0.17300000000E+03 0.  1.
         -6    1    1    2    0  501  0.71516265158E+02 -0.17450984200E+03 -0.47423550384E+03  0.53888456486E+03  0.17300000000E+03 0. -1.
</event>
<event>
 4    1  0.5880538E-001  0.1000000E+03  0.7546771E-02  0.1280296E+00
         -2   -1    0    0    0  501 -0.00000000000E+00  0.00000000000E+00  0.42854345876E+02  0.42854345876E+02  0.00000000000E+00 0.  1.
          2   -1    0    0  502    0  0.00000000000E+00 -0.00000000000E+00 -0.91635191941E+03  0.91635191941E+03  0.00000000000E+00 0. -1.
          6    1    1    2  502    0 -0.69128968478E+02  0.65471310203E+02 -0.39658818668E+03  0.44303103340E+03  0.17300000000E+03 0. -1.
         -6    1    1    2    0  501  0.69128968478E+02 -0.65471310203E+02 -0.47690938686E+03  0.51617523189E+03  0.17300000000E+03 0.  1.
</event>
<event>
 4    1  0.5880538E-001  0.1000000E+03  0.7546771E-02  0.1280296E+00
         -2   -1    0    0    0  501 -0.00000000000E+00  0.00000000000E+00  0.44463788451E+02  0.44463788451E+02  0.00000000000E+00 0. -1.
          2   -1    0    0  502    0  0.00000000000E+00 -0.00000000000E+00 -0.88348065938E+03  0.88348065938E+03  0.00000000000E+00 0.  1.
          6    1    1    2  502    0 -0.15706135385E+01 -0.34068379523E+02 -0.63137027901E+03  0.65553073957E+03  0.17300000000E+03 0. -1.
         -6    1    1    2    0  501  0.15706135385E+01  0.34068379523E+02 -0.20764659192E+03  0.27241370826E+03  0.17300000000E+03 0.  1.
</event>
<event>
 4    1  0.5880538E-001  0.1000000E+03  0.7546771E-02  0.1280296E+00
         -1   -1    0    0    0  501 -0.00000000000E+00  0.00000000000E+00  0.79336559665E+02  0.79336559665E+02  0.00000000000E+00 0. -1.
          1   -1    0    0  502    0  0.00000000000E+00 -0.00000000000E+00 -0.60079589176E+03  0.60079589176E+03  0.00000000000E+00 0.  1.
          6    1    1    2  502    0  0.96558506283E+02 -0.33689043044E+02 -0.39360883602E+03  0.44194503340E+03  0.17300000000E+03 0. -1.
         -6    1    1    2    0  501 -0.96558506283E+02  0.33689043044E+02 -0.12785049607E+03  0.23818741802E+03  0.17300000000E+03 0.  1.
</event>
<event>
 4    1  0.5880538E-001  0.1000000E+03  0.7546771E-02  0.1280296E+00
         -2   -1    0    0    0  501 -0.00000000000E+00  0.00000000000E+00  0.22126298152E+02  0.22126298152E+02  0.00000000000E+00 0.  1.
          2   -1    0    0  502    0  0.00000000000E+00 -0.00000000000E+00 -0.19582376839E+04  0.19582376839E+04  0.00000000000E+00 0. -1.
          6    1    1    2  502    0  0.30375528604E+02  0.28600436823E+02 -0.45441833670E+03  0.48802221512E+03  0.17300000000E+03 0. -1.
         -6    1    1    2    0  501 -0.30375528604E+02 -0.28600436823E+02 -0.14816930491E+04  0.14923417670E+04  0.17300000000E+03 0.  1.
</event>
<event>
 4    1  0.5880538E-001  0.1000000E+03  0.7546771E-02  0.1280296E+00
         -1   -1    0    0    0  501 -0.00000000000E+00  0.00000000000E+00  0.61854903698E+02  0.61854903698E+02  0.00000000000E+00 0. -1.
          1   -1    0    0  502    0  0.00000000000E+00 -0.00000000000E+00 -0.21263191780E+04  0.21263191780E+04  0.00000000000E+00 0.  1.
          6    1    1    2  502    0  0.57614612740E+02 -0.77024306654E+02 -0.11548321920E+03  0.22916710351E+03  0.17300000000E+03 0.  1.
         -6    1    1    2    0  501 -0.57614612740E+02  0.77024306654E+02 -0.19489810551E+04  0.19590069782E+04  0.17300000000E+03 0. -1.
</event>
<event>
 4    1  0.5880538E-001  0.1000000E+03  0.7546771E-02  0.1280296E+00
          1   -1    0    0  502    0  0.00000000000E+00  0.00000000000E+00  0.37544897711E+03  0.37544897711E+03  0.00000000000E+00 0. -1.
         -1   -1    0    0    0  501 -0.00000000000E+00 -0.00000000000E+00 -0.22655358730E+03  0.22655358730E+03  0.00000000000E+00 0.  1.
          6    1    1    2  502    0  0.16092192693E+03 -0.10376981518E+03 -0.65800415791E+02  0.26631322879E+03  0.17300000000E+03 0.  1.
         -6    1    1    2    0  501 -0.16092192693E+03  0.10376981518E+03  0.21469580559E+03  0.33568933562E+03  0.17300000000E+03 0.  1.
</event>
<event>
 4    1  0.5880538E-001  0.1000000E+03  0.7546771E-02  0.1280296E+00
          2   -1    0    0  502    0  0.00000000000E+00  0.00000000000E+00  0.71992093360E+02  0.71992093360E+02  0.00000000000E+00 0. -1.
         -2   -1    0    0    0  501 -0.00000000000E+00 -0.00000000000E+00 -0.10240257960E+04  0.10240257960E+04  0.00000000000E+00 0.  1.
          6    1    1    2  502    0 -0.94371992161E+01  0.92810408390E+02 -0.85409452904E+03  0.87641844867E+03  0.17300000000E+03 0.  1.
         -6    1    1    2    0  501  0.94371992161E+01 -0.92810408390E+02 -0.97939173637E+02  0.21959944073E+03  0.17300000000E+03 0.  1.
</event>
<event>
 4    1  0.5880538E-001  0.1000000E+03  0.7546771E-02  0.1280296E+00
          2   -1    0    0  502    0  0.00000000000E+00  0.00000000000E+00  0.78099797718E+03  0.78099797718E+03  0.00000000000E+00 0. -1.
         -2   -1    0    0    0  501 -0.00000000000E+00 -0.00000000000E+00 -0.74190800142E+02  0.74190800142E+02  0.00000000000E+00 0.  1.
          6    1    1    2  502    0 -0.10115735508E+03 -0.50851174435E+02  0.13443319293E+03  0.24661698196E+03  0.17300000000E+03 0.  1.
         -6    1    1    2    0  501  0.10115735508E+03  0.50851174435E+02  0.57237398410E+03  0.60857179536E+03  0.17300000000E+03 0.  1.
</event>
<event>
 4    1  0.5880538E-001  0.1000000E+03  0.7546771E-02  0.1280296E+00
          2   -1    0    0  502    0  0.00000000000E+00  0.00000000000E+00  0.20130266883E+04  0.20130266883E+04  0.00000000000E+00 0. -1.
         -2   -1    0    0    0  501 -0.00000000000E+00 -0.00000000000E+00 -0.45441648630E+02  0.45441648630E+02  0.00000000000E+00 0.  1.
          6    1    1    2  502    0  0.10178198553E+03  0.46123990681E+02  0.17375347875E+04  0.17496980119E+04  0.17300000000E+03 0. -1.
         -6    1    1    2    0  501 -0.10178198553E+03 -0.46123990681E+02  0.23005025218E+03  0.30877032504E+03  0.17300000000E+03 0.  1.
</event>
<event>
 4    1  0.5880538E-001  0.1000000E+03  0.7546771E-02  0.1280296E+00
         -2   -1    0    0    0  501 -0.00000000000E+00  0.00000000000E+00  0.49045946538E+02  0.49045946538E+02  0.00000000000E+00 0.  1.
          2   -1    0    0  502    0  0.00000000000E+00 -0.00000000000E+00 -0.70758844764E+03  0.70758844764E+03  0.00000000000E+00 0. -1.
          6    1    1    2  502    0 -0.24940461217E+02 -0.10827859027E+02 -0.20025517538E+03  0.26602707457E+03  0.17300000000E+03 0.  1.
         -6    1    1    2    0  501  0.24940461217E+02  0.10827859027E+02 -0.45828732573E+03  0.49060731962E+03  0.17300000000E+03 0. -1.
</event>
<event>
 4    1  0.5880538E-001  0.1000000E+03  0.7546771E-02  0.1280296E+00
         -2   -1    0    0    0  501 -0.00000000000E+00  0.00000000000E+00  0.11679505927E+03  0.11679505927E+03  0.00000000000E+00 0.  1.
          2   -1    0    0  502    0  0.00000000000E+00 -0.00000000000E+00 -0.44123711023E+03  0.44123711023E+03  0.00000000000E+00 0. -1.
          6    1    1    2  502    0 -0.14655449171E+03  0.84796135333E-01 -0.14836516120E+03  0.27096023193E+03  0.17300000000E+03 0.  1.
         -6    1    1    2    0  501  0.14655449171E+03 -0.84796135333E-01 -0.17607688976E+03  0.28707193756E+03  0.17300000000E+03 0. -1.
</event>
<event>
 4    1  0.5880538E-001  0.1000000E+03  0.7546771E-02  0.1280296E+00
         -1   -1    0    0    0  501 -0.00000000000E+00  0.00000000000E+00  0.30292431110E+03  0.30292431110E+03  0.00000000000E+00 0. -1.
          1   -1    0    0  502    0  0.00000000000E+00 -0.00000000000E+00 -0.44799848996E+03  0.44799848996E+03  0.00000000000E+00 0.  1.
          6    1    1    2  502    0 -0.20113706006E+03 -0.47099479699E+02  0.18349583673E+03  0.32599723927E+03  0.17300000000E+03 0.  1.
         -6    1    1    2    0  501  0.20113706006E+03  0.47099479699E+02 -0.32857001559E+03  0.42492556179E+03  0.17300000000E+03 0. -1.
</event>
<event>
 4    1  0.5880538E-001  0.1000000E+03  0.7546771E-02  0.1280296E+00
         -2   -1    0    0    0  501 -0.00000000000E+00  0.00000000000E+00  0.41381512339E+02  0.41381512339E+02  0.00000000000E+00 0. -1.
          2   -1    0    0  502    0  0.00000000000E+00 -0.00000000000E+00 -0.99953405771E+03  0.99953405771E+03  0.00000000000E+00 0.  1.
          6    1    1    2  502    0  0.36084219108E+02  0.10561787794E+02 -0.22291768956E+03  0.28466632844E+03  0.17300000000E+03 0.  1.
         -6    1    1    2    0  501 -0.36084219108E+02 -0.10561787794E+02 -0.73523485581E+03  0.75624924161E+03  0.17300000000E+03 0. -1.
</event>
<event>
 4    1  0.5880538E-001  0.1000000E+03  0.7546771E-02  0.1280296E+00
         -2   -1    0    0    0  501 -0.00000000000E+00  0.00000000000E+00  0.33341604286E+02  0.33341604286E+02  0.00000000000E+00 0. -1.
          2   -1    0    0  502    0  0.00000000000E+00 -0.00000000000E+00 -0.10810324931E+04  0.10810324931E+04  0.00000000000E+00 0.  1.
          6    1    1    2  502    0 -0.77866126006E+02  0.16370298503E+00 -0.50284581549E+03  0.53744401991E+03  0.17300000000E+03 0.  1.
         -6    1    1    2    0  501  0.77866126006E+02 -0.16370298503E+00 -0.54484507337E+03  0.57693007753E+03  0.17300000000E+03 0. -1.
</event>
<event>
 4    1  0.5880538E-001  0.1000000E+03  0.7546771E-02  0.1280296E+00
         -1   -1    0    0    0  501 -0.00000000000E+00  0.00000000000E+00  0.20692772290E+02  0.20692772290E+02  0.00000000000E+00 0. -1.
          1   -1    0    0  502    0  0.00000000000E+00 -0.00000000000E+00 -0.20401100198E+04  0.20401100198E+04  0.00000000000E+00 0.  1.
          6    1    1    2  502    0  0.88828226641E+01  0.60490529042E+02 -0.14733859486E+04  0.14847670397E+04  0.17300000000E+03 0. -1.
         -6    1    1    2    0  501 -0.88828226641E+01 -0.60490529042E+02 -0.54603129886E+03  0.57603575235E+03  0.17300000000E+03 0.  1.
</event>
<event>
 4    1  0.5880538E-001  0.1000000E+03  0.7546771E-02  0.1280296E+00
         -1   -1    0    0    0  501 -0.00000000000E+00  0.00000000000E+00  0.29008266079E+03  0.29008266079E+03  0.00000000000E+00 0. -1.
          1   -1    0    0  502    0  0.00000000000E+00 -0.00000000000E+00 -0.16675636260E+03  0.16675636260E+03  0.00000000000E+00 0.  1.
          6    1    1    2  502    0 -0.35681429434E+02 -0.67981768321E+02  0.17800697781E+03  0.25982719138E+03  0.17300000000E+03 0. -1.
         -6    1    1    2    0  501  0.35681429434E+02  0.67981768321E+02 -0.54680679618E+02  0.19701183202E+03  0.17300000000E+03 0.  1.
</event>
<event>
 4    1  0.5880538E-001  0.1000000E+03  0.7546771E-02  0.1280296E+00
          2   -1    0    0  502    0  0.00000000000E+00  0.00000000000E+00  0.20847289028E+04  0.20847289028E+04  0.00000000000E+00 0. -1.
         -2   -1    0    0    0  501 -0.00000000000E+00 -0.00000000000E+00 -0.12979668229E+03  0.12979668229E+03  0.00000000000E+00 0.  1.
          6    1    1    2  502    0 -0.36198744140E+02  0.46503976860E+03  0.13009122272E+04  0.13927935806E+04  0.17300000000E+03 0.  1.
         -6    1    1    2    0  501  0.36198744140E+02 -0.46503976860E+03  0.65401999333E+03  0.82173200445E+03  0.17300000000E+03 0.  1.
</event>
<event>
 4    1  0.5880538E-001  0.1000000E+03  0.7546771E-02  0.1280296E+00
          2   -1    0    0  502    0  0.00000000000E+00  0.00000000000E+00  0.25403900530E+04  0.25403900530E+04  0.00000000000E+00 0.  1.
         -2   -1    0    0    0  501 -0.00000000000E+00 -0.00000000000E+00 -0.14260477558E+02  0.14260477558E+02  0.00000000000E+00 0. -1.
          6    1    1    2  502    0 -0.17128759874E+02 -0.22827231448E+02  0.17600243454E+04  0.17687366037E+04  0.17300000000E+03 0. -1.
         -6    1    1    2    0  501  0.17128759874E+02  0.22827231448E+02  0.76610522999E+03  0.78591392679E+03  0.17300000000E+03 0.  1.
</event>
<event>
 4    1  0.5880538E-001  0.1000000E+03  0.7546771E-02  0.1280296E+00
          2   -1    0    0  502    0  0.00000000000E+00  0.00000000000E+00  0.56778025060E+03  0.56778025060E+03  0.00000000000E+00 0.  1.
         -2   -1    0    0    0  501 -0.00000000000E+00 -0.00000000000E+00 -0.14506137887E+03  0.14506137887E+03  0.00000000000E+00 0. -1.
          6    1    1    2  502    0  0.29063285316E+02 -0.86902172554E+02  0.47197927755E+03  0.51096976484E+03  0.17300000000E+03 0. -1.
         -6    1    1    2    0  501 -0.29063285316E+02  0.86902172554E+02 -0.49260405815E+02  0.20187186463E+03  0.17300000000E+03 0.  1.
</event>
<event>
 4    1  0.5880538E-001  0.1000000E+03  0.7546771E-02  0.1280296E+00
          4   -1    0    0  502    0  0.00000000000E+00  0.00000000000E+00  0.23141296133E+03  0.23141296133E+03  0.00000000000E+00 0. -1.
         -4   -1    0    0    0  501 -0.00000000000E+00 -0.00000000000E+00 -0.26554255421E+03  0.26554255421E+03  0.00000000000E+00 0.  1.
          6    1    1    2  502    0 -0.12681592598E+03  0.10286361637E+03  0.52797975398E+02  0.24367976703E+03  0.17300000000E+03 0. -1.
         -6    1    1    2    0  501  0.12681592598E+03 -0.10286361637E+03 -0.86927568273E+02  0.25327574851E+03  0.17300000000E+03 0.  1.
</event>
<event>
 4    1  0.5880538E-001  0.1000000E+03  0.7546771E-02  0.1280296E+00
         -2   -1    0    0    0  501 -0.00000000000E+00  0.00000000000E+00  0.31117677684E+02  0.31117677684E+02  0.00000000000E+00 0. -1.
          2   -1    0    0  502    0  0.00000000000E+00 -0.00000000000E+00 -0.11440700820E+04  0.11440700820E+04  0.00000000000E+00 0.  1.
          6    1    1    2  502    0 -0.19423894798E+02  0.48080898238E+02 -0.72655701433E+03  0.74866758681E+03  0.17300000000E+03 0. -1.
         -6    1    1    2    0  501  0.19423894798E+02 -0.48080898238E+02 -0.38639538994E+03  0.42652017283E+03  0.17300000000E+03 0. -1.
</event>
<event>
 4    1  0.5880538E-001  0.1000000E+03  0.7546771E-02  0.1280296E+00
          2   -1    0    0  502    0  0.00000000000E+00  0.00000000000E+00  0.11791272211E+04  0.11791272211E+04  0.00000000000E+00 0. -1.
         -2   -1    0    0    0  501 -0.00000000000E+00 -0.00000000000E+00 -0.36962710168E+02  0.36962710168E+02  0.00000000000E+00 0.  1.
          6    1    1    2  502    0  0.80763824221E+02 -0.82217587665E+02  0.51489110978E+03  0.55526964797E+03  0.17300000000E+03 0.  1.
         -6    1    1    2    0  501 -0.80763824221E+02  0.82217587665E+02  0.62727340111E+03  0.66082028326E+03  0.17300000000E+03 0.  1.
</event>
<event>
 4    1  0.5880538E-001  0.1000000E+03  0.7546771E-02  0.1280296E+00
          3   -1    0    0  502    0  0.00000000000E+00  0.00000000000E+00  0.33849159191E+02  0.33849159191E+02  0.00000000000E+00 0. -1.
         -3   -1    0    0    0  501 -0.00000000000E+00 -0.00000000000E+00 -0.10205421542E+04  0.10205421542E+04  0.00000000000E+00 0.  1.
          6    1    1    2  502    0 -0.50304342608E+02  0.41174216051E+02 -0.54933775740E+03  0.57959193805E+03  0.17300000000E+03 0.  1.
         -6    1    1    2    0  501  0.50304342608E+02 -0.41174216051E+02 -0.43735523757E+03  0.47479937530E+03  0.17300000000E+03 0. -1.
</event>
<event>
 4    1  0.5880538E-001  0.1000000E+03  0.7546771E-02  0.1280296E+00
          2   -1    0    0  502    0  0.00000000000E+00  0.00000000000E+00  0.16934207984E+04  0.16934207984E+04  0.00000000000E+00 0.  1.
         -2   -1    0    0    0  501 -0.00000000000E+00 -0.00000000000E+00 -0.24670911774E+02  0.24670911774E+02  0.00000000000E+00 0. -1.
          6    1    1    2  502    0  0.10025465437E+03  0.56099976882E+01  0.10110319960E+04  0.10306294992E+04  0.17300000000E+03 0. -1.
         -6    1    1    2    0  501 -0.10025465437E+03 -0.56099976882E+01  0.65771789067E+03  0.68746221096E+03  0.17300000000E+03 0.  1.
</event>
<event>
 4    1  0.5880538E-001  0.1000000E+03  0.7546771E-02  0.1280296E+00
          3   -1    0    0  502    0  0.00000000000E+00  0.00000000000E+00  0.27248445993E+03  0.27248445993E+03  0.00000000000E+00 0.  1.
         -3   -1    0    0    0  501 -0.00000000000E+00 -0.00000000000E+00 -0.16141448886E+03  0.16141448886E+03  0.00000000000E+00 0. -1.
          6    1    1    2  502    0 -0.26451499908E+02  0.11348389800E+03  0.78096388405E+02  0.22272476924E+03  0.17300000000E+03 0. -1.
         -6    1    1    2    0  501  0.26451499908E+02 -0.11348389800E+03  0.32973582669E+02  0.21117417955E+03  0.17300000000E+03 0.  1.
</event>
<event>
 4    1  0.5880538E-001  0.1000000E+03  0.7546771E-02  0.1280296E+00
          3   -1    0    0  502    0  0.00000000000E+00  0.00000000000E+00  0.40009955009E+03  0.40009955009E+03  0.00000000000E+00 0. -1.
         -3   -1    0    0    0  501 -0.00000000000E+00 -0.00000000000E+00 -0.23320685431E+03  0.23320685431E+03  0.00000000000E+00 0.  1.
          6    1    1    2  502    0  0.20930484975E+02  0.96902044191E+02  0.32333203531E+03  0.37986931493E+03  0.17300000000E+03 0. -1.
         -6    1    1    2    0  501 -0.20930484975E+02 -0.96902044191E+02 -0.15643933953E+03  0.25343708947E+03  0.17300000000E+03 0.  1.
</event>
<event>
 4    1  0.5880538E-001  0.1000000E+03  0.7546771E-02  0.1280296E+00
          2   -1    0    0  502    0  0.00000000000E+00  0.00000000000E+00  0.10540042845E+04  0.10540042845E+04  0.00000000000E+00 0. -1.
         -2   -1    0    0    0  501 -0.00000000000E+00 -0.00000000000E+00 -0.89268661633E+02  0.89268661633E+02  0.00000000000E+00 0.  1.
          6    1    1    2  502    0 -0.16960997580E+02  0.17016707223E+03  0.13414136851E+03  0.27779023499E+03  0.17300000000E+03 0. -1.
         -6    1    1    2    0  501  0.16960997580E+02 -0.17016707223E+03  0.83059425432E+03  0.86548271111E+03  0.17300000000E+03 0.  1.
</event>
<event>
 4    1  0.5880538E-001  0.1000000E+03  0.7546771E-02  0.1280296E+00
          3   -1    0    0  502    0  0.00000000000E+00  0.00000000000E+00  0.22824848758E+03  0.22824848758E+03  0.00000000000E+00 0. -1.
         -3   -1    0    0    0  501 -0.00000000000E+00 -0.00000000000E+00 -0.18439328895E+03  0.18439328895E+03  0.00000000000E+00 0.  1.
          6    1    1    2  502    0 -0.16614898362E+02 -0.10546440837E+03 -0.57919243780E+01  0.20337488210E+03  0.17300000000E+03 0. -1.
         -6    1    1    2    0  501  0.16614898362E+02  0.10546440837E+03  0.49647123009E+02  0.20926689443E+03  0.17300000000E+03 0.  1.
</event>
<event>
 4    1  0.5880538E-001  0.1000000E+03  0.7546771E-02  0.1280296E+00
          1   -1    0    0  502    0  0.00000000000E+00  0.00000000000E+00  0.13853007375E+04  0.13853007375E+04  0.00000000000E+00 0. -1.
         -1   -1    0    0    0  501 -0.00000000000E+00 -0.00000000000E+00 -0.18688838931E+03  0.18688838931E+03  0.00000000000E+00 0.  1.
          6    1    1    2  502    0  0.22591579365E+03 -0.37879038064E+03  0.88594771391E+03  0.10046653423E+04  0.17300000000E+03 0. -1.
         -6    1    1    2    0  501 -0.22591579365E+03  0.37879038064E+03  0.31246463432E+03  0.56752378452E+03  0.17300000000E+03 0.  1.
</event>
<event>
 4    1  0.5880538E-001  0.1000000E+03  0.7546771E-02  0.1280296E+00
         -2   -1    0    0    0  501 -0.00000000000E+00  0.00000000000E+00  0.20685577312E+02  0.20685577312E+02  0.00000000000E+00 0.  1.
          2   -1    0    0  502    0  0.00000000000E+00 -0.00000000000E+00 -0.14594540920E+04  0.14594540920E+04  0.00000000000E+00 0. -1.
          6    1    1    2  502    0  0.14769212785E+02  0.14475887657E+01 -0.69230291086E+03  0.71374543469E+03  0.17300000000E+03 0. -1.
         -6    1    1    2    0  501 -0.14769212785E+02 -0.14475887657E+01 -0.74646560379E+03  0.76639423459E+03  0.17300000000E+03 0.  1.
</event>
<event>
 4    1  0.5880538E-001  0.1000000E+03  0.7546771E-02  0.1280296E+00
         -2   -1    0    0    0  501 -0.00000000000E+00  0.00000000000E+00  0.10047838699E+03  0.10047838699E+03  0.00000000000E+00 0.  1.
          2   -1    0    0  502    0  0.00000000000E+00 -0.00000000000E+00 -0.47175801905E+03  0.47175801905E+03  0.00000000000E+00 0. -1.
          6    1    1    2  502    0  0.11908912815E+01  0.13014302798E+03 -0.15527555335E+03  0.26641719806E+03  0.17300000000E+03 0. -1.
         -6    1    1    2    0  501 -0.11908912815E+01 -0.13014302798E+03 -0.21600407871E+03  0.30581920798E+03  0.17300000000E+03 0.  1.
</event>
<event>
 4    1  0.5880538E-001  0.1000000E+03  0.7546771E-02  0.1280296E+00
         -1   -1    0    0    0  501 -0.00000000000E+00  0.00000000000E+00  0.36703864899E+02  0.36703864899E+02  0.00000000000E+00 0.  1.
          1   -1    0    0  502    0  0.00000000000E+00 -0.00000000000E+00 -0.12875436131E+04  0.12875436131E+04  0.00000000000E+00 0. -1.
          6    1    1    2  502    0  0.33483469011E+02 -0.98565466137E+02 -0.87083954476E+03  0.89393892775E+03  0.17300000000E+03 0. -1.
         -6    1    1    2    0  501 -0.33483469011E+02  0.98565466137E+02 -0.38000020345E+03  0.43030855027E+03  0.17300000000E+03 0.  1.
</event>
<event>
 4    1  0.5880538E-001  0.1000000E+03  0.7546771E-02  0.1280296E+00
         -1   -1    0    0    0  501 -0.00000000000E+00  0.00000000000E+00  0.95786619432E+01  0.95786619432E+01  0.00000000000E+00 0. -1.
          1   -1    0    0  502    0  0.00000000000E+00 -0.00000000000E+00 -0.33355891648E+04  0.33355891648E+04  0.00000000000E+00 0.  1.
          6    1    1    2  502    0  0.29713473121E+02 -0.31333630638E+02 -0.15458358883E+04  0.15560855633E+04  0.17300000000E+03 0.  1.
         -6    1    1    2    0  501 -0.29713473121E+02  0.31333630638E+02 -0.17801746145E+04  0.17890822634E+04  0.17300000000E+03 0. -1.
</event>
<event>
 4    1  0.5880538E-001  0.1000000E+03  0.7546771E-02  0.1280296E+00
          1   -1    0    0  502    0  0.00000000000E+00  0.00000000000E+00  0.25365928599E+04  0.25365928599E+04  0.00000000000E+00 0.  1.
         -1   -1    0    0    0  501 -0.00000000000E+00 -0.00000000000E+00 -0.19692608182E+02  0.19692608182E+02  0.00000000000E+00 0. -1.
          6    1    1    2  502    0 -0.10237424135E+03  0.10106827938E+02  0.18140981317E+04  0.18252297567E+04  0.17300000000E+03 0.  1.
         -6    1    1    2    0  501  0.10237424135E+03 -0.10106827938E+02  0.70280212009E+03  0.73105571146E+03  0.17300000000E+03 0. -1.
</event>
<event>
 4    1  0.5880538E-001  0.1000000E+03  0.7546771E-02  0.1280296E+00
          2   -1    0    0  502    0  0.00000000000E+00  0.00000000000E+00  0.54783619798E+03  0.54783619798E+03  0.00000000000E+00 0. -1.
         -2   -1    0    0    0  501 -0.00000000000E+00 -0.00000000000E+00 -0.94294016109E+02  0.94294016109E+02  0.00000000000E+00 0.  1.
          6    1    1    2  502    0  0.80836294948E+02  0.72856930430E+02  0.36722595469E+03  0.42026960477E+03  0.17300000000E+03 0.  1.
         -6    1    1    2    0  501 -0.80836294948E+02 -0.72856930430E+02  0.86316227173E+02  0.22186060932E+03  0.17300000000E+03 0. -1.
</event>
<event>
 4    1  0.5880538E-001  0.1000000E+03  0.7546771E-02  0.1280296E+00
          1   -1    0    0  502    0  0.00000000000E+00  0.00000000000E+00  0.35812641102E+03  0.35812641102E+03  0.00000000000E+00 0. -1.
         -1   -1    0    0    0  501 -0.00000000000E+00 -0.00000000000E+00 -0.18134983809E+03  0.18134983809E+03  0.00000000000E+00 0.  1.
          6    1    1    2  502    0 -0.44823726666E+02  0.17954931213E+03  0.11775961150E+03  0.27936257455E+03  0.17300000000E+03 0.  1.
         -6    1    1    2    0  501  0.44823726666E+02 -0.17954931213E+03  0.59016961434E+02  0.26011367457E+03  0.17300000000E+03 0. -1.
</event>
<event>
 4    1  0.5880538E-001  0.1000000E+03  0.7546771E-02  0.1280296E+00
          2   -1    0    0  502    0  0.00000000000E+00  0.00000000000E+00  0.38418886405E+04  0.38418886405E+04  0.00000000000E+00 0. -1.
         -2   -1    0    0    0  501 -0.00000000000E+00 -0.00000000000E+00 -0.10048274200E+02  0.10048274200E+02  0.00000000000E+00 0.  1.
          6    1    1    2  502    0 -0.80890910062E+02  0.20659861395E+02  0.23206976478E+04  0.23286340936E+04  0.17300000000E+03 0.  1.
         -6    1    1    2    0  501  0.80890910062E+02 -0.20659861395E+02  0.15111427185E+04  0.15233028211E+04  0.17300000000E+03 0. -1.
</event>
<event>
 4    1  0.5880538E-001  0.1000000E+03  0.7546771E-02  0.1280296E+00
         -1   -1    0    0    0  501 -0.00000000000E+00  0.00000000000E+00  0.14775823751E+03  0.14775823751E+03  0.00000000000E+00 0.  1.
          1   -1    0    0  502    0  0.00000000000E+00 -0.00000000000E+00 -0.29702866008E+03  0.29702866008E+03  0.00000000000E+00 0. -1.
          6    1    1    2  502    0  0.61347229660E+00  0.64247850951E+02 -0.17989239397E+03  0.25771774504E+03  0.17300000000E+03 0. -1.
         -6    1    1    2    0  501 -0.61347229660E+00 -0.64247850951E+02  0.30621971401E+02  0.18706915254E+03  0.17300000000E+03 0.  1.
</event>
<event>
 4    1  0.5880538E-001  0.1000000E+03  0.7546771E-02  0.1280296E+00
         -4   -1    0    0    0  501 -0.00000000000E+00  0.00000000000E+00  0.15391043932E+03  0.15391043932E+03  0.00000000000E+00 0.  1.
          4   -1    0    0  502    0  0.00000000000E+00 -0.00000000000E+00 -0.21597687753E+03  0.21597687753E+03  0.00000000000E+00 0. -1.
          6    1    1    2  502    0  0.47653224811E+02  0.50348137649E+01 -0.63365092750E+02  0.19036888970E+03  0.17300000000E+03 0. -1.
         -6    1    1    2    0  501 -0.47653224811E+02 -0.50348137649E+01  0.12986545448E+01  0.17951842715E+03  0.17300000000E+03 0.  1.
</event>
<event>
 4    1  0.5880538E-001  0.1000000E+03  0.7546771E-02  0.1280296E+00
         -1   -1    0    0    0  501 -0.00000000000E+00  0.00000000000E+00  0.66678813934E+02  0.66678813934E+02  0.00000000000E+00 0.  1.
          1   -1    0    0  502    0  0.00000000000E+00 -0.00000000000E+00 -0.61722093973E+03  0.61722093973E+03  0.00000000000E+00 0. -1.
          6    1    1    2  502    0 -0.90155408439E+01 -0.46828455373E+02 -0.43475514739E+03  0.47033522342E+03  0.17300000000E+03 0.  1.
         -6    1    1    2    0  501  0.90155408439E+01  0.46828455373E+02 -0.11578697841E+03  0.21356453024E+03  0.17300000000E+03 0. -1.
</event>
<event>
 4    1  0.5880538E-001  0.1000000E+03  0.7546771E-02  0.1280296E+00
         -1   -1    0    0    0  501 -0.00000000000E+00  0.00000000000E+00  0.65387069136E+02  0.65387069136E+02  0.00000000000E+00 0. -1.
          1   -1    0    0  502    0  0.00000000000E+00 -0.00000000000E+00 -0.73103471367E+03  0.73103471367E+03  0.00000000000E+00 0.  1.
          6    1    1    2  502    0 -0.20233124401E+02  0.42920278386E+02 -0.56045637683E+03  0.58846569989E+03  0.17300000000E+03 0. -1.
         -6    1    1    2    0  501  0.20233124401E+02 -0.42920278386E+02 -0.10519126770E+03  0.20795608291E+03  0.17300000000E+03 0.  1.
</event>
<event>
 4    1  0.5880538E-001  0.1000000E+03  0.7546771E-02  0.1280296E+00
         -1   -1    0    0    0  501 -0.00000000000E+00  0.00000000000E+00  0.61066918657E+03  0.61066918657E+03  0.00000000000E+00 0.  1.
          1   -1    0    0  502    0  0.00000000000E+00 -0.00000000000E+00 -0.97901226629E+02  0.97901226629E+02  0.00000000000E+00 0. -1.
          6    1    1    2  502    0 -0.15724192290E+03 -0.59422502203E+01  0.15294894497E+03  0.27943284063E+03  0.17300000000E+03 0. -1.
         -6    1    1    2    0  501  0.15724192290E+03  0.59422502203E+01  0.35981901498E+03  0.42913757257E+03  0.17300000000E+03 0.  1.
</event>
<event>
 4    1  0.5880538E-001  0.1000000E+03  0.7546771E-02  0.1280296E+00
         -2   -1    0    0    0  501 -0.00000000000E+00  0.00000000000E+00  0.58026271548E+02  0.58026271548E+02  0.00000000000E+00 0.  1.
          2   -1    0    0  502    0  0.00000000000E+00 -0.00000000000E+00 -0.79335940599E+03  0.79335940599E+03  0.00000000000E+00 0. -1.
          6    1    1    2  502    0  0.10260921716E+03 -0.50103099714E+02 -0.25777696044E+03  0.33078230512E+03  0.17300000000E+03 0. -1.
         -6    1    1    2    0  501 -0.10260921716E+03  0.50103099714E+02 -0.47755617401E+03  0.52060337242E+03  0.17300000000E+03 0.  1.
</event>
<event>
 4    1  0.5880538E-001  0.1000000E+03  0.7546771E-02  0.1280296E+00
         -2   -1    0    0    0  501 -0.00000000000E+00  0.00000000000E+00  0.28529698007E+02  0.28529698007E+02  0.00000000000E+00 0.  1.
          2   -1    0    0  502    0  0.00000000000E+00 -0.00000000000E+00 -0.14872519866E+04  0.14872519866E+04  0.00000000000E+00 0. -1.
          6    1    1    2  502    0 -0.89714958185E+02 -0.66596863412E+02 -0.74494251276E+03  0.77288567282E+03  0.17300000000E+03 0. -1.
         -6    1    1    2    0  501  0.89714958185E+02  0.66596863412E+02 -0.71377977586E+03  0.74289601181E+03  0.17300000000E+03 0.  1.
</event>
<event>
 4    1  0.5880538E-001  0.1000000E+03  0.7546771E-02  0.1280296E+00
         -2   -1    0    0    0  501 -0.00000000000E+00  0.00000000000E+00  0.77399866512E+02  0.77399866512E+02  0.00000000000E+00 0.  1.
          2   -1    0    0  502    0  0.00000000000E+00 -0.00000000000E+00 -0.58050155846E+03  0.58050155846E+03  0.00000000000E+00 0. -1.
          6    1    1    2  502    0  0.20066794331E+02 -0.48926085579E+02 -0.42299921169E+03  0.46005844322E+03  0.17300000000E+03 0. -1.
         -6    1    1    2    0  501 -0.20066794331E+02  0.48926085579E+02 -0.80102480253E+02  0.19784298175E+03  0.17300000000E+03 0.  1.
</event>
<event>
 4    1  0.5880538E-001  0.1000000E+03  0.7546771E-02  0.1280296E+00
         -3   -1    0    0    0  501 -0.00000000000E+00  0.00000000000E+00  0.23056329711E+03  0.23056329711E+03  0.00000000000E+00 0.  1.
          3   -1    0    0  502    0  0.00000000000E+00 -0.00000000000E+00 -0.13294627161E+03  0.13294627161E+03  0.00000000000E+00 0. -1.
          6    1    1    2  502    0 -0.13236144422E+02  0.20771427946E+02  0.60032013166E+02  0.18476874829E+03  0.17300000000E+03 0. -1.
         -6    1    1    2    0  501  0.13236144422E+02 -0.20771427946E+02  0.37585012331E+02  0.17874082044E+03  0.17300000000E+03 0.  1.
</event>
<event>
 4    1  0.5880538E-001  0.1000000E+03  0.7546771E-02  0.1280296E+00
         -2   -1    0    0    0  501 -0.00000000000E+00  0.00000000000E+00  0.68339180434E+03  0.68339180434E+03  0.00000000000E+00 0.  1.
          2   -1    0    0  502    0  0.00000000000E+00 -0.00000000000E+00 -0.80032676914E+02  0.80032676914E+02  0.00000000000E+00 0. -1.
          6    1    1    2  502    0  0.27152435339E+02  0.15064360607E+03  0.24206763311E+03  0.33459899850E+03  0.17300000000E+03 0. -1.
         -6    1    1    2    0  501 -0.27152435339E+02 -0.15064360607E+03  0.36129149431E+03  0.42882548275E+03  0.17300000000E+03 0.  1.
</event>
<event>
 4    1  0.5880538E-001  0.1000000E+03  0.7546771E-02  0.1280296E+00
         -2   -1    0    0    0  501 -0.00000000000E+00  0.00000000000E+00  0.20985685142E+02  0.20985685142E+02  0.00000000000E+00 0. -1.
          2   -1    0    0  502    0  0.00000000000E+00 -0.00000000000E+00 -0.19810422600E+04  0.19810422600E+04  0.00000000000E+00 0.  1.
          6    1    1    2  502    0  0.16652376977E+02 -0.95450906487E+02 -0.74682476233E+03  0.77269942593E+03  0.17300000000E+03 0. -1.
         -6    1    1    2    0  501 -0.16652376977E+02  0.95450906487E+02 -0.12132318125E+04  0.12293285192E+04  0.17300000000E+03 0.  1.
</event>
<event>
 4    1  0.5880538E-001  0.1000000E+03  0.7546771E-02  0.1280296E+00
          2   -1    0    0  502    0  0.00000000000E+00  0.00000000000E+00  0.22480364088E+04  0.22480364088E+04  0.00000000000E+00 0.  1.
         -2   -1    0    0    0  501 -0.00000000000E+00 -0.00000000000E+00 -0.51348281435E+02  0.51348281435E+02  0.00000000000E+00 0. -1.
          6    1    1    2  502    0 -0.89449488145E+02 -0.26167952638E+03  0.14198394904E+04  0.14568289412E+04  0.17300000000E+03 0. -1.
         -6    1    1    2    0  501  0.89449488145E+02  0.26167952638E+03  0.77684863697E+03  0.84255574903E+03  0.17300000000E+03 0. -1.
</event>
<event>
 4    1  0.5880538E-001  0.1000000E+03  0.7546771E-02  0.1280296E+00
          1   -1    0    0  502    0  0.00000000000E+00  0.00000000000E+00  0.38693835451E+03  0.38693835451E+03  0.00000000000E+00 0.  1.
         -1   -1    0    0    0  501 -0.00000000000E+00 -0.00000000000E+00 -0.85205228521E+02  0.85205228521E+02  0.00000000000E+00 0. -1.
          6    1    1    2  502    0 -0.16158228593E+02 -0.51470882979E+02  0.16568078692E+03  0.24553912784E+03  0.17300000000E+03 0. -1.
         -6    1    1    2    0  501  0.16158228593E+02  0.51470882979E+02  0.13605233906E+03  0.22660445519E+03  0.17300000000E+03 0. -1.
</event>
<event>
 4    1  0.5880538E-001  0.1000000E+03  0.7546771E-02  0.1280296E+00
          1   -1    0    0  502    0  0.00000000000E+00  0.00000000000E+00  0.24159451815E+04  0.24159451815E+04  0.00000000000E+00 0.  1.
         -1   -1    0    0    0  501 -0.00000000000E+00 -0.00000000000E+00 -0.45477107007E+02  0.45477107007E+02  0.00000000000E+00 0. -1.
          6    1    1    2  502    0 -0.16688254961E+03 -0.15642136087E+03  0.56813104037E+03  0.63641127153E+03  0.17300000000E+03 0. -1.
         -6    1    1    2    0  501  0.16688254961E+03  0.15642136087E+03  0.18023370342E+04  0.18250110170E+04  0.17300000000E+03 0. -1.
</event>
<event>
 4    1  0.5880538E-001  0.1000000E+03  0.7546771E-02  0.1280296E+00
         -2   -1    0    0    0  501 -0.00000000000E+00  0.00000000000E+00  0.18403237825E+03  0.18403237825E+03  0.00000000000E+00 0.  1.
          2   -1    0    0  502    0  0.00000000000E+00 -0.00000000000E+00 -0.67119124624E+03  0.67119124624E+03  0.00000000000E+00 0. -1.
          6    1    1    2  502    0 -0.18124599779E+03  0.23805042667E+03 -0.16592263317E+03  0.38337636540E+03  0.17300000000E+03 0. -1.
         -6    1    1    2    0  501  0.18124599779E+03 -0.23805042667E+03 -0.32123623482E+03  0.47184725909E+03  0.17300000000E+03 0.  1.
</event>
<event>
 4    1  0.5880538E-001  0.1000000E+03  0.7546771E-02  0.1280296E+00
         -2   -1    0    0    0  501 -0.00000000000E+00  0.00000000000E+00  0.78347711081E+02  0.78347711081E+02  0.00000000000E+00 0.  1.
          2   -1    0    0  502    0  0.00000000000E+00 -0.00000000000E+00 -0.47665461346E+03  0.47665461346E+03  0.00000000000E+00 0. -1.
          6    1    1    2  502    0  0.37655238804E+02  0.26065990465E+02 -0.94430447897E+02  0.20234490940E+03  0.17300000000E+03 0. -1.
         -6    1    1    2    0  501 -0.37655238804E+02 -0.26065990465E+02 -0.30387645449E+03  0.35265741515E+03  0.17300000000E+03 0.  1.
</event>
<event>
 4    1  0.5880538E-001  0.1000000E+03  0.7546771E-02  0.1280296E+00
          2   -1    0    0  502    0  0.00000000000E+00  0.00000000000E+00  0.60757812701E+03  0.60757812701E+03  0.00000000000E+00 0. -1.
         -2   -1    0    0    0  501 -0.00000000000E+00 -0.00000000000E+00 -0.38084053680E+03  0.38084053680E+03  0.00000000000E+00 0.  1.
          6    1    1    2  502    0  0.20708076856E+03  0.16650777446E+03  0.48501692635E+03  0.57946328832E+03  0.17300000000E+03 0.  1.
         -6    1    1    2    0  501 -0.20708076856E+03 -0.16650777446E+03 -0.25827933614E+03  0.40895537549E+03  0.17300000000E+03 0.  1.
</event>
<event>
 4    1  0.5880538E-001  0.1000000E+03  0.7546771E-02  0.1280296E+00
          2   -1    0    0  502    0  0.00000000000E+00  0.00000000000E+00  0.37172010494E+03  0.37172010494E+03  0.00000000000E+00 0. -1.
         -2   -1    0    0    0  501 -0.00000000000E+00 -0.00000000000E+00 -0.54643821103E+03  0.54643821103E+03  0.00000000000E+00 0.  1.
          6    1    1    2  502    0  0.24798344292E+03 -0.28546702631E+03 -0.26439220804E+03  0.49276713643E+03  0.17300000000E+03 0.  1.
         -6    1    1    2    0  501 -0.24798344292E+03  0.28546702631E+03  0.89674101951E+02  0.42539117954E+03  0.17300000000E+03 0.  1.
</event>
<event>
 4    1  0.5880538E-001  0.1000000E+03  0.7546771E-02  0.1280296E+00
          2   -1    0    0  502    0  0.00000000000E+00  0.00000000000E+00  0.11921870517E+04  0.11921870517E+04  0.00000000000E+00 0. -1.
         -2   -1    0    0    0  501 -0.00000000000E+00 -0.00000000000E+00 -0.26724010897E+02  0.26724010897E+02  0.00000000000E+00 0.  1.
          6    1    1    2  502    0 -0.28536477231E+02 -0.31273350240E+02  0.62293885058E+03  0.64789981057E+03  0.17300000000E+03 0.  1.
         -6    1    1    2    0  501  0.28536477231E+02  0.31273350240E+02  0.54252419017E+03  0.57101125198E+03  0.17300000000E+03 0.  1.
</event>
<event>
 4    1  0.5880538E-001  0.1000000E+03  0.7546771E-02  0.1280296E+00
          2   -1    0    0  502    0  0.00000000000E+00  0.00000000000E+00  0.13012218100E+04  0.13012218100E+04  0.00000000000E+00 0.  1.
         -2   -1    0    0    0  501 -0.00000000000E+00 -0.00000000000E+00 -0.52033125249E+02  0.52033125249E+02  0.00000000000E+00 0. -1.
          6    1    1    2  502    0 -0.85123583374E+02  0.16643860955E+03  0.76292296179E+03  0.80431851951E+03  0.17300000000E+03 0.  1.
         -6    1    1    2    0  501  0.85123583374E+02 -0.16643860955E+03  0.48626572293E+03  0.54893641571E+03  0.17300000000E+03 0. -1.
</event>
<event>
 4    1  0.5880538E-001  0.1000000E+03  0.7546771E-02  0.1280296E+00
          2   -1    0    0  502    0  0.00000000000E+00  0.00000000000E+00  0.25610965071E+03  0.25610965071E+03  0.00000000000E+00 0.  1.
         -2   -1    0    0    0  501 -0.00000000000E+00 -0.00000000000E+00 -0.22873167376E+03  0.22873167376E+03  0.00000000000E+00 0. -1.
          6    1    1    2  502    0  0.72927193408E+02 -0.76557202995E+02 -0.11870397999E+03  0.23494470783E+03  0.17300000000E+03 0.  1.
         -6    1    1    2    0  501 -0.72927193408E+02  0.76557202995E+02  0.14608195694E+03  0.24989661665E+03  0.17300000000E+03 0. -1.
</event>
<event>
 4    1  0.5880538E-001  0.1000000E+03  0.7546771E-02  0.1280296E+00
          2   -1    0    0  502    0  0.00000000000E+00  0.00000000000E+00  0.24305317770E+03  0.24305317770E+03  0.00000000000E+00 0. -1.
         -2   -1    0    0    0  501 -0.00000000000E+00 -0.00000000000E+00 -0.83131954850E+03  0.83131954850E+03  0.00000000000E+00 0.  1.
          6    1    1    2  502    0  0.19117437790E+02  0.32974643283E+03  0.58907908813E+01  0.37291002642E+03  0.17300000000E+03 0. -1.
         -6    1    1    2    0  501 -0.19117437790E+02 -0.32974643283E+03 -0.59415716168E+03  0.70146269977E+03  0.17300000000E+03 0.  1.
</event>
<event>
 4    1  0.5880538E-001  0.1000000E+03  0.7546771E-02  0.1280296E+00
          2   -1    0    0  502    0  0.00000000000E+00  0.00000000000E+00  0.11148734359E+03  0.11148734359E+03  0.00000000000E+00 0. -1.
         -2   -1    0    0    0  501 -0.00000000000E+00 -0.00000000000E+00 -0.45174836794E+03  0.45174836794E+03  0.00000000000E+00 0.  1.
          6    1    1    2  502    0 -0.30337230438E+02 -0.74517348325E+02 -0.21853580878E+02  0.19204104184E+03  0.17300000000E+03 0. -1.
         -6    1    1    2    0  501  0.30337230438E+02  0.74517348325E+02 -0.31840744347E+03  0.37119466969E+03  0.17300000000E+03 0.  1.
</event>
<event>
 4    1  0.5880538E-001  0.1000000E+03  0.7546771E-02  0.1280296E+00
          2   -1    0    0  502    0  0.00000000000E+00  0.00000000000E+00  0.13412805340E+03  0.13412805340E+03  0.00000000000E+00 0.  1.
         -2   -1    0    0    0  501 -0.00000000000E+00 -0.00000000000E+00 -0.47664939741E+03  0.47664939741E+03  0.00000000000E+00 0. -1.
          6    1    1    2  502    0  0.22328161843E+02  0.57633385784E+02 -0.38109385094E+03  0.42306226161E+03  0.17300000000E+03 0. -1.
         -6    1    1    2    0  501 -0.22328161843E+02 -0.57633385784E+02  0.38572506929E+02  0.18771518921E+03  0.17300000000E+03 0.  1.
</event>
<event>
 4    1  0.5880538E-001  0.1000000E+03  0.7546771E-02  0.1280296E+00
          1   -1    0    0  502    0  0.00000000000E+00  0.00000000000E+00  0.52745895225E+03  0.52745895225E+03  0.00000000000E+00 0.  1.
         -1   -1    0    0    0  501 -0.00000000000E+00 -0.00000000000E+00 -0.17797747893E+03  0.17797747893E+03  0.00000000000E+00 0. -1.
          6    1    1    2  502    0 -0.74310534676E+02  0.13951264979E+03 -0.52489417510E+02  0.24014573485E+03  0.17300000000E+03 0. -1.
         -6    1    1    2    0  501  0.74310534676E+02 -0.13951264979E+03  0.40197089083E+03  0.46529069633E+03  0.17300000000E+03 0.  1.
</event>
<event>
 4    1  0.5880538E-001  0.1000000E+03  0.7546771E-02  0.1280296E+00
          2   -1    0    0  502    0  0.00000000000E+00  0.00000000000E+00  0.75308879210E+03  0.75308879210E+03  0.00000000000E+00 0.  1.
         -2   -1    0    0    0  501 -0.00000000000E+00 -0.00000000000E+00 -0.54966186554E+02  0.54966186554E+02  0.00000000000E+00 0. -1.
          6    1    1    2  502    0  0.67899982913E+02  0.81337776980E+02  0.31834986955E+03  0.37749421332E+03  0.17300000000E+03 0. -1.
         -6    1    1    2    0  501 -0.67899982913E+02 -0.81337776980E+02  0.37977273599E+03  0.43056076534E+03  0.17300000000E+03 0.  1.
</event>
<event>
 4    1  0.5880538E-001  0.1000000E+03  0.7546771E-02  0.1280296E+00
          1   -1    0    0  502    0  0.00000000000E+00  0.00000000000E+00  0.18802406714E+04  0.18802406714E+04  0.00000000000E+00 0. -1.
         -1   -1    0    0    0  501 -0.00000000000E+00 -0.00000000000E+00 -0.47679298274E+02  0.47679298274E+02  0.00000000000E+00 0.  1.
          6    1    1    2  502    0 -0.92910284295E+02 -0.19547280685E+03  0.12816273149E+04  0.13112358725E+04  0.17300000000E+03 0. -1.
         -6    1    1    2    0  501  0.92910284295E+02  0.19547280685E+03  0.55093405827E+03  0.61668409717E+03  0.17300000000E+03 0.  1.
</event>
<event>
 4    1  0.5880538E-001  0.1000000E+03  0.7546771E-02  0.1280296E+00
          2   -1    0    0  502    0  0.00000000000E+00  0.00000000000E+00  0.31907409686E+04  0.31907409686E+04  0.00000000000E+00 0. -1.
         -2   -1    0    0    0  501 -0.00000000000E+00 -0.00000000000E+00 -0.12968725635E+02  0.12968725635E+02  0.00000000000E+00 0.  1.
          6    1    1    2  502    0  0.10037451204E+03  0.37087246681E+02  0.15843103149E+04  0.15973160865E+04  0.17300000000E+03 0. -1.
         -6    1    1    2    0  501 -0.10037451204E+03 -0.37087246681E+02  0.15934619281E+04  0.16063936077E+04  0.17300000000E+03 0.  1.
</event>
<event>
 4    1  0.5880538E-001  0.1000000E+03  0.7546771E-02  0.1280296E+00
          1   -1    0    0  502    0  0.00000000000E+00  0.00000000000E+00  0.15879321225E+03  0.15879321225E+03  0.00000000000E+00 0. -1.
         -1   -1    0    0    0  501 -0.00000000000E+00 -0.00000000000E+00 -0.28065866699E+03  0.28065866699E+03  0.00000000000E+00 0.  1.
          6    1    1    2  502    0  0.79591959739E+02 -0.72446101406E+02 -0.11845515597E+03  0.23567762227E+03  0.17300000000E+03 0. -1.
         -6    1    1    2    0  501 -0.79591959739E+02  0.72446101406E+02 -0.34102987665E+01  0.20377425697E+03  0.17300000000E+03 0.  1.
</event>
<event>
 4    1  0.5880538E-001  0.1000000E+03  0.7546771E-02  0.1280296E+00
          2   -1    0    0  502    0  0.00000000000E+00  0.00000000000E+00  0.27167153175E+02  0.27167153175E+02  0.00000000000E+00 0. -1.
         -2   -1    0    0    0  501 -0.00000000000E+00 -0.00000000000E+00 -0.13465129205E+04  0.13465129205E+04  0.00000000000E+00 0.  1.
          6    1    1    2  502    0 -0.78491498027E+02 -0.17940802770E+02 -0.70637592260E+03  0.73169579177E+03  0.17300000000E+03 0. -1.
         -6    1    1    2    0  501  0.78491498027E+02  0.17940802770E+02 -0.61296984469E+03  0.64198428186E+03  0.17300000000E+03 0.  1.
</event>
<event>
 4    1  0.5880538E-001  0.1000000E+03  0.7546771E-02  0.1280296E+00
         -1   -1    0    0    0  501 -0.00000000000E+00  0.00000000000E+00  0.23795441214E+03  0.23795441214E+03  0.00000000000E+00 0.  1.
          1   -1    0    0  502    0  0.00000000000E+00 -0.00000000000E+00 -0.23072328608E+03  0.23072328608E+03  0.00000000000E+00 0. -1.
          6    1    1    2  502    0  0.10419488442E+03  0.61987514587E+02  0.10498638815E+03  0.23590287747E+03  0.17300000000E+03 0. -1.
         -6    1    1    2    0  501 -0.10419488442E+03 -0.61987514587E+02 -0.97755262094E+02  0.23277482074E+03  0.17300000000E+03 0.  1.
</event>
<event>
 4    1  0.5880538E-001  0.1000000E+03  0.7546771E-02  0.1280296E+00
         -1   -1    0    0    0  501 -0.00000000000E+00  0.00000000000E+00  0.15538945275E+03  0.15538945275E+03  0.00000000000E+00 0. -1.
          1   -1    0    0  502    0  0.00000000000E+00 -0.00000000000E+00 -0.45930021146E+03  0.45930021146E+03  0.00000000000E+00 0.  1.
          6    1    1    2  502    0  0.13525054233E+03 -0.12368887770E+03 -0.50027019411E+02  0.25695009309E+03  0.17300000000E+03 0. -1.
         -6    1    1    2    0  501 -0.13525054233E+03  0.12368887770E+03 -0.25388373929E+03  0.35773957112E+03  0.17300000000E+03 0.  1.
</event>
<event>
 4    1  0.5880538E-001  0.1000000E+03  0.7546771E-02  0.1280296E+00
          2   -1    0    0  502    0  0.00000000000E+00  0.00000000000E+00  0.17089787851E+03  0.17089787851E+03  0.00000000000E+00 0.  1.
         -2   -1    0    0    0  501 -0.00000000000E+00 -0.00000000000E+00 -0.33115272244E+03  0.33115272244E+03  0.00000000000E+00 0. -1.
          6    1    1    2  502    0 -0.11038717736E+03 -0.11624075598E+03 -0.47313307885E+02  0.24055101617E+03  0.17300000000E+03 0.  1.
         -6    1    1    2    0  501  0.11038717736E+03  0.11624075598E+03 -0.11294153605E+03  0.26149958478E+03  0.17300000000E+03 0. -1.
</event>
<event>
 4    1  0.5880538E-001  0.1000000E+03  0.7546771E-02  0.1280296E+00
          1   -1    0    0  502    0  0.00000000000E+00  0.00000000000E+00  0.75012119825E+02  0.75012119825E+02  0.00000000000E+00 0.  1.
         -1   -1    0    0    0  501 -0.00000000000E+00 -0.00000000000E+00 -0.62815589696E+03  0.62815589696E+03  0.00000000000E+00 0. -1.
          6    1    1    2  502    0  0.37377550176E+02  0.19539089856E+02 -0.75499981219E+02  0.19341174849E+03  0.17300000000E+03 0.  1.
         -6    1    1    2    0  501 -0.37377550176E+02 -0.19539089856E+02 -0.47764379592E+03  0.50975626830E+03  0.17300000000E+03 0. -1.
</event>
<event>
 4    1  0.5880538E-001  0.1000000E+03  0.7546771E-02  0.1280296E+00
          2   -1    0    0  502    0  0.00000000000E+00  0.00000000000E+00  0.17478819091E+04  0.17478819091E+04  0.00000000000E+00 0.  1.
         -2   -1    0    0    0  501 -0.00000000000E+00 -0.00000000000E+00 -0.24696205164E+02  0.24696205164E+02  0.00000000000E+00 0. -1.
          6    1    1    2  502    0 -0.56305575845E+02 -0.37481070580E+02  0.12586114549E+04  0.12722448440E+04  0.17300000000E+03 0.  1.
         -6    1    1    2    0  501  0.56305575845E+02  0.37481070580E+02  0.46457424898E+03  0.50033327027E+03  0.17300000000E+03 0. -1.
</event>
<event>
 4    1  0.5880538E-001  0.1000000E+03  0.7546771E-02  0.1280296E+00
         -2   -1    0    0    0  501 -0.00000000000E+00  0.00000000000E+00  0.41156958667E+02  0.41156958667E+02  0.00000000000E+00 0.  1.
          2   -1    0    0  502    0  0.00000000000E+00 -0.00000000000E+00 -0.94767035097E+03  0.94767035097E+03  0.00000000000E+00 0. -1.
          6    1    1    2  502    0  0.92251909587E+02  0.23394303210E+02 -0.44308106817E+03  0.48508508657E+03  0.17300000000E+03 0. -1.
         -6    1    1    2    0  501 -0.92251909587E+02 -0.23394303210E+02 -0.46343232414E+03  0.50374222307E+03  0.17300000000E+03 0.  1.
</event>
<event>
 4    1  0.5880538E-001  0.1000000E+03  0.7546771E-02  0.1280296E+00
          2   -1    0    0  502    0  0.00000000000E+00  0.00000000000E+00  0.53040566588E+03  0.53040566588E+03  0.00000000000E+00 0. -1.
         -2   -1    0    0    0  501 -0.00000000000E+00 -0.00000000000E+00 -0.96115627852E+02  0.96115627852E+02  0.00000000000E+00 0.  1.
          6    1    1    2  502    0 -0.67570707569E+02  0.12764622656E+03  0.19792481508E+03  0.29993764702E+03  0.17300000000E+03 0.  1.
         -6    1    1    2    0  501  0.67570707569E+02 -0.12764622656E+03  0.23636522294E+03  0.32658364670E+03  0.17300000000E+03 0. -1.
</event>
<event>
 4    1  0.5880538E-001  0.1000000E+03  0.7546771E-02  0.1280296E+00
          1   -1    0    0  502    0  0.00000000000E+00  0.00000000000E+00  0.58191914422E+03  0.58191914422E+03  0.00000000000E+00 0. -1.
         -1   -1    0    0    0  501 -0.00000000000E+00 -0.00000000000E+00 -0.19014046023E+03  0.19014046023E+03  0.00000000000E+00 0.  1.
          6    1    1    2  502    0 -0.12134290262E+03  0.15422722734E+03  0.43431099735E+03  0.50701595644E+03  0.17300000000E+03 0.  1.
         -6    1    1    2    0  501  0.12134290262E+03 -0.15422722734E+03 -0.42532313358E+02  0.26504364801E+03  0.17300000000E+03 0. -1.
</event>
<event>
 4    1  0.5880538E-001  0.1000000E+03  0.7546771E-02  0.1280296E+00
         -1   -1    0    0    0  501 -0.00000000000E+00  0.00000000000E+00  0.12124484307E+03  0.12124484307E+03  0.00000000000E+00 0.  1.
          1   -1    0    0  502    0  0.00000000000E+00 -0.00000000000E+00 -0.41552830759E+03  0.41552830759E+03  0.00000000000E+00 0. -1.
          6    1    1    2  502    0 -0.39861607234E+02  0.67352530395E+02 -0.40229367117E+01  0.18992233966E+03  0.17300000000E+03 0. -1.
         -6    1    1    2    0  501  0.39861607234E+02 -0.67352530395E+02 -0.29026052781E+03  0.34685081099E+03  0.17300000000E+03 0.  1.
</event>
<event>
 4    1  0.5880538E-001  0.1000000E+03  0.7546771E-02  0.1280296E+00
         -2   -1    0    0    0  501 -0.00000000000E+00  0.00000000000E+00  0.12652669417E+03  0.12652669417E+03  0.00000000000E+00 0.  1.
          2   -1    0    0  502    0  0.00000000000E+00 -0.00000000000E+00 -0.32829899066E+03  0.32829899066E+03  0.00000000000E+00 0. -1.
          6    1    1    2  502    0 -0.63584954249E+02 -0.19854481668E+01 -0.19792030312E+03  0.27045967315E+03  0.17300000000E+03 0. -1.
         -6    1    1    2    0  501  0.63584954249E+02  0.19854481668E+01 -0.38519933786E+01  0.18436601168E+03  0.17300000000E+03 0.  1.
</event>
<event>
 4    1  0.5880538E-001  0.1000000E+03  0.7546771E-02  0.1280296E+00
         -2   -1    0    0    0  501 -0.00000000000E+00  0.00000000000E+00  0.43692180322E+02  0.43692180322E+02  0.00000000000E+00 0.  1.
          2   -1    0    0  502    0  0.00000000000E+00 -0.00000000000E+00 -0.15976547676E+04  0.15976547676E+04  0.00000000000E+00 0. -1.
          6    1    1    2  502    0  0.19904054446E+03 -0.15288724146E+02 -0.76140795181E+03  0.80592924783E+03  0.17300000000E+03 0. -1.
         -6    1    1    2    0  501 -0.19904054446E+03  0.15288724146E+02 -0.79255463547E+03  0.83541770010E+03  0.17300000000E+03 0.  1.
</event>
<event>
 4    1  0.5880538E-001  0.1000000E+03  0.7546771E-02  0.1280296E+00
         -2   -1    0    0    0  501 -0.00000000000E+00  0.00000000000E+00  0.19255021321E+02  0.19255021321E+02  0.00000000000E+00 0.  1.
          2   -1    0    0  502    0  0.00000000000E+00 -0.00000000000E+00 -0.28202092944E+04  0.28202092944E+04  0.00000000000E+00 0. -1.
          6    1    1    2  502    0 -0.13940345076E+02 -0.14196759661E+03 -0.10139501331E+04  0.10384474007E+04  0.17300000000E+03 0. -1.
         -6    1    1    2    0  501  0.13940345076E+02  0.14196759661E+03 -0.17870041400E+04  0.18010169150E+04  0.17300000000E+03 0.  1.
</event>
<event>
 4    1  0.5880538E-001  0.1000000E+03  0.7546771E-02  0.1280296E+00
         -2   -1    0    0    0  501 -0.00000000000E+00  0.00000000000E+00  0.56927710605E+03  0.56927710605E+03  0.00000000000E+00 0.  1.
          2   -1    0    0  502    0  0.00000000000E+00 -0.00000000000E+00 -0.10386831628E+03  0.10386831628E+03  0.00000000000E+00 0. -1.
          6    1    1    2  502    0 -0.10949140344E+03  0.13119300485E+03  0.23400470443E+03  0.33747173755E+03  0.17300000000E+03 0. -1.
         -6    1    1    2    0  501  0.10949140344E+03 -0.13119300485E+03  0.23140408533E+03  0.33567368478E+03  0.17300000000E+03 0.  1.
</event>
<event>
 4    1  0.5880538E-001  0.1000000E+03  0.7546771E-02  0.1280296E+00
         -2   -1    0    0    0  501 -0.00000000000E+00  0.00000000000E+00  0.14617237288E+04  0.14617237288E+04  0.00000000000E+00 0.  1.
          2   -1    0    0  502    0  0.00000000000E+00 -0.00000000000E+00 -0.34530568671E+02  0.34530568671E+02  0.00000000000E+00 0. -1.
          6    1    1    2  502    0 -0.75092211145E+02  0.10938709084E+03  0.89417749844E+03  0.92037317135E+03  0.17300000000E+03 0. -1.
         -6    1    1    2    0  501  0.75092211145E+02 -0.10938709084E+03  0.53301566165E+03  0.57588112608E+03  0.17300000000E+03 0.  1.
</event>
<event>
 4    1  0.5880538E-001  0.1000000E+03  0.7546771E-02  0.1280296E+00
         -1   -1    0    0    0  501 -0.00000000000E+00  0.00000000000E+00  0.94366883272E+02  0.94366883272E+02  0.00000000000E+00 0. -1.
          1   -1    0    0  502    0  0.00000000000E+00 -0.00000000000E+00 -0.37303690722E+03  0.37303690722E+03  0.00000000000E+00 0.  1.
          6    1    1    2  502    0  0.10904364767E+02  0.37938881733E+02 -0.21525564415E+03  0.27896640704E+03  0.17300000000E+03 0.  1.
         -6    1    1    2    0  501 -0.10904364767E+02 -0.37938881733E+02 -0.63414379804E+02  0.18843738346E+03  0.17300000000E+03 0. -1.
</event>
<event>
 4    1  0.5880538E-001  0.1000000E+03  0.7546771E-02  0.1280296E+00
         -2   -1    0    0    0  501 -0.00000000000E+00  0.00000000000E+00  0.29101318273E+03  0.29101318273E+03  0.00000000000E+00 0. -1.
          2   -1    0    0  502    0  0.00000000000E+00 -0.00000000000E+00 -0.13234583130E+03  0.13234583130E+03  0.00000000000E+00 0.  1.
          6    1    1    2  502    0  0.66963972954E+02  0.16563618582E+02  0.12608715526E+02  0.18667219086E+03  0.17300000000E+03 0.  1.
         -6    1    1    2    0  501 -0.66963972954E+02 -0.16563618582E+02  0.14605863590E+03  0.23668682316E+03  0.17300000000E+03 0. -1.
</event>
<event>
 4    1  0.5880538E-001  0.1000000E+03  0.7546771E-02  0.1280296E+00
         -1   -1    0    0    0  501 -0.00000000000E+00  0.00000000000E+00  0.12663200597E+03  0.12663200597E+03  0.00000000000E+00 0. -1.
          1   -1    0    0  502    0  0.00000000000E+00 -0.00000000000E+00 -0.24466770041E+03  0.24466770041E+03  0.00000000000E+00 0.  1.
          6    1    1    2  502    0 -0.73799279262E+01 -0.11916034806E+02 -0.28136047708E+02  0.17583256923E+03  0.17300000000E+03 0.  1.
         -6    1    1    2    0  501  0.73799279262E+01  0.11916034806E+02 -0.89899646739E+02  0.19546713715E+03  0.17300000000E+03 0. -1.
</event>
<event>
 4    1  0.5880538E-001  0.1000000E+03  0.7546771E-02  0.1280296E+00
         -3   -1    0    0    0  501 -0.00000000000E+00  0.00000000000E+00  0.47361466567E+02  0.47361466567E+02  0.00000000000E+00 0. -1.
          3   -1    0    0  502    0  0.00000000000E+00 -0.00000000000E+00 -0.14428754231E+04  0.14428754231E+04  0.00000000000E+00 0.  1.
          6    1    1    2  502    0 -0.13137429678E+02 -0.38448503620E+02 -0.15128578814E+03  0.23338223836E+03  0.17300000000E+03 0.  1.
         -6    1    1    2    0  501  0.13137429678E+02  0.38448503620E+02 -0.12442281684E+04  0.12568546513E+04  0.17300000000E+03 0. -1.
</event>
<event>
 4    1  0.5880538E-001  0.1000000E+03  0.7546771E-02  0.1280296E+00
         -2   -1    0    0    0  501 -0.00000000000E+00  0.00000000000E+00  0.17097028777E+03  0.17097028777E+03  0.00000000000E+00 0. -1.
          2   -1    0    0  502    0  0.00000000000E+00 -0.00000000000E+00 -0.17966619871E+03  0.17966619871E+03  0.00000000000E+00 0.  1.
          6    1    1    2  502    0  0.20817663049E+02  0.17593006994E+02  0.24137621787E+01  0.17515055021E+03  0.17300000000E+03 0.  1.
         -6    1    1    2    0  501 -0.20817663049E+02 -0.17593006994E+02 -0.11109673120E+02  0.17548593626E+03  0.17300000000E+03 0. -1.
</event>
<event>
 4    1  0.5880538E-001  0.1000000E+03  0.7546771E-02  0.1280296E+00
         -2   -1    0    0    0  501 -0.00000000000E+00  0.00000000000E+00  0.69314245333E+02  0.69314245333E+02  0.00000000000E+00 0. -1.
          2   -1    0    0  502    0  0.00000000000E+00 -0.00000000000E+00 -0.61801526956E+03  0.61801526956E+03  0.00000000000E+00 0.  1.
          6    1    1    2  502    0  0.30171812632E+02 -0.87435772617E+02 -0.16480011413E+03  0.25620973874E+03  0.17300000000E+03 0.  1.
         -6    1    1    2    0  501 -0.30171812632E+02  0.87435772617E+02 -0.38390091010E+03  0.43111977615E+03  0.17300000000E+03 0. -1.
</event>
<event>
 4    1  0.5880538E-001  0.1000000E+03  0.7546771E-02  0.1280296E+00
         -2   -1    0    0    0  501 -0.00000000000E+00  0.00000000000E+00  0.59124446516E+02  0.59124446516E+02  0.00000000000E+00 0.  1.
          2   -1    0    0  502    0  0.00000000000E+00 -0.00000000000E+00 -0.74495048746E+03  0.74495048746E+03  0.00000000000E+00 0. -1.
          6    1    1    2  502    0  0.77739249791E+02  0.83285768279E+02 -0.27834989165E+03  0.34696912303E+03  0.17300000000E+03 0. -1.
         -6    1    1    2    0  501 -0.77739249791E+02 -0.83285768279E+02 -0.40747614930E+03  0.45710581095E+03  0.17300000000E+03 0.  1.
</event>
<event>
 4    1  0.5880538E-001  0.1000000E+03  0.7546771E-02  0.1280296E+00
         -1   -1    0    0    0  501 -0.00000000000E+00  0.00000000000E+00  0.44393162256E+02  0.44393162256E+02  0.00000000000E+00 0.  1.
          1   -1    0    0  502    0  0.00000000000E+00 -0.00000000000E+00 -0.92345403260E+03  0.92345403260E+03  0.00000000000E+00 0. -1.
          6    1    1    2  502    0  0.55542573865E+02  0.84850778856E+02 -0.37271892312E+03  0.42324109894E+03  0.17300000000E+03 0. -1.
         -6    1    1    2    0  501 -0.55542573865E+02 -0.84850778856E+02 -0.50634194723E+03  0.54460609591E+03  0.17300000000E+03 0.  1.
</event>
<event>
 4    1  0.5880538E-001  0.1000000E+03  0.7546771E-02  0.1280296E+00
         -2   -1    0    0    0  501 -0.00000000000E+00  0.00000000000E+00  0.19923589815E+02  0.19923589815E+02  0.00000000000E+00 0.  1.
          2   -1    0    0  502    0  0.00000000000E+00 -0.00000000000E+00 -0.23074626469E+04  0.23074626469E+04  0.00000000000E+00 0. -1.
          6    1    1    2  502    0 -0.67424994628E+02  0.99093076021E+02 -0.13661165935E+04  0.13822333792E+04  0.17300000000E+03 0. -1.
         -6    1    1    2    0  501  0.67424994628E+02 -0.99093076021E+02 -0.92142246357E+03  0.94515285748E+03  0.17300000000E+03 0.  1.
</event>
<event>
 4    1  0.5880538E-001  0.1000000E+03  0.7546771E-02  0.1280296E+00
          2   -1    0    0  502    0  0.00000000000E+00  0.00000000000E+00  0.32511296677E+03  0.32511296677E+03  0.00000000000E+00 0.  1.
         -2   -1    0    0    0  501 -0.00000000000E+00 -0.00000000000E+00 -0.15069167586E+03  0.15069167586E+03  0.00000000000E+00 0. -1.
          6    1    1    2  502    0  0.11870709633E+03 -0.27778997890E+01  0.11485377546E+02  0.21014282130E+03  0.17300000000E+03 0.  1.
         -6    1    1    2    0  501 -0.11870709633E+03  0.27778997890E+01  0.16293591337E+03  0.26566182133E+03  0.17300000000E+03 0. -1.
</event>
<event>
 4    1  0.5880538E-001  0.1000000E+03  0.7546771E-02  0.1280296E+00
          2   -1    0    0  502    0  0.00000000000E+00  0.00000000000E+00  0.15821385263E+03  0.15821385263E+03  0.00000000000E+00 0.  1.
         -2   -1    0    0    0  501 -0.00000000000E+00 -0.00000000000E+00 -0.36789829233E+03  0.36789829233E+03  0.00000000000E+00 0. -1.
          6    1    1    2  502    0 -0.60613614382E+02  0.15371620431E+03 -0.13888677649E+03  0.27662468870E+03  0.17300000000E+03 0.  1.
         -6    1    1    2    0  501  0.60613614382E+02 -0.15371620431E+03 -0.70797663206E+02  0.24948745626E+03  0.17300000000E+03 0. -1.
</event>
<event>
 4    1  0.5880538E-001  0.1000000E+03  0.7546771E-02  0.1280296E+00
          2   -1    0    0  502    0  0.00000000000E+00  0.00000000000E+00  0.11997573598E+04  0.11997573598E+04  0.00000000000E+00 0.  1.
         -2   -1    0    0    0  501 -0.00000000000E+00 -0.00000000000E+00 -0.28022872078E+02  0.28022872078E+02  0.00000000000E+00 0. -1.
          6    1    1    2  502    0  0.24984956050E+02  0.13013644294E+02  0.76610264556E+03  0.78589812731E+03  0.17300000000E+03 0.  1.
         -6    1    1    2    0  501 -0.24984956050E+02 -0.13013644294E+02  0.40563184215E+03  0.44188210457E+03  0.17300000000E+03 0. -1.
</event>
<event>
 4    1  0.5880538E-001  0.1000000E+03  0.7546771E-02  0.1280296E+00
          2   -1    0    0  502    0  0.00000000000E+00  0.00000000000E+00  0.26888024121E+04  0.26888024121E+04  0.00000000000E+00 0.  1.
         -2   -1    0    0    0  501 -0.00000000000E+00 -0.00000000000E+00 -0.18332348606E+02  0.18332348606E+02  0.00000000000E+00 0. -1.
          6    1    1    2  502    0  0.12431750175E+03 -0.35451597974E+01  0.95471146713E+03  0.97819752344E+03  0.17300000000E+03 0.  1.
         -6    1    1    2    0  501 -0.12431750175E+03  0.35451597974E+01  0.17157585964E+04  0.17289372373E+04  0.17300000000E+03 0.  1.
</event>
<event>
 4    1  0.5880538E-001  0.1000000E+03  0.7546771E-02  0.1280296E+00
          1   -1    0    0  502    0  0.00000000000E+00  0.00000000000E+00  0.15763559300E+04  0.15763559300E+04  0.00000000000E+00 0.  1.
         -1   -1    0    0    0  501 -0.00000000000E+00 -0.00000000000E+00 -0.23829652427E+02  0.23829652427E+02  0.00000000000E+00 0. -1.
          6    1    1    2  502    0 -0.18401667796E+02 -0.41580741333E+02  0.10842852681E+04  0.10989409093E+04  0.17300000000E+03 0.  1.
         -6    1    1    2    0  501  0.18401667796E+02  0.41580741333E+02  0.46824100950E+03  0.50124467319E+03  0.17300000000E+03 0.  1.
</event>
<event>
 4    1  0.5880538E-001  0.1000000E+03  0.7546771E-02  0.1280296E+00
          2   -1    0    0  502    0  0.00000000000E+00  0.00000000000E+00  0.84282458344E+03  0.84282458344E+03  0.00000000000E+00 0. -1.
         -2   -1    0    0    0  501 -0.00000000000E+00 -0.00000000000E+00 -0.19416075314E+04  0.19416075314E+04  0.00000000000E+00 0.  1.
          6    1    1    2  502    0  0.88672668861E+03  0.15430812467E+03  0.42184674194E+03  0.10089493998E+04  0.17300000000E+03 0. -1.
         -6    1    1    2    0  501 -0.88672668861E+03 -0.15430812467E+03 -0.15206296899E+04  0.17754827150E+04  0.17300000000E+03 0. -1.
</event>
<event>
 4    1  0.5880538E-001  0.1000000E+03  0.7546771E-02  0.1280296E+00
          2   -1    0    0  502    0  0.00000000000E+00  0.00000000000E+00  0.19369995147E+04  0.19369995147E+04  0.00000000000E+00 0. -1.
         -2   -1    0    0    0  501 -0.00000000000E+00 -0.00000000000E+00 -0.23443423817E+02  0.23443423817E+02  0.00000000000E+00 0.  1.
          6    1    1    2  502    0  0.10929001192E+03 -0.45055591163E+02  0.11353224002E+04  0.11544956757E+04  0.17300000000E+03 0. -1.
         -6    1    1    2    0  501 -0.10929001192E+03  0.45055591163E+02  0.77823369071E+03  0.80594726276E+03  0.17300000000E+03 0. -1.
</event>
<event>
 4    1  0.5880538E-001  0.1000000E+03  0.7546771E-02  0.1280296E+00
          2   -1    0    0  502    0  0.00000000000E+00  0.00000000000E+00  0.26962309017E+03  0.26962309017E+03  0.00000000000E+00 0. -1.
         -2   -1    0    0    0  501 -0.00000000000E+00 -0.00000000000E+00 -0.14004597016E+03  0.14004597016E+03  0.00000000000E+00 0.  1.
          6    1    1    2  502    0  0.78552125803E+02 -0.26470216176E+02  0.97441025639E+02  0.21516240910E+03  0.17300000000E+03 0. -1.
         -6    1    1    2    0  501 -0.78552125803E+02  0.26470216176E+02  0.32136094375E+02  0.19450665123E+03  0.17300000000E+03 0. -1.
</event>
<event>
 4    1  0.5880538E-001  0.1000000E+03  0.7546771E-02  0.1280296E+00
         -2   -1    0    0    0  501 -0.00000000000E+00  0.00000000000E+00  0.77683220320E+02  0.77683220320E+02  0.00000000000E+00 0.  1.
          2   -1    0    0  502    0  0.00000000000E+00 -0.00000000000E+00 -0.82384061401E+03  0.82384061401E+03  0.00000000000E+00 0. -1.
          6    1    1    2  502    0 -0.10865498994E+03  0.76778328145E+02 -0.14511269819E+03  0.26208302823E+03  0.17300000000E+03 0.  1.
         -6    1    1    2    0  501  0.10865498994E+03 -0.76778328145E+02 -0.60104469551E+03  0.63944080610E+03  0.17300000000E+03 0. -1.
</event>
<event>
 4    1  0.5880538E-001  0.1000000E+03  0.7546771E-02  0.1280296E+00
          2   -1    0    0  502    0  0.00000000000E+00  0.00000000000E+00  0.10573104892E+04  0.10573104892E+04  0.00000000000E+00 0. -1.
         -2   -1    0    0    0  501 -0.00000000000E+00 -0.00000000000E+00 -0.35613053507E+02  0.35613053507E+02  0.00000000000E+00 0.  1.
          6    1    1    2  502    0  0.74461592180E+02 -0.94240415874E+01  0.63964550660E+03  0.66686484041E+03  0.17300000000E+03 0. -1.
         -6    1    1    2    0  501 -0.74461592180E+02  0.94240415874E+01  0.38205192905E+03  0.42605870225E+03  0.17300000000E+03 0. -1.
</event>
<event>
 4    1  0.5880538E-001  0.1000000E+03  0.7546771E-02  0.1280296E+00
          1   -1    0    0  502    0  0.00000000000E+00  0.00000000000E+00  0.39877020488E+03  0.39877020488E+03  0.00000000000E+00 0. -1.
         -1   -1    0    0    0  501 -0.00000000000E+00 -0.00000000000E+00 -0.94579517852E+02  0.94579517852E+02  0.00000000000E+00 0.  1.
          6    1    1    2  502    0  0.48456167625E+02  0.72998710988E+02  0.13879287839E+03  0.23847279736E+03  0.17300000000E+03 0. -1.
         -6    1    1    2    0  501 -0.48456167625E+02 -0.72998710988E+02  0.16539780863E+03  0.25487692537E+03  0.17300000000E+03 0. -1.
</event>
<event>
 4    1  0.5880538E-001  0.1000000E+03  0.7546771E-02  0.1280296E+00
          1   -1    0    0  502    0  0.00000000000E+00  0.00000000000E+00  0.59329409659E+03  0.59329409659E+03  0.00000000000E+00 0. -1.
         -1   -1    0    0    0  501 -0.00000000000E+00 -0.00000000000E+00 -0.70938611720E+02  0.70938611720E+02  0.00000000000E+00 0.  1.
          6    1    1    2  502    0  0.76515255785E+02  0.33676978200E+02  0.37757643503E+03  0.42365279123E+03  0.17300000000E+03 0. -1.
         -6    1    1    2    0  501 -0.76515255785E+02 -0.33676978200E+02  0.14477904984E+03  0.24057991708E+03  0.17300000000E+03 0. -1.
</event>
<event>
 4    1  0.5880538E-001  0.1000000E+03  0.7546771E-02  0.1280296E+00
          2   -1    0    0  502    0  0.00000000000E+00  0.00000000000E+00  0.15708527988E+04  0.15708527988E+04  0.00000000000E+00 0. -1.
         -2   -1    0    0    0  501 -0.00000000000E+00 -0.00000000000E+00 -0.28145323344E+02  0.28145323344E+02  0.00000000000E+00 0.  1.
          6    1    1    2  502    0 -0.53084489575E+02 -0.74110625967E+02  0.47749641631E+03  0.51598660400E+03  0.17300000000E+03 0.  1.
         -6    1    1    2    0  501  0.53084489575E+02  0.74110625967E+02  0.10652110591E+04  0.10830115181E+04  0.17300000000E+03 0. -1.
</event>
<event>
 4    1  0.5880538E-001  0.1000000E+03  0.7546771E-02  0.1280296E+00
          2   -1    0    0  502    0  0.00000000000E+00  0.00000000000E+00  0.53963453760E+03  0.53963453760E+03  0.00000000000E+00 0. -1.
         -2   -1    0    0    0  501 -0.00000000000E+00 -0.00000000000E+00 -0.48036872241E+03  0.48036872241E+03  0.00000000000E+00 0.  1.
          6    1    1    2  502    0  0.32266958009E+03 -0.68336205706E+02 -0.31809871016E+03  0.48979718694E+03  0.17300000000E+03 0.  1.
         -6    1    1    2    0  501 -0.32266958009E+03  0.68336205706E+02  0.37736452535E+03  0.53020607307E+03  0.17300000000E+03 0. -1.
</event>
<event>
 4    1  0.5880538E-001  0.1000000E+03  0.7546771E-02  0.1280296E+00
         -2   -1    0    0    0  501 -0.00000000000E+00  0.00000000000E+00  0.23152300648E+03  0.23152300648E+03  0.00000000000E+00 0.  1.
          2   -1    0    0  502    0  0.00000000000E+00 -0.00000000000E+00 -0.19090006699E+03  0.19090006699E+03  0.00000000000E+00 0. -1.
          6    1    1    2  502    0 -0.88105437827E+02  0.75796438650E+02  0.48027771915E+02  0.21387691592E+03  0.17300000000E+03 0.  1.
         -6    1    1    2    0  501  0.88105437827E+02 -0.75796438650E+02 -0.74048324219E+01  0.20854615755E+03  0.17300000000E+03 0. -1.
</event>
<event>
 4    1  0.5880538E-001  0.1000000E+03  0.7546771E-02  0.1280296E+00
         -1   -1    0    0    0  501 -0.00000000000E+00  0.00000000000E+00  0.47451907735E+03  0.47451907735E+03  0.00000000000E+00 0.  1.
          1   -1    0    0  502    0  0.00000000000E+00 -0.00000000000E+00 -0.88722202161E+02  0.88722202161E+02  0.00000000000E+00 0. -1.
          6    1    1    2  502    0 -0.55818433785E+02  0.51696967948E+02  0.30255570711E+03  0.35673131339E+03  0.17300000000E+03 0.  1.
         -6    1    1    2    0  501  0.55818433785E+02 -0.51696967948E+02  0.83241168076E+02  0.20650996612E+03  0.17300000000E+03 0. -1.
</event>
<event>
 4    1  0.5880538E-001  0.1000000E+03  0.7546771E-02  0.1280296E+00
          2   -1    0    0  502    0  0.00000000000E+00  0.00000000000E+00  0.55745044497E+03  0.55745044497E+03  0.00000000000E+00 0.  1.
         -2   -1    0    0    0  501 -0.00000000000E+00 -0.00000000000E+00 -0.90349398241E+02  0.90349398241E+02  0.00000000000E+00 0. -1.
          6    1    1    2  502    0  0.69857636167E+01  0.13282147254E+03  0.15792075035E+03  0.26936649356E+03  0.17300000000E+03 0.  1.
         -6    1    1    2    0  501 -0.69857636167E+01 -0.13282147254E+03  0.30918029638E+03  0.37843334966E+03  0.17300000000E+03 0. -1.
</event>
<event>
 4    1  0.5880538E-001  0.1000000E+03  0.7546771E-02  0.1280296E+00
          1   -1    0    0  502    0  0.00000000000E+00  0.00000000000E+00  0.54474396160E+03  0.54474396160E+03  0.00000000000E+00 0.  1.
         -1   -1    0    0    0  501 -0.00000000000E+00 -0.00000000000E+00 -0.85343596125E+02  0.85343596125E+02  0.00000000000E+00 0. -1.
          6    1    1    2  502    0  0.12788214454E+03  0.83260452783E+01  0.24687967698E+03  0.32756944428E+03  0.17300000000E+03 0.  1.
         -6    1    1    2    0  501 -0.12788214454E+03 -0.83260452783E+01  0.21252068849E+03  0.30251811344E+03  0.17300000000E+03 0. -1.
</event>
<event>
 4    1  0.5880538E-001  0.1000000E+03  0.7546771E-02  0.1280296E+00
          1   -1    0    0  502    0  0.00000000000E+00  0.00000000000E+00  0.11723483059E+03  0.11723483059E+03  0.00000000000E+00 0.  1.
         -1   -1    0    0    0  501 -0.00000000000E+00 -0.00000000000E+00 -0.41692756692E+03  0.41692756692E+03  0.00000000000E+00 0. -1.
          6    1    1    2  502    0 -0.82949246740E+02  0.90179515245E+02 -0.22564133550E+03  0.30960609618E+03  0.17300000000E+03 0.  1.
         -6    1    1    2    0  501  0.82949246740E+02 -0.90179515245E+02 -0.74051400826E+02  0.22455630133E+03  0.17300000000E+03 0. -1.
</event>
<event>
 4    1  0.5880538E-001  0.1000000E+03  0.7546771E-02  0.1280296E+00
          2   -1    0    0  502    0  0.00000000000E+00  0.00000000000E+00  0.87933263698E+03  0.87933263698E+03  0.00000000000E+00 0.  1.
         -2   -1    0    0    0  501 -0.00000000000E+00 -0.00000000000E+00 -0.45994050697E+02  0.45994050697E+02  0.00000000000E+00 0. -1.
          6    1    1    2  502    0 -0.51959128782E+01 -0.99712067064E+02  0.47040529090E+03  0.51105736619E+03  0.17300000000E+03 0.  1.
         -6    1    1    2    0  501  0.51959128782E+01  0.99712067064E+02  0.36293329538E+03  0.41426932149E+03  0.17300000000E+03 0. -1.
</event>
<event>
 4    1  0.5880538E-001  0.1000000E+03  0.7546771E-02  0.1280296E+00
          1   -1    0    0  502    0  0.00000000000E+00  0.00000000000E+00  0.79618675218E+03  0.79618675218E+03  0.00000000000E+00 0.  1.
         -1   -1    0    0    0  501 -0.00000000000E+00 -0.00000000000E+00 -0.37823954830E+02  0.37823954830E+02  0.00000000000E+00 0. -1.
          6    1    1    2  502    0  0.14734799692E+01  0.30014624725E+01  0.34741547003E+03  0.38812071413E+03  0.17300000000E+03 0.  1.
         -6    1    1    2    0  501 -0.14734799692E+01 -0.30014624725E+01  0.41094732732E+03  0.44588999288E+03  0.17300000000E+03 0. -1.
</event>
<event>
 4    1  0.5880538E-001  0.1000000E+03  0.7546771E-02  0.1280296E+00
          2   -1    0    0  502    0  0.00000000000E+00  0.00000000000E+00  0.27889604155E+04  0.27889604155E+04  0.00000000000E+00 0.  1.
         -2   -1    0    0    0  501 -0.00000000000E+00 -0.00000000000E+00 -0.13831317779E+02  0.13831317779E+02  0.00000000000E+00 0. -1.
          6    1    1    2  502    0  0.45024759283E+01 -0.92783855969E+02  0.14168811881E+04  0.14304231603E+04  0.17300000000E+03 0. -1.
         -6    1    1    2    0  501 -0.45024759283E+01  0.92783855969E+02  0.13582479096E+04  0.13723685730E+04  0.17300000000E+03 0.  1.
</event>
<event>
 4    1  0.5880538E-001  0.1000000E+03  0.7546771E-02  0.1280296E+00
          2   -1    0    0  502    0  0.00000000000E+00  0.00000000000E+00  0.16444478886E+04  0.16444478886E+04  0.00000000000E+00 0.  1.
         -2   -1    0    0    0  501 -0.00000000000E+00 -0.00000000000E+00 -0.18973205779E+02  0.18973205779E+02  0.00000000000E+00 0. -1.
          6    1    1    2  502    0  0.52125161041E+01  0.29718709549E+02  0.90221017686E+03  0.91914230413E+03  0.17300000000E+03 0. -1.
         -6    1    1    2    0  501 -0.52125161041E+01 -0.29718709549E+02  0.72326450594E+03  0.74427879022E+03  0.17300000000E+03 0.  1.
</event>
<event>
 4    1  0.5880538E-001  0.1000000E+03  0.7546771E-02  0.1280296E+00
         -2   -1    0    0    0  501 -0.00000000000E+00  0.00000000000E+00  0.18168229970E+02  0.18168229970E+02  0.00000000000E+00 0. -1.
          2   -1    0    0  502    0  0.00000000000E+00 -0.00000000000E+00 -0.16926814525E+04  0.16926814525E+04  0.00000000000E+00 0.  1.
          6    1    1    2  502    0 -0.14895263659E+02 -0.20570299013E+02 -0.90252283447E+03  0.91930488568E+03  0.17300000000E+03 0. -1.
         -6    1    1    2    0  501  0.14895263659E+02  0.20570299013E+02 -0.77199038806E+03  0.79154479679E+03  0.17300000000E+03 0.  1.
</event>
<event>
 4    1  0.5880538E-001  0.1000000E+03  0.7546771E-02  0.1280296E+00
          2   -1    0    0  502    0  0.00000000000E+00  0.00000000000E+00  0.16534458203E+03  0.16534458203E+03  0.00000000000E+00 0. -1.
         -2   -1    0    0    0  501 -0.00000000000E+00 -0.00000000000E+00 -0.25749554848E+03  0.25749554848E+03  0.00000000000E+00 0.  1.
          6    1    1    2  502    0 -0.86857764707E+02 -0.21155534395E+02  0.23829898730E+02  0.19618535113E+03  0.17300000000E+03 0.  1.
         -6    1    1    2    0  501  0.86857764707E+02  0.21155534395E+02 -0.11598086518E+03  0.22665477937E+03  0.17300000000E+03 0. -1.
</event>
<event>
 4    1  0.5880538E-001  0.1000000E+03  0.7546771E-02  0.1280296E+00
          2   -1    0    0  502    0  0.00000000000E+00  0.00000000000E+00  0.12870692721E+03  0.12870692721E+03  0.00000000000E+00 0. -1.
         -2   -1    0    0    0  501 -0.00000000000E+00 -0.00000000000E+00 -0.28049495421E+03  0.28049495421E+03  0.00000000000E+00 0.  1.
          6    1    1    2  502    0 -0.31898773468E+02 -0.68313471576E+02 -0.99691097538E+02  0.21342815437E+03  0.17300000000E+03 0.  1.
         -6    1    1    2    0  501  0.31898773468E+02  0.68313471576E+02 -0.52096929461E+02  0.19577372706E+03  0.17300000000E+03 0. -1.
</event>
<event>
 4    1  0.5880538E-001  0.1000000E+03  0.7546771E-02  0.1280296E+00
          2   -1    0    0  502    0  0.00000000000E+00  0.00000000000E+00  0.99860064868E+03  0.99860064868E+03  0.00000000000E+00 0. -1.
         -2   -1    0    0    0  501 -0.00000000000E+00 -0.00000000000E+00 -0.62648744140E+02  0.62648744140E+02  0.00000000000E+00 0.  1.
          6    1    1    2  502    0  0.16720815350E+03  0.95949496942E+01  0.61157008015E+03  0.65726523762E+03  0.17300000000E+03 0.  1.
         -6    1    1    2    0  501 -0.16720815350E+03 -0.95949496942E+01  0.32438182439E+03  0.40398415520E+03  0.17300000000E+03 0. -1.
</event>
<event>
 4    1  0.5880538E-001  0.1000000E+03  0.7546771E-02  0.1280296E+00
         -2   -1    0    0    0  501 -0.00000000000E+00  0.00000000000E+00  0.19360408041E+02  0.19360408041E+02  0.00000000000E+00 0.  1.
          2   -1    0    0  502    0  0.00000000000E+00 -0.00000000000E+00 -0.16416574320E+04  0.16416574320E+04  0.00000000000E+00 0. -1.
          6    1    1    2  502    0  0.19373689309E+02  0.38452090670E+02 -0.81349923794E+03  0.83280484704E+03  0.17300000000E+03 0.  1.
         -6    1    1    2    0  501 -0.19373689309E+02 -0.38452090670E+02 -0.80879778600E+03  0.82821299299E+03  0.17300000000E+03 0.  1.
</event>
<event>
 4    1  0.5880538E-001  0.1000000E+03  0.7546771E-02  0.1280296E+00
          2   -1    0    0  502    0  0.00000000000E+00  0.00000000000E+00  0.21582817170E+04  0.21582817170E+04  0.00000000000E+00 0. -1.
         -2   -1    0    0    0  501 -0.00000000000E+00 -0.00000000000E+00 -0.40619113909E+03  0.40619113909E+03  0.00000000000E+00 0.  1.
          6    1    1    2  502    0 -0.40743705465E+03 -0.34471376144E+03 -0.15051275042E+03  0.58087487368E+03  0.17300000000E+03 0.  1.
         -6    1    1    2    0  501  0.40743705465E+03  0.34471376144E+03  0.19026033283E+04  0.19835979824E+04  0.17300000000E+03 0.  1.
</event>
<event>
 4    1  0.5880538E-001  0.1000000E+03  0.7546771E-02  0.1280296E+00
         -2   -1    0    0    0  501 -0.00000000000E+00  0.00000000000E+00  0.19461955277E+03  0.19461955277E+03  0.00000000000E+00 0.  1.
          2   -1    0    0  502    0  0.00000000000E+00 -0.00000000000E+00 -0.15738692024E+03  0.15738692024E+03  0.00000000000E+00 0. -1.
          6    1    1    2  502    0  0.44257543750E+01 -0.18542076877E+02  0.12300993317E+00  0.17404715180E+03  0.17300000000E+03 0.  1.
         -6    1    1    2    0  501 -0.44257543750E+01  0.18542076877E+02  0.37109622597E+02  0.17795932121E+03  0.17300000000E+03 0. -1.
</event>
<event>
 4    1  0.5880538E-001  0.1000000E+03  0.7546771E-02  0.1280296E+00
         -2   -1    0    0    0  501 -0.00000000000E+00  0.00000000000E+00  0.21070249587E+02  0.21070249587E+02  0.00000000000E+00 0. -1.
          2   -1    0    0  502    0  0.00000000000E+00 -0.00000000000E+00 -0.23521127534E+04  0.23521127534E+04  0.00000000000E+00 0.  1.
          6    1    1    2  502    0 -0.21851525519E+02 -0.33496732237E+02 -0.44979289228E+03  0.48357229675E+03  0.17300000000E+03 0. -1.
         -6    1    1    2    0  501  0.21851525519E+02  0.33496732237E+02 -0.18812496116E+04  0.18896107063E+04  0.17300000000E+03 0.  1.
</event>
<event>
 4    1  0.5880538E-001  0.1000000E+03  0.7546771E-02  0.1280296E+00
          2   -1    0    0  502    0  0.00000000000E+00  0.00000000000E+00  0.15442296238E+04  0.15442296238E+04  0.00000000000E+00 0.  1.
         -2   -1    0    0    0  501 -0.00000000000E+00 -0.00000000000E+00 -0.29699557510E+02  0.29699557510E+02  0.00000000000E+00 0. -1.
          6    1    1    2  502    0  0.90439847685E+02 -0.96236536331E+01  0.43560723651E+03  0.47744596056E+03  0.17300000000E+03 0. -1.
         -6    1    1    2    0  501 -0.90439847685E+02  0.96236536331E+01  0.10789228298E+04  0.10964832207E+04  0.17300000000E+03 0. -1.
</event>
<event>
 4    1  0.5880538E-001  0.1000000E+03  0.7546771E-02  0.1280296E+00
          1   -1    0    0  502    0  0.00000000000E+00  0.00000000000E+00  0.20236990227E+03  0.20236990227E+03  0.00000000000E+00 0.  1.
         -1   -1    0    0    0  501 -0.00000000000E+00 -0.00000000000E+00 -0.24132747215E+03  0.24132747215E+03  0.00000000000E+00 0. -1.
          6    1    1    2  502    0 -0.19603997830E+02 -0.11748492942E+03  0.49499998544E+02  0.21579220382E+03  0.17300000000E+03 0. -1.
         -6    1    1    2    0  501  0.19603997830E+02  0.11748492942E+03 -0.88457568425E+02  0.22790517060E+03  0.17300000000E+03 0.  1.
</event>
<event>
 4    1  0.5880538E-001  0.1000000E+03  0.7546771E-02  0.1280296E+00
         -2   -1    0    0    0  501 -0.00000000000E+00  0.00000000000E+00  0.59095688349E+02  0.59095688349E+02  0.00000000000E+00 0.  1.
          2   -1    0    0  502    0  0.00000000000E+00 -0.00000000000E+00 -0.74521148858E+03  0.74521148858E+03  0.00000000000E+00 0. -1.
          6    1    1    2  502    0  0.37321252720E+02  0.87946165527E+02 -0.47832518983E+03  0.51754361281E+03  0.17300000000E+03 0. -1.
         -6    1    1    2    0  501 -0.37321252720E+02 -0.87946165527E+02 -0.20779061040E+03  0.28676356412E+03  0.17300000000E+03 0.  1.
</event>
<event>
 4    1  0.5880538E-001  0.1000000E+03  0.7546771E-02  0.1280296E+00
         -2   -1    0    0    0  501 -0.00000000000E+00  0.00000000000E+00  0.22499157808E+03  0.22499157808E+03  0.00000000000E+00 0.  1.
          2   -1    0    0  502    0  0.00000000000E+00 -0.00000000000E+00 -0.30459979323E+03  0.30459979323E+03  0.00000000000E+00 0. -1.
          6    1    1    2  502    0 -0.32292568588E+02  0.19251213967E+03 -0.62413962106E+02  0.26819440071E+03  0.17300000000E+03 0. -1.
         -6    1    1    2    0  501  0.32292568588E+02 -0.19251213967E+03 -0.17194253046E+02  0.26139697061E+03  0.17300000000E+03 0.  1.
</event>
<event>
 4    1  0.5880538E-001  0.1000000E+03  0.7546771E-02  0.1280296E+00
         -1   -1    0    0    0  501 -0.00000000000E+00  0.00000000000E+00  0.40836455275E+02  0.40836455275E+02  0.00000000000E+00 0. -1.
          1   -1    0    0  502    0  0.00000000000E+00 -0.00000000000E+00 -0.74999319315E+03  0.74999319315E+03  0.00000000000E+00 0.  1.
          6    1    1    2  502    0  0.17379209839E+02  0.17978235974E+02 -0.37385781474E+03  0.41270318577E+03  0.17300000000E+03 0.  1.
         -6    1    1    2    0  501 -0.17379209839E+02 -0.17978235974E+02 -0.33529892314E+03  0.37812646265E+03  0.17300000000E+03 0. -1.
</event>
<event>
 4    1  0.5880538E-001  0.1000000E+03  0.7546771E-02  0.1280296E+00
         -2   -1    0    0    0  501 -0.00000000000E+00  0.00000000000E+00  0.66629764931E+02  0.66629764931E+02  0.00000000000E+00 0. -1.
          2   -1    0    0  502    0  0.00000000000E+00 -0.00000000000E+00 -0.11414210965E+04  0.11414210965E+04  0.00000000000E+00 0.  1.
          6    1    1    2  502    0 -0.11279246285E+03  0.10312979860E+02 -0.93705360216E+03  0.95959728561E+03  0.17300000000E+03 0.  1.
         -6    1    1    2    0  501  0.11279246285E+03 -0.10312979860E+02 -0.13773772939E+03  0.24845357580E+03  0.17300000000E+03 0. -1.
</event>
<event>
 4    1  0.5880538E-001  0.1000000E+03  0.7546771E-02  0.1280296E+00
          2   -1    0    0  502    0  0.00000000000E+00  0.00000000000E+00  0.82312710790E+03  0.82312710790E+03  0.00000000000E+00 0.  1.
         -2   -1    0    0    0  501 -0.00000000000E+00 -0.00000000000E+00 -0.98685542927E+02  0.98685542927E+02  0.00000000000E+00 0. -1.
          6    1    1    2  502    0 -0.21551223095E+03 -0.44257072374E+02  0.44927039131E+03  0.52931757448E+03  0.17300000000E+03 0. -1.
         -6    1    1    2    0  501  0.21551223095E+03  0.44257072374E+02  0.27517117366E+03  0.39249507634E+03  0.17300000000E+03 0.  1.
</event>
<event>
 4    1  0.5880538E-001  0.1000000E+03  0.7546771E-02  0.1280296E+00
          2   -1    0    0  502    0  0.00000000000E+00  0.00000000000E+00  0.14764139754E+04  0.14764139754E+04  0.00000000000E+00 0.  1.
         -2   -1    0    0    0  501 -0.00000000000E+00 -0.00000000000E+00 -0.39259051994E+02  0.39259051994E+02  0.00000000000E+00 0. -1.
          6    1    1    2  502    0  0.44637720312E+02  0.16122256705E+03  0.74046985735E+03  0.77859479310E+03  0.17300000000E+03 0. -1.
         -6    1    1    2    0  501 -0.44637720312E+02 -0.16122256705E+03  0.69668506604E+03  0.73707823427E+03  0.17300000000E+03 0.  1.
</event>
<event>
 4    1  0.5880538E-001  0.1000000E+03  0.7546771E-02  0.1280296E+00
         -2   -1    0    0    0  501 -0.00000000000E+00  0.00000000000E+00  0.10263523531E+03  0.10263523531E+03  0.00000000000E+00 0.  1.
          2   -1    0    0  502    0  0.00000000000E+00 -0.00000000000E+00 -0.72269653590E+03  0.72269653590E+03  0.00000000000E+00 0. -1.
          6    1    1    2  502    0 -0.54549031140E+02 -0.19417134856E+03 -0.21953554511E+03  0.34467805989E+03  0.17300000000E+03 0.  1.
         -6    1    1    2    0  501  0.54549031140E+02  0.19417134856E+03 -0.40052575548E+03  0.48065371132E+03  0.17300000000E+03 0. -1.
</event>
<event>
 4    1  0.5880538E-001  0.1000000E+03  0.7546771E-02  0.1280296E+00
          2   -1    0    0  502    0  0.00000000000E+00  0.00000000000E+00  0.29858149122E+03  0.29858149122E+03  0.00000000000E+00 0. -1.
         -2   -1    0    0    0  501 -0.00000000000E+00 -0.00000000000E+00 -0.18297740467E+03  0.18297740467E+03  0.00000000000E+00 0.  1.
          6    1    1    2  502    0  0.43075290279E+02  0.74826499123E+02  0.19309838886E+03  0.27325898592E+03  0.17300000000E+03 0.  1.
         -6    1    1    2    0  501 -0.43075290279E+02 -0.74826499123E+02 -0.77494302318E+02  0.20829990997E+03  0.17300000000E+03 0. -1.
</event>
<event>
 4    1  0.5880538E-001  0.1000000E+03  0.7546771E-02  0.1280296E+00
          1   -1    0    0  502    0  0.00000000000E+00  0.00000000000E+00  0.90999731426E+03  0.90999731426E+03  0.00000000000E+00 0. -1.
         -1   -1    0    0    0  501 -0.00000000000E+00 -0.00000000000E+00 -0.45956329860E+02  0.45956329860E+02  0.00000000000E+00 0.  1.
          6    1    1    2  502    0  0.42168674410E+01 -0.21406608625E+02  0.68174099424E+03  0.70368729425E+03  0.17300000000E+03 0.  1.
         -6    1    1    2    0  501 -0.42168674410E+01  0.21406608625E+02  0.18229999016E+03  0.25226634987E+03  0.17300000000E+03 0. -1.
</event>
<event>
 4    1  0.5880538E-001  0.1000000E+03  0.7546771E-02  0.1280296E+00
          2   -1    0    0  502    0  0.00000000000E+00  0.00000000000E+00  0.97005426193E+03  0.97005426193E+03  0.00000000000E+00 0. -1.
         -2   -1    0    0    0  501 -0.00000000000E+00 -0.00000000000E+00 -0.34521967277E+02  0.34521967277E+02  0.00000000000E+00 0.  1.
          6    1    1    2  502    0 -0.47877904582E+01 -0.39753347146E+02  0.58915638643E+03  0.61533527383E+03  0.17300000000E+03 0.  1.
         -6    1    1    2    0  501  0.47877904582E+01  0.39753347146E+02  0.34637590822E+03  0.38924095538E+03  0.17300000000E+03 0. -1.
</event>
<event>
 4    1  0.5880538E-001  0.1000000E+03  0.7546771E-02  0.1280296E+00
         -1   -1    0    0    0  501 -0.00000000000E+00  0.00000000000E+00  0.27115291344E+03  0.27115291344E+03  0.00000000000E+00 0. -1.
          1   -1    0    0  502    0  0.00000000000E+00 -0.00000000000E+00 -0.16412664505E+03  0.16412664505E+03  0.00000000000E+00 0.  1.
          6    1    1    2  502    0 -0.10182891865E+03 -0.57032541302E+02  0.85354522078E+02  0.22546891999E+03  0.17300000000E+03 0.  1.
         -6    1    1    2    0  501  0.10182891865E+03  0.57032541302E+02  0.21671746319E+02  0.20981063850E+03  0.17300000000E+03 0. -1.
</event>
<event>
 4    1  0.5880538E-001  0.1000000E+03  0.7546771E-02  0.1280296E+00
         -1   -1    0    0    0  501 -0.00000000000E+00  0.00000000000E+00  0.25441100634E+02  0.25441100634E+02  0.00000000000E+00 0. -1.
          1   -1    0    0  502    0  0.00000000000E+00 -0.00000000000E+00 -0.35451118693E+04  0.35451118693E+04  0.00000000000E+00 0.  1.
          6    1    1    2  502    0 -0.17640228976E+03  0.16779774400E+03 -0.19467547055E+04  0.19695321104E+04  0.17300000000E+03 0.  1.
         -6    1    1    2    0  501  0.17640228976E+03 -0.16779774400E+03 -0.15729160632E+04  0.16010208595E+04  0.17300000000E+03 0. -1.
</event>
<event>
 4    1  0.5880538E-001  0.1000000E+03  0.7546771E-02  0.1280296E+00
          1   -1    0    0  502    0  0.00000000000E+00  0.00000000000E+00  0.18428045444E+03  0.18428045444E+03  0.00000000000E+00 0. -1.
         -1   -1    0    0    0  501 -0.00000000000E+00 -0.00000000000E+00 -0.22667302349E+03  0.22667302349E+03  0.00000000000E+00 0.  1.
          6    1    1    2  502    0  0.31185603025E+02  0.30180138711E+02  0.79133879801E+02  0.19512701899E+03  0.17300000000E+03 0.  1.
         -6    1    1    2    0  501 -0.31185603025E+02 -0.30180138711E+02 -0.12152644885E+03  0.21582645894E+03  0.17300000000E+03 0. -1.
</event>
<event>
 4    1  0.5880538E-001  0.1000000E+03  0.7546771E-02  0.1280296E+00
         -2   -1    0    0    0  501 -0.00000000000E+00  0.00000000000E+00  0.43182012023E+03  0.43182012023E+03  0.00000000000E+00 0. -1.
          2   -1    0    0  502    0  0.00000000000E+00 -0.00000000000E+00 -0.94683604252E+02  0.94683604252E+02  0.00000000000E+00 0.  1.
          6    1    1    2  502    0 -0.35373319210E+02 -0.72385710067E+02  0.81560561589E+02  0.20753816020E+03  0.17300000000E+03 0. -1.
         -6    1    1    2    0  501  0.35373319210E+02  0.72385710067E+02  0.25557595439E+03  0.31896556428E+03  0.17300000000E+03 0.  1.
</event>
<event>
 4    1  0.5880538E-001  0.1000000E+03  0.7546771E-02  0.1280296E+00
          2   -1    0    0  502    0  0.00000000000E+00  0.00000000000E+00  0.32054167660E+03  0.32054167660E+03  0.00000000000E+00 0. -1.
         -2   -1    0    0    0  501 -0.00000000000E+00 -0.00000000000E+00 -0.11116578096E+03  0.11116578096E+03  0.00000000000E+00 0.  1.
          6    1    1    2  502    0  0.65755295066E+02 -0.36934754702E+02  0.10930895320E+03  0.21809489261E+03  0.17300000000E+03 0.  1.
         -6    1    1    2    0  501 -0.65755295066E+02  0.36934754702E+02  0.10006694243E+03  0.21361256494E+03  0.17300000000E+03 0. -1.
</event>
<event>
 4    1  0.5880538E-001  0.1000000E+03  0.7546771E-02  0.1280296E+00
          2   -1    0    0  502    0  0.00000000000E+00  0.00000000000E+00  0.21131161265E+03  0.21131161265E+03  0.00000000000E+00 0. -1.
         -2   -1    0    0    0  501 -0.00000000000E+00 -0.00000000000E+00 -0.51827249207E+03  0.51827249207E+03  0.00000000000E+00 0.  1.
          6    1    1    2  502    0  0.22754932451E+03 -0.77187451782E+02 -0.31642663444E+03  0.43334906574E+03  0.17300000000E+03 0.  1.
         -6    1    1    2    0  501 -0.22754932451E+03  0.77187451782E+02  0.94657550213E+01  0.29623503897E+03  0.17300000000E+03 0. -1.
</event>
<event>
 4    1  0.5880538E-001  0.1000000E+03  0.7546771E-02  0.1280296E+00
         -2   -1    0    0    0  501 -0.00000000000E+00  0.00000000000E+00  0.13973372875E+03  0.13973372875E+03  0.00000000000E+00 0.  1.
          2   -1    0    0  502    0  0.00000000000E+00 -0.00000000000E+00 -0.14195969641E+04  0.14195969641E+04  0.00000000000E+00 0. -1.
          6    1    1    2  502    0 -0.39238438938E+03  0.10259720010E+03 -0.74988082923E+03  0.86990916339E+03  0.17300000000E+03 0.  1.
         -6    1    1    2    0  501  0.39238438938E+03 -0.10259720010E+03 -0.52998240610E+03  0.68942152945E+03  0.17300000000E+03 0. -1.
</event>
<event>
 4    1  0.5880538E-001  0.1000000E+03  0.7546771E-02  0.1280296E+00
         -1   -1    0    0    0  501 -0.00000000000E+00  0.00000000000E+00  0.19065731580E+03  0.19065731580E+03  0.00000000000E+00 0.  1.
          1   -1    0    0  502    0  0.00000000000E+00 -0.00000000000E+00 -0.22947593557E+03  0.22947593557E+03  0.00000000000E+00 0. -1.
          6    1    1    2  502    0 -0.79989103481E+02 -0.67707856664E+02 -0.72926655725E+02  0.21501141283E+03  0.17300000000E+03 0.  1.
         -6    1    1    2    0  501  0.79989103481E+02  0.67707856664E+02  0.34108035955E+02  0.20512183854E+03  0.17300000000E+03 0. -1.
</event>
<event>
 4    1  0.5880538E-001  0.1000000E+03  0.7546771E-02  0.1280296E+00
         -1   -1    0    0    0  501 -0.00000000000E+00  0.00000000000E+00  0.78060885951E+03  0.78060885951E+03  0.00000000000E+00 0.  1.
          1   -1    0    0  502    0  0.00000000000E+00 -0.00000000000E+00 -0.16387592076E+03  0.16387592076E+03  0.00000000000E+00 0. -1.
          6    1    1    2  502    0  0.13158843135E+03 -0.13568258469E+03 -0.21110919158E+02  0.25709910533E+03  0.17300000000E+03 0.  1.
         -6    1    1    2    0  501 -0.13158843135E+03  0.13568258469E+03  0.63784385790E+03  0.68738567494E+03  0.17300000000E+03 0. -1.
</event>
<event>
 4    1  0.5880538E-001  0.1000000E+03  0.7546771E-02  0.1280296E+00
         -2   -1    0    0    0  501 -0.00000000000E+00  0.00000000000E+00  0.17478530582E+03  0.17478530582E+03  0.00000000000E+00 0.  1.
          2   -1    0    0  502    0  0.00000000000E+00 -0.00000000000E+00 -0.26959130792E+03  0.26959130792E+03  0.00000000000E+00 0. -1.
          6    1    1    2  502    0 -0.10615018196E+03  0.61298618405E+02 -0.95042460231E+02  0.23235199805E+03  0.17300000000E+03 0.  1.
         -6    1    1    2    0  501  0.10615018196E+03 -0.61298618405E+02  0.23645812267E+00  0.21202461570E+03  0.17300000000E+03 0. -1.
</event>
<event>
 4    1  0.5880538E-001  0.1000000E+03  0.7546771E-02  0.1280296E+00
          2   -1    0    0  502    0  0.00000000000E+00  0.00000000000E+00  0.10556253749E+04  0.10556253749E+04  0.00000000000E+00 0. -1.
         -2   -1    0    0    0  501 -0.00000000000E+00 -0.00000000000E+00 -0.15613661217E+03  0.15613661217E+03  0.00000000000E+00 0.  1.
          6    1    1    2  502    0 -0.15905574328E+03  0.26067225197E+03  0.75429280205E+03  0.83194674327E+03  0.17300000000E+03 0.  1.
         -6    1    1    2    0  501  0.15905574328E+03 -0.26067225197E+03  0.14519596067E+03  0.37981524378E+03  0.17300000000E+03 0. -1.
</event>
<event>
 4    1  0.5880538E-001  0.1000000E+03  0.7546771E-02  0.1280296E+00
          1   -1    0    0  502    0  0.00000000000E+00  0.00000000000E+00  0.11936213738E+03  0.11936213738E+03  0.00000000000E+00 0.  1.
         -1   -1    0    0    0  501 -0.00000000000E+00 -0.00000000000E+00 -0.49626585781E+03  0.49626585781E+03  0.00000000000E+00 0. -1.
          6    1    1    2  502    0  0.13579783910E+03 -0.10264800814E+03 -0.16552265429E+03  0.29377613205E+03  0.17300000000E+03 0. -1.
         -6    1    1    2    0  501 -0.13579783910E+03  0.10264800814E+03 -0.21138106615E+03  0.32185186314E+03  0.17300000000E+03 0.  1.
</event>
<event>
 4    1  0.5880538E-001  0.1000000E+03  0.7546771E-02  0.1280296E+00
         -2   -1    0    0    0  501 -0.00000000000E+00  0.00000000000E+00  0.74981563864E+02  0.74981563864E+02  0.00000000000E+00 0.  1.
          2   -1    0    0  502    0  0.00000000000E+00 -0.00000000000E+00 -0.51216692546E+03  0.51216692546E+03  0.00000000000E+00 0. -1.
          6    1    1    2  502    0  0.40228697860E+02  0.22696037135E+02 -0.99303580687E+02  0.20475267854E+03  0.17300000000E+03 0.  1.
         -6    1    1    2    0  501 -0.40228697860E+02 -0.22696037135E+02 -0.33788178091E+03  0.38239581078E+03  0.17300000000E+03 0.  1.
</event>
<event>
 4    1  0.5880538E-001  0.1000000E+03  0.7546771E-02  0.1280296E+00
          2   -1    0    0  502    0  0.00000000000E+00  0.00000000000E+00  0.13123624075E+04  0.13123624075E+04  0.00000000000E+00 0.  1.
         -2   -1    0    0    0  501 -0.00000000000E+00 -0.00000000000E+00 -0.42248487146E+02  0.42248487146E+02  0.00000000000E+00 0. -1.
          6    1    1    2  502    0  0.23552056229E+02 -0.41963170450E+02  0.10731867884E+04  0.10881059184E+04  0.17300000000E+03 0.  1.
         -6    1    1    2    0  501 -0.23552056229E+02  0.41963170450E+02  0.19692713198E+03  0.26650497619E+03  0.17300000000E+03 0. -1.
</event>
<event>
 4    1  0.5880538E-001  0.1000000E+03  0.7546771E-02  0.1280296E+00
          2   -1    0    0  502    0  0.00000000000E+00  0.00000000000E+00  0.55513260006E+03  0.55513260006E+03  0.00000000000E+00 0.  1.
         -2   -1    0    0    0  501 -0.00000000000E+00 -0.00000000000E+00 -0.39741543438E+03  0.39741543438E+03  0.00000000000E+00 0. -1.
          6    1    1    2  502    0 -0.18218029611E+03 -0.26002664804E+03  0.38286417385E+03  0.52660943174E+03  0.17300000000E+03 0.  1.
         -6    1    1    2    0  501  0.18218029611E+03  0.26002664804E+03 -0.22514700817E+03  0.42593860270E+03  0.17300000000E+03 0. -1.
</event>
<event>
 4    1  0.5880538E-001  0.1000000E+03  0.7546771E-02  0.1280296E+00
          1   -1    0    0  502    0  0.00000000000E+00  0.00000000000E+00  0.39255827885E+03  0.39255827885E+03  0.00000000000E+00 0.  1.
         -1   -1    0    0    0  501 -0.00000000000E+00 -0.00000000000E+00 -0.14352387675E+03  0.14352387675E+03  0.00000000000E+00 0. -1.
          6    1    1    2  502    0  0.13187828166E+03  0.75467987996E+02  0.59400065808E+02  0.23779122398E+03  0.17300000000E+03 0.  1.
         -6    1    1    2    0  501 -0.13187828166E+03 -0.75467987996E+02  0.18963433629E+03  0.29829093162E+03  0.17300000000E+03 0. -1.
</event>
<event>
 4    1  0.5880538E-001  0.1000000E+03  0.7546771E-02  0.1280296E+00
          2   -1    0    0  502    0  0.00000000000E+00  0.00000000000E+00  0.10216008403E+04  0.10216008403E+04  0.00000000000E+00 0. -1.
         -2   -1    0    0    0  501 -0.00000000000E+00 -0.00000000000E+00 -0.48732335730E+02  0.48732335730E+02  0.00000000000E+00 0.  1.
          6    1    1    2  502    0  0.10607240972E+03  0.21350638887E+02  0.26992009464E+03  0.33836823636E+03  0.17300000000E+03 0.  1.
         -6    1    1    2    0  501 -0.10607240972E+03 -0.21350638887E+02  0.70294840991E+03  0.73196493965E+03  0.17300000000E+03 0. -1.
</event>
<event>
 4    1  0.5880538E-001  0.1000000E+03  0.7546771E-02  0.1280296E+00
          2   -1    0    0  502    0  0.00000000000E+00  0.00000000000E+00  0.64109442360E+03  0.64109442360E+03  0.00000000000E+00 0. -1.
         -2   -1    0    0    0  501 -0.00000000000E+00 -0.00000000000E+00 -0.89794335401E+03  0.89794335401E+03  0.00000000000E+00 0.  1.
          6    1    1    2  502    0 -0.12670351254E+03  0.53258142288E+03  0.37465583762E+03  0.68556017151E+03  0.17300000000E+03 0.  1.
         -6    1    1    2    0  501  0.12670351254E+03 -0.53258142288E+03 -0.63150476803E+03  0.85347760611E+03  0.17300000000E+03 0. -1.
</event>
<event>
 4    1  0.5880538E-001  0.1000000E+03  0.7546771E-02  0.1280296E+00
         -2   -1    0    0    0  501 -0.00000000000E+00  0.00000000000E+00  0.49686977296E+02  0.49686977296E+02  0.00000000000E+00 0.  1.
          2   -1    0    0  502    0  0.00000000000E+00 -0.00000000000E+00 -0.15971045153E+04  0.15971045153E+04  0.00000000000E+00 0. -1.
          6    1    1    2  502    0 -0.10644756044E+03 -0.16164970727E+03 -0.10934285287E+04  0.11238223429E+04  0.17300000000E+03 0. -1.
         -6    1    1    2    0  501  0.10644756044E+03  0.16164970727E+03 -0.45398900929E+03  0.52296914970E+03  0.17300000000E+03 0.  1.
</event>
<event>
 4    1  0.5880538E-001  0.1000000E+03  0.7546771E-02  0.1280296E+00
         -1   -1    0    0    0  501 -0.00000000000E+00  0.00000000000E+00  0.17906929676E+02  0.17906929676E+02  0.00000000000E+00 0.  1.
          1   -1    0    0  502    0  0.00000000000E+00 -0.00000000000E+00 -0.23327344517E+04  0.23327344517E+04  0.00000000000E+00 0. -1.
          6    1    1    2  502    0 -0.86826774751E+02  0.14624093036E+02 -0.15251986421E+04  0.15375020815E+04  0.17300000000E+03 0. -1.
         -6    1    1    2    0  501  0.86826774751E+02 -0.14624093036E+02 -0.78962887998E+03  0.81313929988E+03  0.17300000000E+03 0.  1.
</event>
<event>
 4    1  0.5880538E-001  0.1000000E+03  0.7546771E-02  0.1280296E+00
         -2   -1    0    0    0  501 -0.00000000000E+00  0.00000000000E+00  0.38044082006E+03  0.38044082006E+03  0.00000000000E+00 0.  1.
          2   -1    0    0  502    0  0.00000000000E+00 -0.00000000000E+00 -0.11419526801E+04  0.11419526801E+04  0.00000000000E+00 0. -1.
          6    1    1    2  502    0  0.13966962661E+02  0.53725776267E+03  0.12024540927E+02  0.56472521564E+03  0.17300000000E+03 0. -1.
         -6    1    1    2    0  501 -0.13966962661E+02 -0.53725776267E+03 -0.77353640101E+03  0.95766828457E+03  0.17300000000E+03 0.  1.
</event>
<event>
 4    1  0.5880538E-001  0.1000000E+03  0.7546771E-02  0.1280296E+00
         -2   -1    0    0    0  501 -0.00000000000E+00  0.00000000000E+00  0.10895862151E+04  0.10895862151E+04  0.00000000000E+00 0.  1.
          2   -1    0    0  502    0  0.00000000000E+00 -0.00000000000E+00 -0.56014987375E+02  0.56014987375E+02  0.00000000000E+00 0. -1.
          6    1    1    2  502    0 -0.63526458354E+02 -0.10160508441E+03  0.81681412249E+03  0.84348889429E+03  0.17300000000E+03 0. -1.
         -6    1    1    2    0  501  0.63526458354E+02  0.10160508441E+03  0.21675710524E+03  0.30211230819E+03  0.17300000000E+03 0.  1.
</event>
<event>
 4    1  0.5880538E-001  0.1000000E+03  0.7546771E-02  0.1280296E+00
          3   -1    0    0  502    0  0.00000000000E+00  0.00000000000E+00  0.17744478013E+04  0.17744478013E+04  0.00000000000E+00 0.  1.
         -3   -1    0    0    0  501 -0.00000000000E+00 -0.00000000000E+00 -0.26419132913E+02  0.26419132913E+02  0.00000000000E+00 0. -1.
          6    1    1    2  502    0 -0.29484701016E+02  0.72295034558E+02  0.13072904002E+04  0.13209970137E+04  0.17300000000E+03 0.  1.
         -6    1    1    2    0  501  0.29484701016E+02 -0.72295034558E+02  0.44073826816E+03  0.47986992054E+03  0.17300000000E+03 0.  1.
</event>
<event>
 4    1  0.5880538E-001  0.1000000E+03  0.7546771E-02  0.1280296E+00
          2   -1    0    0  502    0  0.00000000000E+00  0.00000000000E+00  0.16263346263E+04  0.16263346263E+04  0.00000000000E+00 0.  1.
         -2   -1    0    0    0  501 -0.00000000000E+00 -0.00000000000E+00 -0.31760420707E+02  0.31760420707E+02  0.00000000000E+00 0. -1.
          6    1    1    2  502    0  0.98508686546E+02 -0.70743402031E+02  0.49175271550E+03  0.53521801488E+03  0.17300000000E+03 0.  1.
         -6    1    1    2    0  501 -0.98508686546E+02  0.70743402031E+02  0.11028214901E+04  0.11228770321E+04  0.17300000000E+03 0.  1.
</event>
<event>
 4    1  0.5880538E-001  0.1000000E+03  0.7546771E-02  0.1280296E+00
          1   -1    0    0  502    0  0.00000000000E+00  0.00000000000E+00  0.80753295570E+03  0.80753295570E+03  0.00000000000E+00 0. -1.
         -1   -1    0    0    0  501 -0.00000000000E+00 -0.00000000000E+00 -0.57352766600E+02  0.57352766600E+02  0.00000000000E+00 0.  1.
          6    1    1    2  502    0 -0.68276368548E+01 -0.38569903638E+02  0.13021241860E+03  0.22004210518E+03  0.17300000000E+03 0.  1.
         -6    1    1    2    0  501  0.68276368548E+01  0.38569903638E+02  0.61996777050E+03  0.64484361713E+03  0.17300000000E+03 0.  1.
</event>
<event>
 4    1  0.5880538E-001  0.1000000E+03  0.7546771E-02  0.1280296E+00
          2   -1    0    0  502    0  0.00000000000E+00  0.00000000000E+00  0.17284251258E+04  0.17284251258E+04  0.00000000000E+00 0. -1.
         -2   -1    0    0    0  501 -0.00000000000E+00 -0.00000000000E+00 -0.20560542835E+02  0.20560542835E+02  0.00000000000E+00 0.  1.
          6    1    1    2  502    0  0.72637279373E+02  0.64190887043E+01  0.93306300613E+03  0.95176307581E+03  0.17300000000E+03 0.  1.
         -6    1    1    2    0  501 -0.72637279373E+02 -0.64190887043E+01  0.77480157680E+03  0.79722259280E+03  0.17300000000E+03 0.  1.
</event>
<event>
 4    1  0.5880538E-001  0.1000000E+03  0.7546771E-02  0.1280296E+00
          1   -1    0    0  502    0  0.00000000000E+00  0.00000000000E+00  0.28894670858E+03  0.28894670858E+03  0.00000000000E+00 0. -1.
         -1   -1    0    0    0  501 -0.00000000000E+00 -0.00000000000E+00 -0.12980137356E+04  0.12980137356E+04  0.00000000000E+00 0.  1.
          6    1    1    2  502    0 -0.18981541539E+03 -0.35871672887E+03  0.45805349123E+02  0.44354787059E+03  0.17300000000E+03 0.  1.
         -6    1    1    2    0  501  0.18981541539E+03  0.35871672887E+03 -0.10548723761E+04  0.11434125736E+04  0.17300000000E+03 0.  1.
</event>
<event>
 4    1  0.5880538E-001  0.1000000E+03  0.7546771E-02  0.1280296E+00
          2   -1    0    0  502    0  0.00000000000E+00  0.00000000000E+00  0.19836815264E+03  0.19836815264E+03  0.00000000000E+00 0.  1.
         -2   -1    0    0    0  501 -0.00000000000E+00 -0.00000000000E+00 -0.51271247011E+03  0.51271247011E+03  0.00000000000E+00 0. -1.
          6    1    1    2  502    0  0.16014646533E+02 -0.22899177537E+03 -0.31650869161E+01  0.28745907511E+03  0.17300000000E+03 0.  1.
         -6    1    1    2    0  501 -0.16014646533E+02  0.22899177537E+03 -0.31117923055E+03  0.42362154763E+03  0.17300000000E+03 0.  1.
</event>
<event>
 4    1  0.5880538E-001  0.1000000E+03  0.7546771E-02  0.1280296E+00
         -1   -1    0    0    0  501 -0.00000000000E+00  0.00000000000E+00  0.52969884009E+02  0.52969884009E+02  0.00000000000E+00 0.  1.
          1   -1    0    0  502    0  0.00000000000E+00 -0.00000000000E+00 -0.79468612534E+03  0.79468612534E+03  0.00000000000E+00 0. -1.
          6    1    1    2  502    0 -0.33324888678E+02 -0.24005686911E+02 -0.58231858214E+03  0.60886020753E+03  0.17300000000E+03 0. -1.
         -6    1    1    2    0  501  0.33324888678E+02  0.24005686911E+02 -0.15939765918E+03  0.23879580181E+03  0.17300000000E+03 0.  1.
</event>
<event>
 4    1  0.5880538E-001  0.1000000E+03  0.7546771E-02  0.1280296E+00
         -2   -1    0    0    0  501 -0.00000000000E+00  0.00000000000E+00  0.51602250177E+02  0.51602250177E+02  0.00000000000E+00 0.  1.
          2   -1    0    0  502    0  0.00000000000E+00 -0.00000000000E+00 -0.69129508088E+03  0.69129508088E+03  0.00000000000E+00 0. -1.
          6    1    1    2  502    0  0.24649833340E+02 -0.35136730891E+02 -0.44268381333E+03  0.47722129324E+03  0.17300000000E+03 0. -1.
         -6    1    1    2    0  501 -0.24649833340E+02  0.35136730891E+02 -0.19700901737E+03  0.26567603781E+03  0.17300000000E+03 0.  1.
</event>
<event>
 4    1  0.5880538E-001  0.1000000E+03  0.7546771E-02  0.1280296E+00
         -2   -1    0    0    0  501 -0.00000000000E+00  0.00000000000E+00  0.10558659002E+03  0.10558659002E+03  0.00000000000E+00 0.  1.
          2   -1    0    0  502    0  0.00000000000E+00 -0.00000000000E+00 -0.50443819254E+03  0.50443819254E+03  0.00000000000E+00 0. -1.
          6    1    1    2  502    0  0.17362043649E+01  0.11469223330E+03 -0.33274381409E+03  0.39217951068E+03  0.17300000000E+03 0. -1.
         -6    1    1    2    0  501 -0.17362043649E+01 -0.11469223330E+03 -0.66107788432E+02  0.21784527187E+03  0.17300000000E+03 0.  1.
</event>
<event>
 4    1  0.5880538E-001  0.1000000E+03  0.7546771E-02  0.1280296E+00
         -2   -1    0    0    0  501 -0.00000000000E+00  0.00000000000E+00  0.24730004456E+02  0.24730004456E+02  0.00000000000E+00 0.  1.
          2   -1    0    0  502    0  0.00000000000E+00 -0.00000000000E+00 -0.15754790043E+04  0.15754790043E+04  0.00000000000E+00 0. -1.
          6    1    1    2  502    0  0.32593404754E+02 -0.48137029215E+02 -0.47060492406E+03  0.50475488920E+03  0.17300000000E+03 0. -1.
         -6    1    1    2    0  501 -0.32593404754E+02  0.48137029215E+02 -0.10801440758E+04  0.10954541196E+04  0.17300000000E+03 0.  1.
</event>
<event>
 4    1  0.5880538E-001  0.1000000E+03  0.7546771E-02  0.1280296E+00
         -2   -1    0    0    0  501 -0.00000000000E+00  0.00000000000E+00  0.23749198620E+03  0.23749198620E+03  0.00000000000E+00 0.  1.
          2   -1    0    0  502    0  0.00000000000E+00 -0.00000000000E+00 -0.26808236654E+03  0.26808236654E+03  0.00000000000E+00 0. -1.
          6    1    1    2  502    0 -0.15934550260E+03  0.90608824678E+02 -0.35491059225E+01  0.25207646551E+03  0.17300000000E+03 0. -1.
         -6    1    1    2    0  501  0.15934550260E+03 -0.90608824678E+02 -0.27041274426E+02  0.25349788723E+03  0.17300000000E+03 0.  1.
</event>
<event>
 4    1  0.5880538E-001  0.1000000E+03  0.7546771E-02  0.1280296E+00
         -2   -1    0    0    0  501 -0.00000000000E+00  0.00000000000E+00  0.19161433013E+02  0.19161433013E+02  0.00000000000E+00 0.  1.
          2   -1    0    0  502    0  0.00000000000E+00 -0.00000000000E+00 -0.48512199698E+04  0.48512199698E+04  0.00000000000E+00 0. -1.
          6    1    1    2  502    0  0.21522578541E+02 -0.12636072470E+03 -0.41401704137E+04  0.41457653466E+04  0.17300000000E+03 0. -1.
         -6    1    1    2    0  501 -0.21522578541E+02  0.12636072470E+03 -0.69188812309E+03  0.72461605627E+03  0.17300000000E+03 0.  1.
</event>
<event>
 4    1  0.5880538E-001  0.1000000E+03  0.7546771E-02  0.1280296E+00
          1   -1    0    0  502    0  0.00000000000E+00  0.00000000000E+00  0.15737873966E+03  0.15737873966E+03  0.00000000000E+00 0. -1.
         -1   -1    0    0    0  501 -0.00000000000E+00 -0.00000000000E+00 -0.23188532712E+03  0.23188532712E+03  0.00000000000E+00 0.  1.
          6    1    1    2  502    0 -0.73779536409E+02 -0.63688496185E+01 -0.37579055857E+01  0.18822089175E+03  0.17300000000E+03 0. -1.
         -6    1    1    2    0  501  0.73779536409E+02  0.63688496185E+01 -0.70748681872E+02  0.20104317503E+03  0.17300000000E+03 0.  1.
</event>
<event>
 4    1  0.5880538E-001  0.1000000E+03  0.7546771E-02  0.1280296E+00
         -2   -1    0    0    0  501 -0.00000000000E+00  0.00000000000E+00  0.14949465544E+03  0.14949465544E+03  0.00000000000E+00 0.  1.
          2   -1    0    0  502    0  0.00000000000E+00 -0.00000000000E+00 -0.38662695766E+03  0.38662695766E+03  0.00000000000E+00 0. -1.
          6    1    1    2  502    0 -0.81711164563E+02  0.10117977921E+03 -0.18603248501E+01  0.21644057601E+03  0.17300000000E+03 0.  1.
         -6    1    1    2    0  501  0.81711164563E+02 -0.10117977921E+03 -0.23527197737E+03  0.31968103708E+03  0.17300000000E+03 0. -1.
</event>
<event>
 4    1  0.5880538E-001  0.1000000E+03  0.7546771E-02  0.1280296E+00
          1   -1    0    0  502    0  0.00000000000E+00  0.00000000000E+00  0.84583632460E+03  0.84583632460E+03  0.00000000000E+00 0.  1.
         -1   -1    0    0    0  501 -0.00000000000E+00 -0.00000000000E+00 -0.64510571027E+02  0.64510571027E+02  0.00000000000E+00 0. -1.
          6    1    1    2  502    0  0.15024964621E+03 -0.24508010575E+01  0.47900519216E+03  0.53099523230E+03  0.17300000000E+03 0.  1.
         -6    1    1    2    0  501 -0.15024964621E+03  0.24508010575E+01  0.30232056142E+03  0.37935166333E+03  0.17300000000E+03 0.  1.
</event>
<event>
 4    1  0.5880538E-001  0.1000000E+03  0.7546771E-02  0.1280296E+00
          2   -1    0    0  502    0  0.00000000000E+00  0.00000000000E+00  0.20550643203E+04  0.20550643203E+04  0.00000000000E+00 0.  1.
         -2   -1    0    0    0  501 -0.00000000000E+00 -0.00000000000E+00 -0.51838250513E+02  0.51838250513E+02  0.00000000000E+00 0. -1.
          6    1    1    2  502    0  0.27620550065E+02  0.44067084540E+02  0.18789983963E+04  0.18876622516E+04  0.17300000000E+03 0.  1.
         -6    1    1    2    0  501 -0.27620550065E+02 -0.44067084540E+02  0.12422767352E+03  0.21924031927E+03  0.17300000000E+03 0. -1.
</event>
<event>
 4    1  0.5880538E-001  0.1000000E+03  0.7546771E-02  0.1280296E+00
          1   -1    0    0  502    0  0.00000000000E+00  0.00000000000E+00  0.31536298021E+03  0.31536298021E+03  0.00000000000E+00 0.  1.
         -1   -1    0    0    0  501 -0.00000000000E+00 -0.00000000000E+00 -0.15121215760E+03  0.15121215760E+03  0.00000000000E+00 0. -1.
          6    1    1    2  502    0 -0.27010664899E+02  0.12261332912E+03  0.12978082632E+03  0.25007132458E+03  0.17300000000E+03 0.  1.
         -6    1    1    2    0  501  0.27010664899E+02 -0.12261332912E+03  0.34369996280E+02  0.21650381323E+03  0.17300000000E+03 0. -1.
</event>
<event>
 4    1  0.5880538E-001  0.1000000E+03  0.7546771E-02  0.1280296E+00
          2   -1    0    0  502    0  0.00000000000E+00  0.00000000000E+00  0.71098330662E+02  0.71098330662E+02  0.00000000000E+00 0.  1.
         -2   -1    0    0    0  501 -0.00000000000E+00 -0.00000000000E+00 -0.69224242733E+03  0.69224242733E+03  0.00000000000E+00 0. -1.
          6    1    1    2  502    0  0.10552567200E+03  0.76269955611E+02 -0.39371401111E+03  0.44932448867E+03  0.17300000000E+03 0. -1.
         -6    1    1    2    0  501 -0.10552567200E+03 -0.76269955611E+02 -0.22743008556E+03  0.31401626932E+03  0.17300000000E+03 0. -1.
</event>
<event>
 4    1  0.5880538E-001  0.1000000E+03  0.7546771E-02  0.1280296E+00
          2   -1    0    0  502    0  0.00000000000E+00  0.00000000000E+00  0.88341466090E+02  0.88341466090E+02  0.00000000000E+00 0.  1.
         -2   -1    0    0    0  501 -0.00000000000E+00 -0.00000000000E+00 -0.40452120015E+03  0.40452120015E+03  0.00000000000E+00 0. -1.
          6    1    1    2  502    0  0.66872465743E+02  0.15155121866E+02 -0.20143107790E+03  0.27423545274E+03  0.17300000000E+03 0. -1.
         -6    1    1    2    0  501 -0.66872465743E+02 -0.15155121866E+02 -0.11474865615E+03  0.21862721350E+03  0.17300000000E+03 0. -1.
</event>
<event>
 4    1  0.5880538E-001  0.1000000E+03  0.7546771E-02  0.1280296E+00
          2   -1    0    0  502    0  0.00000000000E+00  0.00000000000E+00  0.92018799113E+03  0.92018799113E+03  0.00000000000E+00 0. -1.
         -2   -1    0    0    0  501 -0.00000000000E+00 -0.00000000000E+00 -0.19020744269E+03  0.19020744269E+03  0.00000000000E+00 0.  1.
          6    1    1    2  502    0 -0.19965504379E+03 -0.32263503088E+03  0.32014170020E+03  0.52571399816E+03  0.17300000000E+03 0. -1.
         -6    1    1    2    0  501  0.19965504379E+03  0.32263503088E+03  0.40983884824E+03  0.58468143565E+03  0.17300000000E+03 0.  1.
</event>
<event>
 4    1  0.5880538E-001  0.1000000E+03  0.7546771E-02  0.1280296E+00
          2   -1    0    0  502    0  0.00000000000E+00  0.00000000000E+00  0.73650747397E+02  0.73650747397E+02  0.00000000000E+00 0. -1.
         -2   -1    0    0    0  501 -0.00000000000E+00 -0.00000000000E+00 -0.41648114563E+03  0.41648114563E+03  0.00000000000E+00 0.  1.
          6    1    1    2  502    0 -0.24369292677E+02 -0.10589427383E+02 -0.16266015247E+03  0.23894209256E+03  0.17300000000E+03 0. -1.
         -6    1    1    2    0  501  0.24369292677E+02  0.10589427383E+02 -0.18017024577E+03  0.25118980047E+03  0.17300000000E+03 0.  1.
</event>
<event>
 4    1  0.5880538E-001  0.1000000E+03  0.7546771E-02  0.1280296E+00
          1   -1    0    0  502    0  0.00000000000E+00  0.00000000000E+00  0.68086483011E+03  0.68086483011E+03  0.00000000000E+00 0. -1.
         -1   -1    0    0    0  501 -0.00000000000E+00 -0.00000000000E+00 -0.55991657731E+02  0.55991657731E+02  0.00000000000E+00 0.  1.
          6    1    1    2  502    0  0.53647790905E+02 -0.72455532329E+02  0.32775009150E+03  0.38141448860E+03  0.17300000000E+03 0. -1.
         -6    1    1    2    0  501 -0.53647790905E+02  0.72455532329E+02  0.29712308088E+03  0.35544199924E+03  0.17300000000E+03 0.  1.
</event>
<event>
 4    1  0.5880538E-001  0.1000000E+03  0.7546771E-02  0.1280296E+00
          2   -1    0    0  502    0  0.00000000000E+00  0.00000000000E+00  0.15654906868E+04  0.15654906868E+04  0.00000000000E+00 0. -1.
         -2   -1    0    0    0  501 -0.00000000000E+00 -0.00000000000E+00 -0.28789171121E+02  0.28789171121E+02  0.00000000000E+00 0.  1.
          6    1    1    2  502    0  0.10368749161E+03 -0.13105967028E+02  0.52450631573E+03  0.56210207038E+03  0.17300000000E+03 0. -1.
         -6    1    1    2    0  501 -0.10368749161E+03  0.13105967028E+02  0.10121951999E+04  0.10321777875E+04  0.17300000000E+03 0.  1.
</event>
<event>
 4    1  0.5880538E-001  0.1000000E+03  0.7546771E-02  0.1280296E+00
         -2   -1    0    0    0  501 -0.00000000000E+00  0.00000000000E+00  0.41449832767E+03  0.41449832767E+03  0.00000000000E+00 0.  1.
          2   -1    0    0  502    0  0.00000000000E+00 -0.00000000000E+00 -0.98280188504E+02  0.98280188504E+02  0.00000000000E+00 0. -1.
          6    1    1    2  502    0 -0.83550742517E+02 -0.60921094495E+02  0.14443536588E+03  0.24795701492E+03  0.17300000000E+03 0.  1.
         -6    1    1    2    0  501  0.83550742517E+02  0.60921094495E+02  0.17178277328E+03  0.26482150125E+03  0.17300000000E+03 0.  1.
</event>
<event>
 4    1  0.5880538E-001  0.1000000E+03  0.7546771E-02  0.1280296E+00
         -2   -1    0    0    0  501 -0.00000000000E+00  0.00000000000E+00  0.42940127382E+02  0.42940127382E+02  0.00000000000E+00 0.  1.
          2   -1    0    0  502    0  0.00000000000E+00 -0.00000000000E+00 -0.12664131158E+04  0.12664131158E+04  0.00000000000E+00 0. -1.
          6    1    1    2  502    0  0.93581507061E+02 -0.47268879261E+02 -0.28603826343E+03  0.35034088194E+03  0.17300000000E+03 0.  1.
         -6    1    1    2    0  501 -0.93581507061E+02  0.47268879261E+02 -0.93743472501E+03  0.95901236127E+03  0.17300000000E+03 0.  1.
</event>
<event>
 4    1  0.5880538E-001  0.1000000E+03  0.7546771E-02  0.1280296E+00
         -2   -1    0    0    0  501 -0.00000000000E+00  0.00000000000E+00  0.43302890341E+02  0.43302890341E+02  0.00000000000E+00 0. -1.
          2   -1    0    0  502    0  0.00000000000E+00 -0.00000000000E+00 -0.78043325228E+03  0.78043325228E+03  0.00000000000E+00 0.  1.
          6    1    1    2  502    0  0.46514194117E+02 -0.20800930979E+02 -0.44840025700E+03  0.48330946552E+03  0.17300000000E+03 0. -1.
         -6    1    1    2    0  501 -0.46514194117E+02  0.20800930979E+02 -0.28873010494E+03  0.34042667710E+03  0.17300000000E+03 0.  1.
</event>
<event>
 4    1  0.5880538E-001  0.1000000E+03  0.7546771E-02  0.1280296E+00
          2   -1    0    0  502    0  0.00000000000E+00  0.00000000000E+00  0.25229498497E+03  0.25229498497E+03  0.00000000000E+00 0. -1.
         -2   -1    0    0    0  501 -0.00000000000E+00 -0.00000000000E+00 -0.21140584396E+03  0.21140584396E+03  0.00000000000E+00 0.  1.
          6    1    1    2  502    0 -0.49668122685E+02  0.13719238164E+03 -0.25767633458E+02  0.22777542213E+03  0.17300000000E+03 0. -1.
         -6    1    1    2    0  501  0.49668122685E+02 -0.13719238164E+03  0.66656774469E+02  0.23592540680E+03  0.17300000000E+03 0.  1.
</event>
<event>
 4    1  0.5880538E-001  0.1000000E+03  0.7546771E-02  0.1280296E+00
          2   -1    0    0  502    0  0.00000000000E+00  0.00000000000E+00  0.45035776336E+03  0.45035776336E+03  0.00000000000E+00 0.  1.
         -2   -1    0    0    0  501 -0.00000000000E+00 -0.00000000000E+00 -0.10581711760E+03  0.10581711760E+03  0.00000000000E+00 0. -1.
          6    1    1    2  502    0 -0.56291785660E+02 -0.11601271366E+03  0.13004306212E+03  0.25192838838E+03  0.17300000000E+03 0.  1.
         -6    1    1    2    0  501  0.56291785660E+02  0.11601271366E+03  0.21449758363E+03  0.30424649258E+03  0.17300000000E+03 0. -1.
</event>
<event>
 4    1  0.5880538E-001  0.1000000E+03  0.7546771E-02  0.1280296E+00
          2   -1    0    0  502    0  0.00000000000E+00  0.00000000000E+00  0.10090698553E+04  0.10090698553E+04  0.00000000000E+00 0.  1.
         -2   -1    0    0    0  501 -0.00000000000E+00 -0.00000000000E+00 -0.38833921472E+02  0.38833921472E+02  0.00000000000E+00 0. -1.
          6    1    1    2  502    0  0.82452672587E+02 -0.29607193622E+02  0.59039740557E+03  0.62142829485E+03  0.17300000000E+03 0.  1.
         -6    1    1    2    0  501 -0.82452672587E+02  0.29607193622E+02  0.37983852822E+03  0.42647548188E+03  0.17300000000E+03 0. -1.
</event>
<event>
 4    1  0.5880538E-001  0.1000000E+03  0.7546771E-02  0.1280296E+00
          3   -1    0    0  502    0  0.00000000000E+00  0.00000000000E+00  0.18838303549E+03  0.18838303549E+03  0.00000000000E+00 0.  1.
         -3   -1    0    0    0  501 -0.00000000000E+00 -0.00000000000E+00 -0.17680518952E+03  0.17680518952E+03  0.00000000000E+00 0. -1.
          6    1    1    2  502    0  0.19817968751E+02 -0.53061205084E+02 -0.72504719327E+01  0.18218071444E+03  0.17300000000E+03 0.  1.
         -6    1    1    2    0  501 -0.19817968751E+02  0.53061205084E+02  0.18828317895E+02  0.18300751057E+03  0.17300000000E+03 0. -1.
</event>
<event>
 4    1  0.5880538E-001  0.1000000E+03  0.7546771E-02  0.1280296E+00
          4   -1    0    0  502    0  0.00000000000E+00  0.00000000000E+00  0.25639673405E+03  0.25639673405E+03  0.00000000000E+00 0. -1.
         -4   -1    0    0    0  501 -0.00000000000E+00 -0.00000000000E+00 -0.39966424013E+03  0.39966424013E+03  0.00000000000E+00 0.  1.
          6    1    1    2  502    0  0.21619185057E+03  0.55405953064E+02 -0.22614374010E+03  0.36177165046E+03  0.17300000000E+03 0. -1.
         -6    1    1    2    0  501 -0.21619185057E+03 -0.55405953064E+02  0.82876234023E+02  0.29428932372E+03  0.17300000000E+03 0.  1.
</event>
<event>
 4    1  0.5880538E-001  0.1000000E+03  0.7546771E-02  0.1280296E+00
          1   -1    0    0  502    0  0.00000000000E+00  0.00000000000E+00  0.39332914243E+03  0.39332914243E+03  0.00000000000E+00 0. -1.
         -1   -1    0    0    0  501 -0.00000000000E+00 -0.00000000000E+00 -0.98316150750E+02  0.98316150750E+02  0.00000000000E+00 0.  1.
          6    1    1    2  502    0  0.40732727588E+02 -0.47304545004E+02  0.60497074305E+02  0.19361242490E+03  0.17300000000E+03 0. -1.
         -6    1    1    2    0  501 -0.40732727588E+02  0.47304545004E+02  0.23451591737E+03  0.29803286828E+03  0.17300000000E+03 0.  1.
</event>
<event>
 4    1  0.5880538E-001  0.1000000E+03  0.7546771E-02  0.1280296E+00
          2   -1    0    0  502    0  0.00000000000E+00  0.00000000000E+00  0.98230788433E+03  0.98230788433E+03  0.00000000000E+00 0. -1.
         -2   -1    0    0    0  501 -0.00000000000E+00 -0.00000000000E+00 -0.21048478683E+03  0.21048478683E+03  0.00000000000E+00 0.  1.
          6    1    1    2  502    0 -0.30216239469E+03  0.29036578648E+03  0.34014705470E+03  0.56678339914E+03  0.17300000000E+03 0. -1.
         -6    1    1    2    0  501  0.30216239469E+03 -0.29036578648E+03  0.43167604281E+03  0.62600927202E+03  0.17300000000E+03 0.  1.
</event>
<event>
 4    1  0.5880538E-001  0.1000000E+03  0.7546771E-02  0.1280296E+00
          2   -1    0    0  502    0  0.00000000000E+00  0.00000000000E+00  0.42149979194E+03  0.42149979194E+03  0.00000000000E+00 0. -1.
         -2   -1    0    0    0  501 -0.00000000000E+00 -0.00000000000E+00 -0.53562721134E+03  0.53562721134E+03  0.00000000000E+00 0.  1.
          6    1    1    2  502    0  0.36665777591E+02  0.21762706326E+03  0.32927027052E+03  0.43249720110E+03  0.17300000000E+03 0. -1.
         -6    1    1    2    0  501 -0.36665777591E+02 -0.21762706326E+03 -0.44339768992E+03  0.52462980218E+03  0.17300000000E+03 0.  1.
</event>
<event>
 4    1  0.5880538E-001  0.1000000E+03  0.7546771E-02  0.1280296E+00
          1   -1    0    0  502    0  0.00000000000E+00  0.00000000000E+00  0.12615901649E+03  0.12615901649E+03  0.00000000000E+00 0.  1.
         -1   -1    0    0    0  501 -0.00000000000E+00 -0.00000000000E+00 -0.39482880220E+03  0.39482880220E+03  0.00000000000E+00 0. -1.
          6    1    1    2  502    0 -0.12854163441E+03  0.32454024288E+02 -0.19038332476E+03  0.28939769490E+03  0.17300000000E+03 0. -1.
         -6    1    1    2    0  501  0.12854163441E+03 -0.32454024288E+02 -0.78286460944E+02  0.23159012379E+03  0.17300000000E+03 0.  1.
</event>
<event>
 4    1  0.5880538E-001  0.1000000E+03  0.7546771E-02  0.1280296E+00
          2   -1    0    0  502    0  0.00000000000E+00  0.00000000000E+00  0.95929451427E+03  0.95929451427E+03  0.00000000000E+00 0.  1.
         -2   -1    0    0    0  501 -0.00000000000E+00 -0.00000000000E+00 -0.42198959257E+02  0.42198959257E+02  0.00000000000E+00 0. -1.
          6    1    1    2  502    0 -0.17444456227E+02 -0.26363500972E+02  0.21529455914E+03  0.27799296831E+03  0.17300000000E+03 0. -1.
         -6    1    1    2    0  501  0.17444456227E+02  0.26363500972E+02  0.70180099587E+03  0.72350050521E+03  0.17300000000E+03 0.  1.
</event>
<event>
 4    1  0.5880538E-001  0.1000000E+03  0.7546771E-02  0.1280296E+00
          2   -1    0    0  502    0  0.00000000000E+00  0.00000000000E+00  0.15432300371E+04  0.15432300371E+04  0.00000000000E+00 0.  1.
         -2   -1    0    0    0  501 -0.00000000000E+00 -0.00000000000E+00 -0.51215986562E+02  0.51215986562E+02  0.00000000000E+00 0. -1.
          6    1    1    2  502    0 -0.13188014530E+03  0.33038037993E+02  0.12422574981E+04  0.12615928726E+04  0.17300000000E+03 0. -1.
         -6    1    1    2    0  501  0.13188014530E+03 -0.33038037993E+02  0.24975655252E+03  0.33285315111E+03  0.17300000000E+03 0.  1.
</event>
<event>
 4    1  0.5880538E-001  0.1000000E+03  0.7546771E-02  0.1280296E+00
          1   -1    0    0  502    0  0.00000000000E+00  0.00000000000E+00  0.26604243911E+03  0.26604243911E+03  0.00000000000E+00 0. -1.
         -1   -1    0    0    0  501 -0.00000000000E+00 -0.00000000000E+00 -0.12161885508E+03  0.12161885508E+03  0.00000000000E+00 0.  1.
          6    1    1    2  502    0 -0.23987566609E+02  0.49559138095E+01  0.11826856514E+03  0.21098914174E+03  0.17300000000E+03 0. -1.
         -6    1    1    2    0  501  0.23987566609E+02 -0.49559138095E+01  0.26155018888E+02  0.17667215244E+03  0.17300000000E+03 0.  1.
</event>
<event>
 4    1  0.5880538E-001  0.1000000E+03  0.7546771E-02  0.1280296E+00
          2   -1    0    0  502    0  0.00000000000E+00  0.00000000000E+00  0.35111346600E+03  0.35111346600E+03  0.00000000000E+00 0. -1.
         -2   -1    0    0    0  501 -0.00000000000E+00 -0.00000000000E+00 -0.95443824466E+02  0.95443824466E+02  0.00000000000E+00 0.  1.
          6    1    1    2  502    0 -0.21318878290E+02 -0.51899776741E+02  0.10240989340E+03  0.20872198654E+03  0.17300000000E+03 0. -1.
         -6    1    1    2    0  501  0.21318878290E+02  0.51899776741E+02  0.15325974813E+03  0.23783530392E+03  0.17300000000E+03 0.  1.
</event>
<event>
 4    1  0.5880538E-001  0.1000000E+03  0.7546771E-02  0.1280296E+00
         -2   -1    0    0    0  501 -0.00000000000E+00  0.00000000000E+00  0.21267680166E+02  0.21267680166E+02  0.00000000000E+00 0.  1.
          2   -1    0    0  502    0  0.00000000000E+00 -0.00000000000E+00 -0.16360141906E+04  0.16360141906E+04  0.00000000000E+00 0. -1.
          6    1    1    2  502    0 -0.25787545580E+02 -0.64434108451E+02 -0.83830257878E+03  0.85877643507E+03  0.17300000000E+03 0.  1.
         -6    1    1    2    0  501  0.25787545580E+02  0.64434108451E+02 -0.77644393167E+03  0.79850543571E+03  0.17300000000E+03 0. -1.
</event>
<event>
 4    1  0.5880538E-001  0.1000000E+03  0.7546771E-02  0.1280296E+00
         -1   -1    0    0    0  501 -0.00000000000E+00  0.00000000000E+00  0.52304218957E+02  0.52304218957E+02  0.00000000000E+00 0.  1.
          1   -1    0    0  502    0  0.00000000000E+00 -0.00000000000E+00 -0.95087099029E+03  0.95087099029E+03  0.00000000000E+00 0. -1.
          6    1    1    2  502    0 -0.71576429306E+02  0.57343563449E+02 -0.68936425419E+03  0.71663347986E+03  0.17300000000E+03 0.  1.
         -6    1    1    2    0  501  0.71576429306E+02 -0.57343563449E+02 -0.20920251714E+03  0.28654172939E+03  0.17300000000E+03 0. -1.
</event>
<event>
 4    1  0.5880538E-001  0.1000000E+03  0.7546771E-02  0.1280296E+00
         -1   -1    0    0    0  501 -0.00000000000E+00  0.00000000000E+00  0.75785148254E+02  0.75785148254E+02  0.00000000000E+00 0.  1.
          1   -1    0    0  502    0  0.00000000000E+00 -0.00000000000E+00 -0.43346749150E+03  0.43346749150E+03  0.00000000000E+00 0. -1.
          6    1    1    2  502    0 -0.32732240877E+02 -0.30452992616E+02 -0.22151316560E+03  0.28459772819E+03  0.17300000000E+03 0. -1.
         -6    1    1    2    0  501  0.32732240877E+02  0.30452992616E+02 -0.13616917764E+03  0.22465491157E+03  0.17300000000E+03 0.  1.
</event>
<event>
 4    1  0.5880538E-001  0.1000000E+03  0.7546771E-02  0.1280296E+00
          2   -1    0    0  502    0  0.00000000000E+00  0.00000000000E+00  0.23492127873E+04  0.23492127873E+04  0.00000000000E+00 0.  1.
         -2   -1    0    0    0  501 -0.00000000000E+00 -0.00000000000E+00 -0.15092007425E+02  0.15092007425E+02  0.00000000000E+00 0. -1.
          6    1    1    2  502    0  0.55376477115E+02 -0.48069117803E+02  0.12434753967E+04  0.12575918481E+04  0.17300000000E+03 0. -1.
         -6    1    1    2    0  501 -0.55376477115E+02  0.48069117803E+02  0.10906453832E+04  0.11067129466E+04  0.17300000000E+03 0.  1.
</event>
<event>
 4    1  0.5880538E-001  0.1000000E+03  0.7546771E-02  0.1280296E+00
          2   -1    0    0  502    0  0.00000000000E+00  0.00000000000E+00  0.20439254924E+04  0.20439254924E+04  0.00000000000E+00 0.  1.
         -2   -1    0    0    0  501 -0.00000000000E+00 -0.00000000000E+00 -0.30487177454E+02  0.30487177454E+02  0.00000000000E+00 0. -1.
          6    1    1    2  502    0 -0.16135531136E+03  0.67171787401E+02  0.11848014581E+04  0.12100541643E+04  0.17300000000E+03 0. -1.
         -6    1    1    2    0  501  0.16135531136E+03 -0.67171787401E+02  0.82863685685E+03  0.86435850551E+03  0.17300000000E+03 0.  1.
</event>
<event>
 4    1  0.5880538E-001  0.1000000E+03  0.7546771E-02  0.1280296E+00
          2   -1    0    0  502    0  0.00000000000E+00  0.00000000000E+00  0.38379387003E+03  0.38379387003E+03  0.00000000000E+00 0.  1.
         -2   -1    0    0    0  501 -0.00000000000E+00 -0.00000000000E+00 -0.17921317127E+03  0.17921317127E+03  0.00000000000E+00 0. -1.
          6    1    1    2  502    0 -0.14063365480E+03 -0.16995073253E+02  0.24940585445E+03  0.33496109866E+03  0.17300000000E+03 0. -1.
         -6    1    1    2    0  501  0.14063365480E+03  0.16995073253E+02 -0.44825155694E+02  0.22804594265E+03  0.17300000000E+03 0.  1.
</event>
<event>
 4    1  0.5880538E-001  0.1000000E+03  0.7546771E-02  0.1280296E+00
         -2   -1    0    0    0  501 -0.00000000000E+00  0.00000000000E+00  0.10416360462E+03  0.10416360462E+03  0.00000000000E+00 0.  1.
          2   -1    0    0  502    0  0.00000000000E+00 -0.00000000000E+00 -0.34293656419E+03  0.34293656419E+03  0.00000000000E+00 0. -1.
          6    1    1    2  502    0  0.35663353379E+02 -0.38257170872E+02 -0.18478369864E+03  0.25847533960E+03  0.17300000000E+03 0. -1.
         -6    1    1    2    0  501 -0.35663353379E+02  0.38257170872E+02 -0.53989260933E+02  0.18862482921E+03  0.17300000000E+03 0.  1.
</event>
<event>
 4    1  0.5880538E-001  0.1000000E+03  0.7546771E-02  0.1280296E+00
         -1   -1    0    0    0  501 -0.00000000000E+00  0.00000000000E+00  0.40020563569E+02  0.40020563569E+02  0.00000000000E+00 0.  1.
          1   -1    0    0  502    0  0.00000000000E+00 -0.00000000000E+00 -0.18587300780E+04  0.18587300780E+04  0.00000000000E+00 0. -1.
          6    1    1    2  502    0  0.78530669486E+02  0.89009476317E+01 -0.15897931515E+04  0.16011300877E+04  0.17300000000E+03 0. -1.
         -6    1    1    2    0  501 -0.78530669486E+02 -0.89009476317E+01 -0.22891636294E+03  0.29762055396E+03  0.17300000000E+03 0.  1.
</event>
<event>
 4    1  0.5880538E-001  0.1000000E+03  0.7546771E-02  0.1280296E+00
         -1   -1    0    0    0  501 -0.00000000000E+00  0.00000000000E+00  0.89234448147E+03  0.89234448147E+03  0.00000000000E+00 0.  1.
          1   -1    0    0  502    0  0.00000000000E+00 -0.00000000000E+00 -0.41533155451E+02  0.41533155451E+02  0.00000000000E+00 0. -1.
          6    1    1    2  502    0 -0.22356077913E+02  0.77497395580E+02  0.48615109789E+03  0.52228108383E+03  0.17300000000E+03 0. -1.
         -6    1    1    2    0  501  0.22356077913E+02 -0.77497395580E+02  0.36466022813E+03  0.41159655310E+03  0.17300000000E+03 0.  1.
</event>
<event>
 4    1  0.5880538E-001  0.1000000E+03  0.7546771E-02  0.1280296E+00
         -2   -1    0    0    0  501 -0.00000000000E+00  0.00000000000E+00  0.25969797071E+03  0.25969797071E+03  0.00000000000E+00 0.  1.
          2   -1    0    0  502    0  0.00000000000E+00 -0.00000000000E+00 -0.41217400254E+03  0.41217400254E+03  0.00000000000E+00 0. -1.
          6    1    1    2  502    0 -0.21826315023E+03 -0.45354709522E+02 -0.24625143611E+03  0.37451918804E+03  0.17300000000E+03 0. -1.
         -6    1    1    2    0  501  0.21826315023E+03  0.45354709522E+02  0.93775404280E+02  0.29735278521E+03  0.17300000000E+03 0.  1.
</event>
<event>
 4    1  0.5880538E-001  0.1000000E+03  0.7546771E-02  0.1280296E+00
         -2   -1    0    0    0  501 -0.00000000000E+00  0.00000000000E+00  0.14927707174E+02  0.14927707174E+02  0.00000000000E+00 0. -1.
          2   -1    0    0  502    0  0.00000000000E+00 -0.00000000000E+00 -0.21367860184E+04  0.21367860184E+04  0.00000000000E+00 0.  1.
          6    1    1    2  502    0 -0.12053122621E+02  0.34758307809E+02 -0.91155376547E+03  0.92855408300E+03  0.17300000000E+03 0.  1.
         -6    1    1    2    0  501  0.12053122621E+02 -0.34758307809E+02 -0.12103045458E+04  0.12231596426E+04  0.17300000000E+03 0. -1.
</event>
<event>
 4    1  0.5880538E-001  0.1000000E+03  0.7546771E-02  0.1280296E+00
         -1   -1    0    0    0  501 -0.00000000000E+00  0.00000000000E+00  0.15224291332E+03  0.15224291332E+03  0.00000000000E+00 0. -1.
          1   -1    0    0  502    0  0.00000000000E+00 -0.00000000000E+00 -0.55681815916E+03  0.55681815916E+03  0.00000000000E+00 0.  1.
          6    1    1    2  502    0 -0.23914591960E+01 -0.18014822923E+03 -0.38446420703E+03  0.45847664069E+03  0.17300000000E+03 0.  1.
         -6    1    1    2    0  501  0.23914591960E+01  0.18014822923E+03 -0.20111038803E+02  0.25058443179E+03  0.17300000000E+03 0. -1.
</event>
<event>
 4    1  0.5880538E-001  0.1000000E+03  0.7546771E-02  0.1280296E+00
         -2   -1    0    0    0  501 -0.00000000000E+00  0.00000000000E+00  0.17833485822E+03  0.17833485822E+03  0.00000000000E+00 0. -1.
          2   -1    0    0  502    0  0.00000000000E+00 -0.00000000000E+00 -0.17788243121E+04  0.17788243121E+04  0.00000000000E+00 0.  1.
          6    1    1    2  502    0 -0.50701014235E+03 -0.18203492324E+01 -0.11023546105E+04  0.12256334221E+04  0.17300000000E+03 0.  1.
         -6    1    1    2    0  501  0.50701014235E+03  0.18203492324E+01 -0.49813484341E+03  0.73152574823E+03  0.17300000000E+03 0. -1.
</event>
<event>
 4    1  0.5880538E-001  0.1000000E+03  0.7546771E-02  0.1280296E+00
         -2   -1    0    0    0  501 -0.00000000000E+00  0.00000000000E+00  0.96567599770E+02  0.96567599770E+02  0.00000000000E+00 0. -1.
          2   -1    0    0  502    0  0.00000000000E+00 -0.00000000000E+00 -0.19058045285E+04  0.19058045285E+04  0.00000000000E+00 0.  1.
          6    1    1    2  502    0  0.16737668315E+03  0.25800182489E+03 -0.14740324221E+04  0.15156782235E+04  0.17300000000E+03 0.  1.
         -6    1    1    2    0  501 -0.16737668315E+03 -0.25800182489E+03 -0.33520450665E+03  0.48669390482E+03  0.17300000000E+03 0. -1.
</event>
<event>
 4    1  0.5880538E-001  0.1000000E+03  0.7546771E-02  0.1280296E+00
          1   -1    0    0  502    0  0.00000000000E+00  0.00000000000E+00  0.22887442229E+04  0.22887442229E+04  0.00000000000E+00 0. -1.
         -1   -1    0    0    0  501 -0.00000000000E+00 -0.00000000000E+00 -0.13967312378E+02  0.13967312378E+02  0.00000000000E+00 0.  1.
          6    1    1    2  502    0  0.26243574237E+02  0.13081065421E+02  0.91629886378E+03  0.93294825538E+03  0.17300000000E+03 0. -1.
         -6    1    1    2    0  501 -0.26243574237E+02 -0.13081065421E+02  0.13584780468E+04  0.13697632799E+04  0.17300000000E+03 0.  1.
</event>
<event>
 4    1  0.5880538E-001  0.1000000E+03  0.7546771E-02  0.1280296E+00
          2   -1    0    0  502    0  0.00000000000E+00  0.00000000000E+00  0.27293376917E+04  0.27293376917E+04  0.00000000000E+00 0.  1.
         -2   -1    0    0    0  501 -0.00000000000E+00 -0.00000000000E+00 -0.24498006569E+02  0.24498006569E+02  0.00000000000E+00 0. -1.
          6    1    1    2  502    0  0.13587577891E+02  0.16425654188E+03  0.82609949083E+03  0.85996174483E+03  0.17300000000E+03 0.  1.
         -6    1    1    2    0  501 -0.13587577891E+02 -0.16425654188E+03  0.18787401943E+04  0.18938739534E+04  0.17300000000E+03 0. -1.
</event>
<event>
 4    1  0.5880538E-001  0.1000000E+03  0.7546771E-02  0.1280296E+00
          2   -1    0    0  502    0  0.00000000000E+00  0.00000000000E+00  0.47643357942E+03  0.47643357942E+03  0.00000000000E+00 0.  1.
         -2   -1    0    0    0  501 -0.00000000000E+00 -0.00000000000E+00 -0.12927109744E+03  0.12927109744E+03  0.00000000000E+00 0. -1.
          6    1    1    2  502    0  0.10954102248E+03 -0.99671885247E+02  0.29393355789E+03  0.37183283444E+03  0.17300000000E+03 0.  1.
         -6    1    1    2    0  501 -0.10954102248E+03  0.99671885247E+02  0.53228924085E+02  0.23387184241E+03  0.17300000000E+03 0. -1.
</event>
<event>
 4    1  0.5880538E-001  0.1000000E+03  0.7546771E-02  0.1280296E+00
          2   -1    0    0  502    0  0.00000000000E+00  0.00000000000E+00  0.11113671818E+04  0.11113671818E+04  0.00000000000E+00 0.  1.
         -2   -1    0    0    0  501 -0.00000000000E+00 -0.00000000000E+00 -0.41805293994E+02  0.41805293994E+02  0.00000000000E+00 0. -1.
          6    1    1    2  502    0  0.28882398812E+02 -0.51171129158E+02  0.84070455737E+03  0.86032890815E+03  0.17300000000E+03 0.  1.
         -6    1    1    2    0  501 -0.28882398812E+02  0.51171129158E+02  0.22885733048E+03  0.29284356769E+03  0.17300000000E+03 0. -1.
</event>
<event>
 4    1  0.5880538E-001  0.1000000E+03  0.7546771E-02  0.1280296E+00
          2   -1    0    0  502    0  0.00000000000E+00  0.00000000000E+00  0.13405305829E+04  0.13405305829E+04  0.00000000000E+00 0. -1.
         -2   -1    0    0    0  501 -0.00000000000E+00 -0.00000000000E+00 -0.28937719769E+02  0.28937719769E+02  0.00000000000E+00 0.  1.
          6    1    1    2  502    0 -0.16245882671E+02 -0.82831491012E+02  0.51086399909E+03  0.54592674433E+03  0.17300000000E+03 0.  1.
         -6    1    1    2    0  501  0.16245882671E+02  0.82831491012E+02  0.80072886407E+03  0.82354155837E+03  0.17300000000E+03 0. -1.
</event>
<event>
 4    1  0.5880538E-001  0.1000000E+03  0.7546771E-02  0.1280296E+00
          2   -1    0    0  502    0  0.00000000000E+00  0.00000000000E+00  0.17879547370E+04  0.17879547370E+04  0.00000000000E+00 0. -1.
         -2   -1    0    0    0  501 -0.00000000000E+00 -0.00000000000E+00 -0.22959217072E+02  0.22959217072E+02  0.00000000000E+00 0.  1.
          6    1    1    2  502    0  0.73759018444E+02  0.13625680733E+02  0.55121835774E+03  0.58257765996E+03  0.17300000000E+03 0.  1.
         -6    1    1    2    0  501 -0.73759018444E+02 -0.13625680733E+02  0.12137771622E+04  0.12283362941E+04  0.17300000000E+03 0. -1.
</event>
<event>
 4    1  0.5880538E-001  0.1000000E+03  0.7546771E-02  0.1280296E+00
          1   -1    0    0  502    0  0.00000000000E+00  0.00000000000E+00  0.10828522236E+03  0.10828522236E+03  0.00000000000E+00 0.  1.
         -1   -1    0    0    0  501 -0.00000000000E+00 -0.00000000000E+00 -0.50800270944E+03  0.50800270944E+03  0.00000000000E+00 0. -1.
          6    1    1    2  502    0 -0.35049098407E+02  0.12220268846E+03 -0.75786145003E+02  0.22767186067E+03  0.17300000000E+03 0.  1.
         -6    1    1    2    0  501  0.35049098407E+02 -0.12220268846E+03 -0.32393134208E+03  0.38861607114E+03  0.17300000000E+03 0.  1.
</event>
<event>
 4    1  0.5880538E-001  0.1000000E+03  0.7546771E-02  0.1280296E+00
          2   -1    0    0  502    0  0.00000000000E+00  0.00000000000E+00  0.73053061348E+03  0.73053061348E+03  0.00000000000E+00 0.  1.
         -2   -1    0    0    0  501 -0.00000000000E+00 -0.00000000000E+00 -0.10399475676E+03  0.10399475676E+03  0.00000000000E+00 0. -1.
          6    1    1    2  502    0 -0.11446234122E+03 -0.14066043432E+03  0.48690246770E+03  0.54762213103E+03  0.17300000000E+03 0.  1.
         -6    1    1    2    0  501  0.11446234122E+03  0.14066043432E+03  0.13963338902E+03  0.28690323921E+03  0.17300000000E+03 0.  1.
</event>
<event>
 4    1  0.5880538E-001  0.1000000E+03  0.7546771E-02  0.1280296E+00
          1   -1    0    0  502    0  0.00000000000E+00  0.00000000000E+00  0.30861516156E+03  0.30861516156E+03  0.00000000000E+00 0.  1.
         -1   -1    0    0    0  501 -0.00000000000E+00 -0.00000000000E+00 -0.32545875064E+03  0.32545875064E+03  0.00000000000E+00 0. -1.
          6    1    1    2  502    0  0.38108962481E+02 -0.17214483987E+03 -0.20705262515E+03  0.32231340105E+03  0.17300000000E+03 0.  1.
         -6    1    1    2    0  501 -0.38108962481E+02  0.17214483987E+03  0.19020903607E+03  0.31176051116E+03  0.17300000000E+03 0.  1.
</event>
<event>
 4    1  0.5880538E-001  0.1000000E+03  0.7546771E-02  0.1280296E+00
          2   -1    0    0  502    0  0.00000000000E+00  0.00000000000E+00  0.14208127988E+03  0.14208127988E+03  0.00000000000E+00 0.  1.
         -2   -1    0    0    0  501 -0.00000000000E+00 -0.00000000000E+00 -0.27882280756E+03  0.27882280756E+03  0.00000000000E+00 0. -1.
          6    1    1    2  502    0 -0.49786843904E+02  0.79211088152E+02 -0.10067419560E+03  0.22094664508E+03  0.17300000000E+03 0.  1.
         -6    1    1    2    0  501  0.49786843904E+02 -0.79211088152E+02 -0.36067332070E+02  0.19995744236E+03  0.17300000000E+03 0.  1.
</event>
<event>
 4    1  0.5880538E-001  0.1000000E+03  0.7546771E-02  0.1280296E+00
          2   -1    0    0  502    0  0.00000000000E+00  0.00000000000E+00  0.31089490459E+04  0.31089490459E+04  0.00000000000E+00 0.  1.
         -2   -1    0    0    0  501 -0.00000000000E+00 -0.00000000000E+00 -0.36205747202E+02  0.36205747202E+02  0.00000000000E+00 0. -1.
          6    1    1    2  502    0  0.18229966271E+03 -0.20996512704E+03  0.11946759052E+04  0.12387485782E+04  0.17300000000E+03 0.  1.
         -6    1    1    2    0  501 -0.18229966271E+03  0.20996512704E+03  0.18780673935E+04  0.19064062148E+04  0.17300000000E+03 0.  1.
</event>
<event>
 4    1  0.5880538E-001  0.1000000E+03  0.7546771E-02  0.1280296E+00
         -2   -1    0    0    0  501 -0.00000000000E+00  0.00000000000E+00  0.27057226397E+02  0.27057226397E+02  0.00000000000E+00 0.  1.
          2   -1    0    0  502    0  0.00000000000E+00 -0.00000000000E+00 -0.14828615577E+04  0.14828615577E+04  0.00000000000E+00 0. -1.
          6    1    1    2  502    0 -0.16484954981E+02  0.81799359435E+02 -0.51368784315E+03  0.54842236383E+03  0.17300000000E+03 0. -1.
         -6    1    1    2    0  501  0.16484954981E+02 -0.81799359435E+02 -0.94211648818E+03  0.96149642030E+03  0.17300000000E+03 0.  1.
</event>
<event>
 4    1  0.5880538E-001  0.1000000E+03  0.7546771E-02  0.1280296E+00
         -1   -1    0    0    0  501 -0.00000000000E+00  0.00000000000E+00  0.11291492219E+03  0.11291492219E+03  0.00000000000E+00 0. -1.
          1   -1    0    0  502    0  0.00000000000E+00 -0.00000000000E+00 -0.83314069930E+03  0.83314069930E+03  0.00000000000E+00 0.  1.
          6    1    1    2  502    0 -0.23393601123E+03  0.89833503819E+02 -0.30347044958E+03  0.42990630320E+03  0.17300000000E+03 0.  1.
         -6    1    1    2    0  501  0.23393601123E+03 -0.89833503819E+02 -0.41675532752E+03  0.51614931829E+03  0.17300000000E+03 0.  1.
</event>
<event>
 4    1  0.5880538E-001  0.1000000E+03  0.7546771E-02  0.1280296E+00
         -1   -1    0    0    0  501 -0.00000000000E+00  0.00000000000E+00  0.33929401027E+02  0.33929401027E+02  0.00000000000E+00 0.  1.
          1   -1    0    0  502    0  0.00000000000E+00 -0.00000000000E+00 -0.19297298818E+04  0.19297298818E+04  0.00000000000E+00 0. -1.
          6    1    1    2  502    0  0.61490321227E+02 -0.90635167968E+02 -0.15367347602E+04  0.15503156183E+04  0.17300000000E+03 0. -1.
         -6    1    1    2    0  501 -0.61490321227E+02  0.90635167968E+02 -0.35906572058E+03  0.41334366449E+03  0.17300000000E+03 0. -1.
</event>
<event>
 4    1  0.5880538E-001  0.1000000E+03  0.7546771E-02  0.1280296E+00
         -1   -1    0    0    0  501 -0.00000000000E+00  0.00000000000E+00  0.12452051369E+03  0.12452051369E+03  0.00000000000E+00 0.  1.
          1   -1    0    0  502    0  0.00000000000E+00 -0.00000000000E+00 -0.29547927540E+03  0.29547927540E+03  0.00000000000E+00 0. -1.
          6    1    1    2  502    0  0.48635073998E+02 -0.53085614721E+02 -0.40595508229E+02  0.19173014422E+03  0.17300000000E+03 0. -1.
         -6    1    1    2    0  501 -0.48635073998E+02  0.53085614721E+02 -0.13036325348E+03  0.22826964487E+03  0.17300000000E+03 0. -1.
</event>
<event>
 4    1  0.5880538E-001  0.1000000E+03  0.7546771E-02  0.1280296E+00
          2   -1    0    0  502    0  0.00000000000E+00  0.00000000000E+00  0.12755779150E+04  0.12755779150E+04  0.00000000000E+00 0.  1.
         -2   -1    0    0    0  501 -0.00000000000E+00 -0.00000000000E+00 -0.41156057128E+02  0.41156057128E+02  0.00000000000E+00 0. -1.
          6    1    1    2  502    0  0.60131370954E+02  0.86028169391E+02  0.30837437396E+03  0.36883652505E+03  0.17300000000E+03 0. -1.
         -6    1    1    2    0  501 -0.60131370954E+02 -0.86028169391E+02  0.92604748393E+03  0.94789744709E+03  0.17300000000E+03 0.  1.
</event>
<event>
 4    1  0.5880538E-001  0.1000000E+03  0.7546771E-02  0.1280296E+00
          1   -1    0    0  502    0  0.00000000000E+00  0.00000000000E+00  0.33635184178E+03  0.33635184178E+03  0.00000000000E+00 0. -1.
         -1   -1    0    0    0  501 -0.00000000000E+00 -0.00000000000E+00 -0.14194125066E+03  0.14194125066E+03  0.00000000000E+00 0.  1.
          6    1    1    2  502    0  0.28008753893E+02 -0.12273835974E+03  0.14571004679E+03  0.25886215054E+03  0.17300000000E+03 0. -1.
         -6    1    1    2    0  501 -0.28008753893E+02  0.12273835974E+03  0.48700544329E+02  0.21943094190E+03  0.17300000000E+03 0.  1.
</event>
<event>
 4    1  0.5880538E-001  0.1000000E+03  0.7546771E-02  0.1280296E+00
          2   -1    0    0  502    0  0.00000000000E+00  0.00000000000E+00  0.11863286382E+04  0.11863286382E+04  0.00000000000E+00 0. -1.
         -2   -1    0    0    0  501 -0.00000000000E+00 -0.00000000000E+00 -0.12812789945E+03  0.12812789945E+03  0.00000000000E+00 0.  1.
          6    1    1    2  502    0 -0.23696546140E+03  0.20912087594E+03  0.78020636246E+03  0.85938067157E+03  0.17300000000E+03 0. -1.
         -6    1    1    2    0  501  0.23696546140E+03 -0.20912087594E+03  0.27799437631E+03  0.45507586610E+03  0.17300000000E+03 0.  1.
</event>
<event>
 4    1  0.5880538E-001  0.1000000E+03  0.7546771E-02  0.1280296E+00
          1   -1    0    0  502    0  0.00000000000E+00  0.00000000000E+00  0.16621295833E+04  0.16621295833E+04  0.00000000000E+00 0.  1.
         -1   -1    0    0    0  501 -0.00000000000E+00 -0.00000000000E+00 -0.26294947189E+02  0.26294947189E+02  0.00000000000E+00 0. -1.
          6    1    1    2  502    0 -0.15289693096E+02  0.92827231214E+02  0.11013354474E+04  0.11188026802E+04  0.17300000000E+03 0. -1.
         -6    1    1    2    0  501  0.15289693096E+02 -0.92827231214E+02  0.53449918870E+03  0.56962185026E+03  0.17300000000E+03 0.  1.
</event>
<event>
 4    1  0.5880538E-001  0.1000000E+03  0.7546771E-02  0.1280296E+00
         -2   -1    0    0    0  501 -0.00000000000E+00  0.00000000000E+00  0.23610743948E+02  0.23610743948E+02  0.00000000000E+00 0. -1.
          2   -1    0    0  502    0  0.00000000000E+00 -0.00000000000E+00 -0.24157098290E+04  0.24157098290E+04  0.00000000000E+00 0.  1.
          6    1    1    2  502    0 -0.44980713128E+02 -0.79347149723E-02 -0.38720719128E+03  0.42647587693E+03  0.17300000000E+03 0. -1.
         -6    1    1    2    0  501  0.44980713128E+02  0.79347149723E-02 -0.20048918937E+04  0.20128446960E+04  0.17300000000E+03 0.  1.
</event>
<event>
 4    1  0.5880538E-001  0.1000000E+03  0.7546771E-02  0.1280296E+00
         -1   -1    0    0    0  501 -0.00000000000E+00  0.00000000000E+00  0.43839498306E+03  0.43839498306E+03  0.00000000000E+00 0. -1.
          1   -1    0    0  502    0  0.00000000000E+00 -0.00000000000E+00 -0.14476079034E+03  0.14476079034E+03  0.00000000000E+00 0.  1.
          6    1    1    2  502    0  0.11899423478E+03  0.36635750211E+02  0.30223943275E+03  0.36983710038E+03  0.17300000000E+03 0. -1.
         -6    1    1    2    0  501 -0.11899423478E+03 -0.36635750211E+02 -0.86052400379E+01  0.21331867302E+03  0.17300000000E+03 0.  1.
</event>
<event>
 4    1  0.5880538E-001  0.1000000E+03  0.7546771E-02  0.1280296E+00
         -3   -1    0    0    0  501 -0.00000000000E+00  0.00000000000E+00  0.42154688939E+03  0.42154688939E+03  0.00000000000E+00 0. -1.
          3   -1    0    0  502    0  0.00000000000E+00 -0.00000000000E+00 -0.22554667925E+03  0.22554667925E+03  0.00000000000E+00 0.  1.
          6    1    1    2  502    0 -0.98205815208E+02  0.87912839882E+02 -0.13135207350E+03  0.25407758022E+03  0.17300000000E+03 0. -1.
         -6    1    1    2    0  501  0.98205815208E+02 -0.87912839882E+02  0.32735228364E+03  0.39301598843E+03  0.17300000000E+03 0.  1.
</event>
<event>
 4    1  0.5880538E-001  0.1000000E+03  0.7546771E-02  0.1280296E+00
         -1   -1    0    0    0  501 -0.00000000000E+00  0.00000000000E+00  0.96650218156E+02  0.96650218156E+02  0.00000000000E+00 0. -1.
          1   -1    0    0  502    0  0.00000000000E+00 -0.00000000000E+00 -0.49929755899E+03  0.49929755899E+03  0.00000000000E+00 0.  1.
          6    1    1    2  502    0 -0.57482117757E+02 -0.10984025167E+03 -0.12753663485E+03  0.24812026918E+03  0.17300000000E+03 0. -1.
         -6    1    1    2    0  501  0.57482117757E+02  0.10984025167E+03 -0.27511070599E+03  0.34782750797E+03  0.17300000000E+03 0.  1.
</event>
<event>
 4    1  0.5880538E-001  0.1000000E+03  0.7546771E-02  0.1280296E+00
         -1   -1    0    0    0  501 -0.00000000000E+00  0.00000000000E+00  0.36754149862E+03  0.36754149862E+03  0.00000000000E+00 0. -1.
          1   -1    0    0  502    0  0.00000000000E+00 -0.00000000000E+00 -0.21749201262E+03  0.21749201262E+03  0.00000000000E+00 0.  1.
          6    1    1    2  502    0  0.12585368353E+03  0.66055838005E+02 -0.10359374768E+03  0.24670465733E+03  0.17300000000E+03 0. -1.
         -6    1    1    2    0  501 -0.12585368353E+03 -0.66055838005E+02  0.25364323369E+03  0.33832885391E+03  0.17300000000E+03 0.  1.
</event>
<event>
 4    1  0.5880538E-001  0.1000000E+03  0.7546771E-02  0.1280296E+00
          2   -1    0    0  502    0  0.00000000000E+00  0.00000000000E+00  0.54849841606E+03  0.54849841606E+03  0.00000000000E+00 0. -1.
         -2   -1    0    0    0  501 -0.00000000000E+00 -0.00000000000E+00 -0.57686224062E+02  0.57686224062E+02  0.00000000000E+00 0.  1.
          6    1    1    2  502    0  0.26322011246E+02 -0.10341112131E+02  0.19394816355E+03  0.26142814887E+03  0.17300000000E+03 0.  1.
         -6    1    1    2    0  501 -0.26322011246E+02  0.10341112131E+02  0.29686402845E+03  0.34475649125E+03  0.17300000000E+03 0. -1.
</event>
<event>
 4    1  0.5880538E-001  0.1000000E+03  0.7546771E-02  0.1280296E+00
          2   -1    0    0  502    0  0.00000000000E+00  0.00000000000E+00  0.88244231993E+03  0.88244231993E+03  0.00000000000E+00 0. -1.
         -2   -1    0    0    0  501 -0.00000000000E+00 -0.00000000000E+00 -0.65627531638E+02  0.65627531638E+02  0.00000000000E+00 0.  1.
          6    1    1    2  502    0  0.87272385865E+02  0.20920854918E+02  0.13032671505E+03  0.23445298923E+03  0.17300000000E+03 0.  1.
         -6    1    1    2    0  501 -0.87272385865E+02 -0.20920854918E+02  0.68648807324E+03  0.71361686233E+03  0.17300000000E+03 0. -1.
</event>
<event>
 4    1  0.5880538E-001  0.1000000E+03  0.7546771E-02  0.1280296E+00
          2   -1    0    0  502    0  0.00000000000E+00  0.00000000000E+00  0.19707422375E+04  0.19707422375E+04  0.00000000000E+00 0. -1.
         -2   -1    0    0    0  501 -0.00000000000E+00 -0.00000000000E+00 -0.31146586502E+02  0.31146586502E+02  0.00000000000E+00 0.  1.
          6    1    1    2  502    0  0.15202498211E+02 -0.88723569933E+02  0.15871491503E+04  0.15990854928E+04  0.17300000000E+03 0.  1.
         -6    1    1    2    0  501 -0.15202498211E+02  0.88723569933E+02  0.35244650067E+03  0.40280333122E+03  0.17300000000E+03 0. -1.
</event>
<event>
 4    1  0.5880538E-001  0.1000000E+03  0.7546771E-02  0.1280296E+00
          2   -1    0    0  502    0  0.00000000000E+00  0.00000000000E+00  0.28547318174E+04  0.28547318174E+04  0.00000000000E+00 0. -1.
         -2   -1    0    0    0  501 -0.00000000000E+00 -0.00000000000E+00 -0.26848410636E+02  0.26848410636E+02  0.00000000000E+00 0.  1.
          6    1    1    2  502    0 -0.19619212920E+02  0.21516465415E+03  0.14448491111E+04  0.14711215775E+04  0.17300000000E+03 0.  1.
         -6    1    1    2    0  501  0.19619212920E+02 -0.21516465415E+03  0.13830342957E+04  0.14104586505E+04  0.17300000000E+03 0. -1.
</event>
<event>
 4    1  0.5880538E-001  0.1000000E+03  0.7546771E-02  0.1280296E+00
          2   -1    0    0  502    0  0.00000000000E+00  0.00000000000E+00  0.19299789185E+04  0.19299789185E+04  0.00000000000E+00 0.  1.
         -2   -1    0    0    0  501 -0.00000000000E+00 -0.00000000000E+00 -0.79233786937E+02  0.79233786937E+02  0.00000000000E+00 0. -1.
          6    1    1    2  502    0 -0.12385216075E+03 -0.32331757682E+03  0.78194665297E+03  0.87249251073E+03  0.17300000000E+03 0. -1.
         -6    1    1    2    0  501  0.12385216075E+03  0.32331757682E+03  0.10687984786E+04  0.11367201947E+04  0.17300000000E+03 0. -1.
</event>
<event>
 4    1  0.5880538E-001  0.1000000E+03  0.7546771E-02  0.1280296E+00
          1   -1    0    0  502    0  0.00000000000E+00  0.00000000000E+00  0.34099876197E+03  0.34099876197E+03  0.00000000000E+00 0.  1.
         -1   -1    0    0    0  501 -0.00000000000E+00 -0.00000000000E+00 -0.10833885902E+03  0.10833885902E+03  0.00000000000E+00 0. -1.
          6    1    1    2  502    0 -0.44373759829E+01 -0.83010290885E+02  0.12825139143E+03  0.23084154328E+03  0.17300000000E+03 0. -1.
         -6    1    1    2    0  501  0.44373759829E+01  0.83010290885E+02  0.10440851152E+03  0.21849607771E+03  0.17300000000E+03 0. -1.
</event>
<event>
 4    1  0.5880538E-001  0.1000000E+03  0.7546771E-02  0.1280296E+00
          1   -1    0    0  502    0  0.00000000000E+00  0.00000000000E+00  0.23879710325E+03  0.23879710325E+03  0.00000000000E+00 0. -1.
         -1   -1    0    0    0  501 -0.00000000000E+00 -0.00000000000E+00 -0.17786951583E+03  0.17786951583E+03  0.00000000000E+00 0.  1.
          6    1    1    2  502    0  0.10449195162E+03  0.33097620163E+01  0.71102636507E+02  0.21427577417E+03  0.17300000000E+03 0.  1.
         -6    1    1    2    0  501 -0.10449195162E+03 -0.33097620163E+01 -0.10175049094E+02  0.20239084491E+03  0.17300000000E+03 0. -1.
</event>
<event>
 4    1  0.5880538E-001  0.1000000E+03  0.7546771E-02  0.1280296E+00
          2   -1    0    0  502    0  0.00000000000E+00  0.00000000000E+00  0.26239320592E+04  0.26239320592E+04  0.00000000000E+00 0. -1.
         -2   -1    0    0    0  501 -0.00000000000E+00 -0.00000000000E+00 -0.98871560318E+02  0.98871560318E+02  0.00000000000E+00 0.  1.
          6    1    1    2  502    0  0.13817722899E+03  0.20959276900E+03  0.23531086985E+04  0.23727771961E+04  0.17300000000E+03 0.  1.
         -6    1    1    2    0  501 -0.13817722899E+03 -0.20959276900E+03  0.17195180039E+03  0.35002642341E+03  0.17300000000E+03 0. -1.
</event>
<event>
 4    1  0.5880538E-001  0.1000000E+03  0.7546771E-02  0.1280296E+00
          1   -1    0    0  502    0  0.00000000000E+00  0.00000000000E+00  0.12880959639E+03  0.12880959639E+03  0.00000000000E+00 0.  1.
         -1   -1    0    0    0  501 -0.00000000000E+00 -0.00000000000E+00 -0.55881000365E+03  0.55881000365E+03  0.00000000000E+00 0. -1.
          6    1    1    2  502    0  0.83677597532E+02  0.15113469889E+03 -0.73412807439E+02  0.25526863856E+03  0.17300000000E+03 0. -1.
         -6    1    1    2    0  501 -0.83677597532E+02 -0.15113469889E+03 -0.35658759983E+03  0.43235096148E+03  0.17300000000E+03 0. -1.
</event>
<event>
 4    1  0.5880538E-001  0.1000000E+03  0.7546771E-02  0.1280296E+00
          2   -1    0    0  502    0  0.00000000000E+00  0.00000000000E+00  0.10115530262E+04  0.10115530262E+04  0.00000000000E+00 0.  1.
         -2   -1    0    0    0  501 -0.00000000000E+00 -0.00000000000E+00 -0.41237938416E+02  0.41237938416E+02  0.00000000000E+00 0. -1.
          6    1    1    2  502    0 -0.80358573542E+02  0.68028091346E+02  0.41696596701E+03  0.46354604862E+03  0.17300000000E+03 0. -1.
         -6    1    1    2    0  501  0.80358573542E+02 -0.68028091346E+02  0.55334912075E+03  0.58924491596E+03  0.17300000000E+03 0. -1.
</event>
<event>
 4    1  0.5880538E-001  0.1000000E+03  0.7546771E-02  0.1280296E+00
          1   -1    0    0  502    0  0.00000000000E+00  0.00000000000E+00  0.14281883917E+04  0.14281883917E+04  0.00000000000E+00 0. -1.
         -1   -1    0    0    0  501 -0.00000000000E+00 -0.00000000000E+00 -0.30357356517E+02  0.30357356517E+02  0.00000000000E+00 0.  1.
          6    1    1    2  502    0 -0.67945603372E+02 -0.84785230024E+02  0.83996620943E+03  0.86445206532E+03  0.17300000000E+03 0. -1.
         -6    1    1    2    0  501  0.67945603372E+02  0.84785230024E+02  0.55786482575E+03  0.59409368289E+03  0.17300000000E+03 0. -1.
</event>
<event>
 4    1  0.5880538E-001  0.1000000E+03  0.7546771E-02  0.1280296E+00
          2   -1    0    0  502    0  0.00000000000E+00  0.00000000000E+00  0.54039577526E+03  0.54039577526E+03  0.00000000000E+00 0. -1.
         -2   -1    0    0    0  501 -0.00000000000E+00 -0.00000000000E+00 -0.79368628250E+02  0.79368628250E+02  0.00000000000E+00 0.  1.
          6    1    1    2  502    0  0.56490461750E+02  0.31452043319E+02  0.37072709468E+03  0.41418351250E+03  0.17300000000E+03 0. -1.
         -6    1    1    2    0  501 -0.56490461750E+02 -0.31452043319E+02  0.90300052331E+02  0.20558089101E+03  0.17300000000E+03 0. -1.
</event>
<event>
 4    1  0.5880538E-001  0.1000000E+03  0.7546771E-02  0.1280296E+00
         -2   -1    0    0    0  501 -0.00000000000E+00  0.00000000000E+00  0.87297317117E+02  0.87297317117E+02  0.00000000000E+00 0. -1.
          2   -1    0    0  502    0  0.00000000000E+00 -0.00000000000E+00 -0.54282775207E+03  0.54282775207E+03  0.00000000000E+00 0.  1.
          6    1    1    2  502    0 -0.86546806668E+02  0.23833988528E+02 -0.87442119151E+02  0.21362006684E+03  0.17300000000E+03 0.  1.
         -6    1    1    2    0  501  0.86546806668E+02 -0.23833988528E+02 -0.36808831580E+03  0.41650500235E+03  0.17300000000E+03 0. -1.
</event>
<event>
 4    1  0.5880538E-001  0.1000000E+03  0.7546771E-02  0.1280296E+00
         -2   -1    0    0    0  501 -0.00000000000E+00  0.00000000000E+00  0.22189414353E+03  0.22189414353E+03  0.00000000000E+00 0. -1.
          2   -1    0    0  502    0  0.00000000000E+00 -0.00000000000E+00 -0.23904846360E+03  0.23904846360E+03  0.00000000000E+00 0.  1.
          6    1    1    2  502    0 -0.82892392587E+02 -0.27888396678E+01  0.11892988013E+03  0.22572603475E+03  0.17300000000E+03 0.  1.
         -6    1    1    2    0  501  0.82892392587E+02  0.27888396678E+01 -0.13608420020E+03  0.23521657237E+03  0.17300000000E+03 0. -1.
</event>
<event>
 4    1  0.5880538E-001  0.1000000E+03  0.7546771E-02  0.1280296E+00
          1   -1    0    0  502    0  0.00000000000E+00  0.00000000000E+00  0.47734876356E+03  0.47734876356E+03  0.00000000000E+00 0.  1.
         -1   -1    0    0    0  501 -0.00000000000E+00 -0.00000000000E+00 -0.84697323021E+02  0.84697323021E+02  0.00000000000E+00 0. -1.
          6    1    1    2  502    0  0.85315490079E+02  0.13554470626E+02  0.11928266021E+03  0.22719993299E+03  0.17300000000E+03 0. -1.
         -6    1    1    2    0  501 -0.85315490079E+02 -0.13554470626E+02  0.27336878033E+03  0.33484615360E+03  0.17300000000E+03 0.  1.
</event>
<event>
 4    1  0.5880538E-001  0.1000000E+03  0.7546771E-02  0.1280296E+00
          1   -1    0    0  502    0  0.00000000000E+00  0.00000000000E+00  0.13899282977E+03  0.13899282977E+03  0.00000000000E+00 0.  1.
         -1   -1    0    0    0  501 -0.00000000000E+00 -0.00000000000E+00 -0.28597113651E+03  0.28597113651E+03  0.00000000000E+00 0. -1.
          6    1    1    2  502    0  0.78673612695E+02 -0.21186870620E+02 -0.13359457533E+03  0.23327008248E+03  0.17300000000E+03 0. -1.
         -6    1    1    2    0  501 -0.78673612695E+02  0.21186870620E+02 -0.13383731406E+02  0.19169388380E+03  0.17300000000E+03 0.  1.
</event>
<event>
 4    1  0.5880538E-001  0.1000000E+03  0.7546771E-02  0.1280296E+00
          1   -1    0    0  502    0  0.00000000000E+00  0.00000000000E+00  0.86787754628E+03  0.86787754628E+03  0.00000000000E+00 0. -1.
         -1   -1    0    0    0  501 -0.00000000000E+00 -0.00000000000E+00 -0.23041783179E+03  0.23041783179E+03  0.00000000000E+00 0.  1.
          6    1    1    2  502    0  0.12046159341E+03 -0.13173617480E+03  0.77521280592E+03  0.81409416513E+03  0.17300000000E+03 0. -1.
         -6    1    1    2    0  501 -0.12046159341E+03  0.13173617480E+03 -0.13775309143E+03  0.28420121294E+03  0.17300000000E+03 0.  1.
</event>
<event>
 4    1  0.5880538E-001  0.1000000E+03  0.7546771E-02  0.1280296E+00
          2   -1    0    0  502    0  0.00000000000E+00  0.00000000000E+00  0.15610408386E+04  0.15610408386E+04  0.00000000000E+00 0. -1.
         -2   -1    0    0    0  501 -0.00000000000E+00 -0.00000000000E+00 -0.36481366884E+02  0.36481366884E+02  0.00000000000E+00 0.  1.
          6    1    1    2  502    0  0.27687605771E+02  0.15021156997E+03  0.55896225834E+03  0.60472963009E+03  0.17300000000E+03 0.  1.
         -6    1    1    2    0  501 -0.27687605771E+02 -0.15021156997E+03  0.96559721337E+03  0.99279257538E+03  0.17300000000E+03 0. -1.
</event>
<event>
 4    1  0.5880538E-001  0.1000000E+03  0.7546771E-02  0.1280296E+00
          2   -1    0    0  502    0  0.00000000000E+00  0.00000000000E+00  0.25027910001E+04  0.25027910001E+04  0.00000000000E+00 0. -1.
         -2   -1    0    0    0  501 -0.00000000000E+00 -0.00000000000E+00 -0.16412389855E+02  0.16412389855E+02  0.00000000000E+00 0.  1.
          6    1    1    2  502    0 -0.99429765928E+02  0.37801219537E+01  0.10237039687E+04  0.10429762141E+04  0.17300000000E+03 0.  1.
         -6    1    1    2    0  501  0.99429765928E+02 -0.37801219537E+01  0.14626746416E+04  0.14762271759E+04  0.17300000000E+03 0. -1.
</event>
<event>
 4    1  0.5880538E-001  0.1000000E+03  0.7546771E-02  0.1280296E+00
          2   -1    0    0  502    0  0.00000000000E+00  0.00000000000E+00  0.13473078963E+04  0.13473078963E+04  0.00000000000E+00 0. -1.
         -2   -1    0    0    0  501 -0.00000000000E+00 -0.00000000000E+00 -0.59339552170E+02  0.59339552170E+02  0.00000000000E+00 0.  1.
          6    1    1    2  502    0  0.63023218903E+02 -0.10463764137E+01  0.11777473555E+04  0.11920532096E+04  0.17300000000E+03 0.  1.
         -6    1    1    2    0  501 -0.63023218903E+02  0.10463764137E+01  0.11022098855E+03  0.21459423884E+03  0.17300000000E+03 0. -1.
</event>
<event>
 4    1  0.5880538E-001  0.1000000E+03  0.7546771E-02  0.1280296E+00
         -2   -1    0    0    0  501 -0.00000000000E+00  0.00000000000E+00  0.14420370363E+02  0.14420370363E+02  0.00000000000E+00 0. -1.
          2   -1    0    0  502    0  0.00000000000E+00 -0.00000000000E+00 -0.27919514622E+04  0.27919514622E+04  0.00000000000E+00 0.  1.
          6    1    1    2  502    0  0.62440592432E+02  0.39734105235E+02 -0.18760005767E+04  0.18854136921E+04  0.17300000000E+03 0.  1.
         -6    1    1    2    0  501 -0.62440592432E+02 -0.39734105235E+02 -0.90153051514E+03  0.92095814043E+03  0.17300000000E+03 0. -1.
</event>
<event>
 4    1  0.5880538E-001  0.1000000E+03  0.7546771E-02  0.1280296E+00
          1   -1    0    0  502    0  0.00000000000E+00  0.00000000000E+00  0.73761656536E+03  0.73761656536E+03  0.00000000000E+00 0. -1.
         -1   -1    0    0    0  501 -0.00000000000E+00 -0.00000000000E+00 -0.62891262163E+02  0.62891262163E+02  0.00000000000E+00 0.  1.
          6    1    1    2  502    0 -0.60719166187E+02  0.11300708919E+03  0.33402930632E+03  0.39744433174E+03  0.17300000000E+03 0. -1.
         -6    1    1    2    0  501  0.60719166187E+02 -0.11300708919E+03  0.34069599687E+03  0.40306349579E+03  0.17300000000E+03 0.  1.
</event>
<event>
 4    1  0.5880538E-001  0.1000000E+03  0.7546771E-02  0.1280296E+00
         -2   -1    0    0    0  501 -0.00000000000E+00  0.00000000000E+00  0.30074745994E+02  0.30074745994E+02  0.00000000000E+00 0. -1.
          2   -1    0    0  502    0  0.00000000000E+00 -0.00000000000E+00 -0.11174356303E+04  0.11174356303E+04  0.00000000000E+00 0.  1.
          6    1    1    2  502    0 -0.67805349131E+01  0.47490250309E+02 -0.65979050742E+03  0.68377906754E+03  0.17300000000E+03 0.  1.
         -6    1    1    2    0  501  0.67805349131E+01 -0.47490250309E+02 -0.42757037692E+03  0.46373130879E+03  0.17300000000E+03 0.  1.
</event>
<event>
 4    1  0.5880538E-001  0.1000000E+03  0.7546771E-02  0.1280296E+00
         -2   -1    0    0    0  501 -0.00000000000E+00  0.00000000000E+00  0.80201912192E+03  0.80201912192E+03  0.00000000000E+00 0. -1.
          2   -1    0    0  502    0  0.00000000000E+00 -0.00000000000E+00 -0.61000054298E+02  0.61000054298E+02  0.00000000000E+00 0.  1.
          6    1    1    2  502    0 -0.77180730536E+02  0.75892877442E+02  0.53693797493E+03  0.57441098782E+03  0.17300000000E+03 0.  1.
         -6    1    1    2    0  501  0.77180730536E+02 -0.75892877442E+02  0.20408109269E+03  0.28860818839E+03  0.17300000000E+03 0.  1.
</event>
<event>
 4    1  0.5880538E-001  0.1000000E+03  0.7546771E-02  0.1280296E+00
         -1   -1    0    0    0  501 -0.00000000000E+00  0.00000000000E+00  0.44927606014E+02  0.44927606014E+02  0.00000000000E+00 0. -1.
          1   -1    0    0  502    0  0.00000000000E+00 -0.00000000000E+00 -0.80931973084E+03  0.80931973084E+03  0.00000000000E+00 0.  1.
          6    1    1    2  502    0  0.16975217511E+02  0.71422415440E+02 -0.45451807494E+03  0.49183838797E+03  0.17300000000E+03 0. -1.
         -6    1    1    2    0  501 -0.16975217511E+02 -0.71422415440E+02 -0.30987404989E+03  0.36240894889E+03  0.17300000000E+03 0.  1.
</event>
<event>
 4    1  0.5880538E-001  0.1000000E+03  0.7546771E-02  0.1280296E+00
          2   -1    0    0  502    0  0.00000000000E+00  0.00000000000E+00  0.10439229564E+04  0.10439229564E+04  0.00000000000E+00 0. -1.
         -2   -1    0    0    0  501 -0.00000000000E+00 -0.00000000000E+00 -0.44455632376E+02  0.44455632376E+02  0.00000000000E+00 0.  1.
          6    1    1    2  502    0 -0.75587885697E+02 -0.23494820398E+02  0.75502986188E+03  0.77862996820E+03  0.17300000000E+03 0.  1.
         -6    1    1    2    0  501  0.75587885697E+02  0.23494820398E+02  0.24443746215E+03  0.30974862058E+03  0.17300000000E+03 0. -1.
</event>
<event>
 4    1  0.5880538E-001  0.1000000E+03  0.7546771E-02  0.1280296E+00
          2   -1    0    0  502    0  0.00000000000E+00  0.00000000000E+00  0.14397545194E+04  0.14397545194E+04  0.00000000000E+00 0. -1.
         -2   -1    0    0    0  501 -0.00000000000E+00 -0.00000000000E+00 -0.41854770033E+02  0.41854770033E+02  0.00000000000E+00 0.  1.
          6    1    1    2  502    0  0.16046959461E+02 -0.51920900137E+02  0.19961683185E+03  0.26968345210E+03  0.17300000000E+03 0.  1.
         -6    1    1    2    0  501 -0.16046959461E+02  0.51920900137E+02  0.11982829175E+04  0.12119258373E+04  0.17300000000E+03 0. -1.
</event>
<event>
 4    1  0.5880538E-001  0.1000000E+03  0.7546771E-02  0.1280296E+00
          2   -1    0    0  502    0  0.00000000000E+00  0.00000000000E+00  0.37553505471E+03  0.37553505471E+03  0.00000000000E+00 0. -1.
         -2   -1    0    0    0  501 -0.00000000000E+00 -0.00000000000E+00 -0.19226882198E+03  0.19226882198E+03  0.00000000000E+00 0.  1.
          6    1    1    2  502    0  0.51369134575E+02  0.50064531494E+02 -0.11195286377E+03  0.21819186283E+03  0.17300000000E+03 0.  1.
         -6    1    1    2    0  501 -0.51369134575E+02 -0.50064531494E+02  0.29521909650E+03  0.34961201386E+03  0.17300000000E+03 0. -1.
</event>
<event>
 4    1  0.5880538E-001  0.1000000E+03  0.7546771E-02  0.1280296E+00
          2   -1    0    0  502    0  0.00000000000E+00  0.00000000000E+00  0.13268613708E+04  0.13268613708E+04  0.00000000000E+00 0. -1.
         -2   -1    0    0    0  501 -0.00000000000E+00 -0.00000000000E+00 -0.34583640067E+02  0.34583640067E+02  0.00000000000E+00 0.  1.
          6    1    1    2  502    0 -0.38871781583E+02  0.79823528844E+02  0.93171179895E+03  0.95178710197E+03  0.17300000000E+03 0.  1.
         -6    1    1    2    0  501  0.38871781583E+02 -0.79823528844E+02  0.36056593174E+03  0.40965790886E+03  0.17300000000E+03 0. -1.
</event>
<event>
 4    1  0.5880538E-001  0.1000000E+03  0.7546771E-02  0.1280296E+00
          1   -1    0    0  502    0  0.00000000000E+00  0.00000000000E+00  0.55352026396E+03  0.55352026396E+03  0.00000000000E+00 0. -1.
         -1   -1    0    0    0  501 -0.00000000000E+00 -0.00000000000E+00 -0.22863722329E+03  0.22863722329E+03  0.00000000000E+00 0.  1.
          6    1    1    2  502    0 -0.56829799292E+02  0.29945222173E+03  0.22953674438E+03  0.41894793974E+03  0.17300000000E+03 0.  1.
         -6    1    1    2    0  501  0.56829799292E+02 -0.29945222173E+03  0.95346296292E+02  0.36320954751E+03  0.17300000000E+03 0. -1.
</event>
<event>
 4    1  0.5880538E-001  0.1000000E+03  0.7546771E-02  0.1280296E+00
          2   -1    0    0  502    0  0.00000000000E+00  0.00000000000E+00  0.21547402590E+04  0.21547402590E+04  0.00000000000E+00 0. -1.
         -2   -1    0    0    0  501 -0.00000000000E+00 -0.00000000000E+00 -0.14808551132E+02  0.14808551132E+02  0.00000000000E+00 0.  1.
          6    1    1    2  502    0 -0.17796663694E+02 -0.17642022362E+02  0.84670486534E+03  0.86456121309E+03  0.17300000000E+03 0.  1.
         -6    1    1    2    0  501  0.17796663694E+02  0.17642022362E+02  0.12932268425E+04  0.13049875970E+04  0.17300000000E+03 0. -1.
</event>
<event>
 4    1  0.5880538E-001  0.1000000E+03  0.7546771E-02  0.1280296E+00
         -2   -1    0    0    0  501 -0.00000000000E+00  0.00000000000E+00  0.24944734443E+02  0.24944734443E+02  0.00000000000E+00 0. -1.
          2   -1    0    0  502    0  0.00000000000E+00 -0.00000000000E+00 -0.15684083720E+04  0.15684083720E+04  0.00000000000E+00 0.  1.
          6    1    1    2  502    0  0.61868593084E+01 -0.74887300747E+02 -0.53181333107E+03  0.56427015174E+03  0.17300000000E+03 0.  1.
         -6    1    1    2    0  501 -0.61868593084E+01  0.74887300747E+02 -0.10116503064E+04  0.10290829547E+04  0.17300000000E+03 0. -1.
</event>
<event>
 4    1  0.5880538E-001  0.1000000E+03  0.7546771E-02  0.1280296E+00
          2   -1    0    0  502    0  0.00000000000E+00  0.00000000000E+00  0.18513946537E+04  0.18513946537E+04  0.00000000000E+00 0. -1.
         -2   -1    0    0    0  501 -0.00000000000E+00 -0.00000000000E+00 -0.66316548137E+02  0.66316548137E+02  0.00000000000E+00 0.  1.
          6    1    1    2  502    0  0.12922021600E+03 -0.15821196993E+03  0.27382629749E+03  0.38293437146E+03  0.17300000000E+03 0. -1.
         -6    1    1    2    0  501 -0.12922021600E+03  0.15821196993E+03  0.15112518081E+04  0.15347768304E+04  0.17300000000E+03 0. -1.
</event>
<event>
 4    1  0.5880538E-001  0.1000000E+03  0.7546771E-02  0.1280296E+00
         -2   -1    0    0    0  501 -0.00000000000E+00  0.00000000000E+00  0.62587506859E+02  0.62587506859E+02  0.00000000000E+00 0.  1.
          2   -1    0    0  502    0  0.00000000000E+00 -0.00000000000E+00 -0.59236104675E+03  0.59236104675E+03  0.00000000000E+00 0. -1.
          6    1    1    2  502    0 -0.53992792109E+02 -0.33991633700E+02 -0.35919398192E+03  0.40375731499E+03  0.17300000000E+03 0.  1.
         -6    1    1    2    0  501  0.53992792109E+02  0.33991633700E+02 -0.17057955798E+03  0.25119123862E+03  0.17300000000E+03 0.  1.
</event>
<event>
 4    1  0.5880538E-001  0.1000000E+03  0.7546771E-02  0.1280296E+00
          3   -1    0    0  502    0  0.00000000000E+00  0.00000000000E+00  0.12436102528E+03  0.12436102528E+03  0.00000000000E+00 0.  1.
         -3   -1    0    0    0  501 -0.00000000000E+00 -0.00000000000E+00 -0.12658783751E+04  0.12658783751E+04  0.00000000000E+00 0. -1.
          6    1    1    2  502    0 -0.18806897791E+03 -0.27060937695E+03 -0.32992107283E+03  0.49736936943E+03  0.17300000000E+03 0.  1.
         -6    1    1    2    0  501  0.18806897791E+03  0.27060937695E+03 -0.81159627699E+03  0.89287003095E+03  0.17300000000E+03 0. -1.
</event>
<event>
 4    1  0.5880538E-001  0.1000000E+03  0.7546771E-02  0.1280296E+00
          2   -1    0    0  502    0  0.00000000000E+00  0.00000000000E+00  0.19785055511E+04  0.19785055511E+04  0.00000000000E+00 0.  1.
         -2   -1    0    0    0  501 -0.00000000000E+00 -0.00000000000E+00 -0.13649694404E+03  0.13649694404E+03  0.00000000000E+00 0. -1.
          6    1    1    2  502    0  0.34497523675E+03  0.31635672672E+03  0.12161855863E+04  0.13145820145E+04  0.17300000000E+03 0.  1.
         -6    1    1    2    0  501 -0.34497523675E+03 -0.31635672672E+03  0.62582302073E+03  0.80042048061E+03  0.17300000000E+03 0. -1.
</event>
<event>
 4    1  0.5880538E-001  0.1000000E+03  0.7546771E-02  0.1280296E+00
          2   -1    0    0  502    0  0.00000000000E+00  0.00000000000E+00  0.44605914355E+03  0.44605914355E+03  0.00000000000E+00 0.  1.
         -2   -1    0    0    0  501 -0.00000000000E+00 -0.00000000000E+00 -0.87875343864E+02  0.87875343864E+02  0.00000000000E+00 0. -1.
          6    1    1    2  502    0 -0.33124439668E+02 -0.63110928325E+02  0.91824623442E+02  0.20842499670E+03  0.17300000000E+03 0.  1.
         -6    1    1    2    0  501  0.33124439668E+02  0.63110928325E+02  0.26635917624E+03  0.32550949071E+03  0.17300000000E+03 0. -1.
</event>
<event>
 4    1  0.5880538E-001  0.1000000E+03  0.7546771E-02  0.1280296E+00
         -2   -1    0    0    0  501 -0.00000000000E+00  0.00000000000E+00  0.20936410827E+02  0.20936410827E+02  0.00000000000E+00 0. -1.
          2   -1    0    0  502    0  0.00000000000E+00 -0.00000000000E+00 -0.18111617824E+04  0.18111617824E+04  0.00000000000E+00 0.  1.
          6    1    1    2  502    0 -0.40516524584E+02 -0.33273844945E+02 -0.12356905186E+04  0.12488429826E+04  0.17300000000E+03 0.  1.
         -6    1    1    2    0  501  0.40516524584E+02  0.33273844945E+02 -0.55453485301E+03  0.58325521063E+03  0.17300000000E+03 0. -1.
</event>
<event>
 4    1  0.5880538E-001  0.1000000E+03  0.7546771E-02  0.1280296E+00
         -2   -1    0    0    0  501 -0.00000000000E+00  0.00000000000E+00  0.25851054285E+03  0.25851054285E+03  0.00000000000E+00 0. -1.
          2   -1    0    0  502    0  0.00000000000E+00 -0.00000000000E+00 -0.73447729550E+03  0.73447729550E+03  0.00000000000E+00 0.  1.
          6    1    1    2  502    0  0.28093118027E+03  0.27940946749E+03 -0.29986101591E+03  0.52615359681E+03  0.17300000000E+03 0.  1.
         -6    1    1    2    0  501 -0.28093118027E+03 -0.27940946749E+03 -0.17610573674E+03  0.46683424155E+03  0.17300000000E+03 0. -1.
</event>
<event>
 4    1  0.5880538E-001  0.1000000E+03  0.7546771E-02  0.1280296E+00
         -3   -1    0    0    0  501 -0.00000000000E+00  0.00000000000E+00  0.82972726765E+02  0.82972726765E+02  0.00000000000E+00 0. -1.
          3   -1    0    0  502    0  0.00000000000E+00 -0.00000000000E+00 -0.12408905547E+04  0.12408905547E+04  0.00000000000E+00 0.  1.
          6    1    1    2  502    0  0.85762944303E+02  0.25392205393E+03 -0.50751630993E+03  0.59944432346E+03  0.17300000000E+03 0.  1.
         -6    1    1    2    0  501 -0.85762944303E+02 -0.25392205393E+03 -0.65040151799E+03  0.72441895799E+03  0.17300000000E+03 0. -1.
</event>
<event>
 4    1  0.5880538E-001  0.1000000E+03  0.7546771E-02  0.1280296E+00
         -2   -1    0    0    0  501 -0.00000000000E+00  0.00000000000E+00  0.32433561903E+02  0.32433561903E+02  0.00000000000E+00 0. -1.
          2   -1    0    0  502    0  0.00000000000E+00 -0.00000000000E+00 -0.17156675095E+04  0.17156675095E+04  0.00000000000E+00 0.  1.
          6    1    1    2  502    0 -0.10790788473E+03  0.98912864667E+02 -0.59897419942E+03  0.64041155358E+03  0.17300000000E+03 0.  1.
         -6    1    1    2    0  501  0.10790788473E+03 -0.98912864667E+02 -0.10842597482E+04  0.11076895178E+04  0.17300000000E+03 0. -1.
</event>
<event>
 4    1  0.5880538E-001  0.1000000E+03  0.7546771E-02  0.1280296E+00
         -1   -1    0    0    0  501 -0.00000000000E+00  0.00000000000E+00  0.13988860651E+03  0.13988860651E+03  0.00000000000E+00 0. -1.
          1   -1    0    0  502    0  0.00000000000E+00 -0.00000000000E+00 -0.59025324295E+03  0.59025324295E+03  0.00000000000E+00 0.  1.
          6    1    1    2  502    0  0.95817797115E+02  0.14035214872E+03 -0.42102104631E+03  0.48586777762E+03  0.17300000000E+03 0.  1.
         -6    1    1    2    0  501 -0.95817797115E+02 -0.14035214872E+03 -0.29343590132E+02  0.24427407185E+03  0.17300000000E+03 0. -1.
</event>
<event>
 4    1  0.5880538E-001  0.1000000E+03  0.7546771E-02  0.1280296E+00
         -2   -1    0    0    0  501 -0.00000000000E+00  0.00000000000E+00  0.49654954501E+02  0.49654954501E+02  0.00000000000E+00 0. -1.
          2   -1    0    0  502    0  0.00000000000E+00 -0.00000000000E+00 -0.10568589546E+04  0.10568589546E+04  0.00000000000E+00 0.  1.
          6    1    1    2  502    0 -0.91205511006E+01 -0.78804613222E+02 -0.19567837842E+03  0.27296955746E+03  0.17300000000E+03 0. -1.
         -6    1    1    2    0  501  0.91205511006E+01  0.78804613222E+02 -0.81152562170E+03  0.83354435167E+03  0.17300000000E+03 0. -1.
</event>
<event>
 4    1  0.5880538E-001  0.1000000E+03  0.7546771E-02  0.1280296E+00
          2   -1    0    0  502    0  0.00000000000E+00  0.00000000000E+00  0.13810712990E+03  0.13810712990E+03  0.00000000000E+00 0. -1.
         -2   -1    0    0    0  501 -0.00000000000E+00 -0.00000000000E+00 -0.30674719619E+03  0.30674719619E+03  0.00000000000E+00 0.  1.
          6    1    1    2  502    0 -0.37615250948E+02  0.10391520143E+03 -0.68229478145E+02  0.21632738587E+03  0.17300000000E+03 0.  1.
         -6    1    1    2    0  501  0.37615250948E+02 -0.10391520143E+03 -0.10041058814E+03  0.22852694021E+03  0.17300000000E+03 0.  1.
</event>
<event>
 4    1  0.5880538E-001  0.1000000E+03  0.7546771E-02  0.1280296E+00
          2   -1    0    0  502    0  0.00000000000E+00  0.00000000000E+00  0.75259141331E+03  0.75259141331E+03  0.00000000000E+00 0. -1.
         -2   -1    0    0    0  501 -0.00000000000E+00 -0.00000000000E+00 -0.93362182184E+02  0.93362182184E+02  0.00000000000E+00 0.  1.
          6    1    1    2  502    0 -0.10640069872E+03 -0.65479200744E+02  0.78698911420E+02  0.22744483524E+03  0.17300000000E+03 0.  1.
         -6    1    1    2    0  501  0.10640069872E+03  0.65479200744E+02  0.58053031971E+03  0.61850876026E+03  0.17300000000E+03 0.  1.
</event>
<event>
 4    1  0.5880538E-001  0.1000000E+03  0.7546771E-02  0.1280296E+00
          1   -1    0    0  502    0  0.00000000000E+00  0.00000000000E+00  0.11524428931E+04  0.11524428931E+04  0.00000000000E+00 0.  1.
         -1   -1    0    0    0  501 -0.00000000000E+00 -0.00000000000E+00 -0.30496251692E+02  0.30496251692E+02  0.00000000000E+00 0. -1.
          6    1    1    2  502    0 -0.15295679772E+02 -0.45889101798E+02  0.73018319301E+03  0.75195496065E+03  0.17300000000E+03 0.  1.
         -6    1    1    2    0  501  0.15295679772E+02  0.45889101798E+02  0.39176344838E+03  0.43098418413E+03  0.17300000000E+03 0. -1.
</event>
<event>
 4    1  0.5880538E-001  0.1000000E+03  0.7546771E-02  0.1280296E+00
          1   -1    0    0  502    0  0.00000000000E+00  0.00000000000E+00  0.52248646516E+03  0.52248646516E+03  0.00000000000E+00 0.  1.
         -1   -1    0    0    0  501 -0.00000000000E+00 -0.00000000000E+00 -0.11160071076E+03  0.11160071076E+03  0.00000000000E+00 0. -1.
          6    1    1    2  502    0  0.10093383303E+03  0.38743928020E+02  0.35812411547E+02  0.20712377804E+03  0.17300000000E+03 0.  1.
         -6    1    1    2    0  501 -0.10093383303E+03 -0.38743928020E+02  0.37507334285E+03  0.42696339788E+03  0.17300000000E+03 0. -1.
</event>
<event>
 4    1  0.5880538E-001  0.1000000E+03  0.7546771E-02  0.1280296E+00
          2   -1    0    0  502    0  0.00000000000E+00  0.00000000000E+00  0.35865210126E+03  0.35865210126E+03  0.00000000000E+00 0.  1.
         -2   -1    0    0    0  501 -0.00000000000E+00 -0.00000000000E+00 -0.14027075789E+03  0.14027075789E+03  0.00000000000E+00 0. -1.
          6    1    1    2  502    0  0.18830624131E+02 -0.71882207614E+02  0.24475948164E+03  0.30880066067E+03  0.17300000000E+03 0. -1.
         -6    1    1    2    0  501 -0.18830624131E+02  0.71882207614E+02 -0.26378138272E+02  0.19012219848E+03  0.17300000000E+03 0.  1.
</event>
<event>
 4    1  0.5880538E-001  0.1000000E+03  0.7546771E-02  0.1280296E+00
          2   -1    0    0  502    0  0.00000000000E+00  0.00000000000E+00  0.88284073219E+02  0.88284073219E+02  0.00000000000E+00 0.  1.
         -2   -1    0    0    0  501 -0.00000000000E+00 -0.00000000000E+00 -0.13250654602E+04  0.13250654602E+04  0.00000000000E+00 0. -1.
          6    1    1    2  502    0  0.15220491426E+02  0.26220033067E+03 -0.34063124247E+03  0.46361548735E+03  0.17300000000E+03 0. -1.
         -6    1    1    2    0  501 -0.15220491426E+02 -0.26220033067E+03 -0.89615014447E+03  0.94973404603E+03  0.17300000000E+03 0.  1.
</event>
<event>
 4    1  0.5880538E-001  0.1000000E+03  0.7546771E-02  0.1280296E+00
          2   -1    0    0  502    0  0.00000000000E+00  0.00000000000E+00  0.63442697434E+03  0.63442697434E+03  0.00000000000E+00 0.  1.
         -2   -1    0    0    0  501 -0.00000000000E+00 -0.00000000000E+00 -0.20947056048E+03  0.20947056048E+03  0.00000000000E+00 0. -1.
          6    1    1    2  502    0  0.17783227373E+03 -0.23944358067E+03  0.75489898112E+02  0.35296638738E+03  0.17300000000E+03 0. -1.
         -6    1    1    2    0  501 -0.17783227373E+03  0.23944358067E+03  0.34946651575E+03  0.49093114744E+03  0.17300000000E+03 0.  1.
</event>
<event>
 4    1  0.5880538E-001  0.1000000E+03  0.7546771E-02  0.1280296E+00
          2   -1    0    0  502    0  0.00000000000E+00  0.00000000000E+00  0.22004646919E+03  0.22004646919E+03  0.00000000000E+00 0.  1.
         -2   -1    0    0    0  501 -0.00000000000E+00 -0.00000000000E+00 -0.19012980005E+03  0.19012980005E+03  0.00000000000E+00 0. -1.
          6    1    1    2  502    0 -0.10308243988E+03 -0.15486649812E+02  0.47333343916E+02  0.20744944247E+03  0.17300000000E+03 0. -1.
         -6    1    1    2    0  501  0.10308243988E+03  0.15486649812E+02 -0.17416674772E+02  0.20272682678E+03  0.17300000000E+03 0. -1.
</event>
<event>
 4    1  0.5880538E-001  0.1000000E+03  0.7546771E-02  0.1280296E+00
          2   -1    0    0  502    0  0.00000000000E+00  0.00000000000E+00  0.20369653000E+04  0.20369653000E+04  0.00000000000E+00 0.  1.
         -2   -1    0    0    0  501 -0.00000000000E+00 -0.00000000000E+00 -0.19603862102E+02  0.19603862102E+02  0.00000000000E+00 0. -1.
          6    1    1    2  502    0 -0.21100867744E+02  0.68398355913E+02  0.64921959433E+03  0.67567644873E+03  0.17300000000E+03 0. -1.
         -6    1    1    2    0  501  0.21100867744E+02 -0.68398355913E+02  0.13681418436E+04  0.13808927134E+04  0.17300000000E+03 0. -1.
</event>
<event>
 4    1  0.5880538E-001  0.1000000E+03  0.7546771E-02  0.1280296E+00
          4   -1    0    0  502    0  0.00000000000E+00  0.00000000000E+00  0.93265739622E+02  0.93265739622E+02  0.00000000000E+00 0.  1.
         -4   -1    0    0    0  501 -0.00000000000E+00 -0.00000000000E+00 -0.61732570305E+03  0.61732570305E+03  0.00000000000E+00 0. -1.
          6    1    1    2  502    0 -0.15905112302E+03 -0.47794582774E+02 -0.27394550451E+03  0.36408339885E+03  0.17300000000E+03 0. -1.
         -6    1    1    2    0  501  0.15905112302E+03  0.47794582774E+02 -0.25011445892E+03  0.34650804383E+03  0.17300000000E+03 0. -1.
</event>
<event>
 4    1  0.5880538E-001  0.1000000E+03  0.7546771E-02  0.1280296E+00
          2   -1    0    0  502    0  0.00000000000E+00  0.00000000000E+00  0.14570160283E+04  0.14570160283E+04  0.00000000000E+00 0. -1.
         -2   -1    0    0    0  501 -0.00000000000E+00 -0.00000000000E+00 -0.30227546963E+02  0.30227546963E+02  0.00000000000E+00 0.  1.
          6    1    1    2  502    0 -0.47379275141E+02 -0.20568410005E+02  0.33431541896E+03  0.37995217404E+03  0.17300000000E+03 0.  1.
         -6    1    1    2    0  501  0.47379275141E+02  0.20568410005E+02  0.10924730624E+04  0.11072914012E+04  0.17300000000E+03 0. -1.
</event>
<event>
 4    1  0.5880538E-001  0.1000000E+03  0.7546771E-02  0.1280296E+00
          1   -1    0    0  502    0  0.00000000000E+00  0.00000000000E+00  0.34281504676E+03  0.34281504676E+03  0.00000000000E+00 0. -1.
         -1   -1    0    0    0  501 -0.00000000000E+00 -0.00000000000E+00 -0.12872280337E+03  0.12872280337E+03  0.00000000000E+00 0.  1.
          6    1    1    2  502    0  0.11798818772E+01  0.60628698593E+02 -0.80804594043E+01  0.18349802462E+03  0.17300000000E+03 0.  1.
         -6    1    1    2    0  501 -0.11798818772E+01 -0.60628698593E+02  0.22217270280E+03  0.28803982552E+03  0.17300000000E+03 0. -1.
</event>
<event>
 4    1  0.5880538E-001  0.1000000E+03  0.7546771E-02  0.1280296E+00
         -2   -1    0    0    0  501 -0.00000000000E+00  0.00000000000E+00  0.66162270994E+03  0.66162270994E+03  0.00000000000E+00 0.  1.
          2   -1    0    0  502    0  0.00000000000E+00 -0.00000000000E+00 -0.72189972518E+02  0.72189972518E+02  0.00000000000E+00 0. -1.
          6    1    1    2  502    0  0.87657946921E+02  0.99363961615E+02  0.26680439218E+03  0.34448613356E+03  0.17300000000E+03 0.  1.
         -6    1    1    2    0  501 -0.87657946921E+02 -0.99363961615E+02  0.32262834524E+03  0.38932654890E+03  0.17300000000E+03 0. -1.
</event>
<event>
 4    1  0.5880538E-001  0.1000000E+03  0.7546771E-02  0.1280296E+00
         -2   -1    0    0    0  501 -0.00000000000E+00  0.00000000000E+00  0.11370385441E+03  0.11370385441E+03  0.00000000000E+00 0.  1.
          2   -1    0    0  502    0  0.00000000000E+00 -0.00000000000E+00 -0.75759599071E+03  0.75759599071E+03  0.00000000000E+00 0. -1.
          6    1    1    2  502    0  0.21446194229E+02 -0.10152702518E+03 -0.55188531723E+01  0.20180964751E+03  0.17300000000E+03 0.  1.
         -6    1    1    2    0  501 -0.21446194229E+02  0.10152702518E+03 -0.63837328312E+03  0.66949019761E+03  0.17300000000E+03 0. -1.
</event>
<event>
 4    1  0.5880538E-001  0.1000000E+03  0.7546771E-02  0.1280296E+00
         -2   -1    0    0    0  501 -0.00000000000E+00  0.00000000000E+00  0.34808521280E+03  0.34808521280E+03  0.00000000000E+00 0.  1.
          2   -1    0    0  502    0  0.00000000000E+00 -0.00000000000E+00 -0.12870367218E+03  0.12870367218E+03  0.00000000000E+00 0. -1.
          6    1    1    2  502    0  0.96216144185E+02 -0.60155157560E+02  0.15999353392E+03  0.26153990189E+03  0.17300000000E+03 0.  1.
         -6    1    1    2    0  501 -0.96216144185E+02  0.60155157560E+02  0.59388006698E+02  0.21524898309E+03  0.17300000000E+03 0. -1.
</event>
<event>
 4    1  0.5880538E-001  0.1000000E+03  0.7546771E-02  0.1280296E+00
         -2   -1    0    0    0  501 -0.00000000000E+00  0.00000000000E+00  0.46626666079E+03  0.46626666079E+03  0.00000000000E+00 0.  1.
          2   -1    0    0  502    0  0.00000000000E+00 -0.00000000000E+00 -0.75634639889E+02  0.75634639889E+02  0.00000000000E+00 0. -1.
          6    1    1    2  502    0  0.16393694630E+02 -0.10194882922E+02  0.93658786233E+02  0.19767057722E+03  0.17300000000E+03 0.  1.
         -6    1    1    2    0  501 -0.16393694630E+02  0.10194882922E+02  0.29697323467E+03  0.34423072346E+03  0.17300000000E+03 0. -1.
</event>
<event>
 4    1  0.5880538E-001  0.1000000E+03  0.7546771E-02  0.1280296E+00
         -2   -1    0    0    0  501 -0.00000000000E+00  0.00000000000E+00  0.18714836186E+03  0.18714836186E+03  0.00000000000E+00 0. -1.
          2   -1    0    0  502    0  0.00000000000E+00 -0.00000000000E+00 -0.18565318259E+03  0.18565318259E+03  0.00000000000E+00 0.  1.
          6    1    1    2  502    0  0.42537191650E+02  0.48446899602E+02  0.26422184959E+02  0.18650374423E+03  0.17300000000E+03 0.  1.
         -6    1    1    2    0  501 -0.42537191650E+02 -0.48446899602E+02 -0.24927005691E+02  0.18629780022E+03  0.17300000000E+03 0. -1.
</event>
<event>
 4    1  0.5880538E-001  0.1000000E+03  0.7546771E-02  0.1280296E+00
         -1   -1    0    0    0  501 -0.00000000000E+00  0.00000000000E+00  0.37810877826E+02  0.37810877826E+02  0.00000000000E+00 0. -1.
          1   -1    0    0  502    0  0.00000000000E+00 -0.00000000000E+00 -0.98985785704E+03  0.98985785704E+03  0.00000000000E+00 0.  1.
          6    1    1    2  502    0  0.70332520101E+01  0.22306948937E+02 -0.69746663331E+03  0.71898245541E+03  0.17300000000E+03 0.  1.
         -6    1    1    2    0  501 -0.70332520101E+01 -0.22306948937E+02 -0.25458034590E+03  0.30868627945E+03  0.17300000000E+03 0. -1.
</event>
<event>
 4    1  0.5880538E-001  0.1000000E+03  0.7546771E-02  0.1280296E+00
          2   -1    0    0  502    0  0.00000000000E+00  0.00000000000E+00  0.13501998835E+03  0.13501998835E+03  0.00000000000E+00 0. -1.
         -2   -1    0    0    0  501 -0.00000000000E+00 -0.00000000000E+00 -0.26629583323E+03  0.26629583323E+03  0.00000000000E+00 0.  1.
          6    1    1    2  502    0  0.39321587313E+02 -0.30461758799E+02 -0.25681912064E+01  0.18002694683E+03  0.17300000000E+03 0.  1.
         -6    1    1    2    0  501 -0.39321587313E+02  0.30461758799E+02 -0.12870765367E+03  0.22128887476E+03  0.17300000000E+03 0. -1.
</event>
<event>
 4    1  0.5880538E-001  0.1000000E+03  0.7546771E-02  0.1280296E+00
          4   -1    0    0  502    0  0.00000000000E+00  0.00000000000E+00  0.22059363937E+03  0.22059363937E+03  0.00000000000E+00 0.  1.
         -4   -1    0    0    0  501 -0.00000000000E+00 -0.00000000000E+00 -0.26597752948E+03  0.26597752948E+03  0.00000000000E+00 0. -1.
          6    1    1    2  502    0 -0.15636134593E+03  0.31018889321E+02  0.35292185802E+02  0.23787723804E+03  0.17300000000E+03 0. -1.
         -6    1    1    2    0  501  0.15636134593E+03 -0.31018889321E+02 -0.80676075911E+02  0.24869393081E+03  0.17300000000E+03 0.  1.
</event>
<event>
 4    1  0.5880538E-001  0.1000000E+03  0.7546771E-02  0.1280296E+00
          3   -1    0    0  502    0  0.00000000000E+00  0.00000000000E+00  0.57703989168E+02  0.57703989168E+02  0.00000000000E+00 0. -1.
         -3   -1    0    0    0  501 -0.00000000000E+00 -0.00000000000E+00 -0.12528987435E+04  0.12528987435E+04  0.00000000000E+00 0.  1.
          6    1    1    2  502    0  0.17408250972E+03  0.10626551224E+03 -0.66527685330E+03  0.71702117878E+03  0.17300000000E+03 0.  1.
         -6    1    1    2    0  501 -0.17408250972E+03 -0.10626551224E+03 -0.52991790101E+03  0.59358155387E+03  0.17300000000E+03 0.  1.
</event>
<event>
 4    1  0.5880538E-001  0.1000000E+03  0.7546771E-02  0.1280296E+00
          1   -1    0    0  502    0  0.00000000000E+00  0.00000000000E+00  0.13065722062E+04  0.13065722062E+04  0.00000000000E+00 0. -1.
         -1   -1    0    0    0  501 -0.00000000000E+00 -0.00000000000E+00 -0.31302804339E+02  0.31302804339E+02  0.00000000000E+00 0.  1.
          6    1    1    2  502    0 -0.36994075609E+02 -0.93911028780E+02  0.54510566501E+03  0.58073834813E+03  0.17300000000E+03 0. -1.
         -6    1    1    2    0  501  0.36994075609E+02  0.93911028780E+02  0.73016373682E+03  0.75713666238E+03  0.17300000000E+03 0.  1.
</event>
<event>
 4    1  0.5880538E-001  0.1000000E+03  0.7546771E-02  0.1280296E+00
         -2   -1    0    0    0  501 -0.00000000000E+00  0.00000000000E+00  0.18905729995E+03  0.18905729995E+03  0.00000000000E+00 0.  1.
          2   -1    0    0  502    0  0.00000000000E+00 -0.00000000000E+00 -0.26422309667E+03  0.26422309667E+03  0.00000000000E+00 0. -1.
          6    1    1    2  502    0  0.11202669539E+02 -0.12896473430E+03  0.20376374672E+02  0.21702902834E+03  0.17300000000E+03 0.  1.
         -6    1    1    2    0  501 -0.11202669539E+02  0.12896473430E+03 -0.95542171395E+02  0.23625136828E+03  0.17300000000E+03 0. -1.
</event>
<event>
 4    1  0.5880538E-001  0.1000000E+03  0.7546771E-02  0.1280296E+00
          1   -1    0    0  502    0  0.00000000000E+00  0.00000000000E+00  0.59176193517E+03  0.59176193517E+03  0.00000000000E+00 0. -1.
         -1   -1    0    0    0  501 -0.00000000000E+00 -0.00000000000E+00 -0.29246143129E+03  0.29246143129E+03  0.00000000000E+00 0.  1.
          6    1    1    2  502    0 -0.14400971792E+03  0.26853225281E+03  0.38797313418E+03  0.52278152464E+03  0.17300000000E+03 0. -1.
         -6    1    1    2    0  501  0.14400971792E+03 -0.26853225281E+03 -0.88672630310E+02  0.36144184182E+03  0.17300000000E+03 0.  1.
</event>
<event>
 4    1  0.5880538E-001  0.1000000E+03  0.7546771E-02  0.1280296E+00
          1   -1    0    0  502    0  0.00000000000E+00  0.00000000000E+00  0.28167604389E+03  0.28167604389E+03  0.00000000000E+00 0. -1.
         -1   -1    0    0    0  501 -0.00000000000E+00 -0.00000000000E+00 -0.12285584088E+03  0.12285584088E+03  0.00000000000E+00 0.  1.
          6    1    1    2  502    0 -0.48742461991E+02 -0.39286222019E+02  0.49488321059E+02  0.19051857852E+03  0.17300000000E+03 0. -1.
         -6    1    1    2    0  501  0.48742461991E+02  0.39286222019E+02  0.10933188195E+03  0.21401330625E+03  0.17300000000E+03 0.  1.
</event>
<event>
 4    1  0.5880538E-001  0.1000000E+03  0.7546771E-02  0.1280296E+00
         -2   -1    0    0    0  501 -0.00000000000E+00  0.00000000000E+00  0.22106102522E+02  0.22106102522E+02  0.00000000000E+00 0. -1.
          2   -1    0    0  502    0  0.00000000000E+00 -0.00000000000E+00 -0.24002300355E+04  0.24002300355E+04  0.00000000000E+00 0.  1.
          6    1    1    2  502    0  0.14702488112E+03 -0.31167818122E+02 -0.10665397398E+04  0.10908821042E+04  0.17300000000E+03 0.  1.
         -6    1    1    2    0  501 -0.14702488112E+03  0.31167818122E+02 -0.13115841932E+04  0.13314540339E+04  0.17300000000E+03 0. -1.
</event>
<event>
 4    1  0.5880538E-001  0.1000000E+03  0.7546771E-02  0.1280296E+00
         -1   -1    0    0    0  501 -0.00000000000E+00  0.00000000000E+00  0.44583390098E+03  0.44583390098E+03  0.00000000000E+00 0.  1.
          1   -1    0    0  502    0  0.00000000000E+00 -0.00000000000E+00 -0.25950854649E+03  0.25950854649E+03  0.00000000000E+00 0. -1.
          6    1    1    2  502    0  0.29755184868E+02 -0.14348368888E+03 -0.16974231963E+03  0.28322145941E+03  0.17300000000E+03 0. -1.
         -6    1    1    2    0  501 -0.29755184868E+02  0.14348368888E+03  0.35606767412E+03  0.42212098805E+03  0.17300000000E+03 0.  1.
</event>
<event>
 4    1  0.5880538E-001  0.1000000E+03  0.7546771E-02  0.1280296E+00
         -2   -1    0    0    0  501 -0.00000000000E+00  0.00000000000E+00  0.50316507645E+02  0.50316507645E+02  0.00000000000E+00 0.  1.
          2   -1    0    0  502    0  0.00000000000E+00 -0.00000000000E+00 -0.11168527816E+04  0.11168527816E+04  0.00000000000E+00 0. -1.
          6    1    1    2  502    0 -0.13540635261E+03  0.86160751518E+01 -0.31504185302E+03  0.38417377088E+03  0.17300000000E+03 0. -1.
         -6    1    1    2    0  501  0.13540635261E+03 -0.86160751518E+01 -0.75149442088E+03  0.78299551831E+03  0.17300000000E+03 0.  1.
</event>
<event>
 4    1  0.5880538E-001  0.1000000E+03  0.7546771E-02  0.1280296E+00
         -2   -1    0    0    0  501 -0.00000000000E+00  0.00000000000E+00  0.44224817438E+02  0.44224817438E+02  0.00000000000E+00 0. -1.
          2   -1    0    0  502    0  0.00000000000E+00 -0.00000000000E+00 -0.72717975124E+03  0.72717975124E+03  0.00000000000E+00 0.  1.
          6    1    1    2  502    0  0.31433829835E+02 -0.21292735462E+02 -0.28106642925E+03  0.33221800658E+03  0.17300000000E+03 0. -1.
         -6    1    1    2    0  501 -0.31433829835E+02  0.21292735462E+02 -0.40188850455E+03  0.43918656210E+03  0.17300000000E+03 0.  1.
</event>
<event>
 4    1  0.5880538E-001  0.1000000E+03  0.7546771E-02  0.1280296E+00
         -2   -1    0    0    0  501 -0.00000000000E+00  0.00000000000E+00  0.67111929689E+02  0.67111929689E+02  0.00000000000E+00 0. -1.
          2   -1    0    0  502    0  0.00000000000E+00 -0.00000000000E+00 -0.98612600150E+03  0.98612600150E+03  0.00000000000E+00 0.  1.
          6    1    1    2  502    0  0.60470249297E+02 -0.32959386214E+02 -0.96139033867E+02  0.20955831175E+03  0.17300000000E+03 0. -1.
         -6    1    1    2    0  501 -0.60470249297E+02  0.32959386214E+02 -0.82287503795E+03  0.84367961944E+03  0.17300000000E+03 0.  1.
</event>
<event>
 4    1  0.5880538E-001  0.1000000E+03  0.7546771E-02  0.1280296E+00
         -2   -1    0    0    0  501 -0.00000000000E+00  0.00000000000E+00  0.84291013800E+02  0.84291013800E+02  0.00000000000E+00 0.  1.
          2   -1    0    0  502    0  0.00000000000E+00 -0.00000000000E+00 -0.72569257067E+03  0.72569257067E+03  0.00000000000E+00 0. -1.
          6    1    1    2  502    0  0.27720833343E+02  0.13340553778E+03 -0.50505419012E+03  0.55097569553E+03  0.17300000000E+03 0.  1.
         -6    1    1    2    0  501 -0.27720833343E+02 -0.13340553778E+03 -0.13634736675E+03  0.25900788894E+03  0.17300000000E+03 0. -1.
</event>
<event>
 4    1  0.5880538E-001  0.1000000E+03  0.7546771E-02  0.1280296E+00
         -2   -1    0    0    0  501 -0.00000000000E+00  0.00000000000E+00  0.12536383775E+03  0.12536383775E+03  0.00000000000E+00 0. -1.
          2   -1    0    0  502    0  0.00000000000E+00 -0.00000000000E+00 -0.81875069628E+03  0.81875069628E+03  0.00000000000E+00 0.  1.
          6    1    1    2  502    0 -0.14976338665E+02 -0.45359190308E+02 -0.73772748360E+03  0.75924474771E+03  0.17300000000E+03 0.  1.
         -6    1    1    2    0  501  0.14976338665E+02  0.45359190308E+02  0.44340625065E+02  0.18486978633E+03  0.17300000000E+03 0. -1.
</event>
<event>
 4    1  0.5880538E-001  0.1000000E+03  0.7546771E-02  0.1280296E+00
         -1   -1    0    0    0  501 -0.00000000000E+00  0.00000000000E+00  0.27724080475E+02  0.27724080475E+02  0.00000000000E+00 0. -1.
          1   -1    0    0  502    0  0.00000000000E+00 -0.00000000000E+00 -0.22417824694E+04  0.22417824694E+04  0.00000000000E+00 0.  1.
          6    1    1    2  502    0  0.26628673569E+02  0.11113315006E+02 -0.19134656853E+04  0.19214870598E+04  0.17300000000E+03 0.  1.
         -6    1    1    2    0  501 -0.26628673569E+02 -0.11113315006E+02 -0.30059270366E+03  0.34801949015E+03  0.17300000000E+03 0. -1.
</event>
<event>
 4    1  0.5880538E-001  0.1000000E+03  0.7546771E-02  0.1280296E+00
         -2   -1    0    0    0  501 -0.00000000000E+00  0.00000000000E+00  0.11886792697E+04  0.11886792697E+04  0.00000000000E+00 0. -1.
          2   -1    0    0  502    0  0.00000000000E+00 -0.00000000000E+00 -0.40881709491E+02  0.40881709491E+02  0.00000000000E+00 0.  1.
          6    1    1    2  502    0  0.63492171352E+02  0.62083267930E+02  0.28433400225E+03  0.34447120753E+03  0.17300000000E+03 0. -1.
         -6    1    1    2    0  501 -0.63492171352E+02 -0.62083267930E+02  0.86346355796E+03  0.88508977166E+03  0.17300000000E+03 0.  1.
</event>
<event>
 4    1  0.5880538E-001  0.1000000E+03  0.7546771E-02  0.1280296E+00
         -2   -1    0    0    0  501 -0.00000000000E+00  0.00000000000E+00  0.28391151532E+03  0.28391151532E+03  0.00000000000E+00 0. -1.
          2   -1    0    0  502    0  0.00000000000E+00 -0.00000000000E+00 -0.16722000130E+03  0.16722000130E+03  0.00000000000E+00 0.  1.
          6    1    1    2  502    0 -0.39486131013E+02  0.79624939725E+02  0.16002742561E+03  0.25186715251E+03  0.17300000000E+03 0. -1.
         -6    1    1    2    0  501  0.39486131013E+02 -0.79624939725E+02 -0.43335911594E+02  0.19926436411E+03  0.17300000000E+03 0.  1.
</event>
<event>
 4    1  0.5880538E-001  0.1000000E+03  0.7546771E-02  0.1280296E+00
         -1   -1    0    0    0  501 -0.00000000000E+00  0.00000000000E+00  0.49521529368E+02  0.49521529368E+02  0.00000000000E+00 0.  1.
          1   -1    0    0  502    0  0.00000000000E+00 -0.00000000000E+00 -0.89096888414E+03  0.89096888414E+03  0.00000000000E+00 0. -1.
          6    1    1    2  502    0 -0.21641488541E+02 -0.11256444846E+03 -0.49340505028E+03  0.53527250324E+03  0.17300000000E+03 0. -1.
         -6    1    1    2    0  501  0.21641488541E+02  0.11256444846E+03 -0.34804230449E+03  0.40521791027E+03  0.17300000000E+03 0.  1.
</event>
<event>
 4    1  0.5880538E-001  0.1000000E+03  0.7546771E-02  0.1280296E+00
          1   -1    0    0  502    0  0.00000000000E+00  0.00000000000E+00  0.59920264003E+03  0.59920264003E+03  0.00000000000E+00 0. -1.
         -1   -1    0    0    0  501 -0.00000000000E+00 -0.00000000000E+00 -0.94098790649E+02  0.94098790649E+02  0.00000000000E+00 0.  1.
          6    1    1    2  502    0  0.21674578652E+02  0.92911069582E+02  0.60242586383E+02  0.20654399876E+03  0.17300000000E+03 0.  1.
         -6    1    1    2    0  501 -0.21674578652E+02 -0.92911069582E+02  0.44486126300E+03  0.48675743192E+03  0.17300000000E+03 0. -1.
</event>
<event>
 4    1  0.5880538E-001  0.1000000E+03  0.7546771E-02  0.1280296E+00
          1   -1    0    0  502    0  0.00000000000E+00  0.00000000000E+00  0.48869509873E+02  0.48869509873E+02  0.00000000000E+00 0. -1.
         -1   -1    0    0    0  501 -0.00000000000E+00 -0.00000000000E+00 -0.10287991162E+04  0.10287991162E+04  0.00000000000E+00 0.  1.
          6    1    1    2  502    0  0.83130247096E+02 -0.87136489485E+02 -0.30624974869E+03  0.37178127219E+03  0.17300000000E+03 0.  1.
         -6    1    1    2    0  501 -0.83130247096E+02  0.87136489485E+02 -0.67367985767E+03  0.70588735391E+03  0.17300000000E+03 0. -1.
</event>
<event>
 4    1  0.5880538E-001  0.1000000E+03  0.7546771E-02  0.1280296E+00
          3   -1    0    0  502    0  0.00000000000E+00  0.00000000000E+00  0.53097442022E+02  0.53097442022E+02  0.00000000000E+00 0. -1.
         -3   -1    0    0    0  501 -0.00000000000E+00 -0.00000000000E+00 -0.80042831331E+03  0.80042831331E+03  0.00000000000E+00 0.  1.
          6    1    1    2  502    0 -0.64320949450E+01  0.10693268020E+03 -0.44218894572E+03  0.48676075608E+03  0.17300000000E+03 0.  1.
         -6    1    1    2    0  501  0.64320949450E+01 -0.10693268020E+03 -0.30514192557E+03  0.36676499926E+03  0.17300000000E+03 0. -1.
</event>
<event>
 4    1  0.5880538E-001  0.1000000E+03  0.7546771E-02  0.1280296E+00
          2   -1    0    0  502    0  0.00000000000E+00  0.00000000000E+00  0.11555493883E+04  0.11555493883E+04  0.00000000000E+00 0.  1.
         -2   -1    0    0    0  501 -0.00000000000E+00 -0.00000000000E+00 -0.99812490167E+02  0.99812490167E+02  0.00000000000E+00 0. -1.
          6    1    1    2  502    0 -0.15034521676E+03  0.22616393351E+03  0.72740240684E+03  0.79548543072E+03  0.17300000000E+03 0.  1.
         -6    1    1    2    0  501  0.15034521676E+03 -0.22616393351E+03  0.32833449133E+03  0.45987644778E+03  0.17300000000E+03 0. -1.
</event>
<event>
 4    1  0.5880538E-001  0.1000000E+03  0.7546771E-02  0.1280296E+00
          4   -1    0    0  502    0  0.00000000000E+00  0.00000000000E+00  0.30317371954E+03  0.30317371954E+03  0.00000000000E+00 0. -1.
         -4   -1    0    0    0  501 -0.00000000000E+00 -0.00000000000E+00 -0.24648402324E+03  0.24648402324E+03  0.00000000000E+00 0.  1.
          6    1    1    2  502    0 -0.17752601926E+03 -0.11028818284E+03  0.61983273999E+02  0.27829821603E+03  0.17300000000E+03 0.  1.
         -6    1    1    2    0  501  0.17752601926E+03  0.11028818284E+03 -0.52935776907E+01  0.27135952675E+03  0.17300000000E+03 0. -1.
</event>
<event>
 4    1  0.5880538E-001  0.1000000E+03  0.7546771E-02  0.1280296E+00
          1   -1    0    0  502    0  0.00000000000E+00  0.00000000000E+00  0.15726556811E+04  0.15726556811E+04  0.00000000000E+00 0. -1.
         -1   -1    0    0    0  501 -0.00000000000E+00 -0.00000000000E+00 -0.23197106567E+02  0.23197106567E+02  0.00000000000E+00 0.  1.
          6    1    1    2  502    0 -0.26501205551E+02  0.32863201828E+02  0.48620840755E+03  0.51779331736E+03  0.17300000000E+03 0.  1.
         -6    1    1    2    0  501  0.26501205551E+02 -0.32863201828E+02  0.10632501670E+04  0.10780594703E+04  0.17300000000E+03 0. -1.
</event>
<event>
 4    1  0.5880538E-001  0.1000000E+03  0.7546771E-02  0.1280296E+00
          1   -1    0    0  502    0  0.00000000000E+00  0.00000000000E+00  0.97916532626E+03  0.97916532626E+03  0.00000000000E+00 0. -1.
         -1   -1    0    0    0  501 -0.00000000000E+00 -0.00000000000E+00 -0.68891214055E+02  0.68891214055E+02  0.00000000000E+00 0.  1.
          6    1    1    2  502    0  0.10794027368E+03 -0.15796073405E+03  0.51647452685E+03  0.57730202933E+03  0.17300000000E+03 0.  1.
         -6    1    1    2    0  501 -0.10794027368E+03  0.15796073405E+03  0.39379958535E+03  0.47075451098E+03  0.17300000000E+03 0. -1.
</event>
<event>
 4    1  0.5880538E-001  0.1000000E+03  0.7546771E-02  0.1280296E+00
          2   -1    0    0  502    0  0.00000000000E+00  0.00000000000E+00  0.44458812245E+03  0.44458812245E+03  0.00000000000E+00 0. -1.
         -2   -1    0    0    0  501 -0.00000000000E+00 -0.00000000000E+00 -0.72834877614E+02  0.72834877614E+02  0.00000000000E+00 0.  1.
          6    1    1    2  502    0  0.11434149490E+02 -0.28551868654E+02  0.13007303387E+03  0.21861825888E+03  0.17300000000E+03 0.  1.
         -6    1    1    2    0  501 -0.11434149490E+02  0.28551868654E+02  0.24168021097E+03  0.29880474118E+03  0.17300000000E+03 0. -1.
</event>
<event>
 4    1  0.5880538E-001  0.1000000E+03  0.7546771E-02  0.1280296E+00
          2   -1    0    0  502    0  0.00000000000E+00  0.00000000000E+00  0.23402484764E+04  0.23402484764E+04  0.00000000000E+00 0. -1.
         -2   -1    0    0    0  501 -0.00000000000E+00 -0.00000000000E+00 -0.27436366676E+02  0.27436366676E+02  0.00000000000E+00 0.  1.
          6    1    1    2  502    0  0.19039664322E+02 -0.73031425851E+02  0.36654240004E+03  0.41228440306E+03  0.17300000000E+03 0.  1.
         -6    1    1    2    0  501 -0.19039664322E+02  0.73031425851E+02  0.19462697097E+04  0.19554004401E+04  0.17300000000E+03 0. -1.
</event>
<event>
 4    1  0.5880538E-001  0.1000000E+03  0.7546771E-02  0.1280296E+00
         -1   -1    0    0    0  501 -0.00000000000E+00  0.00000000000E+00  0.15267089930E+02  0.15267089930E+02  0.00000000000E+00 0. -1.
          1   -1    0    0  502    0  0.00000000000E+00 -0.00000000000E+00 -0.26471605350E+04  0.26471605350E+04  0.00000000000E+00 0.  1.
          6    1    1    2  502    0  0.92527927860E+02  0.21149824914E+02 -0.10614826476E+04  0.10796680710E+04  0.17300000000E+03 0. -1.
         -6    1    1    2    0  501 -0.92527927860E+02 -0.21149824914E+02 -0.15704107975E+04  0.15827595539E+04  0.17300000000E+03 0.  1.
</event>
<event>
 4    1  0.5880538E-001  0.1000000E+03  0.7546771E-02  0.1280296E+00
         -2   -1    0    0    0  501 -0.00000000000E+00  0.00000000000E+00  0.17489422172E+03  0.17489422172E+03  0.00000000000E+00 0. -1.
          2   -1    0    0  502    0  0.00000000000E+00 -0.00000000000E+00 -0.14053509926E+04  0.14053509926E+04  0.00000000000E+00 0.  1.
          6    1    1    2  502    0  0.35258944214E+03 -0.21385326013E+03 -0.27413235859E+03  0.52452843736E+03  0.17300000000E+03 0. -1.
         -6    1    1    2    0  501 -0.35258944214E+03  0.21385326013E+03 -0.95632441227E+03  0.10557167769E+04  0.17300000000E+03 0.  1.
</event>
<event>
 4    1  0.5880538E-001  0.1000000E+03  0.7546771E-02  0.1280296E+00
          1   -1    0    0  502    0  0.00000000000E+00  0.00000000000E+00  0.12287719927E+03  0.12287719927E+03  0.00000000000E+00 0. -1.
         -1   -1    0    0    0  501 -0.00000000000E+00 -0.00000000000E+00 -0.36177976264E+03  0.36177976264E+03  0.00000000000E+00 0.  1.
          6    1    1    2  502    0  0.37926353835E+02  0.87870939946E+02 -0.20364173439E+03  0.28382858627E+03  0.17300000000E+03 0.  1.
         -6    1    1    2    0  501 -0.37926353835E+02 -0.87870939946E+02 -0.35260828982E+02  0.20082837564E+03  0.17300000000E+03 0. -1.
</event>
<event>
 4    1  0.5880538E-001  0.1000000E+03  0.7546771E-02  0.1280296E+00
          1   -1    0    0  502    0  0.00000000000E+00  0.00000000000E+00  0.31847047371E+03  0.31847047371E+03  0.00000000000E+00 0. -1.
         -1   -1    0    0    0  501 -0.00000000000E+00 -0.00000000000E+00 -0.10404807653E+03  0.10404807653E+03  0.00000000000E+00 0.  1.
          6    1    1    2  502    0  0.42439100976E+02  0.18046865823E+02  0.69063245237E+02  0.19189970948E+03  0.17300000000E+03 0.  1.
         -6    1    1    2    0  501 -0.42439100976E+02 -0.18046865823E+02  0.14535915194E+03  0.23061884075E+03  0.17300000000E+03 0. -1.
</event>
<event>
 4    1  0.5880538E-001  0.1000000E+03  0.7546771E-02  0.1280296E+00
         -1   -1    0    0    0  501 -0.00000000000E+00  0.00000000000E+00  0.23736688889E+03  0.23736688889E+03  0.00000000000E+00 0.  1.
          1   -1    0    0  502    0  0.00000000000E+00 -0.00000000000E+00 -0.63270375379E+03  0.63270375379E+03  0.00000000000E+00 0. -1.
          6    1    1    2  502    0  0.12781358074E+03  0.31886742368E+03 -0.25081218994E+03  0.45918242555E+03  0.17300000000E+03 0. -1.
         -6    1    1    2    0  501 -0.12781358074E+03 -0.31886742368E+03 -0.14452467496E+03  0.41088821714E+03  0.17300000000E+03 0. -1.
</event>
<event>
 4    1  0.5880538E-001  0.1000000E+03  0.7546771E-02  0.1280296E+00
         -1   -1    0    0    0  501 -0.00000000000E+00  0.00000000000E+00  0.47545968272E+02  0.47545968272E+02  0.00000000000E+00 0.  1.
          1   -1    0    0  502    0  0.00000000000E+00 -0.00000000000E+00 -0.11876563678E+04  0.11876563678E+04  0.00000000000E+00 0. -1.
          6    1    1    2  502    0 -0.48509129243E+02  0.15549972152E+03 -0.56370334005E+03  0.61173830565E+03  0.17300000000E+03 0. -1.
         -6    1    1    2    0  501  0.48509129243E+02 -0.15549972152E+03 -0.57640705945E+03  0.62346403039E+03  0.17300000000E+03 0. -1.
</event>
<event>
 4    1  0.5880538E-001  0.1000000E+03  0.7546771E-02  0.1280296E+00
         -1   -1    0    0    0  501 -0.00000000000E+00  0.00000000000E+00  0.55409036867E+02  0.55409036867E+02  0.00000000000E+00 0.  1.
          1   -1    0    0  502    0  0.00000000000E+00 -0.00000000000E+00 -0.12133951890E+04  0.12133951890E+04  0.00000000000E+00 0. -1.
          6    1    1    2  502    0 -0.14240503062E+03 -0.97312704729E+02 -0.36632936151E+03  0.44031256665E+03  0.17300000000E+03 0. -1.
         -6    1    1    2    0  501  0.14240503062E+03  0.97312704729E+02 -0.79165679061E+03  0.82849165920E+03  0.17300000000E+03 0. -1.
</event>
<event>
 4    1  0.5880538E-001  0.1000000E+03  0.7546771E-02  0.1280296E+00
         -2   -1    0    0    0  501 -0.00000000000E+00  0.00000000000E+00  0.17208452078E+02  0.17208452078E+02  0.00000000000E+00 0.  1.
          2   -1    0    0  502    0  0.00000000000E+00 -0.00000000000E+00 -0.22908951372E+04  0.22908951372E+04  0.00000000000E+00 0. -1.
          6    1    1    2  502    0 -0.15886432368E+02  0.72174037363E+02 -0.76775731379E+03  0.79046933101E+03  0.17300000000E+03 0.  1.
         -6    1    1    2    0  501  0.15886432368E+02 -0.72174037363E+02 -0.15059293713E+04  0.15176342582E+04  0.17300000000E+03 0. -1.
</event>
<event>
 4    1  0.5880538E-001  0.1000000E+03  0.7546771E-02  0.1280296E+00
         -2   -1    0    0    0  501 -0.00000000000E+00  0.00000000000E+00  0.18545390386E+03  0.18545390386E+03  0.00000000000E+00 0.  1.
          2   -1    0    0  502    0  0.00000000000E+00 -0.00000000000E+00 -0.25351628521E+03  0.25351628521E+03  0.00000000000E+00 0. -1.
          6    1    1    2  502    0  0.10560700661E+03 -0.47571271719E+02  0.27296933833E+02  0.20997616135E+03  0.17300000000E+03 0.  1.
         -6    1    1    2    0  501 -0.10560700661E+03  0.47571271719E+02 -0.95359315179E+02  0.22899402772E+03  0.17300000000E+03 0. -1.
</event>
<event>
 4    1  0.5880538E-001  0.1000000E+03  0.7546771E-02  0.1280296E+00
         -1   -1    0    0    0  501 -0.00000000000E+00  0.00000000000E+00  0.10747404613E+03  0.10747404613E+03  0.00000000000E+00 0.  1.
          1   -1    0    0  502    0  0.00000000000E+00 -0.00000000000E+00 -0.40480688296E+03  0.40480688296E+03  0.00000000000E+00 0. -1.
          6    1    1    2  502    0  0.10828381664E+03  0.12806786757E+02 -0.98215691511E+02  0.22685837166E+03  0.17300000000E+03 0.  1.
         -6    1    1    2    0  501 -0.10828381664E+03 -0.12806786757E+02 -0.19911714531E+03  0.28542255743E+03  0.17300000000E+03 0. -1.
</event>
<event>
 4    1  0.5880538E-001  0.1000000E+03  0.7546771E-02  0.1280296E+00
         -1   -1    0    0    0  501 -0.00000000000E+00  0.00000000000E+00  0.39911585533E+03  0.39911585533E+03  0.00000000000E+00 0.  1.
          1   -1    0    0  502    0  0.00000000000E+00 -0.00000000000E+00 -0.86693844470E+02  0.86693844470E+02  0.00000000000E+00 0. -1.
          6    1    1    2  502    0 -0.28430567495E+02 -0.61482877458E+02  0.14428220905E+03  0.23523349514E+03  0.17300000000E+03 0.  1.
         -6    1    1    2    0  501  0.28430567495E+02  0.61482877458E+02  0.16813980182E+03  0.25057620466E+03  0.17300000000E+03 0. -1.
</event>
<event>
 4    1  0.5880538E-001  0.1000000E+03  0.7546771E-02  0.1280296E+00
          2   -1    0    0  502    0  0.00000000000E+00  0.00000000000E+00  0.16906658217E+04  0.16906658217E+04  0.00000000000E+00 0.  1.
         -2   -1    0    0    0  501 -0.00000000000E+00 -0.00000000000E+00 -0.21511256588E+02  0.21511256588E+02  0.00000000000E+00 0. -1.
          6    1    1    2  502    0 -0.37627894496E+00  0.56228288640E+02  0.57757685897E+03  0.60554586122E+03  0.17300000000E+03 0. -1.
         -6    1    1    2    0  501  0.37627894496E+00 -0.56228288640E+02  0.10915777061E+04  0.11066312170E+04  0.17300000000E+03 0.  1.
</event>
<event>
 4    1  0.5880538E-001  0.1000000E+03  0.7546771E-02  0.1280296E+00
          2   -1    0    0  502    0  0.00000000000E+00  0.00000000000E+00  0.12305171220E+04  0.12305171220E+04  0.00000000000E+00 0.  1.
         -2   -1    0    0    0  501 -0.00000000000E+00 -0.00000000000E+00 -0.65651411523E+02  0.65651411523E+02  0.00000000000E+00 0. -1.
          6    1    1    2  502    0  0.97196788313E+02 -0.19601032964E+03  0.70709162332E+03  0.76011501022E+03  0.17300000000E+03 0. -1.
         -6    1    1    2    0  501 -0.97196788313E+02  0.19601032964E+03  0.45777408720E+03  0.53605352335E+03  0.17300000000E+03 0.  1.
</event>
<event>
 4    1  0.5880538E-001  0.1000000E+03  0.7546771E-02  0.1280296E+00
          2   -1    0    0  502    0  0.00000000000E+00  0.00000000000E+00  0.30964352291E+03  0.30964352291E+03  0.00000000000E+00 0.  1.
         -2   -1    0    0    0  501 -0.00000000000E+00 -0.00000000000E+00 -0.22420137807E+03  0.22420137807E+03  0.00000000000E+00 0. -1.
          6    1    1    2  502    0  0.58027910766E+02  0.18981808736E+03  0.32828307206E+02  0.26533910845E+03  0.17300000000E+03 0. -1.
         -6    1    1    2    0  501 -0.58027910766E+02 -0.18981808736E+03  0.52613837637E+02  0.26850579254E+03  0.17300000000E+03 0.  1.
</event>
<event>
 4    1  0.5880538E-001  0.1000000E+03  0.7546771E-02  0.1280296E+00
          1   -1    0    0  502    0  0.00000000000E+00  0.00000000000E+00  0.98645446765E+03  0.98645446765E+03  0.00000000000E+00 0.  1.
         -1   -1    0    0    0  501 -0.00000000000E+00 -0.00000000000E+00 -0.33429627565E+02  0.33429627565E+02  0.00000000000E+00 0. -1.
          6    1    1    2  502    0  0.93284486031E+01  0.32963082718E+02  0.35494228586E+03  0.39634153336E+03  0.17300000000E+03 0. -1.
         -6    1    1    2    0  501 -0.93284486031E+01 -0.32963082718E+02  0.59808255422E+03  0.62354256185E+03  0.17300000000E+03 0.  1.
</event>
<event>
 4    1  0.5880538E-001  0.1000000E+03  0.7546771E-02  0.1280296E+00
          2   -1    0    0  502    0  0.00000000000E+00  0.00000000000E+00  0.99529009533E+02  0.99529009533E+02  0.00000000000E+00 0.  1.
         -2   -1    0    0    0  501 -0.00000000000E+00 -0.00000000000E+00 -0.55046768237E+03  0.55046768237E+03  0.00000000000E+00 0. -1.
          6    1    1    2  502    0 -0.11545726464E+03  0.96917331807E+02 -0.16131071809E+03  0.28048796219E+03  0.17300000000E+03 0. -1.
         -6    1    1    2    0  501  0.11545726464E+03 -0.96917331807E+02 -0.28962795475E+03  0.36950872971E+03  0.17300000000E+03 0. -1.
</event>
<event>
 4    1  0.5880538E-001  0.1000000E+03  0.7546771E-02  0.1280296E+00
         -2   -1    0    0    0  501 -0.00000000000E+00  0.00000000000E+00  0.17345082192E+03  0.17345082192E+03  0.00000000000E+00 0.  1.
          2   -1    0    0  502    0  0.00000000000E+00 -0.00000000000E+00 -0.49781097569E+03  0.49781097569E+03  0.00000000000E+00 0. -1.
          6    1    1    2  502    0 -0.57172205045E+02  0.66808384811E+02 -0.41420168430E+03  0.45741016232E+03  0.17300000000E+03 0.  1.
         -6    1    1    2    0  501  0.57172205045E+02 -0.66808384811E+02  0.89841530536E+02  0.21385163530E+03  0.17300000000E+03 0. -1.
</event>
<event>
 4    1  0.5880538E-001  0.1000000E+03  0.7546771E-02  0.1280296E+00
         -2   -1    0    0    0  501 -0.00000000000E+00  0.00000000000E+00  0.16115678448E+03  0.16115678448E+03  0.00000000000E+00 0.  1.
          2   -1    0    0  502    0  0.00000000000E+00 -0.00000000000E+00 -0.40951123941E+03  0.40951123941E+03  0.00000000000E+00 0. -1.
          6    1    1    2  502    0  0.15014040849E+03 -0.10214968436E+03 -0.62437810948E+02  0.25846504699E+03  0.17300000000E+03 0.  1.
         -6    1    1    2    0  501 -0.15014040849E+03  0.10214968436E+03 -0.18591664398E+03  0.31220297690E+03  0.17300000000E+03 0. -1.
</event>
<event>
 4    1  0.5880538E-001  0.1000000E+03  0.7546771E-02  0.1280296E+00
         -2   -1    0    0    0  501 -0.00000000000E+00  0.00000000000E+00  0.85124953699E+02  0.85124953699E+02  0.00000000000E+00 0.  1.
          2   -1    0    0  502    0  0.00000000000E+00 -0.00000000000E+00 -0.36884296493E+03  0.36884296493E+03  0.00000000000E+00 0. -1.
          6    1    1    2  502    0  0.22655150076E+02 -0.29247621638E+02 -0.15467282625E+03  0.23499226025E+03  0.17300000000E+03 0.  1.
         -6    1    1    2    0  501 -0.22655150076E+02  0.29247621638E+02 -0.12904518498E+03  0.21897565838E+03  0.17300000000E+03 0. -1.
</event>
<event>
 4    1  0.5880538E-001  0.1000000E+03  0.7546771E-02  0.1280296E+00
          1   -1    0    0  502    0  0.00000000000E+00  0.00000000000E+00  0.40517173865E+03  0.40517173865E+03  0.00000000000E+00 0.  1.
         -1   -1    0    0    0  501 -0.00000000000E+00 -0.00000000000E+00 -0.10909789325E+03  0.10909789325E+03  0.00000000000E+00 0. -1.
          6    1    1    2  502    0  0.38806866649E+02  0.10583438086E+02  0.10446487918E+02  0.17792164335E+03  0.17300000000E+03 0. -1.
         -6    1    1    2    0  501 -0.38806866649E+02 -0.10583438086E+02  0.28562735749E+03  0.33634798856E+03  0.17300000000E+03 0.  1.
</event>
<event>
 4    1  0.5880538E-001  0.1000000E+03  0.7546771E-02  0.1280296E+00
          2   -1    0    0  502    0  0.00000000000E+00  0.00000000000E+00  0.23072442613E+04  0.23072442613E+04  0.00000000000E+00 0.  1.
         -2   -1    0    0    0  501 -0.00000000000E+00 -0.00000000000E+00 -0.54151881665E+02  0.54151881665E+02  0.00000000000E+00 0. -1.
          6    1    1    2  502    0  0.29598276153E+03 -0.39855113691E+02  0.87175358613E+03  0.93759135029E+03  0.17300000000E+03 0. -1.
         -6    1    1    2    0  501 -0.29598276153E+03  0.39855113691E+02  0.13813387935E+04  0.14238047927E+04  0.17300000000E+03 0.  1.
</event>
<event>
 4    1  0.5880538E-001  0.1000000E+03  0.7546771E-02  0.1280296E+00
          2   -1    0    0  502    0  0.00000000000E+00  0.00000000000E+00  0.30196254276E+04  0.30196254276E+04  0.00000000000E+00 0.  1.
         -2   -1    0    0    0  501 -0.00000000000E+00 -0.00000000000E+00 -0.25154967529E+02  0.25154967529E+02  0.00000000000E+00 0. -1.
          6    1    1    2  502    0 -0.15019955974E+03 -0.98323346420E+02  0.21461857490E+04  0.21606178879E+04  0.17300000000E+03 0. -1.
         -6    1    1    2    0  501  0.15019955974E+03  0.98323346420E+02  0.84828471107E+03  0.88416250725E+03  0.17300000000E+03 0.  1.
</event>
<event>
 4    1  0.5880538E-001  0.1000000E+03  0.7546771E-02  0.1280296E+00
          1   -1    0    0  502    0  0.00000000000E+00  0.00000000000E+00  0.42469422317E+02  0.42469422317E+02  0.00000000000E+00 0. -1.
         -1   -1    0    0    0  501 -0.00000000000E+00 -0.00000000000E+00 -0.86876857975E+03  0.86876857975E+03  0.00000000000E+00 0.  1.
          6    1    1    2  502    0 -0.46659517111E+02 -0.87408896723E+01 -0.25029974614E+03  0.30794882141E+03  0.17300000000E+03 0. -1.
         -6    1    1    2    0  501  0.46659517111E+02  0.87408896723E+01 -0.57599941130E+03  0.60328918066E+03  0.17300000000E+03 0.  1.
</event>
<event>
 4    1  0.5880538E-001  0.1000000E+03  0.7546771E-02  0.1280296E+00
          2   -1    0    0  502    0  0.00000000000E+00  0.00000000000E+00  0.13314823849E+04  0.13314823849E+04  0.00000000000E+00 0. -1.
         -2   -1    0    0    0  501 -0.00000000000E+00 -0.00000000000E+00 -0.89592255530E+02  0.89592255530E+02  0.00000000000E+00 0.  1.
          6    1    1    2  502    0  0.29502962026E+03  0.47975935785E+02  0.61237776789E+03  0.70305028117E+03  0.17300000000E+03 0. -1.
         -6    1    1    2    0  501 -0.29502962026E+03 -0.47975935785E+02  0.62951236153E+03  0.71802435931E+03  0.17300000000E+03 0.  1.
</event>
<event>
 4    1  0.5880538E-001  0.1000000E+03  0.7546771E-02  0.1280296E+00
          1   -1    0    0  502    0  0.00000000000E+00  0.00000000000E+00  0.53928556840E+03  0.53928556840E+03  0.00000000000E+00 0.  1.
         -1   -1    0    0    0  501 -0.00000000000E+00 -0.00000000000E+00 -0.10498197255E+03  0.10498197255E+03  0.00000000000E+00 0. -1.
          6    1    1    2  502    0  0.27895338664E+02 -0.10978024676E+03  0.37651749942E+03  0.42956289396E+03  0.17300000000E+03 0.  1.
         -6    1    1    2    0  501 -0.27895338664E+02  0.10978024676E+03  0.57786096429E+02  0.21470464699E+03  0.17300000000E+03 0.  1.
</event>
<event>
 4    1  0.5880538E-001  0.1000000E+03  0.7546771E-02  0.1280296E+00
          2   -1    0    0  502    0  0.00000000000E+00  0.00000000000E+00  0.94687798347E+03  0.94687798347E+03  0.00000000000E+00 0.  1.
         -2   -1    0    0    0  501 -0.00000000000E+00 -0.00000000000E+00 -0.39602713258E+02  0.39602713258E+02  0.00000000000E+00 0. -1.
          6    1    1    2  502    0 -0.83731775248E+02  0.12696042427E+02  0.50443573116E+03  0.53995981939E+03  0.17300000000E+03 0.  1.
         -6    1    1    2    0  501  0.83731775248E+02 -0.12696042427E+02  0.40283953905E+03  0.44652087734E+03  0.17300000000E+03 0.  1.
</event>
<event>
 4    1  0.5880538E-001  0.1000000E+03  0.7546771E-02  0.1280296E+00
         -2   -1    0    0    0  501 -0.00000000000E+00  0.00000000000E+00  0.41933523602E+02  0.41933523602E+02  0.00000000000E+00 0. -1.
          2   -1    0    0  502    0  0.00000000000E+00 -0.00000000000E+00 -0.99858716992E+03  0.99858716992E+03  0.00000000000E+00 0.  1.
          6    1    1    2  502    0  0.48836404153E+02  0.90669829878E+02 -0.38528450616E+03  0.43471733702E+03  0.17300000000E+03 0. -1.
         -6    1    1    2    0  501 -0.48836404153E+02 -0.90669829878E+02 -0.57136914016E+03  0.60580335650E+03  0.17300000000E+03 0.  1.
</event>
<event>
 4    1  0.5880538E-001  0.1000000E+03  0.7546771E-02  0.1280296E+00
         -4   -1    0    0    0  501 -0.00000000000E+00  0.00000000000E+00  0.24060312896E+03  0.24060312896E+03  0.00000000000E+00 0. -1.
          4   -1    0    0  502    0  0.00000000000E+00 -0.00000000000E+00 -0.33838252435E+03  0.33838252435E+03  0.00000000000E+00 0.  1.
          6    1    1    2  502    0  0.39217374291E+02 -0.82766680742E+02 -0.25951698280E+03  0.32506367107E+03  0.17300000000E+03 0. -1.
         -6    1    1    2    0  501 -0.39217374291E+02  0.82766680742E+02  0.16173758741E+03  0.25392198224E+03  0.17300000000E+03 0.  1.
</event>
<event>
 4    1  0.5880538E-001  0.1000000E+03  0.7546771E-02  0.1280296E+00
         -1   -1    0    0    0  501 -0.00000000000E+00  0.00000000000E+00  0.35421825937E+03  0.35421825937E+03  0.00000000000E+00 0. -1.
          1   -1    0    0  502    0  0.00000000000E+00 -0.00000000000E+00 -0.18834895496E+03  0.18834895496E+03  0.00000000000E+00 0.  1.
          6    1    1    2  502    0 -0.72158555205E+02 -0.25311910758E+02 -0.10180803290E+03  0.21480555272E+03  0.17300000000E+03 0. -1.
         -6    1    1    2    0  501  0.72158555205E+02  0.25311910758E+02  0.26767733731E+03  0.32776166162E+03  0.17300000000E+03 0.  1.
</event>
<event>
 4    1  0.5880538E-001  0.1000000E+03  0.7546771E-02  0.1280296E+00
         -1   -1    0    0    0  501 -0.00000000000E+00  0.00000000000E+00  0.54187193299E+02  0.54187193299E+02  0.00000000000E+00 0. -1.
          1   -1    0    0  502    0  0.00000000000E+00 -0.00000000000E+00 -0.18484557331E+04  0.18484557331E+04  0.00000000000E+00 0.  1.
          6    1    1    2  502    0 -0.82936953294E+02  0.28068108241E+02 -0.16490134283E+04  0.16603736458E+04  0.17300000000E+03 0. -1.
         -6    1    1    2    0  501  0.82936953294E+02 -0.28068108241E+02 -0.14525511157E+03  0.24226928067E+03  0.17300000000E+03 0.  1.
</event>
<event>
 4    1  0.5880538E-001  0.1000000E+03  0.7546771E-02  0.1280296E+00
         -1   -1    0    0    0  501 -0.00000000000E+00  0.00000000000E+00  0.14154417066E+03  0.14154417066E+03  0.00000000000E+00 0. -1.
          1   -1    0    0  502    0  0.00000000000E+00 -0.00000000000E+00 -0.39931781314E+03  0.39931781314E+03  0.00000000000E+00 0.  1.
          6    1    1    2  502    0 -0.11921091761E+02  0.15252128513E+03 -0.64668425530E+02  0.23982464449E+03  0.17300000000E+03 0. -1.
         -6    1    1    2    0  501  0.11921091761E+02 -0.15252128513E+03 -0.19310521694E+03  0.30103733931E+03  0.17300000000E+03 0.  1.
</event>
<event>
 4    1  0.5880538E-001  0.1000000E+03  0.7546771E-02  0.1280296E+00
         -2   -1    0    0    0  501 -0.00000000000E+00  0.00000000000E+00  0.47140637982E+02  0.47140637982E+02  0.00000000000E+00 0. -1.
          2   -1    0    0  502    0  0.00000000000E+00 -0.00000000000E+00 -0.11259550375E+04  0.11259550375E+04  0.00000000000E+00 0.  1.
          6    1    1    2  502    0 -0.33791591191E+02  0.13348420391E+02 -0.91555971067E+03  0.93246910714E+03  0.17300000000E+03 0. -1.
         -6    1    1    2    0  501  0.33791591191E+02 -0.13348420391E+02 -0.16325468885E+03  0.24062656834E+03  0.17300000000E+03 0.  1.
</event>
<event>
 4    1  0.5880538E-001  0.1000000E+03  0.7546771E-02  0.1280296E+00
         -2   -1    0    0    0  501 -0.00000000000E+00  0.00000000000E+00  0.17812907229E+03  0.17812907229E+03  0.00000000000E+00 0. -1.
          2   -1    0    0  502    0  0.00000000000E+00 -0.00000000000E+00 -0.30105359333E+03  0.30105359333E+03  0.00000000000E+00 0.  1.
          6    1    1    2  502    0  0.85361253444E+02 -0.64984026132E+02 -0.17568347386E+03  0.26889245105E+03  0.17300000000E+03 0.  1.
         -6    1    1    2    0  501 -0.85361253444E+02  0.64984026132E+02  0.52758952815E+02  0.21029021457E+03  0.17300000000E+03 0. -1.
</event>
<event>
 4    1  0.5880538E-001  0.1000000E+03  0.7546771E-02  0.1280296E+00
         -2   -1    0    0    0  501 -0.00000000000E+00  0.00000000000E+00  0.41902790411E+02  0.41902790411E+02  0.00000000000E+00 0. -1.
          2   -1    0    0  502    0  0.00000000000E+00 -0.00000000000E+00 -0.77941605179E+03  0.77941605179E+03  0.00000000000E+00 0.  1.
          6    1    1    2  502    0  0.21262155229E+02  0.13014983350E+02 -0.26439557044E+03  0.31694713550E+03  0.17300000000E+03 0.  1.
         -6    1    1    2    0  501 -0.21262155229E+02 -0.13014983350E+02 -0.47311769094E+03  0.50437170670E+03  0.17300000000E+03 0. -1.
</event>
<event>
 4    1  0.5880538E-001  0.1000000E+03  0.7546771E-02  0.1280296E+00
         -2   -1    0    0    0  501 -0.00000000000E+00  0.00000000000E+00  0.46509176877E+03  0.46509176877E+03  0.00000000000E+00 0. -1.
          2   -1    0    0  502    0  0.00000000000E+00 -0.00000000000E+00 -0.87909109598E+02  0.87909109598E+02  0.00000000000E+00 0.  1.
          6    1    1    2  502    0 -0.92962958342E+02  0.44675206319E+02  0.21300767699E+03  0.29315398025E+03  0.17300000000E+03 0.  1.
         -6    1    1    2    0  501  0.92962958342E+02 -0.44675206319E+02  0.16417498218E+03  0.25984689811E+03  0.17300000000E+03 0.  1.
</event>
<event>
 4    1  0.5880538E-001  0.1000000E+03  0.7546771E-02  0.1280296E+00
         -2   -1    0    0    0  501 -0.00000000000E+00  0.00000000000E+00  0.57376135274E+02  0.57376135274E+02  0.00000000000E+00 0. -1.
          2   -1    0    0  502    0  0.00000000000E+00 -0.00000000000E+00 -0.10833750003E+04  0.10833750003E+04  0.00000000000E+00 0.  1.
          6    1    1    2  502    0  0.53267121056E+02  0.10381732592E+03 -0.82513452680E+03  0.85111186731E+03  0.17300000000E+03 0.  1.
         -6    1    1    2    0  501 -0.53267121056E+02 -0.10381732592E+03 -0.20086433818E+03  0.28963926823E+03  0.17300000000E+03 0.  1.
</event>
<event>
 4    1  0.5880538E-001  0.1000000E+03  0.7546771E-02  0.1280296E+00
          1   -1    0    0  502    0  0.00000000000E+00  0.00000000000E+00  0.42702015684E+03  0.42702015684E+03  0.00000000000E+00 0. -1.
         -1   -1    0    0    0  501 -0.00000000000E+00 -0.00000000000E+00 -0.80988393838E+02  0.80988393838E+02  0.00000000000E+00 0.  1.
          6    1    1    2  502    0 -0.41614685583E+02  0.54007028409E+02  0.17639909337E+03  0.25630876168E+03  0.17300000000E+03 0.  1.
         -6    1    1    2    0  501  0.41614685583E+02 -0.54007028409E+02  0.16963266963E+03  0.25169978899E+03  0.17300000000E+03 0. -1.
</event>
<event>
 4    1  0.5880538E-001  0.1000000E+03  0.7546771E-02  0.1280296E+00
          4   -1    0    0  502    0  0.00000000000E+00  0.00000000000E+00  0.46820867172E+03  0.46820867172E+03  0.00000000000E+00 0. -1.
         -4   -1    0    0    0  501 -0.00000000000E+00 -0.00000000000E+00 -0.10981804973E+03  0.10981804973E+03  0.00000000000E+00 0.  1.
          6    1    1    2  502    0 -0.39078919792E+02  0.71876344713E+02  0.24162160501E+02  0.19288903779E+03  0.17300000000E+03 0.  1.
         -6    1    1    2    0  501  0.39078919792E+02 -0.71876344713E+02  0.33422846148E+03  0.38513768365E+03  0.17300000000E+03 0. -1.
</event>
<event>
 4    1  0.5880538E-001  0.1000000E+03  0.7546771E-02  0.1280296E+00
          2   -1    0    0  502    0  0.00000000000E+00  0.00000000000E+00  0.75257124191E+02  0.75257124191E+02  0.00000000000E+00 0. -1.
         -2   -1    0    0    0  501 -0.00000000000E+00 -0.00000000000E+00 -0.51954185299E+03  0.51954185299E+03  0.00000000000E+00 0.  1.
          6    1    1    2  502    0  0.50915024306E+02 -0.59060689554E+02 -0.13854053689E+03  0.23495315514E+03  0.17300000000E+03 0.  1.
         -6    1    1    2    0  501 -0.50915024306E+02  0.59060689554E+02 -0.30574419191E+03  0.35984582204E+03  0.17300000000E+03 0. -1.
</event>
<event>
 4    1  0.5880538E-001  0.1000000E+03  0.7546771E-02  0.1280296E+00
         -2   -1    0    0    0  501 -0.00000000000E+00  0.00000000000E+00  0.46168206850E+02  0.46168206850E+02  0.00000000000E+00 0. -1.
          2   -1    0    0  502    0  0.00000000000E+00 -0.00000000000E+00 -0.97696697862E+03  0.97696697862E+03  0.00000000000E+00 0.  1.
          6    1    1    2  502    0  0.52822447055E+02 -0.10732172396E+03 -0.39444750445E+03  0.44701901203E+03  0.17300000000E+03 0. -1.
         -6    1    1    2    0  501 -0.52822447055E+02  0.10732172396E+03 -0.53635126733E+03  0.57611617345E+03  0.17300000000E+03 0.  1.
</event>
<event>
 4    1  0.5880538E-001  0.1000000E+03  0.7546771E-02  0.1280296E+00
         -3   -1    0    0    0  501 -0.00000000000E+00  0.00000000000E+00  0.75875720635E+03  0.75875720635E+03  0.00000000000E+00 0. -1.
          3   -1    0    0  502    0  0.00000000000E+00 -0.00000000000E+00 -0.11156882324E+03  0.11156882324E+03  0.00000000000E+00 0.  1.
          6    1    1    2  502    0 -0.10819655013E+03 -0.16109745672E+03  0.51897954816E+03  0.58045469713E+03  0.17300000000E+03 0. -1.
         -6    1    1    2    0  501  0.10819655013E+03  0.16109745672E+03  0.12820883495E+03  0.28987133246E+03  0.17300000000E+03 0.  1.
</event>
<event>
 4    1  0.5880538E-001  0.1000000E+03  0.7546771E-02  0.1280296E+00
         -2   -1    0    0    0  501 -0.00000000000E+00  0.00000000000E+00  0.86327728557E+02  0.86327728557E+02  0.00000000000E+00 0. -1.
          2   -1    0    0  502    0  0.00000000000E+00 -0.00000000000E+00 -0.44174643205E+03  0.44174643205E+03  0.00000000000E+00 0.  1.
          6    1    1    2  502    0  0.20378379828E+01  0.89587911826E+02 -0.19563754696E+03  0.27610359742E+03  0.17300000000E+03 0. -1.
         -6    1    1    2    0  501 -0.20378379828E+01 -0.89587911826E+02 -0.15978115653E+03  0.25197056318E+03  0.17300000000E+03 0.  1.
</event>
<event>
 4    1  0.5880538E-001  0.1000000E+03  0.7546771E-02  0.1280296E+00
         -2   -1    0    0    0  501 -0.00000000000E+00  0.00000000000E+00  0.39514753057E+02  0.39514753057E+02  0.00000000000E+00 0. -1.
          2   -1    0    0  502    0  0.00000000000E+00 -0.00000000000E+00 -0.13347046555E+04  0.13347046555E+04  0.00000000000E+00 0.  1.
          6    1    1    2  502    0 -0.10091136138E+03  0.10614106467E+03 -0.75803371592E+03  0.79119728446E+03  0.17300000000E+03 0. -1.
         -6    1    1    2    0  501  0.10091136138E+03 -0.10614106467E+03 -0.53715618649E+03  0.58302212406E+03  0.17300000000E+03 0.  1.
</event>
<event>
 4    1  0.5880538E-001  0.1000000E+03  0.7546771E-02  0.1280296E+00
          1   -1    0    0  502    0  0.00000000000E+00  0.00000000000E+00  0.72678302996E+03  0.72678302996E+03  0.00000000000E+00 0. -1.
         -1   -1    0    0    0  501 -0.00000000000E+00 -0.00000000000E+00 -0.12269547843E+03  0.12269547843E+03  0.00000000000E+00 0.  1.
          6    1    1    2  502    0  0.19189694602E+02 -0.11292152156E+02  0.64679287625E+03  0.66989982971E+03  0.17300000000E+03 0.  1.
         -6    1    1    2    0  501 -0.19189694602E+02  0.11292152156E+02 -0.42705324714E+02  0.17957867868E+03  0.17300000000E+03 0. -1.
</event>
<event>
 4    1  0.5880538E-001  0.1000000E+03  0.7546771E-02  0.1280296E+00
          1   -1    0    0  502    0  0.00000000000E+00  0.00000000000E+00  0.15732877901E+04  0.15732877901E+04  0.00000000000E+00 0. -1.
         -1   -1    0    0    0  501 -0.00000000000E+00 -0.00000000000E+00 -0.22449218462E+02  0.22449218462E+02  0.00000000000E+00 0.  1.
          6    1    1    2  502    0 -0.63428685986E+02  0.26802761000E+02  0.66730577454E+03  0.69279692763E+03  0.17300000000E+03 0.  1.
         -6    1    1    2    0  501  0.63428685986E+02 -0.26802761000E+02  0.88353279715E+03  0.90294008098E+03  0.17300000000E+03 0. -1.
</event>
<event>
 4    1  0.5880538E-001  0.1000000E+03  0.7546771E-02  0.1280296E+00
          2   -1    0    0  502    0  0.00000000000E+00  0.00000000000E+00  0.37759170230E+03  0.37759170230E+03  0.00000000000E+00 0. -1.
         -2   -1    0    0    0  501 -0.00000000000E+00 -0.00000000000E+00 -0.13227375068E+03  0.13227375068E+03  0.00000000000E+00 0.  1.
          6    1    1    2  502    0 -0.88611276592E+01  0.12355646382E+03  0.20062715563E+03  0.29244653342E+03  0.17300000000E+03 0.  1.
         -6    1    1    2    0  501  0.88611276592E+01 -0.12355646382E+03  0.44690796002E+02  0.21741891956E+03  0.17300000000E+03 0. -1.
</event>
<event>
 4    1  0.5880538E-001  0.1000000E+03  0.7546771E-02  0.1280296E+00
         -2   -1    0    0    0  501 -0.00000000000E+00  0.00000000000E+00  0.40180557713E+02  0.40180557713E+02  0.00000000000E+00 0.  1.
          2   -1    0    0  502    0  0.00000000000E+00 -0.00000000000E+00 -0.15824184220E+04  0.15824184220E+04  0.00000000000E+00 0. -1.
          6    1    1    2  502    0 -0.50077826321E+02  0.12213493221E+03 -0.36124079875E+03  0.42172105122E+03  0.17300000000E+03 0. -1.
         -6    1    1    2    0  501  0.50077826321E+02 -0.12213493221E+03 -0.11809970655E+04  0.12008779285E+04  0.17300000000E+03 0. -1.
</event>
<event>
 4    1  0.5880538E-001  0.1000000E+03  0.7546771E-02  0.1280296E+00
          1   -1    0    0  502    0  0.00000000000E+00  0.00000000000E+00  0.61750972646E+03  0.61750972646E+03  0.00000000000E+00 0. -1.
         -1   -1    0    0    0  501 -0.00000000000E+00 -0.00000000000E+00 -0.78887570051E+02  0.78887570051E+02  0.00000000000E+00 0.  1.
          6    1    1    2  502    0  0.88361862322E+02  0.35159077008E+02  0.11360714110E+03  0.22777085397E+03  0.17300000000E+03 0. -1.
         -6    1    1    2    0  501 -0.88361862322E+02 -0.35159077008E+02  0.42501501531E+03  0.46862644254E+03  0.17300000000E+03 0.  1.
</event>
<event>
 4    1  0.5880538E-001  0.1000000E+03  0.7546771E-02  0.1280296E+00
         -1   -1    0    0    0  501 -0.00000000000E+00  0.00000000000E+00  0.16024505268E+03  0.16024505268E+03  0.00000000000E+00 0. -1.
          1   -1    0    0  502    0  0.00000000000E+00 -0.00000000000E+00 -0.33243333297E+03  0.33243333297E+03  0.00000000000E+00 0.  1.
          6    1    1    2  502    0 -0.11348980090E+02  0.13282040603E+03 -0.16576219885E+03  0.27418272407E+03  0.17300000000E+03 0.  1.
         -6    1    1    2    0  501  0.11348980090E+02 -0.13282040603E+03 -0.64260814433E+01  0.21849566158E+03  0.17300000000E+03 0. -1.
</event>
<event>
 4    1  0.5880538E-001  0.1000000E+03  0.7546771E-02  0.1280296E+00
         -2   -1    0    0    0  501 -0.00000000000E+00  0.00000000000E+00  0.76997704530E+02  0.76997704530E+02  0.00000000000E+00 0. -1.
          2   -1    0    0  502    0  0.00000000000E+00 -0.00000000000E+00 -0.50337480309E+03  0.50337480309E+03  0.00000000000E+00 0.  1.
          6    1    1    2  502    0 -0.40851431165E+02  0.74720345806E+02 -0.15464093271E+03  0.24717359806E+03  0.17300000000E+03 0.  1.
         -6    1    1    2    0  501  0.40851431165E+02 -0.74720345806E+02 -0.27173616584E+03  0.33319890956E+03  0.17300000000E+03 0. -1.
</event>
<event>
 4    1  0.5880538E-001  0.1000000E+03  0.7546771E-02  0.1280296E+00
         -2   -1    0    0    0  501 -0.00000000000E+00  0.00000000000E+00  0.50747967599E+02  0.50747967599E+02  0.00000000000E+00 0. -1.
          2   -1    0    0  502    0  0.00000000000E+00 -0.00000000000E+00 -0.91116981626E+03  0.91116981626E+03  0.00000000000E+00 0.  1.
          6    1    1    2  502    0 -0.21771422049E+02 -0.79980620011E+02 -0.21289689186E+03  0.28657456440E+03  0.17300000000E+03 0.  1.
         -6    1    1    2    0  501  0.21771422049E+02  0.79980620011E+02 -0.64752495680E+03  0.67534321946E+03  0.17300000000E+03 0. -1.
</event>
<event>
 4    1  0.5880538E-001  0.1000000E+03  0.7546771E-02  0.1280296E+00
         -1   -1    0    0    0  501 -0.00000000000E+00  0.00000000000E+00  0.12069493440E+03  0.12069493440E+03  0.00000000000E+00 0. -1.
          1   -1    0    0  502    0  0.00000000000E+00 -0.00000000000E+00 -0.26767016707E+03  0.26767016707E+03  0.00000000000E+00 0.  1.
          6    1    1    2  502    0 -0.22667091886E+02 -0.24850979099E+02 -0.11162369638E+03  0.20861499901E+03  0.17300000000E+03 0.  1.
         -6    1    1    2    0  501  0.22667091886E+02  0.24850979099E+02 -0.35351536289E+02  0.17975010246E+03  0.17300000000E+03 0. -1.
</event>
<event>
 4    1  0.5880538E-001  0.1000000E+03  0.7546771E-02  0.1280296E+00
         -2   -1    0    0    0  501 -0.00000000000E+00  0.00000000000E+00  0.93768035298E+02  0.93768035298E+02  0.00000000000E+00 0. -1.
          2   -1    0    0  502    0  0.00000000000E+00 -0.00000000000E+00 -0.76341491771E+03  0.76341491771E+03  0.00000000000E+00 0.  1.
          6    1    1    2  502    0 -0.13891826365E+02  0.20317863755E+03 -0.35633760135E+03  0.44539872893E+03  0.17300000000E+03 0. -1.
         -6    1    1    2    0  501  0.13891826365E+02 -0.20317863755E+03 -0.31330928106E+03  0.41178422407E+03  0.17300000000E+03 0. -1.
</event>
<event>
 4    1  0.5880538E-001  0.1000000E+03  0.7546771E-02  0.1280296E+00
         -1   -1    0    0    0  501 -0.00000000000E+00  0.00000000000E+00  0.12805945132E+03  0.12805945132E+03  0.00000000000E+00 0. -1.
          1   -1    0    0  502    0  0.00000000000E+00 -0.00000000000E+00 -0.62073268613E+03  0.62073268613E+03  0.00000000000E+00 0.  1.
          6    1    1    2  502    0  0.18940601904E+03  0.21545280692E+02 -0.93637805659E+02  0.27392677455E+03  0.17300000000E+03 0. -1.
         -6    1    1    2    0  501 -0.18940601904E+03 -0.21545280692E+02 -0.39903542915E+03  0.47486536290E+03  0.17300000000E+03 0. -1.
</event>
<event>
 4    1  0.5880538E-001  0.1000000E+03  0.7546771E-02  0.1280296E+00
         -4   -1    0    0    0  501 -0.00000000000E+00  0.00000000000E+00  0.26784469218E+03  0.26784469218E+03  0.00000000000E+00 0.  1.
          4   -1    0    0  502    0  0.00000000000E+00 -0.00000000000E+00 -0.29678287755E+03  0.29678287755E+03  0.00000000000E+00 0. -1.
          6    1    1    2  502    0  0.19629040814E+03  0.10366000382E+03  0.25060265764E+01  0.28144377927E+03  0.17300000000E+03 0. -1.
         -6    1    1    2    0  501 -0.19629040814E+03 -0.10366000382E+03 -0.31444211941E+02  0.28318379047E+03  0.17300000000E+03 0.  1.
</event>
<event>
 4    1  0.5880538E-001  0.1000000E+03  0.7546771E-02  0.1280296E+00
          1   -1    0    0  502    0  0.00000000000E+00  0.00000000000E+00  0.26732548404E+03  0.26732548404E+03  0.00000000000E+00 0. -1.
         -1   -1    0    0    0  501 -0.00000000000E+00 -0.00000000000E+00 -0.98936436482E+03  0.98936436482E+03  0.00000000000E+00 0.  1.
          6    1    1    2  502    0 -0.47644800444E+03  0.27695998971E+02 -0.26038933137E+03  0.57052727646E+03  0.17300000000E+03 0. -1.
         -6    1    1    2    0  501  0.47644800444E+03 -0.27695998971E+02 -0.46164954941E+03  0.68616257240E+03  0.17300000000E+03 0. -1.
</event>
<event>
 4    1  0.5880538E-001  0.1000000E+03  0.7546771E-02  0.1280296E+00
          2   -1    0    0  502    0  0.00000000000E+00  0.00000000000E+00  0.57307784568E+03  0.57307784568E+03  0.00000000000E+00 0. -1.
         -2   -1    0    0    0  501 -0.00000000000E+00 -0.00000000000E+00 -0.16311979181E+03  0.16311979181E+03  0.00000000000E+00 0.  1.
          6    1    1    2  502    0 -0.72423761120E+02 -0.23049775099E+03  0.29160341909E+03  0.41633636451E+03  0.17300000000E+03 0. -1.
         -6    1    1    2    0  501  0.72423761120E+02  0.23049775099E+03  0.11835463478E+03  0.31986127299E+03  0.17300000000E+03 0. -1.
</event>
<event>
 4    1  0.5880538E-001  0.1000000E+03  0.7546771E-02  0.1280296E+00
          2   -1    0    0  502    0  0.00000000000E+00  0.00000000000E+00  0.27395629221E+04  0.27395629221E+04  0.00000000000E+00 0.  1.
         -2   -1    0    0    0  501 -0.00000000000E+00 -0.00000000000E+00 -0.27505702675E+02  0.27505702675E+02  0.00000000000E+00 0. -1.
          6    1    1    2  502    0 -0.21106722571E+03 -0.25258911626E+02  0.12784019942E+04  0.13074509724E+04  0.17300000000E+03 0.  1.
         -6    1    1    2    0  501  0.21106722571E+03  0.25258911626E+02  0.14336552252E+04  0.14596176524E+04  0.17300000000E+03 0. -1.
</event>
<event>
 4    1  0.5880538E-001  0.1000000E+03  0.7546771E-02  0.1280296E+00
          2   -1    0    0  502    0  0.00000000000E+00  0.00000000000E+00  0.17651809734E+04  0.17651809734E+04  0.00000000000E+00 0. -1.
         -2   -1    0    0    0  501 -0.00000000000E+00 -0.00000000000E+00 -0.33078281791E+02  0.33078281791E+02  0.00000000000E+00 0.  1.
          6    1    1    2  502    0  0.86627324943E+01  0.12487690477E+03  0.12868809176E+04  0.13044772058E+04  0.17300000000E+03 0. -1.
         -6    1    1    2    0  501 -0.86627324943E+01 -0.12487690477E+03  0.44522177398E+03  0.49378204940E+03  0.17300000000E+03 0. -1.
</event>
<event>
 4    1  0.5880538E-001  0.1000000E+03  0.7546771E-02  0.1280296E+00
          2   -1    0    0  502    0  0.00000000000E+00  0.00000000000E+00  0.98369901328E+03  0.98369901328E+03  0.00000000000E+00 0. -1.
         -2   -1    0    0    0  501 -0.00000000000E+00 -0.00000000000E+00 -0.33517226028E+02  0.33517226028E+02  0.00000000000E+00 0.  1.
          6    1    1    2  502    0  0.11372008148E+02 -0.52595649663E+02  0.44121840341E+03  0.47696782327E+03  0.17300000000E+03 0. -1.
         -6    1    1    2    0  501 -0.11372008148E+02  0.52595649663E+02  0.50896338385E+03  0.54024841604E+03  0.17300000000E+03 0. -1.
</event>
<event>
 4    1  0.5880538E-001  0.1000000E+03  0.7546771E-02  0.1280296E+00
         -2   -1    0    0    0  501 -0.00000000000E+00  0.00000000000E+00  0.45275626816E+03  0.45275626816E+03  0.00000000000E+00 0. -1.
          2   -1    0    0  502    0  0.00000000000E+00 -0.00000000000E+00 -0.16633052125E+03  0.16633052125E+03  0.00000000000E+00 0.  1.
          6    1    1    2  502    0 -0.11161189347E+03 -0.17854545111E+03  0.10679287296E+03  0.29269337299E+03  0.17300000000E+03 0.  1.
         -6    1    1    2    0  501  0.11161189347E+03  0.17854545111E+03  0.17963287394E+03  0.32639341641E+03  0.17300000000E+03 0. -1.
</event>
<event>
 4    1  0.5880538E-001  0.1000000E+03  0.7546771E-02  0.1280296E+00
         -2   -1    0    0    0  501 -0.00000000000E+00  0.00000000000E+00  0.34401986819E+02  0.34401986819E+02  0.00000000000E+00 0. -1.
          2   -1    0    0  502    0  0.00000000000E+00 -0.00000000000E+00 -0.92559948910E+03  0.92559948910E+03  0.00000000000E+00 0.  1.
          6    1    1    2  502    0 -0.13806395361E+02  0.69595100254E+01 -0.55566888781E+03  0.58218207136E+03  0.17300000000E+03 0.  1.
         -6    1    1    2    0  501  0.13806395361E+02 -0.69595100254E+01 -0.33552861448E+03  0.37781940456E+03  0.17300000000E+03 0. -1.
</event>
<event>
 4    1  0.5880538E-001  0.1000000E+03  0.7546771E-02  0.1280296E+00
         -1   -1    0    0    0  501 -0.00000000000E+00  0.00000000000E+00  0.41646649624E+03  0.41646649624E+03  0.00000000000E+00 0. -1.
          1   -1    0    0  502    0  0.00000000000E+00 -0.00000000000E+00 -0.99045116878E+02  0.99045116878E+02  0.00000000000E+00 0.  1.
          6    1    1    2  502    0  0.53418288720E+02 -0.79281188055E+02  0.21797933308E+03  0.29424991079E+03  0.17300000000E+03 0.  1.
         -6    1    1    2    0  501 -0.53418288720E+02  0.79281188055E+02  0.99442046285E+02  0.22126170233E+03  0.17300000000E+03 0. -1.
</event>
<event>
 4    1  0.5880538E-001  0.1000000E+03  0.7546771E-02  0.1280296E+00
          1   -1    0    0  502    0  0.00000000000E+00  0.00000000000E+00  0.16381826693E+04  0.16381826693E+04  0.00000000000E+00 0.  1.
         -1   -1    0    0    0  501 -0.00000000000E+00 -0.00000000000E+00 -0.52335608943E+02  0.52335608943E+02  0.00000000000E+00 0. -1.
          6    1    1    2  502    0  0.58368698295E+02 -0.17533720215E+03  0.12177403275E+04  0.12437727062E+04  0.17300000000E+03 0.  1.
         -6    1    1    2    0  501 -0.58368698295E+02  0.17533720215E+03  0.36810673291E+03  0.44674557212E+03  0.17300000000E+03 0. -1.
</event>
<event>
 4    1  0.5880538E-001  0.1000000E+03  0.7546771E-02  0.1280296E+00
          2   -1    0    0  502    0  0.00000000000E+00  0.00000000000E+00  0.11371582135E+04  0.11371582135E+04  0.00000000000E+00 0.  1.
         -2   -1    0    0    0  501 -0.00000000000E+00 -0.00000000000E+00 -0.52823233003E+02  0.52823233003E+02  0.00000000000E+00 0. -1.
          6    1    1    2  502    0 -0.94243465518E+02 -0.14111377219E+03  0.63118161078E+03  0.67610217666E+03  0.17300000000E+03 0.  1.
         -6    1    1    2    0  501  0.94243465518E+02  0.14111377219E+03  0.45315336976E+03  0.51387926989E+03  0.17300000000E+03 0. -1.
</event>
<event>
 4    1  0.5880538E-001  0.1000000E+03  0.7546771E-02  0.1280296E+00
          1   -1    0    0  502    0  0.00000000000E+00  0.00000000000E+00  0.13197945461E+04  0.13197945461E+04  0.00000000000E+00 0.  1.
         -1   -1    0    0    0  501 -0.00000000000E+00 -0.00000000000E+00 -0.32400430610E+02  0.32400430610E+02  0.00000000000E+00 0. -1.
          6    1    1    2  502    0  0.34137063247E+01  0.96938049189E+02  0.45237504222E+03  0.49394414421E+03  0.17300000000E+03 0.  1.
         -6    1    1    2    0  501 -0.34137063247E+01 -0.96938049189E+02  0.83501907328E+03  0.85825083251E+03  0.17300000000E+03 0. -1.
</event>
<event>
 4    1  0.5880538E-001  0.1000000E+03  0.7546771E-02  0.1280296E+00
          2   -1    0    0  502    0  0.00000000000E+00  0.00000000000E+00  0.76225788829E+03  0.76225788829E+03  0.00000000000E+00 0.  1.
         -2   -1    0    0    0  501 -0.00000000000E+00 -0.00000000000E+00 -0.58142567739E+02  0.58142567739E+02  0.00000000000E+00 0. -1.
          6    1    1    2  502    0 -0.99936108230E+02 -0.65530329830E+02  0.37241736434E+03  0.42767410854E+03  0.17300000000E+03 0.  1.
         -6    1    1    2    0  501  0.99936108230E+02  0.65530329830E+02  0.33169795622E+03  0.39272634749E+03  0.17300000000E+03 0. -1.
</event>
<event>
 4    1  0.5880538E-001  0.1000000E+03  0.7546771E-02  0.1280296E+00
         -1   -1    0    0    0  501 -0.00000000000E+00  0.00000000000E+00  0.15755835151E+03  0.15755835151E+03  0.00000000000E+00 0.  1.
          1   -1    0    0  502    0  0.00000000000E+00 -0.00000000000E+00 -0.38710088186E+03  0.38710088186E+03  0.00000000000E+00 0. -1.
          6    1    1    2  502    0  0.15908791191E+03  0.65858193327E+02 -0.73280689962E+02  0.25484372636E+03  0.17300000000E+03 0.  1.
         -6    1    1    2    0  501 -0.15908791191E+03 -0.65858193327E+02 -0.15626184039E+03  0.28981550701E+03  0.17300000000E+03 0. -1.
</event>
<event>
 4    1  0.5880538E-001  0.1000000E+03  0.7546771E-02  0.1280296E+00
         -1   -1    0    0    0  501 -0.00000000000E+00  0.00000000000E+00  0.60400674682E+03  0.60400674682E+03  0.00000000000E+00 0.  1.
          1   -1    0    0  502    0  0.00000000000E+00 -0.00000000000E+00 -0.12566425570E+03  0.12566425570E+03  0.00000000000E+00 0. -1.
          6    1    1    2  502    0  0.16105683478E+03 -0.46957672544E+01  0.51839081227E+02  0.24202818968E+03  0.17300000000E+03 0.  1.
         -6    1    1    2    0  501 -0.16105683478E+03  0.46957672544E+01  0.42650340990E+03  0.48764281284E+03  0.17300000000E+03 0. -1.
</event>
<event>
 4    1  0.5880538E-001  0.1000000E+03  0.7546771E-02  0.1280296E+00
         -1   -1    0    0    0  501 -0.00000000000E+00  0.00000000000E+00  0.19009652641E+03  0.19009652641E+03  0.00000000000E+00 0.  1.
          1   -1    0    0  502    0  0.00000000000E+00 -0.00000000000E+00 -0.67406422817E+03  0.67406422817E+03  0.00000000000E+00 0. -1.
          6    1    1    2  502    0  0.20648223359E+03 -0.62984200327E+01 -0.52643327633E+03  0.59138445813E+03  0.17300000000E+03 0. -1.
         -6    1    1    2    0  501 -0.20648223359E+03  0.62984200327E+01  0.42465574569E+02  0.27277629645E+03  0.17300000000E+03 0.  1.
</event>
<event>
 4    1  0.5880538E-001  0.1000000E+03  0.7546771E-02  0.1280296E+00
         -2   -1    0    0    0  501 -0.00000000000E+00  0.00000000000E+00  0.41421385476E+02  0.41421385476E+02  0.00000000000E+00 0.  1.
          2   -1    0    0  502    0  0.00000000000E+00 -0.00000000000E+00 -0.26987776582E+04  0.26987776582E+04  0.00000000000E+00 0. -1.
          6    1    1    2  502    0 -0.93012831303E+02  0.26961401849E+03 -0.14216735494E+04  0.14602834611E+04  0.17300000000E+03 0. -1.
         -6    1    1    2    0  501  0.93012831303E+02 -0.26961401849E+03 -0.12356827234E+04  0.12799155826E+04  0.17300000000E+03 0.  1.
</event>
<event>
 4    1  0.5880538E-001  0.1000000E+03  0.7546771E-02  0.1280296E+00
         -2   -1    0    0    0  501 -0.00000000000E+00  0.00000000000E+00  0.41355993729E+03  0.41355993729E+03  0.00000000000E+00 0.  1.
          2   -1    0    0  502    0  0.00000000000E+00 -0.00000000000E+00 -0.20506156887E+03  0.20506156887E+03  0.00000000000E+00 0. -1.
          6    1    1    2  502    0  0.15142798234E+03 -0.10574845188E+03  0.25729784916E+03  0.36089382385E+03  0.17300000000E+03 0.  1.
         -6    1    1    2    0  501 -0.15142798234E+03  0.10574845188E+03 -0.48799480742E+02  0.25772768231E+03  0.17300000000E+03 0. -1.
</event>
<event>
 4    1  0.5880538E-001  0.1000000E+03  0.7546771E-02  0.1280296E+00
          1   -1    0    0  502    0  0.00000000000E+00  0.00000000000E+00  0.27924544701E+03  0.27924544701E+03  0.00000000000E+00 0. -1.
         -1   -1    0    0    0  501 -0.00000000000E+00 -0.00000000000E+00 -0.14448561271E+03  0.14448561271E+03  0.00000000000E+00 0.  1.
          6    1    1    2  502    0  0.13761099285E+02  0.10009998304E+03  0.82612941180E+02  0.21671011169E+03  0.17300000000E+03 0.  1.
         -6    1    1    2    0  501 -0.13761099285E+02 -0.10009998304E+03  0.52146893118E+02  0.20702094802E+03  0.17300000000E+03 0. -1.
</event>
<event>
 4    1  0.5880538E-001  0.1000000E+03  0.7546771E-02  0.1280296E+00
          2   -1    0    0  502    0  0.00000000000E+00  0.00000000000E+00  0.21922193593E+04  0.21922193593E+04  0.00000000000E+00 0. -1.
         -2   -1    0    0    0  501 -0.00000000000E+00 -0.00000000000E+00 -0.21335427957E+02  0.21335427957E+02  0.00000000000E+00 0.  1.
          6    1    1    2  502    0 -0.23779129779E+02  0.43477091908E+02  0.47160046776E+03  0.50476896272E+03  0.17300000000E+03 0.  1.
         -6    1    1    2    0  501  0.23779129779E+02 -0.43477091908E+02  0.16992834636E+04  0.17087858245E+04  0.17300000000E+03 0. -1.
</event>
<event>
 4    1  0.5880538E-001  0.1000000E+03  0.7546771E-02  0.1280296E+00
         -2   -1    0    0    0  501 -0.00000000000E+00  0.00000000000E+00  0.14754814471E+02  0.14754814471E+02  0.00000000000E+00 0. -1.
          2   -1    0    0  502    0  0.00000000000E+00 -0.00000000000E+00 -0.32453637483E+04  0.32453637483E+04  0.00000000000E+00 0.  1.
          6    1    1    2  502    0 -0.11559223337E+03 -0.67070350207E+02 -0.15424158106E+04  0.15578303916E+04  0.17300000000E+03 0.  1.
         -6    1    1    2    0  501  0.11559223337E+03  0.67070350207E+02 -0.16881931232E+04  0.17022881711E+04  0.17300000000E+03 0. -1.
</event>
<event>
 4    1  0.5880538E-001  0.1000000E+03  0.7546771E-02  0.1280296E+00
         -2   -1    0    0    0  501 -0.00000000000E+00  0.00000000000E+00  0.20411087343E+02  0.20411087343E+02  0.00000000000E+00 0. -1.
          2   -1    0    0  502    0  0.00000000000E+00 -0.00000000000E+00 -0.16267211428E+04  0.16267211428E+04  0.00000000000E+00 0.  1.
          6    1    1    2  502    0 -0.49336388730E+02 -0.26740647985E+02 -0.85368789725E+03  0.87284658870E+03  0.17300000000E+03 0.  1.
         -6    1    1    2    0  501  0.49336388730E+02  0.26740647985E+02 -0.75262215818E+03  0.77428564141E+03  0.17300000000E+03 0. -1.
</event>
<event>
 4    1  0.5880538E-001  0.1000000E+03  0.7546771E-02  0.1280296E+00
         -1   -1    0    0    0  501 -0.00000000000E+00  0.00000000000E+00  0.33073048724E+02  0.33073048724E+02  0.00000000000E+00 0. -1.
          1   -1    0    0  502    0  0.00000000000E+00 -0.00000000000E+00 -0.12208484627E+04  0.12208484627E+04  0.00000000000E+00 0.  1.
          6    1    1    2  502    0 -0.83944147769E+01  0.10172530212E+03 -0.57689019726E+03  0.61085988818E+03  0.17300000000E+03 0.  1.
         -6    1    1    2    0  501  0.83944147769E+01 -0.10172530212E+03 -0.61088521675E+03  0.64306162328E+03  0.17300000000E+03 0.  1.
</event>
<event>
 4    1  0.5880538E-001  0.1000000E+03  0.7546771E-02  0.1280296E+00
         -1   -1    0    0    0  501 -0.00000000000E+00  0.00000000000E+00  0.46897611108E+02  0.46897611108E+02  0.00000000000E+00 0. -1.
          1   -1    0    0  502    0  0.00000000000E+00 -0.00000000000E+00 -0.17592016428E+04  0.17592016428E+04  0.00000000000E+00 0.  1.
          6    1    1    2  502    0  0.19625721042E+03 -0.84566251883E+02 -0.11174046214E+04  0.11507347355E+04  0.17300000000E+03 0.  1.
         -6    1    1    2    0  501 -0.19625721042E+03  0.84566251883E+02 -0.59489941025E+03  0.65536451835E+03  0.17300000000E+03 0.  1.
</event>
<event>
 4    1  0.5880538E-001  0.1000000E+03  0.7546771E-02  0.1280296E+00
          1   -1    0    0  502    0  0.00000000000E+00  0.00000000000E+00  0.45405043609E+03  0.45405043609E+03  0.00000000000E+00 0. -1.
         -1   -1    0    0    0  501 -0.00000000000E+00 -0.00000000000E+00 -0.13960690993E+03  0.13960690993E+03  0.00000000000E+00 0.  1.
          6    1    1    2  502    0 -0.34435505662E+01  0.15784128450E+03  0.26613303422E+03  0.35451589673E+03  0.17300000000E+03 0.  1.
         -6    1    1    2    0  501  0.34435505662E+01 -0.15784128450E+03  0.48310491941E+02  0.23914144928E+03  0.17300000000E+03 0. -1.
</event>
<event>
 4    1  0.5880538E-001  0.1000000E+03  0.7546771E-02  0.1280296E+00
          1   -1    0    0  502    0  0.00000000000E+00  0.00000000000E+00  0.16873275117E+03  0.16873275117E+03  0.00000000000E+00 0.  1.
         -1   -1    0    0    0  501 -0.00000000000E+00 -0.00000000000E+00 -0.30450127726E+03  0.30450127726E+03  0.00000000000E+00 0. -1.
          6    1    1    2  502    0 -0.12145573929E+03 -0.56852403651E+02 -0.64222961712E+01  0.21898387680E+03  0.17300000000E+03 0.  1.
         -6    1    1    2    0  501  0.12145573929E+03  0.56852403651E+02 -0.12934622992E+03  0.25425015163E+03  0.17300000000E+03 0. -1.
</event>
<event>
 4    1  0.5880538E-001  0.1000000E+03  0.7546771E-02  0.1280296E+00
          1   -1    0    0  502    0  0.00000000000E+00  0.00000000000E+00  0.80911668209E+03  0.80911668209E+03  0.00000000000E+00 0.  1.
         -1   -1    0    0    0  501 -0.00000000000E+00 -0.00000000000E+00 -0.38957921664E+02  0.38957921664E+02  0.00000000000E+00 0. -1.
          6    1    1    2  502    0 -0.35828854218E+01 -0.18156850805E+02  0.30063808043E+03  0.34735394586E+03  0.17300000000E+03 0.  1.
         -6    1    1    2    0  501  0.35828854218E+01  0.18156850805E+02  0.46952067999E+03  0.50072065789E+03  0.17300000000E+03 0. -1.
</event>
<event>
 4    1  0.5880538E-001  0.1000000E+03  0.7546771E-02  0.1280296E+00
         -2   -1    0    0    0  501 -0.00000000000E+00  0.00000000000E+00  0.34774820499E+02  0.34774820499E+02  0.00000000000E+00 0.  1.
          2   -1    0    0  502    0  0.00000000000E+00 -0.00000000000E+00 -0.14339446814E+04  0.14339446814E+04  0.00000000000E+00 0. -1.
          6    1    1    2  502    0 -0.20591689242E+02  0.56588218604E+02 -0.11195722685E+04  0.11344590378E+04  0.17300000000E+03 0. -1.
         -6    1    1    2    0  501  0.20591689242E+02 -0.56588218604E+02 -0.27959759237E+03  0.33426046403E+03  0.17300000000E+03 0.  1.
</event>
<event>
 4    1  0.5880538E-001  0.1000000E+03  0.7546771E-02  0.1280296E+00
         -2   -1    0    0    0  501 -0.00000000000E+00  0.00000000000E+00  0.81972321254E+02  0.81972321254E+02  0.00000000000E+00 0.  1.
          2   -1    0    0  502    0  0.00000000000E+00 -0.00000000000E+00 -0.13621924303E+04  0.13621924303E+04  0.00000000000E+00 0. -1.
          6    1    1    2  502    0  0.25017852782E+03 -0.97883292997E+02 -0.42879870888E+03  0.53475954182E+03  0.17300000000E+03 0. -1.
         -6    1    1    2    0  501 -0.25017852782E+03  0.97883292997E+02 -0.85142140018E+03  0.90940520975E+03  0.17300000000E+03 0.  1.
</event>
<event>
 4    1  0.5880538E-001  0.1000000E+03  0.7546771E-02  0.1280296E+00
         -1   -1    0    0    0  501 -0.00000000000E+00  0.00000000000E+00  0.21809165611E+02  0.21809165611E+02  0.00000000000E+00 0.  1.
          1   -1    0    0  502    0  0.00000000000E+00 -0.00000000000E+00 -0.24813842534E+04  0.24813842534E+04  0.00000000000E+00 0. -1.
          6    1    1    2  502    0 -0.22220091132E+02  0.13708971166E+03 -0.85315101051E+03  0.88152309568E+03  0.17300000000E+03 0. -1.
         -6    1    1    2    0  501  0.22220091132E+02 -0.13708971166E+03 -0.16064240773E+04  0.16216703233E+04  0.17300000000E+03 0.  1.
</event>
<event>
 4    1  0.5880538E-001  0.1000000E+03  0.7546771E-02  0.1280296E+00
         -1   -1    0    0    0  501 -0.00000000000E+00  0.00000000000E+00  0.53106367619E+03  0.53106367619E+03  0.00000000000E+00 0.  1.
          1   -1    0    0  502    0  0.00000000000E+00 -0.00000000000E+00 -0.70737622212E+02  0.70737622212E+02  0.00000000000E+00 0. -1.
          6    1    1    2  502    0 -0.78985520570E+02  0.31829300297E+02  0.26063921637E+03  0.32421230379E+03  0.17300000000E+03 0.  1.
         -6    1    1    2    0  501  0.78985520570E+02 -0.31829300297E+02  0.19968683760E+03  0.27758899461E+03  0.17300000000E+03 0. -1.
</event>
<event>
 4    1  0.5880538E-001  0.1000000E+03  0.7546771E-02  0.1280296E+00
         -3   -1    0    0    0  501 -0.00000000000E+00  0.00000000000E+00  0.30661208581E+03  0.30661208581E+03  0.00000000000E+00 0.  1.
          3   -1    0    0  502    0  0.00000000000E+00 -0.00000000000E+00 -0.12854045257E+03  0.12854045257E+03  0.00000000000E+00 0. -1.
          6    1    1    2  502    0 -0.66886013203E+02 -0.45301295561E+02  0.29437948062E+02  0.19318783328E+03  0.17300000000E+03 0.  1.
         -6    1    1    2    0  501  0.66886013203E+02  0.45301295561E+02  0.14863368518E+03  0.24196470509E+03  0.17300000000E+03 0. -1.
</event>
<event>
 4    1  0.5880538E-001  0.1000000E+03  0.7546771E-02  0.1280296E+00
          2   -1    0    0  502    0  0.00000000000E+00  0.00000000000E+00  0.10028101241E+04  0.10028101241E+04  0.00000000000E+00 0. -1.
         -2   -1    0    0    0  501 -0.00000000000E+00 -0.00000000000E+00 -0.81551120470E+02  0.81551120470E+02  0.00000000000E+00 0.  1.
          6    1    1    2  502    0 -0.17344168992E+03  0.12749173425E+03  0.60142780943E+03  0.66180100639E+03  0.17300000000E+03 0. -1.
         -6    1    1    2    0  501  0.17344168992E+03 -0.12749173425E+03  0.31983119419E+03  0.42256023817E+03  0.17300000000E+03 0.  1.
</event>
<event>
 4    1  0.5880538E-001  0.1000000E+03  0.7546771E-02  0.1280296E+00
          2   -1    0    0  502    0  0.00000000000E+00  0.00000000000E+00  0.19012848704E+03  0.19012848704E+03  0.00000000000E+00 0. -1.
         -2   -1    0    0    0  501 -0.00000000000E+00 -0.00000000000E+00 -0.16760466263E+03  0.16760466263E+03  0.00000000000E+00 0.  1.
          6    1    1    2  502    0 -0.10720544051E+02  0.29272863419E+02 -0.19873814028E+02  0.17690618723E+03  0.17300000000E+03 0. -1.
         -6    1    1    2    0  501  0.10720544051E+02 -0.29272863419E+02  0.42397638442E+02  0.18082696243E+03  0.17300000000E+03 0.  1.
</event>
<event>
 4    1  0.5880538E-001  0.1000000E+03  0.7546771E-02  0.1280296E+00
          1   -1    0    0  502    0  0.00000000000E+00  0.00000000000E+00  0.14985437777E+03  0.14985437777E+03  0.00000000000E+00 0. -1.
         -1   -1    0    0    0  501 -0.00000000000E+00 -0.00000000000E+00 -0.47784506293E+03  0.47784506293E+03  0.00000000000E+00 0.  1.
          6    1    1    2  502    0  0.17047161829E+03 -0.10737872878E+03 -0.20267122634E+03  0.33405896189E+03  0.17300000000E+03 0. -1.
         -6    1    1    2    0  501 -0.17047161829E+03  0.10737872878E+03 -0.12531945883E+03  0.29364047881E+03  0.17300000000E+03 0.  1.
</event>
<event>
 4    1  0.5880538E-001  0.1000000E+03  0.7546771E-02  0.1280296E+00
          1   -1    0    0  502    0  0.00000000000E+00  0.00000000000E+00  0.17718339645E+04  0.17718339645E+04  0.00000000000E+00 0. -1.
         -1   -1    0    0    0  501 -0.00000000000E+00 -0.00000000000E+00 -0.18327973382E+02  0.18327973382E+02  0.00000000000E+00 0.  1.
          6    1    1    2  502    0  0.47075122831E+01  0.19168157185E+02  0.11073599070E+04  0.11209658972E+04  0.17300000000E+03 0. -1.
         -6    1    1    2    0  501 -0.47075122831E+01 -0.19168157185E+02  0.64614608408E+03  0.66919604070E+03  0.17300000000E+03 0.  1.
</event>
<event>
 4    1  0.5880538E-001  0.1000000E+03  0.7546771E-02  0.1280296E+00
         -1   -1    0    0    0  501 -0.00000000000E+00  0.00000000000E+00  0.15370483768E+02  0.15370483768E+02  0.00000000000E+00 0. -1.
          1   -1    0    0  502    0  0.00000000000E+00 -0.00000000000E+00 -0.29316828587E+04  0.29316828587E+04  0.00000000000E+00 0.  1.
          6    1    1    2  502    0 -0.59761816922E+02  0.10092935488E+03 -0.12008343413E+04  0.12188889715E+04  0.17300000000E+03 0.  1.
         -6    1    1    2    0  501  0.59761816922E+02 -0.10092935488E+03 -0.17154780335E+04  0.17281643709E+04  0.17300000000E+03 0. -1.
</event>
<event>
 4    1  0.5880538E-001  0.1000000E+03  0.7546771E-02  0.1280296E+00
         -1   -1    0    0    0  501 -0.00000000000E+00  0.00000000000E+00  0.24872664860E+03  0.24872664860E+03  0.00000000000E+00 0. -1.
          1   -1    0    0  502    0  0.00000000000E+00 -0.00000000000E+00 -0.13170188801E+04  0.13170188801E+04  0.00000000000E+00 0.  1.
          6    1    1    2  502    0 -0.89047393186E+01  0.52530577406E+03 -0.73528425346E+03  0.92010726768E+03  0.17300000000E+03 0.  1.
         -6    1    1    2    0  501  0.89047393186E+01 -0.52530577406E+03 -0.33300797801E+03  0.64563826100E+03  0.17300000000E+03 0. -1.
</event>
<event>
 4    1  0.5880538E-001  0.1000000E+03  0.7546771E-02  0.1280296E+00
         -2   -1    0    0    0  501 -0.00000000000E+00  0.00000000000E+00  0.11748637371E+03  0.11748637371E+03  0.00000000000E+00 0.  1.
          2   -1    0    0  502    0  0.00000000000E+00 -0.00000000000E+00 -0.55429274024E+03  0.55429274024E+03  0.00000000000E+00 0. -1.
          6    1    1    2  502    0 -0.18381687597E+03  0.28922778424E+02 -0.24976363315E+03  0.35628084912E+03  0.17300000000E+03 0.  1.
         -6    1    1    2    0  501  0.18381687597E+03 -0.28922778424E+02 -0.18704273339E+03  0.31549826484E+03  0.17300000000E+03 0. -1.
</event>
<event>
 4    1  0.5880538E-001  0.1000000E+03  0.7546771E-02  0.1280296E+00
         -1   -1    0    0    0  501 -0.00000000000E+00  0.00000000000E+00  0.41850456750E+02  0.41850456750E+02  0.00000000000E+00 0.  1.
          1   -1    0    0  502    0  0.00000000000E+00 -0.00000000000E+00 -0.86273123302E+03  0.86273123302E+03  0.00000000000E+00 0. -1.
          6    1    1    2  502    0 -0.50738763055E+02  0.57962293615E+02 -0.44751845113E+03  0.48593807595E+03  0.17300000000E+03 0. -1.
         -6    1    1    2    0  501  0.50738763055E+02 -0.57962293615E+02 -0.37336232514E+03  0.41864361382E+03  0.17300000000E+03 0. -1.
</event>
<event>
 4    1  0.5880538E-001  0.1000000E+03  0.7546771E-02  0.1280296E+00
         -2   -1    0    0    0  501 -0.00000000000E+00  0.00000000000E+00  0.45304796529E+02  0.45304796529E+02  0.00000000000E+00 0.  1.
          2   -1    0    0  502    0  0.00000000000E+00 -0.00000000000E+00 -0.11495249054E+04  0.11495249054E+04  0.00000000000E+00 0. -1.
          6    1    1    2  502    0 -0.44487496082E+01  0.91556303216E+02 -0.85905385561E+03  0.88108165052E+03  0.17300000000E+03 0. -1.
         -6    1    1    2    0  501  0.44487496082E+01 -0.91556303216E+02 -0.24516625327E+03  0.31374805143E+03  0.17300000000E+03 0.  1.
</event>
<event>
 4    1  0.5880538E-001  0.1000000E+03  0.7546771E-02  0.1280296E+00
         -2   -1    0    0    0  501 -0.00000000000E+00  0.00000000000E+00  0.16000838174E+03  0.16000838174E+03  0.00000000000E+00 0.  1.
          2   -1    0    0  502    0  0.00000000000E+00 -0.00000000000E+00 -0.20962599710E+04  0.20962599710E+04  0.00000000000E+00 0. -1.
          6    1    1    2  502    0  0.31783533935E+03 -0.21732503846E+03 -0.17405382886E+04  0.17909919066E+04  0.17300000000E+03 0. -1.
         -6    1    1    2    0  501 -0.31783533935E+03  0.21732503846E+03 -0.19571330059E+03  0.46527644611E+03  0.17300000000E+03 0.  1.
</event>
<event>
 4    1  0.5880538E-001  0.1000000E+03  0.7546771E-02  0.1280296E+00
         -2   -1    0    0    0  501 -0.00000000000E+00  0.00000000000E+00  0.10581062942E+03  0.10581062942E+03  0.00000000000E+00 0.  1.
          2   -1    0    0  502    0  0.00000000000E+00 -0.00000000000E+00 -0.46261181104E+03  0.46261181104E+03  0.00000000000E+00 0. -1.
          6    1    1    2  502    0  0.10545673877E+03 -0.26402765404E+02 -0.69383324625E+02  0.21578061894E+03  0.17300000000E+03 0. -1.
         -6    1    1    2    0  501 -0.10545673877E+03  0.26402765404E+02 -0.28741785699E+03  0.35264182153E+03  0.17300000000E+03 0. -1.
</event>
<event>
 4    1  0.5880538E-001  0.1000000E+03  0.7546771E-02  0.1280296E+00
         -2   -1    0    0    0  501 -0.00000000000E+00  0.00000000000E+00  0.37196684863E+02  0.37196684863E+02  0.00000000000E+00 0.  1.
          2   -1    0    0  502    0  0.00000000000E+00 -0.00000000000E+00 -0.10140030537E+04  0.10140030537E+04  0.00000000000E+00 0. -1.
          6    1    1    2  502    0 -0.14154838606E+02  0.23161099447E+02 -0.26113840302E+03  0.31441860873E+03  0.17300000000E+03 0. -1.
         -6    1    1    2    0  501  0.14154838606E+02 -0.23161099447E+02 -0.71566796582E+03  0.73678112983E+03  0.17300000000E+03 0. -1.
</event>
<event>
 4    1  0.5880538E-001  0.1000000E+03  0.7546771E-02  0.1280296E+00
          1   -1    0    0  502    0  0.00000000000E+00  0.00000000000E+00  0.38045723941E+03  0.38045723941E+03  0.00000000000E+00 0.  1.
         -1   -1    0    0    0  501 -0.00000000000E+00 -0.00000000000E+00 -0.28822215731E+03  0.28822215731E+03  0.00000000000E+00 0. -1.
          6    1    1    2  502    0  0.20729876349E+03 -0.18303725539E+03 -0.11457296845E+02  0.32639804512E+03  0.17300000000E+03 0. -1.
         -6    1    1    2    0  501 -0.20729876349E+03  0.18303725539E+03  0.10369237895E+03  0.34228135161E+03  0.17300000000E+03 0. -1.
</event>
<event>
 4    1  0.5880538E-001  0.1000000E+03  0.7546771E-02  0.1280296E+00
          2   -1    0    0  502    0  0.00000000000E+00  0.00000000000E+00  0.65729260190E+03  0.65729260190E+03  0.00000000000E+00 0.  1.
         -2   -1    0    0    0  501 -0.00000000000E+00 -0.00000000000E+00 -0.12707307936E+03  0.12707307936E+03  0.00000000000E+00 0. -1.
          6    1    1    2  502    0 -0.77019974988E+02  0.20842333983E+03  0.35329263124E+03  0.45179314782E+03  0.17300000000E+03 0. -1.
         -6    1    1    2    0  501  0.77019974988E+02 -0.20842333983E+03  0.17692689131E+03  0.33257253344E+03  0.17300000000E+03 0. -1.
</event>
<event>
 4    1  0.5880538E-001  0.1000000E+03  0.7546771E-02  0.1280296E+00
          1   -1    0    0  502    0  0.00000000000E+00  0.00000000000E+00  0.16279508847E+04  0.16279508847E+04  0.00000000000E+00 0.  1.
         -1   -1    0    0    0  501 -0.00000000000E+00 -0.00000000000E+00 -0.44848936587E+02  0.44848936587E+02  0.00000000000E+00 0. -1.
          6    1    1    2  502    0  0.16461639740E+03  0.11440786803E+03  0.95810402649E+03  0.99402215475E+03  0.17300000000E+03 0. -1.
         -6    1    1    2    0  501 -0.16461639740E+03 -0.11440786803E+03  0.62499792166E+03  0.67877766657E+03  0.17300000000E+03 0.  1.
</event>
<event>
 4    1  0.5880538E-001  0.1000000E+03  0.7546771E-02  0.1280296E+00
          2   -1    0    0  502    0  0.00000000000E+00  0.00000000000E+00  0.33218894166E+04  0.33218894166E+04  0.00000000000E+00 0.  1.
         -2   -1    0    0    0  501 -0.00000000000E+00 -0.00000000000E+00 -0.98522684556E+01  0.98522684556E+01  0.00000000000E+00 0. -1.
          6    1    1    2  502    0 -0.43000739852E+02  0.97057991038E+01  0.13866250824E+04  0.13980705938E+04  0.17300000000E+03 0. -1.
         -6    1    1    2    0  501  0.43000739852E+02 -0.97057991038E+01  0.19254120657E+04  0.19336710912E+04  0.17300000000E+03 0.  1.
</event>
<event>
 4    1  0.5880538E-001  0.1000000E+03  0.7546771E-02  0.1280296E+00
          2   -1    0    0  502    0  0.00000000000E+00  0.00000000000E+00  0.11705546496E+03  0.11705546496E+03  0.00000000000E+00 0. -1.
         -2   -1    0    0    0  501 -0.00000000000E+00 -0.00000000000E+00 -0.71837486934E+03  0.71837486934E+03  0.00000000000E+00 0.  1.
          6    1    1    2  502    0  0.18434027094E+03  0.23707472103E+02 -0.98902651239E+02  0.27249608097E+03  0.17300000000E+03 0.  1.
         -6    1    1    2    0  501 -0.18434027094E+03 -0.23707472103E+02 -0.50241675315E+03  0.56293425332E+03  0.17300000000E+03 0. -1.
</event>
<event>
 4    1  0.5880538E-001  0.1000000E+03  0.7546771E-02  0.1280296E+00
          2   -1    0    0  502    0  0.00000000000E+00  0.00000000000E+00  0.17026414010E+04  0.17026414010E+04  0.00000000000E+00 0. -1.
         -2   -1    0    0    0  501 -0.00000000000E+00 -0.00000000000E+00 -0.66750132934E+03  0.66750132934E+03  0.00000000000E+00 0.  1.
          6    1    1    2  502    0 -0.30022293643E+03 -0.98342674422E+03  0.27068892593E+03  0.10772480993E+04  0.17300000000E+03 0. -1.
         -6    1    1    2    0  501  0.30022293643E+03  0.98342674422E+03  0.76445114573E+03  0.12928946311E+04  0.17300000000E+03 0.  1.
</event>
<event>
 4    1  0.5880538E-001  0.1000000E+03  0.7546771E-02  0.1280296E+00
          2   -1    0    0  502    0  0.00000000000E+00  0.00000000000E+00  0.88062842899E+02  0.88062842899E+02  0.00000000000E+00 0. -1.
         -2   -1    0    0    0  501 -0.00000000000E+00 -0.00000000000E+00 -0.45132339257E+03  0.45132339257E+03  0.00000000000E+00 0.  1.
          6    1    1    2  502    0 -0.28735462778E+02  0.20974739026E+02 -0.56542008689E+02  0.18544989955E+03  0.17300000000E+03 0.  1.
         -6    1    1    2    0  501  0.28735462778E+02 -0.20974739026E+02 -0.30671854098E+03  0.35393633591E+03  0.17300000000E+03 0. -1.
</event>
<event>
 4    1  0.5880538E-001  0.1000000E+03  0.7546771E-02  0.1280296E+00
          2   -1    0    0  502    0  0.00000000000E+00  0.00000000000E+00  0.12591379710E+04  0.12591379710E+04  0.00000000000E+00 0. -1.
         -2   -1    0    0    0  501 -0.00000000000E+00 -0.00000000000E+00 -0.37951811334E+02  0.37951811334E+02  0.00000000000E+00 0.  1.
          6    1    1    2  502    0 -0.60062720820E+02  0.55915664480E+02  0.92349437775E+03  0.94313570481E+03  0.17300000000E+03 0.  1.
         -6    1    1    2    0  501  0.60062720820E+02 -0.55915664480E+02  0.29769178189E+03  0.35395407749E+03  0.17300000000E+03 0. -1.
</event>
<event>
 4    1  0.5880538E-001  0.1000000E+03  0.7546771E-02  0.1280296E+00
          1   -1    0    0  502    0  0.00000000000E+00  0.00000000000E+00  0.21375138053E+03  0.21375138053E+03  0.00000000000E+00 0. -1.
         -1   -1    0    0    0  501 -0.00000000000E+00 -0.00000000000E+00 -0.26211397182E+03  0.26211397182E+03  0.00000000000E+00 0.  1.
          6    1    1    2  502    0 -0.15462101922E+03  0.39845342321E+02  0.50077915060E+00  0.23542421640E+03  0.17300000000E+03 0.  1.
         -6    1    1    2    0  501  0.15462101922E+03 -0.39845342321E+02 -0.48863370442E+02  0.24044113596E+03  0.17300000000E+03 0. -1.
</event>
<event>
 4    1  0.5880538E-001  0.1000000E+03  0.7546771E-02  0.1280296E+00
          2   -1    0    0  502    0  0.00000000000E+00  0.00000000000E+00  0.15060511763E+03  0.15060511763E+03  0.00000000000E+00 0. -1.
         -2   -1    0    0    0  501 -0.00000000000E+00 -0.00000000000E+00 -0.22589376685E+03  0.22589376685E+03  0.00000000000E+00 0.  1.
          6    1    1    2  502    0  0.63153489283E+02  0.94571261643E+01 -0.33831419892E+02  0.18748697399E+03  0.17300000000E+03 0.  1.
         -6    1    1    2    0  501 -0.63153489283E+02 -0.94571261643E+01 -0.41457229322E+02  0.18901191049E+03  0.17300000000E+03 0. -1.
</event>
<event>
 4    1  0.5880538E-001  0.1000000E+03  0.7546771E-02  0.1280296E+00
         -2   -1    0    0    0  501 -0.00000000000E+00  0.00000000000E+00  0.32918350376E+02  0.32918350376E+02  0.00000000000E+00 0. -1.
          2   -1    0    0  502    0  0.00000000000E+00 -0.00000000000E+00 -0.13795882652E+04  0.13795882652E+04  0.00000000000E+00 0.  1.
          6    1    1    2  502    0  0.48307476034E+02  0.11427114489E+03 -0.70534023699E+03  0.73676682655E+03  0.17300000000E+03 0.  1.
         -6    1    1    2    0  501 -0.48307476034E+02 -0.11427114489E+03 -0.64132967782E+03  0.67573978900E+03  0.17300000000E+03 0. -1.
</event>
<event>
 4    1  0.5880538E-001  0.1000000E+03  0.7546771E-02  0.1280296E+00
         -2   -1    0    0    0  501 -0.00000000000E+00  0.00000000000E+00  0.19976633965E+02  0.19976633965E+02  0.00000000000E+00 0. -1.
          2   -1    0    0  502    0  0.00000000000E+00 -0.00000000000E+00 -0.17590830536E+04  0.17590830536E+04  0.00000000000E+00 0.  1.
          6    1    1    2  502    0 -0.67268399997E+01  0.67311751414E+02 -0.74993642906E+03  0.77259935923E+03  0.17300000000E+03 0.  1.
         -6    1    1    2    0  501  0.67268399997E+01 -0.67311751414E+02 -0.98916999063E+03  0.10064603284E+04  0.17300000000E+03 0. -1.
</event>
<event>
 4    1  0.5880538E-001  0.1000000E+03  0.7546771E-02  0.1280296E+00
         -2   -1    0    0    0  501 -0.00000000000E+00  0.00000000000E+00  0.60381482922E+02  0.60381482922E+02  0.00000000000E+00 0. -1.
          2   -1    0    0  502    0  0.00000000000E+00 -0.00000000000E+00 -0.51998177647E+03  0.51998177647E+03  0.00000000000E+00 0.  1.
          6    1    1    2  502    0 -0.37446517650E+02  0.46570920899E+01 -0.24070511931E+03  0.29881747716E+03  0.17300000000E+03 0.  1.
         -6    1    1    2    0  501  0.37446517650E+02 -0.46570920899E+01 -0.21889517424E+03  0.28154578224E+03  0.17300000000E+03 0. -1.
</event>
<event>
 4    1  0.5880538E-001  0.1000000E+03  0.7546771E-02  0.1280296E+00
          1   -1    0    0  502    0  0.00000000000E+00  0.00000000000E+00  0.11417862696E+03  0.11417862696E+03  0.00000000000E+00 0.  1.
         -1   -1    0    0    0  501 -0.00000000000E+00 -0.00000000000E+00 -0.57055095068E+03  0.57055095068E+03  0.00000000000E+00 0. -1.
          6    1    1    2  502    0 -0.10572031613E+03  0.89268639315E+02 -0.58143432394E+02  0.22903129467E+03  0.17300000000E+03 0.  1.
         -6    1    1    2    0  501  0.10572031613E+03 -0.89268639315E+02 -0.39822889133E+03  0.45569828296E+03  0.17300000000E+03 0. -1.
</event>
<event>
 4    1  0.5880538E-001  0.1000000E+03  0.7546771E-02  0.1280296E+00
          1   -1    0    0  502    0  0.00000000000E+00  0.00000000000E+00  0.83691026845E+02  0.83691026845E+02  0.00000000000E+00 0.  1.
         -1   -1    0    0    0  501 -0.00000000000E+00 -0.00000000000E+00 -0.60778957925E+03  0.60778957925E+03  0.00000000000E+00 0. -1.
          6    1    1    2  502    0  0.87267566448E+02 -0.13989230809E+02 -0.86417309727E+02  0.21262238394E+03  0.17300000000E+03 0.  1.
         -6    1    1    2    0  501 -0.87267566448E+02  0.13989230809E+02 -0.43768124268E+03  0.47885822216E+03  0.17300000000E+03 0. -1.
</event>
<event>
 4    1  0.5880538E-001  0.1000000E+03  0.7546771E-02  0.1280296E+00
         -1   -1    0    0    0  501 -0.00000000000E+00  0.00000000000E+00  0.24454519348E+03  0.24454519348E+03  0.00000000000E+00 0. -1.
          1   -1    0    0  502    0  0.00000000000E+00 -0.00000000000E+00 -0.20299285304E+03  0.20299285304E+03  0.00000000000E+00 0.  1.
          6    1    1    2  502    0  0.10830397551E+03 -0.20471149942E+02 -0.66567243432E+02  0.21565949316E+03  0.17300000000E+03 0. -1.
         -6    1    1    2    0  501 -0.10830397551E+03  0.20471149942E+02  0.10811958387E+03  0.23187855336E+03  0.17300000000E+03 0.  1.
</event>
<event>
 4    1  0.5880538E-001  0.1000000E+03  0.7546771E-02  0.1280296E+00
         -2   -1    0    0    0  501 -0.00000000000E+00  0.00000000000E+00  0.16425844818E+03  0.16425844818E+03  0.00000000000E+00 0.  1.
          2   -1    0    0  502    0  0.00000000000E+00 -0.00000000000E+00 -0.83866532995E+03  0.83866532995E+03  0.00000000000E+00 0. -1.
          6    1    1    2  502    0  0.22295816311E+03 -0.15096543705E+03 -0.83258824971E+02  0.33069916482E+03  0.17300000000E+03 0. -1.
         -6    1    1    2    0  501 -0.22295816311E+03  0.15096543705E+03 -0.59114805680E+03  0.67222461331E+03  0.17300000000E+03 0.  1.
</event>
<event>
 4    1  0.5880538E-001  0.1000000E+03  0.7546771E-02  0.1280296E+00
          2   -1    0    0  502    0  0.00000000000E+00  0.00000000000E+00  0.40252087323E+03  0.40252087323E+03  0.00000000000E+00 0.  1.
         -2   -1    0    0    0  501 -0.00000000000E+00 -0.00000000000E+00 -0.20732934199E+03  0.20732934199E+03  0.00000000000E+00 0. -1.
          6    1    1    2  502    0 -0.12164887193E+03 -0.10047815096E+02 -0.10985180827E+03  0.23852846038E+03  0.17300000000E+03 0. -1.
         -6    1    1    2    0  501  0.12164887193E+03  0.10047815096E+02  0.30504333952E+03  0.37132175484E+03  0.17300000000E+03 0.  1.
</event>
<event>
 4    1  0.5880538E-001  0.1000000E+03  0.7546771E-02  0.1280296E+00
         -2   -1    0    0    0  501 -0.00000000000E+00  0.00000000000E+00  0.16322380504E+03  0.16322380504E+03  0.00000000000E+00 0. -1.
          2   -1    0    0  502    0  0.00000000000E+00 -0.00000000000E+00 -0.49802927455E+03  0.49802927455E+03  0.00000000000E+00 0.  1.
          6    1    1    2  502    0 -0.13898040764E+03  0.14331897071E+03 -0.43017598850E+02  0.26764789348E+03  0.17300000000E+03 0. -1.
         -6    1    1    2    0  501  0.13898040764E+03 -0.14331897071E+03 -0.29178787066E+03  0.39360518611E+03  0.17300000000E+03 0.  1.
</event>
<event>
 4    1  0.5880538E-001  0.1000000E+03  0.7546771E-02  0.1280296E+00
         -1   -1    0    0    0  501 -0.00000000000E+00  0.00000000000E+00  0.11443358474E+03  0.11443358474E+03  0.00000000000E+00 0. -1.
          1   -1    0    0  502    0  0.00000000000E+00 -0.00000000000E+00 -0.36868314554E+03  0.36868314554E+03  0.00000000000E+00 0.  1.
          6    1    1    2  502    0  0.51796407975E+02  0.25237823318E+02 -0.15923508892E+02  0.18303653663E+03  0.17300000000E+03 0. -1.
         -6    1    1    2    0  501 -0.51796407975E+02 -0.25237823318E+02 -0.23832605191E+03  0.30008019365E+03  0.17300000000E+03 0.  1.
</event>
<event>
 4    1  0.5880538E-001  0.1000000E+03  0.7546771E-02  0.1280296E+00
          2   -1    0    0  502    0  0.00000000000E+00  0.00000000000E+00  0.15057175077E+03  0.15057175077E+03  0.00000000000E+00 0.  1.
         -2   -1    0    0    0  501 -0.00000000000E+00 -0.00000000000E+00 -0.50425957752E+03  0.50425957752E+03  0.00000000000E+00 0. -1.
          6    1    1    2  502    0 -0.33847554042E+01 -0.15406761132E+03  0.39752340679E+00  0.23168393007E+03  0.17300000000E+03 0.  1.
         -6    1    1    2    0  501  0.33847554042E+01  0.15406761132E+03 -0.35408535015E+03  0.42314739822E+03  0.17300000000E+03 0.  1.
</event>
<event>
 4    1  0.5880538E-001  0.1000000E+03  0.7546771E-02  0.1280296E+00
          1   -1    0    0  502    0  0.00000000000E+00  0.00000000000E+00  0.14235025205E+03  0.14235025205E+03  0.00000000000E+00 0. -1.
         -1   -1    0    0    0  501 -0.00000000000E+00 -0.00000000000E+00 -0.64670974691E+03  0.64670974691E+03  0.00000000000E+00 0.  1.
          6    1    1    2  502    0 -0.92096640604E+02 -0.17243979149E+03 -0.51102262067E+02  0.26600322195E+03  0.17300000000E+03 0. -1.
         -6    1    1    2    0  501  0.92096640604E+02  0.17243979149E+03 -0.45325723279E+03  0.52305677701E+03  0.17300000000E+03 0.  1.
</event>
<event>
 4    1  0.5880538E-001  0.1000000E+03  0.7546771E-02  0.1280296E+00
          2   -1    0    0  502    0  0.00000000000E+00  0.00000000000E+00  0.83666794642E+03  0.83666794642E+03  0.00000000000E+00 0.  1.
         -2   -1    0    0    0  501 -0.00000000000E+00 -0.00000000000E+00 -0.23378919054E+03  0.23378919054E+03  0.00000000000E+00 0. -1.
          6    1    1    2  502    0  0.97964564640E+01 -0.36664871834E+03  0.87858050840E+02  0.41494010450E+03  0.17300000000E+03 0. -1.
         -6    1    1    2    0  501 -0.97964564640E+01  0.36664871834E+03  0.51502070504E+03  0.65551703246E+03  0.17300000000E+03 0.  1.
</event>
<event>
 4    1  0.5880538E-001  0.1000000E+03  0.7546771E-02  0.1280296E+00
         -1   -1    0    0    0  501 -0.00000000000E+00  0.00000000000E+00  0.22187976229E+02  0.22187976229E+02  0.00000000000E+00 0. -1.
          1   -1    0    0  502    0  0.00000000000E+00 -0.00000000000E+00 -0.16727032683E+04  0.16727032683E+04  0.00000000000E+00 0.  1.
          6    1    1    2  502    0  0.52627433042E+01 -0.49715548563E+02 -0.11263672932E+04  0.11406715616E+04  0.17300000000E+03 0.  1.
         -6    1    1    2    0  501 -0.52627433042E+01  0.49715548563E+02 -0.52414799890E+03  0.55421968296E+03  0.17300000000E+03 0. -1.
</event>
<event>
 4    1  0.5880538E-001  0.1000000E+03  0.7546771E-02  0.1280296E+00
         -2   -1    0    0    0  501 -0.00000000000E+00  0.00000000000E+00  0.32867749725E+03  0.32867749725E+03  0.00000000000E+00 0. -1.
          2   -1    0    0  502    0  0.00000000000E+00 -0.00000000000E+00 -0.35794833585E+03  0.35794833585E+03  0.00000000000E+00 0.  1.
          6    1    1    2  502    0  0.27843249888E+03 -0.81378797629E+02  0.45196878395E+02  0.34076226750E+03  0.17300000000E+03 0.  1.
         -6    1    1    2    0  501 -0.27843249888E+03  0.81378797629E+02 -0.74467716996E+02  0.34586356560E+03  0.17300000000E+03 0. -1.
</event>
<event>
 4    1  0.5880538E-001  0.1000000E+03  0.7546771E-02  0.1280296E+00
         -1   -1    0    0    0  501 -0.00000000000E+00  0.00000000000E+00  0.68539340156E+02  0.68539340156E+02  0.00000000000E+00 0. -1.
          1   -1    0    0  502    0  0.00000000000E+00 -0.00000000000E+00 -0.49023606242E+03  0.49023606242E+03  0.00000000000E+00 0.  1.
          6    1    1    2  502    0 -0.26003749112E+02 -0.54612798528E+02 -0.20541590121E+03  0.27528793144E+03  0.17300000000E+03 0.  1.
         -6    1    1    2    0  501  0.26003749112E+02  0.54612798528E+02 -0.21628082106E+03  0.28348747113E+03  0.17300000000E+03 0. -1.
</event>
<event>
 4    1  0.5880538E-001  0.1000000E+03  0.7546771E-02  0.1280296E+00
         -1   -1    0    0    0  501 -0.00000000000E+00  0.00000000000E+00  0.15900771628E+03  0.15900771628E+03  0.00000000000E+00 0. -1.
          1   -1    0    0  502    0  0.00000000000E+00 -0.00000000000E+00 -0.91948673464E+03  0.91948673464E+03  0.00000000000E+00 0.  1.
          6    1    1    2  502    0 -0.30997974587E+03 -0.55222618918E+02 -0.19560825197E+03  0.40905814835E+03  0.17300000000E+03 0.  1.
         -6    1    1    2    0  501  0.30997974587E+03  0.55222618918E+02 -0.56487076638E+03  0.66943630257E+03  0.17300000000E+03 0. -1.
</event>
<event>
 4    1  0.5880538E-001  0.1000000E+03  0.7546771E-02  0.1280296E+00
         -1   -1    0    0    0  501 -0.00000000000E+00  0.00000000000E+00  0.34903355050E+04  0.34903355050E+04  0.00000000000E+00 0. -1.
          1   -1    0    0  502    0  0.00000000000E+00 -0.00000000000E+00 -0.10459199667E+02  0.10459199667E+02  0.00000000000E+00 0.  1.
          6    1    1    2  502    0 -0.76969930838E+02 -0.14049691561E+02  0.15444468713E+04  0.15560741956E+04  0.17300000000E+03 0.  1.
         -6    1    1    2    0  501  0.76969930838E+02  0.14049691561E+02  0.19354294341E+04  0.19447205091E+04  0.17300000000E+03 0. -1.
</event>
<event>
 4    1  0.5880538E-001  0.1000000E+03  0.7546771E-02  0.1280296E+00
          2   -1    0    0  502    0  0.00000000000E+00  0.00000000000E+00  0.16284342057E+04  0.16284342057E+04  0.00000000000E+00 0. -1.
         -2   -1    0    0    0  501 -0.00000000000E+00 -0.00000000000E+00 -0.21254410701E+02  0.21254410701E+02  0.00000000000E+00 0.  1.
          6    1    1    2  502    0  0.68249292071E+02  0.34422230532E+01  0.81932447977E+03  0.84017344514E+03  0.17300000000E+03 0. -1.
         -6    1    1    2    0  501 -0.68249292071E+02 -0.34422230532E+01  0.78785531523E+03  0.80951517126E+03  0.17300000000E+03 0.  1.
</event>
<event>
 4    1  0.5880538E-001  0.1000000E+03  0.7546771E-02  0.1280296E+00
          1   -1    0    0  502    0  0.00000000000E+00  0.00000000000E+00  0.44255852933E+03  0.44255852933E+03  0.00000000000E+00 0. -1.
         -1   -1    0    0    0  501 -0.00000000000E+00 -0.00000000000E+00 -0.18402801135E+03  0.18402801135E+03  0.00000000000E+00 0.  1.
          6    1    1    2  502    0 -0.14812926365E+03  0.58691866180E+02  0.30671271574E+03  0.38650834907E+03  0.17300000000E+03 0. -1.
         -6    1    1    2    0  501  0.14812926365E+03 -0.58691866180E+02 -0.48182197751E+02  0.24007819161E+03  0.17300000000E+03 0.  1.
</event>
<event>
 4    1  0.5880538E-001  0.1000000E+03  0.7546771E-02  0.1280296E+00
          1   -1    0    0  502    0  0.00000000000E+00  0.00000000000E+00  0.40493661299E+02  0.40493661299E+02  0.00000000000E+00 0. -1.
         -1   -1    0    0    0  501 -0.00000000000E+00 -0.00000000000E+00 -0.11169657284E+04  0.11169657284E+04  0.00000000000E+00 0.  1.
          6    1    1    2  502    0  0.70730066116E+02  0.58890967323E+02 -0.76312970638E+03  0.78788757893E+03  0.17300000000E+03 0. -1.
         -6    1    1    2    0  501 -0.70730066116E+02 -0.58890967323E+02 -0.31334236070E+03  0.36957181074E+03  0.17300000000E+03 0.  1.
</event>
<event>
 4    1  0.5880538E-001  0.1000000E+03  0.7546771E-02  0.1280296E+00
          1   -1    0    0  502    0  0.00000000000E+00  0.00000000000E+00  0.11708111002E+03  0.11708111002E+03  0.00000000000E+00 0.  1.
         -1   -1    0    0    0  501 -0.00000000000E+00 -0.00000000000E+00 -0.43482453845E+03  0.43482453845E+03  0.00000000000E+00 0. -1.
          6    1    1    2  502    0 -0.95779003271E+02 -0.10668856880E+03 -0.13366820959E+03  0.26144264846E+03  0.17300000000E+03 0.  1.
         -6    1    1    2    0  501  0.95779003271E+02  0.10668856880E+03 -0.18407521885E+03  0.29046300001E+03  0.17300000000E+03 0. -1.
</event>
<event>
 4    1  0.5880538E-001  0.1000000E+03  0.7546771E-02  0.1280296E+00
          1   -1    0    0  502    0  0.00000000000E+00  0.00000000000E+00  0.17273201488E+03  0.17273201488E+03  0.00000000000E+00 0.  1.
         -1   -1    0    0    0  501 -0.00000000000E+00 -0.00000000000E+00 -0.21284588547E+03  0.21284588547E+03  0.00000000000E+00 0. -1.
          6    1    1    2  502    0 -0.20993643540E+02 -0.77226156669E+02  0.83348744656E+00  0.19061560021E+03  0.17300000000E+03 0.  1.
         -6    1    1    2    0  501  0.20993643540E+02  0.77226156669E+02 -0.40947358037E+02  0.19496230013E+03  0.17300000000E+03 0. -1.
</event>
<event>
 4    1  0.5880538E-001  0.1000000E+03  0.7546771E-02  0.1280296E+00
         -1   -1    0    0    0  501 -0.00000000000E+00  0.00000000000E+00  0.70723557627E+03  0.70723557627E+03  0.00000000000E+00 0. -1.
          1   -1    0    0  502    0  0.00000000000E+00 -0.00000000000E+00 -0.63145897520E+02  0.63145897520E+02  0.00000000000E+00 0.  1.
          6    1    1    2  502    0 -0.17937086514E+01  0.11973469441E+03  0.28602994727E+03  0.35507991378E+03  0.17300000000E+03 0. -1.
         -6    1    1    2    0  501  0.17937086514E+01 -0.11973469441E+03  0.35805973148E+03  0.41530156001E+03  0.17300000000E+03 0.  1.
</event>
<event>
 4    1  0.5880538E-001  0.1000000E+03  0.7546771E-02  0.1280296E+00
         -1   -1    0    0    0  501 -0.00000000000E+00  0.00000000000E+00  0.25250011893E+03  0.25250011893E+03  0.00000000000E+00 0. -1.
          1   -1    0    0  502    0  0.00000000000E+00 -0.00000000000E+00 -0.24751071155E+03  0.24751071155E+03  0.00000000000E+00 0.  1.
          6    1    1    2  502    0  0.15372114756E+03  0.86849934955E+02 -0.34848576175E+02  0.24963278164E+03  0.17300000000E+03 0.  1.
         -6    1    1    2    0  501 -0.15372114756E+03 -0.86849934955E+02  0.39837983553E+02  0.25037804884E+03  0.17300000000E+03 0. -1.
</event>
<event>
 4    1  0.5880538E-001  0.1000000E+03  0.7546771E-02  0.1280296E+00
         -2   -1    0    0    0  501 -0.00000000000E+00  0.00000000000E+00  0.47535270653E+03  0.47535270653E+03  0.00000000000E+00 0. -1.
          2   -1    0    0  502    0  0.00000000000E+00 -0.00000000000E+00 -0.72592837264E+02  0.72592837264E+02  0.00000000000E+00 0.  1.
          6    1    1    2  502    0  0.30926831558E+02  0.53386971140E+02  0.24234734673E+03  0.30408530721E+03  0.17300000000E+03 0.  1.
         -6    1    1    2    0  501 -0.30926831558E+02 -0.53386971140E+02  0.16041252254E+03  0.24386023658E+03  0.17300000000E+03 0. -1.
</event>
<event>
 4    1  0.5880538E-001  0.1000000E+03  0.7546771E-02  0.1280296E+00
         -1   -1    0    0    0  501 -0.00000000000E+00  0.00000000000E+00  0.71517613701E+03  0.71517613701E+03  0.00000000000E+00 0. -1.
          1   -1    0    0  502    0  0.00000000000E+00 -0.00000000000E+00 -0.30584264450E+03  0.30584264450E+03  0.00000000000E+00 0.  1.
          6    1    1    2  502    0  0.33652208312E+03  0.22245641647E+02 -0.94389988449E+02  0.39061547706E+03  0.17300000000E+03 0.  1.
         -6    1    1    2    0  501 -0.33652208312E+03 -0.22245641647E+02  0.50372348096E+03  0.63040330446E+03  0.17300000000E+03 0. -1.
</event>
<event>
 4    1  0.5880538E-001  0.1000000E+03  0.7546771E-02  0.1280296E+00
         -3   -1    0    0    0  501 -0.00000000000E+00  0.00000000000E+00  0.92685857559E+03  0.92685857559E+03  0.00000000000E+00 0. -1.
          3   -1    0    0  502    0  0.00000000000E+00 -0.00000000000E+00 -0.53224455265E+02  0.53224455265E+02  0.00000000000E+00 0.  1.
          6    1    1    2  502    0 -0.55417578072E+02 -0.11717161625E+03  0.32426724179E+03  0.38971597313E+03  0.17300000000E+03 0.  1.
         -6    1    1    2    0  501  0.55417578072E+02  0.11717161625E+03  0.54936687853E+03  0.59036705772E+03  0.17300000000E+03 0. -1.
</event>
<event>
 4    1  0.5880538E-001  0.1000000E+03  0.7546771E-02  0.1280296E+00
         -1   -1    0    0    0  501 -0.00000000000E+00  0.00000000000E+00  0.11198815468E+03  0.11198815468E+03  0.00000000000E+00 0. -1.
          1   -1    0    0  502    0  0.00000000000E+00 -0.00000000000E+00 -0.21580082220E+04  0.21580082220E+04  0.00000000000E+00 0.  1.
          6    1    1    2  502    0 -0.39664023091E+02  0.39518062009E+03 -0.48649105209E+03  0.65141653417E+03  0.17300000000E+03 0.  1.
         -6    1    1    2    0  501  0.39664023091E+02 -0.39518062009E+03 -0.15595290152E+04  0.16185798425E+04  0.17300000000E+03 0. -1.
</event>
<event>
 4    1  0.5880538E-001  0.1000000E+03  0.7546771E-02  0.1280296E+00
         -1   -1    0    0    0  501 -0.00000000000E+00  0.00000000000E+00  0.97483846777E+03  0.97483846777E+03  0.00000000000E+00 0.  1.
          1   -1    0    0  502    0  0.00000000000E+00 -0.00000000000E+00 -0.74050699258E+02  0.74050699258E+02  0.00000000000E+00 0. -1.
          6    1    1    2  502    0  0.47847059784E+01 -0.15988609632E+03  0.19835780599E+03  0.30799557855E+03  0.17300000000E+03 0.  1.
         -6    1    1    2    0  501 -0.47847059784E+01  0.15988609632E+03  0.70242996252E+03  0.74089358848E+03  0.17300000000E+03 0. -1.
</event>
<event>
 4    1  0.5880538E-001  0.1000000E+03  0.7546771E-02  0.1280296E+00
         -1   -1    0    0    0  501 -0.00000000000E+00  0.00000000000E+00  0.13861426986E+02  0.13861426986E+02  0.00000000000E+00 0.  1.
          1   -1    0    0  502    0  0.00000000000E+00 -0.00000000000E+00 -0.25046850589E+04  0.25046850589E+04  0.00000000000E+00 0. -1.
          6    1    1    2  502    0 -0.43178952366E+02  0.53819518539E+02 -0.12093027414E+04  0.12235616384E+04  0.17300000000E+03 0.  1.
         -6    1    1    2    0  501  0.43178952366E+02 -0.53819518539E+02 -0.12815208905E+04  0.12949848475E+04  0.17300000000E+03 0. -1.
</event>
<event>
 4    1  0.5880538E-001  0.1000000E+03  0.7546771E-02  0.1280296E+00
          1   -1    0    0  502    0  0.00000000000E+00  0.00000000000E+00  0.49823727501E+03  0.49823727501E+03  0.00000000000E+00 0.  1.
         -1   -1    0    0    0  501 -0.00000000000E+00 -0.00000000000E+00 -0.21993217515E+03  0.21993217515E+03  0.00000000000E+00 0. -1.
          6    1    1    2  502    0 -0.32482791991E+02 -0.24047758991E+03 -0.17161625206E+02  0.29850983971E+03  0.17300000000E+03 0.  1.
         -6    1    1    2    0  501  0.32482791991E+02  0.24047758991E+03  0.29546672507E+03  0.41965961045E+03  0.17300000000E+03 0. -1.
</event>
<event>
 4    1  0.5880538E-001  0.1000000E+03  0.7546771E-02  0.1280296E+00
         -1   -1    0    0    0  501 -0.00000000000E+00  0.00000000000E+00  0.14993780348E+02  0.14993780348E+02  0.00000000000E+00 0. -1.
          1   -1    0    0  502    0  0.00000000000E+00 -0.00000000000E+00 -0.31245542263E+04  0.31245542263E+04  0.00000000000E+00 0.  1.
          6    1    1    2  502    0 -0.60632024940E+01 -0.95753339620E+02 -0.21917796392E+04  0.22006890855E+04  0.17300000000E+03 0.  1.
         -6    1    1    2    0  501  0.60632024940E+01  0.95753339620E+02 -0.91778080678E+03  0.93885892112E+03  0.17300000000E+03 0. -1.
</event>
<event>
 4    1  0.5880538E-001  0.1000000E+03  0.7546771E-02  0.1280296E+00
         -2   -1    0    0    0  501 -0.00000000000E+00  0.00000000000E+00  0.34867181246E+03  0.34867181246E+03  0.00000000000E+00 0. -1.
          2   -1    0    0  502    0  0.00000000000E+00 -0.00000000000E+00 -0.35144833927E+03  0.35144833927E+03  0.00000000000E+00 0.  1.
          6    1    1    2  502    0 -0.70387361984E+02 -0.29545039941E+03  0.17738052397E+02  0.34998422499E+03  0.17300000000E+03 0.  1.
         -6    1    1    2    0  501  0.70387361984E+02  0.29545039941E+03 -0.20514579198E+02  0.35013592674E+03  0.17300000000E+03 0. -1.
</event>
<event>
 4    1  0.5880538E-001  0.1000000E+03  0.7546771E-02  0.1280296E+00
         -1   -1    0    0    0  501 -0.00000000000E+00  0.00000000000E+00  0.24592853445E+03  0.24592853445E+03  0.00000000000E+00 0.  1.
          1   -1    0    0  502    0  0.00000000000E+00 -0.00000000000E+00 -0.12683927584E+03  0.12683927584E+03  0.00000000000E+00 0. -1.
          6    1    1    2  502    0 -0.26862919937E+02  0.17190074100E+02  0.76139482363E+02  0.19168551299E+03  0.17300000000E+03 0.  1.
         -6    1    1    2    0  501  0.26862919937E+02 -0.17190074100E+02  0.42949776244E+02  0.18108229730E+03  0.17300000000E+03 0.  1.
</event>
<event>
 4    1  0.5880538E-001  0.1000000E+03  0.7546771E-02  0.1280296E+00
         -2   -1    0    0    0  501 -0.00000000000E+00  0.00000000000E+00  0.68770487790E+02  0.68770487790E+02  0.00000000000E+00 0.  1.
          2   -1    0    0  502    0  0.00000000000E+00 -0.00000000000E+00 -0.11501599366E+04  0.11501599366E+04  0.00000000000E+00 0. -1.
          6    1    1    2  502    0 -0.53133597642E+02  0.11604868602E+03 -0.14776155292E+03  0.26086960967E+03  0.17300000000E+03 0.  1.
         -6    1    1    2    0  501  0.53133597642E+02 -0.11604868602E+03 -0.93362789588E+03  0.95806081471E+03  0.17300000000E+03 0.  1.
</event>
<event>
 4    1  0.5880538E-001  0.1000000E+03  0.7546771E-02  0.1280296E+00
         -2   -1    0    0    0  501 -0.00000000000E+00  0.00000000000E+00  0.22137936429E+02  0.22137936429E+02  0.00000000000E+00 0.  1.
          2   -1    0    0  502    0  0.00000000000E+00 -0.00000000000E+00 -0.16753859781E+04  0.16753859781E+04  0.00000000000E+00 0. -1.
          6    1    1    2  502    0 -0.42894817670E+01  0.64653885758E+02 -0.58676442643E+03  0.61515852975E+03  0.17300000000E+03 0.  1.
         -6    1    1    2    0  501  0.42894817670E+01 -0.64653885758E+02 -0.10664836152E+04  0.10823653848E+04  0.17300000000E+03 0.  1.
</event>
<event>
 4    1  0.5880538E-001  0.1000000E+03  0.7546771E-02  0.1280296E+00
         -1   -1    0    0    0  501 -0.00000000000E+00  0.00000000000E+00  0.58513041147E+02  0.58513041147E+02  0.00000000000E+00 0.  1.
          1   -1    0    0  502    0  0.00000000000E+00 -0.00000000000E+00 -0.70472469618E+03  0.70472469618E+03  0.00000000000E+00 0. -1.
          6    1    1    2  502    0 -0.90940093188E+02  0.33234146573E+02 -0.40570860174E+03  0.45155628505E+03  0.17300000000E+03 0.  1.
         -6    1    1    2    0  501  0.90940093188E+02 -0.33234146573E+02 -0.24050305330E+03  0.31168145228E+03  0.17300000000E+03 0.  1.
</event>
<event>
 4    1  0.5880538E-001  0.1000000E+03  0.7546771E-02  0.1280296E+00
          2   -1    0    0  502    0  0.00000000000E+00  0.00000000000E+00  0.12064255864E+04  0.12064255864E+04  0.00000000000E+00 0.  1.
         -2   -1    0    0    0  501 -0.00000000000E+00 -0.00000000000E+00 -0.25299297576E+02  0.25299297576E+02  0.00000000000E+00 0. -1.
          6    1    1    2  502    0  0.20722610681E+02 -0.88206206751E+01  0.62315708023E+03  0.64711743647E+03  0.17300000000E+03 0. -1.
         -6    1    1    2    0  501 -0.20722610681E+02  0.88206206751E+01  0.55796920863E+03  0.58460744754E+03  0.17300000000E+03 0.  1.
</event>
<event>
 4    1  0.5880538E-001  0.1000000E+03  0.7546771E-02  0.1280296E+00
          1   -1    0    0  502    0  0.00000000000E+00  0.00000000000E+00  0.18949095930E+03  0.18949095930E+03  0.00000000000E+00 0.  1.
         -1   -1    0    0    0  501 -0.00000000000E+00 -0.00000000000E+00 -0.29830634814E+03  0.29830634814E+03  0.00000000000E+00 0. -1.
          6    1    1    2  502    0  0.59564239024E+02 -0.61006868558E+02 -0.19702528386E+03  0.27571307379E+03  0.17300000000E+03 0. -1.
         -6    1    1    2    0  501 -0.59564239024E+02  0.61006868558E+02  0.88209895015E+02  0.21208423364E+03  0.17300000000E+03 0.  1.
</event>
<event>
 4    1  0.5880538E-001  0.1000000E+03  0.7546771E-02  0.1280296E+00
          1   -1    0    0  502    0  0.00000000000E+00  0.00000000000E+00  0.87027184143E+03  0.87027184143E+03  0.00000000000E+00 0.  1.
         -1   -1    0    0    0  501 -0.00000000000E+00 -0.00000000000E+00 -0.44275807759E+02  0.44275807759E+02  0.00000000000E+00 0. -1.
          6    1    1    2  502    0  0.75551762986E+01  0.21238720494E+02  0.62258743729E+03  0.64656962580E+03  0.17300000000E+03 0. -1.
         -6    1    1    2    0  501 -0.75551762986E+01 -0.21238720494E+02  0.20340859638E+03  0.26797802339E+03  0.17300000000E+03 0.  1.
</event>
<event>
 4    1  0.5880538E-001  0.1000000E+03  0.7546771E-02  0.1280296E+00
         -2   -1    0    0    0  501 -0.00000000000E+00  0.00000000000E+00  0.90077496119E+02  0.90077496119E+02  0.00000000000E+00 0. -1.
          2   -1    0    0  502    0  0.00000000000E+00 -0.00000000000E+00 -0.64448265476E+03  0.64448265476E+03  0.00000000000E+00 0.  1.
          6    1    1    2  502    0 -0.37109830419E+02 -0.16354584099E+03 -0.27713085935E+03  0.36722594519E+03  0.17300000000E+03 0.  1.
         -6    1    1    2    0  501  0.37109830419E+02  0.16354584099E+03 -0.27727429929E+03  0.36733420568E+03  0.17300000000E+03 0. -1.
</event>
<event>
 4    1  0.5880538E-001  0.1000000E+03  0.7546771E-02  0.1280296E+00
         -3   -1    0    0    0  501 -0.00000000000E+00  0.00000000000E+00  0.14925978952E+04  0.14925978952E+04  0.00000000000E+00 0. -1.
          3   -1    0    0  502    0  0.00000000000E+00 -0.00000000000E+00 -0.24825873332E+02  0.24825873332E+02  0.00000000000E+00 0.  1.
          6    1    1    2  502    0 -0.41500293854E+02 -0.66851836624E+02  0.85438044471E+03  0.87526360987E+03  0.17300000000E+03 0.  1.
         -6    1    1    2    0  501  0.41500293854E+02  0.66851836624E+02  0.61339157713E+03  0.64216015864E+03  0.17300000000E+03 0. -1.
</event>
<event>
 4    1  0.5880538E-001  0.1000000E+03  0.7546771E-02  0.1280296E+00
         -2   -1    0    0    0  501 -0.00000000000E+00  0.00000000000E+00  0.14569790360E+03  0.14569790360E+03  0.00000000000E+00 0. -1.
          2   -1    0    0  502    0  0.00000000000E+00 -0.00000000000E+00 -0.11040545843E+04  0.11040545843E+04  0.00000000000E+00 0.  1.
          6    1    1    2  502    0 -0.21193480915E+03 -0.26798048682E+03 -0.66483440155E+03  0.76724421544E+03  0.17300000000E+03 0.  1.
         -6    1    1    2    0  501  0.21193480915E+03  0.26798048682E+03 -0.29352227919E+03  0.48250827249E+03  0.17300000000E+03 0. -1.
</event>
<event>
 4    1  0.5880538E-001  0.1000000E+03  0.7546771E-02  0.1280296E+00
         -1   -1    0    0    0  501 -0.00000000000E+00  0.00000000000E+00  0.17899353406E+02  0.17899353406E+02  0.00000000000E+00 0. -1.
          1   -1    0    0  502    0  0.00000000000E+00 -0.00000000000E+00 -0.17566860854E+04  0.17566860854E+04  0.00000000000E+00 0.  1.
          6    1    1    2  502    0 -0.37987657056E+02  0.84314793688E+01 -0.86625596048E+03  0.88421860475E+03  0.17300000000E+03 0.  1.
         -6    1    1    2    0  501  0.37987657056E+02 -0.84314793688E+01 -0.87253077150E+03  0.89036683404E+03  0.17300000000E+03 0. -1.
</event>
<event>
 4    1  0.5880538E-001  0.1000000E+03  0.7546771E-02  0.1280296E+00
         -2   -1    0    0    0  501 -0.00000000000E+00  0.00000000000E+00  0.21482249188E+03  0.21482249188E+03  0.00000000000E+00 0. -1.
          2   -1    0    0  502    0  0.00000000000E+00 -0.00000000000E+00 -0.28389174567E+03  0.28389174567E+03  0.00000000000E+00 0.  1.
          6    1    1    2  502    0 -0.11101766234E+03  0.13410583474E+03 -0.69182467054E+01  0.24553239787E+03  0.17300000000E+03 0.  1.
         -6    1    1    2    0  501  0.11101766234E+03 -0.13410583474E+03 -0.62151007090E+02  0.25318183969E+03  0.17300000000E+03 0. -1.
</event>
<event>
 4    1  0.5880538E-001  0.1000000E+03  0.7546771E-02  0.1280296E+00
          1   -1    0    0  502    0  0.00000000000E+00  0.00000000000E+00  0.12009859168E+03  0.12009859168E+03  0.00000000000E+00 0. -1.
         -1   -1    0    0    0  501 -0.00000000000E+00 -0.00000000000E+00 -0.29051985704E+03  0.29051985704E+03  0.00000000000E+00 0.  1.
          6    1    1    2  502    0 -0.46437714898E+02 -0.18251937523E+01 -0.14339465144E+03  0.22945766224E+03  0.17300000000E+03 0. -1.
         -6    1    1    2    0  501  0.46437714898E+02  0.18251937523E+01 -0.27026613916E+02  0.18116078648E+03  0.17300000000E+03 0.  1.
</event>
<event>
 4    1  0.5880538E-001  0.1000000E+03  0.7546771E-02  0.1280296E+00
          2   -1    0    0  502    0  0.00000000000E+00  0.00000000000E+00  0.13324671137E+04  0.13324671137E+04  0.00000000000E+00 0.  1.
         -2   -1    0    0    0  501 -0.00000000000E+00 -0.00000000000E+00 -0.52110763442E+02  0.52110763442E+02  0.00000000000E+00 0. -1.
          6    1    1    2  502    0 -0.47221948135E+02 -0.19196810081E+03  0.58600311179E+03  0.64219180246E+03  0.17300000000E+03 0. -1.
         -6    1    1    2    0  501  0.47221948135E+02  0.19196810081E+03  0.69435323847E+03  0.74238607469E+03  0.17300000000E+03 0. -1.
</event>
<event>
 4    1  0.5880538E-001  0.1000000E+03  0.7546771E-02  0.1280296E+00
          1   -1    0    0  502    0  0.00000000000E+00  0.00000000000E+00  0.19319232120E+04  0.19319232120E+04  0.00000000000E+00 0. -1.
         -1   -1    0    0    0  501 -0.00000000000E+00 -0.00000000000E+00 -0.18808332341E+02  0.18808332341E+02  0.00000000000E+00 0.  1.
          6    1    1    2  502    0  0.48361745394E+02  0.61170189350E+02  0.10490289077E+04  0.10660540791E+04  0.17300000000E+03 0.  1.
         -6    1    1    2    0  501 -0.48361745394E+02 -0.61170189350E+02  0.86408597200E+03  0.88467746523E+03  0.17300000000E+03 0. -1.
</event>
<event>
 4    1  0.5880538E-001  0.1000000E+03  0.7546771E-02  0.1280296E+00
          2   -1    0    0  502    0  0.00000000000E+00  0.00000000000E+00  0.41084819190E+03  0.41084819190E+03  0.00000000000E+00 0. -1.
         -2   -1    0    0    0  501 -0.00000000000E+00 -0.00000000000E+00 -0.75202834110E+02  0.75202834110E+02  0.00000000000E+00 0.  1.
          6    1    1    2  502    0  0.26565530800E+02 -0.51906324700E+01  0.18902996213E+03  0.25767032556E+03  0.17300000000E+03 0. -1.
         -6    1    1    2    0  501 -0.26565530800E+02  0.51906324700E+01  0.14661539566E+03  0.22838070045E+03  0.17300000000E+03 0.  1.
</event>
<event>
 4    1  0.5880538E-001  0.1000000E+03  0.7546771E-02  0.1280296E+00
          2   -1    0    0  502    0  0.00000000000E+00  0.00000000000E+00  0.56234077738E+03  0.56234077738E+03  0.00000000000E+00 0. -1.
         -2   -1    0    0    0  501 -0.00000000000E+00 -0.00000000000E+00 -0.10404217518E+03  0.10404217518E+03  0.00000000000E+00 0.  1.
          6    1    1    2  502    0  0.77402114206E+01  0.16853471726E+03  0.21442262759E+03  0.32306334521E+03  0.17300000000E+03 0. -1.
         -6    1    1    2    0  501 -0.77402114206E+01 -0.16853471726E+03  0.24387597461E+03  0.34331960735E+03  0.17300000000E+03 0.  1.
</event>
<event>
 4    1  0.5880538E-001  0.1000000E+03  0.7546771E-02  0.1280296E+00
         -2   -1    0    0    0  501 -0.00000000000E+00  0.00000000000E+00  0.86321669239E+02  0.86321669239E+02  0.00000000000E+00 0.  1.
          2   -1    0    0  502    0  0.00000000000E+00 -0.00000000000E+00 -0.94299231259E+03  0.94299231259E+03  0.00000000000E+00 0. -1.
          6    1    1    2  502    0  0.48511395285E+02 -0.16102445986E+03 -0.15364143109E+03  0.28603657370E+03  0.17300000000E+03 0.  1.
         -6    1    1    2    0  501 -0.48511395285E+02  0.16102445986E+03 -0.70302921226E+03  0.74327740813E+03  0.17300000000E+03 0. -1.
</event>
<event>
 4    1  0.5880538E-001  0.1000000E+03  0.7546771E-02  0.1280296E+00
          1   -1    0    0  502    0  0.00000000000E+00  0.00000000000E+00  0.37834410592E+03  0.37834410592E+03  0.00000000000E+00 0.  1.
         -1   -1    0    0    0  501 -0.00000000000E+00 -0.00000000000E+00 -0.16194679657E+03  0.16194679657E+03  0.00000000000E+00 0. -1.
          6    1    1    2  502    0  0.15496562057E+03 -0.85488441618E+02  0.10331809755E+03  0.26819069053E+03  0.17300000000E+03 0.  1.
         -6    1    1    2    0  501 -0.15496562057E+03  0.85488441618E+02  0.11307921181E+03  0.27210021196E+03  0.17300000000E+03 0. -1.
</event>
<event>
 4    1  0.5880538E-001  0.1000000E+03  0.7546771E-02  0.1280296E+00
          2   -1    0    0  502    0  0.00000000000E+00  0.00000000000E+00  0.21717702190E+04  0.21717702190E+04  0.00000000000E+00 0.  1.
         -2   -1    0    0    0  501 -0.00000000000E+00 -0.00000000000E+00 -0.16376980540E+02  0.16376980540E+02  0.00000000000E+00 0. -1.
          6    1    1    2  502    0  0.73004225610E+02 -0.17005484088E+02  0.11031397583E+04  0.11191358853E+04  0.17300000000E+03 0.  1.
         -6    1    1    2    0  501 -0.73004225610E+02  0.17005484088E+02  0.10522534802E+04  0.10690113143E+04  0.17300000000E+03 0. -1.
</event>
<event>
 4    1  0.5880538E-001  0.1000000E+03  0.7546771E-02  0.1280296E+00
          2   -1    0    0  502    0  0.00000000000E+00  0.00000000000E+00  0.31170534261E+04  0.31170534261E+04  0.00000000000E+00 0.  1.
         -2   -1    0    0    0  501 -0.00000000000E+00 -0.00000000000E+00 -0.16700086068E+02  0.16700086068E+02  0.00000000000E+00 0. -1.
          6    1    1    2  502    0  0.13725471095E+03 -0.21289375606E+02  0.19157721166E+04  0.19285756133E+04  0.17300000000E+03 0.  1.
         -6    1    1    2    0  501 -0.13725471095E+03  0.21289375606E+02  0.11845812234E+04  0.12051778989E+04  0.17300000000E+03 0. -1.
</event>
<event>
 4    1  0.5880538E-001  0.1000000E+03  0.7546771E-02  0.1280296E+00
          2   -1    0    0  502    0  0.00000000000E+00  0.00000000000E+00  0.63221916697E+03  0.63221916697E+03  0.00000000000E+00 0.  1.
         -2   -1    0    0    0  501 -0.00000000000E+00 -0.00000000000E+00 -0.16872120982E+03  0.16872120982E+03  0.00000000000E+00 0. -1.
          6    1    1    2  502    0 -0.28260448200E+02  0.12878227230E+02 -0.10578329167E+03  0.20514289280E+03  0.17300000000E+03 0.  1.
         -6    1    1    2    0  501  0.28260448200E+02 -0.12878227230E+02  0.56928124882E+03  0.59579748399E+03  0.17300000000E+03 0. -1.
</event>
<event>
 4    1  0.5880538E-001  0.1000000E+03  0.7546771E-02  0.1280296E+00
          2   -1    0    0  502    0  0.00000000000E+00  0.00000000000E+00  0.26031479079E+03  0.26031479079E+03  0.00000000000E+00 0.  1.
         -2   -1    0    0    0  501 -0.00000000000E+00 -0.00000000000E+00 -0.14675145214E+03  0.14675145214E+03  0.00000000000E+00 0. -1.
          6    1    1    2  502    0  0.65053575750E+01  0.58003281891E+02 -0.15858167450E+02  0.18326806013E+03  0.17300000000E+03 0.  1.
         -6    1    1    2    0  501 -0.65053575750E+01 -0.58003281891E+02  0.12942150610E+03  0.22379818281E+03  0.17300000000E+03 0. -1.
</event>
<event>
 4    1  0.5880538E-001  0.1000000E+03  0.7546771E-02  0.1280296E+00
         -2   -1    0    0    0  501 -0.00000000000E+00  0.00000000000E+00  0.83288702434E+02  0.83288702434E+02  0.00000000000E+00 0. -1.
          2   -1    0    0  502    0  0.00000000000E+00 -0.00000000000E+00 -0.11273941721E+04  0.11273941721E+04  0.00000000000E+00 0.  1.
          6    1    1    2  502    0  0.21807723239E+03  0.53968591359E+02 -0.75158032268E+03  0.80328840996E+03  0.17300000000E+03 0. -1.
         -6    1    1    2    0  501 -0.21807723239E+03 -0.53968591359E+02 -0.29252514697E+03  0.40739446456E+03  0.17300000000E+03 0. -1.
</event>
<event>
 4    1  0.5880538E-001  0.1000000E+03  0.7546771E-02  0.1280296E+00
         -1   -1    0    0    0  501 -0.00000000000E+00  0.00000000000E+00  0.10776902369E+03  0.10776902369E+03  0.00000000000E+00 0.  1.
          1   -1    0    0  502    0  0.00000000000E+00 -0.00000000000E+00 -0.86766830753E+03  0.86766830753E+03  0.00000000000E+00 0. -1.
          6    1    1    2  502    0 -0.10839439713E+03 -0.21685687233E+03 -0.49047960759E+03  0.57382531651E+03  0.17300000000E+03 0. -1.
         -6    1    1    2    0  501  0.10839439713E+03  0.21685687233E+03 -0.26941967625E+03  0.40161201471E+03  0.17300000000E+03 0.  1.
</event>
<event>
 4    1  0.5880538E-001  0.1000000E+03  0.7546771E-02  0.1280296E+00
         -1   -1    0    0    0  501 -0.00000000000E+00  0.00000000000E+00  0.65914315140E+02  0.65914315140E+02  0.00000000000E+00 0. -1.
          1   -1    0    0  502    0  0.00000000000E+00 -0.00000000000E+00 -0.53484488058E+03  0.53484488058E+03  0.00000000000E+00 0.  1.
          6    1    1    2  502    0  0.59388536959E+02 -0.38335485322E+02 -0.20547720328E+03  0.27775256763E+03  0.17300000000E+03 0. -1.
         -6    1    1    2    0  501 -0.59388536959E+02  0.38335485322E+02 -0.26345336216E+03  0.32300662809E+03  0.17300000000E+03 0.  1.
</event>
<event>
 4    1  0.5880538E-001  0.1000000E+03  0.7546771E-02  0.1280296E+00
         -2   -1    0    0    0  501 -0.00000000000E+00  0.00000000000E+00  0.12273523959E+03  0.12273523959E+03  0.00000000000E+00 0. -1.
          2   -1    0    0  502    0  0.00000000000E+00 -0.00000000000E+00 -0.11948136956E+04  0.11948136956E+04  0.00000000000E+00 0.  1.
          6    1    1    2  502    0 -0.26321756888E+03  0.20170010448E+03 -0.39469946783E+03  0.54376749684E+03  0.17300000000E+03 0. -1.
         -6    1    1    2    0  501  0.26321756888E+03 -0.20170010448E+03 -0.67737898821E+03  0.77378143838E+03  0.17300000000E+03 0.  1.
</event>
<event>
 4    1  0.5880538E-001  0.1000000E+03  0.7546771E-02  0.1280296E+00
          2   -1    0    0  502    0  0.00000000000E+00  0.00000000000E+00  0.19702484055E+03  0.19702484055E+03  0.00000000000E+00 0. -1.
         -2   -1    0    0    0  501 -0.00000000000E+00 -0.00000000000E+00 -0.73649939086E+03  0.73649939086E+03  0.00000000000E+00 0.  1.
          6    1    1    2  502    0 -0.19907638891E+03  0.82117676101E+02 -0.59114681633E+03  0.65250155541E+03  0.17300000000E+03 0. -1.
         -6    1    1    2    0  501  0.19907638891E+03 -0.82117676101E+02  0.51672266019E+02  0.28102267600E+03  0.17300000000E+03 0.  1.
</event>
<event>
 4    1  0.5880538E-001  0.1000000E+03  0.7546771E-02  0.1280296E+00
          1   -1    0    0  502    0  0.00000000000E+00  0.00000000000E+00  0.19624928468E+03  0.19624928468E+03  0.00000000000E+00 0. -1.
         -1   -1    0    0    0  501 -0.00000000000E+00 -0.00000000000E+00 -0.37077739102E+03  0.37077739102E+03  0.00000000000E+00 0.  1.
          6    1    1    2  502    0 -0.20575776307E+03  0.20026659710E+02 -0.97693775313E+02  0.28672355658E+03  0.17300000000E+03 0. -1.
         -6    1    1    2    0  501  0.20575776307E+03 -0.20026659710E+02 -0.76834331031E+02  0.28030311912E+03  0.17300000000E+03 0.  1.
</event>
<event>
 4    1  0.5880538E-001  0.1000000E+03  0.7546771E-02  0.1280296E+00
         -1   -1    0    0    0  501 -0.00000000000E+00  0.00000000000E+00  0.66040127213E+02  0.66040127213E+02  0.00000000000E+00 0. -1.
          1   -1    0    0  502    0  0.00000000000E+00 -0.00000000000E+00 -0.85389051301E+03  0.85389051301E+03  0.00000000000E+00 0.  1.
          6    1    1    2  502    0  0.10454875292E+03 -0.81612176474E+01 -0.63480194021E+03  0.66625787087E+03  0.17300000000E+03 0. -1.
         -6    1    1    2    0  501 -0.10454875292E+03  0.81612176474E+01 -0.15304844559E+03  0.25367276934E+03  0.17300000000E+03 0. -1.
</event>
<event>
 4    1  0.5880538E-001  0.1000000E+03  0.7546771E-02  0.1280296E+00
         -1   -1    0    0    0  501 -0.00000000000E+00  0.00000000000E+00  0.12122251295E+03  0.12122251295E+03  0.00000000000E+00 0. -1.
          1   -1    0    0  502    0  0.00000000000E+00 -0.00000000000E+00 -0.27171768921E+03  0.27171768921E+03  0.00000000000E+00 0.  1.
          6    1    1    2  502    0 -0.54578736684E+02 -0.29572207498E+01 -0.80292461352E+02  0.19840227570E+03  0.17300000000E+03 0. -1.
         -6    1    1    2    0  501  0.54578736684E+02  0.29572207498E+01 -0.70202714912E+02  0.19453792647E+03  0.17300000000E+03 0. -1.
</event>
<event>
 4    1  0.5880538E-001  0.1000000E+03  0.7546771E-02  0.1280296E+00
          1   -1    0    0  502    0  0.00000000000E+00  0.00000000000E+00  0.10783715441E+04  0.10783715441E+04  0.00000000000E+00 0. -1.
         -1   -1    0    0    0  501 -0.00000000000E+00 -0.00000000000E+00 -0.77672070218E+03  0.77672070218E+03  0.00000000000E+00 0.  1.
          6    1    1    2  502    0  0.25913498683E+03 -0.45688199899E+03 -0.58823809069E+03  0.80736927965E+03  0.17300000000E+03 0.  1.
         -6    1    1    2    0  501 -0.25913498683E+03  0.45688199899E+03  0.88988893256E+03  0.10477229666E+04  0.17300000000E+03 0. -1.
</event>
<event>
 4    1  0.5880538E-001  0.1000000E+03  0.7546771E-02  0.1280296E+00
         -1   -1    0    0    0  501 -0.00000000000E+00  0.00000000000E+00  0.41530555266E+03  0.41530555266E+03  0.00000000000E+00 0. -1.
          1   -1    0    0  502    0  0.00000000000E+00 -0.00000000000E+00 -0.54166996144E+03  0.54166996144E+03  0.00000000000E+00 0.  1.
          6    1    1    2  502    0 -0.10445421197E+02  0.14351600131E+03  0.35802682227E+03  0.42286895715E+03  0.17300000000E+03 0.  1.
         -6    1    1    2    0  501  0.10445421197E+02 -0.14351600131E+03 -0.48439123105E+03  0.53410655695E+03  0.17300000000E+03 0. -1.
</event>
<event>
 4    1  0.5880538E-001  0.1000000E+03  0.7546771E-02  0.1280296E+00
         -2   -1    0    0    0  501 -0.00000000000E+00  0.00000000000E+00  0.22819240151E+03  0.22819240151E+03  0.00000000000E+00 0. -1.
          2   -1    0    0  502    0  0.00000000000E+00 -0.00000000000E+00 -0.31429508717E+03  0.31429508717E+03  0.00000000000E+00 0.  1.
          6    1    1    2  502    0 -0.88896577276E+02  0.80770832534E+02 -0.21059650678E+03  0.29783622599E+03  0.17300000000E+03 0.  1.
         -6    1    1    2    0  501  0.88896577276E+02 -0.80770832534E+02  0.12449382113E+03  0.24465126270E+03  0.17300000000E+03 0. -1.
</event>
<event>
 4    1  0.5880538E-001  0.1000000E+03  0.7546771E-02  0.1280296E+00
         -1   -1    0    0    0  501 -0.00000000000E+00  0.00000000000E+00  0.17346263600E+03  0.17346263600E+03  0.00000000000E+00 0. -1.
          1   -1    0    0  502    0  0.00000000000E+00 -0.00000000000E+00 -0.28243362717E+03  0.28243362717E+03  0.00000000000E+00 0.  1.
          6    1    1    2  502    0 -0.71715300056E+02 -0.11521445256E+03 -0.28325891181E+02  0.22169530995E+03  0.17300000000E+03 0.  1.
         -6    1    1    2    0  501  0.71715300056E+02  0.11521445256E+03 -0.80645099986E+02  0.23420095323E+03  0.17300000000E+03 0. -1.
</event>
<event>
 4    1  0.5880538E-001  0.1000000E+03  0.7546771E-02  0.1280296E+00
         -1   -1    0    0    0  501 -0.00000000000E+00  0.00000000000E+00  0.30238802448E+03  0.30238802448E+03  0.00000000000E+00 0. -1.
          1   -1    0    0  502    0  0.00000000000E+00 -0.00000000000E+00 -0.18061187452E+03  0.18061187452E+03  0.00000000000E+00 0.  1.
          6    1    1    2  502    0  0.10645670571E+03  0.69384614579E+02  0.15637749721E+03  0.26557518062E+03  0.17300000000E+03 0.  1.
         -6    1    1    2    0  501 -0.10645670571E+03 -0.69384614579E+02 -0.34601347241E+02  0.21742471838E+03  0.17300000000E+03 0. -1.
</event>
<event>
 4    1  0.5880538E-001  0.1000000E+03  0.7546771E-02  0.1280296E+00
         -2   -1    0    0    0  501 -0.00000000000E+00  0.00000000000E+00  0.11975023285E+03  0.11975023285E+03  0.00000000000E+00 0.  1.
          2   -1    0    0  502    0  0.00000000000E+00 -0.00000000000E+00 -0.65285692785E+03  0.65285692785E+03  0.00000000000E+00 0. -1.
          6    1    1    2  502    0 -0.67890120455E+02  0.16155227338E+03 -0.44954364865E+03  0.51256872469E+03  0.17300000000E+03 0. -1.
         -6    1    1    2    0  501  0.67890120455E+02 -0.16155227338E+03 -0.83563046357E+02  0.26003843602E+03  0.17300000000E+03 0.  1.
</event>
<event>
 4    1  0.5880538E-001  0.1000000E+03  0.7546771E-02  0.1280296E+00
         -4   -1    0    0    0  501 -0.00000000000E+00  0.00000000000E+00  0.55028276976E+02  0.55028276976E+02  0.00000000000E+00 0. -1.
          4   -1    0    0  502    0  0.00000000000E+00 -0.00000000000E+00 -0.14758806233E+04  0.14758806233E+04  0.00000000000E+00 0.  1.
          6    1    1    2  502    0  0.92804061039E+01 -0.16521200253E+03 -0.11257104424E+04  0.11508840653E+04  0.17300000000E+03 0.  1.
         -6    1    1    2    0  501 -0.92804061039E+01  0.16521200253E+03 -0.29514190392E+03  0.38002483494E+03  0.17300000000E+03 0. -1.
</event>
<event>
 4    1  0.5880538E-001  0.1000000E+03  0.7546771E-02  0.1280296E+00
         -1   -1    0    0    0  501 -0.00000000000E+00  0.00000000000E+00  0.46053805188E+03  0.46053805188E+03  0.00000000000E+00 0.  1.
          1   -1    0    0  502    0  0.00000000000E+00 -0.00000000000E+00 -0.28698838666E+03  0.28698838666E+03  0.00000000000E+00 0. -1.
          6    1    1    2  502    0  0.16385622724E+03 -0.27457157804E+03  0.85451096012E+02  0.37345589363E+03  0.17300000000E+03 0.  1.
         -6    1    1    2    0  501 -0.16385622724E+03  0.27457157804E+03  0.88098569210E+02  0.37407054491E+03  0.17300000000E+03 0. -1.
</event>
<event>
 4    1  0.5880538E-001  0.1000000E+03  0.7546771E-02  0.1280296E+00
          3   -1    0    0  502    0  0.00000000000E+00  0.00000000000E+00  0.20749348400E+04  0.20749348400E+04  0.00000000000E+00 0. -1.
         -3   -1    0    0    0  501 -0.00000000000E+00 -0.00000000000E+00 -0.31379354544E+02  0.31379354544E+02  0.00000000000E+00 0.  1.
          6    1    1    2  502    0 -0.13608872777E+01  0.10728888406E+03  0.16567474422E+04  0.16692075497E+04  0.17300000000E+03 0. -1.
         -6    1    1    2    0  501  0.13608872777E+01 -0.10728888406E+03  0.38680804323E+03  0.43710664484E+03  0.17300000000E+03 0.  1.
</event>
<event>
 4    1  0.5880538E-001  0.1000000E+03  0.7546771E-02  0.1280296E+00
          1   -1    0    0  502    0  0.00000000000E+00  0.00000000000E+00  0.39879812715E+03  0.39879812715E+03  0.00000000000E+00 0. -1.
         -1   -1    0    0    0  501 -0.00000000000E+00 -0.00000000000E+00 -0.95032516093E+02  0.95032516093E+02  0.00000000000E+00 0.  1.
          6    1    1    2  502    0 -0.68721781776E+01 -0.86321107778E+02  0.17941566733E+03  0.26385136377E+03  0.17300000000E+03 0. -1.
         -6    1    1    2    0  501  0.68721781776E+01  0.86321107778E+02  0.12434994373E+03  0.22997927947E+03  0.17300000000E+03 0.  1.
</event>
<event>
 4    1  0.5880538E-001  0.1000000E+03  0.7546771E-02  0.1280296E+00
         -2   -1    0    0    0  501 -0.00000000000E+00  0.00000000000E+00  0.86863165470E+01  0.86863165470E+01  0.00000000000E+00 0.  1.
          2   -1    0    0  502    0  0.00000000000E+00 -0.00000000000E+00 -0.35912835647E+04  0.35912835647E+04  0.00000000000E+00 0. -1.
          6    1    1    2  502    0 -0.35322822779E+02  0.42766637949E+01 -0.17894141882E+04  0.17981095986E+04  0.17300000000E+03 0.  1.
         -6    1    1    2    0  501  0.35322822779E+02 -0.42766637949E+01 -0.17931830600E+04  0.18018602827E+04  0.17300000000E+03 0.  1.
</event>
<event>
 4    1  0.5880538E-001  0.1000000E+03  0.7546771E-02  0.1280296E+00
         -1   -1    0    0    0  501 -0.00000000000E+00  0.00000000000E+00  0.63159818540E+03  0.63159818540E+03  0.00000000000E+00 0.  1.
          1   -1    0    0  502    0  0.00000000000E+00 -0.00000000000E+00 -0.54674817640E+02  0.54674817640E+02  0.00000000000E+00 0. -1.
          6    1    1    2  502    0 -0.64261188306E+01  0.55628743574E+02  0.21772152082E+03  0.28366796214E+03  0.17300000000E+03 0. -1.
         -6    1    1    2    0  501  0.64261188306E+01 -0.55628743574E+02  0.35920184693E+03  0.40260504090E+03  0.17300000000E+03 0.  1.
</event>
<event>
 4    1  0.5880538E-001  0.1000000E+03  0.7546771E-02  0.1280296E+00
         -1   -1    0    0    0  501 -0.00000000000E+00  0.00000000000E+00  0.16096729255E+03  0.16096729255E+03  0.00000000000E+00 0. -1.
          1   -1    0    0  502    0  0.00000000000E+00 -0.00000000000E+00 -0.20400797655E+03  0.20400797655E+03  0.00000000000E+00 0.  1.
          6    1    1    2  502    0 -0.44250008605E+02 -0.41948563343E+01  0.92550238617E+01  0.17885836729E+03  0.17300000000E+03 0.  1.
         -6    1    1    2    0  501  0.44250008605E+02  0.41948563343E+01 -0.52295707855E+02  0.18611690182E+03  0.17300000000E+03 0. -1.
</event>
<event>
 4    1  0.5880538E-001  0.1000000E+03  0.7546771E-02  0.1280296E+00
         -1   -1    0    0    0  501 -0.00000000000E+00  0.00000000000E+00  0.73215233162E+02  0.73215233162E+02  0.00000000000E+00 0. -1.
          1   -1    0    0  502    0  0.00000000000E+00 -0.00000000000E+00 -0.71985115121E+03  0.71985115121E+03  0.00000000000E+00 0.  1.
          6    1    1    2  502    0 -0.97125986850E+02  0.17291348883E+02 -0.12605755410E+03  0.23569462237E+03  0.17300000000E+03 0.  1.
         -6    1    1    2    0  501  0.97125986850E+02 -0.17291348883E+02 -0.52057836395E+03  0.55737176201E+03  0.17300000000E+03 0. -1.
</event>
<event>
 4    1  0.5880538E-001  0.1000000E+03  0.7546771E-02  0.1280296E+00
         -2   -1    0    0    0  501 -0.00000000000E+00  0.00000000000E+00  0.19712868626E+02  0.19712868626E+02  0.00000000000E+00 0. -1.
          2   -1    0    0  502    0  0.00000000000E+00 -0.00000000000E+00 -0.45660373045E+04  0.45660373045E+04  0.00000000000E+00 0.  1.
          6    1    1    2  502    0  0.89167799059E+01  0.59703583073E+02 -0.45757786306E+03  0.49290011925E+03  0.17300000000E+03 0.  1.
         -6    1    1    2    0  501 -0.89167799059E+01 -0.59703583073E+02 -0.40887465728E+04  0.40928500539E+04  0.17300000000E+03 0. -1.
</event>
<event>
 4    1  0.5880538E-001  0.1000000E+03  0.7546771E-02  0.1280296E+00
          2   -1    0    0  502    0  0.00000000000E+00  0.00000000000E+00  0.69847452899E+03  0.69847452899E+03  0.00000000000E+00 0. -1.
         -2   -1    0    0    0  501 -0.00000000000E+00 -0.00000000000E+00 -0.83315270285E+02  0.83315270285E+02  0.00000000000E+00 0.  1.
          6    1    1    2  502    0 -0.48656552802E+02  0.12229141149E+03  0.13807964151E+03  0.25752210945E+03  0.17300000000E+03 0. -1.
         -6    1    1    2    0  501  0.48656552802E+02 -0.12229141149E+03  0.47707961719E+03  0.52426768983E+03  0.17300000000E+03 0. -1.
</event>
<event>
 4    1  0.5880538E-001  0.1000000E+03  0.7546771E-02  0.1280296E+00
          2   -1    0    0  502    0  0.00000000000E+00  0.00000000000E+00  0.34424698217E+04  0.34424698217E+04  0.00000000000E+00 0. -1.
         -2   -1    0    0    0  501 -0.00000000000E+00 -0.00000000000E+00 -0.16283152869E+02  0.16283152869E+02  0.00000000000E+00 0.  1.
          6    1    1    2  502    0  0.11574143752E+02  0.15686594516E+03  0.19848701372E+04  0.19985943428E+04  0.17300000000E+03 0. -1.
         -6    1    1    2    0  501 -0.11574143752E+02 -0.15686594516E+03  0.14413165316E+04  0.14601586317E+04  0.17300000000E+03 0.  1.
</event>
<event>
 4    1  0.5880538E-001  0.1000000E+03  0.7546771E-02  0.1280296E+00
          2   -1    0    0  502    0  0.00000000000E+00  0.00000000000E+00  0.50107804923E+03  0.50107804923E+03  0.00000000000E+00 0. -1.
         -2   -1    0    0    0  501 -0.00000000000E+00 -0.00000000000E+00 -0.12652054758E+03  0.12652054758E+03  0.00000000000E+00 0.  1.
          6    1    1    2  502    0 -0.15239754464E+03 -0.10061752096E+03  0.20086112989E+03  0.32190540635E+03  0.17300000000E+03 0. -1.
         -6    1    1    2    0  501  0.15239754464E+03  0.10061752096E+03  0.17369637176E+03  0.30569319047E+03  0.17300000000E+03 0.  1.
</event>
<event>
 4    1  0.5880538E-001  0.1000000E+03  0.7546771E-02  0.1280296E+00
          2   -1    0    0  502    0  0.00000000000E+00  0.00000000000E+00  0.11265957839E+04  0.11265957839E+04  0.00000000000E+00 0. -1.
         -2   -1    0    0    0  501 -0.00000000000E+00 -0.00000000000E+00 -0.14315115392E+04  0.14315115392E+04  0.00000000000E+00 0.  1.
          6    1    1    2  502    0  0.71824136853E+03  0.10287901104E+04 -0.59457921182E+02  0.12679684535E+04  0.17300000000E+03 0. -1.
         -6    1    1    2    0  501 -0.71824136853E+03 -0.10287901104E+04 -0.24545783405E+03  0.12901388696E+04  0.17300000000E+03 0.  1.
</event>
<event>
 4    1  0.5880538E-001  0.1000000E+03  0.7546771E-02  0.1280296E+00
          2   -1    0    0  502    0  0.00000000000E+00  0.00000000000E+00  0.42128348496E+03  0.42128348496E+03  0.00000000000E+00 0. -1.
         -2   -1    0    0    0  501 -0.00000000000E+00 -0.00000000000E+00 -0.98663553203E+02  0.98663553203E+02  0.00000000000E+00 0.  1.
          6    1    1    2  502    0 -0.92846454248E+02  0.32902787313E+02  0.21737725483E+03  0.29476249489E+03  0.17300000000E+03 0. -1.
         -6    1    1    2    0  501  0.92846454248E+02 -0.32902787313E+02  0.10524267693E+03  0.22518454327E+03  0.17300000000E+03 0.  1.
</event>
<event>
 4    1  0.5880538E-001  0.1000000E+03  0.7546771E-02  0.1280296E+00
         -2   -1    0    0    0  501 -0.00000000000E+00  0.00000000000E+00  0.12060977744E+03  0.12060977744E+03  0.00000000000E+00 0.  1.
          2   -1    0    0  502    0  0.00000000000E+00 -0.00000000000E+00 -0.16252397653E+04  0.16252397653E+04  0.00000000000E+00 0. -1.
          6    1    1    2  502    0  0.14454487320E+02 -0.45742663849E+02 -0.15502542762E+04  0.15606148290E+04  0.17300000000E+03 0. -1.
         -6    1    1    2    0  501 -0.14454487320E+02  0.45742663849E+02  0.45624288353E+02  0.18523471378E+03  0.17300000000E+03 0.  1.
</event>
<event>
 4    1  0.5880538E-001  0.1000000E+03  0.7546771E-02  0.1280296E+00
         -1   -1    0    0    0  501 -0.00000000000E+00  0.00000000000E+00  0.11913252189E+04  0.11913252189E+04  0.00000000000E+00 0.  1.
          1   -1    0    0  502    0  0.00000000000E+00 -0.00000000000E+00 -0.64883805581E+02  0.64883805581E+02  0.00000000000E+00 0. -1.
          6    1    1    2  502    0  0.20070445623E+03 -0.84428262567E-01  0.37304182981E+03  0.45757129791E+03  0.17300000000E+03 0. -1.
         -6    1    1    2    0  501 -0.20070445623E+03  0.84428262567E-01  0.75339958350E+03  0.79863772657E+03  0.17300000000E+03 0.  1.
</event>
<event>
 4    1  0.5880538E-001  0.1000000E+03  0.7546771E-02  0.1280296E+00
         -1   -1    0    0    0  501 -0.00000000000E+00  0.00000000000E+00  0.59284258165E+02  0.59284258165E+02  0.00000000000E+00 0.  1.
          1   -1    0    0  502    0  0.00000000000E+00 -0.00000000000E+00 -0.60407457169E+03  0.60407457169E+03  0.00000000000E+00 0. -1.
          6    1    1    2  502    0  0.74473171224E+02 -0.16178509898E+02 -0.28758552031E+03  0.34415465841E+03  0.17300000000E+03 0. -1.
         -6    1    1    2    0  501 -0.74473171224E+02  0.16178509898E+02 -0.25720479322E+03  0.31920417144E+03  0.17300000000E+03 0.  1.
</event>
<event>
 4    1  0.5880538E-001  0.1000000E+03  0.7546771E-02  0.1280296E+00
         -1   -1    0    0    0  501 -0.00000000000E+00  0.00000000000E+00  0.54312518735E+03  0.54312518735E+03  0.00000000000E+00 0. -1.
          1   -1    0    0  502    0  0.00000000000E+00 -0.00000000000E+00 -0.63771908368E+02  0.63771908368E+02  0.00000000000E+00 0.  1.
          6    1    1    2  502    0 -0.47727320192E+01  0.13530821297E+02  0.13028407579E+03  0.21704562308E+03  0.17300000000E+03 0. -1.
         -6    1    1    2    0  501  0.47727320192E+01 -0.13530821297E+02  0.34906920319E+03  0.38985147263E+03  0.17300000000E+03 0.  1.
</event>
<event>
 4    1  0.5880538E-001  0.1000000E+03  0.7546771E-02  0.1280296E+00
         -1   -1    0    0    0  501 -0.00000000000E+00  0.00000000000E+00  0.23036670767E+03  0.23036670767E+03  0.00000000000E+00 0. -1.
          1   -1    0    0  502    0  0.00000000000E+00 -0.00000000000E+00 -0.24373652871E+03  0.24373652871E+03  0.00000000000E+00 0.  1.
          6    1    1    2  502    0  0.36203778625E+02  0.40833471970E+02 -0.15919783909E+03  0.24135251809E+03  0.17300000000E+03 0. -1.
         -6    1    1    2    0  501 -0.36203778625E+02 -0.40833471970E+02  0.14582801804E+03  0.23275071829E+03  0.17300000000E+03 0.  1.
</event>
<event>
 4    1  0.5880538E-001  0.1000000E+03  0.7546771E-02  0.1280296E+00
          2   -1    0    0  502    0  0.00000000000E+00  0.00000000000E+00  0.54317611709E+03  0.54317611709E+03  0.00000000000E+00 0.  1.
         -2   -1    0    0    0  501 -0.00000000000E+00 -0.00000000000E+00 -0.11508844432E+03  0.11508844432E+03  0.00000000000E+00 0. -1.
          6    1    1    2  502    0 -0.14997213556E+03  0.24774872072E+02  0.85880941608E+02  0.24578440118E+03  0.17300000000E+03 0. -1.
         -6    1    1    2    0  501  0.14997213556E+03 -0.24774872072E+02  0.34220673117E+03  0.41248016023E+03  0.17300000000E+03 0.  1.
</event>
<event>
 4    1  0.5880538E-001  0.1000000E+03  0.7546771E-02  0.1280296E+00
          1   -1    0    0  502    0  0.00000000000E+00  0.00000000000E+00  0.84957621150E+03  0.84957621150E+03  0.00000000000E+00 0.  1.
         -1   -1    0    0    0  501 -0.00000000000E+00 -0.00000000000E+00 -0.50813452691E+02  0.50813452691E+02  0.00000000000E+00 0. -1.
          6    1    1    2  502    0  0.52615566734E+02  0.43064172531E+02  0.60052798911E+03  0.62863804095E+03  0.17300000000E+03 0. -1.
         -6    1    1    2    0  501 -0.52615566734E+02 -0.43064172531E+02  0.19823476969E+03  0.27175162324E+03  0.17300000000E+03 0.  1.
</event>
<event>
 4    1  0.5880538E-001  0.1000000E+03  0.7546771E-02  0.1280296E+00
          1   -1    0    0  502    0  0.00000000000E+00  0.00000000000E+00  0.55756426501E+03  0.55756426501E+03  0.00000000000E+00 0.  1.
         -1   -1    0    0    0  501 -0.00000000000E+00 -0.00000000000E+00 -0.75279492835E+02  0.75279492835E+02  0.00000000000E+00 0. -1.
          6    1    1    2  502    0 -0.19584225277E+02  0.49415071110E+02  0.38943415464E+03  0.42943375733E+03  0.17300000000E+03 0. -1.
         -6    1    1    2    0  501  0.19584225277E+02 -0.49415071110E+02  0.92850617530E+02  0.20341000051E+03  0.17300000000E+03 0.  1.
</event>
<event>
 4    1  0.5880538E-001  0.1000000E+03  0.7546771E-02  0.1280296E+00
          2   -1    0    0  502    0  0.00000000000E+00  0.00000000000E+00  0.87636948153E+03  0.87636948153E+03  0.00000000000E+00 0. -1.
         -2   -1    0    0    0  501 -0.00000000000E+00 -0.00000000000E+00 -0.64124874435E+02  0.64124874435E+02  0.00000000000E+00 0.  1.
          6    1    1    2  502    0 -0.15489631662E+03 -0.28880804934E+02  0.48142635706E+03  0.53528245541E+03  0.17300000000E+03 0. -1.
         -6    1    1    2    0  501  0.15489631662E+03  0.28880804934E+02  0.33081825003E+03  0.40521190056E+03  0.17300000000E+03 0. -1.
</event>
<event>
 4    1  0.5880538E-001  0.1000000E+03  0.7546771E-02  0.1280296E+00
          2   -1    0    0  502    0  0.00000000000E+00  0.00000000000E+00  0.18206775427E+04  0.18206775427E+04  0.00000000000E+00 0. -1.
         -2   -1    0    0    0  501 -0.00000000000E+00 -0.00000000000E+00 -0.53997582049E+02  0.53997582049E+02  0.00000000000E+00 0.  1.
          6    1    1    2  502    0  0.18735837306E+02 -0.25543739889E+03  0.72560853721E+03  0.78869261796E+03  0.17300000000E+03 0. -1.
         -6    1    1    2    0  501 -0.18735837306E+02  0.25543739889E+03  0.10410714235E+04  0.10859825068E+04  0.17300000000E+03 0. -1.
</event>
<event>
 4    1  0.5880538E-001  0.1000000E+03  0.7546771E-02  0.1280296E+00
          1   -1    0    0  502    0  0.00000000000E+00  0.00000000000E+00  0.46591097290E+03  0.46591097290E+03  0.00000000000E+00 0. -1.
         -1   -1    0    0    0  501 -0.00000000000E+00 -0.00000000000E+00 -0.35769526317E+03  0.35769526317E+03  0.00000000000E+00 0.  1.
          6    1    1    2  502    0 -0.33070996905E+03  0.10076032873E+03  0.18641672790E+03  0.42918751603E+03  0.17300000000E+03 0. -1.
         -6    1    1    2    0  501  0.33070996905E+03 -0.10076032873E+03 -0.78201018167E+02  0.39441872004E+03  0.17300000000E+03 0. -1.
</event>
<event>
 4    1  0.5880538E-001  0.1000000E+03  0.7546771E-02  0.1280296E+00
          2   -1    0    0  502    0  0.00000000000E+00  0.00000000000E+00  0.12536442151E+03  0.12536442151E+03  0.00000000000E+00 0. -1.
         -2   -1    0    0    0  501 -0.00000000000E+00 -0.00000000000E+00 -0.43782526170E+03  0.43782526170E+03  0.00000000000E+00 0.  1.
          6    1    1    2  502    0 -0.70532102807E+02 -0.12775135222E+03 -0.22898104436E+03  0.32195730182E+03  0.17300000000E+03 0. -1.
         -6    1    1    2    0  501  0.70532102807E+02  0.12775135222E+03 -0.83479795834E+02  0.24123238139E+03  0.17300000000E+03 0. -1.
</event>
<event>
 4    1  0.5880538E-001  0.1000000E+03  0.7546771E-02  0.1280296E+00
         -2   -1    0    0    0  501 -0.00000000000E+00  0.00000000000E+00  0.53152072284E+02  0.53152072284E+02  0.00000000000E+00 0. -1.
          2   -1    0    0  502    0  0.00000000000E+00 -0.00000000000E+00 -0.77404986702E+03  0.77404986702E+03  0.00000000000E+00 0.  1.
          6    1    1    2  502    0  0.47563954386E+02 -0.76301235882E+02 -0.24638455529E+03  0.31419509455E+03  0.17300000000E+03 0. -1.
         -6    1    1    2    0  501 -0.47563954386E+02  0.76301235882E+02 -0.47451323945E+03  0.51300684476E+03  0.17300000000E+03 0.  1.
</event>
<event>
 4    1  0.5880538E-001  0.1000000E+03  0.7546771E-02  0.1280296E+00
         -1   -1    0    0    0  501 -0.00000000000E+00  0.00000000000E+00  0.19922394910E+03  0.19922394910E+03  0.00000000000E+00 0. -1.
          1   -1    0    0  502    0  0.00000000000E+00 -0.00000000000E+00 -0.20498011411E+03  0.20498011411E+03  0.00000000000E+00 0.  1.
          6    1    1    2  502    0  0.62787656357E+02 -0.52558681623E+02  0.61960915015E+02  0.20117867629E+03  0.17300000000E+03 0. -1.
         -6    1    1    2    0  501 -0.62787656357E+02  0.52558681623E+02 -0.67717080022E+02  0.20302538691E+03  0.17300000000E+03 0.  1.
</event>
<event>
 4    1  0.5880538E-001  0.1000000E+03  0.7546771E-02  0.1280296E+00
         -1   -1    0    0    0  501 -0.00000000000E+00  0.00000000000E+00  0.36152624492E+02  0.36152624492E+02  0.00000000000E+00 0. -1.
          1   -1    0    0  502    0  0.00000000000E+00 -0.00000000000E+00 -0.38185891556E+04  0.38185891556E+04  0.00000000000E+00 0.  1.
          6    1    1    2  502    0  0.10513199933E+03 -0.13758970291E+03 -0.33412544076E+04  0.33502080055E+04  0.17300000000E+03 0. -1.
         -6    1    1    2    0  501 -0.10513199933E+03  0.13758970291E+03 -0.44118212352E+03  0.50453377463E+03  0.17300000000E+03 0.  1.
</event>
<event>
 4    1  0.5880538E-001  0.1000000E+03  0.7546771E-02  0.1280296E+00
         -1   -1    0    0    0  501 -0.00000000000E+00  0.00000000000E+00  0.11721538228E+03  0.11721538228E+03  0.00000000000E+00 0. -1.
          1   -1    0    0  502    0  0.00000000000E+00 -0.00000000000E+00 -0.12282597760E+04  0.12282597760E+04  0.00000000000E+00 0.  1.
          6    1    1    2  502    0  0.16986913585E+03  0.43416366773E+02 -0.10672446940E+04  0.10952993843E+04  0.17300000000E+03 0. -1.
         -6    1    1    2    0  501 -0.16986913585E+03 -0.43416366773E+02 -0.43799699703E+02  0.25017577403E+03  0.17300000000E+03 0.  1.
</event>
<event>
 4    1  0.5880538E-001  0.1000000E+03  0.7546771E-02  0.1280296E+00
         -2   -1    0    0    0  501 -0.00000000000E+00  0.00000000000E+00  0.10802737065E+03  0.10802737065E+03  0.00000000000E+00 0.  1.
          2   -1    0    0  502    0  0.00000000000E+00 -0.00000000000E+00 -0.70179244764E+03  0.70179244764E+03  0.00000000000E+00 0. -1.
          6    1    1    2  502    0 -0.72914914470E+01 -0.33296163818E+02  0.14108396011E+02  0.17688936432E+03  0.17300000000E+03 0. -1.
         -6    1    1    2    0  501  0.72914914470E+01  0.33296163818E+02 -0.60787347300E+03  0.63293045396E+03  0.17300000000E+03 0.  1.
</event>
<event>
 4    1  0.5880538E-001  0.1000000E+03  0.7546771E-02  0.1280296E+00
         -2   -1    0    0    0  501 -0.00000000000E+00  0.00000000000E+00  0.24250421288E+02  0.24250421288E+02  0.00000000000E+00 0.  1.
          2   -1    0    0  502    0  0.00000000000E+00 -0.00000000000E+00 -0.13374659752E+04  0.13374659752E+04  0.00000000000E+00 0. -1.
          6    1    1    2  502    0  0.37526853542E+02  0.24607951889E+00 -0.78181143382E+03  0.80160242224E+03  0.17300000000E+03 0. -1.
         -6    1    1    2    0  501 -0.37526853542E+02 -0.24607951889E+00 -0.53140412005E+03  0.56011397420E+03  0.17300000000E+03 0.  1.
</event>
<event>
 4    1  0.5880538E-001  0.1000000E+03  0.7546771E-02  0.1280296E+00
          2   -1    0    0  502    0  0.00000000000E+00  0.00000000000E+00  0.21843443697E+04  0.21843443697E+04  0.00000000000E+00 0. -1.
         -2   -1    0    0    0  501 -0.00000000000E+00 -0.00000000000E+00 -0.15187706339E+02  0.15187706339E+02  0.00000000000E+00 0.  1.
          6    1    1    2  502    0 -0.46601768040E+02  0.30221323448E+02  0.10079342371E+04  0.10241803940E+04  0.17300000000E+03 0. -1.
         -6    1    1    2    0  501  0.46601768040E+02 -0.30221323448E+02  0.11612224262E+04  0.11753516820E+04  0.17300000000E+03 0.  1.
</event>
<event>
 4    1  0.5880538E-001  0.1000000E+03  0.7546771E-02  0.1280296E+00
         -2   -1    0    0    0  501 -0.00000000000E+00  0.00000000000E+00  0.53811843522E+02  0.53811843522E+02  0.00000000000E+00 0. -1.
          2   -1    0    0  502    0  0.00000000000E+00 -0.00000000000E+00 -0.13757486004E+04  0.13757486004E+04  0.00000000000E+00 0.  1.
          6    1    1    2  502    0  0.10550956018E+03  0.17310391457E+03 -0.80498431740E+03  0.84795399863E+03  0.17300000000E+03 0. -1.
         -6    1    1    2    0  501 -0.10550956018E+03 -0.17310391457E+03 -0.51695243949E+03  0.58160644531E+03  0.17300000000E+03 0.  1.
</event>
<event>
 4    1  0.5880538E-001  0.1000000E+03  0.7546771E-02  0.1280296E+00
          2   -1    0    0  502    0  0.00000000000E+00  0.00000000000E+00  0.18041399828E+04  0.18041399828E+04  0.00000000000E+00 0.  1.
         -2   -1    0    0    0  501 -0.00000000000E+00 -0.00000000000E+00 -0.58595715925E+02  0.58595715925E+02  0.00000000000E+00 0. -1.
          6    1    1    2  502    0  0.11380239730E+03  0.23770175982E+02  0.15795959278E+03  0.26152674787E+03  0.17300000000E+03 0. -1.
         -6    1    1    2    0  501 -0.11380239730E+03 -0.23770175982E+02  0.15875846740E+04  0.16012089508E+04  0.17300000000E+03 0.  1.
</event>
<event>
 4    1  0.5880538E-001  0.1000000E+03  0.7546771E-02  0.1280296E+00
          2   -1    0    0  502    0  0.00000000000E+00  0.00000000000E+00  0.11510055304E+04  0.11510055304E+04  0.00000000000E+00 0.  1.
         -2   -1    0    0    0  501 -0.00000000000E+00 -0.00000000000E+00 -0.28500799647E+02  0.28500799647E+02  0.00000000000E+00 0. -1.
          6    1    1    2  502    0 -0.84338988519E+01  0.41624064320E+01  0.38935032888E+03  0.42615857949E+03  0.17300000000E+03 0. -1.
         -6    1    1    2    0  501  0.84338988519E+01 -0.41624064320E+01  0.73315440184E+03  0.75334775052E+03  0.17300000000E+03 0.  1.
</event>
<event>
 4    1  0.5880538E-001  0.1000000E+03  0.7546771E-02  0.1280296E+00
          2   -1    0    0  502    0  0.00000000000E+00  0.00000000000E+00  0.24244197155E+03  0.24244197155E+03  0.00000000000E+00 0.  1.
         -2   -1    0    0    0  501 -0.00000000000E+00 -0.00000000000E+00 -0.18350684817E+03  0.18350684817E+03  0.00000000000E+00 0. -1.
          6    1    1    2  502    0 -0.81682593960E+02  0.87546909112E+02  0.14346994761E+02  0.21088229824E+03  0.17300000000E+03 0. -1.
         -6    1    1    2    0  501  0.81682593960E+02 -0.87546909112E+02  0.44588128622E+02  0.21506652149E+03  0.17300000000E+03 0.  1.
</event>
<event>
 4    1  0.5880538E-001  0.1000000E+03  0.7546771E-02  0.1280296E+00
          2   -1    0    0  502    0  0.00000000000E+00  0.00000000000E+00  0.92152542898E+03  0.92152542898E+03  0.00000000000E+00 0.  1.
         -2   -1    0    0    0  501 -0.00000000000E+00 -0.00000000000E+00 -0.10114287512E+03  0.10114287512E+03  0.00000000000E+00 0. -1.
          6    1    1    2  502    0  0.19792894143E+03  0.14619681520E+03  0.32272221561E+03  0.44116663867E+03  0.17300000000E+03 0. -1.
         -6    1    1    2    0  501 -0.19792894143E+03 -0.14619681520E+03  0.49766033825E+03  0.58150166543E+03  0.17300000000E+03 0.  1.
</event>
<event>
 4    1  0.5880538E-001  0.1000000E+03  0.7546771E-02  0.1280296E+00
          2   -1    0    0  502    0  0.00000000000E+00  0.00000000000E+00  0.37045732771E+04  0.37045732771E+04  0.00000000000E+00 0.  1.
         -2   -1    0    0    0  501 -0.00000000000E+00 -0.00000000000E+00 -0.38893556766E+02  0.38893556766E+02  0.00000000000E+00 0. -1.
          6    1    1    2  502    0 -0.11393250035E+03 -0.31578853943E+03  0.20207376134E+04  0.20557267616E+04  0.17300000000E+03 0. -1.
         -6    1    1    2    0  501  0.11393250035E+03  0.31578853943E+03  0.16449421070E+04  0.16877400723E+04  0.17300000000E+03 0.  1.
</event>
<event>
 4    1  0.5880538E-001  0.1000000E+03  0.7546771E-02  0.1280296E+00
          2   -1    0    0  502    0  0.00000000000E+00  0.00000000000E+00  0.10261508040E+04  0.10261508040E+04  0.00000000000E+00 0.  1.
         -2   -1    0    0    0  501 -0.00000000000E+00 -0.00000000000E+00 -0.13116444815E+03  0.13116444815E+03  0.00000000000E+00 0. -1.
          6    1    1    2  502    0  0.87111440221E+02  0.30751519952E+03  0.36844809375E+03  0.51752970808E+03  0.17300000000E+03 0.  1.
         -6    1    1    2    0  501 -0.87111440221E+02 -0.30751519952E+03  0.52653826206E+03  0.63978554404E+03  0.17300000000E+03 0. -1.
</event>
<event>
 4    1  0.5880538E-001  0.1000000E+03  0.7546771E-02  0.1280296E+00
         -1   -1    0    0    0  501 -0.00000000000E+00  0.00000000000E+00  0.33888352609E+03  0.33888352609E+03  0.00000000000E+00 0.  1.
          1   -1    0    0  502    0  0.00000000000E+00 -0.00000000000E+00 -0.94152918182E+02  0.94152918182E+02  0.00000000000E+00 0. -1.
          6    1    1    2  502    0  0.38070166899E+02 -0.85763277033E+01  0.14822059265E+03  0.23113034221E+03  0.17300000000E+03 0. -1.
         -6    1    1    2    0  501 -0.38070166899E+02  0.85763277033E+01  0.96510015258E+02  0.20190610206E+03  0.17300000000E+03 0.  1.
</event>
<event>
 4    1  0.5880538E-001  0.1000000E+03  0.7546771E-02  0.1280296E+00
         -3   -1    0    0    0  501 -0.00000000000E+00  0.00000000000E+00  0.68307626278E+02  0.68307626278E+02  0.00000000000E+00 0.  1.
          3   -1    0    0  502    0  0.00000000000E+00 -0.00000000000E+00 -0.57568400408E+03  0.57568400408E+03  0.00000000000E+00 0. -1.
          6    1    1    2  502    0 -0.70743557068E+01 -0.77429534278E+02 -0.15971673642E+03  0.24795930146E+03  0.17300000000E+03 0. -1.
         -6    1    1    2    0  501  0.70743557068E+01  0.77429534278E+02 -0.34765964138E+03  0.39603232890E+03  0.17300000000E+03 0.  1.
</event>
<event>
 4    1  0.5880538E-001  0.1000000E+03  0.7546771E-02  0.1280296E+00
          2   -1    0    0  502    0  0.00000000000E+00  0.00000000000E+00  0.12112578180E+04  0.12112578180E+04  0.00000000000E+00 0. -1.
         -2   -1    0    0    0  501 -0.00000000000E+00 -0.00000000000E+00 -0.35044198710E+02  0.35044198710E+02  0.00000000000E+00 0.  1.
          6    1    1    2  502    0 -0.37354083160E+02 -0.10412281238E+03  0.63886882256E+03  0.67105831343E+03  0.17300000000E+03 0. -1.
         -6    1    1    2    0  501  0.37354083160E+02  0.10412281238E+03  0.53734479674E+03  0.57524370329E+03  0.17300000000E+03 0.  1.
</event>
<event>
 4    1  0.5880538E-001  0.1000000E+03  0.7546771E-02  0.1280296E+00
          2   -1    0    0  502    0  0.00000000000E+00  0.00000000000E+00  0.73879877574E+03  0.73879877574E+03  0.00000000000E+00 0. -1.
         -2   -1    0    0    0  501 -0.00000000000E+00 -0.00000000000E+00 -0.65074943247E+02  0.65074943247E+02  0.00000000000E+00 0.  1.
          6    1    1    2  502    0  0.38037471446E+02 -0.11425317274E+03  0.22614995795E+03  0.30914954342E+03  0.17300000000E+03 0.  1.
         -6    1    1    2    0  501 -0.38037471446E+02  0.11425317274E+03  0.44757387455E+03  0.49472417557E+03  0.17300000000E+03 0.  1.
</event>
<event>
 4    1  0.5880538E-001  0.1000000E+03  0.7546771E-02  0.1280296E+00
          2   -1    0    0  502    0  0.00000000000E+00  0.00000000000E+00  0.86208428820E+03  0.86208428820E+03  0.00000000000E+00 0. -1.
         -2   -1    0    0    0  501 -0.00000000000E+00 -0.00000000000E+00 -0.42882564378E+02  0.42882564378E+02  0.00000000000E+00 0.  1.
          6    1    1    2  502    0  0.57963185266E+02  0.27349023427E+02  0.28217836998E+03  0.33713696388E+03  0.17300000000E+03 0.  1.
         -6    1    1    2    0  501 -0.57963185266E+02 -0.27349023427E+02  0.53702335384E+03  0.56782988870E+03  0.17300000000E+03 0.  1.
</event>
<event>
 4    1  0.5880538E-001  0.1000000E+03  0.7546771E-02  0.1280296E+00
          1   -1    0    0  502    0  0.00000000000E+00  0.00000000000E+00  0.11429584934E+04  0.11429584934E+04  0.00000000000E+00 0. -1.
         -1   -1    0    0    0  501 -0.00000000000E+00 -0.00000000000E+00 -0.68651486889E+02  0.68651486889E+02  0.00000000000E+00 0.  1.
          6    1    1    2  502    0  0.10366605888E+03 -0.18604887129E+03  0.41527403575E+03  0.49773723895E+03  0.17300000000E+03 0.  1.
         -6    1    1    2    0  501 -0.10366605888E+03  0.18604887129E+03  0.65903297078E+03  0.71387274135E+03  0.17300000000E+03 0.  1.
</event>
<event>
 4    1  0.5880538E-001  0.1000000E+03  0.7546771E-02  0.1280296E+00
         -1   -1    0    0    0  501 -0.00000000000E+00  0.00000000000E+00  0.21945989389E+02  0.21945989389E+02  0.00000000000E+00 0. -1.
          1   -1    0    0  502    0  0.00000000000E+00 -0.00000000000E+00 -0.29930252826E+04  0.29930252826E+04  0.00000000000E+00 0.  1.
          6    1    1    2  502    0 -0.57418473411E+01 -0.68011712513E+02 -0.44829303867E+03  0.48533927347E+03  0.17300000000E+03 0.  1.
         -6    1    1    2    0  501  0.57418473411E+01  0.68011712513E+02 -0.25227862546E+04  0.25296319985E+04  0.17300000000E+03 0.  1.
</event>
<event>
 4    1  0.5880538E-001  0.1000000E+03  0.7546771E-02  0.1280296E+00
         -1   -1    0    0    0  501 -0.00000000000E+00  0.00000000000E+00  0.26670562790E+02  0.26670562790E+02  0.00000000000E+00 0. -1.
          1   -1    0    0  502    0  0.00000000000E+00 -0.00000000000E+00 -0.15448483671E+04  0.15448483671E+04  0.00000000000E+00 0.  1.
          6    1    1    2  502    0 -0.81645683852E+02  0.65055914356E+02 -0.68415744876E+03  0.71337136498E+03  0.17300000000E+03 0.  1.
         -6    1    1    2    0  501  0.81645683852E+02 -0.65055914356E+02 -0.83402035557E+03  0.85814756493E+03  0.17300000000E+03 0.  1.
</event>
<event>
 4    1  0.5880538E-001  0.1000000E+03  0.7546771E-02  0.1280296E+00
          2   -1    0    0  502    0  0.00000000000E+00  0.00000000000E+00  0.24833322824E+04  0.24833322824E+04  0.00000000000E+00 0. -1.
         -2   -1    0    0    0  501 -0.00000000000E+00 -0.00000000000E+00 -0.16812872473E+02  0.16812872473E+02  0.00000000000E+00 0.  1.
          6    1    1    2  502    0 -0.62811082350E+02 -0.88724821187E+02  0.12187525800E+04  0.12357605663E+04  0.17300000000E+03 0. -1.
         -6    1    1    2    0  501  0.62811082350E+02  0.88724821187E+02  0.12477668299E+04  0.12643845886E+04  0.17300000000E+03 0.  1.
</event>
<event>
 4    1  0.5880538E-001  0.1000000E+03  0.7546771E-02  0.1280296E+00
          1   -1    0    0  502    0  0.00000000000E+00  0.00000000000E+00  0.35169184255E+03  0.35169184255E+03  0.00000000000E+00 0. -1.
         -1   -1    0    0    0  501 -0.00000000000E+00 -0.00000000000E+00 -0.11959167336E+04  0.11959167336E+04  0.00000000000E+00 0.  1.
          6    1    1    2  502    0 -0.11726356018E+03 -0.57318352592E+03 -0.15968437740E+03  0.63064902863E+03  0.17300000000E+03 0. -1.
         -6    1    1    2    0  501  0.11726356018E+03  0.57318352592E+03 -0.68454051365E+03  0.91695954750E+03  0.17300000000E+03 0.  1.
</event>
<event>
 4    1  0.5880538E-001  0.1000000E+03  0.7546771E-02  0.1280296E+00
          2   -1    0    0  502    0  0.00000000000E+00  0.00000000000E+00  0.56041602792E+03  0.56041602792E+03  0.00000000000E+00 0. -1.
         -2   -1    0    0    0  501 -0.00000000000E+00 -0.00000000000E+00 -0.11389189796E+03  0.11389189796E+03  0.00000000000E+00 0.  1.
          6    1    1    2  502    0  0.78730289819E+02  0.84155717601E+02  0.31641798438E+02  0.21026375519E+03  0.17300000000E+03 0. -1.
         -6    1    1    2    0  501 -0.78730289819E+02 -0.84155717601E+02  0.41488233152E+03  0.46404417068E+03  0.17300000000E+03 0.  1.
</event>
<event>
 4    1  0.5880538E-001  0.1000000E+03  0.7546771E-02  0.1280296E+00
          1   -1    0    0  502    0  0.00000000000E+00  0.00000000000E+00  0.56404153088E+03  0.56404153088E+03  0.00000000000E+00 0.  1.
         -1   -1    0    0    0  501 -0.00000000000E+00 -0.00000000000E+00 -0.12729953424E+03  0.12729953424E+03  0.00000000000E+00 0. -1.
          6    1    1    2  502    0 -0.15742170788E+03  0.12313250697E+03  0.16169830654E+03  0.30986860235E+03  0.17300000000E+03 0. -1.
         -6    1    1    2    0  501  0.15742170788E+03 -0.12313250697E+03  0.27504369010E+03  0.38147246277E+03  0.17300000000E+03 0.  1.
</event>
<event>
 4    1  0.5880538E-001  0.1000000E+03  0.7546771E-02  0.1280296E+00
          1   -1    0    0  502    0  0.00000000000E+00  0.00000000000E+00  0.22671427975E+04  0.22671427975E+04  0.00000000000E+00 0.  1.
         -1   -1    0    0    0  501 -0.00000000000E+00 -0.00000000000E+00 -0.18631348660E+02  0.18631348660E+02  0.00000000000E+00 0. -1.
          6    1    1    2  502    0  0.46082203779E+02 -0.89513286168E+02  0.86493070999E+03  0.88778957585E+03  0.17300000000E+03 0. -1.
         -6    1    1    2    0  501 -0.46082203779E+02  0.89513286168E+02  0.13835807388E+04  0.13979845703E+04  0.17300000000E+03 0.  1.
</event>
<event>
 4    1  0.5880538E-001  0.1000000E+03  0.7546771E-02  0.1280296E+00
          1   -1    0    0  502    0  0.00000000000E+00  0.00000000000E+00  0.14285813044E+04  0.14285813044E+04  0.00000000000E+00 0. -1.
         -1   -1    0    0    0  501 -0.00000000000E+00 -0.00000000000E+00 -0.44864705925E+02  0.44864705925E+02  0.00000000000E+00 0.  1.
          6    1    1    2  502    0 -0.86149083354E+02  0.84812985688E+02  0.28498301331E+03  0.35462547142E+03  0.17300000000E+03 0. -1.
         -6    1    1    2    0  501  0.86149083354E+02 -0.84812985688E+02  0.10987335852E+04  0.11188205389E+04  0.17300000000E+03 0. -1.
</event>
<event>
 4    1  0.5880538E-001  0.1000000E+03  0.7546771E-02  0.1280296E+00
         -1   -1    0    0    0  501 -0.00000000000E+00  0.00000000000E+00  0.57900198983E+02  0.57900198983E+02  0.00000000000E+00 0. -1.
          1   -1    0    0  502    0  0.00000000000E+00 -0.00000000000E+00 -0.58127092696E+03  0.58127092696E+03  0.00000000000E+00 0.  1.
          6    1    1    2  502    0  0.44318715900E+02  0.27975101089E+01 -0.18871228212E+03  0.25983321586E+03  0.17300000000E+03 0. -1.
         -6    1    1    2    0  501 -0.44318715900E+02 -0.27975101089E+01 -0.33465844586E+03  0.37933791008E+03  0.17300000000E+03 0. -1.
</event>
<event>
 4    1  0.5880538E-001  0.1000000E+03  0.7546771E-02  0.1280296E+00
         -2   -1    0    0    0  501 -0.00000000000E+00  0.00000000000E+00  0.10018268451E+03  0.10018268451E+03  0.00000000000E+00 0. -1.
          2   -1    0    0  502    0  0.00000000000E+00 -0.00000000000E+00 -0.62765513091E+03  0.62765513091E+03  0.00000000000E+00 0.  1.
          6    1    1    2  502    0 -0.12329941822E+03 -0.12745934281E+03 -0.20748116967E+03  0.32315022261E+03  0.17300000000E+03 0. -1.
         -6    1    1    2    0  501  0.12329941822E+03  0.12745934281E+03 -0.31999127673E+03  0.40468759282E+03  0.17300000000E+03 0. -1.
</event>
<event>
 4    1  0.5880538E-001  0.1000000E+03  0.7546771E-02  0.1280296E+00
          2   -1    0    0  502    0  0.00000000000E+00  0.00000000000E+00  0.13679257333E+03  0.13679257333E+03  0.00000000000E+00 0. -1.
         -2   -1    0    0    0  501 -0.00000000000E+00 -0.00000000000E+00 -0.13157609300E+04  0.13157609300E+04  0.00000000000E+00 0.  1.
          6    1    1    2  502    0  0.31836212934E+03 -0.11225953463E+03 -0.91475121307E+03  0.99028048064E+03  0.17300000000E+03 0. -1.
         -6    1    1    2    0  501 -0.31836212934E+03  0.11225953463E+03 -0.26421714356E+03  0.46227302265E+03  0.17300000000E+03 0.  1.
</event>
<event>
 4    1  0.5880538E-001  0.1000000E+03  0.7546771E-02  0.1280296E+00
          2   -1    0    0  502    0  0.00000000000E+00  0.00000000000E+00  0.92967925285E+03  0.92967925285E+03  0.00000000000E+00 0. -1.
         -2   -1    0    0    0  501 -0.00000000000E+00 -0.00000000000E+00 -0.52384266915E+02  0.52384266915E+02  0.00000000000E+00 0.  1.
          6    1    1    2  502    0 -0.30475161316E+02  0.10356659567E+03  0.62635631409E+03  0.65871542216E+03  0.17300000000E+03 0. -1.
         -6    1    1    2    0  501  0.30475161316E+02 -0.10356659567E+03  0.25093867184E+03  0.32334809760E+03  0.17300000000E+03 0.  1.
</event>
<event>
 4    1  0.5880538E-001  0.1000000E+03  0.7546771E-02  0.1280296E+00
          1   -1    0    0  502    0  0.00000000000E+00  0.00000000000E+00  0.40544129338E+03  0.40544129338E+03  0.00000000000E+00 0. -1.
         -1   -1    0    0    0  501 -0.00000000000E+00 -0.00000000000E+00 -0.10541445234E+03  0.10541445234E+03  0.00000000000E+00 0.  1.
          6    1    1    2  502    0 -0.41220866931E+01 -0.91556937194E+02  0.67957796882E+02  0.20723640246E+03  0.17300000000E+03 0. -1.
         -6    1    1    2    0  501  0.41220866931E+01  0.91556937194E+02  0.23206904416E+03  0.30361934326E+03  0.17300000000E+03 0.  1.
</event>
<event>
 4    1  0.5880538E-001  0.1000000E+03  0.7546771E-02  0.1280296E+00
          2   -1    0    0  502    0  0.00000000000E+00  0.00000000000E+00  0.12187412320E+04  0.12187412320E+04  0.00000000000E+00 0.  1.
         -2   -1    0    0    0  501 -0.00000000000E+00 -0.00000000000E+00 -0.58587699357E+02  0.58587699357E+02  0.00000000000E+00 0. -1.
          6    1    1    2  502    0 -0.16173118611E+03  0.48914861162E+02  0.30835626109E+03  0.39187016212E+03  0.17300000000E+03 0. -1.
         -6    1    1    2    0  501  0.16173118611E+03 -0.48914861162E+02  0.85179727153E+03  0.88545876922E+03  0.17300000000E+03 0. -1.
</event>
<event>
 4    1  0.5880538E-001  0.1000000E+03  0.7546771E-02  0.1280296E+00
          2   -1    0    0  502    0  0.00000000000E+00  0.00000000000E+00  0.67662348169E+03  0.67662348169E+03  0.00000000000E+00 0.  1.
         -2   -1    0    0    0  501 -0.00000000000E+00 -0.00000000000E+00 -0.46361081187E+02  0.46361081187E+02  0.00000000000E+00 0. -1.
          6    1    1    2  502    0 -0.19977960495E+02  0.32230977317E+02  0.31804734362E+03  0.36403443187E+03  0.17300000000E+03 0. -1.
         -6    1    1    2    0  501  0.19977960495E+02 -0.32230977317E+02  0.31221505689E+03  0.35895013101E+03  0.17300000000E+03 0. -1.
</event>
<event>
 4    1  0.5880538E-001  0.1000000E+03  0.7546771E-02  0.1280296E+00
          2   -1    0    0  502    0  0.00000000000E+00  0.00000000000E+00  0.11868445061E+04  0.11868445061E+04  0.00000000000E+00 0.  1.
         -2   -1    0    0    0  501 -0.00000000000E+00 -0.00000000000E+00 -0.45820234707E+02  0.45820234707E+02  0.00000000000E+00 0. -1.
          6    1    1    2  502    0  0.49032214398E+02  0.86445894921E+02  0.88959265741E+03  0.91169136604E+03  0.17300000000E+03 0. -1.
         -6    1    1    2    0  501 -0.49032214398E+02 -0.86445894921E+02  0.25143161398E+03  0.32097337476E+03  0.17300000000E+03 0. -1.
</event>
<event>
 4    1  0.5880538E-001  0.1000000E+03  0.7546771E-02  0.1280296E+00
         -2   -1    0    0    0  501 -0.00000000000E+00  0.00000000000E+00  0.82007866792E+02  0.82007866792E+02  0.00000000000E+00 0. -1.
          2   -1    0    0  502    0  0.00000000000E+00 -0.00000000000E+00 -0.11757712725E+04  0.11757712725E+04  0.00000000000E+00 0.  1.
          6    1    1    2  502    0  0.20683024559E+03  0.97660304119E+02 -0.78802798667E+03  0.83859012233E+03  0.17300000000E+03 0.  1.
         -6    1    1    2    0  501 -0.20683024559E+03 -0.97660304119E+02 -0.30573541905E+03  0.41918901697E+03  0.17300000000E+03 0.  1.
</event>
<event>
 4    1  0.5880538E-001  0.1000000E+03  0.7546771E-02  0.1280296E+00
         -2   -1    0    0    0  501 -0.00000000000E+00  0.00000000000E+00  0.34587198898E+03  0.34587198898E+03  0.00000000000E+00 0. -1.
          2   -1    0    0  502    0  0.00000000000E+00 -0.00000000000E+00 -0.10603321630E+03  0.10603321630E+03  0.00000000000E+00 0.  1.
          6    1    1    2  502    0 -0.44234732427E+02  0.62758165061E+02  0.15431089268E+03  0.24420514007E+03  0.17300000000E+03 0.  1.
         -6    1    1    2    0  501  0.44234732427E+02 -0.62758165061E+02  0.85527880001E+02  0.20770006522E+03  0.17300000000E+03 0.  1.
</event>
<event>
 4    1  0.5880538E-001  0.1000000E+03  0.7546771E-02  0.1280296E+00
         -4   -1    0    0    0  501 -0.00000000000E+00  0.00000000000E+00  0.29081088602E+03  0.29081088602E+03  0.00000000000E+00 0. -1.
          4   -1    0    0  502    0  0.00000000000E+00 -0.00000000000E+00 -0.11427713305E+03  0.11427713305E+03  0.00000000000E+00 0.  1.
          6    1    1    2  502    0 -0.42511319217E+02  0.29164446611E+02  0.60022169663E+02  0.19023521771E+03  0.17300000000E+03 0.  1.
         -6    1    1    2    0  501  0.42511319217E+02 -0.29164446611E+02  0.11651158331E+03  0.21485280136E+03  0.17300000000E+03 0.  1.
</event>
<event>
 4    1  0.5880538E-001  0.1000000E+03  0.7546771E-02  0.1280296E+00
          2   -1    0    0  502    0  0.00000000000E+00  0.00000000000E+00  0.20237608139E+04  0.20237608139E+04  0.00000000000E+00 0. -1.
         -2   -1    0    0    0  501 -0.00000000000E+00 -0.00000000000E+00 -0.35581456647E+02  0.35581456647E+02  0.00000000000E+00 0.  1.
          6    1    1    2  502    0  0.60500893378E+01 -0.17971812545E+03  0.61531664349E+03  0.66398703297E+03  0.17300000000E+03 0.  1.
         -6    1    1    2    0  501 -0.60500893378E+01  0.17971812545E+03  0.13728627138E+04  0.13953552376E+04  0.17300000000E+03 0. -1.
</event>
<event>
 4    1  0.5880538E-001  0.1000000E+03  0.7546771E-02  0.1280296E+00
          1   -1    0    0  502    0  0.00000000000E+00  0.00000000000E+00  0.18797688509E+04  0.18797688509E+04  0.00000000000E+00 0. -1.
         -1   -1    0    0    0  501 -0.00000000000E+00 -0.00000000000E+00 -0.55120395157E+02  0.55120395157E+02  0.00000000000E+00 0.  1.
          6    1    1    2  502    0  0.18208866855E+03 -0.19187900235E+03  0.72924057083E+03  0.79479220234E+03  0.17300000000E+03 0.  1.
         -6    1    1    2    0  501 -0.18208866855E+03  0.19187900235E+03  0.10954078849E+04  0.11400970437E+04  0.17300000000E+03 0. -1.
</event>
<event>
 4    1  0.5880538E-001  0.1000000E+03  0.7546771E-02  0.1280296E+00
          2   -1    0    0  502    0  0.00000000000E+00  0.00000000000E+00  0.12194178487E+03  0.12194178487E+03  0.00000000000E+00 0. -1.
         -2   -1    0    0    0  501 -0.00000000000E+00 -0.00000000000E+00 -0.51008056299E+03  0.51008056299E+03  0.00000000000E+00 0.  1.
          6    1    1    2  502    0 -0.43444444004E+02  0.93443502156E+02 -0.38051666939E+03  0.43051253582E+03  0.17300000000E+03 0.  1.
         -6    1    1    2    0  501  0.43444444004E+02 -0.93443502156E+02 -0.76221087361E+01  0.20150981205E+03  0.17300000000E+03 0. -1.
</event>
<event>
 4    1  0.5880538E-001  0.1000000E+03  0.7546771E-02  0.1280296E+00
         -2   -1    0    0    0  501 -0.00000000000E+00  0.00000000000E+00  0.26365299470E+03  0.26365299470E+03  0.00000000000E+00 0.  1.
          2   -1    0    0  502    0  0.00000000000E+00 -0.00000000000E+00 -0.11536404427E+04  0.11536404427E+04  0.00000000000E+00 0. -1.
          6    1    1    2  502    0 -0.40168708975E+03 -0.27906084486E+02 -0.14782293481E+02  0.43849604767E+03  0.17300000000E+03 0. -1.
         -6    1    1    2    0  501  0.40168708975E+03  0.27906084486E+02 -0.87520515447E+03  0.97879738968E+03  0.17300000000E+03 0.  1.
</event>
<event>
 4    1  0.5880538E-001  0.1000000E+03  0.7546771E-02  0.1280296E+00
         -2   -1    0    0    0  501 -0.00000000000E+00  0.00000000000E+00  0.96522351401E+02  0.96522351401E+02  0.00000000000E+00 0.  1.
          2   -1    0    0  502    0  0.00000000000E+00 -0.00000000000E+00 -0.65467454607E+03  0.65467454607E+03  0.00000000000E+00 0. -1.
          6    1    1    2  502    0 -0.17268936372E+02 -0.21395289826E+02 -0.96887311484E+01  0.17543900963E+03  0.17300000000E+03 0. -1.
         -6    1    1    2    0  501  0.17268936372E+02  0.21395289826E+02 -0.54846346352E+03  0.57575788784E+03  0.17300000000E+03 0.  1.
</event>
<event>
 4    1  0.5880538E-001  0.1000000E+03  0.7546771E-02  0.1280296E+00
         -2   -1    0    0    0  501 -0.00000000000E+00  0.00000000000E+00  0.30096907938E+03  0.30096907938E+03  0.00000000000E+00 0.  1.
          2   -1    0    0  502    0  0.00000000000E+00 -0.00000000000E+00 -0.13412254449E+03  0.13412254449E+03  0.00000000000E+00 0. -1.
          6    1    1    2  502    0  0.33557787090E+02  0.94052370291E+02  0.60055217998E+02  0.20858476129E+03  0.17300000000E+03 0. -1.
         -6    1    1    2    0  501 -0.33557787090E+02 -0.94052370291E+02  0.10679131690E+03  0.22650686258E+03  0.17300000000E+03 0.  1.
</event>
<event>
 4    1  0.5880538E-001  0.1000000E+03  0.7546771E-02  0.1280296E+00
         -2   -1    0    0    0  501 -0.00000000000E+00  0.00000000000E+00  0.94854160372E+02  0.94854160372E+02  0.00000000000E+00 0.  1.
          2   -1    0    0  502    0  0.00000000000E+00 -0.00000000000E+00 -0.52687089411E+03  0.52687089411E+03  0.00000000000E+00 0. -1.
          6    1    1    2  502    0 -0.22315048321E+01 -0.14140106126E+03 -0.20640885026E+03  0.30419213206E+03  0.17300000000E+03 0. -1.
         -6    1    1    2    0  501  0.22315048321E+01  0.14140106126E+03 -0.22560788348E+03  0.31753292243E+03  0.17300000000E+03 0.  1.
</event>
<event>
 4    1  0.5880538E-001  0.1000000E+03  0.7546771E-02  0.1280296E+00
         -2   -1    0    0    0  501 -0.00000000000E+00  0.00000000000E+00  0.30824598120E+02  0.30824598120E+02  0.00000000000E+00 0.  1.
          2   -1    0    0  502    0  0.00000000000E+00 -0.00000000000E+00 -0.23385011905E+04  0.23385011905E+04  0.00000000000E+00 0. -1.
          6    1    1    2  502    0 -0.91287288191E+02  0.17272884065E+03 -0.87527002335E+03  0.91334289024E+03  0.17300000000E+03 0. -1.
         -6    1    1    2    0  501  0.91287288191E+02 -0.17272884065E+03 -0.14324065691E+04  0.14559828984E+04  0.17300000000E+03 0.  1.
</event>
<event>
 4    1  0.5880538E-001  0.1000000E+03  0.7546771E-02  0.1280296E+00
          1   -1    0    0  502    0  0.00000000000E+00  0.00000000000E+00  0.38618558492E+03  0.38618558492E+03  0.00000000000E+00 0.  1.
         -1   -1    0    0    0  501 -0.00000000000E+00 -0.00000000000E+00 -0.14109922337E+03  0.14109922337E+03  0.00000000000E+00 0. -1.
          6    1    1    2  502    0  0.12363337024E+03 -0.95558936196E+02  0.10895417795E+03  0.25732612268E+03  0.17300000000E+03 0.  1.
         -6    1    1    2    0  501 -0.12363337024E+03  0.95558936196E+02  0.13613218361E+03  0.26995868561E+03  0.17300000000E+03 0.  1.
</event>
<event>
 4    1  0.5880538E-001  0.1000000E+03  0.7546771E-02  0.1280296E+00
          2   -1    0    0  502    0  0.00000000000E+00  0.00000000000E+00  0.71822150590E+03  0.71822150590E+03  0.00000000000E+00 0.  1.
         -2   -1    0    0    0  501 -0.00000000000E+00 -0.00000000000E+00 -0.55700876728E+02  0.55700876728E+02  0.00000000000E+00 0. -1.
          6    1    1    2  502    0 -0.65388818579E+02  0.66726945634E+02  0.40230213809E+03  0.44777694579E+03  0.17300000000E+03 0.  1.
         -6    1    1    2    0  501  0.65388818579E+02 -0.66726945634E+02  0.26021849108E+03  0.32614543683E+03  0.17300000000E+03 0.  1.
</event>
<event>
 4    1  0.5880538E-001  0.1000000E+03  0.7546771E-02  0.1280296E+00
         -2   -1    0    0    0  501 -0.00000000000E+00  0.00000000000E+00  0.31837061283E+03  0.31837061283E+03  0.00000000000E+00 0. -1.
          2   -1    0    0  502    0  0.00000000000E+00 -0.00000000000E+00 -0.99275317637E+02  0.99275317637E+02  0.00000000000E+00 0.  1.
          6    1    1    2  502    0 -0.13111372629E+02 -0.33779840656E+02  0.87126632232E+02  0.19706099505E+03  0.17300000000E+03 0.  1.
         -6    1    1    2    0  501  0.13111372629E+02  0.33779840656E+02  0.13196866296E+03  0.22058493541E+03  0.17300000000E+03 0. -1.
</event>
<event>
 4    1  0.5880538E-001  0.1000000E+03  0.7546771E-02  0.1280296E+00
         -1   -1    0    0    0  501 -0.00000000000E+00  0.00000000000E+00  0.51867347871E+02  0.51867347871E+02  0.00000000000E+00 0. -1.
          1   -1    0    0  502    0  0.00000000000E+00 -0.00000000000E+00 -0.10275994583E+04  0.10275994583E+04  0.00000000000E+00 0.  1.
          6    1    1    2  502    0  0.12444603839E+03  0.74866789643E+02 -0.59944898646E+03  0.64059342802E+03  0.17300000000E+03 0.  1.
         -6    1    1    2    0  501 -0.12444603839E+03 -0.74866789643E+02 -0.37628312398E+03  0.43887337816E+03  0.17300000000E+03 0. -1.
</event>
<event>
 4    1  0.5880538E-001  0.1000000E+03  0.7546771E-02  0.1280296E+00
         -4   -1    0    0    0  501 -0.00000000000E+00  0.00000000000E+00  0.31235313436E+02  0.31235313436E+02  0.00000000000E+00 0. -1.
          4   -1    0    0  502    0  0.00000000000E+00 -0.00000000000E+00 -0.10063641991E+04  0.10063641991E+04  0.00000000000E+00 0.  1.
          6    1    1    2  502    0  0.21567416160E+02 -0.32197307572E+02 -0.48226401134E+03  0.51381844721E+03  0.17300000000E+03 0.  1.
         -6    1    1    2    0  501 -0.21567416160E+02  0.32197307572E+02 -0.49286487429E+03  0.52378106530E+03  0.17300000000E+03 0. -1.
</event>
<event>
 4    1  0.5880538E-001  0.1000000E+03  0.7546771E-02  0.1280296E+00
         -2   -1    0    0    0  501 -0.00000000000E+00  0.00000000000E+00  0.21541158076E+02  0.21541158076E+02  0.00000000000E+00 0. -1.
          2   -1    0    0  502    0  0.00000000000E+00 -0.00000000000E+00 -0.33241609674E+04  0.33241609674E+04  0.00000000000E+00 0.  1.
          6    1    1    2  502    0  0.80384367065E+02  0.18511922176E+03 -0.14589816953E+04  0.14829994471E+04  0.17300000000E+03 0.  1.
         -6    1    1    2    0  501 -0.80384367065E+02 -0.18511922176E+03 -0.18436381140E+04  0.18627026784E+04  0.17300000000E+03 0. -1.
</event>
<event>
 4    1  0.5880538E-001  0.1000000E+03  0.7546771E-02  0.1280296E+00
         -2   -1    0    0    0  501 -0.00000000000E+00  0.00000000000E+00  0.56476660317E+02  0.56476660317E+02  0.00000000000E+00 0. -1.
          2   -1    0    0  502    0  0.00000000000E+00 -0.00000000000E+00 -0.21841086953E+04  0.21841086953E+04  0.00000000000E+00 0.  1.
          6    1    1    2  502    0 -0.36434717564E+02 -0.23874910572E+03 -0.46626709982E+03  0.55286764465E+03  0.17300000000E+03 0.  1.
         -6    1    1    2    0  501  0.36434717564E+02  0.23874910572E+03 -0.16613649352E+04  0.16877177110E+04  0.17300000000E+03 0. -1.
</event>
<event>
 4    1  0.5880538E-001  0.1000000E+03  0.7546771E-02  0.1280296E+00
         -2   -1    0    0    0  501 -0.00000000000E+00  0.00000000000E+00  0.84480747988E+02  0.84480747988E+02  0.00000000000E+00 0. -1.
          2   -1    0    0  502    0  0.00000000000E+00 -0.00000000000E+00 -0.41248489409E+03  0.41248489409E+03  0.00000000000E+00 0.  1.
          6    1    1    2  502    0 -0.59463321649E+02 -0.18393022878E+02 -0.12099588479E+03  0.22009814640E+03  0.17300000000E+03 0.  1.
         -6    1    1    2    0  501  0.59463321649E+02  0.18393022878E+02 -0.20700826131E+03  0.27686749568E+03  0.17300000000E+03 0. -1.
</event>
<event>
 4    1  0.5880538E-001  0.1000000E+03  0.7546771E-02  0.1280296E+00
          1   -1    0    0  502    0  0.00000000000E+00  0.00000000000E+00  0.16887250597E+03  0.16887250597E+03  0.00000000000E+00 0. -1.
         -1   -1    0    0    0  501 -0.00000000000E+00 -0.00000000000E+00 -0.16240818175E+04  0.16240818175E+04  0.00000000000E+00 0.  1.
          6    1    1    2  502    0  0.32857328413E+03  0.16880079438E+03 -0.16535968573E+03  0.44014422283E+03  0.17300000000E+03 0. -1.
         -6    1    1    2    0  501 -0.32857328413E+03 -0.16880079438E+03 -0.12898496258E+04  0.13528101006E+04  0.17300000000E+03 0. -1.
</event>
<event>
 4    1  0.5880538E-001  0.1000000E+03  0.7546771E-02  0.1280296E+00
          2   -1    0    0  502    0  0.00000000000E+00  0.00000000000E+00  0.44632784773E+03  0.44632784773E+03  0.00000000000E+00 0. -1.
         -2   -1    0    0    0  501 -0.00000000000E+00 -0.00000000000E+00 -0.82056369250E+02  0.82056369250E+02  0.00000000000E+00 0.  1.
          6    1    1    2  502    0  0.78223747218E+02 -0.13645892391E+02  0.20939417200E+03  0.28298424739E+03  0.17300000000E+03 0. -1.
         -6    1    1    2    0  501 -0.78223747218E+02  0.13645892391E+02  0.15487730648E+03  0.24539996958E+03  0.17300000000E+03 0. -1.
</event>
<event>
 4    1  0.5880538E-001  0.1000000E+03  0.7546771E-02  0.1280296E+00
         -1   -1    0    0    0  501 -0.00000000000E+00  0.00000000000E+00  0.38153888152E+03  0.38153888152E+03  0.00000000000E+00 0. -1.
          1   -1    0    0  502    0  0.00000000000E+00 -0.00000000000E+00 -0.25381199995E+03  0.25381199995E+03  0.00000000000E+00 0.  1.
          6    1    1    2  502    0 -0.41812904184E+02  0.16086226393E+03  0.26619909861E+03  0.35835170854E+03  0.17300000000E+03 0.  1.
         -6    1    1    2    0  501  0.41812904184E+02 -0.16086226393E+03 -0.13847221704E+03  0.27699917293E+03  0.17300000000E+03 0.  1.
</event>
<event>
 4    1  0.5880538E-001  0.1000000E+03  0.7546771E-02  0.1280296E+00
          1   -1    0    0  502    0  0.00000000000E+00  0.00000000000E+00  0.14786704443E+04  0.14786704443E+04  0.00000000000E+00 0. -1.
         -1   -1    0    0    0  501 -0.00000000000E+00 -0.00000000000E+00 -0.24813714852E+02  0.24813714852E+02  0.00000000000E+00 0.  1.
          6    1    1    2  502    0 -0.44132378315E+02 -0.67369985650E+02  0.79211863518E+03  0.81478053117E+03  0.17300000000E+03 0.  1.
         -6    1    1    2    0  501  0.44132378315E+02  0.67369985650E+02  0.66173809427E+03  0.68870362798E+03  0.17300000000E+03 0. -1.
</event>
<event>
 4    1  0.5880538E-001  0.1000000E+03  0.7546771E-02  0.1280296E+00
          2   -1    0    0  502    0  0.00000000000E+00  0.00000000000E+00  0.11403238292E+04  0.11403238292E+04  0.00000000000E+00 0. -1.
         -2   -1    0    0    0  501 -0.00000000000E+00 -0.00000000000E+00 -0.52590617012E+02  0.52590617012E+02  0.00000000000E+00 0.  1.
          6    1    1    2  502    0  0.13960700947E+02 -0.14652836203E+03  0.32095838915E+03  0.39320319126E+03  0.17300000000E+03 0.  1.
         -6    1    1    2    0  501 -0.13960700947E+02  0.14652836203E+03  0.76677482304E+03  0.79971125495E+03  0.17300000000E+03 0. -1.
</event>
<event>
 4    1  0.5880538E-001  0.1000000E+03  0.7546771E-02  0.1280296E+00
          2   -1    0    0  502    0  0.00000000000E+00  0.00000000000E+00  0.25974802930E+03  0.25974802930E+03  0.00000000000E+00 0. -1.
         -2   -1    0    0    0  501 -0.00000000000E+00 -0.00000000000E+00 -0.15163943421E+03  0.15163943421E+03  0.00000000000E+00 0.  1.
          6    1    1    2  502    0  0.79376245092E+02  0.45616448114E+02  0.88076838773E+02  0.21463452227E+03  0.17300000000E+03 0.  1.
         -6    1    1    2    0  501 -0.79376245092E+02 -0.45616448114E+02  0.20031756314E+02  0.19675294123E+03  0.17300000000E+03 0. -1.
</event>
<event>
 4    1  0.5880538E-001  0.1000000E+03  0.7546771E-02  0.1280296E+00
          2   -1    0    0  502    0  0.00000000000E+00  0.00000000000E+00  0.19576931854E+04  0.19576931854E+04  0.00000000000E+00 0. -1.
         -2   -1    0    0    0  501 -0.00000000000E+00 -0.00000000000E+00 -0.17313835238E+02  0.17313835238E+02  0.00000000000E+00 0.  1.
          6    1    1    2  502    0 -0.90793081965E+01  0.20596635719E+02  0.65470538138E+03  0.67755058236E+03  0.17300000000E+03 0.  1.
         -6    1    1    2    0  501  0.90793081965E+01 -0.20596635719E+02  0.12856739687E+04  0.12974564382E+04  0.17300000000E+03 0. -1.
</event>
<event>
 4    1  0.5880538E-001  0.1000000E+03  0.7546771E-02  0.1280296E+00
          2   -1    0    0  502    0  0.00000000000E+00  0.00000000000E+00  0.33058621366E+03  0.33058621366E+03  0.00000000000E+00 0. -1.
         -2   -1    0    0    0  501 -0.00000000000E+00 -0.00000000000E+00 -0.15133460200E+03  0.15133460200E+03  0.00000000000E+00 0.  1.
          6    1    1    2  502    0 -0.29396122698E+02  0.11539744065E+03  0.17251047514E+03  0.27178956082E+03  0.17300000000E+03 0. -1.
         -6    1    1    2    0  501  0.29396122698E+02 -0.11539744065E+03  0.67411365079E+01  0.21013125484E+03  0.17300000000E+03 0.  1.
</event>
<event>
 4    1  0.5880538E-001  0.1000000E+03  0.7546771E-02  0.1280296E+00
          2   -1    0    0  502    0  0.00000000000E+00  0.00000000000E+00  0.32975560103E+04  0.32975560103E+04  0.00000000000E+00 0.  1.
         -2   -1    0    0    0  501 -0.00000000000E+00 -0.00000000000E+00 -0.72261918161E+02  0.72261918161E+02  0.00000000000E+00 0. -1.
          6    1    1    2  502    0  0.33386129672E+03 -0.19261600338E+03  0.24566733494E+04  0.24927368967E+04  0.17300000000E+03 0. -1.
         -6    1    1    2    0  501 -0.33386129672E+03  0.19261600338E+03  0.76862074269E+03  0.87708103178E+03  0.17300000000E+03 0.  1.
</event>
<event>
 4    1  0.5880538E-001  0.1000000E+03  0.7546771E-02  0.1280296E+00
         -1   -1    0    0    0  501 -0.00000000000E+00  0.00000000000E+00  0.13120833576E+03  0.13120833576E+03  0.00000000000E+00 0. -1.
          1   -1    0    0  502    0  0.00000000000E+00 -0.00000000000E+00 -0.17389462833E+04  0.17389462833E+04  0.00000000000E+00 0.  1.
          6    1    1    2  502    0  0.77433094316E+02  0.43824272996E+03 -0.77741071090E+03  0.91233162166E+03  0.17300000000E+03 0. -1.
         -6    1    1    2    0  501 -0.77433094316E+02 -0.43824272996E+03 -0.83032723662E+03  0.95782299739E+03  0.17300000000E+03 0. -1.
</event>
<event>
 4    1  0.5880538E-001  0.1000000E+03  0.7546771E-02  0.1280296E+00
          2   -1    0    0  502    0  0.00000000000E+00  0.00000000000E+00  0.34056952447E+04  0.34056952447E+04  0.00000000000E+00 0.  1.
         -2   -1    0    0    0  501 -0.00000000000E+00 -0.00000000000E+00 -0.13538120406E+02  0.13538120406E+02  0.00000000000E+00 0. -1.
          6    1    1    2  502    0 -0.68990350157E+01 -0.12531995883E+03  0.18602218598E+04  0.18724601615E+04  0.17300000000E+03 0.  1.
         -6    1    1    2    0  501  0.68990350157E+01  0.12531995883E+03  0.15319352645E+04  0.15467732036E+04  0.17300000000E+03 0. -1.
</event>
<event>
 4    1  0.5880538E-001  0.1000000E+03  0.7546771E-02  0.1280296E+00
         -1   -1    0    0    0  501 -0.00000000000E+00  0.00000000000E+00  0.53393323449E+02  0.53393323449E+02  0.00000000000E+00 0. -1.
          1   -1    0    0  502    0  0.00000000000E+00 -0.00000000000E+00 -0.75970448278E+03  0.75970448278E+03  0.00000000000E+00 0.  1.
          6    1    1    2  502    0 -0.24950072216E+02  0.55986476938E+02 -0.18575714474E+03  0.26113542181E+03  0.17300000000E+03 0.  1.
         -6    1    1    2    0  501  0.24950072216E+02 -0.55986476938E+02 -0.52055401458E+03  0.55196238441E+03  0.17300000000E+03 0. -1.
</event>
<event>
 4    1  0.5880538E-001  0.1000000E+03  0.7546771E-02  0.1280296E+00
         -2   -1    0    0    0  501 -0.00000000000E+00  0.00000000000E+00  0.78418396740E+01  0.78418396740E+01  0.00000000000E+00 0. -1.
          2   -1    0    0  502    0  0.00000000000E+00 -0.00000000000E+00 -0.49445391321E+04  0.49445391321E+04  0.00000000000E+00 0.  1.
          6    1    1    2  502    0  0.20926562836E+02 -0.80125512603E+02 -0.30289317206E+04  0.30349982516E+04  0.17300000000E+03 0.  1.
         -6    1    1    2    0  501 -0.20926562836E+02  0.80125512603E+02 -0.19077655718E+04  0.19173827202E+04  0.17300000000E+03 0. -1.
</event>
<event>
 4    1  0.5880538E-001  0.1000000E+03  0.7546771E-02  0.1280296E+00
          1   -1    0    0  502    0  0.00000000000E+00  0.00000000000E+00  0.23152200519E+04  0.23152200519E+04  0.00000000000E+00 0.  1.
         -1   -1    0    0    0  501 -0.00000000000E+00 -0.00000000000E+00 -0.39233700098E+02  0.39233700098E+02  0.00000000000E+00 0. -1.
          6    1    1    2  502    0  0.11325717504E+03 -0.15411634250E+03  0.52877165999E+03  0.58830902011E+03  0.17300000000E+03 0.  1.
         -6    1    1    2    0  501 -0.11325717504E+03  0.15411634250E+03  0.17472146918E+04  0.17661447319E+04  0.17300000000E+03 0. -1.
</event>
<event>
 4    1  0.5880538E-001  0.1000000E+03  0.7546771E-02  0.1280296E+00
          1   -1    0    0  502    0  0.00000000000E+00  0.00000000000E+00  0.61357890528E+02  0.61357890528E+02  0.00000000000E+00 0.  1.
         -1   -1    0    0    0  501 -0.00000000000E+00 -0.00000000000E+00 -0.15339425246E+04  0.15339425246E+04  0.00000000000E+00 0. -1.
          6    1    1    2  502    0  0.37164244826E+02 -0.61837764262E+02 -0.10483362381E+03  0.21476540425E+03  0.17300000000E+03 0.  1.
         -6    1    1    2    0  501 -0.37164244826E+02  0.61837764262E+02 -0.13677510103E+04  0.13805350109E+04  0.17300000000E+03 0. -1.
</event>
<event>
 4    1  0.5880538E-001  0.1000000E+03  0.7546771E-02  0.1280296E+00
         -2   -1    0    0    0  501 -0.00000000000E+00  0.00000000000E+00  0.29667596347E+02  0.29667596347E+02  0.00000000000E+00 0.  1.
          2   -1    0    0  502    0  0.00000000000E+00 -0.00000000000E+00 -0.12886552737E+04  0.12886552737E+04  0.00000000000E+00 0. -1.
          6    1    1    2  502    0  0.20037843931E+02  0.66417247973E+02 -0.43035029654E+03  0.46898096310E+03  0.17300000000E+03 0.  1.
         -6    1    1    2    0  501 -0.20037843931E+02 -0.66417247973E+02 -0.82863738084E+03  0.84934190697E+03  0.17300000000E+03 0. -1.
</event>
<event>
 4    1  0.5880538E-001  0.1000000E+03  0.7546771E-02  0.1280296E+00
         -1   -1    0    0    0  501 -0.00000000000E+00  0.00000000000E+00  0.49275381655E+03  0.49275381655E+03  0.00000000000E+00 0.  1.
          1   -1    0    0  502    0  0.00000000000E+00 -0.00000000000E+00 -0.98416146721E+03  0.98416146721E+03  0.00000000000E+00 0. -1.
          6    1    1    2  502    0  0.64568785675E+01 -0.50108837696E+02 -0.95900217401E+03  0.97579032412E+03  0.17300000000E+03 0.  1.
         -6    1    1    2    0  501 -0.64568785675E+01  0.50108837696E+02  0.46759452335E+03  0.50112495963E+03  0.17300000000E+03 0. -1.
</event>
<event>
 4    1  0.5880538E-001  0.1000000E+03  0.7546771E-02  0.1280296E+00
         -2   -1    0    0    0  501 -0.00000000000E+00  0.00000000000E+00  0.38750088498E+02  0.38750088498E+02  0.00000000000E+00 0.  1.
          2   -1    0    0  502    0  0.00000000000E+00 -0.00000000000E+00 -0.24536772699E+04  0.24536772699E+04  0.00000000000E+00 0. -1.
          6    1    1    2  502    0 -0.23030505909E+03  0.36673782311E+01 -0.16519847253E+04  0.16769127594E+04  0.17300000000E+03 0.  1.
         -6    1    1    2    0  501  0.23030505909E+03 -0.36673782311E+01 -0.76294245604E+03  0.81551459897E+03  0.17300000000E+03 0. -1.
</event>
<event>
 4    1  0.5880538E-001  0.1000000E+03  0.7546771E-02  0.1280296E+00
         -1   -1    0    0    0  501 -0.00000000000E+00  0.00000000000E+00  0.27201390071E+02  0.27201390071E+02  0.00000000000E+00 0.  1.
          1   -1    0    0  502    0  0.00000000000E+00 -0.00000000000E+00 -0.13366468167E+04  0.13366468167E+04  0.00000000000E+00 0. -1.
          6    1    1    2  502    0 -0.26328831026E+02 -0.55667400717E+02 -0.83839150010E+03  0.85826649374E+03  0.17300000000E+03 0.  1.
         -6    1    1    2    0  501  0.26328831026E+02  0.55667400717E+02 -0.47105392650E+03  0.50558171300E+03  0.17300000000E+03 0. -1.
</event>
<event>
 4    1  0.5880538E-001  0.1000000E+03  0.7546771E-02  0.1280296E+00
          1   -1    0    0  502    0  0.00000000000E+00  0.00000000000E+00  0.69097590895E+03  0.69097590895E+03  0.00000000000E+00 0.  1.
         -1   -1    0    0    0  501 -0.00000000000E+00 -0.00000000000E+00 -0.48935531138E+02  0.48935531138E+02  0.00000000000E+00 0. -1.
          6    1    1    2  502    0  0.32981516132E+02 -0.19662991206E+02  0.22225543182E+03  0.28425497463E+03  0.17300000000E+03 0.  1.
         -6    1    1    2    0  501 -0.32981516132E+02  0.19662991206E+02  0.41978494600E+03  0.45565646546E+03  0.17300000000E+03 0. -1.
</event>
<event>
 4    1  0.5880538E-001  0.1000000E+03  0.7546771E-02  0.1280296E+00
          1   -1    0    0  502    0  0.00000000000E+00  0.00000000000E+00  0.83618886578E+02  0.83618886578E+02  0.00000000000E+00 0.  1.
         -1   -1    0    0    0  501 -0.00000000000E+00 -0.00000000000E+00 -0.14668615334E+04  0.14668615334E+04  0.00000000000E+00 0. -1.
          6    1    1    2  502    0 -0.15425427043E+03 -0.24305455673E+03 -0.91140398790E+03  0.97131669740E+03  0.17300000000E+03 0.  1.
         -6    1    1    2    0  501  0.15425427043E+03  0.24305455673E+03 -0.47183865894E+03  0.57916372259E+03  0.17300000000E+03 0. -1.
</event>
<event>
 4    1  0.5880538E-001  0.1000000E+03  0.7546771E-02  0.1280296E+00
          3   -1    0    0  502    0  0.00000000000E+00  0.00000000000E+00  0.14610161073E+03  0.14610161073E+03  0.00000000000E+00 0.  1.
         -3   -1    0    0    0  501 -0.00000000000E+00 -0.00000000000E+00 -0.11996551632E+04  0.11996551632E+04  0.00000000000E+00 0. -1.
          6    1    1    2  502    0 -0.19623429939E+02  0.36016395295E+03 -0.72518734055E+03  0.82820820504E+03  0.17300000000E+03 0. -1.
         -6    1    1    2    0  501  0.19623429939E+02 -0.36016395295E+03 -0.32836621188E+03  0.51754856884E+03  0.17300000000E+03 0.  1.
</event>
<event>
 4    1  0.5880538E-001  0.1000000E+03  0.7546771E-02  0.1280296E+00
         -1   -1    0    0    0  501 -0.00000000000E+00  0.00000000000E+00  0.32284753749E+03  0.32284753749E+03  0.00000000000E+00 0. -1.
          1   -1    0    0  502    0  0.00000000000E+00 -0.00000000000E+00 -0.24427641393E+03  0.24427641393E+03  0.00000000000E+00 0.  1.
          6    1    1    2  502    0 -0.69661539131E+02  0.20698914471E+03  0.74810570179E+02  0.28848372133E+03  0.17300000000E+03 0.  1.
         -6    1    1    2    0  501  0.69661539131E+02 -0.20698914471E+03  0.37605533881E+01  0.27864023009E+03  0.17300000000E+03 0. -1.
</event>
<event>
 4    1  0.5880538E-001  0.1000000E+03  0.7546771E-02  0.1280296E+00
         -4   -1    0    0    0  501 -0.00000000000E+00  0.00000000000E+00  0.39739942111E+03  0.39739942111E+03  0.00000000000E+00 0. -1.
          4   -1    0    0  502    0  0.00000000000E+00 -0.00000000000E+00 -0.15289431997E+03  0.15289431997E+03  0.00000000000E+00 0.  1.
          6    1    1    2  502    0  0.16607244942E+03  0.56691058819E+02  0.12905880028E+03  0.27817100593E+03  0.17300000000E+03 0.  1.
         -6    1    1    2    0  501 -0.16607244942E+03 -0.56691058819E+02  0.11544630086E+03  0.27212273516E+03  0.17300000000E+03 0. -1.
</event>
<event>
 4    1  0.5880538E-001  0.1000000E+03  0.7546771E-02  0.1280296E+00
         -1   -1    0    0    0  501 -0.00000000000E+00  0.00000000000E+00  0.68658257558E+02  0.68658257558E+02  0.00000000000E+00 0. -1.
          1   -1    0    0  502    0  0.00000000000E+00 -0.00000000000E+00 -0.84221403299E+03  0.84221403299E+03  0.00000000000E+00 0.  1.
          6    1    1    2  502    0 -0.12660896038E+03  0.21928123137E+02 -0.18468935907E+03  0.28381302082E+03  0.17300000000E+03 0.  1.
         -6    1    1    2    0  501  0.12660896038E+03 -0.21928123137E+02 -0.58886641636E+03  0.62705926973E+03  0.17300000000E+03 0. -1.
</event>
<event>
 4    1  0.5880538E-001  0.1000000E+03  0.7546771E-02  0.1280296E+00
          1   -1    0    0  502    0  0.00000000000E+00  0.00000000000E+00  0.17869438406E+04  0.17869438406E+04  0.00000000000E+00 0. -1.
         -1   -1    0    0    0  501 -0.00000000000E+00 -0.00000000000E+00 -0.44099369912E+02  0.44099369912E+02  0.00000000000E+00 0.  1.
          6    1    1    2  502    0  0.58007221061E+02 -0.59544010401E+01  0.15668909534E+04  0.15774905871E+04  0.17300000000E+03 0.  1.
         -6    1    1    2    0  501 -0.58007221061E+02  0.59544010401E+01  0.17595351729E+03  0.25355262340E+03  0.17300000000E+03 0. -1.
</event>
<event>
 4    1  0.5880538E-001  0.1000000E+03  0.7546771E-02  0.1280296E+00
          2   -1    0    0  502    0  0.00000000000E+00  0.00000000000E+00  0.12870056296E+04  0.12870056296E+04  0.00000000000E+00 0. -1.
         -2   -1    0    0    0  501 -0.00000000000E+00 -0.00000000000E+00 -0.49861032859E+02  0.49861032859E+02  0.00000000000E+00 0.  1.
          6    1    1    2  502    0  0.10603656602E+03 -0.90440951288E+02  0.29735545166E+03  0.37117729407E+03  0.17300000000E+03 0.  1.
         -6    1    1    2    0  501 -0.10603656602E+03  0.90440951288E+02  0.93978914509E+03  0.96568936840E+03  0.17300000000E+03 0. -1.
</event>
<event>
 4    1  0.5880538E-001  0.1000000E+03  0.7546771E-02  0.1280296E+00
          4   -1    0    0  502    0  0.00000000000E+00  0.00000000000E+00  0.47738217689E+03  0.47738217689E+03  0.00000000000E+00 0. -1.
         -4   -1    0    0    0  501 -0.00000000000E+00 -0.00000000000E+00 -0.19030188131E+03  0.19030188131E+03  0.00000000000E+00 0.  1.
          6    1    1    2  502    0 -0.10000522738E+03 -0.46853517187E+02 -0.10094156424E+03  0.22872362573E+03  0.17300000000E+03 0.  1.
         -6    1    1    2    0  501  0.10000522738E+03  0.46853517187E+02  0.38802185982E+03  0.43896043247E+03  0.17300000000E+03 0. -1.
</event>
<event>
 4    1  0.5880538E-001  0.1000000E+03  0.7546771E-02  0.1280296E+00
         -2   -1    0    0    0  501 -0.00000000000E+00  0.00000000000E+00  0.23093597816E+03  0.23093597816E+03  0.00000000000E+00 0.  1.
          2   -1    0    0  502    0  0.00000000000E+00 -0.00000000000E+00 -0.13700335816E+03  0.13700335816E+03  0.00000000000E+00 0. -1.
          6    1    1    2  502    0 -0.24269140215E+02  0.23800642383E+02  0.22610512856E+02  0.17775178490E+03  0.17300000000E+03 0. -1.
         -6    1    1    2    0  501  0.24269140215E+02 -0.23800642383E+02  0.71322107141E+02  0.19018755141E+03  0.17300000000E+03 0.  1.
</event>
<event>
 4    1  0.5880538E-001  0.1000000E+03  0.7546771E-02  0.1280296E+00
         -2   -1    0    0    0  501 -0.00000000000E+00  0.00000000000E+00  0.71723127707E+02  0.71723127707E+02  0.00000000000E+00 0.  1.
          2   -1    0    0  502    0  0.00000000000E+00 -0.00000000000E+00 -0.85101402241E+03  0.85101402241E+03  0.00000000000E+00 0. -1.
          6    1    1    2  502    0 -0.10809657212E+03 -0.10553298800E+03 -0.55963825648E+03  0.60493475564E+03  0.17300000000E+03 0. -1.
         -6    1    1    2    0  501  0.10809657212E+03  0.10553298800E+03 -0.21965263822E+03  0.31780239448E+03  0.17300000000E+03 0.  1.
</event>
<event>
 4    1  0.5880538E-001  0.1000000E+03  0.7546771E-02  0.1280296E+00
         -1   -1    0    0    0  501 -0.00000000000E+00  0.00000000000E+00  0.45564824665E+02  0.45564824665E+02  0.00000000000E+00 0.  1.
          1   -1    0    0  502    0  0.00000000000E+00 -0.00000000000E+00 -0.81604974680E+03  0.81604974680E+03  0.00000000000E+00 0. -1.
          6    1    1    2  502    0 -0.21277242634E+02 -0.59899067589E+01 -0.20147785801E+03  0.26647875583E+03  0.17300000000E+03 0. -1.
         -6    1    1    2    0  501  0.21277242634E+02  0.59899067589E+01 -0.56900706412E+03  0.59513581564E+03  0.17300000000E+03 0.  1.
</event>
<event>
 4    1  0.5880538E-001  0.1000000E+03  0.7546771E-02  0.1280296E+00
         -2   -1    0    0    0  501 -0.00000000000E+00  0.00000000000E+00  0.46935995211E+02  0.46935995211E+02  0.00000000000E+00 0.  1.
          2   -1    0    0  502    0  0.00000000000E+00 -0.00000000000E+00 -0.13415466234E+04  0.13415466234E+04  0.00000000000E+00 0. -1.
          6    1    1    2  502    0 -0.12629686676E+03  0.10639515461E+03 -0.85740696604E+03  0.89013849085E+03  0.17300000000E+03 0.  1.
         -6    1    1    2    0  501  0.12629686676E+03 -0.10639515461E+03 -0.43720366217E+03  0.49834412778E+03  0.17300000000E+03 0.  1.
</event>
<event>
 4    1  0.5880538E-001  0.1000000E+03  0.7546771E-02  0.1280296E+00
         -1   -1    0    0    0  501 -0.00000000000E+00  0.00000000000E+00  0.69556720607E+03  0.69556720607E+03  0.00000000000E+00 0. -1.
          1   -1    0    0  502    0  0.00000000000E+00 -0.00000000000E+00 -0.13132173407E+03  0.13132173407E+03  0.00000000000E+00 0.  1.
          6    1    1    2  502    0  0.11716300898E+03 -0.15298673955E+03  0.49529042121E+03  0.55890402978E+03  0.17300000000E+03 0. -1.
         -6    1    1    2    0  501 -0.11716300898E+03  0.15298673955E+03  0.68955050793E+02  0.26798491036E+03  0.17300000000E+03 0.  1.
</event>
<event>
 4    1  0.5880538E-001  0.1000000E+03  0.7546771E-02  0.1280296E+00
         -2   -1    0    0    0  501 -0.00000000000E+00  0.00000000000E+00  0.35875036194E+02  0.35875036194E+02  0.00000000000E+00 0. -1.
          2   -1    0    0  502    0  0.00000000000E+00 -0.00000000000E+00 -0.88426773012E+03  0.88426773012E+03  0.00000000000E+00 0.  1.
          6    1    1    2  502    0  0.30314276473E+02  0.11421515021E+02 -0.49468784124E+03  0.52506615453E+03  0.17300000000E+03 0. -1.
         -6    1    1    2    0  501 -0.30314276473E+02 -0.11421515021E+02 -0.35370485268E+03  0.39507661178E+03  0.17300000000E+03 0.  1.
</event>
<event>
 4    1  0.5880538E-001  0.1000000E+03  0.7546771E-02  0.1280296E+00
         -3   -1    0    0    0  501 -0.00000000000E+00  0.00000000000E+00  0.82269596538E+03  0.82269596538E+03  0.00000000000E+00 0. -1.
          3   -1    0    0  502    0  0.00000000000E+00 -0.00000000000E+00 -0.49337470379E+02  0.49337470379E+02  0.00000000000E+00 0.  1.
          6    1    1    2  502    0 -0.41542458793E+02 -0.90489957675E+02  0.44581069432E+03  0.48845714601E+03  0.17300000000E+03 0.  1.
         -6    1    1    2    0  501  0.41542458793E+02  0.90489957675E+02  0.32754780068E+03  0.38357628974E+03  0.17300000000E+03 0. -1.
</event>
<event>
 4    1  0.5880538E-001  0.1000000E+03  0.7546771E-02  0.1280296E+00
         -2   -1    0    0    0  501 -0.00000000000E+00  0.00000000000E+00  0.90047281052E+02  0.90047281052E+02  0.00000000000E+00 0. -1.
          2   -1    0    0  502    0  0.00000000000E+00 -0.00000000000E+00 -0.50007150666E+03  0.50007150666E+03  0.00000000000E+00 0.  1.
          6    1    1    2  502    0  0.94836326720E+02  0.68173359362E+02 -0.15189106382E+03  0.25815001658E+03  0.17300000000E+03 0.  1.
         -6    1    1    2    0  501 -0.94836326720E+02 -0.68173359362E+02 -0.25813316179E+03  0.33196877113E+03  0.17300000000E+03 0. -1.
</event>
<event>
 4    1  0.5880538E-001  0.1000000E+03  0.7546771E-02  0.1280296E+00
         -2   -1    0    0    0  501 -0.00000000000E+00  0.00000000000E+00  0.51046301237E+02  0.51046301237E+02  0.00000000000E+00 0. -1.
          2   -1    0    0  502    0  0.00000000000E+00 -0.00000000000E+00 -0.11108373558E+04  0.11108373558E+04  0.00000000000E+00 0.  1.
          6    1    1    2  502    0 -0.11593274928E+03 -0.18106052938E+02 -0.25166019195E+03  0.32715452575E+03  0.17300000000E+03 0.  1.
         -6    1    1    2    0  501  0.11593274928E+03  0.18106052938E+02 -0.80813086259E+03  0.83472913126E+03  0.17300000000E+03 0. -1.
</event>
<event>
 4    1  0.5880538E-001  0.1000000E+03  0.7546771E-02  0.1280296E+00
          2   -1    0    0  502    0  0.00000000000E+00  0.00000000000E+00  0.20323602347E+03  0.20323602347E+03  0.00000000000E+00 0.  1.
         -2   -1    0    0    0  501 -0.00000000000E+00 -0.00000000000E+00 -0.20583412871E+03  0.20583412871E+03  0.00000000000E+00 0. -1.
          6    1    1    2  502    0  0.87805464864E+02  0.64569648930E+02  0.36880902652E+01  0.20450340152E+03  0.17300000000E+03 0.  1.
         -6    1    1    2    0  501 -0.87805464864E+02 -0.64569648930E+02 -0.62861955033E+01  0.20456675066E+03  0.17300000000E+03 0. -1.
</event>
<event>
 4    1  0.5880538E-001  0.1000000E+03  0.7546771E-02  0.1280296E+00
          2   -1    0    0  502    0  0.00000000000E+00  0.00000000000E+00  0.17380232032E+04  0.17380232032E+04  0.00000000000E+00 0.  1.
         -2   -1    0    0    0  501 -0.00000000000E+00 -0.00000000000E+00 -0.72024880718E+02  0.72024880718E+02  0.00000000000E+00 0. -1.
          6    1    1    2  502    0 -0.14366753716E+03  0.10881918851E+03  0.19213364535E+03  0.31516077595E+03  0.17300000000E+03 0.  1.
         -6    1    1    2    0  501  0.14366753716E+03 -0.10881918851E+03  0.14738646771E+04  0.14948873080E+04  0.17300000000E+03 0. -1.
</event>
<event>
 4    1  0.5880538E-001  0.1000000E+03  0.7546771E-02  0.1280296E+00
          2   -1    0    0  502    0  0.00000000000E+00  0.00000000000E+00  0.67979516563E+03  0.67979516563E+03  0.00000000000E+00 0.  1.
         -2   -1    0    0    0  501 -0.00000000000E+00 -0.00000000000E+00 -0.83051070887E+02  0.83051070887E+02  0.00000000000E+00 0. -1.
          6    1    1    2  502    0 -0.14110846676E+03 -0.71709591739E+02  0.36002012131E+03  0.42964794040E+03  0.17300000000E+03 0.  1.
         -6    1    1    2    0  501  0.14110846676E+03  0.71709591739E+02  0.23672397343E+03  0.33319829612E+03  0.17300000000E+03 0. -1.
</event>
<event>
 4    1  0.5880538E-001  0.1000000E+03  0.7546771E-02  0.1280296E+00
          2   -1    0    0  502    0  0.00000000000E+00  0.00000000000E+00  0.15679225879E+03  0.15679225879E+03  0.00000000000E+00 0.  1.
         -2   -1    0    0    0  501 -0.00000000000E+00 -0.00000000000E+00 -0.40006124512E+03  0.40006124512E+03  0.00000000000E+00 0. -1.
          6    1    1    2  502    0  0.77695855493E+02  0.20381488979E+02 -0.30207675617E+03  0.35725539558E+03  0.17300000000E+03 0.  1.
         -6    1    1    2    0  501 -0.77695855493E+02 -0.20381488979E+02  0.58807769839E+02  0.19959810833E+03  0.17300000000E+03 0. -1.
</event>
<event>
 4    1  0.5880538E-001  0.1000000E+03  0.7546771E-02  0.1280296E+00
          3   -1    0    0  502    0  0.00000000000E+00  0.00000000000E+00  0.36834773330E+03  0.36834773330E+03  0.00000000000E+00 0.  1.
         -3   -1    0    0    0  501 -0.00000000000E+00 -0.00000000000E+00 -0.16526598836E+03  0.16526598836E+03  0.00000000000E+00 0. -1.
          6    1    1    2  502    0  0.14721306016E+03  0.48669826269E+02  0.19140510467E+03  0.30100722776E+03  0.17300000000E+03 0. -1.
         -6    1    1    2    0  501 -0.14721306016E+03 -0.48669826269E+02  0.11676640265E+02  0.23260649389E+03  0.17300000000E+03 0.  1.
</event>
<event>
 4    1  0.5880538E-001  0.1000000E+03  0.7546771E-02  0.1280296E+00
          2   -1    0    0  502    0  0.00000000000E+00  0.00000000000E+00  0.35609334006E+02  0.35609334006E+02  0.00000000000E+00 0.  1.
         -2   -1    0    0    0  501 -0.00000000000E+00 -0.00000000000E+00 -0.90563019305E+03  0.90563019305E+03  0.00000000000E+00 0. -1.
          6    1    1    2  502    0 -0.23994915267E+02  0.32461092945E+02 -0.50387029556E+03  0.53426936396E+03  0.17300000000E+03 0. -1.
         -6    1    1    2    0  501  0.23994915267E+02 -0.32461092945E+02 -0.36615056349E+03  0.40697016310E+03  0.17300000000E+03 0.  1.
</event>
<event>
 4    1  0.5880538E-001  0.1000000E+03  0.7546771E-02  0.1280296E+00
          2   -1    0    0  502    0  0.00000000000E+00  0.00000000000E+00  0.20527844856E+04  0.20527844856E+04  0.00000000000E+00 0.  1.
         -2   -1    0    0    0  501 -0.00000000000E+00 -0.00000000000E+00 -0.27424193061E+02  0.27424193061E+02  0.00000000000E+00 0. -1.
          6    1    1    2  502    0  0.91767681923E+02  0.22797333485E+02  0.43400302691E+03  0.47668506713E+03  0.17300000000E+03 0. -1.
         -6    1    1    2    0  501 -0.91767681923E+02 -0.22797333485E+02  0.15913572656E+04  0.16035236115E+04  0.17300000000E+03 0.  1.
</event>
<event>
 4    1  0.5880538E-001  0.1000000E+03  0.7546771E-02  0.1280296E+00
          2   -1    0    0  502    0  0.00000000000E+00  0.00000000000E+00  0.42602199282E+03  0.42602199282E+03  0.00000000000E+00 0.  1.
         -2   -1    0    0    0  501 -0.00000000000E+00 -0.00000000000E+00 -0.15150166405E+03  0.15150166405E+03  0.00000000000E+00 0. -1.
          6    1    1    2  502    0  0.13742225167E+03 -0.36316024039E+02  0.27370332261E+03  0.35361877448E+03  0.17300000000E+03 0. -1.
         -6    1    1    2    0  501 -0.13742225167E+03  0.36316024039E+02  0.81700615313E+00  0.22390488239E+03  0.17300000000E+03 0.  1.
</event>
<event>
 4    1  0.5880538E-001  0.1000000E+03  0.7546771E-02  0.1280296E+00
          2   -1    0    0  502    0  0.00000000000E+00  0.00000000000E+00  0.21365794671E+03  0.21365794671E+03  0.00000000000E+00 0.  1.
         -2   -1    0    0    0  501 -0.00000000000E+00 -0.00000000000E+00 -0.22413021695E+03  0.22413021695E+03  0.00000000000E+00 0. -1.
          6    1    1    2  502    0  0.20305277749E+02  0.65609184746E+02  0.10986779031E+03  0.21614069671E+03  0.17300000000E+03 0.  1.
         -6    1    1    2    0  501 -0.20305277749E+02 -0.65609184746E+02 -0.12034006055E+03  0.22164746694E+03  0.17300000000E+03 0. -1.
</event>
<event>
 4    1  0.5880538E-001  0.1000000E+03  0.7546771E-02  0.1280296E+00
          1   -1    0    0  502    0  0.00000000000E+00  0.00000000000E+00  0.10805958274E+04  0.10805958274E+04  0.00000000000E+00 0.  1.
         -1   -1    0    0    0  501 -0.00000000000E+00 -0.00000000000E+00 -0.38396620463E+02  0.38396620463E+02  0.00000000000E+00 0. -1.
          6    1    1    2  502    0  0.26428613197E+02 -0.58315058026E+02  0.75838933533E+03  0.78050144236E+03  0.17300000000E+03 0.  1.
         -6    1    1    2    0  501 -0.26428613197E+02  0.58315058026E+02  0.28380987165E+03  0.33849100555E+03  0.17300000000E+03 0. -1.
</event>
<event>
 4    1  0.5880538E-001  0.1000000E+03  0.7546771E-02  0.1280296E+00
          1   -1    0    0  502    0  0.00000000000E+00  0.00000000000E+00  0.26696760887E+03  0.26696760887E+03  0.00000000000E+00 0.  1.
         -1   -1    0    0    0  501 -0.00000000000E+00 -0.00000000000E+00 -0.39456981837E+03  0.39456981837E+03  0.00000000000E+00 0. -1.
          6    1    1    2  502    0 -0.13386705626E+03  0.35405638144E+02  0.17787532161E+03  0.28415238517E+03  0.17300000000E+03 0.  1.
         -6    1    1    2    0  501  0.13386705626E+03 -0.35405638144E+02 -0.30547753111E+03  0.37738504206E+03  0.17300000000E+03 0. -1.
</event>
<event>
 4    1  0.5880538E-001  0.1000000E+03  0.7546771E-02  0.1280296E+00
          2   -1    0    0  502    0  0.00000000000E+00  0.00000000000E+00  0.56785121833E+03  0.56785121833E+03  0.00000000000E+00 0.  1.
         -2   -1    0    0    0  501 -0.00000000000E+00 -0.00000000000E+00 -0.11591685274E+03  0.11591685274E+03  0.00000000000E+00 0. -1.
          6    1    1    2  502    0 -0.29404164746E+02  0.18476827842E+03  0.18619946418E+03  0.31559968643E+03  0.17300000000E+03 0.  1.
         -6    1    1    2    0  501  0.29404164746E+02 -0.18476827842E+03  0.26573490142E+03  0.36816838464E+03  0.17300000000E+03 0. -1.
</event>
<event>
 4    1  0.5880538E-001  0.1000000E+03  0.7546771E-02  0.1280296E+00
         -2   -1    0    0    0  501 -0.00000000000E+00  0.00000000000E+00  0.24199221503E+02  0.24199221503E+02  0.00000000000E+00 0.  1.
          2   -1    0    0  502    0  0.00000000000E+00 -0.00000000000E+00 -0.18054707367E+04  0.18054707367E+04  0.00000000000E+00 0. -1.
          6    1    1    2  502    0 -0.11508571350E+03 -0.34719980074E+01 -0.98901032345E+03  0.10106073402E+04  0.17300000000E+03 0. -1.
         -6    1    1    2    0  501  0.11508571350E+03  0.34719980074E+01 -0.79226119172E+03  0.81906261795E+03  0.17300000000E+03 0. -1.
</event>
<event>
 4    1  0.5880538E-001  0.1000000E+03  0.7546771E-02  0.1280296E+00
         -2   -1    0    0    0  501 -0.00000000000E+00  0.00000000000E+00  0.13446820553E+04  0.13446820553E+04  0.00000000000E+00 0.  1.
          2   -1    0    0  502    0  0.00000000000E+00 -0.00000000000E+00 -0.81393129360E+02  0.81393129360E+02  0.00000000000E+00 0. -1.
          6    1    1    2  502    0 -0.21488595265E+03  0.51716596505E+02  0.10090894060E+04  0.10473972543E+04  0.17300000000E+03 0. -1.
         -6    1    1    2    0  501  0.21488595265E+03 -0.51716596505E+02  0.25419951991E+03  0.37867793033E+03  0.17300000000E+03 0. -1.
</event>
<event>
 4    1  0.5880538E-001  0.1000000E+03  0.7546771E-02  0.1280296E+00
         -3   -1    0    0    0  501 -0.00000000000E+00  0.00000000000E+00  0.58063263933E+02  0.58063263933E+02  0.00000000000E+00 0.  1.
          3   -1    0    0  502    0  0.00000000000E+00 -0.00000000000E+00 -0.94866402175E+03  0.94866402175E+03  0.00000000000E+00 0. -1.
          6    1    1    2  502    0 -0.14855537920E+03  0.52941771443E+02 -0.48131655758E+03  0.53522533615E+03  0.17300000000E+03 0. -1.
         -6    1    1    2    0  501  0.14855537920E+03 -0.52941771443E+02 -0.40928420024E+03  0.47150194953E+03  0.17300000000E+03 0. -1.
</event>
<event>
 4    1  0.5880538E-001  0.1000000E+03  0.7546771E-02  0.1280296E+00
         -1   -1    0    0    0  501 -0.00000000000E+00  0.00000000000E+00  0.12002017197E+03  0.12002017197E+03  0.00000000000E+00 0.  1.
          1   -1    0    0  502    0  0.00000000000E+00 -0.00000000000E+00 -0.58588004191E+03  0.58588004191E+03  0.00000000000E+00 0. -1.
          6    1    1    2  502    0 -0.18004137842E+03  0.87381109342E+02 -0.25740271708E+03  0.36910095499E+03  0.17300000000E+03 0. -1.
         -6    1    1    2    0  501  0.18004137842E+03 -0.87381109342E+02 -0.20845715285E+03  0.33679925889E+03  0.17300000000E+03 0. -1.
</event>
<event>
 4    1  0.5880538E-001  0.1000000E+03  0.7546771E-02  0.1280296E+00
         -1   -1    0    0    0  501 -0.00000000000E+00  0.00000000000E+00  0.28955661937E+03  0.28955661937E+03  0.00000000000E+00 0.  1.
          1   -1    0    0  502    0  0.00000000000E+00 -0.00000000000E+00 -0.17542169477E+03  0.17542169477E+03  0.00000000000E+00 0. -1.
          6    1    1    2  502    0  0.10662054903E+03 -0.85066568757E+02  0.80141179212E+01  0.22044838099E+03  0.17300000000E+03 0. -1.
         -6    1    1    2    0  501 -0.10662054903E+03  0.85066568757E+02  0.10612080668E+03  0.24452993315E+03  0.17300000000E+03 0. -1.
</event>
<event>
 4    1  0.5880538E-001  0.1000000E+03  0.7546771E-02  0.1280296E+00
         -1   -1    0    0    0  501 -0.00000000000E+00  0.00000000000E+00  0.37139271494E+02  0.37139271494E+02  0.00000000000E+00 0.  1.
          1   -1    0    0  502    0  0.00000000000E+00 -0.00000000000E+00 -0.19485398494E+04  0.19485398494E+04  0.00000000000E+00 0. -1.
          6    1    1    2  502    0  0.14667252153E+03  0.97111765965E+02 -0.56000675481E+03  0.61194778298E+03  0.17300000000E+03 0. -1.
         -6    1    1    2    0  501 -0.14667252153E+03 -0.97111765965E+02 -0.13513938231E+04  0.13737313379E+04  0.17300000000E+03 0. -1.
</event>
<event>
 4    1  0.5880538E-001  0.1000000E+03  0.7546771E-02  0.1280296E+00
         -2   -1    0    0    0  501 -0.00000000000E+00  0.00000000000E+00  0.10659474498E+02  0.10659474498E+02  0.00000000000E+00 0.  1.
          2   -1    0    0  502    0  0.00000000000E+00 -0.00000000000E+00 -0.39993055832E+04  0.39993055832E+04  0.00000000000E+00 0. -1.
          6    1    1    2  502    0  0.84414349372E+02  0.74173468923E+02 -0.20778632727E+04  0.20880786063E+04  0.17300000000E+03 0. -1.
         -6    1    1    2    0  501 -0.84414349372E+02 -0.74173468923E+02 -0.19107828360E+04  0.19218864515E+04  0.17300000000E+03 0. -1.
</event>
<event>
 4    1  0.5880538E-001  0.1000000E+03  0.7546771E-02  0.1280296E+00
          1   -1    0    0  502    0  0.00000000000E+00  0.00000000000E+00  0.10400742542E+04  0.10400742542E+04  0.00000000000E+00 0.  1.
         -1   -1    0    0    0  501 -0.00000000000E+00 -0.00000000000E+00 -0.34526207593E+02  0.34526207593E+02  0.00000000000E+00 0. -1.
          6    1    1    2  502    0  0.57330813706E+02  0.43387548182E+02  0.58354577728E+03  0.61288169798E+03  0.17300000000E+03 0.  1.
         -6    1    1    2    0  501 -0.57330813706E+02 -0.43387548182E+02  0.42200226930E+03  0.46171876379E+03  0.17300000000E+03 0.  1.
</event>
<event>
 4    1  0.5880538E-001  0.1000000E+03  0.7546771E-02  0.1280296E+00
          1   -1    0    0  502    0  0.00000000000E+00  0.00000000000E+00  0.15958907749E+04  0.15958907749E+04  0.00000000000E+00 0.  1.
         -1   -1    0    0    0  501 -0.00000000000E+00 -0.00000000000E+00 -0.46516425808E+02  0.46516425808E+02  0.00000000000E+00 0. -1.
          6    1    1    2  502    0 -0.14880965634E+03 -0.14295934176E+03  0.89984877184E+03  0.93927551837E+03  0.17300000000E+03 0.  1.
         -6    1    1    2    0  501  0.14880965634E+03  0.14295934176E+03  0.64952557727E+03  0.70313168236E+03  0.17300000000E+03 0.  1.
</event>
<event>
 4    1  0.5880538E-001  0.1000000E+03  0.7546771E-02  0.1280296E+00
          2   -1    0    0  502    0  0.00000000000E+00  0.00000000000E+00  0.21929601752E+03  0.21929601752E+03  0.00000000000E+00 0.  1.
         -2   -1    0    0    0  501 -0.00000000000E+00 -0.00000000000E+00 -0.14949727039E+03  0.14949727039E+03  0.00000000000E+00 0. -1.
          6    1    1    2  502    0  0.94385764635E+01 -0.48518109042E+02  0.14226421375E+02  0.18048402892E+03  0.17300000000E+03 0.  1.
         -6    1    1    2    0  501 -0.94385764635E+01  0.48518109042E+02  0.55572325755E+02  0.18830925899E+03  0.17300000000E+03 0. -1.
</event>
<event>
 4    1  0.5880538E-001  0.1000000E+03  0.7546771E-02  0.1280296E+00
          2   -1    0    0  502    0  0.00000000000E+00  0.00000000000E+00  0.19861828646E+04  0.19861828646E+04  0.00000000000E+00 0.  1.
         -2   -1    0    0    0  501 -0.00000000000E+00 -0.00000000000E+00 -0.29018527935E+02  0.29018527935E+02  0.00000000000E+00 0. -1.
          6    1    1    2  502    0  0.12467749022E+03 -0.65687154514E+02  0.60677668965E+03  0.64650307806E+03  0.17300000000E+03 0.  1.
         -6    1    1    2    0  501 -0.12467749022E+03  0.65687154514E+02  0.13503876470E+04  0.13686983144E+04  0.17300000000E+03 0. -1.
</event>
<event>
 4    1  0.5880538E-001  0.1000000E+03  0.7546771E-02  0.1280296E+00
         -2   -1    0    0    0  501 -0.00000000000E+00  0.00000000000E+00  0.45198147686E+03  0.45198147686E+03  0.00000000000E+00 0.  1.
          2   -1    0    0  502    0  0.00000000000E+00 -0.00000000000E+00 -0.88757289182E+02  0.88757289182E+02  0.00000000000E+00 0. -1.
          6    1    1    2  502    0 -0.78878199781E+02 -0.60630631968E+02  0.15863212704E+03  0.25493331611E+03  0.17300000000E+03 0. -1.
         -6    1    1    2    0  501  0.78878199781E+02  0.60630631968E+02  0.20459206064E+03  0.28580544993E+03  0.17300000000E+03 0.  1.
</event>
<event>
 4    1  0.5880538E-001  0.1000000E+03  0.7546771E-02  0.1280296E+00
         -2   -1    0    0    0  501 -0.00000000000E+00  0.00000000000E+00  0.50140123843E+02  0.50140123843E+02  0.00000000000E+00 0.  1.
          2   -1    0    0  502    0  0.00000000000E+00 -0.00000000000E+00 -0.69379247484E+03  0.69379247484E+03  0.00000000000E+00 0. -1.
          6    1    1    2  502    0  0.68410585645E+02  0.16684560922E+01 -0.34821229139E+03  0.39479563302E+03  0.17300000000E+03 0. -1.
         -6    1    1    2    0  501 -0.68410585645E+02 -0.16684560922E+01 -0.29544005961E+03  0.34913696567E+03  0.17300000000E+03 0.  1.
</event>
<event>
 4    1  0.5880538E-001  0.1000000E+03  0.7546771E-02  0.1280296E+00
         -2   -1    0    0    0  501 -0.00000000000E+00  0.00000000000E+00  0.99529319759E+03  0.99529319759E+03  0.00000000000E+00 0.  1.
          2   -1    0    0  502    0  0.00000000000E+00 -0.00000000000E+00 -0.47348861431E+02  0.47348861431E+02  0.00000000000E+00 0. -1.
          6    1    1    2  502    0 -0.62107273373E+02 -0.87807605174E+02  0.29379063280E+03  0.35750444033E+03  0.17300000000E+03 0. -1.
         -6    1    1    2    0  501  0.62107273373E+02  0.87807605174E+02  0.65415370336E+03  0.68513761869E+03  0.17300000000E+03 0.  1.
</event>
<event>
 4    1  0.5880538E-001  0.1000000E+03  0.7546771E-02  0.1280296E+00
         -1   -1    0    0    0  501 -0.00000000000E+00  0.00000000000E+00  0.13962178876E+03  0.13962178876E+03  0.00000000000E+00 0.  1.
          1   -1    0    0  502    0  0.00000000000E+00 -0.00000000000E+00 -0.26153658946E+03  0.26153658946E+03  0.00000000000E+00 0. -1.
          6    1    1    2  502    0  0.47183878043E+02 -0.18362978828E+02  0.56243569169E+01  0.18034453341E+03  0.17300000000E+03 0. -1.
         -6    1    1    2    0  501 -0.47183878043E+02  0.18362978828E+02 -0.12753915761E+03  0.22081384482E+03  0.17300000000E+03 0.  1.
</event>
<event>
 4    1  0.5880538E-001  0.1000000E+03  0.7546771E-02  0.1280296E+00
         -1   -1    0    0    0  501 -0.00000000000E+00  0.00000000000E+00  0.28812492274E+03  0.28812492274E+03  0.00000000000E+00 0.  1.
          1   -1    0    0  502    0  0.00000000000E+00 -0.00000000000E+00 -0.17730198402E+03  0.17730198402E+03  0.00000000000E+00 0. -1.
          6    1    1    2  502    0 -0.14075383737E+03 -0.70228821045E+01  0.18357438226E+02  0.22389050705E+03  0.17300000000E+03 0. -1.
         -6    1    1    2    0  501  0.14075383737E+03  0.70228821045E+01  0.92465500494E+02  0.24153639972E+03  0.17300000000E+03 0.  1.
</event>
<event>
 4    1  0.5880538E-001  0.1000000E+03  0.7546771E-02  0.1280296E+00
         -2   -1    0    0    0  501 -0.00000000000E+00  0.00000000000E+00  0.69755692698E+02  0.69755692698E+02  0.00000000000E+00 0.  1.
          2   -1    0    0  502    0  0.00000000000E+00 -0.00000000000E+00 -0.16325920988E+04  0.16325920988E+04  0.00000000000E+00 0. -1.
          6    1    1    2  502    0  0.11748073005E+03 -0.15621732984E+03 -0.24193769444E+03  0.35590507732E+03  0.17300000000E+03 0. -1.
         -6    1    1    2    0  501 -0.11748073005E+03  0.15621732984E+03 -0.13208987117E+04  0.13464427142E+04  0.17300000000E+03 0.  1.
</event>
<event>
 4    1  0.5880538E-001  0.1000000E+03  0.7546771E-02  0.1280296E+00
         -1   -1    0    0    0  501 -0.00000000000E+00  0.00000000000E+00  0.32976365121E+03  0.32976365121E+03  0.00000000000E+00 0.  1.
          1   -1    0    0  502    0  0.00000000000E+00 -0.00000000000E+00 -0.12305970184E+03  0.12305970184E+03  0.00000000000E+00 0. -1.
          6    1    1    2  502    0  0.60163531514E+02  0.15671152469E+02  0.10763139493E+02  0.18414689983E+03  0.17300000000E+03 0. -1.
         -6    1    1    2    0  501 -0.60163531514E+02 -0.15671152469E+02  0.19594080988E+03  0.26867645323E+03  0.17300000000E+03 0.  1.
</event>
<event>
 4    1  0.5880538E-001  0.1000000E+03  0.7546771E-02  0.1280296E+00
         -1   -1    0    0    0  501 -0.00000000000E+00  0.00000000000E+00  0.57685546380E+02  0.57685546380E+02  0.00000000000E+00 0.  1.
          1   -1    0    0  502    0  0.00000000000E+00 -0.00000000000E+00 -0.14550745978E+04  0.14550745978E+04  0.00000000000E+00 0. -1.
          6    1    1    2  502    0 -0.16901749770E+03 -0.12517690506E+03 -0.95677004423E+03  0.99477338606E+03  0.17300000000E+03 0. -1.
         -6    1    1    2    0  501  0.16901749770E+03  0.12517690506E+03 -0.44061900723E+03  0.51798675815E+03  0.17300000000E+03 0.  1.
</event>
<event>
 4    1  0.5880538E-001  0.1000000E+03  0.7546771E-02  0.1280296E+00
          1   -1    0    0  502    0  0.00000000000E+00  0.00000000000E+00  0.84336389187E+03  0.84336389187E+03  0.00000000000E+00 0.  1.
         -1   -1    0    0    0  501 -0.00000000000E+00 -0.00000000000E+00 -0.60546050559E+02  0.60546050559E+02  0.00000000000E+00 0. -1.
          6    1    1    2  502    0 -0.12121157923E+03 -0.56021504718E+01  0.55153583948E+03  0.59063052178E+03  0.17300000000E+03 0.  1.
         -6    1    1    2    0  501  0.12121157923E+03  0.56021504718E+01  0.23128200183E+03  0.31327942065E+03  0.17300000000E+03 0. -1.
</event>
<event>
 4    1  0.5880538E-001  0.1000000E+03  0.7546771E-02  0.1280296E+00
          1   -1    0    0  502    0  0.00000000000E+00  0.00000000000E+00  0.18257478613E+04  0.18257478613E+04  0.00000000000E+00 0.  1.
         -1   -1    0    0    0  501 -0.00000000000E+00 -0.00000000000E+00 -0.24044162051E+02  0.24044162051E+02  0.00000000000E+00 0. -1.
          6    1    1    2  502    0  0.62628885886E+02 -0.73399298504E+02  0.59951748026E+03  0.63139531476E+03  0.17300000000E+03 0.  1.
         -6    1    1    2    0  501 -0.62628885886E+02  0.73399298504E+02  0.12021862190E+04  0.12183967086E+04  0.17300000000E+03 0. -1.
</event>
<event>
 4    1  0.5880538E-001  0.1000000E+03  0.7546771E-02  0.1280296E+00
          1   -1    0    0  502    0  0.00000000000E+00  0.00000000000E+00  0.64125917640E+03  0.64125917640E+03  0.00000000000E+00 0.  1.
         -1   -1    0    0    0  501 -0.00000000000E+00 -0.00000000000E+00 -0.11070781318E+03  0.11070781318E+03  0.00000000000E+00 0. -1.
          6    1    1    2  502    0 -0.35456347072E+02 -0.12342675912E+03  0.44076334545E+02  0.21991598551E+03  0.17300000000E+03 0.  1.
         -6    1    1    2    0  501  0.35456347072E+02  0.12342675912E+03  0.48647502867E+03  0.53205100407E+03  0.17300000000E+03 0. -1.
</event>
<event>
 4    1  0.5880538E-001  0.1000000E+03  0.7546771E-02  0.1280296E+00
          2   -1    0    0  502    0  0.00000000000E+00  0.00000000000E+00  0.41620171796E+02  0.41620171796E+02  0.00000000000E+00 0.  1.
         -2   -1    0    0    0  501 -0.00000000000E+00 -0.00000000000E+00 -0.24093942076E+04  0.24093942076E+04  0.00000000000E+00 0. -1.
          6    1    1    2  502    0  0.84573436819E+02  0.71584783208E+02 -0.25128049052E+03  0.32457346213E+03  0.17300000000E+03 0.  1.
         -6    1    1    2    0  501 -0.84573436819E+02 -0.71584783208E+02 -0.21164935453E+04  0.21264409173E+04  0.17300000000E+03 0. -1.
</event>
<event>
 4    1  0.5880538E-001  0.1000000E+03  0.7546771E-02  0.1280296E+00
          2   -1    0    0  502    0  0.00000000000E+00  0.00000000000E+00  0.30065133729E+04  0.30065133729E+04  0.00000000000E+00 0.  1.
         -2   -1    0    0    0  501 -0.00000000000E+00 -0.00000000000E+00 -0.14780795632E+02  0.14780795632E+02  0.00000000000E+00 0. -1.
          6    1    1    2  502    0 -0.29186227683E+02 -0.10203631670E+03  0.19041710896E+04  0.19149568622E+04  0.17300000000E+03 0.  1.
         -6    1    1    2    0  501  0.29186227683E+02  0.10203631670E+03  0.10875614877E+04  0.11063373063E+04  0.17300000000E+03 0.  1.
</event>
<event>
 4    1  0.5880538E-001  0.1000000E+03  0.7546771E-02  0.1280296E+00
         -1   -1    0    0    0  501 -0.00000000000E+00  0.00000000000E+00  0.19433697375E+02  0.19433697375E+02  0.00000000000E+00 0.  1.
          1   -1    0    0  502    0  0.00000000000E+00 -0.00000000000E+00 -0.21027774271E+04  0.21027774271E+04  0.00000000000E+00 0. -1.
          6    1    1    2  502    0 -0.16855839633E+02 -0.10307726325E+03 -0.10687943059E+04  0.10877312673E+04  0.17300000000E+03 0. -1.
         -6    1    1    2    0  501  0.16855839633E+02  0.10307726325E+03 -0.10145494239E+04  0.10344798572E+04  0.17300000000E+03 0.  1.
</event>
<event>
 4    1  0.5880538E-001  0.1000000E+03  0.7546771E-02  0.1280296E+00
         -1   -1    0    0    0  501 -0.00000000000E+00  0.00000000000E+00  0.10917914440E+04  0.10917914440E+04  0.00000000000E+00 0.  1.
          1   -1    0    0  502    0  0.00000000000E+00 -0.00000000000E+00 -0.42961031921E+02  0.42961031921E+02  0.00000000000E+00 0. -1.
          6    1    1    2  502    0  0.67374654558E+02 -0.32765621685E+02  0.80367086709E+03  0.82548700332E+03  0.17300000000E+03 0. -1.
         -6    1    1    2    0  501 -0.67374654558E+02  0.32765621685E+02  0.24515954497E+03  0.30926547258E+03  0.17300000000E+03 0.  1.
</event>
<event>
 4    1  0.5880538E-001  0.1000000E+03  0.7546771E-02  0.1280296E+00
         -4   -1    0    0    0  501 -0.00000000000E+00  0.00000000000E+00  0.13199366812E+03  0.13199366812E+03  0.00000000000E+00 0.  1.
          4   -1    0    0  502    0  0.00000000000E+00 -0.00000000000E+00 -0.32280366945E+03  0.32280366945E+03  0.00000000000E+00 0. -1.
          6    1    1    2  502    0  0.46933043494E+01  0.48315228601E+02 -0.20733275248E+03  0.27435790251E+03  0.17300000000E+03 0.  1.
         -6    1    1    2    0  501 -0.46933043494E+01 -0.48315228601E+02  0.16522751147E+02  0.18043943506E+03  0.17300000000E+03 0. -1.
</event>
<event>
 4    1  0.5880538E-001  0.1000000E+03  0.7546771E-02  0.1280296E+00
         -1   -1    0    0    0  501 -0.00000000000E+00  0.00000000000E+00  0.10253209424E+03  0.10253209424E+03  0.00000000000E+00 0.  1.
          1   -1    0    0  502    0  0.00000000000E+00 -0.00000000000E+00 -0.43939105709E+03  0.43939105709E+03  0.00000000000E+00 0. -1.
          6    1    1    2  502    0 -0.51117348235E+02  0.10966278475E+03 -0.19650799918E+03  0.28841515805E+03  0.17300000000E+03 0.  1.
         -6    1    1    2    0  501  0.51117348235E+02 -0.10966278475E+03 -0.14035096367E+03  0.25350799328E+03  0.17300000000E+03 0. -1.
</event>
<event>
 4    1  0.5880538E-001  0.1000000E+03  0.7546771E-02  0.1280296E+00
         -1   -1    0    0    0  501 -0.00000000000E+00  0.00000000000E+00  0.19197250709E+03  0.19197250709E+03  0.00000000000E+00 0.  1.
          1   -1    0    0  502    0  0.00000000000E+00 -0.00000000000E+00 -0.24304994856E+03  0.24304994856E+03  0.00000000000E+00 0. -1.
          6    1    1    2  502    0  0.37234405208E+02  0.93988417365E+02 -0.10678329424E+03  0.22705042492E+03  0.17300000000E+03 0.  1.
         -6    1    1    2    0  501 -0.37234405208E+02 -0.93988417365E+02  0.55705852769E+02  0.20797203072E+03  0.17300000000E+03 0. -1.
</event>
<event>
 4    1  0.5880538E-001  0.1000000E+03  0.7546771E-02  0.1280296E+00
          2   -1    0    0  502    0  0.00000000000E+00  0.00000000000E+00  0.13121060458E+04  0.13121060458E+04  0.00000000000E+00 0.  1.
         -2   -1    0    0    0  501 -0.00000000000E+00 -0.00000000000E+00 -0.58922239213E+02  0.58922239213E+02  0.00000000000E+00 0. -1.
          6    1    1    2  502    0 -0.14057180335E+03 -0.86826166360E+02  0.27719620230E+03  0.36615017361E+03  0.17300000000E+03 0. -1.
         -6    1    1    2    0  501  0.14057180335E+03  0.86826166360E+02  0.97598760425E+03  0.10048781114E+04  0.17300000000E+03 0.  1.
</event>
<event>
 4    1  0.5880538E-001  0.1000000E+03  0.7546771E-02  0.1280296E+00
          3   -1    0    0  502    0  0.00000000000E+00  0.00000000000E+00  0.82745339022E+02  0.82745339022E+02  0.00000000000E+00 0.  1.
         -3   -1    0    0    0  501 -0.00000000000E+00 -0.00000000000E+00 -0.14643053196E+04  0.14643053196E+04  0.00000000000E+00 0. -1.
          6    1    1    2  502    0 -0.47685614928E+02  0.27300070460E+03 -0.42381624977E+03  0.53511916070E+03  0.17300000000E+03 0. -1.
         -6    1    1    2    0  501  0.47685614928E+02 -0.27300070460E+03 -0.95774373081E+03  0.10119314979E+04  0.17300000000E+03 0.  1.
</event>
<event>
 4    1  0.5880538E-001  0.1000000E+03  0.7546771E-02  0.1280296E+00
          2   -1    0    0  502    0  0.00000000000E+00  0.00000000000E+00  0.50801897791E+03  0.50801897791E+03  0.00000000000E+00 0.  1.
         -2   -1    0    0    0  501 -0.00000000000E+00 -0.00000000000E+00 -0.24101378476E+03  0.24101378476E+03  0.00000000000E+00 0. -1.
          6    1    1    2  502    0  0.47546032949E+01 -0.14193092074E+03  0.42138155282E+03  0.47713562598E+03  0.17300000000E+03 0. -1.
         -6    1    1    2    0  501 -0.47546032949E+01  0.14193092074E+03 -0.15437635968E+03  0.27189713670E+03  0.17300000000E+03 0.  1.
</event>
<event>
 4    1  0.5880538E-001  0.1000000E+03  0.7546771E-02  0.1280296E+00
         -2   -1    0    0    0  501 -0.00000000000E+00  0.00000000000E+00  0.19144652574E+03  0.19144652574E+03  0.00000000000E+00 0.  1.
          2   -1    0    0  502    0  0.00000000000E+00 -0.00000000000E+00 -0.65467716249E+03  0.65467716249E+03  0.00000000000E+00 0. -1.
          6    1    1    2  502    0 -0.23085020161E+02  0.19460390682E+03  0.53693791567E+02  0.26686255256E+03  0.17300000000E+03 0. -1.
         -6    1    1    2    0  501  0.23085020161E+02 -0.19460390682E+03 -0.51692442831E+03  0.57926113567E+03  0.17300000000E+03 0.  1.
</event>
<event>
 4    1  0.5880538E-001  0.1000000E+03  0.7546771E-02  0.1280296E+00
         -2   -1    0    0    0  501 -0.00000000000E+00  0.00000000000E+00  0.31256097693E+02  0.31256097693E+02  0.00000000000E+00 0.  1.
          2   -1    0    0  502    0  0.00000000000E+00 -0.00000000000E+00 -0.27517303597E+04  0.27517303597E+04  0.00000000000E+00 0. -1.
          6    1    1    2  502    0 -0.45751771466E+02  0.67637127115E+02 -0.24149254357E+04  0.24224908391E+04  0.17300000000E+03 0. -1.
         -6    1    1    2    0  501  0.45751771466E+02 -0.67637127115E+02 -0.30554882640E+03  0.36049561838E+03  0.17300000000E+03 0.  1.
</event>
<event>
 4    1  0.5880538E-001  0.1000000E+03  0.7546771E-02  0.1280296E+00
         -1   -1    0    0    0  501 -0.00000000000E+00  0.00000000000E+00  0.34044757815E+03  0.34044757815E+03  0.00000000000E+00 0. -1.
          1   -1    0    0  502    0  0.00000000000E+00 -0.00000000000E+00 -0.25976514164E+03  0.25976514164E+03  0.00000000000E+00 0.  1.
          6    1    1    2  502    0 -0.21464514270E+03 -0.10919262829E+03  0.17509988879E+02  0.29703731595E+03  0.17300000000E+03 0. -1.
         -6    1    1    2    0  501  0.21464514270E+03  0.10919262829E+03  0.63172447624E+02  0.30317540384E+03  0.17300000000E+03 0.  1.
</event>
<event>
 4    1  0.5880538E-001  0.1000000E+03  0.7546771E-02  0.1280296E+00
         -2   -1    0    0    0  501 -0.00000000000E+00  0.00000000000E+00  0.34035271146E+03  0.34035271146E+03  0.00000000000E+00 0. -1.
          2   -1    0    0  502    0  0.00000000000E+00 -0.00000000000E+00 -0.15125172650E+03  0.15125172650E+03  0.00000000000E+00 0.  1.
          6    1    1    2  502    0 -0.99921859050E+02  0.72104015554E+02  0.18099227643E+03  0.27905298977E+03  0.17300000000E+03 0. -1.
         -6    1    1    2    0  501  0.99921859050E+02 -0.72104015554E+02  0.81087085374E+01  0.21255144819E+03  0.17300000000E+03 0.  1.
</event>
<event>
 4    1  0.5880538E-001  0.1000000E+03  0.7546771E-02  0.1280296E+00
          1   -1    0    0  502    0  0.00000000000E+00  0.00000000000E+00  0.44679546331E+03  0.44679546331E+03  0.00000000000E+00 0.  1.
         -1   -1    0    0    0  501 -0.00000000000E+00 -0.00000000000E+00 -0.10931312903E+03  0.10931312903E+03  0.00000000000E+00 0. -1.
          6    1    1    2  502    0  0.32697469920E+01 -0.12561856926E+03  0.23902874448E+03  0.32070930276E+03  0.17300000000E+03 0. -1.
         -6    1    1    2    0  501 -0.32697469920E+01  0.12561856926E+03  0.98453589809E+02  0.23539928958E+03  0.17300000000E+03 0.  1.
</event>
<event>
 4    1  0.5880538E-001  0.1000000E+03  0.7546771E-02  0.1280296E+00
          1   -1    0    0  502    0  0.00000000000E+00  0.00000000000E+00  0.60132586578E+02  0.60132586578E+02  0.00000000000E+00 0.  1.
         -1   -1    0    0    0  501 -0.00000000000E+00 -0.00000000000E+00 -0.55452488106E+03  0.55452488106E+03  0.00000000000E+00 0. -1.
          6    1    1    2  502    0 -0.21442972636E+02 -0.29302704197E+02 -0.17011547218E+03  0.24532982579E+03  0.17300000000E+03 0. -1.
         -6    1    1    2    0  501  0.21442972636E+02  0.29302704197E+02 -0.32427682231E+03  0.36932764185E+03  0.17300000000E+03 0.  1.
</event>
<event>
 4    1  0.5880538E-001  0.1000000E+03  0.7546771E-02  0.1280296E+00
          2   -1    0    0  502    0  0.00000000000E+00  0.00000000000E+00  0.27214763876E+03  0.27214763876E+03  0.00000000000E+00 0.  1.
         -2   -1    0    0    0  501 -0.00000000000E+00 -0.00000000000E+00 -0.18096297157E+03  0.18096297157E+03  0.00000000000E+00 0. -1.
          6    1    1    2  502    0 -0.12291150154E+02 -0.13447887616E+03  0.79204206762E+02  0.23331940955E+03  0.17300000000E+03 0. -1.
         -6    1    1    2    0  501  0.12291150154E+02  0.13447887616E+03  0.11980460428E+02  0.21979120077E+03  0.17300000000E+03 0.  1.
</event>
<event>
 4    1  0.5880538E-001  0.1000000E+03  0.7546771E-02  0.1280296E+00
          1   -1    0    0  502    0  0.00000000000E+00  0.00000000000E+00  0.36459001607E+03  0.36459001607E+03  0.00000000000E+00 0.  1.
         -1   -1    0    0    0  501 -0.00000000000E+00 -0.00000000000E+00 -0.11374275341E+03  0.11374275341E+03  0.00000000000E+00 0. -1.
          6    1    1    2  502    0  0.14557881781E+02  0.10335789469E+02  0.10107236506E+01  0.17392176985E+03  0.17300000000E+03 0. -1.
         -6    1    1    2    0  501 -0.14557881781E+02 -0.10335789469E+02  0.24983653901E+03  0.30441099962E+03  0.17300000000E+03 0.  1.
</event>
<event>
 4    1  0.5880538E-001  0.1000000E+03  0.7546771E-02  0.1280296E+00
          3   -1    0    0  502    0  0.00000000000E+00  0.00000000000E+00  0.34676671908E+03  0.34676671908E+03  0.00000000000E+00 0.  1.
         -3   -1    0    0    0  501 -0.00000000000E+00 -0.00000000000E+00 -0.15292287397E+03  0.15292287397E+03  0.00000000000E+00 0. -1.
          6    1    1    2  502    0 -0.43204784573E+01  0.15178941956E+03  0.89985882132E+02  0.24715410862E+03  0.17300000000E+03 0. -1.
         -6    1    1    2    0  501  0.43204784573E+01 -0.15178941956E+03  0.10385796298E+03  0.25253548443E+03  0.17300000000E+03 0.  1.
</event>
<event>
 4    1  0.5880538E-001  0.1000000E+03  0.7546771E-02  0.1280296E+00
         -1   -1    0    0    0  501 -0.00000000000E+00  0.00000000000E+00  0.15890486593E+03  0.15890486593E+03  0.00000000000E+00 0.  1.
          1   -1    0    0  502    0  0.00000000000E+00 -0.00000000000E+00 -0.23182230447E+03  0.23182230447E+03  0.00000000000E+00 0. -1.
          6    1    1    2  502    0 -0.13826607933E+02 -0.81890633899E+02 -0.33015748901E+02  0.19472105865E+03  0.17300000000E+03 0.  1.
         -6    1    1    2    0  501  0.13826607933E+02  0.81890633899E+02 -0.39901689641E+02  0.19600611175E+03  0.17300000000E+03 0. -1.
</event>
<event>
 4    1  0.5880538E-001  0.1000000E+03  0.7546771E-02  0.1280296E+00
         -2   -1    0    0    0  501 -0.00000000000E+00  0.00000000000E+00  0.32305738741E+02  0.32305738741E+02  0.00000000000E+00 0.  1.
          2   -1    0    0  502    0  0.00000000000E+00 -0.00000000000E+00 -0.11097826539E+04  0.11097826539E+04  0.00000000000E+00 0. -1.
          6    1    1    2  502    0 -0.32808310304E+02  0.69596082267E+02 -0.53321969720E+03  0.56583764931E+03  0.17300000000E+03 0.  1.
         -6    1    1    2    0  501  0.32808310304E+02 -0.69596082267E+02 -0.54425721795E+03  0.57625074333E+03  0.17300000000E+03 0. -1.
</event>
<event>
 4    1  0.5880538E-001  0.1000000E+03  0.7546771E-02  0.1280296E+00
          2   -1    0    0  502    0  0.00000000000E+00  0.00000000000E+00  0.63842826624E+03  0.63842826624E+03  0.00000000000E+00 0.  1.
         -2   -1    0    0    0  501 -0.00000000000E+00 -0.00000000000E+00 -0.68695453855E+02  0.68695453855E+02  0.00000000000E+00 0. -1.
          6    1    1    2  502    0 -0.32433380280E+02  0.26345989916E+02  0.98526378499E+02  0.20342684828E+03  0.17300000000E+03 0. -1.
         -6    1    1    2    0  501  0.32433380280E+02 -0.26345989916E+02  0.47120643388E+03  0.50369687181E+03  0.17300000000E+03 0.  1.
</event>
<event>
 4    1  0.5880538E-001  0.1000000E+03  0.7546771E-02  0.1280296E+00
          2   -1    0    0  502    0  0.00000000000E+00  0.00000000000E+00  0.81194929011E+03  0.81194929011E+03  0.00000000000E+00 0. -1.
         -2   -1    0    0    0  501 -0.00000000000E+00 -0.00000000000E+00 -0.84013874102E+02  0.84013874102E+02  0.00000000000E+00 0.  1.
          6    1    1    2  502    0  0.11731706325E+03  0.15091106281E+03  0.29224430768E+03  0.38970909353E+03  0.17300000000E+03 0. -1.
         -6    1    1    2    0  501 -0.11731706325E+03 -0.15091106281E+03  0.43569110833E+03  0.50625407069E+03  0.17300000000E+03 0.  1.
</event>
<event>
 4    1  0.5880538E-001  0.1000000E+03  0.7546771E-02  0.1280296E+00
          2   -1    0    0  502    0  0.00000000000E+00  0.00000000000E+00  0.27428738360E+04  0.27428738360E+04  0.00000000000E+00 0. -1.
         -2   -1    0    0    0  501 -0.00000000000E+00 -0.00000000000E+00 -0.30644302896E+02  0.30644302896E+02  0.00000000000E+00 0.  1.
          6    1    1    2  502    0 -0.24183750567E+02  0.17495508972E+03  0.20804310988E+04  0.20950696156E+04  0.17300000000E+03 0. -1.
         -6    1    1    2    0  501  0.24183750567E+02 -0.17495508972E+03  0.63179843422E+03  0.67844852325E+03  0.17300000000E+03 0.  1.
</event>
<event>
 4    1  0.5880538E-001  0.1000000E+03  0.7546771E-02  0.1280296E+00
          1   -1    0    0  502    0  0.00000000000E+00  0.00000000000E+00  0.64854246699E+03  0.64854246699E+03  0.00000000000E+00 0. -1.
         -1   -1    0    0    0  501 -0.00000000000E+00 -0.00000000000E+00 -0.30280505128E+03  0.30280505128E+03  0.00000000000E+00 0.  1.
          6    1    1    2  502    0  0.29838082776E+03  0.24021557361E+03  0.32359641894E+03  0.53045101803E+03  0.17300000000E+03 0. -1.
         -6    1    1    2    0  501 -0.29838082776E+03 -0.24021557361E+03  0.22140996767E+02  0.42089650024E+03  0.17300000000E+03 0.  1.
</event>
<event>
 4    1  0.5880538E-001  0.1000000E+03  0.7546771E-02  0.1280296E+00
          1   -1    0    0  502    0  0.00000000000E+00  0.00000000000E+00  0.55428228361E+03  0.55428228361E+03  0.00000000000E+00 0. -1.
         -1   -1    0    0    0  501 -0.00000000000E+00 -0.00000000000E+00 -0.36562418766E+03  0.36562418766E+03  0.00000000000E+00 0.  1.
          6    1    1    2  502    0 -0.40969251732E+03  0.61918479698E+02  0.12740733570E+03  0.46673706309E+03  0.17300000000E+03 0. -1.
         -6    1    1    2    0  501  0.40969251732E+03 -0.61918479698E+02  0.61250760257E+02  0.45316940818E+03  0.17300000000E+03 0.  1.
</event>
<event>
 4    1  0.5880538E-001  0.1000000E+03  0.7546771E-02  0.1280296E+00
          2   -1    0    0  502    0  0.00000000000E+00  0.00000000000E+00  0.27214634437E+03  0.27214634437E+03  0.00000000000E+00 0. -1.
         -2   -1    0    0    0  501 -0.00000000000E+00 -0.00000000000E+00 -0.14895399598E+03  0.14895399598E+03  0.00000000000E+00 0.  1.
          6    1    1    2  502    0 -0.37594567773E+02  0.93928265405E+02  0.41415215271E+02  0.20464625729E+03  0.17300000000E+03 0. -1.
         -6    1    1    2    0  501  0.37594567773E+02 -0.93928265405E+02  0.81777133121E+02  0.21645408305E+03  0.17300000000E+03 0.  1.
</event>
<event>
 4    1  0.5880538E-001  0.1000000E+03  0.7546771E-02  0.1280296E+00
         -2   -1    0    0    0  501 -0.00000000000E+00  0.00000000000E+00  0.39315356580E+03  0.39315356580E+03  0.00000000000E+00 0. -1.
          2   -1    0    0  502    0  0.00000000000E+00 -0.00000000000E+00 -0.22306587190E+03  0.22306587190E+03  0.00000000000E+00 0.  1.
          6    1    1    2  502    0  0.19851944425E+03  0.16085117059E+02 -0.54935612530E+02  0.26947285997E+03  0.17300000000E+03 0. -1.
         -6    1    1    2    0  501 -0.19851944425E+03 -0.16085117059E+02  0.22502330642E+03  0.34674657773E+03  0.17300000000E+03 0.  1.
</event>
<event>
 4    1  0.5880538E-001  0.1000000E+03  0.7546771E-02  0.1280296E+00
          2   -1    0    0  502    0  0.00000000000E+00  0.00000000000E+00  0.35682865783E+03  0.35682865783E+03  0.00000000000E+00 0.  1.
         -2   -1    0    0    0  501 -0.00000000000E+00 -0.00000000000E+00 -0.20151621087E+03  0.20151621087E+03  0.00000000000E+00 0. -1.
          6    1    1    2  502    0  0.82196849742E+02 -0.10808002561E+03 -0.82075891847E+02  0.23474042274E+03  0.17300000000E+03 0. -1.
         -6    1    1    2    0  501 -0.82196849742E+02  0.10808002561E+03  0.23738833881E+03  0.32360444596E+03  0.17300000000E+03 0. -1.
</event>
<event>
 4    1  0.5880538E-001  0.1000000E+03  0.7546771E-02  0.1280296E+00
          2   -1    0    0  502    0  0.00000000000E+00  0.00000000000E+00  0.14839802467E+04  0.14839802467E+04  0.00000000000E+00 0.  1.
         -2   -1    0    0    0  501 -0.00000000000E+00 -0.00000000000E+00 -0.30750718421E+02  0.30750718421E+02  0.00000000000E+00 0. -1.
          6    1    1    2  502    0 -0.98689510587E+02 -0.63796135048E+02  0.88094680068E+03  0.90543129611E+03  0.17300000000E+03 0. -1.
         -6    1    1    2    0  501  0.98689510587E+02  0.63796135048E+02  0.57228272758E+03  0.60929966899E+03  0.17300000000E+03 0. -1.
</event>
<event>
 4    1  0.5880538E-001  0.1000000E+03  0.7546771E-02  0.1280296E+00
          2   -1    0    0  502    0  0.00000000000E+00  0.00000000000E+00  0.88538246715E+03  0.88538246715E+03  0.00000000000E+00 0.  1.
         -2   -1    0    0    0  501 -0.00000000000E+00 -0.00000000000E+00 -0.40559908870E+02  0.40559908870E+02  0.00000000000E+00 0. -1.
          6    1    1    2  502    0  0.16330727134E+02 -0.43747192827E+01  0.23802326491E+03  0.29473701067E+03  0.17300000000E+03 0. -1.
         -6    1    1    2    0  501 -0.16330727134E+02  0.43747192827E+01  0.60679929337E+03  0.63120536535E+03  0.17300000000E+03 0. -1.
</event>
<event>
 4    1  0.5880538E-001  0.1000000E+03  0.7546771E-02  0.1280296E+00
          2   -1    0    0  502    0  0.00000000000E+00  0.00000000000E+00  0.14147430033E+04  0.14147430033E+04  0.00000000000E+00 0.  1.
         -2   -1    0    0    0  501 -0.00000000000E+00 -0.00000000000E+00 -0.40360661412E+02  0.40360661412E+02  0.00000000000E+00 0. -1.
          6    1    1    2  502    0  0.20150188107E+02  0.12789762688E+03  0.99779837201E+03  0.10209282170E+04  0.17300000000E+03 0. -1.
         -6    1    1    2    0  501 -0.20150188107E+02 -0.12789762688E+03  0.37658396988E+03  0.43417544773E+03  0.17300000000E+03 0. -1.
</event>
<event>
 4    1  0.5880538E-001  0.1000000E+03  0.7546771E-02  0.1280296E+00
          2   -1    0    0  502    0  0.00000000000E+00  0.00000000000E+00  0.12568141808E+03  0.12568141808E+03  0.00000000000E+00 0.  1.
         -2   -1    0    0    0  501 -0.00000000000E+00 -0.00000000000E+00 -0.33546535922E+03  0.33546535922E+03  0.00000000000E+00 0. -1.
          6    1    1    2  502    0 -0.41472713900E+02  0.49153329033E+01  0.10110955292E+02  0.17825649473E+03  0.17300000000E+03 0. -1.
         -6    1    1    2    0  501  0.41472713900E+02 -0.49153329033E+01 -0.21989489644E+03  0.28289028257E+03  0.17300000000E+03 0. -1.
</event>
<event>
 4    1  0.5880538E-001  0.1000000E+03  0.7546771E-02  0.1280296E+00
          2   -1    0    0  502    0  0.00000000000E+00  0.00000000000E+00  0.70389765290E+03  0.70389765290E+03  0.00000000000E+00 0.  1.
         -2   -1    0    0    0  501 -0.00000000000E+00 -0.00000000000E+00 -0.63128437409E+02  0.63128437409E+02  0.00000000000E+00 0. -1.
          6    1    1    2  502    0 -0.91980394809E+02 -0.20289098994E+02  0.45695503771E+03  0.49760320242E+03  0.17300000000E+03 0.  1.
         -6    1    1    2    0  501  0.91980394809E+02  0.20289098994E+02  0.18381417778E+03  0.26942288789E+03  0.17300000000E+03 0. -1.
</event>
<event>
 4    1  0.5880538E-001  0.1000000E+03  0.7546771E-02  0.1280296E+00
          2   -1    0    0  502    0  0.00000000000E+00  0.00000000000E+00  0.72015282577E+03  0.72015282577E+03  0.00000000000E+00 0. -1.
         -2   -1    0    0    0  501 -0.00000000000E+00 -0.00000000000E+00 -0.68553825173E+02  0.68553825173E+02  0.00000000000E+00 0.  1.
          6    1    1    2  502    0  0.35729063870E+01 -0.46837444431E+01  0.57304025249E+03  0.59861409447E+03  0.17300000000E+03 0. -1.
         -6    1    1    2    0  501 -0.35729063870E+01  0.46837444431E+01  0.78558748104E+02  0.19009255647E+03  0.17300000000E+03 0. -1.
</event>
<event>
 4    1  0.5880538E-001  0.1000000E+03  0.7546771E-02  0.1280296E+00
          2   -1    0    0  502    0  0.00000000000E+00  0.00000000000E+00  0.18783362863E+04  0.18783362863E+04  0.00000000000E+00 0. -1.
         -2   -1    0    0    0  501 -0.00000000000E+00 -0.00000000000E+00 -0.28011528456E+02  0.28011528456E+02  0.00000000000E+00 0.  1.
          6    1    1    2  502    0 -0.12289501875E+03 -0.86784312127E+02  0.95494499511E+03  0.98208128287E+03  0.17300000000E+03 0. -1.
         -6    1    1    2    0  501  0.12289501875E+03  0.86784312127E+02  0.89537976277E+03  0.92426653193E+03  0.17300000000E+03 0. -1.
</event>
<event>
 4    1  0.5880538E-001  0.1000000E+03  0.7546771E-02  0.1280296E+00
          2   -1    0    0  502    0  0.00000000000E+00  0.00000000000E+00  0.58726024462E+03  0.58726024462E+03  0.00000000000E+00 0. -1.
         -2   -1    0    0    0  501 -0.00000000000E+00 -0.00000000000E+00 -0.19831908831E+03  0.19831908831E+03  0.00000000000E+00 0.  1.
          6    1    1    2  502    0  0.11845173593E+03 -0.21802721280E+03  0.37634227995E+03  0.48283453785E+03  0.17300000000E+03 0. -1.
         -6    1    1    2    0  501 -0.11845173593E+03  0.21802721280E+03  0.12598876359E+02  0.30274479508E+03  0.17300000000E+03 0. -1.
</event>
<event>
 4    1  0.5880538E-001  0.1000000E+03  0.7546771E-02  0.1280296E+00
          2   -1    0    0  502    0  0.00000000000E+00  0.00000000000E+00  0.14848465773E+04  0.14848465773E+04  0.00000000000E+00 0. -1.
         -2   -1    0    0    0  501 -0.00000000000E+00 -0.00000000000E+00 -0.27482173852E+02  0.27482173852E+02  0.00000000000E+00 0.  1.
          6    1    1    2  502    0 -0.90991423849E+02  0.46844509416E+02  0.65344693168E+03  0.68366346970E+03  0.17300000000E+03 0. -1.
         -6    1    1    2    0  501  0.90991423849E+02 -0.46844509416E+02  0.80391747178E+03  0.82866528147E+03  0.17300000000E+03 0. -1.
</event>
<event>
 4    1  0.5880538E-001  0.1000000E+03  0.7546771E-02  0.1280296E+00
          1   -1    0    0  502    0  0.00000000000E+00  0.00000000000E+00  0.13612466890E+03  0.13612466890E+03  0.00000000000E+00 0. -1.
         -1   -1    0    0    0  501 -0.00000000000E+00 -0.00000000000E+00 -0.28244146355E+03  0.28244146355E+03  0.00000000000E+00 0.  1.
          6    1    1    2  502    0  0.83261744609E+02  0.36524406611E+02 -0.90091764477E+02  0.21520240803E+03  0.17300000000E+03 0. -1.
         -6    1    1    2    0  501 -0.83261744609E+02 -0.36524406611E+02 -0.56225030174E+02  0.20336372442E+03  0.17300000000E+03 0. -1.
</event>
<event>
 4    1  0.5880538E-001  0.1000000E+03  0.7546771E-02  0.1280296E+00
          2   -1    0    0  502    0  0.00000000000E+00  0.00000000000E+00  0.93674366972E+03  0.93674366972E+03  0.00000000000E+00 0. -1.
         -2   -1    0    0    0  501 -0.00000000000E+00 -0.00000000000E+00 -0.83787231582E+02  0.83787231582E+02  0.00000000000E+00 0.  1.
          6    1    1    2  502    0 -0.18256385657E+03  0.67839532016E+01  0.20205407474E+03  0.32269247414E+03  0.17300000000E+03 0. -1.
         -6    1    1    2    0  501  0.18256385657E+03 -0.67839532016E+01  0.65090236340E+03  0.69783842717E+03  0.17300000000E+03 0.  1.
</event>
<event>
 4    1  0.5880538E-001  0.1000000E+03  0.7546771E-02  0.1280296E+00
          2   -1    0    0  502    0  0.00000000000E+00  0.00000000000E+00  0.15786266437E+03  0.15786266437E+03  0.00000000000E+00 0. -1.
         -2   -1    0    0    0  501 -0.00000000000E+00 -0.00000000000E+00 -0.28470704846E+03  0.28470704846E+03  0.00000000000E+00 0.  1.
          6    1    1    2  502    0  0.17029583385E+02  0.90417337868E+02  0.21055851687E+02  0.19707270381E+03  0.17300000000E+03 0. -1.
         -6    1    1    2    0  501 -0.17029583385E+02 -0.90417337868E+02 -0.14790023577E+03  0.24549700902E+03  0.17300000000E+03 0.  1.
</event>
<event>
 4    1  0.5880538E-001  0.1000000E+03  0.7546771E-02  0.1280296E+00
         -3   -1    0    0    0  501 -0.00000000000E+00  0.00000000000E+00  0.55543995719E+02  0.55543995719E+02  0.00000000000E+00 0.  1.
          3   -1    0    0  502    0  0.00000000000E+00 -0.00000000000E+00 -0.69916749287E+03  0.69916749287E+03  0.00000000000E+00 0. -1.
          6    1    1    2  502    0 -0.45113625389E+02 -0.78488957979E+02 -0.37282816462E+03  0.42086291837E+03  0.17300000000E+03 0.  1.
         -6    1    1    2    0  501  0.45113625389E+02  0.78488957979E+02 -0.27079533253E+03  0.33384857022E+03  0.17300000000E+03 0. -1.
</event>
<event>
 4    1  0.5880538E-001  0.1000000E+03  0.7546771E-02  0.1280296E+00
         -1   -1    0    0    0  501 -0.00000000000E+00  0.00000000000E+00  0.27779284995E+02  0.27779284995E+02  0.00000000000E+00 0.  1.
          1   -1    0    0  502    0  0.00000000000E+00 -0.00000000000E+00 -0.25347617977E+04  0.25347617977E+04  0.00000000000E+00 0. -1.
          6    1    1    2  502    0 -0.11990140090E+03 -0.12916683482E+03 -0.17222396737E+04  0.17398560029E+04  0.17300000000E+03 0.  1.
         -6    1    1    2    0  501  0.11990140090E+03  0.12916683482E+03 -0.78474283905E+03  0.82268507984E+03  0.17300000000E+03 0. -1.
</event>
<event>
 4    1  0.5880538E-001  0.1000000E+03  0.7546771E-02  0.1280296E+00
         -2   -1    0    0    0  501 -0.00000000000E+00  0.00000000000E+00  0.83490517375E+03  0.83490517375E+03  0.00000000000E+00 0.  1.
          2   -1    0    0  502    0  0.00000000000E+00 -0.00000000000E+00 -0.13398717479E+03  0.13398717479E+03  0.00000000000E+00 0. -1.
          6    1    1    2  502    0  0.10563922046E+03 -0.21860796806E+03  0.57006824857E+03  0.64331632703E+03  0.17300000000E+03 0.  1.
         -6    1    1    2    0  501 -0.10563922046E+03  0.21860796806E+03  0.13084975039E+03  0.32557602150E+03  0.17300000000E+03 0. -1.
</event>
<event>
 4    1  0.5880538E-001  0.1000000E+03  0.7546771E-02  0.1280296E+00
         -2   -1    0    0    0  501 -0.00000000000E+00  0.00000000000E+00  0.43330118551E+03  0.43330118551E+03  0.00000000000E+00 0.  1.
          2   -1    0    0  502    0  0.00000000000E+00 -0.00000000000E+00 -0.10138732816E+03  0.10138732816E+03  0.00000000000E+00 0. -1.
          6    1    1    2  502    0  0.11417151173E+03  0.22687222702E+02  0.13882704484E+03  0.25050307891E+03  0.17300000000E+03 0.  1.
         -6    1    1    2    0  501 -0.11417151173E+03 -0.22687222702E+02  0.19308681250E+03  0.28418543475E+03  0.17300000000E+03 0. -1.
</event>
<event>
 4    1  0.5880538E-001  0.1000000E+03  0.7546771E-02  0.1280296E+00
          2   -1    0    0  502    0  0.00000000000E+00  0.00000000000E+00  0.56416838650E+03  0.56416838650E+03  0.00000000000E+00 0. -1.
         -2   -1    0    0    0  501 -0.00000000000E+00 -0.00000000000E+00 -0.68943411087E+02  0.68943411087E+02  0.00000000000E+00 0.  1.
          6    1    1    2  502    0 -0.23835207303E+02  0.75584345592E+02  0.16443248885E+03  0.25149185632E+03  0.17300000000E+03 0.  1.
         -6    1    1    2    0  501  0.23835207303E+02 -0.75584345592E+02  0.33079248656E+03  0.38161994127E+03  0.17300000000E+03 0.  1.
</event>
<event>
 4    1  0.5880538E-001  0.1000000E+03  0.7546771E-02  0.1280296E+00
          2   -1    0    0  502    0  0.00000000000E+00  0.00000000000E+00  0.41370155583E+03  0.41370155583E+03  0.00000000000E+00 0.  1.
         -2   -1    0    0    0  501 -0.00000000000E+00 -0.00000000000E+00 -0.20973637919E+03  0.20973637919E+03  0.00000000000E+00 0. -1.
          6    1    1    2  502    0 -0.15155219686E+03  0.17343079894E+03  0.16715618230E+03  0.33304128825E+03  0.17300000000E+03 0.  1.
         -6    1    1    2    0  501  0.15155219686E+03 -0.17343079894E+03  0.36808994345E+02  0.29039664678E+03  0.17300000000E+03 0. -1.
</event>
<event>
 4    1  0.5880538E-001  0.1000000E+03  0.7546771E-02  0.1280296E+00
          2   -1    0    0  502    0  0.00000000000E+00  0.00000000000E+00  0.32141381629E+03  0.32141381629E+03  0.00000000000E+00 0. -1.
         -2   -1    0    0    0  501 -0.00000000000E+00 -0.00000000000E+00 -0.19399723273E+03  0.19399723273E+03  0.00000000000E+00 0.  1.
          6    1    1    2  502    0 -0.17110048088E+02 -0.15049342092E+03 -0.36793771882E+02  0.23286005483E+03  0.17300000000E+03 0. -1.
         -6    1    1    2    0  501  0.17110048088E+02  0.15049342092E+03  0.16421035544E+03  0.28255099419E+03  0.17300000000E+03 0.  1.
</event>
<event>
 4    1  0.5880538E-001  0.1000000E+03  0.7546771E-02  0.1280296E+00
          2   -1    0    0  502    0  0.00000000000E+00  0.00000000000E+00  0.19171020372E+04  0.19171020372E+04  0.00000000000E+00 0. -1.
         -2   -1    0    0    0  501 -0.00000000000E+00 -0.00000000000E+00 -0.31678757763E+02  0.31678757763E+02  0.00000000000E+00 0.  1.
          6    1    1    2  502    0  0.56229378551E+02 -0.19272138827E+02  0.15956360834E+04  0.16060873790E+04  0.17300000000E+03 0. -1.
         -6    1    1    2    0  501 -0.56229378551E+02  0.19272138827E+02  0.28978719596E+03  0.34269341589E+03  0.17300000000E+03 0.  1.
</event>
<event>
 4    1  0.5880538E-001  0.1000000E+03  0.7546771E-02  0.1280296E+00
          2   -1    0    0  502    0  0.00000000000E+00  0.00000000000E+00  0.10100154420E+04  0.10100154420E+04  0.00000000000E+00 0. -1.
         -2   -1    0    0    0  501 -0.00000000000E+00 -0.00000000000E+00 -0.33181514178E+02  0.33181514178E+02  0.00000000000E+00 0.  1.
          6    1    1    2  502    0 -0.94544996635E+00  0.45774955925E+02  0.37848768049E+03  0.41866235172E+03  0.17300000000E+03 0. -1.
         -6    1    1    2    0  501  0.94544996635E+00 -0.45774955925E+02  0.59834624730E+03  0.62453460442E+03  0.17300000000E+03 0.  1.
</event>
<event>
 4    1  0.5880538E-001  0.1000000E+03  0.7546771E-02  0.1280296E+00
          1   -1    0    0  502    0  0.00000000000E+00  0.00000000000E+00  0.38159967425E+02  0.38159967425E+02  0.00000000000E+00 0.  1.
         -1   -1    0    0    0  501 -0.00000000000E+00 -0.00000000000E+00 -0.10856236513E+04  0.10856236513E+04  0.00000000000E+00 0. -1.
          6    1    1    2  502    0 -0.92686653194E+02 -0.46754548924E+02 -0.59788765034E+03  0.63101144677E+03  0.17300000000E+03 0. -1.
         -6    1    1    2    0  501  0.92686653194E+02  0.46754548924E+02 -0.44957603354E+03  0.49277217196E+03  0.17300000000E+03 0.  1.
</event>
<event>
 4    1  0.5880538E-001  0.1000000E+03  0.7546771E-02  0.1280296E+00
          2   -1    0    0  502    0  0.00000000000E+00  0.00000000000E+00  0.60152506846E+03  0.60152506846E+03  0.00000000000E+00 0.  1.
         -2   -1    0    0    0  501 -0.00000000000E+00 -0.00000000000E+00 -0.11525807813E+03  0.11525807813E+03  0.00000000000E+00 0. -1.
          6    1    1    2  502    0 -0.71442257334E+02  0.17082063883E+03  0.34050742243E+03  0.42445022266E+03  0.17300000000E+03 0. -1.
         -6    1    1    2    0  501  0.71442257334E+02 -0.17082063883E+03  0.14575956789E+03  0.29233292394E+03  0.17300000000E+03 0.  1.
</event>
<event>
 4    1  0.5880538E-001  0.1000000E+03  0.7546771E-02  0.1280296E+00
         -1   -1    0    0    0  501 -0.00000000000E+00  0.00000000000E+00  0.55678134427E+02  0.55678134427E+02  0.00000000000E+00 0.  1.
          1   -1    0    0  502    0  0.00000000000E+00 -0.00000000000E+00 -0.83374490862E+03  0.83374490862E+03  0.00000000000E+00 0. -1.
          6    1    1    2  502    0 -0.15344403017E+02  0.11520020588E+03 -0.27624835358E+03  0.34604723810E+03  0.17300000000E+03 0. -1.
         -6    1    1    2    0  501  0.15344403017E+02 -0.11520020588E+03 -0.50181842061E+03  0.54337580494E+03  0.17300000000E+03 0.  1.
</event>
<event>
 4    1  0.5880538E-001  0.1000000E+03  0.7546771E-02  0.1280296E+00
         -1   -1    0    0    0  501 -0.00000000000E+00  0.00000000000E+00  0.16880255821E+03  0.16880255821E+03  0.00000000000E+00 0.  1.
          1   -1    0    0  502    0  0.00000000000E+00 -0.00000000000E+00 -0.55826428484E+03  0.55826428484E+03  0.00000000000E+00 0. -1.
          6    1    1    2  502    0  0.68734111907E+02  0.17017811443E+03  0.12500280131E+02  0.25252767328E+03  0.17300000000E+03 0. -1.
         -6    1    1    2    0  501 -0.68734111907E+02 -0.17017811443E+03 -0.40196200676E+03  0.47453916977E+03  0.17300000000E+03 0.  1.
</event>
<event>
 4    1  0.5880538E-001  0.1000000E+03  0.7546771E-02  0.1280296E+00
         -2   -1    0    0    0  501 -0.00000000000E+00  0.00000000000E+00  0.21465234033E+03  0.21465234033E+03  0.00000000000E+00 0.  1.
          2   -1    0    0  502    0  0.00000000000E+00 -0.00000000000E+00 -0.15241353449E+03  0.15241353449E+03  0.00000000000E+00 0. -1.
          6    1    1    2  502    0  0.38271080605E+02 -0.36359900032E+02  0.30661174712E+02  0.18345524134E+03  0.17300000000E+03 0. -1.
         -6    1    1    2    0  501 -0.38271080605E+02  0.36359900032E+02  0.31577631131E+02  0.18361063349E+03  0.17300000000E+03 0.  1.
</event>
<event>
 4    1  0.5880538E-001  0.1000000E+03  0.7546771E-02  0.1280296E+00
         -2   -1    0    0    0  501 -0.00000000000E+00  0.00000000000E+00  0.74961401572E+02  0.74961401572E+02  0.00000000000E+00 0. -1.
          2   -1    0    0  502    0  0.00000000000E+00 -0.00000000000E+00 -0.49479660550E+03  0.49479660550E+03  0.00000000000E+00 0.  1.
          6    1    1    2  502    0  0.21449112469E+02 -0.52784628397E+01 -0.89077177505E+02  0.19583582448E+03  0.17300000000E+03 0.  1.
         -6    1    1    2    0  501 -0.21449112469E+02  0.52784628397E+01 -0.33075802642E+03  0.37392218260E+03  0.17300000000E+03 0. -1.
</event>
<event>
 4    1  0.5880538E-001  0.1000000E+03  0.7546771E-02  0.1280296E+00
         -1   -1    0    0    0  501 -0.00000000000E+00  0.00000000000E+00  0.63930623953E+02  0.63930623953E+02  0.00000000000E+00 0.  1.
          1   -1    0    0  502    0  0.00000000000E+00 -0.00000000000E+00 -0.13511321084E+04  0.13511321084E+04  0.00000000000E+00 0. -1.
          6    1    1    2  502    0  0.23620203670E+01  0.10837703189E+03 -0.11525671012E+04  0.11705088992E+04  0.17300000000E+03 0. -1.
         -6    1    1    2    0  501 -0.23620203670E+01 -0.10837703189E+03 -0.13463438321E+03  0.24455383318E+03  0.17300000000E+03 0.  1.
</event>
<event>
 4    1  0.5880538E-001  0.1000000E+03  0.7546771E-02  0.1280296E+00
          1   -1    0    0  502    0  0.00000000000E+00  0.00000000000E+00  0.14191888490E+03  0.14191888490E+03  0.00000000000E+00 0.  1.
         -1   -1    0    0    0  501 -0.00000000000E+00 -0.00000000000E+00 -0.12293226904E+04  0.12293226904E+04  0.00000000000E+00 0. -1.
          6    1    1    2  502    0  0.12426817299E+03 -0.35671627753E+03 -0.47317584705E+03  0.62969315043E+03  0.17300000000E+03 0.  1.
         -6    1    1    2    0  501 -0.12426817299E+03  0.35671627753E+03 -0.61422795846E+03  0.74154842487E+03  0.17300000000E+03 0. -1.
</event>
<event>
 4    1  0.5880538E-001  0.1000000E+03  0.7546771E-02  0.1280296E+00
         -4   -1    0    0    0  501 -0.00000000000E+00  0.00000000000E+00  0.39297640136E+02  0.39297640136E+02  0.00000000000E+00 0. -1.
          4   -1    0    0  502    0  0.00000000000E+00 -0.00000000000E+00 -0.10234947106E+04  0.10234947106E+04  0.00000000000E+00 0.  1.
          6    1    1    2  502    0 -0.81252301372E+02  0.27459876150E+02 -0.34852764767E+03  0.39844259620E+03  0.17300000000E+03 0.  1.
         -6    1    1    2    0  501  0.81252301372E+02 -0.27459876150E+02 -0.63566942279E+03  0.66434975453E+03  0.17300000000E+03 0. -1.
</event>
<event>
 4    1  0.5880538E-001  0.1000000E+03  0.7546771E-02  0.1280296E+00
         -2   -1    0    0    0  501 -0.00000000000E+00  0.00000000000E+00  0.10149809342E+03  0.10149809342E+03  0.00000000000E+00 0. -1.
          2   -1    0    0  502    0  0.00000000000E+00 -0.00000000000E+00 -0.36688608207E+03  0.36688608207E+03  0.00000000000E+00 0.  1.
          6    1    1    2  502    0 -0.16750856444E+02 -0.81540398941E+02 -0.15634561169E+03  0.24759317064E+03  0.17300000000E+03 0.  1.
         -6    1    1    2    0  501  0.16750856444E+02  0.81540398941E+02 -0.10904237696E+03  0.22079100485E+03  0.17300000000E+03 0. -1.
</event>
<event>
 4    1  0.5880538E-001  0.1000000E+03  0.7546771E-02  0.1280296E+00
         -1   -1    0    0    0  501 -0.00000000000E+00  0.00000000000E+00  0.47173073732E+03  0.47173073732E+03  0.00000000000E+00 0. -1.
          1   -1    0    0  502    0  0.00000000000E+00 -0.00000000000E+00 -0.15954801992E+03  0.15954801992E+03  0.00000000000E+00 0.  1.
          6    1    1    2  502    0 -0.14509777054E+03  0.12150353849E+03  0.26833882076E+03  0.37114848189E+03  0.17300000000E+03 0.  1.
         -6    1    1    2    0  501  0.14509777054E+03 -0.12150353849E+03  0.43843896642E+02  0.26013027535E+03  0.17300000000E+03 0. -1.
</event>
<event>
 4    1  0.5880538E-001  0.1000000E+03  0.7546771E-02  0.1280296E+00
         -1   -1    0    0    0  501 -0.00000000000E+00  0.00000000000E+00  0.13237687470E+03  0.13237687470E+03  0.00000000000E+00 0.  1.
          1   -1    0    0  502    0  0.00000000000E+00 -0.00000000000E+00 -0.67305280768E+03  0.67305280768E+03  0.00000000000E+00 0. -1.
          6    1    1    2  502    0 -0.94280904834E+01 -0.21885247007E+03 -0.12766777461E+03  0.30694193787E+03  0.17300000000E+03 0.  1.
         -6    1    1    2    0  501  0.94280904834E+01  0.21885247007E+03 -0.41300815837E+03  0.49848774451E+03  0.17300000000E+03 0.  1.
</event>
<event>
 4    1  0.5880538E-001  0.1000000E+03  0.7546771E-02  0.1280296E+00
         -2   -1    0    0    0  501 -0.00000000000E+00  0.00000000000E+00  0.37375941952E+03  0.37375941952E+03  0.00000000000E+00 0. -1.
          2   -1    0    0  502    0  0.00000000000E+00 -0.00000000000E+00 -0.11172407133E+03  0.11172407133E+03  0.00000000000E+00 0.  1.
          6    1    1    2  502    0 -0.65863965530E+01  0.10513966209E+03  0.98896486602E+02  0.22540462335E+03  0.17300000000E+03 0. -1.
         -6    1    1    2    0  501  0.65863965530E+01 -0.10513966209E+03  0.16313886158E+03  0.26007886750E+03  0.17300000000E+03 0.  1.
</event>
<event>
 4    1  0.5880538E-001  0.1000000E+03  0.7546771E-02  0.1280296E+00
          3   -1    0    0  502    0  0.00000000000E+00  0.00000000000E+00  0.10755757756E+04  0.10755757756E+04  0.00000000000E+00 0. -1.
         -3   -1    0    0    0  501 -0.00000000000E+00 -0.00000000000E+00 -0.35703239851E+02  0.35703239851E+02  0.00000000000E+00 0.  1.
          6    1    1    2  502    0  0.59768947968E+02  0.18267225501E+01  0.32151951220E+03  0.36997224326E+03  0.17300000000E+03 0. -1.
         -6    1    1    2    0  501 -0.59768947968E+02 -0.18267225501E+01  0.71835302355E+03  0.74130677219E+03  0.17300000000E+03 0.  1.
</event>
<event>
 4    1  0.5880538E-001  0.1000000E+03  0.7546771E-02  0.1280296E+00
          2   -1    0    0  502    0  0.00000000000E+00  0.00000000000E+00  0.58131188553E+03  0.58131188553E+03  0.00000000000E+00 0. -1.
         -2   -1    0    0    0  501 -0.00000000000E+00 -0.00000000000E+00 -0.51925701287E+02  0.51925701287E+02  0.00000000000E+00 0.  1.
          6    1    1    2  502    0 -0.10646958107E+02  0.11599356612E+02  0.25949863613E+03  0.31227623180E+03  0.17300000000E+03 0. -1.
         -6    1    1    2    0  501  0.10646958107E+02 -0.11599356612E+02  0.26988754811E+03  0.32096135502E+03  0.17300000000E+03 0.  1.
</event>
<event>
 4    1  0.5880538E-001  0.1000000E+03  0.7546771E-02  0.1280296E+00
          2   -1    0    0  502    0  0.00000000000E+00  0.00000000000E+00  0.12028481878E+04  0.12028481878E+04  0.00000000000E+00 0.  1.
         -2   -1    0    0    0  501 -0.00000000000E+00 -0.00000000000E+00 -0.10080336698E+03  0.10080336698E+03  0.00000000000E+00 0. -1.
          6    1    1    2  502    0 -0.38171451096E+02 -0.29958172559E+02  0.11093698508E+04  0.11238260620E+04  0.17300000000E+03 0. -1.
         -6    1    1    2    0  501  0.38171451096E+02  0.29958172559E+02 -0.73250299880E+01  0.17982549276E+03  0.17300000000E+03 0.  1.
</event>
<event>
 4    1  0.5880538E-001  0.1000000E+03  0.7546771E-02  0.1280296E+00
          2   -1    0    0  502    0  0.00000000000E+00  0.00000000000E+00  0.16547481033E+03  0.16547481033E+03  0.00000000000E+00 0.  1.
         -2   -1    0    0    0  501 -0.00000000000E+00 -0.00000000000E+00 -0.40057329005E+03  0.40057329005E+03  0.00000000000E+00 0. -1.
          6    1    1    2  502    0 -0.91727879043E+02  0.69069946114E+02  0.49786993686E+02  0.21352378320E+03  0.17300000000E+03 0. -1.
         -6    1    1    2    0  501  0.91727879043E+02 -0.69069946114E+02 -0.28488547341E+03  0.35252431719E+03  0.17300000000E+03 0.  1.
</event>
<event>
 4    1  0.5880538E-001  0.1000000E+03  0.7546771E-02  0.1280296E+00
         -2   -1    0    0    0  501 -0.00000000000E+00  0.00000000000E+00  0.13582851012E+03  0.13582851012E+03  0.00000000000E+00 0.  1.
          2   -1    0    0  502    0  0.00000000000E+00 -0.00000000000E+00 -0.20067089806E+04  0.20067089806E+04  0.00000000000E+00 0. -1.
          6    1    1    2  502    0  0.31294312220E+03 -0.90799960635E+01 -0.15510696654E+03  0.38987564060E+03  0.17300000000E+03 0. -1.
         -6    1    1    2    0  501 -0.31294312220E+03  0.90799960635E+01 -0.17157735040E+04  0.17526618502E+04  0.17300000000E+03 0.  1.
</event>
<event>
 4    1  0.5880538E-001  0.1000000E+03  0.7546771E-02  0.1280296E+00
          2   -1    0    0  502    0  0.00000000000E+00  0.00000000000E+00  0.95300793154E+03  0.95300793154E+03  0.00000000000E+00 0. -1.
         -2   -1    0    0    0  501 -0.00000000000E+00 -0.00000000000E+00 -0.47410776893E+02  0.47410776893E+02  0.00000000000E+00 0.  1.
          6    1    1    2  502    0 -0.20249670642E+00 -0.25652962552E+02  0.73709928438E+03  0.75756350924E+03  0.17300000000E+03 0.  1.
         -6    1    1    2    0  501  0.20249670642E+00  0.25652962552E+02  0.16849787027E+03  0.24285519920E+03  0.17300000000E+03 0. -1.
</event>
<event>
 4    1  0.5880538E-001  0.1000000E+03  0.7546771E-02  0.1280296E+00
          2   -1    0    0  502    0  0.00000000000E+00  0.00000000000E+00  0.73198489006E+03  0.73198489006E+03  0.00000000000E+00 0.  1.
         -2   -1    0    0    0  501 -0.00000000000E+00 -0.00000000000E+00 -0.99404827376E+02  0.99404827376E+02  0.00000000000E+00 0. -1.
          6    1    1    2  502    0 -0.47981161978E+02 -0.78214950438E+02  0.30407366903E+02  0.19817512038E+03  0.17300000000E+03 0.  1.
         -6    1    1    2    0  501  0.47981161978E+02  0.78214950438E+02  0.60217269579E+03  0.63321459706E+03  0.17300000000E+03 0.  1.
</event>
<event>
 4    1  0.5880538E-001  0.1000000E+03  0.7546771E-02  0.1280296E+00
          1   -1    0    0  502    0  0.00000000000E+00  0.00000000000E+00  0.15294111407E+03  0.15294111407E+03  0.00000000000E+00 0.  1.
         -1   -1    0    0    0  501 -0.00000000000E+00 -0.00000000000E+00 -0.38377987805E+03  0.38377987805E+03  0.00000000000E+00 0. -1.
          6    1    1    2  502    0 -0.12695851413E+03 -0.16234360702E+02  0.78508362554E+01  0.21534310857E+03  0.17300000000E+03 0.  1.
         -6    1    1    2    0  501  0.12695851413E+03  0.16234360702E+02 -0.23868960024E+03  0.32137788356E+03  0.17300000000E+03 0.  1.
</event>
<event>
 4    1  0.5880538E-001  0.1000000E+03  0.7546771E-02  0.1280296E+00
          1   -1    0    0  502    0  0.00000000000E+00  0.00000000000E+00  0.95663656879E+03  0.95663656879E+03  0.00000000000E+00 0.  1.
         -1   -1    0    0    0  501 -0.00000000000E+00 -0.00000000000E+00 -0.20564190543E+03  0.20564190543E+03  0.00000000000E+00 0. -1.
          6    1    1    2  502    0  0.29908148283E+03  0.19291069358E+03  0.11301957716E+03  0.41154184950E+03  0.17300000000E+03 0.  1.
         -6    1    1    2    0  501 -0.29908148283E+03 -0.19291069358E+03  0.63797508620E+03  0.75073662471E+03  0.17300000000E+03 0.  1.
</event>
<event>
 4    1  0.5880538E-001  0.1000000E+03  0.7546771E-02  0.1280296E+00
         -1   -1    0    0    0  501 -0.00000000000E+00  0.00000000000E+00  0.53770878106E+03  0.53770878106E+03  0.00000000000E+00 0. -1.
          1   -1    0    0  502    0  0.00000000000E+00 -0.00000000000E+00 -0.89692043843E+02  0.89692043843E+02  0.00000000000E+00 0.  1.
          6    1    1    2  502    0  0.13497105391E+03 -0.67208129518E+01  0.23267904405E+03  0.31989200093E+03  0.17300000000E+03 0.  1.
         -6    1    1    2    0  501 -0.13497105391E+03  0.67208129518E+01  0.21533769316E+03  0.30750882397E+03  0.17300000000E+03 0. -1.
</event>
<event>
 4    1  0.5880538E-001  0.1000000E+03  0.7546771E-02  0.1280296E+00
         -1   -1    0    0    0  501 -0.00000000000E+00  0.00000000000E+00  0.94983833155E+02  0.94983833155E+02  0.00000000000E+00 0.  1.
          1   -1    0    0  502    0  0.00000000000E+00 -0.00000000000E+00 -0.39401616561E+03  0.39401616561E+03  0.00000000000E+00 0. -1.
          6    1    1    2  502    0 -0.57171212901E+02  0.18028995472E+02 -0.70562456558E+02  0.19621837971E+03  0.17300000000E+03 0. -1.
         -6    1    1    2    0  501  0.57171212901E+02 -0.18028995472E+02 -0.22846987590E+03  0.29278161905E+03  0.17300000000E+03 0.  1.
</event>
<event>
 4    1  0.5880538E-001  0.1000000E+03  0.7546771E-02  0.1280296E+00
          1   -1    0    0  502    0  0.00000000000E+00  0.00000000000E+00  0.26350006939E+04  0.26350006939E+04  0.00000000000E+00 0.  1.
         -1   -1    0    0    0  501 -0.00000000000E+00 -0.00000000000E+00 -0.40951749202E+02  0.40951749202E+02  0.00000000000E+00 0. -1.
          6    1    1    2  502    0 -0.16331899380E+03 -0.22649747413E+03  0.12882055123E+04  0.13294271854E+04  0.17300000000E+03 0. -1.
         -6    1    1    2    0  501  0.16331899380E+03  0.22649747413E+03  0.13058434324E+04  0.13465252576E+04  0.17300000000E+03 0.  1.
</event>
<event>
 4    1  0.5880538E-001  0.1000000E+03  0.7546771E-02  0.1280296E+00
         -1   -1    0    0    0  501 -0.00000000000E+00  0.00000000000E+00  0.33843032068E+03  0.33843032068E+03  0.00000000000E+00 0.  1.
          1   -1    0    0  502    0  0.00000000000E+00 -0.00000000000E+00 -0.14289130388E+03  0.14289130388E+03  0.00000000000E+00 0. -1.
          6    1    1    2  502    0 -0.10994564128E+03  0.22501367712E+02  0.18136886709E+03  0.27462341767E+03  0.17300000000E+03 0. -1.
         -6    1    1    2    0  501  0.10994564128E+03 -0.22501367712E+02  0.14170149714E+02  0.20669820688E+03  0.17300000000E+03 0.  1.
</event>
<event>
 4    1  0.5880538E-001  0.1000000E+03  0.7546771E-02  0.1280296E+00
         -1   -1    0    0    0  501 -0.00000000000E+00  0.00000000000E+00  0.13089406924E+03  0.13089406924E+03  0.00000000000E+00 0.  1.
          1   -1    0    0  502    0  0.00000000000E+00 -0.00000000000E+00 -0.12038447878E+04  0.12038447878E+04  0.00000000000E+00 0. -1.
          6    1    1    2  502    0 -0.34456842538E+03 -0.87486944677E+02 -0.59628894000E+03  0.71545151144E+03  0.17300000000E+03 0. -1.
         -6    1    1    2    0  501  0.34456842538E+03  0.87486944677E+02 -0.47666177853E+03  0.61928734555E+03  0.17300000000E+03 0.  1.
</event>
<event>
 4    1  0.5880538E-001  0.1000000E+03  0.7546771E-02  0.1280296E+00
          1   -1    0    0  502    0  0.00000000000E+00  0.00000000000E+00  0.38696657825E+03  0.38696657825E+03  0.00000000000E+00 0. -1.
         -1   -1    0    0    0  501 -0.00000000000E+00 -0.00000000000E+00 -0.14083646916E+03  0.14083646916E+03  0.00000000000E+00 0.  1.
          6    1    1    2  502    0  0.65486400242E+02 -0.90085419585E+01 -0.37602217077E+02  0.18897764199E+03  0.17300000000E+03 0. -1.
         -6    1    1    2    0  501 -0.65486400242E+02  0.90085419585E+01  0.28373232616E+03  0.33882540541E+03  0.17300000000E+03 0.  1.
</event>
<event>
 4    1  0.5880538E-001  0.1000000E+03  0.7546771E-02  0.1280296E+00
          1   -1    0    0  502    0  0.00000000000E+00  0.00000000000E+00  0.76402510132E+02  0.76402510132E+02  0.00000000000E+00 0. -1.
         -1   -1    0    0    0  501 -0.00000000000E+00 -0.00000000000E+00 -0.65459260170E+03  0.65459260170E+03  0.00000000000E+00 0.  1.
          6    1    1    2  502    0  0.76888348527E+01 -0.38892974787E+02 -0.66728887063E+02  0.18961415042E+03  0.17300000000E+03 0. -1.
         -6    1    1    2    0  501 -0.76888348527E+01  0.38892974787E+02 -0.51146120450E+03  0.54138096141E+03  0.17300000000E+03 0.  1.
</event>
<event>
 4    1  0.5880538E-001  0.1000000E+03  0.7546771E-02  0.1280296E+00
          2   -1    0    0  502    0  0.00000000000E+00  0.00000000000E+00  0.92034530740E+03  0.92034530740E+03  0.00000000000E+00 0. -1.
         -2   -1    0    0    0  501 -0.00000000000E+00 -0.00000000000E+00 -0.86095893713E+02  0.86095893713E+02  0.00000000000E+00 0.  1.
          6    1    1    2  502    0  0.56080174613E+02  0.16849415145E+03  0.17879369785E+03  0.30566558761E+03  0.17300000000E+03 0. -1.
         -6    1    1    2    0  501 -0.56080174613E+02 -0.16849415145E+03  0.65545571584E+03  0.70077561351E+03  0.17300000000E+03 0.  1.
</event>
<event>
 4    1  0.5880538E-001  0.1000000E+03  0.7546771E-02  0.1280296E+00
          1   -1    0    0  502    0  0.00000000000E+00  0.00000000000E+00  0.27452405270E+04  0.27452405270E+04  0.00000000000E+00 0. -1.
         -1   -1    0    0    0  501 -0.00000000000E+00 -0.00000000000E+00 -0.14639239511E+02  0.14639239511E+02  0.00000000000E+00 0.  1.
          6    1    1    2  502    0 -0.60893925922E+02  0.94844750844E+01  0.19186094376E+04  0.19273788418E+04  0.17300000000E+03 0.  1.
         -6    1    1    2    0  501  0.60893925922E+02 -0.94844750844E+01  0.81199184985E+03  0.83250092475E+03  0.17300000000E+03 0. -1.
</event>
<event>
 4    1  0.5880538E-001  0.1000000E+03  0.7546771E-02  0.1280296E+00
          2   -1    0    0  502    0  0.00000000000E+00  0.00000000000E+00  0.20438383541E+04  0.20438383541E+04  0.00000000000E+00 0.  1.
         -2   -1    0    0    0  501 -0.00000000000E+00 -0.00000000000E+00 -0.20833835717E+02  0.20833835717E+02  0.00000000000E+00 0. -1.
          6    1    1    2  502    0  0.14055404206E+02  0.76951387999E+01  0.45452124217E+03  0.48659565260E+03  0.17300000000E+03 0.  1.
         -6    1    1    2    0  501 -0.14055404206E+02 -0.76951387999E+01  0.15684832763E+04  0.15780765373E+04  0.17300000000E+03 0. -1.
</event>
<event>
 4    1  0.5880538E-001  0.1000000E+03  0.7546771E-02  0.1280296E+00
          2   -1    0    0  502    0  0.00000000000E+00  0.00000000000E+00  0.33600791594E+03  0.33600791594E+03  0.00000000000E+00 0.  1.
         -2   -1    0    0    0  501 -0.00000000000E+00 -0.00000000000E+00 -0.32027656990E+03  0.32027656990E+03  0.00000000000E+00 0. -1.
          6    1    1    2  502    0  0.20404860507E+03 -0.18346208331E+03  0.56790808422E+02  0.32931499384E+03  0.17300000000E+03 0.  1.
         -6    1    1    2    0  501 -0.20404860507E+03  0.18346208331E+03 -0.41059462384E+02  0.32696949200E+03  0.17300000000E+03 0. -1.
</event>
<event>
 4    1  0.5880538E-001  0.1000000E+03  0.7546771E-02  0.1280296E+00
         -2   -1    0    0    0  501 -0.00000000000E+00  0.00000000000E+00  0.61579059297E+02  0.61579059297E+02  0.00000000000E+00 0. -1.
          2   -1    0    0  502    0  0.00000000000E+00 -0.00000000000E+00 -0.16104750488E+04  0.16104750488E+04  0.00000000000E+00 0.  1.
          6    1    1    2  502    0  0.20638339735E+03  0.74751484949E+02 -0.11597157512E+04  0.11929172288E+04  0.17300000000E+03 0.  1.
         -6    1    1    2    0  501 -0.20638339735E+03 -0.74751484949E+02 -0.38918023827E+03  0.47913687926E+03  0.17300000000E+03 0.  1.
</event>
<event>
 4    1  0.5880538E-001  0.1000000E+03  0.7546771E-02  0.1280296E+00
         -1   -1    0    0    0  501 -0.00000000000E+00  0.00000000000E+00  0.18774044830E+03  0.18774044830E+03  0.00000000000E+00 0. -1.
          1   -1    0    0  502    0  0.00000000000E+00 -0.00000000000E+00 -0.33311535206E+03  0.33311535206E+03  0.00000000000E+00 0.  1.
          6    1    1    2  502    0 -0.40236468898E+01  0.17631578223E+03 -0.32263730737E+02  0.24914532530E+03  0.17300000000E+03 0.  1.
         -6    1    1    2    0  501  0.40236468898E+01 -0.17631578223E+03 -0.11311117302E+03  0.27171047506E+03  0.17300000000E+03 0.  1.
</event>
<event>
 4    1  0.5880538E-001  0.1000000E+03  0.7546771E-02  0.1280296E+00
          2   -1    0    0  502    0  0.00000000000E+00  0.00000000000E+00  0.38280478430E+03  0.38280478430E+03  0.00000000000E+00 0.  1.
         -2   -1    0    0    0  501 -0.00000000000E+00 -0.00000000000E+00 -0.11256747751E+03  0.11256747751E+03  0.00000000000E+00 0. -1.
          6    1    1    2  502    0  0.76749954848E+02  0.84407094061E+02  0.14959779526E+03  0.25558484588E+03  0.17300000000E+03 0.  1.
         -6    1    1    2    0  501 -0.76749954848E+02 -0.84407094061E+02  0.12063951152E+03  0.23978741593E+03  0.17300000000E+03 0. -1.
</event>
<event>
 4    1  0.5880538E-001  0.1000000E+03  0.7546771E-02  0.1280296E+00
          1   -1    0    0  502    0  0.00000000000E+00  0.00000000000E+00  0.18433758846E+03  0.18433758846E+03  0.00000000000E+00 0. -1.
         -1   -1    0    0    0  501 -0.00000000000E+00 -0.00000000000E+00 -0.22804275906E+03  0.22804275906E+03  0.00000000000E+00 0.  1.
          6    1    1    2  502    0  0.39016535243E+02 -0.10218579998E+03 -0.98003615992E+01  0.20491284691E+03  0.17300000000E+03 0.  1.
         -6    1    1    2    0  501 -0.39016535243E+02  0.10218579998E+03 -0.33904808994E+02  0.20746750062E+03  0.17300000000E+03 0. -1.
</event>
<event>
 4    1  0.5880538E-001  0.1000000E+03  0.7546771E-02  0.1280296E+00
          2   -1    0    0  502    0  0.00000000000E+00  0.00000000000E+00  0.35482255200E+03  0.35482255200E+03  0.00000000000E+00 0. -1.
         -2   -1    0    0    0  501 -0.00000000000E+00 -0.00000000000E+00 -0.19745659325E+03  0.19745659325E+03  0.00000000000E+00 0.  1.
          6    1    1    2  502    0 -0.14364837674E+03 -0.12267265688E+03  0.90927192108E+01  0.25631058197E+03  0.17300000000E+03 0.  1.
         -6    1    1    2    0  501  0.14364837674E+03  0.12267265688E+03  0.14827323954E+03  0.29596856328E+03  0.17300000000E+03 0. -1.
</event>
<event>
 4    1  0.5880538E-001  0.1000000E+03  0.7546771E-02  0.1280296E+00
         -2   -1    0    0    0  501 -0.00000000000E+00  0.00000000000E+00  0.65593121905E+03  0.65593121905E+03  0.00000000000E+00 0.  1.
          2   -1    0    0  502    0  0.00000000000E+00 -0.00000000000E+00 -0.38626835081E+03  0.38626835081E+03  0.00000000000E+00 0. -1.
          6    1    1    2  502    0  0.56927412865E+02  0.41313196552E+02  0.61873846126E+03  0.64630781674E+03  0.17300000000E+03 0. -1.
         -6    1    1    2    0  501 -0.56927412865E+02 -0.41313196552E+02 -0.34907559301E+03  0.39589175311E+03  0.17300000000E+03 0.  1.
</event>
<event>
 4    1  0.5880538E-001  0.1000000E+03  0.7546771E-02  0.1280296E+00
         -1   -1    0    0    0  501 -0.00000000000E+00  0.00000000000E+00  0.20222948297E+04  0.20222948297E+04  0.00000000000E+00 0.  1.
          1   -1    0    0  502    0  0.00000000000E+00 -0.00000000000E+00 -0.11206933746E+03  0.11206933746E+03  0.00000000000E+00 0. -1.
          6    1    1    2  502    0  0.44560075296E+02  0.27712202872E+02 -0.32127868611E+02  0.18361581206E+03  0.17300000000E+03 0. -1.
         -6    1    1    2    0  501 -0.44560075296E+02 -0.27712202872E+02  0.19423533608E+04  0.19507483551E+04  0.17300000000E+03 0.  1.
</event>
<event>
 4    1  0.5880538E-001  0.1000000E+03  0.7546771E-02  0.1280296E+00
         -2   -1    0    0    0  501 -0.00000000000E+00  0.00000000000E+00  0.74974472348E+02  0.74974472348E+02  0.00000000000E+00 0.  1.
          2   -1    0    0  502    0  0.00000000000E+00 -0.00000000000E+00 -0.12579522629E+04  0.12579522629E+04  0.00000000000E+00 0. -1.
          6    1    1    2  502    0 -0.58298024494E+02  0.11290585807E+03 -0.11485353526E+03  0.24344758575E+03  0.17300000000E+03 0. -1.
         -6    1    1    2    0  501  0.58298024494E+02 -0.11290585807E+03 -0.10681242553E+04  0.10894791495E+04  0.17300000000E+03 0.  1.
</event>
<event>
 4    1  0.5880538E-001  0.1000000E+03  0.7546771E-02  0.1280296E+00
          1   -1    0    0  502    0  0.00000000000E+00  0.00000000000E+00  0.67503452093E+02  0.67503452093E+02  0.00000000000E+00 0. -1.
         -1   -1    0    0    0  501 -0.00000000000E+00 -0.00000000000E+00 -0.84872310167E+03  0.84872310167E+03  0.00000000000E+00 0.  1.
          6    1    1    2  502    0  0.15021815228E+03 -0.47826241665E+02 -0.48649573332E+03  0.53987030035E+03  0.17300000000E+03 0. -1.
         -6    1    1    2    0  501 -0.15021815228E+03  0.47826241665E+02 -0.29472391626E+03  0.37635625341E+03  0.17300000000E+03 0.  1.
</event>
<event>
 4    1  0.5880538E-001  0.1000000E+03  0.7546771E-02  0.1280296E+00
          1   -1    0    0  502    0  0.00000000000E+00  0.00000000000E+00  0.29947186043E+04  0.29947186043E+04  0.00000000000E+00 0. -1.
         -1   -1    0    0    0  501 -0.00000000000E+00 -0.00000000000E+00 -0.16033308010E+02  0.16033308010E+02  0.00000000000E+00 0.  1.
          6    1    1    2  502    0  0.52121643886E+02 -0.11769084768E+03  0.17570466378E+04  0.17702287109E+04  0.17300000000E+03 0. -1.
         -6    1    1    2    0  501 -0.52121643886E+02  0.11769084768E+03  0.12216386585E+04  0.12405232015E+04  0.17300000000E+03 0.  1.
</event>
<event>
 4    1  0.5880538E-001  0.1000000E+03  0.7546771E-02  0.1280296E+00
         -3   -1    0    0    0  501 -0.00000000000E+00  0.00000000000E+00  0.29145892693E+04  0.29145892693E+04  0.00000000000E+00 0. -1.
          3   -1    0    0  502    0  0.00000000000E+00 -0.00000000000E+00 -0.20881872180E+02  0.20881872180E+02  0.00000000000E+00 0.  1.
          6    1    1    2  502    0 -0.75920881266E+02 -0.37937507319E+02  0.53037604255E+03  0.56429689099E+03  0.17300000000E+03 0.  1.
         -6    1    1    2    0  501  0.75920881266E+02  0.37937507319E+02  0.23633313546E+04  0.23711742505E+04  0.17300000000E+03 0. -1.
</event>
<event>
 4    1  0.5880538E-001  0.1000000E+03  0.7546771E-02  0.1280296E+00
         -2   -1    0    0    0  501 -0.00000000000E+00  0.00000000000E+00  0.22452814954E+02  0.22452814954E+02  0.00000000000E+00 0. -1.
          2   -1    0    0  502    0  0.00000000000E+00 -0.00000000000E+00 -0.28662749574E+04  0.28662749574E+04  0.00000000000E+00 0.  1.
          6    1    1    2  502    0  0.17457180243E+03 -0.47924838837E+02 -0.16535224483E+04  0.16723748358E+04  0.17300000000E+03 0.  1.
         -6    1    1    2    0  501 -0.17457180243E+03  0.47924838837E+02 -0.11902996942E+04  0.12163529366E+04  0.17300000000E+03 0. -1.
</event>
<event>
 4    1  0.5880538E-001  0.1000000E+03  0.7546771E-02  0.1280296E+00
         -2   -1    0    0    0  501 -0.00000000000E+00  0.00000000000E+00  0.52754065943E+02  0.52754065943E+02  0.00000000000E+00 0. -1.
          2   -1    0    0  502    0  0.00000000000E+00 -0.00000000000E+00 -0.23609492719E+04  0.23609492719E+04  0.00000000000E+00 0.  1.
          6    1    1    2  502    0  0.13626087055E+03 -0.27224284820E+03 -0.13046200434E+04  0.13507944518E+04  0.17300000000E+03 0.  1.
         -6    1    1    2    0  501 -0.13626087055E+03  0.27224284820E+03 -0.10035751626E+04  0.10629088861E+04  0.17300000000E+03 0. -1.
</event>
<event>
 4    1  0.5880538E-001  0.1000000E+03  0.7546771E-02  0.1280296E+00
         -2   -1    0    0    0  501 -0.00000000000E+00  0.00000000000E+00  0.62191539213E+02  0.62191539213E+02  0.00000000000E+00 0. -1.
          2   -1    0    0  502    0  0.00000000000E+00 -0.00000000000E+00 -0.23290093665E+04  0.23290093665E+04  0.00000000000E+00 0.  1.
          6    1    1    2  502    0  0.72839855817E+02  0.31525723576E+03 -0.81577853828E+03  0.89449225419E+03  0.17300000000E+03 0.  1.
         -6    1    1    2    0  501 -0.72839855817E+02 -0.31525723576E+03 -0.14510392890E+04  0.14967086516E+04  0.17300000000E+03 0. -1.
</event>
<event>
 4    1  0.5880538E-001  0.1000000E+03  0.7546771E-02  0.1280296E+00
         -2   -1    0    0    0  501 -0.00000000000E+00  0.00000000000E+00  0.81807224300E+03  0.81807224300E+03  0.00000000000E+00 0. -1.
          2   -1    0    0  502    0  0.00000000000E+00 -0.00000000000E+00 -0.16171547465E+03  0.16171547465E+03  0.00000000000E+00 0.  1.
          6    1    1    2  502    0 -0.13467137495E+03  0.16342665571E+03  0.65120974389E+03  0.70629156980E+03  0.17300000000E+03 0.  1.
         -6    1    1    2    0  501  0.13467137495E+03 -0.16342665571E+03  0.51470244528E+01  0.27349614785E+03  0.17300000000E+03 0. -1.
</event>
<event>
 4    1  0.5880538E-001  0.1000000E+03  0.7546771E-02  0.1280296E+00
          2   -1    0    0  502    0  0.00000000000E+00  0.00000000000E+00  0.18667996362E+04  0.18667996362E+04  0.00000000000E+00 0.  1.
         -2   -1    0    0    0  501 -0.00000000000E+00 -0.00000000000E+00 -0.63413452022E+02  0.63413452022E+02  0.00000000000E+00 0. -1.
          6    1    1    2  502    0 -0.13140301180E+03  0.23704991409E+03  0.12451423159E+04  0.12859890358E+04  0.17300000000E+03 0.  1.
         -6    1    1    2    0  501  0.13140301180E+03 -0.23704991409E+03  0.55824386822E+03  0.64422405239E+03  0.17300000000E+03 0. -1.
</event>
<event>
 4    1  0.5880538E-001  0.1000000E+03  0.7546771E-02  0.1280296E+00
          2   -1    0    0  502    0  0.00000000000E+00  0.00000000000E+00  0.24187928097E+04  0.24187928097E+04  0.00000000000E+00 0.  1.
         -2   -1    0    0    0  501 -0.00000000000E+00 -0.00000000000E+00 -0.20324870490E+02  0.20324870490E+02  0.00000000000E+00 0. -1.
          6    1    1    2  502    0  0.76007130566E+01 -0.89643124351E+02  0.61872031699E+03  0.64871988658E+03  0.17300000000E+03 0.  1.
         -6    1    1    2    0  501 -0.76007130566E+01  0.89643124351E+02  0.17797476222E+04  0.17903977936E+04  0.17300000000E+03 0. -1.
</event>
<event>
 4    1  0.5880538E-001  0.1000000E+03  0.7546771E-02  0.1280296E+00
          1   -1    0    0  502    0  0.00000000000E+00  0.00000000000E+00  0.42788207318E+03  0.42788207318E+03  0.00000000000E+00 0. -1.
         -1   -1    0    0    0  501 -0.00000000000E+00 -0.00000000000E+00 -0.89067801124E+02  0.89067801124E+02  0.00000000000E+00 0.  1.
          6    1    1    2  502    0  0.82350973205E+02  0.20535602248E+02  0.21081591871E+03  0.28561467982E+03  0.17300000000E+03 0.  1.
         -6    1    1    2    0  501 -0.82350973205E+02 -0.20535602248E+02  0.12799835335E+03  0.23133519448E+03  0.17300000000E+03 0. -1.
</event>
<event>
 4    1  0.5880538E-001  0.1000000E+03  0.7546771E-02  0.1280296E+00
          1   -1    0    0  502    0  0.00000000000E+00  0.00000000000E+00  0.96164042171E+03  0.96164042171E+03  0.00000000000E+00 0. -1.
         -1   -1    0    0    0  501 -0.00000000000E+00 -0.00000000000E+00 -0.62236495924E+02  0.62236495924E+02  0.00000000000E+00 0.  1.
          6    1    1    2  502    0  0.38667275803E+02  0.63159242709E+02  0.77681875985E+03  0.79928757892E+03  0.17300000000E+03 0.  1.
         -6    1    1    2    0  501 -0.38667275803E+02 -0.63159242709E+02  0.12258516594E+03  0.22458933872E+03  0.17300000000E+03 0. -1.
</event>
<event>
 4    1  0.5880538E-001  0.1000000E+03  0.7546771E-02  0.1280296E+00
         -2   -1    0    0    0  501 -0.00000000000E+00  0.00000000000E+00  0.27965011813E+02  0.27965011813E+02  0.00000000000E+00 0. -1.
          2   -1    0    0  502    0  0.00000000000E+00 -0.00000000000E+00 -0.18078768148E+04  0.18078768148E+04  0.00000000000E+00 0.  1.
          6    1    1    2  502    0  0.10235510987E+03 -0.98354448774E+02 -0.97922199092E+03  0.10044674577E+04  0.17300000000E+03 0.  1.
         -6    1    1    2    0  501 -0.10235510987E+03  0.98354448774E+02 -0.80068981205E+03  0.83137436888E+03  0.17300000000E+03 0. -1.
</event>
<event>
 4    1  0.5880538E-001  0.1000000E+03  0.7546771E-02  0.1280296E+00
         -1   -1    0    0    0  501 -0.00000000000E+00  0.00000000000E+00  0.64703085731E+02  0.64703085731E+02  0.00000000000E+00 0.  1.
          1   -1    0    0  502    0  0.00000000000E+00 -0.00000000000E+00 -0.60494132716E+03  0.60494132716E+03  0.00000000000E+00 0. -1.
          6    1    1    2  502    0  0.30589138470E+02  0.36280216470E+02 -0.41131405824E+03  0.44873177289E+03  0.17300000000E+03 0. -1.
         -6    1    1    2    0  501 -0.30589138470E+02 -0.36280216470E+02 -0.12892418319E+03  0.22091264000E+03  0.17300000000E+03 0. -1.
</event>
<event>
 4    1  0.5880538E-001  0.1000000E+03  0.7546771E-02  0.1280296E+00
         -2   -1    0    0    0  501 -0.00000000000E+00  0.00000000000E+00  0.12243842620E+03  0.12243842620E+03  0.00000000000E+00 0. -1.
          2   -1    0    0  502    0  0.00000000000E+00 -0.00000000000E+00 -0.76267817886E+03  0.76267817886E+03  0.00000000000E+00 0.  1.
          6    1    1    2  502    0  0.10118601827E+03 -0.13305544220E+03 -0.47212797761E+02  0.24515384816E+03  0.17300000000E+03 0.  1.
         -6    1    1    2    0  501 -0.10118601827E+03  0.13305544220E+03 -0.59302695489E+03  0.63996275690E+03  0.17300000000E+03 0. -1.
</event>
<event>
 4    1  0.5880538E-001  0.1000000E+03  0.7546771E-02  0.1280296E+00
         -1   -1    0    0    0  501 -0.00000000000E+00  0.00000000000E+00  0.62527897969E+02  0.62527897969E+02  0.00000000000E+00 0.  1.
          1   -1    0    0  502    0  0.00000000000E+00 -0.00000000000E+00 -0.82674599094E+03  0.82674599094E+03  0.00000000000E+00 0. -1.
          6    1    1    2  502    0 -0.41864774495E+02  0.44742099818E+02 -0.64456328698E+03  0.67018306885E+03  0.17300000000E+03 0. -1.
         -6    1    1    2    0  501  0.41864774495E+02 -0.44742099818E+02 -0.11965480598E+03  0.21909082006E+03  0.17300000000E+03 0. -1.
</event>
<event>
 4    1  0.5880538E-001  0.1000000E+03  0.7546771E-02  0.1280296E+00
         -1   -1    0    0    0  501 -0.00000000000E+00  0.00000000000E+00  0.90004902151E+02  0.90004902151E+02  0.00000000000E+00 0.  1.
          1   -1    0    0  502    0  0.00000000000E+00 -0.00000000000E+00 -0.43716329181E+03  0.43716329181E+03  0.00000000000E+00 0. -1.
          6    1    1    2  502    0 -0.47417733830E+02 -0.40607201004E+02 -0.74848626141E+02  0.19856662129E+03  0.17300000000E+03 0. -1.
         -6    1    1    2    0  501  0.47417733830E+02  0.40607201004E+02 -0.27230976352E+03  0.32860157267E+03  0.17300000000E+03 0.  1.
</event>
<event>
 4    1  0.5880538E-001  0.1000000E+03  0.7546771E-02  0.1280296E+00
         -1   -1    0    0    0  501 -0.00000000000E+00  0.00000000000E+00  0.13138851968E+04  0.13138851968E+04  0.00000000000E+00 0.  1.
          1   -1    0    0  502    0  0.00000000000E+00 -0.00000000000E+00 -0.23997657566E+02  0.23997657566E+02  0.00000000000E+00 0. -1.
          6    1    1    2  502    0 -0.91775316862E+01  0.79425612945E+01  0.78858714546E+03  0.80743172922E+03  0.17300000000E+03 0. -1.
         -6    1    1    2    0  501  0.91775316862E+01 -0.79425612945E+01  0.50130039375E+03  0.53045112512E+03  0.17300000000E+03 0.  1.
</event>
<event>
 4    1  0.5880538E-001  0.1000000E+03  0.7546771E-02  0.1280296E+00
         -2   -1    0    0    0  501 -0.00000000000E+00  0.00000000000E+00  0.10270433314E+04  0.10270433314E+04  0.00000000000E+00 0.  1.
          2   -1    0    0  502    0  0.00000000000E+00 -0.00000000000E+00 -0.11739070662E+03  0.11739070662E+03  0.00000000000E+00 0. -1.
          6    1    1    2  502    0 -0.23139612359E+03  0.13668329478E+03  0.23122482263E+03  0.39448752538E+03  0.17300000000E+03 0. -1.
         -6    1    1    2    0  501  0.23139612359E+03 -0.13668329478E+03  0.67842780217E+03  0.74994651265E+03  0.17300000000E+03 0.  1.
</event>
<event>
 4    1  0.5880538E-001  0.1000000E+03  0.7546771E-02  0.1280296E+00
         -1   -1    0    0    0  501 -0.00000000000E+00  0.00000000000E+00  0.38507944797E+03  0.38507944797E+03  0.00000000000E+00 0.  1.
          1   -1    0    0  502    0  0.00000000000E+00 -0.00000000000E+00 -0.43435205488E+03  0.43435205488E+03  0.00000000000E+00 0. -1.
          6    1    1    2  502    0  0.11544063719E+03 -0.13979830291E+03 -0.34842637055E+03  0.42918532349E+03  0.17300000000E+03 0. -1.
         -6    1    1    2    0  501 -0.11544063719E+03  0.13979830291E+03  0.29915376363E+03  0.39024617936E+03  0.17300000000E+03 0.  1.
</event>
<event>
 4    1  0.5880538E-001  0.1000000E+03  0.7546771E-02  0.1280296E+00
         -1   -1    0    0    0  501 -0.00000000000E+00  0.00000000000E+00  0.34994277240E+03  0.34994277240E+03  0.00000000000E+00 0.  1.
          1   -1    0    0  502    0  0.00000000000E+00 -0.00000000000E+00 -0.15995437593E+03  0.15995437593E+03  0.00000000000E+00 0. -1.
          6    1    1    2  502    0  0.13910466872E+03  0.45765143980E+02  0.21897585377E+02  0.22771267314E+03  0.17300000000E+03 0. -1.
         -6    1    1    2    0  501 -0.13910466872E+03 -0.45765143980E+02  0.16809081110E+03  0.28218447519E+03  0.17300000000E+03 0.  1.
</event>
<event>
 4    1  0.5880538E-001  0.1000000E+03  0.7546771E-02  0.1280296E+00
         -2   -1    0    0    0  501 -0.00000000000E+00  0.00000000000E+00  0.53818532693E+02  0.53818532693E+02  0.00000000000E+00 0.  1.
          2   -1    0    0  502    0  0.00000000000E+00 -0.00000000000E+00 -0.88724581839E+03  0.88724581839E+03  0.00000000000E+00 0. -1.
          6    1    1    2  502    0 -0.85466916374E+02  0.15688509657E+02 -0.63493545763E+03  0.66379421396E+03  0.17300000000E+03 0. -1.
         -6    1    1    2    0  501  0.85466916374E+02 -0.15688509657E+02 -0.19849182806E+03  0.27727013712E+03  0.17300000000E+03 0.  1.
</event>
<event>
 4    1  0.5880538E-001  0.1000000E+03  0.7546771E-02  0.1280296E+00
         -2   -1    0    0    0  501 -0.00000000000E+00  0.00000000000E+00  0.47989954129E+03  0.47989954129E+03  0.00000000000E+00 0. -1.
          2   -1    0    0  502    0  0.00000000000E+00 -0.00000000000E+00 -0.28676847396E+03  0.28676847396E+03  0.00000000000E+00 0.  1.
          6    1    1    2  502    0  0.18343089237E+01 -0.18995302759E+03 -0.17994380080E+03  0.31367863942E+03  0.17300000000E+03 0.  1.
         -6    1    1    2    0  501 -0.18343089237E+01  0.18995302759E+03  0.37307486813E+03  0.45298937583E+03  0.17300000000E+03 0. -1.
</event>
<event>
 4    1  0.5880538E-001  0.1000000E+03  0.7546771E-02  0.1280296E+00
         -2   -1    0    0    0  501 -0.00000000000E+00  0.00000000000E+00  0.37757415039E+02  0.37757415039E+02  0.00000000000E+00 0. -1.
          2   -1    0    0  502    0  0.00000000000E+00 -0.00000000000E+00 -0.23343064572E+04  0.23343064572E+04  0.00000000000E+00 0.  1.
          6    1    1    2  502    0 -0.77608739056E+02 -0.14371588586E+03 -0.18576647969E+04  0.18728387197E+04  0.17300000000E+03 0.  1.
         -6    1    1    2    0  501  0.77608739056E+02  0.14371588586E+03 -0.43888424527E+03  0.49922515259E+03  0.17300000000E+03 0. -1.
</event>
<event>
 4    1  0.5880538E-001  0.1000000E+03  0.7546771E-02  0.1280296E+00
         -2   -1    0    0    0  501 -0.00000000000E+00  0.00000000000E+00  0.77123230640E+03  0.77123230640E+03  0.00000000000E+00 0.  1.
          2   -1    0    0  502    0  0.00000000000E+00 -0.00000000000E+00 -0.42448309616E+02  0.42448309616E+02  0.00000000000E+00 0. -1.
          6    1    1    2  502    0  0.27162685981E+02 -0.11616659068E+02  0.26546251533E+03  0.31823278481E+03  0.17300000000E+03 0. -1.
         -6    1    1    2    0  501 -0.27162685981E+02  0.11616659068E+02  0.46332148145E+03  0.49544783121E+03  0.17300000000E+03 0.  1.
</event>
<event>
 4    1  0.5880538E-001  0.1000000E+03  0.7546771E-02  0.1280296E+00
         -4   -1    0    0    0  501 -0.00000000000E+00  0.00000000000E+00  0.16072107484E+02  0.16072107484E+02  0.00000000000E+00 0.  1.
          4   -1    0    0  502    0  0.00000000000E+00 -0.00000000000E+00 -0.24219768250E+04  0.24219768250E+04  0.00000000000E+00 0. -1.
          6    1    1    2  502    0 -0.64990082352E+02  0.51628602268E+02 -0.91927066347E+03  0.93908294421E+03  0.17300000000E+03 0. -1.
         -6    1    1    2    0  501  0.64990082352E+02 -0.51628602268E+02 -0.14866340540E+04  0.14989659883E+04  0.17300000000E+03 0.  1.
</event>
<event>
 4    1  0.5880538E-001  0.1000000E+03  0.7546771E-02  0.1280296E+00
         -3   -1    0    0    0  501 -0.00000000000E+00  0.00000000000E+00  0.51088839274E+03  0.51088839274E+03  0.00000000000E+00 0. -1.
          3   -1    0    0  502    0  0.00000000000E+00 -0.00000000000E+00 -0.76083446287E+02  0.76083446287E+02  0.00000000000E+00 0.  1.
          6    1    1    2  502    0 -0.88373104764E+02 -0.26071888074E+02  0.18576830524E+03  0.27005261011E+03  0.17300000000E+03 0.  1.
         -6    1    1    2    0  501  0.88373104764E+02  0.26071888074E+02  0.24903664121E+03  0.31691922892E+03  0.17300000000E+03 0. -1.
</event>
<event>
 4    1  0.5880538E-001  0.1000000E+03  0.7546771E-02  0.1280296E+00
         -1   -1    0    0    0  501 -0.00000000000E+00  0.00000000000E+00  0.45301265147E+02  0.45301265147E+02  0.00000000000E+00 0. -1.
          1   -1    0    0  502    0  0.00000000000E+00 -0.00000000000E+00 -0.13788801502E+04  0.13788801502E+04  0.00000000000E+00 0.  1.
          6    1    1    2  502    0  0.58490431275E+02 -0.14108254123E+03 -0.94022871192E+03  0.96813451788E+03  0.17300000000E+03 0.  1.
         -6    1    1    2    0  501 -0.58490431275E+02  0.14108254123E+03 -0.39335017316E+03  0.45604689750E+03  0.17300000000E+03 0. -1.
</event>
<event>
 4    1  0.5880538E-001  0.1000000E+03  0.7546771E-02  0.1280296E+00
         -2   -1    0    0    0  501 -0.00000000000E+00  0.00000000000E+00  0.19423698308E+03  0.19423698308E+03  0.00000000000E+00 0. -1.
          2   -1    0    0  502    0  0.00000000000E+00 -0.00000000000E+00 -0.44806440646E+03  0.44806440646E+03  0.00000000000E+00 0.  1.
          6    1    1    2  502    0  0.90292958611E+02  0.18084237240E+03  0.11835701652E+02  0.26631910533E+03  0.17300000000E+03 0.  1.
         -6    1    1    2    0  501 -0.90292958611E+02 -0.18084237240E+03 -0.26566312503E+03  0.37598228420E+03  0.17300000000E+03 0. -1.
</event>
<event>
 4    1  0.5880538E-001  0.1000000E+03  0.7546771E-02  0.1280296E+00
          2   -1    0    0  502    0  0.00000000000E+00  0.00000000000E+00  0.17877590380E+04  0.17877590380E+04  0.00000000000E+00 0. -1.
         -2   -1    0    0    0  501 -0.00000000000E+00 -0.00000000000E+00 -0.26793358688E+02  0.26793358688E+02  0.00000000000E+00 0.  1.
          6    1    1    2  502    0  0.67226016422E+02 -0.11206402744E+03  0.75657724200E+03  0.78702973682E+03  0.17300000000E+03 0.  1.
         -6    1    1    2    0  501 -0.67226016422E+02  0.11206402744E+03  0.10043884373E+04  0.10275226598E+04  0.17300000000E+03 0. -1.
</event>
<event>
 4    1  0.5880538E-001  0.1000000E+03  0.7546771E-02  0.1280296E+00
          2   -1    0    0  502    0  0.00000000000E+00  0.00000000000E+00  0.57598222578E+02  0.57598222578E+02  0.00000000000E+00 0.  1.
         -2   -1    0    0    0  501 -0.00000000000E+00 -0.00000000000E+00 -0.10553553330E+04  0.10553553330E+04  0.00000000000E+00 0. -1.
          6    1    1    2  502    0  0.13949000590E+03  0.10566823045E+03 -0.46432601522E+03  0.52550060427E+03  0.17300000000E+03 0.  1.
         -6    1    1    2    0  501 -0.13949000590E+03 -0.10566823045E+03 -0.53343109516E+03  0.58745295127E+03  0.17300000000E+03 0. -1.
</event>
<event>
 4    1  0.5880538E-001  0.1000000E+03  0.7546771E-02  0.1280296E+00
          2   -1    0    0  502    0  0.00000000000E+00  0.00000000000E+00  0.61353804994E+03  0.61353804994E+03  0.00000000000E+00 0.  1.
         -2   -1    0    0    0  501 -0.00000000000E+00 -0.00000000000E+00 -0.57137085025E+02  0.57137085025E+02  0.00000000000E+00 0. -1.
          6    1    1    2  502    0  0.58291015154E+02 -0.31353067776E+02  0.22928480367E+03  0.29475647321E+03  0.17300000000E+03 0.  1.
         -6    1    1    2    0  501 -0.58291015154E+02  0.31353067776E+02  0.32711616124E+03  0.37591866175E+03  0.17300000000E+03 0. -1.
</event>
<event>
 4    1  0.5880538E-001  0.1000000E+03  0.7546771E-02  0.1280296E+00
         -1   -1    0    0    0  501 -0.00000000000E+00  0.00000000000E+00  0.30240552734E+02  0.30240552734E+02  0.00000000000E+00 0.  1.
          1   -1    0    0  502    0  0.00000000000E+00 -0.00000000000E+00 -0.11771196518E+04  0.11771196518E+04  0.00000000000E+00 0. -1.
          6    1    1    2  502    0 -0.52513185835E+02 -0.53649713118E+02 -0.55538989683E+03  0.58653462293E+03  0.17300000000E+03 0. -1.
         -6    1    1    2    0  501  0.52513185835E+02  0.53649713118E+02 -0.59148920229E+03  0.62082558164E+03  0.17300000000E+03 0.  1.
</event>
<event>
 4    1  0.5880538E-001  0.1000000E+03  0.7546771E-02  0.1280296E+00
         -2   -1    0    0    0  501 -0.00000000000E+00  0.00000000000E+00  0.20244766574E+03  0.20244766574E+03  0.00000000000E+00 0. -1.
          2   -1    0    0  502    0  0.00000000000E+00 -0.00000000000E+00 -0.25053822668E+03  0.25053822668E+03  0.00000000000E+00 0.  1.
          6    1    1    2  502    0  0.85281975405E+02 -0.92270556792E+02 -0.95193443415E+02  0.23404628313E+03  0.17300000000E+03 0. -1.
         -6    1    1    2    0  501 -0.85281975405E+02  0.92270556792E+02  0.47102882475E+02  0.21893960929E+03  0.17300000000E+03 0.  1.
</event>
<event>
 4    1  0.5880538E-001  0.1000000E+03  0.7546771E-02  0.1280296E+00
         -4   -1    0    0    0  501 -0.00000000000E+00  0.00000000000E+00  0.25441676820E+03  0.25441676820E+03  0.00000000000E+00 0. -1.
          4   -1    0    0  502    0  0.00000000000E+00 -0.00000000000E+00 -0.40396437816E+03  0.40396437816E+03  0.00000000000E+00 0.  1.
          6    1    1    2  502    0 -0.55909119937E+02 -0.38037065464E+02  0.19353170579E+03  0.26824647097E+03  0.17300000000E+03 0. -1.
         -6    1    1    2    0  501  0.55909119937E+02  0.38037065464E+02 -0.34307931575E+03  0.39013467538E+03  0.17300000000E+03 0.  1.
</event>
<event>
 4    1  0.5880538E-001  0.1000000E+03  0.7546771E-02  0.1280296E+00
         -2   -1    0    0    0  501 -0.00000000000E+00  0.00000000000E+00  0.23214284795E+03  0.23214284795E+03  0.00000000000E+00 0. -1.
          2   -1    0    0  502    0  0.00000000000E+00 -0.00000000000E+00 -0.38662049461E+03  0.38662049461E+03  0.00000000000E+00 0.  1.
          6    1    1    2  502    0 -0.95683979456E+02  0.18043384493E+03 -0.21621435655E+03  0.34407767190E+03  0.17300000000E+03 0. -1.
         -6    1    1    2    0  501  0.95683979456E+02 -0.18043384493E+03  0.61736709888E+02  0.27468567066E+03  0.17300000000E+03 0.  1.
</event>
<event>
 4    1  0.5880538E-001  0.1000000E+03  0.7546771E-02  0.1280296E+00
          4   -1    0    0  502    0  0.00000000000E+00  0.00000000000E+00  0.84220434153E+02  0.84220434153E+02  0.00000000000E+00 0.  1.
         -4   -1    0    0    0  501 -0.00000000000E+00 -0.00000000000E+00 -0.42770414421E+03  0.42770414421E+03  0.00000000000E+00 0. -1.
          6    1    1    2  502    0 -0.33561448677E+02 -0.52652098081E+02 -0.10857409681E+03  0.21357890525E+03  0.17300000000E+03 0.  1.
         -6    1    1    2    0  501  0.33561448677E+02  0.52652098081E+02 -0.23490961325E+03  0.29834567312E+03  0.17300000000E+03 0.  1.
</event>
<event>
 4    1  0.5880538E-001  0.1000000E+03  0.7546771E-02  0.1280296E+00
          2   -1    0    0  502    0  0.00000000000E+00  0.00000000000E+00  0.13458505760E+04  0.13458505760E+04  0.00000000000E+00 0.  1.
         -2   -1    0    0    0  501 -0.00000000000E+00 -0.00000000000E+00 -0.27436606230E+02  0.27436606230E+02  0.00000000000E+00 0. -1.
          6    1    1    2  502    0  0.75394667524E+01 -0.42383085088E+02  0.91547418465E+03  0.93267097748E+03  0.17300000000E+03 0.  1.
         -6    1    1    2    0  501 -0.75394667524E+01  0.42383085088E+02  0.40293978510E+03  0.44061620473E+03  0.17300000000E+03 0.  1.
</event>
<event>
 4    1  0.5880538E-001  0.1000000E+03  0.7546771E-02  0.1280296E+00
          4   -1    0    0  502    0  0.00000000000E+00  0.00000000000E+00  0.22743271403E+03  0.22743271403E+03  0.00000000000E+00 0.  1.
         -4   -1    0    0    0  501 -0.00000000000E+00 -0.00000000000E+00 -0.26117467685E+03  0.26117467685E+03  0.00000000000E+00 0. -1.
          6    1    1    2  502    0  0.17032289368E+02 -0.16389418325E+03 -0.65144957852E+02  0.24763737141E+03  0.17300000000E+03 0.  1.
         -6    1    1    2    0  501 -0.17032289368E+02  0.16389418325E+03  0.31402995039E+02  0.24097001947E+03  0.17300000000E+03 0. -1.
</event>
<event>
 4    1  0.5880538E-001  0.1000000E+03  0.7546771E-02  0.1280296E+00
          2   -1    0    0  502    0  0.00000000000E+00  0.00000000000E+00  0.47339887546E+03  0.47339887546E+03  0.00000000000E+00 0. -1.
         -2   -1    0    0    0  501 -0.00000000000E+00 -0.00000000000E+00 -0.37507374047E+03  0.37507374047E+03  0.00000000000E+00 0.  1.
          6    1    1    2  502    0 -0.97543877565E+02  0.19478770792E+03 -0.26948613998E+03  0.38730974536E+03  0.17300000000E+03 0. -1.
         -6    1    1    2    0  501  0.97543877565E+02 -0.19478770792E+03  0.36781127497E+03  0.46116287058E+03  0.17300000000E+03 0.  1.
</event>
<event>
 4    1  0.5880538E-001  0.1000000E+03  0.7546771E-02  0.1280296E+00
          2   -1    0    0  502    0  0.00000000000E+00  0.00000000000E+00  0.32187476826E+03  0.32187476826E+03  0.00000000000E+00 0. -1.
         -2   -1    0    0    0  501 -0.00000000000E+00 -0.00000000000E+00 -0.12841786280E+03  0.12841786280E+03  0.00000000000E+00 0.  1.
          6    1    1    2  502    0  0.41211642718E+02  0.93113262783E+02  0.61067242806E+02  0.20982537346E+03  0.17300000000E+03 0.  1.
         -6    1    1    2    0  501 -0.41211642718E+02 -0.93113262783E+02  0.13238966266E+03  0.24046725761E+03  0.17300000000E+03 0. -1.
</event>
<event>
 4    1  0.5880538E-001  0.1000000E+03  0.7546771E-02  0.1280296E+00
          2   -1    0    0  502    0  0.00000000000E+00  0.00000000000E+00  0.41032937631E+03  0.41032937631E+03  0.00000000000E+00 0. -1.
         -2   -1    0    0    0  501 -0.00000000000E+00 -0.00000000000E+00 -0.95707005367E+02  0.95707005367E+02  0.00000000000E+00 0.  1.
          6    1    1    2  502    0 -0.71703209270E+02 -0.40422092460E+02  0.22200086121E+03  0.29323826175E+03  0.17300000000E+03 0.  1.
         -6    1    1    2    0  501  0.71703209270E+02  0.40422092460E+02  0.92621509738E+02  0.21279811993E+03  0.17300000000E+03 0. -1.
</event>
<event>
 4    1  0.5880538E-001  0.1000000E+03  0.7546771E-02  0.1280296E+00
          2   -1    0    0  502    0  0.00000000000E+00  0.00000000000E+00  0.62878901760E+03  0.62878901760E+03  0.00000000000E+00 0. -1.
         -2   -1    0    0    0  501 -0.00000000000E+00 -0.00000000000E+00 -0.63473444765E+02  0.63473444765E+02  0.00000000000E+00 0.  1.
          6    1    1    2  502    0  0.29889591355E+02 -0.35145196958E+02  0.12911370002E+03  0.22074401481E+03  0.17300000000E+03 0.  1.
         -6    1    1    2    0  501 -0.29889591355E+02  0.35145196958E+02  0.43620187282E+03  0.47151844756E+03  0.17300000000E+03 0. -1.
</event>
<event>
 4    1  0.5880538E-001  0.1000000E+03  0.7546771E-02  0.1280296E+00
          2   -1    0    0  502    0  0.00000000000E+00  0.00000000000E+00  0.11491120792E+04  0.11491120792E+04  0.00000000000E+00 0. -1.
         -2   -1    0    0    0  501 -0.00000000000E+00 -0.00000000000E+00 -0.41177468206E+02  0.41177468206E+02  0.00000000000E+00 0.  1.
          6    1    1    2  502    0 -0.90831825225E+02 -0.93172912819E+02  0.49548441651E+03  0.54070825698E+03  0.17300000000E+03 0.  1.
         -6    1    1    2    0  501  0.90831825225E+02  0.93172912819E+02  0.61245019451E+03  0.64958129046E+03  0.17300000000E+03 0. -1.
</event>
<event>
 4    1  0.5880538E-001  0.1000000E+03  0.7546771E-02  0.1280296E+00
          2   -1    0    0  502    0  0.00000000000E+00  0.00000000000E+00  0.90392810741E+03  0.90392810741E+03  0.00000000000E+00 0. -1.
         -2   -1    0    0    0  501 -0.00000000000E+00 -0.00000000000E+00 -0.42265640741E+02  0.42265640741E+02  0.00000000000E+00 0.  1.
          6    1    1    2  502    0  0.55281375108E+02  0.67838132762E+02  0.49100455753E+03  0.52789441957E+03  0.17300000000E+03 0.  1.
         -6    1    1    2    0  501 -0.55281375108E+02 -0.67838132762E+02  0.37065790914E+03  0.41829932859E+03  0.17300000000E+03 0. -1.
</event>
<event>
 4    1  0.5880538E-001  0.1000000E+03  0.7546771E-02  0.1280296E+00
         -1   -1    0    0    0  501 -0.00000000000E+00  0.00000000000E+00  0.18998933354E+03  0.18998933354E+03  0.00000000000E+00 0. -1.
          1   -1    0    0  502    0  0.00000000000E+00 -0.00000000000E+00 -0.20918199230E+03  0.20918199230E+03  0.00000000000E+00 0.  1.
          6    1    1    2  502    0 -0.17455011780E+02  0.55835994145E+02 -0.89632700178E+02  0.20343391217E+03  0.17300000000E+03 0.  1.
         -6    1    1    2    0  501  0.17455011780E+02 -0.55835994145E+02  0.70440041410E+02  0.19573741368E+03  0.17300000000E+03 0. -1.
</event>
<event>
 4    1  0.5880538E-001  0.1000000E+03  0.7546771E-02  0.1280296E+00
         -2   -1    0    0    0  501 -0.00000000000E+00  0.00000000000E+00  0.19777732740E+03  0.19777732740E+03  0.00000000000E+00 0. -1.
          2   -1    0    0  502    0  0.00000000000E+00 -0.00000000000E+00 -0.24364139705E+03  0.24364139705E+03  0.00000000000E+00 0.  1.
          6    1    1    2  502    0 -0.20508270750E+02  0.11202590012E+03  0.50177852027E+02  0.21311313498E+03  0.17300000000E+03 0.  1.
         -6    1    1    2    0  501  0.20508270750E+02 -0.11202590012E+03 -0.96041921669E+02  0.22830558947E+03  0.17300000000E+03 0. -1.
</event>
<event>
 4    1  0.5880538E-001  0.1000000E+03  0.7546771E-02  0.1280296E+00
         -2   -1    0    0    0  501 -0.00000000000E+00  0.00000000000E+00  0.46420619018E+03  0.46420619018E+03  0.00000000000E+00 0.  1.
          2   -1    0    0  502    0  0.00000000000E+00 -0.00000000000E+00 -0.45446755898E+03  0.45446755898E+03  0.00000000000E+00 0. -1.
          6    1    1    2  502    0 -0.13349410979E+03 -0.26355480903E+03 -0.30134364377E+03  0.45609078740E+03  0.17300000000E+03 0. -1.
         -6    1    1    2    0  501  0.13349410979E+03  0.26355480903E+03  0.31108227496E+03  0.46258296176E+03  0.17300000000E+03 0.  1.
</event>
<event>
 4    1  0.5880538E-001  0.1000000E+03  0.7546771E-02  0.1280296E+00
         -1   -1    0    0    0  501 -0.00000000000E+00  0.00000000000E+00  0.43005334593E+02  0.43005334593E+02  0.00000000000E+00 0.  1.
          1   -1    0    0  502    0  0.00000000000E+00 -0.00000000000E+00 -0.12559536378E+04  0.12559536378E+04  0.00000000000E+00 0. -1.
          6    1    1    2  502    0  0.67493547430E+02 -0.56328584318E+02 -0.24907929855E+03  0.31574956108E+03  0.17300000000E+03 0. -1.
         -6    1    1    2    0  501 -0.67493547430E+02  0.56328584318E+02 -0.96386900461E+03  0.98320941127E+03  0.17300000000E+03 0.  1.
</event>
<event>
 4    1  0.5880538E-001  0.1000000E+03  0.7546771E-02  0.1280296E+00
         -2   -1    0    0    0  501 -0.00000000000E+00  0.00000000000E+00  0.92881623507E+02  0.92881623507E+02  0.00000000000E+00 0.  1.
          2   -1    0    0  502    0  0.00000000000E+00 -0.00000000000E+00 -0.10190155319E+04  0.10190155319E+04  0.00000000000E+00 0. -1.
          6    1    1    2  502    0 -0.55949721575E+02 -0.23588307260E+03 -0.32370282958E+03  0.43986784056E+03  0.17300000000E+03 0. -1.
         -6    1    1    2    0  501  0.55949721575E+02  0.23588307260E+03 -0.60243107881E+03  0.67202931484E+03  0.17300000000E+03 0.  1.
</event>
<event>
 4    1  0.5880538E-001  0.1000000E+03  0.7546771E-02  0.1280296E+00
         -3   -1    0    0    0  501 -0.00000000000E+00  0.00000000000E+00  0.27560204999E+03  0.27560204999E+03  0.00000000000E+00 0.  1.
          3   -1    0    0  502    0  0.00000000000E+00 -0.00000000000E+00 -0.15584899082E+03  0.15584899082E+03  0.00000000000E+00 0. -1.
          6    1    1    2  502    0  0.91377144364E+02  0.16698145719E+02  0.12888024375E+03  0.23487811267E+03  0.17300000000E+03 0.  1.
         -6    1    1    2    0  501 -0.91377144364E+02 -0.16698145719E+02 -0.91271845778E+01  0.19657292815E+03  0.17300000000E+03 0. -1.
</event>
<event>
 4    1  0.5880538E-001  0.1000000E+03  0.7546771E-02  0.1280296E+00
         -1   -1    0    0    0  501 -0.00000000000E+00  0.00000000000E+00  0.91473162847E+02  0.91473162847E+02  0.00000000000E+00 0.  1.
          1   -1    0    0  502    0  0.00000000000E+00 -0.00000000000E+00 -0.39379482389E+03  0.39379482389E+03  0.00000000000E+00 0. -1.
          6    1    1    2  502    0 -0.55830428363E+02  0.24471191378E+02 -0.88835515559E+02  0.20380536000E+03  0.17300000000E+03 0.  1.
         -6    1    1    2    0  501  0.55830428363E+02 -0.24471191378E+02 -0.21348614549E+03  0.28146262674E+03  0.17300000000E+03 0. -1.
</event>
<event>
 4    1  0.5880538E-001  0.1000000E+03  0.7546771E-02  0.1280296E+00
         -1   -1    0    0    0  501 -0.00000000000E+00  0.00000000000E+00  0.49990895514E+02  0.49990895514E+02  0.00000000000E+00 0.  1.
          1   -1    0    0  502    0  0.00000000000E+00 -0.00000000000E+00 -0.80017083581E+03  0.80017083581E+03  0.00000000000E+00 0. -1.
          6    1    1    2  502    0 -0.97867572220E+02 -0.18509275928E+02 -0.34892099494E+03  0.40198944725E+03  0.17300000000E+03 0.  1.
         -6    1    1    2    0  501  0.97867572220E+02  0.18509275928E+02 -0.40125894535E+03  0.44817228407E+03  0.17300000000E+03 0. -1.
</event>
<event>
 4    1  0.5880538E-001  0.1000000E+03  0.7546771E-02  0.1280296E+00
         -1   -1    0    0    0  501 -0.00000000000E+00  0.00000000000E+00  0.24148427580E+03  0.24148427580E+03  0.00000000000E+00 0.  1.
          1   -1    0    0  502    0  0.00000000000E+00 -0.00000000000E+00 -0.15104417726E+04  0.15104417726E+04  0.00000000000E+00 0. -1.
          6    1    1    2  502    0 -0.53377482078E+03  0.10701679114E+03 -0.35007065202E+03  0.66996015873E+03  0.17300000000E+03 0.  1.
         -6    1    1    2    0  501  0.53377482078E+03 -0.10701679114E+03 -0.91888684473E+03  0.10819658896E+04  0.17300000000E+03 0. -1.
</event>
<event>
 4    1  0.5880538E-001  0.1000000E+03  0.7546771E-02  0.1280296E+00
          3   -1    0    0  502    0  0.00000000000E+00  0.00000000000E+00  0.11760587655E+03  0.11760587655E+03  0.00000000000E+00 0. -1.
         -3   -1    0    0    0  501 -0.00000000000E+00 -0.00000000000E+00 -0.99496680077E+03  0.99496680077E+03  0.00000000000E+00 0.  1.
          6    1    1    2  502    0 -0.66108646472E+02  0.22100544136E+03 -0.73797223601E+03  0.79230409526E+03  0.17300000000E+03 0. -1.
         -6    1    1    2    0  501  0.66108646472E+02 -0.22100544136E+03 -0.13938868821E+03  0.32026858206E+03  0.17300000000E+03 0.  1.
</event>
<event>
 4    1  0.5880538E-001  0.1000000E+03  0.7546771E-02  0.1280296E+00
          1   -1    0    0  502    0  0.00000000000E+00  0.00000000000E+00  0.55649621897E+03  0.55649621897E+03  0.00000000000E+00 0. -1.
         -1   -1    0    0    0  501 -0.00000000000E+00 -0.00000000000E+00 -0.13660700330E+03  0.13660700330E+03  0.00000000000E+00 0.  1.
          6    1    1    2  502    0 -0.18212168354E+03 -0.10182891904E+03  0.27347515020E+03  0.38503908132E+03  0.17300000000E+03 0. -1.
         -6    1    1    2    0  501  0.18212168354E+03  0.10182891904E+03  0.14641406547E+03  0.30806414095E+03  0.17300000000E+03 0.  1.
</event>
<event>
 4    1  0.5880538E-001  0.1000000E+03  0.7546771E-02  0.1280296E+00
          1   -1    0    0  502    0  0.00000000000E+00  0.00000000000E+00  0.15600233439E+04  0.15600233439E+04  0.00000000000E+00 0. -1.
         -1   -1    0    0    0  501 -0.00000000000E+00 -0.00000000000E+00 -0.27778155758E+02  0.27778155758E+02  0.00000000000E+00 0.  1.
          6    1    1    2  502    0  0.48984879076E+02 -0.10482097165E+03  0.74966738934E+03  0.77802130377E+03  0.17300000000E+03 0. -1.
         -6    1    1    2    0  501 -0.48984879076E+02  0.10482097165E+03  0.78257779876E+03  0.80978019585E+03  0.17300000000E+03 0.  1.
</event>
<event>
 4    1  0.5880538E-001  0.1000000E+03  0.7546771E-02  0.1280296E+00
          2   -1    0    0  502    0  0.00000000000E+00  0.00000000000E+00  0.17642916260E+03  0.17642916260E+03  0.00000000000E+00 0. -1.
         -2   -1    0    0    0  501 -0.00000000000E+00 -0.00000000000E+00 -0.20295760907E+03  0.20295760907E+03  0.00000000000E+00 0.  1.
          6    1    1    2  502    0  0.36746343917E+02  0.93450347222E+01  0.53540255153E+02  0.18502211324E+03  0.17300000000E+03 0. -1.
         -6    1    1    2    0  501 -0.36746343917E+02 -0.93450347222E+01 -0.80068701627E+02  0.19436465843E+03  0.17300000000E+03 0.  1.
</event>
<event>
 4    1  0.5880538E-001  0.1000000E+03  0.7546771E-02  0.1280296E+00
          2   -1    0    0  502    0  0.00000000000E+00  0.00000000000E+00  0.53325956543E+03  0.53325956543E+03  0.00000000000E+00 0.  1.
         -2   -1    0    0    0  501 -0.00000000000E+00 -0.00000000000E+00 -0.14266854460E+03  0.14266854460E+03  0.00000000000E+00 0. -1.
          6    1    1    2  502    0 -0.20419588189E+03  0.15327026503E+02  0.11570394267E+03  0.29197136550E+03  0.17300000000E+03 0. -1.
         -6    1    1    2    0  501  0.20419588189E+03 -0.15327026503E+02  0.27488707816E+03  0.38395674452E+03  0.17300000000E+03 0.  1.
</event>
<event>
 4    1  0.5880538E-001  0.1000000E+03  0.7546771E-02  0.1280296E+00
          2   -1    0    0  502    0  0.00000000000E+00  0.00000000000E+00  0.65704128658E+03  0.65704128658E+03  0.00000000000E+00 0.  1.
         -2   -1    0    0    0  501 -0.00000000000E+00 -0.00000000000E+00 -0.14205728410E+03  0.14205728410E+03  0.00000000000E+00 0. -1.
          6    1    1    2  502    0 -0.10275699760E+03  0.42053020072E+02  0.55307003469E+03  0.59003637203E+03  0.17300000000E+03 0. -1.
         -6    1    1    2    0  501  0.10275699760E+03 -0.42053020072E+02 -0.38086032206E+02  0.20906219864E+03  0.17300000000E+03 0.  1.
</event>
<event>
 4    1  0.5880538E-001  0.1000000E+03  0.7546771E-02  0.1280296E+00
         -1   -1    0    0    0  501 -0.00000000000E+00  0.00000000000E+00  0.19045579055E+03  0.19045579055E+03  0.00000000000E+00 0. -1.
          1   -1    0    0  502    0  0.00000000000E+00 -0.00000000000E+00 -0.99589834892E+03  0.99589834892E+03  0.00000000000E+00 0.  1.
          6    1    1    2  502    0  0.35293793464E+03 -0.13152324758E+03 -0.58485421782E+03  0.71683122593E+03  0.17300000000E+03 0. -1.
         -6    1    1    2    0  501 -0.35293793464E+03  0.13152324758E+03 -0.22058834054E+03  0.46952291354E+03  0.17300000000E+03 0.  1.
</event>
<event>
 4    1  0.5880538E-001  0.1000000E+03  0.7546771E-02  0.1280296E+00
         -2   -1    0    0    0  501 -0.00000000000E+00  0.00000000000E+00  0.68213610239E+02  0.68213610239E+02  0.00000000000E+00 0. -1.
          2   -1    0    0  502    0  0.00000000000E+00 -0.00000000000E+00 -0.54102390548E+03  0.54102390548E+03  0.00000000000E+00 0.  1.
          6    1    1    2  502    0 -0.85123825980E+01  0.36762983425E+02 -0.11825178597E+03  0.21292360718E+03  0.17300000000E+03 0. -1.
         -6    1    1    2    0  501  0.85123825980E+01 -0.36762983425E+02 -0.35455850927E+03  0.39631390854E+03  0.17300000000E+03 0.  1.
</event>
<event>
 4    1  0.5880538E-001  0.1000000E+03  0.7546771E-02  0.1280296E+00
         -4   -1    0    0    0  501 -0.00000000000E+00  0.00000000000E+00  0.20369716785E+03  0.20369716785E+03  0.00000000000E+00 0. -1.
          4   -1    0    0  502    0  0.00000000000E+00 -0.00000000000E+00 -0.21959645058E+03  0.21959645058E+03  0.00000000000E+00 0.  1.
          6    1    1    2  502    0 -0.10498815122E+03 -0.42732011820E+02  0.36281551796E+02  0.20998544648E+03  0.17300000000E+03 0. -1.
         -6    1    1    2    0  501  0.10498815122E+03  0.42732011820E+02 -0.52180834532E+02  0.21330817196E+03  0.17300000000E+03 0. -1.
</event>
<event>
 4    1  0.5880538E-001  0.1000000E+03  0.7546771E-02  0.1280296E+00
         -1   -1    0    0    0  501 -0.00000000000E+00  0.00000000000E+00  0.35641464989E+03  0.35641464989E+03  0.00000000000E+00 0. -1.
          1   -1    0    0  502    0  0.00000000000E+00 -0.00000000000E+00 -0.22524161552E+03  0.22524161552E+03  0.00000000000E+00 0.  1.
          6    1    1    2  502    0  0.41981672989E+02 -0.96962297393E+02 -0.13760297841E+03  0.24500556657E+03  0.17300000000E+03 0. -1.
         -6    1    1    2    0  501 -0.41981672989E+02  0.96962297393E+02  0.26877601278E+03  0.33665069884E+03  0.17300000000E+03 0. -1.
</event>
<event>
 4    1  0.5880538E-001  0.1000000E+03  0.7546771E-02  0.1280296E+00
          2   -1    0    0  502    0  0.00000000000E+00  0.00000000000E+00  0.14387970191E+04  0.14387970191E+04  0.00000000000E+00 0.  1.
         -2   -1    0    0    0  501 -0.00000000000E+00 -0.00000000000E+00 -0.27363556456E+02  0.27363556456E+02  0.00000000000E+00 0. -1.
          6    1    1    2  502    0 -0.91221887212E+02  0.26919232022E+02  0.77919397560E+03  0.80381486014E+03  0.17300000000E+03 0.  1.
         -6    1    1    2    0  501  0.91221887212E+02 -0.26919232022E+02  0.63223948700E+03  0.66234571538E+03  0.17300000000E+03 0.  1.
</event>
<event>
 4    1  0.5880538E-001  0.1000000E+03  0.7546771E-02  0.1280296E+00
          2   -1    0    0  502    0  0.00000000000E+00  0.00000000000E+00  0.16010619719E+03  0.16010619719E+03  0.00000000000E+00 0.  1.
         -2   -1    0    0    0  501 -0.00000000000E+00 -0.00000000000E+00 -0.23324779114E+03  0.23324779114E+03  0.00000000000E+00 0. -1.
          6    1    1    2  502    0 -0.68226168357E+02 -0.67479749625E+01 -0.89601986300E+02  0.20653779597E+03  0.17300000000E+03 0.  1.
         -6    1    1    2    0  501  0.68226168357E+02  0.67479749625E+01  0.16460392349E+02  0.18681619237E+03  0.17300000000E+03 0.  1.
</event>
<event>
 4    1  0.5880538E-001  0.1000000E+03  0.7546771E-02  0.1280296E+00
          1   -1    0    0  502    0  0.00000000000E+00  0.00000000000E+00  0.11834232508E+04  0.11834232508E+04  0.00000000000E+00 0.  1.
         -1   -1    0    0    0  501 -0.00000000000E+00 -0.00000000000E+00 -0.43735280347E+02  0.43735280347E+02  0.00000000000E+00 0. -1.
          6    1    1    2  502    0  0.88950288047E+02 -0.11270894932E+03  0.47591605001E+03  0.52634641412E+03  0.17300000000E+03 0.  1.
         -6    1    1    2    0  501 -0.88950288047E+02  0.11270894932E+03  0.66377192043E+03  0.70081211701E+03  0.17300000000E+03 0.  1.
</event>
<event>
 4    1  0.5880538E-001  0.1000000E+03  0.7546771E-02  0.1280296E+00
          1   -1    0    0  502    0  0.00000000000E+00  0.00000000000E+00  0.62079715775E+03  0.62079715775E+03  0.00000000000E+00 0.  1.
         -1   -1    0    0    0  501 -0.00000000000E+00 -0.00000000000E+00 -0.12249376189E+03  0.12249376189E+03  0.00000000000E+00 0. -1.
          6    1    1    2  502    0  0.16567730661E+03 -0.87578064995E+02  0.39047449193E+03  0.46638848210E+03  0.17300000000E+03 0.  1.
         -6    1    1    2    0  501 -0.16567730661E+03  0.87578064995E+02  0.10782890393E+03  0.27690243754E+03  0.17300000000E+03 0.  1.
</event>
<event>
 4    1  0.5880538E-001  0.1000000E+03  0.7546771E-02  0.1280296E+00
         -2   -1    0    0    0  501 -0.00000000000E+00  0.00000000000E+00  0.17578305780E+02  0.17578305780E+02  0.00000000000E+00 0. -1.
          2   -1    0    0  502    0  0.00000000000E+00 -0.00000000000E+00 -0.24220054878E+04  0.24220054878E+04  0.00000000000E+00 0.  1.
          6    1    1    2  502    0 -0.82086037999E+02  0.31782408604E+02 -0.78850216521E+03  0.81204242726E+03  0.17300000000E+03 0.  1.
         -6    1    1    2    0  501  0.82086037999E+02 -0.31782408604E+02 -0.16159250169E+04  0.16275413664E+04  0.17300000000E+03 0. -1.
</event>
<event>
 4    1  0.5880538E-001  0.1000000E+03  0.7546771E-02  0.1280296E+00
         -1   -1    0    0    0  501 -0.00000000000E+00  0.00000000000E+00  0.16570130328E+03  0.16570130328E+03  0.00000000000E+00 0. -1.
          1   -1    0    0  502    0  0.00000000000E+00 -0.00000000000E+00 -0.40835348198E+03  0.40835348198E+03  0.00000000000E+00 0.  1.
          6    1    1    2  502    0 -0.60658528868E+02 -0.19790777285E+02 -0.32378122689E+03  0.37260490452E+03  0.17300000000E+03 0.  1.
         -6    1    1    2    0  501  0.60658528868E+02  0.19790777285E+02  0.81129048188E+02  0.20144988074E+03  0.17300000000E+03 0. -1.
</event>
<event>
 4    1  0.5880538E-001  0.1000000E+03  0.7546771E-02  0.1280296E+00
         -4   -1    0    0    0  501 -0.00000000000E+00  0.00000000000E+00  0.74134742282E+02  0.74134742282E+02  0.00000000000E+00 0.  1.
          4   -1    0    0  502    0  0.00000000000E+00 -0.00000000000E+00 -0.41399777483E+03  0.41399777483E+03  0.00000000000E+00 0. -1.
          6    1    1    2  502    0  0.18538630371E+02 -0.39560066198E+01 -0.19790878086E+03  0.26354547302E+03  0.17300000000E+03 0.  1.
         -6    1    1    2    0  501 -0.18538630371E+02  0.39560066198E+01 -0.14195425168E+03  0.22458704410E+03  0.17300000000E+03 0.  1.
</event>
<event>
 4    1  0.5880538E-001  0.1000000E+03  0.7546771E-02  0.1280296E+00
         -2   -1    0    0    0  501 -0.00000000000E+00  0.00000000000E+00  0.44313641192E+02  0.44313641192E+02  0.00000000000E+00 0.  1.
          2   -1    0    0  502    0  0.00000000000E+00 -0.00000000000E+00 -0.87084741777E+03  0.87084741777E+03  0.00000000000E+00 0. -1.
          6    1    1    2  502    0  0.79659176478E+02 -0.45863365089E+02 -0.37932061471E+03  0.42692172749E+03  0.17300000000E+03 0.  1.
         -6    1    1    2    0  501 -0.79659176478E+02  0.45863365089E+02 -0.44721316186E+03  0.48823933147E+03  0.17300000000E+03 0.  1.
</event>
<event>
 4    1  0.5880538E-001  0.1000000E+03  0.7546771E-02  0.1280296E+00
         -1   -1    0    0    0  501 -0.00000000000E+00  0.00000000000E+00  0.12357695733E+03  0.12357695733E+03  0.00000000000E+00 0. -1.
          1   -1    0    0  502    0  0.00000000000E+00 -0.00000000000E+00 -0.47374285018E+03  0.47374285018E+03  0.00000000000E+00 0.  1.
          6    1    1    2  502    0  0.15724996697E+03 -0.36555495087E+02 -0.11274122970E+03  0.26211341287E+03  0.17300000000E+03 0. -1.
         -6    1    1    2    0  501 -0.15724996697E+03  0.36555495087E+02 -0.23742466315E+03  0.33520639464E+03  0.17300000000E+03 0.  1.
</event>
<event>
 4    1  0.5880538E-001  0.1000000E+03  0.7546771E-02  0.1280296E+00
         -2   -1    0    0    0  501 -0.00000000000E+00  0.00000000000E+00  0.66061330743E+03  0.66061330743E+03  0.00000000000E+00 0. -1.
          2   -1    0    0  502    0  0.00000000000E+00 -0.00000000000E+00 -0.64125080221E+02  0.64125080221E+02  0.00000000000E+00 0.  1.
          6    1    1    2  502    0 -0.18660989029E+02 -0.24501933490E+02  0.10956840415E+03  0.20708165647E+03  0.17300000000E+03 0. -1.
         -6    1    1    2    0  501  0.18660989029E+02  0.24501933490E+02  0.48691982305E+03  0.51765673118E+03  0.17300000000E+03 0.  1.
</event>
<event>
 4    1  0.5880538E-001  0.1000000E+03  0.7546771E-02  0.1280296E+00
         -2   -1    0    0    0  501 -0.00000000000E+00  0.00000000000E+00  0.36053607600E+03  0.36053607600E+03  0.00000000000E+00 0. -1.
          2   -1    0    0  502    0  0.00000000000E+00 -0.00000000000E+00 -0.99066163534E+02  0.99066163534E+02  0.00000000000E+00 0.  1.
          6    1    1    2  502    0  0.54057495502E+02 -0.17626238077E+02  0.69272062656E+02  0.19483458562E+03  0.17300000000E+03 0.  1.
         -6    1    1    2    0  501 -0.54057495502E+02  0.17626238077E+02  0.19219784981E+03  0.26476765392E+03  0.17300000000E+03 0. -1.
</event>
<event>
 4    1  0.5880538E-001  0.1000000E+03  0.7546771E-02  0.1280296E+00
         -1   -1    0    0    0  501 -0.00000000000E+00  0.00000000000E+00  0.21222428508E+03  0.21222428508E+03  0.00000000000E+00 0. -1.
          1   -1    0    0  502    0  0.00000000000E+00 -0.00000000000E+00 -0.98585927375E+03  0.98585927375E+03  0.00000000000E+00 0.  1.
          6    1    1    2  502    0 -0.11377140870E+03  0.54416842040E+02  0.14255786365E+03  0.25720977941E+03  0.17300000000E+03 0.  1.
         -6    1    1    2    0  501  0.11377140870E+03 -0.54416842040E+02 -0.91619285233E+03  0.94087377941E+03  0.17300000000E+03 0. -1.
</event>
<event>
 4    1  0.5880538E-001  0.1000000E+03  0.7546771E-02  0.1280296E+00
         -2   -1    0    0    0  501 -0.00000000000E+00  0.00000000000E+00  0.33454940977E+02  0.33454940977E+02  0.00000000000E+00 0. -1.
          2   -1    0    0  502    0  0.00000000000E+00 -0.00000000000E+00 -0.10252258643E+04  0.10252258643E+04  0.00000000000E+00 0.  1.
          6    1    1    2  502    0 -0.45781161533E+02 -0.34636948033E+01 -0.35994852405E+03  0.40199484063E+03  0.17300000000E+03 0.  1.
         -6    1    1    2    0  501  0.45781161533E+02  0.34636948033E+01 -0.63182239932E+03  0.65668596468E+03  0.17300000000E+03 0. -1.
</event>
<event>
 4    1  0.5880538E-001  0.1000000E+03  0.7546771E-02  0.1280296E+00
          2   -1    0    0  502    0  0.00000000000E+00  0.00000000000E+00  0.82855351489E+03  0.82855351489E+03  0.00000000000E+00 0. -1.
         -2   -1    0    0    0  501 -0.00000000000E+00 -0.00000000000E+00 -0.73623086608E+02  0.73623086608E+02  0.00000000000E+00 0.  1.
          6    1    1    2  502    0 -0.11838644661E+03 -0.11727707917E+03  0.27250871996E+03  0.36326198052E+03  0.17300000000E+03 0. -1.
         -6    1    1    2    0  501  0.11838644661E+03  0.11727707917E+03  0.48242170832E+03  0.53891462097E+03  0.17300000000E+03 0.  1.
</event>
<event>
 4    1  0.5880538E-001  0.1000000E+03  0.7546771E-02  0.1280296E+00
          2   -1    0    0  502    0  0.00000000000E+00  0.00000000000E+00  0.16486584911E+04  0.16486584911E+04  0.00000000000E+00 0. -1.
         -2   -1    0    0    0  501 -0.00000000000E+00 -0.00000000000E+00 -0.32255685487E+02  0.32255685487E+02  0.00000000000E+00 0.  1.
          6    1    1    2  502    0 -0.14556977519E+03  0.45327147639E+02  0.80047008466E+03  0.83302248841E+03  0.17300000000E+03 0. -1.
         -6    1    1    2    0  501  0.14556977519E+03 -0.45327147639E+02  0.81593272099E+03  0.84789168822E+03  0.17300000000E+03 0.  1.
</event>
<event>
 4    1  0.5880538E-001  0.1000000E+03  0.7546771E-02  0.1280296E+00
          1   -1    0    0  502    0  0.00000000000E+00  0.00000000000E+00  0.92758830565E+02  0.92758830565E+02  0.00000000000E+00 0. -1.
         -1   -1    0    0    0  501 -0.00000000000E+00 -0.00000000000E+00 -0.56345265570E+03  0.56345265570E+03  0.00000000000E+00 0.  1.
          6    1    1    2  502    0 -0.14375350346E+03 -0.64454606766E+01 -0.29328276748E+03  0.36966254263E+03  0.17300000000E+03 0. -1.
         -6    1    1    2    0  501  0.14375350346E+03  0.64454606766E+01 -0.17741105766E+03  0.28654894364E+03  0.17300000000E+03 0.  1.
</event>
<event>
 4    1  0.5880538E-001  0.1000000E+03  0.7546771E-02  0.1280296E+00
         -1   -1    0    0    0  501 -0.00000000000E+00  0.00000000000E+00  0.38743179671E+03  0.38743179671E+03  0.00000000000E+00 0. -1.
          1   -1    0    0  502    0  0.00000000000E+00 -0.00000000000E+00 -0.20336495150E+03  0.20336495150E+03  0.00000000000E+00 0.  1.
          6    1    1    2  502    0 -0.41482017630E+02 -0.20801543233E+03  0.26566693581E+02  0.27500175832E+03  0.17300000000E+03 0. -1.
         -6    1    1    2    0  501  0.41482017630E+02  0.20801543233E+03  0.15750015163E+03  0.31579498988E+03  0.17300000000E+03 0.  1.
</event>
<event>
 4    1  0.5880538E-001  0.1000000E+03  0.7546771E-02  0.1280296E+00
         -2   -1    0    0    0  501 -0.00000000000E+00  0.00000000000E+00  0.10826404370E+03  0.10826404370E+03  0.00000000000E+00 0.  1.
          2   -1    0    0  502    0  0.00000000000E+00 -0.00000000000E+00 -0.50734027106E+03  0.50734027106E+03  0.00000000000E+00 0. -1.
          6    1    1    2  502    0 -0.20836106573E+02  0.12508423119E+03 -0.75515336042E+02  0.22740223000E+03  0.17300000000E+03 0.  1.
         -6    1    1    2    0  501  0.20836106573E+02 -0.12508423119E+03 -0.32356089131E+03  0.38820208476E+03  0.17300000000E+03 0. -1.
</event>
<event>
 4    1  0.5880538E-001  0.1000000E+03  0.7546771E-02  0.1280296E+00
         -1   -1    0    0    0  501 -0.00000000000E+00  0.00000000000E+00  0.15912333169E+03  0.15912333169E+03  0.00000000000E+00 0.  1.
          1   -1    0    0  502    0  0.00000000000E+00 -0.00000000000E+00 -0.19513943195E+04  0.19513943195E+04  0.00000000000E+00 0. -1.
          6    1    1    2  502    0 -0.19465795824E+03  0.92438412036E+01  0.36625738346E+02  0.26314941386E+03  0.17300000000E+03 0.  1.
         -6    1    1    2    0  501  0.19465795824E+03 -0.92438412036E+01 -0.18288967262E+04  0.18473682373E+04  0.17300000000E+03 0. -1.
</event>
<event>
 4    1  0.5880538E-001  0.1000000E+03  0.7546771E-02  0.1280296E+00
         -2   -1    0    0    0  501 -0.00000000000E+00  0.00000000000E+00  0.10094707598E+03  0.10094707598E+03  0.00000000000E+00 0.  1.
          2   -1    0    0  502    0  0.00000000000E+00 -0.00000000000E+00 -0.36890523429E+03  0.36890523429E+03  0.00000000000E+00 0. -1.
          6    1    1    2  502    0 -0.72115686122E+02 -0.18381033720E+02 -0.18523031020E+03  0.26415488336E+03  0.17300000000E+03 0.  1.
         -6    1    1    2    0  501  0.72115686122E+02  0.18381033720E+02 -0.82727848108E+02  0.20569742691E+03  0.17300000000E+03 0.  1.
</event>
<event>
 4    1  0.5880538E-001  0.1000000E+03  0.7546771E-02  0.1280296E+00
         -2   -1    0    0    0  501 -0.00000000000E+00  0.00000000000E+00  0.79071290305E+02  0.79071290305E+02  0.00000000000E+00 0.  1.
          2   -1    0    0  502    0  0.00000000000E+00 -0.00000000000E+00 -0.14372130558E+04  0.14372130558E+04  0.00000000000E+00 0. -1.
          6    1    1    2  502    0  0.78711155280E+02 -0.25519164720E+03 -0.92945404659E+03  0.98241134332E+03  0.17300000000E+03 0.  1.
         -6    1    1    2    0  501 -0.78711155280E+02  0.25519164720E+03 -0.42868771895E+03  0.53387300283E+03  0.17300000000E+03 0.  1.
</event>
<event>
 4    1  0.5880538E-001  0.1000000E+03  0.7546771E-02  0.1280296E+00
          4   -1    0    0  502    0  0.00000000000E+00  0.00000000000E+00  0.55395533154E+02  0.55395533154E+02  0.00000000000E+00 0. -1.
         -4   -1    0    0    0  501 -0.00000000000E+00 -0.00000000000E+00 -0.10841904588E+04  0.10841904588E+04  0.00000000000E+00 0.  1.
          6    1    1    2  502    0 -0.13607255995E+03  0.65965374662E+02 -0.71254516441E+03  0.74867668826E+03  0.17300000000E+03 0.  1.
         -6    1    1    2    0  501  0.13607255995E+03 -0.65965374662E+02 -0.31624976121E+03  0.39090930366E+03  0.17300000000E+03 0.  1.
</event>
<event>
 4    1  0.5880538E-001  0.1000000E+03  0.7546771E-02  0.1280296E+00
         -2   -1    0    0    0  501 -0.00000000000E+00  0.00000000000E+00  0.19809124284E+03  0.19809124284E+03  0.00000000000E+00 0. -1.
          2   -1    0    0  502    0  0.00000000000E+00 -0.00000000000E+00 -0.20430201052E+03  0.20430201052E+03  0.00000000000E+00 0.  1.
          6    1    1    2  502    0  0.91742727128E+02  0.41772597358E+02  0.16384403198E+02  0.20089581016E+03  0.17300000000E+03 0. -1.
         -6    1    1    2    0  501 -0.91742727128E+02 -0.41772597358E+02 -0.22595170875E+02  0.20149744320E+03  0.17300000000E+03 0. -1.
</event>
<event>
 4    1  0.5880538E-001  0.1000000E+03  0.7546771E-02  0.1280296E+00
         -2   -1    0    0    0  501 -0.00000000000E+00  0.00000000000E+00  0.21094509647E+02  0.21094509647E+02  0.00000000000E+00 0. -1.
          2   -1    0    0  502    0  0.00000000000E+00 -0.00000000000E+00 -0.15845695167E+04  0.15845695167E+04  0.00000000000E+00 0.  1.
          6    1    1    2  502    0  0.30678730296E+02  0.49262719075E+02 -0.83155733154E+03  0.85134281910E+03  0.17300000000E+03 0. -1.
         -6    1    1    2    0  501 -0.30678730296E+02 -0.49262719075E+02 -0.73191767550E+03  0.75432120724E+03  0.17300000000E+03 0. -1.
</event>
<event>
 4    1  0.5880538E-001  0.1000000E+03  0.7546771E-02  0.1280296E+00
         -1   -1    0    0    0  501 -0.00000000000E+00  0.00000000000E+00  0.71936632648E+02  0.71936632648E+02  0.00000000000E+00 0. -1.
          1   -1    0    0  502    0  0.00000000000E+00 -0.00000000000E+00 -0.65060809481E+03  0.65060809481E+03  0.00000000000E+00 0.  1.
          6    1    1    2  502    0 -0.50102531827E+02 -0.88458271273E+02 -0.15430377294E+03  0.25312799884E+03  0.17300000000E+03 0. -1.
         -6    1    1    2    0  501  0.50102531827E+02  0.88458271273E+02 -0.42436768922E+03  0.46941672862E+03  0.17300000000E+03 0. -1.
</event>
<event>
 4    1  0.5880538E-001  0.1000000E+03  0.7546771E-02  0.1280296E+00
         -2   -1    0    0    0  501 -0.00000000000E+00  0.00000000000E+00  0.93297818024E+01  0.93297818024E+01  0.00000000000E+00 0.  1.
          2   -1    0    0  502    0  0.00000000000E+00 -0.00000000000E+00 -0.34896557203E+04  0.34896557203E+04  0.00000000000E+00 0. -1.
          6    1    1    2  502    0 -0.33622148991E+02  0.95263819383E+01 -0.13764043768E+04  0.13876740285E+04  0.17300000000E+03 0.  1.
         -6    1    1    2    0  501  0.33622148991E+02 -0.95263819383E+01 -0.21039215617E+04  0.21113114736E+04  0.17300000000E+03 0. -1.
</event>
<event>
 4    1  0.5880538E-001  0.1000000E+03  0.7546771E-02  0.1280296E+00
         -1   -1    0    0    0  501 -0.00000000000E+00  0.00000000000E+00  0.88758628792E+02  0.88758628792E+02  0.00000000000E+00 0.  1.
          1   -1    0    0  502    0  0.00000000000E+00 -0.00000000000E+00 -0.46740693708E+03  0.46740693708E+03  0.00000000000E+00 0. -1.
          6    1    1    2  502    0  0.11545298367E+02 -0.80910861143E+02 -0.93973969444E+02  0.21316652715E+03  0.17300000000E+03 0.  1.
         -6    1    1    2    0  501 -0.11545298367E+02  0.80910861143E+02 -0.28467433884E+03  0.34299903872E+03  0.17300000000E+03 0. -1.
</event>
<event>
 4    1  0.5880538E-001  0.1000000E+03  0.7546771E-02  0.1280296E+00
         -2   -1    0    0    0  501 -0.00000000000E+00  0.00000000000E+00  0.65637816128E+02  0.65637816128E+02  0.00000000000E+00 0.  1.
          2   -1    0    0  502    0  0.00000000000E+00 -0.00000000000E+00 -0.93618130261E+03  0.93618130261E+03  0.00000000000E+00 0. -1.
          6    1    1    2  502    0 -0.14886049672E+03 -0.93718469231E+02 -0.38672031398E+03  0.45872017636E+03  0.17300000000E+03 0.  1.
         -6    1    1    2    0  501  0.14886049672E+03  0.93718469231E+02 -0.48382317250E+03  0.54309894238E+03  0.17300000000E+03 0. -1.
</event>
<event>
 4    1  0.5880538E-001  0.1000000E+03  0.7546771E-02  0.1280296E+00
         -4   -1    0    0    0  501 -0.00000000000E+00  0.00000000000E+00  0.15414447313E+04  0.15414447313E+04  0.00000000000E+00 0. -1.
          4   -1    0    0  502    0  0.00000000000E+00 -0.00000000000E+00 -0.35397157527E+02  0.35397157527E+02  0.00000000000E+00 0.  1.
          6    1    1    2  502    0 -0.15839467295E+02  0.15282121795E+03  0.64477516219E+03  0.68503227891E+03  0.17300000000E+03 0.  1.
         -6    1    1    2    0  501  0.15839467295E+02 -0.15282121795E+03  0.86127241161E+03  0.89180960994E+03  0.17300000000E+03 0. -1.
</event>
<event>
 4    1  0.5880538E-001  0.1000000E+03  0.7546771E-02  0.1280296E+00
         -1   -1    0    0    0  501 -0.00000000000E+00  0.00000000000E+00  0.71613823645E+02  0.71613823645E+02  0.00000000000E+00 0. -1.
          1   -1    0    0  502    0  0.00000000000E+00 -0.00000000000E+00 -0.11937798233E+04  0.11937798233E+04  0.00000000000E+00 0.  1.
          6    1    1    2  502    0 -0.17067216930E+03 -0.40009629202E+02 -0.22009094475E+03  0.33030105020E+03  0.17300000000E+03 0.  1.
         -6    1    1    2    0  501  0.17067216930E+03  0.40009629202E+02 -0.90207505489E+03  0.93509259672E+03  0.17300000000E+03 0. -1.
</event>
<event>
 4    1  0.5880538E-001  0.1000000E+03  0.7546771E-02  0.1280296E+00
         -2   -1    0    0    0  501 -0.00000000000E+00  0.00000000000E+00  0.42073599122E+03  0.42073599122E+03  0.00000000000E+00 0. -1.
          2   -1    0    0  502    0  0.00000000000E+00 -0.00000000000E+00 -0.11103301039E+03  0.11103301039E+03  0.00000000000E+00 0.  1.
          6    1    1    2  502    0 -0.18603968518E+02 -0.12070404776E+03  0.10164065734E+03  0.23489444015E+03  0.17300000000E+03 0.  1.
         -6    1    1    2    0  501  0.18603968518E+02  0.12070404776E+03  0.20806232349E+03  0.29687456146E+03  0.17300000000E+03 0. -1.
</event>
<event>
 4    1  0.5880538E-001  0.1000000E+03  0.7546771E-02  0.1280296E+00
         -2   -1    0    0    0  501 -0.00000000000E+00  0.00000000000E+00  0.11962544818E+02  0.11962544818E+02  0.00000000000E+00 0. -1.
          2   -1    0    0  502    0  0.00000000000E+00 -0.00000000000E+00 -0.30080233303E+04  0.30080233303E+04  0.00000000000E+00 0.  1.
          6    1    1    2  502    0  0.53386911802E+02 -0.30254461967E+02 -0.11171779724E+04  0.11321577262E+04  0.17300000000E+03 0.  1.
         -6    1    1    2    0  501 -0.53386911802E+02  0.30254461967E+02 -0.18788828131E+04  0.18878281490E+04  0.17300000000E+03 0. -1.
</event>
<event>
 4    1  0.5880538E-001  0.1000000E+03  0.7546771E-02  0.1280296E+00
         -1   -1    0    0    0  501 -0.00000000000E+00  0.00000000000E+00  0.22047470748E+03  0.22047470748E+03  0.00000000000E+00 0. -1.
          1   -1    0    0  502    0  0.00000000000E+00 -0.00000000000E+00 -0.47549343061E+03  0.47549343061E+03  0.00000000000E+00 0.  1.
          6    1    1    2  502    0 -0.91378689836E+02 -0.10203953607E+02 -0.40455975203E+03  0.44950170032E+03  0.17300000000E+03 0.  1.
         -6    1    1    2    0  501  0.91378689836E+02  0.10203953607E+02  0.14954102890E+03  0.24646643777E+03  0.17300000000E+03 0.  1.
</event>
<event>
 4    1  0.5880538E-001  0.1000000E+03  0.7546771E-02  0.1280296E+00
         -2   -1    0    0    0  501 -0.00000000000E+00  0.00000000000E+00  0.18181959105E+03  0.18181959105E+03  0.00000000000E+00 0. -1.
          2   -1    0    0  502    0  0.00000000000E+00 -0.00000000000E+00 -0.63587359027E+03  0.63587359027E+03  0.00000000000E+00 0.  1.
          6    1    1    2  502    0 -0.71052764474E+02 -0.24915041149E+03 -0.39084198105E+03  0.49981084126E+03  0.17300000000E+03 0.  1.
         -6    1    1    2    0  501  0.71052764474E+02  0.24915041149E+03 -0.63212018171E+02  0.31788234006E+03  0.17300000000E+03 0.  1.
</event>
<event>
 4    1  0.5880538E-001  0.1000000E+03  0.7546771E-02  0.1280296E+00
         -2   -1    0    0    0  501 -0.00000000000E+00  0.00000000000E+00  0.28620993171E+02  0.28620993171E+02  0.00000000000E+00 0. -1.
          2   -1    0    0  502    0  0.00000000000E+00 -0.00000000000E+00 -0.12737810464E+04  0.12737810464E+04  0.00000000000E+00 0.  1.
          6    1    1    2  502    0 -0.69057454234E+02 -0.18786946806E+02 -0.49469562663E+03  0.52893727828E+03  0.17300000000E+03 0.  1.
         -6    1    1    2    0  501  0.69057454234E+02  0.18786946806E+02 -0.75046442659E+03  0.77346476127E+03  0.17300000000E+03 0. -1.
</event>
<event>
 4    1  0.5880538E-001  0.1000000E+03  0.7546771E-02  0.1280296E+00
          3   -1    0    0  502    0  0.00000000000E+00  0.00000000000E+00  0.17982620242E+03  0.17982620242E+03  0.00000000000E+00 0.  1.
         -3   -1    0    0    0  501 -0.00000000000E+00 -0.00000000000E+00 -0.19920358283E+03  0.19920358283E+03  0.00000000000E+00 0. -1.
          6    1    1    2  502    0 -0.57157440010E+02  0.50198674795E+02 -0.20004796850E+02  0.19004228950E+03  0.17300000000E+03 0.  1.
         -6    1    1    2    0  501  0.57157440010E+02 -0.50198674795E+02  0.62741643993E+00  0.18898749575E+03  0.17300000000E+03 0. -1.
</event>
<event>
 4    1  0.5880538E-001  0.1000000E+03  0.7546771E-02  0.1280296E+00
          2   -1    0    0  502    0  0.00000000000E+00  0.00000000000E+00  0.29375387250E+03  0.29375387250E+03  0.00000000000E+00 0.  1.
         -2   -1    0    0    0  501 -0.00000000000E+00 -0.00000000000E+00 -0.18231502563E+03  0.18231502563E+03  0.00000000000E+00 0. -1.
          6    1    1    2  502    0 -0.10386121504E+02 -0.34593479217E+02 -0.97956182489E+02  0.20206185690E+03  0.17300000000E+03 0.  1.
         -6    1    1    2    0  501  0.10386121504E+02  0.34593479217E+02  0.20939502936E+03  0.27400704123E+03  0.17300000000E+03 0. -1.
</event>
<event>
 4    1  0.5880538E-001  0.1000000E+03  0.7546771E-02  0.1280296E+00
          2   -1    0    0  502    0  0.00000000000E+00  0.00000000000E+00  0.71793184359E+03  0.71793184359E+03  0.00000000000E+00 0.  1.
         -2   -1    0    0    0  501 -0.00000000000E+00 -0.00000000000E+00 -0.47030382922E+02  0.47030382922E+02  0.00000000000E+00 0. -1.
          6    1    1    2  502    0  0.19048929875E+02 -0.38242827136E+02  0.42877668295E+03  0.46433158346E+03  0.17300000000E+03 0.  1.
         -6    1    1    2    0  501 -0.19048929875E+02  0.38242827136E+02  0.24212477771E+03  0.30063064305E+03  0.17300000000E+03 0. -1.
</event>
<event>
 4    1  0.5880538E-001  0.1000000E+03  0.7546771E-02  0.1280296E+00
         -1   -1    0    0    0  501 -0.00000000000E+00  0.00000000000E+00  0.21379541161E+03  0.21379541161E+03  0.00000000000E+00 0. -1.
          1   -1    0    0  502    0  0.00000000000E+00 -0.00000000000E+00 -0.30099531823E+03  0.30099531823E+03  0.00000000000E+00 0.  1.
          6    1    1    2  502    0 -0.32562667901E+02 -0.42352787385E+01  0.14168131153E+03  0.22601074966E+03  0.17300000000E+03 0.  1.
         -6    1    1    2    0  501  0.32562667901E+02  0.42352787385E+01 -0.22888121816E+03  0.28877998018E+03  0.17300000000E+03 0. -1.
</event>
<event>
 4    1  0.5880538E-001  0.1000000E+03  0.7546771E-02  0.1280296E+00
          3   -1    0    0  502    0  0.00000000000E+00  0.00000000000E+00  0.50667200007E+03  0.50667200007E+03  0.00000000000E+00 0.  1.
         -3   -1    0    0    0  501 -0.00000000000E+00 -0.00000000000E+00 -0.10142086395E+03  0.10142086395E+03  0.00000000000E+00 0. -1.
          6    1    1    2  502    0 -0.64607570137E+01  0.31170379264E+02  0.39440587364E+03  0.43185452074E+03  0.17300000000E+03 0. -1.
         -6    1    1    2    0  501  0.64607570137E+01 -0.31170379264E+02  0.10845262486E+02  0.17623834328E+03  0.17300000000E+03 0. -1.
</event>
<event>
 4    1  0.5880538E-001  0.1000000E+03  0.7546771E-02  0.1280296E+00
          1   -1    0    0  502    0  0.00000000000E+00  0.00000000000E+00  0.16358232321E+04  0.16358232321E+04  0.00000000000E+00 0.  1.
         -1   -1    0    0    0  501 -0.00000000000E+00 -0.00000000000E+00 -0.19350858729E+02  0.19350858729E+02  0.00000000000E+00 0. -1.
          6    1    1    2  502    0 -0.38470384689E+02 -0.12504312277E+02  0.76429073270E+03  0.78466913563E+03  0.17300000000E+03 0. -1.
         -6    1    1    2    0  501  0.38470384689E+02  0.12504312277E+02  0.85218164063E+03  0.87050495515E+03  0.17300000000E+03 0. -1.
</event>
<event>
 4    1  0.5880538E-001  0.1000000E+03  0.7546771E-02  0.1280296E+00
          1   -1    0    0  502    0  0.00000000000E+00  0.00000000000E+00  0.15283311436E+04  0.15283311436E+04  0.00000000000E+00 0.  1.
         -1   -1    0    0    0  501 -0.00000000000E+00 -0.00000000000E+00 -0.82479835947E+02  0.82479835947E+02  0.00000000000E+00 0. -1.
          6    1    1    2  502    0  0.30511031087E+03 -0.19984574596E+02  0.83938908605E+03  0.90994215354E+03  0.17300000000E+03 0. -1.
         -6    1    1    2    0  501 -0.30511031087E+03  0.19984574596E+02  0.60646222156E+03  0.70086882596E+03  0.17300000000E+03 0. -1.
</event>
<event>
 4    1  0.5880538E-001  0.1000000E+03  0.7546771E-02  0.1280296E+00
         -2   -1    0    0    0  501 -0.00000000000E+00  0.00000000000E+00  0.79238322979E+02  0.79238322979E+02  0.00000000000E+00 0. -1.
          2   -1    0    0  502    0  0.00000000000E+00 -0.00000000000E+00 -0.39799470986E+03  0.39799470986E+03  0.00000000000E+00 0.  1.
          6    1    1    2  502    0 -0.12729503954E+02 -0.23340190600E+02 -0.11905387091E+03  0.21168284991E+03  0.17300000000E+03 0.  1.
         -6    1    1    2    0  501  0.12729503954E+02  0.23340190600E+02 -0.19970251597E+03  0.26555018293E+03  0.17300000000E+03 0. -1.
</event>
<event>
 4    1  0.5880538E-001  0.1000000E+03  0.7546771E-02  0.1280296E+00
         -2   -1    0    0    0  501 -0.00000000000E+00  0.00000000000E+00  0.11524339105E+03  0.11524339105E+03  0.00000000000E+00 0. -1.
          2   -1    0    0  502    0  0.00000000000E+00 -0.00000000000E+00 -0.77260285236E+03  0.77260285236E+03  0.00000000000E+00 0.  1.
          6    1    1    2  502    0 -0.22388768097E+03 -0.89362376888E+02 -0.37565603846E+03  0.47870427962E+03  0.17300000000E+03 0.  1.
         -6    1    1    2    0  501  0.22388768097E+03  0.89362376888E+02 -0.28170342285E+03  0.40914196379E+03  0.17300000000E+03 0. -1.
</event>
<event>
 4    1  0.5880538E-001  0.1000000E+03  0.7546771E-02  0.1280296E+00
         -2   -1    0    0    0  501 -0.00000000000E+00  0.00000000000E+00  0.47861616671E+02  0.47861616671E+02  0.00000000000E+00 0. -1.
          2   -1    0    0  502    0  0.00000000000E+00 -0.00000000000E+00 -0.92767374096E+03  0.92767374096E+03  0.00000000000E+00 0.  1.
          6    1    1    2  502    0 -0.31237612536E+02 -0.66059399772E+02 -0.21870420042E+03  0.28827098365E+03  0.17300000000E+03 0.  1.
         -6    1    1    2    0  501  0.31237612536E+02  0.66059399772E+02 -0.66110792388E+03  0.68726437398E+03  0.17300000000E+03 0. -1.
</event>
<event>
 4    1  0.5880538E-001  0.1000000E+03  0.7546771E-02  0.1280296E+00
          2   -1    0    0  502    0  0.00000000000E+00  0.00000000000E+00  0.30524676552E+03  0.30524676552E+03  0.00000000000E+00 0.  1.
         -2   -1    0    0    0  501 -0.00000000000E+00 -0.00000000000E+00 -0.46524921588E+03  0.46524921588E+03  0.00000000000E+00 0. -1.
          6    1    1    2  502    0  0.13953188697E+03  0.18338672683E+03 -0.32828600648E+03  0.43680721275E+03  0.17300000000E+03 0.  1.
         -6    1    1    2    0  501 -0.13953188697E+03 -0.18338672683E+03  0.16828355612E+03  0.33368876865E+03  0.17300000000E+03 0. -1.
</event>
<event>
 4    1  0.5880538E-001  0.1000000E+03  0.7546771E-02  0.1280296E+00
          4   -1    0    0  502    0  0.00000000000E+00  0.00000000000E+00  0.37302053733E+03  0.37302053733E+03  0.00000000000E+00 0.  1.
         -4   -1    0    0    0  501 -0.00000000000E+00 -0.00000000000E+00 -0.52302785142E+03  0.52302785142E+03  0.00000000000E+00 0. -1.
          6    1    1    2  502    0 -0.32318942115E+03  0.16228871013E+03 -0.26308204997E+03  0.47951036735E+03  0.17300000000E+03 0. -1.
         -6    1    1    2    0  501  0.32318942115E+03 -0.16228871013E+03  0.11307473588E+03  0.41653802140E+03  0.17300000000E+03 0.  1.
</event>
<event>
 4    1  0.5880538E-001  0.1000000E+03  0.7546771E-02  0.1280296E+00
          2   -1    0    0  502    0  0.00000000000E+00  0.00000000000E+00  0.19399745187E+03  0.19399745187E+03  0.00000000000E+00 0.  1.
         -2   -1    0    0    0  501 -0.00000000000E+00 -0.00000000000E+00 -0.19644152037E+03  0.19644152037E+03  0.00000000000E+00 0. -1.
          6    1    1    2  502    0  0.19964887310E+02  0.87448394365E+02 -0.12812601815E+02  0.19529204072E+03  0.17300000000E+03 0. -1.
         -6    1    1    2    0  501 -0.19964887310E+02 -0.87448394365E+02  0.10368533317E+02  0.19514693153E+03  0.17300000000E+03 0.  1.
</event>
<event>
 4    1  0.5880538E-001  0.1000000E+03  0.7546771E-02  0.1280296E+00
          1   -1    0    0  502    0  0.00000000000E+00  0.00000000000E+00  0.57904274390E+02  0.57904274390E+02  0.00000000000E+00 0.  1.
         -1   -1    0    0    0  501 -0.00000000000E+00 -0.00000000000E+00 -0.15523230275E+04  0.15523230275E+04  0.00000000000E+00 0. -1.
          6    1    1    2  502    0  0.18185624906E+03 -0.75444885162E+01 -0.11870640570E+04  0.12133337093E+04  0.17300000000E+03 0. -1.
         -6    1    1    2    0  501 -0.18185624906E+03  0.75444885162E+01 -0.30735469604E+03  0.39689359255E+03  0.17300000000E+03 0.  1.
</event>
<event>
 4    1  0.5880538E-001  0.1000000E+03  0.7546771E-02  0.1280296E+00
          1   -1    0    0  502    0  0.00000000000E+00  0.00000000000E+00  0.19592654988E+03  0.19592654988E+03  0.00000000000E+00 0.  1.
         -1   -1    0    0    0  501 -0.00000000000E+00 -0.00000000000E+00 -0.27104361232E+03  0.27104361232E+03  0.00000000000E+00 0. -1.
          6    1    1    2  502    0  0.12962691685E+02  0.15161525669E+03 -0.32979789141E+02  0.23274854227E+03  0.17300000000E+03 0. -1.
         -6    1    1    2    0  501 -0.12962691685E+02 -0.15161525669E+03 -0.42137273303E+02  0.23422161992E+03  0.17300000000E+03 0.  1.
</event>
<event>
 4    1  0.5880538E-001  0.1000000E+03  0.7546771E-02  0.1280296E+00
          3   -1    0    0  502    0  0.00000000000E+00  0.00000000000E+00  0.52782546318E+03  0.52782546318E+03  0.00000000000E+00 0. -1.
         -3   -1    0    0    0  501 -0.00000000000E+00 -0.00000000000E+00 -0.10143042618E+03  0.10143042618E+03  0.00000000000E+00 0.  1.
          6    1    1    2  502    0  0.10433658308E+02 -0.12628285709E+03  0.95027098491E+02  0.23455355608E+03  0.17300000000E+03 0.  1.
         -6    1    1    2    0  501 -0.10433658308E+02  0.12628285709E+03  0.33136793852E+03  0.39470233328E+03  0.17300000000E+03 0. -1.
</event>
<event>
 4    1  0.5880538E-001  0.1000000E+03  0.7546771E-02  0.1280296E+00
          1   -1    0    0  502    0  0.00000000000E+00  0.00000000000E+00  0.12196620270E+04  0.12196620270E+04  0.00000000000E+00 0. -1.
         -1   -1    0    0    0  501 -0.00000000000E+00 -0.00000000000E+00 -0.37084224316E+02  0.37084224316E+02  0.00000000000E+00 0.  1.
          6    1    1    2  502    0 -0.36749205842E+02  0.11672375109E+03  0.64465922176E+03  0.67859373000E+03  0.17300000000E+03 0.  1.
         -6    1    1    2    0  501  0.36749205842E+02 -0.11672375109E+03  0.53791858095E+03  0.57815252134E+03  0.17300000000E+03 0. -1.
</event>
<event>
 4    1  0.5880538E-001  0.1000000E+03  0.7546771E-02  0.1280296E+00
         -2   -1    0    0    0  501 -0.00000000000E+00  0.00000000000E+00  0.23304875216E+02  0.23304875216E+02  0.00000000000E+00 0. -1.
          2   -1    0    0  502    0  0.00000000000E+00 -0.00000000000E+00 -0.22255184168E+04  0.22255184168E+04  0.00000000000E+00 0.  1.
          6    1    1    2  502    0 -0.32186371891E+01  0.77913190082E+02 -0.47941123950E+03  0.51560155292E+03  0.17300000000E+03 0. -1.
         -6    1    1    2    0  501  0.32186371891E+01 -0.77913190082E+02 -0.17228023021E+04  0.17332217391E+04  0.17300000000E+03 0. -1.
</event>
<event>
 4    1  0.5880538E-001  0.1000000E+03  0.7546771E-02  0.1280296E+00
         -2   -1    0    0    0  501 -0.00000000000E+00  0.00000000000E+00  0.19260424894E+02  0.19260424894E+02  0.00000000000E+00 0. -1.
          2   -1    0    0  502    0  0.00000000000E+00 -0.00000000000E+00 -0.27605610371E+04  0.27605610371E+04  0.00000000000E+00 0.  1.
          6    1    1    2  502    0  0.53643708881E+01  0.12949049456E+03 -0.88677491847E+03  0.91274055497E+03  0.17300000000E+03 0.  1.
         -6    1    1    2    0  501 -0.53643708881E+01 -0.12949049456E+03 -0.18545256937E+04  0.18670809070E+04  0.17300000000E+03 0. -1.
</event>
<event>
 4    1  0.5880538E-001  0.1000000E+03  0.7546771E-02  0.1280296E+00
         -3   -1    0    0    0  501 -0.00000000000E+00  0.00000000000E+00  0.10398732722E+03  0.10398732722E+03  0.00000000000E+00 0. -1.
          3   -1    0    0  502    0  0.00000000000E+00 -0.00000000000E+00 -0.75311042390E+03  0.75311042390E+03  0.00000000000E+00 0.  1.
          6    1    1    2  502    0  0.89689412374E+02 -0.13473199437E+03 -0.96453670701E+02  0.25579134386E+03  0.17300000000E+03 0.  1.
         -6    1    1    2    0  501 -0.89689412374E+02  0.13473199437E+03 -0.55266942599E+03  0.60130640727E+03  0.17300000000E+03 0. -1.
</event>
<event>
 4    1  0.5880538E-001  0.1000000E+03  0.7546771E-02  0.1280296E+00
         -2   -1    0    0    0  501 -0.00000000000E+00  0.00000000000E+00  0.12193954157E+03  0.12193954157E+03  0.00000000000E+00 0. -1.
          2   -1    0    0  502    0  0.00000000000E+00 -0.00000000000E+00 -0.30016289607E+03  0.30016289607E+03  0.00000000000E+00 0.  1.
          6    1    1    2  502    0 -0.23518557975E+02 -0.22927700909E+02 -0.17161954413E+03  0.24588832824E+03  0.17300000000E+03 0.  1.
         -6    1    1    2    0  501  0.23518557975E+02  0.22927700909E+02 -0.66038103696E+01  0.17621410939E+03  0.17300000000E+03 0. -1.
</event>
<event>
 4    1  0.5880538E-001  0.1000000E+03  0.7546771E-02  0.1280296E+00
         -2   -1    0    0    0  501 -0.00000000000E+00  0.00000000000E+00  0.70579617293E+02  0.70579617293E+02  0.00000000000E+00 0. -1.
          2   -1    0    0  502    0  0.00000000000E+00 -0.00000000000E+00 -0.98655605277E+03  0.98655605277E+03  0.00000000000E+00 0.  1.
          6    1    1    2  502    0 -0.86815532726E+02 -0.65537420932E+02 -0.79238802756E+03  0.81831526717E+03  0.17300000000E+03 0.  1.
         -6    1    1    2    0  501  0.86815532726E+02  0.65537420932E+02 -0.12358840791E+03  0.23882040289E+03  0.17300000000E+03 0. -1.
</event>
<event>
 4    1  0.5880538E-001  0.1000000E+03  0.7546771E-02  0.1280296E+00
         -2   -1    0    0    0  501 -0.00000000000E+00  0.00000000000E+00  0.63215079695E+03  0.63215079695E+03  0.00000000000E+00 0. -1.
          2   -1    0    0  502    0  0.00000000000E+00 -0.00000000000E+00 -0.22251249312E+04  0.22251249312E+04  0.00000000000E+00 0.  1.
          6    1    1    2  502    0 -0.71832379869E+03  0.43413138975E+03  0.19113862515E+03  0.87802170666E+03  0.17300000000E+03 0.  1.
         -6    1    1    2    0  501  0.71832379869E+03 -0.43413138975E+03 -0.17841127594E+04  0.19792540215E+04  0.17300000000E+03 0. -1.
</event>
<event>
 4    1  0.5880538E-001  0.1000000E+03  0.7546771E-02  0.1280296E+00
          2   -1    0    0  502    0  0.00000000000E+00  0.00000000000E+00  0.94542930196E+03  0.94542930196E+03  0.00000000000E+00 0.  1.
         -2   -1    0    0    0  501 -0.00000000000E+00 -0.00000000000E+00 -0.70323215341E+02  0.70323215341E+02  0.00000000000E+00 0. -1.
          6    1    1    2  502    0 -0.14646290276E+02 -0.17435253660E+03  0.28570537584E+03  0.37705421709E+03  0.17300000000E+03 0.  1.
         -6    1    1    2    0  501  0.14646290276E+02  0.17435253660E+03  0.58940071078E+03  0.63869830022E+03  0.17300000000E+03 0. -1.
</event>
<event>
 4    1  0.5880538E-001  0.1000000E+03  0.7546771E-02  0.1280296E+00
          1   -1    0    0  502    0  0.00000000000E+00  0.00000000000E+00  0.23319441063E+03  0.23319441063E+03  0.00000000000E+00 0.  1.
         -1   -1    0    0    0  501 -0.00000000000E+00 -0.00000000000E+00 -0.58607020609E+03  0.58607020609E+03  0.00000000000E+00 0. -1.
          6    1    1    2  502    0 -0.30930948249E+03  0.95226588729E+02 -0.12689869451E+03  0.38829465336E+03  0.17300000000E+03 0.  1.
         -6    1    1    2    0  501  0.30930948249E+03 -0.95226588729E+02 -0.22597710096E+03  0.43096996336E+03  0.17300000000E+03 0. -1.
</event>
<event>
 4    1  0.5880538E-001  0.1000000E+03  0.7546771E-02  0.1280296E+00
          1   -1    0    0  502    0  0.00000000000E+00  0.00000000000E+00  0.18032850982E+03  0.18032850982E+03  0.00000000000E+00 0.  1.
         -1   -1    0    0    0  501 -0.00000000000E+00 -0.00000000000E+00 -0.28637150508E+03  0.28637150508E+03  0.00000000000E+00 0. -1.
          6    1    1    2  502    0 -0.14256721376E+03  0.30238124852E+02 -0.30707874508E+02  0.22827993383E+03  0.17300000000E+03 0.  1.
         -6    1    1    2    0  501  0.14256721376E+03 -0.30238124852E+02 -0.75335120751E+02  0.23842008106E+03  0.17300000000E+03 0. -1.
</event>
<event>
 4    1  0.5880538E-001  0.1000000E+03  0.7546771E-02  0.1280296E+00
         -1   -1    0    0    0  501 -0.00000000000E+00  0.00000000000E+00  0.15045119500E+03  0.15045119500E+03  0.00000000000E+00 0.  1.
          1   -1    0    0  502    0  0.00000000000E+00 -0.00000000000E+00 -0.25424451846E+03  0.25424451846E+03  0.00000000000E+00 0. -1.
          6    1    1    2  502    0  0.62121159388E+02 -0.65945722638E+02 -0.40825176508E+02  0.19950832518E+03  0.17300000000E+03 0.  1.
         -6    1    1    2    0  501 -0.62121159388E+02  0.65945722638E+02 -0.62968146949E+02  0.20518738828E+03  0.17300000000E+03 0. -1.
</event>
<event>
 4    1  0.5880538E-001  0.1000000E+03  0.7546771E-02  0.1280296E+00
         -1   -1    0    0    0  501 -0.00000000000E+00  0.00000000000E+00  0.14909475454E+03  0.14909475454E+03  0.00000000000E+00 0.  1.
          1   -1    0    0  502    0  0.00000000000E+00 -0.00000000000E+00 -0.23530558932E+04  0.23530558932E+04  0.00000000000E+00 0. -1.
          6    1    1    2  502    0 -0.48827437712E+03 -0.26162429907E+03 -0.85170294607E+03  0.10306241068E+04  0.17300000000E+03 0.  1.
         -6    1    1    2    0  501  0.48827437712E+03  0.26162429907E+03 -0.13522581926E+04  0.14715265409E+04  0.17300000000E+03 0. -1.
</event>
<event>
 4    1  0.5880538E-001  0.1000000E+03  0.7546771E-02  0.1280296E+00
         -1   -1    0    0    0  501 -0.00000000000E+00  0.00000000000E+00  0.10944422108E+03  0.10944422108E+03  0.00000000000E+00 0.  1.
          1   -1    0    0  502    0  0.00000000000E+00 -0.00000000000E+00 -0.85986770580E+03  0.85986770580E+03  0.00000000000E+00 0. -1.
          6    1    1    2  502    0 -0.99538225815E+02 -0.17369053342E+03 -0.12993831963E+03  0.29476978595E+03  0.17300000000E+03 0.  1.
         -6    1    1    2    0  501  0.99538225815E+02  0.17369053342E+03 -0.62048516509E+03  0.67454214093E+03  0.17300000000E+03 0. -1.
</event>
<event>
 4    1  0.5880538E-001  0.1000000E+03  0.7546771E-02  0.1280296E+00
         -2   -1    0    0    0  501 -0.00000000000E+00  0.00000000000E+00  0.25217762808E+02  0.25217762808E+02  0.00000000000E+00 0.  1.
          2   -1    0    0  502    0  0.00000000000E+00 -0.00000000000E+00 -0.27403631118E+04  0.27403631118E+04  0.00000000000E+00 0. -1.
          6    1    1    2  502    0  0.32275498811E+02 -0.13761472283E+02 -0.33291085862E+03  0.37681524084E+03  0.17300000000E+03 0.  1.
         -6    1    1    2    0  501 -0.32275498811E+02  0.13761472283E+02 -0.23822344904E+04  0.23887656337E+04  0.17300000000E+03 0. -1.
</event>
<event>
 4    1  0.5880538E-001  0.1000000E+03  0.7546771E-02  0.1280296E+00
         -2   -1    0    0    0  501 -0.00000000000E+00  0.00000000000E+00  0.28119081207E+02  0.28119081207E+02  0.00000000000E+00 0.  1.
          2   -1    0    0  502    0  0.00000000000E+00 -0.00000000000E+00 -0.17082471636E+04  0.17082471636E+04  0.00000000000E+00 0. -1.
          6    1    1    2  502    0  0.73024529536E+02 -0.10585994120E+03 -0.68328386556E+03  0.71648080923E+03  0.17300000000E+03 0. -1.
         -6    1    1    2    0  501 -0.73024529536E+02  0.10585994120E+03 -0.99684421687E+03  0.10198854356E+04  0.17300000000E+03 0. -1.
</event>
<event>
 4    1  0.5880538E-001  0.1000000E+03  0.7546771E-02  0.1280296E+00
         -1   -1    0    0    0  501 -0.00000000000E+00  0.00000000000E+00  0.82421116425E+02  0.82421116425E+02  0.00000000000E+00 0.  1.
          1   -1    0    0  502    0  0.00000000000E+00 -0.00000000000E+00 -0.80618377166E+03  0.80618377166E+03  0.00000000000E+00 0. -1.
          6    1    1    2  502    0  0.28552693410E+02 -0.13416695177E+03 -0.59120450274E+03  0.63108461502E+03  0.17300000000E+03 0. -1.
         -6    1    1    2    0  501 -0.28552693410E+02  0.13416695177E+03 -0.13255815249E+03  0.25752027307E+03  0.17300000000E+03 0.  1.
</event>
<event>
 4    1  0.5880538E-001  0.1000000E+03  0.7546771E-02  0.1280296E+00
         -1   -1    0    0    0  501 -0.00000000000E+00  0.00000000000E+00  0.46665860348E+02  0.46665860348E+02  0.00000000000E+00 0.  1.
          1   -1    0    0  502    0  0.00000000000E+00 -0.00000000000E+00 -0.13995616683E+04  0.13995616683E+04  0.00000000000E+00 0. -1.
          6    1    1    2  502    0 -0.11471335857E+03 -0.69986838380E+02 -0.30401068833E+03  0.37471163686E+03  0.17300000000E+03 0.  1.
         -6    1    1    2    0  501  0.11471335857E+03  0.69986838380E+02 -0.10488851196E+04  0.10715158918E+04  0.17300000000E+03 0. -1.
</event>
<event>
 4    1  0.5880538E-001  0.1000000E+03  0.7546771E-02  0.1280296E+00
         -1   -1    0    0    0  501 -0.00000000000E+00  0.00000000000E+00  0.32271170732E+03  0.32271170732E+03  0.00000000000E+00 0.  1.
          1   -1    0    0  502    0  0.00000000000E+00 -0.00000000000E+00 -0.11142469247E+03  0.11142469247E+03  0.00000000000E+00 0. -1.
          6    1    1    2  502    0 -0.30868545563E+02 -0.65991853194E+02  0.74900642837E+02  0.20210615550E+03  0.17300000000E+03 0.  1.
         -6    1    1    2    0  501  0.30868545563E+02  0.65991853194E+02  0.13638637201E+03  0.23203024429E+03  0.17300000000E+03 0.  1.
</event>
<event>
 4    1  0.5880538E-001  0.1000000E+03  0.7546771E-02  0.1280296E+00
         -2   -1    0    0    0  501 -0.00000000000E+00  0.00000000000E+00  0.21959720757E+03  0.21959720757E+03  0.00000000000E+00 0.  1.
          2   -1    0    0  502    0  0.00000000000E+00 -0.00000000000E+00 -0.53097526752E+03  0.53097526752E+03  0.00000000000E+00 0. -1.
          6    1    1    2  502    0  0.27051949227E+03  0.70370495292E+02 -0.54131381717E+02  0.33315463195E+03  0.17300000000E+03 0.  1.
         -6    1    1    2    0  501 -0.27051949227E+03 -0.70370495292E+02 -0.25724667823E+03  0.41741784313E+03  0.17300000000E+03 0.  1.
</event>
<event>
 4    1  0.5880538E-001  0.1000000E+03  0.7546771E-02  0.1280296E+00
         -2   -1    0    0    0  501 -0.00000000000E+00  0.00000000000E+00  0.21508210506E+03  0.21508210506E+03  0.00000000000E+00 0.  1.
          2   -1    0    0  502    0  0.00000000000E+00 -0.00000000000E+00 -0.21576099296E+03  0.21576099296E+03  0.00000000000E+00 0. -1.
          6    1    1    2  502    0 -0.77164743776E+01 -0.21778326291E+01 -0.12845299661E+03  0.21562342004E+03  0.17300000000E+03 0.  1.
         -6    1    1    2    0  501  0.77164743776E+01  0.21778326291E+01  0.12777410871E+03  0.21521967798E+03  0.17300000000E+03 0. -1.
</event>
<event>
 4    1  0.5880538E-001  0.1000000E+03  0.7546771E-02  0.1280296E+00
         -1   -1    0    0    0  501 -0.00000000000E+00  0.00000000000E+00  0.80524195357E+02  0.80524195357E+02  0.00000000000E+00 0.  1.
          1   -1    0    0  502    0  0.00000000000E+00 -0.00000000000E+00 -0.85473882348E+03  0.85473882348E+03  0.00000000000E+00 0. -1.
          6    1    1    2  502    0 -0.17362915811E+03  0.18063893359E+01 -0.55382185690E+03  0.60563850337E+03  0.17300000000E+03 0.  1.
         -6    1    1    2    0  501  0.17362915811E+03 -0.18063893359E+01 -0.22039277123E+03  0.32962451547E+03  0.17300000000E+03 0. -1.
</event>
<event>
 4    1  0.5880538E-001  0.1000000E+03  0.7546771E-02  0.1280296E+00
         -2   -1    0    0    0  501 -0.00000000000E+00  0.00000000000E+00  0.62614823035E+02  0.62614823035E+02  0.00000000000E+00 0.  1.
          2   -1    0    0  502    0  0.00000000000E+00 -0.00000000000E+00 -0.87046807442E+03  0.87046807442E+03  0.00000000000E+00 0. -1.
          6    1    1    2  502    0  0.47189358224E+02  0.74260238538E+02 -0.14464834954E+03  0.24206107407E+03  0.17300000000E+03 0.  1.
         -6    1    1    2    0  501 -0.47189358224E+02 -0.74260238538E+02 -0.66320490184E+03  0.69102182338E+03  0.17300000000E+03 0. -1.
</event>
<event>
 4    1  0.5880538E-001  0.1000000E+03  0.7546771E-02  0.1280296E+00
         -3   -1    0    0    0  501 -0.00000000000E+00  0.00000000000E+00  0.13105263537E+04  0.13105263537E+04  0.00000000000E+00 0. -1.
          3   -1    0    0  502    0  0.00000000000E+00 -0.00000000000E+00 -0.27970412586E+02  0.27970412586E+02  0.00000000000E+00 0.  1.
          6    1    1    2  502    0 -0.24173995549E+02  0.47762317277E+01  0.36782508709E+03  0.40722412642E+03  0.17300000000E+03 0.  1.
         -6    1    1    2    0  501  0.24173995549E+02 -0.47762317277E+01  0.91473085404E+03  0.93127263987E+03  0.17300000000E+03 0. -1.
</event>
<event>
 4    1  0.5880538E-001  0.1000000E+03  0.7546771E-02  0.1280296E+00
         -1   -1    0    0    0  501 -0.00000000000E+00  0.00000000000E+00  0.84862303813E+02  0.84862303813E+02  0.00000000000E+00 0. -1.
          1   -1    0    0  502    0  0.00000000000E+00 -0.00000000000E+00 -0.39851355402E+03  0.39851355402E+03  0.00000000000E+00 0.  1.
          6    1    1    2  502    0  0.31691597864E+01  0.41672849345E+02 -0.21766686651E+03  0.28116638263E+03  0.17300000000E+03 0.  1.
         -6    1    1    2    0  501 -0.31691597864E+01 -0.41672849345E+02 -0.95984383694E+02  0.20220947520E+03  0.17300000000E+03 0. -1.
</event>
<event>
 4    1  0.5880538E-001  0.1000000E+03  0.7546771E-02  0.1280296E+00
          2   -1    0    0  502    0  0.00000000000E+00  0.00000000000E+00  0.26375767414E+04  0.26375767414E+04  0.00000000000E+00 0.  1.
         -2   -1    0    0    0  501 -0.00000000000E+00 -0.00000000000E+00 -0.22535212702E+02  0.22535212702E+02  0.00000000000E+00 0. -1.
          6    1    1    2  502    0 -0.10900287732E+03  0.72403531312E+02  0.70037564767E+03  0.73319775399E+03  0.17300000000E+03 0. -1.
         -6    1    1    2    0  501  0.10900287732E+03 -0.72403531312E+02  0.19146658810E+04  0.19269142001E+04  0.17300000000E+03 0.  1.
</event>
<event>
 4    1  0.5880538E-001  0.1000000E+03  0.7546771E-02  0.1280296E+00
          2   -1    0    0  502    0  0.00000000000E+00  0.00000000000E+00  0.13257063474E+04  0.13257063474E+04  0.00000000000E+00 0.  1.
         -2   -1    0    0    0  501 -0.00000000000E+00 -0.00000000000E+00 -0.51937870177E+02  0.51937870177E+02  0.00000000000E+00 0. -1.
          6    1    1    2  502    0 -0.19558146338E+03  0.21767254418E+02  0.67395654692E+03  0.72309912828E+03  0.17300000000E+03 0.  1.
         -6    1    1    2    0  501  0.19558146338E+03 -0.21767254418E+02  0.59981193028E+03  0.65454508927E+03  0.17300000000E+03 0. -1.
</event>
<event>
 4    1  0.5880538E-001  0.1000000E+03  0.7546771E-02  0.1280296E+00
          2   -1    0    0  502    0  0.00000000000E+00  0.00000000000E+00  0.87174756217E+03  0.87174756217E+03  0.00000000000E+00 0.  1.
         -2   -1    0    0    0  501 -0.00000000000E+00 -0.00000000000E+00 -0.39394182658E+02  0.39394182658E+02  0.00000000000E+00 0. -1.
          6    1    1    2  502    0 -0.15834799476E+02  0.56295449016E+02  0.33871455420E+03  0.38480705254E+03  0.17300000000E+03 0.  1.
         -6    1    1    2    0  501  0.15834799476E+02 -0.56295449016E+02  0.49363882531E+03  0.52633469229E+03  0.17300000000E+03 0. -1.
</event>
<event>
 4    1  0.5880538E-001  0.1000000E+03  0.7546771E-02  0.1280296E+00
         -2   -1    0    0    0  501 -0.00000000000E+00  0.00000000000E+00  0.36694850690E+02  0.36694850690E+02  0.00000000000E+00 0. -1.
          2   -1    0    0  502    0  0.00000000000E+00 -0.00000000000E+00 -0.12524725731E+04  0.12524725731E+04  0.00000000000E+00 0.  1.
          6    1    1    2  502    0  0.11189844748E+03  0.15761650153E+02 -0.43620022891E+03  0.48266896717E+03  0.17300000000E+03 0.  1.
         -6    1    1    2    0  501 -0.11189844748E+03 -0.15761650153E+02 -0.77957749352E+03  0.80649845664E+03  0.17300000000E+03 0. -1.
</event>
<event>
 4    1  0.5880538E-001  0.1000000E+03  0.7546771E-02  0.1280296E+00
         -2   -1    0    0    0  501 -0.00000000000E+00  0.00000000000E+00  0.56701262971E+03  0.56701262971E+03  0.00000000000E+00 0. -1.
          2   -1    0    0  502    0  0.00000000000E+00 -0.00000000000E+00 -0.64123175654E+03  0.64123175654E+03  0.00000000000E+00 0.  1.
          6    1    1    2  502    0  0.11416318399E+03  0.22993912294E+03 -0.55553642402E+03  0.63596772815E+03  0.17300000000E+03 0.  1.
         -6    1    1    2    0  501 -0.11416318399E+03 -0.22993912294E+03  0.48131729719E+03  0.57227665810E+03  0.17300000000E+03 0. -1.
</event>
<event>
 4    1  0.5880538E-001  0.1000000E+03  0.7546771E-02  0.1280296E+00
          1   -1    0    0  502    0  0.00000000000E+00  0.00000000000E+00  0.15864957453E+04  0.15864957453E+04  0.00000000000E+00 0. -1.
         -1   -1    0    0    0  501 -0.00000000000E+00 -0.00000000000E+00 -0.57119118153E+02  0.57119118153E+02  0.00000000000E+00 0.  1.
          6    1    1    2  502    0 -0.44874692680E+02 -0.20615624290E+03  0.41747464089E+03  0.49872658874E+03  0.17300000000E+03 0. -1.
         -6    1    1    2    0  501  0.44874692680E+02  0.20615624290E+03  0.11119019862E+04  0.11448882747E+04  0.17300000000E+03 0.  1.
</event>
<event>
 4    1  0.5880538E-001  0.1000000E+03  0.7546771E-02  0.1280296E+00
          2   -1    0    0  502    0  0.00000000000E+00  0.00000000000E+00  0.47709750901E+03  0.47709750901E+03  0.00000000000E+00 0.  1.
         -2   -1    0    0    0  501 -0.00000000000E+00 -0.00000000000E+00 -0.78526640095E+02  0.78526640095E+02  0.00000000000E+00 0. -1.
          6    1    1    2  502    0  0.65815607516E+01  0.66892592945E+02  0.27813394694E+03  0.33437318728E+03  0.17300000000E+03 0.  1.
         -6    1    1    2    0  501 -0.65815607516E+01 -0.66892592945E+02  0.12043692198E+03  0.22125096182E+03  0.17300000000E+03 0.  1.
</event>
<event>
 4    1  0.5880538E-001  0.1000000E+03  0.7546771E-02  0.1280296E+00
          2   -1    0    0  502    0  0.00000000000E+00  0.00000000000E+00  0.10615490345E+04  0.10615490345E+04  0.00000000000E+00 0.  1.
         -2   -1    0    0    0  501 -0.00000000000E+00 -0.00000000000E+00 -0.54618476520E+02  0.54618476520E+02  0.00000000000E+00 0. -1.
          6    1    1    2  502    0 -0.10534728403E+03 -0.61306720220E+02  0.76969596808E+03  0.79825901027E+03  0.17300000000E+03 0.  1.
         -6    1    1    2    0  501  0.10534728403E+03  0.61306720220E+02  0.23723458985E+03  0.31790850070E+03  0.17300000000E+03 0.  1.
</event>
<event>
 4    1  0.5880538E-001  0.1000000E+03  0.7546771E-02  0.1280296E+00
         -2   -1    0    0    0  501 -0.00000000000E+00  0.00000000000E+00  0.62912009811E+02  0.62912009811E+02  0.00000000000E+00 0. -1.
          2   -1    0    0  502    0  0.00000000000E+00 -0.00000000000E+00 -0.89804996012E+03  0.89804996012E+03  0.00000000000E+00 0.  1.
          6    1    1    2  502    0  0.41146655429E+01  0.16584413159E+02 -0.74524777558E+03  0.76525500341E+03  0.17300000000E+03 0.  1.
         -6    1    1    2    0  501 -0.41146655429E+01 -0.16584413159E+02 -0.89890174724E+02  0.19570696652E+03  0.17300000000E+03 0. -1.
</event>
<event>
 4    1  0.5880538E-001  0.1000000E+03  0.7546771E-02  0.1280296E+00
         -2   -1    0    0    0  501 -0.00000000000E+00  0.00000000000E+00  0.31953914006E+02  0.31953914006E+02  0.00000000000E+00 0. -1.
          2   -1    0    0  502    0  0.00000000000E+00 -0.00000000000E+00 -0.11516929864E+04  0.11516929864E+04  0.00000000000E+00 0.  1.
          6    1    1    2  502    0 -0.12587871433E+01  0.16835796250E+02 -0.30948476032E+03  0.35495752626E+03  0.17300000000E+03 0.  1.
         -6    1    1    2    0  501  0.12587871433E+01 -0.16835796250E+02 -0.81025431206E+03  0.82868937413E+03  0.17300000000E+03 0. -1.
</event>
<event>
 4    1  0.5880538E-001  0.1000000E+03  0.7546771E-02  0.1280296E+00
         -2   -1    0    0    0  501 -0.00000000000E+00  0.00000000000E+00  0.67278717789E+02  0.67278717789E+02  0.00000000000E+00 0. -1.
          2   -1    0    0  502    0  0.00000000000E+00 -0.00000000000E+00 -0.13022883024E+04  0.13022883024E+04  0.00000000000E+00 0.  1.
          6    1    1    2  502    0 -0.19417487610E+03  0.50461446449E+02 -0.92299503336E+03  0.96025989800E+03  0.17300000000E+03 0.  1.
         -6    1    1    2    0  501  0.19417487610E+03 -0.50461446449E+02 -0.31201455123E+03  0.40930712218E+03  0.17300000000E+03 0. -1.
</event>
<event>
 4    1  0.5880538E-001  0.1000000E+03  0.7546771E-02  0.1280296E+00
         -2   -1    0    0    0  501 -0.00000000000E+00  0.00000000000E+00  0.14187733978E+02  0.14187733978E+02  0.00000000000E+00 0. -1.
          2   -1    0    0  502    0  0.00000000000E+00 -0.00000000000E+00 -0.27163295905E+04  0.27163295905E+04  0.00000000000E+00 0.  1.
          6    1    1    2  502    0 -0.66603227639E+02  0.22871623050E+02 -0.17712563881E+04  0.17810775652E+04  0.17300000000E+03 0.  1.
         -6    1    1    2    0  501  0.66603227639E+02 -0.22871623050E+02 -0.93088546839E+03  0.94943975919E+03  0.17300000000E+03 0. -1.
</event>
<event>
 4    1  0.5880538E-001  0.1000000E+03  0.7546771E-02  0.1280296E+00
         -1   -1    0    0    0  501 -0.00000000000E+00  0.00000000000E+00  0.46423076417E+03  0.46423076417E+03  0.00000000000E+00 0.  1.
          1   -1    0    0  502    0  0.00000000000E+00 -0.00000000000E+00 -0.10212956275E+03  0.10212956275E+03  0.00000000000E+00 0. -1.
          6    1    1    2  502    0 -0.43789411887E+02  0.81107196580E+02  0.57762105637E+02  0.20435594138E+03  0.17300000000E+03 0.  1.
         -6    1    1    2    0  501  0.43789411887E+02 -0.81107196580E+02  0.30433909579E+03  0.36200438554E+03  0.17300000000E+03 0. -1.
</event>
<event>
 4    1  0.5880538E-001  0.1000000E+03  0.7546771E-02  0.1280296E+00
         -2   -1    0    0    0  501 -0.00000000000E+00  0.00000000000E+00  0.33878752073E+02  0.33878752073E+02  0.00000000000E+00 0.  1.
          2   -1    0    0  502    0  0.00000000000E+00 -0.00000000000E+00 -0.15964575014E+04  0.15964575014E+04  0.00000000000E+00 0. -1.
          6    1    1    2  502    0  0.49574026640E+02 -0.14559927721E+03 -0.70289223842E+03  0.74002921055E+03  0.17300000000E+03 0.  1.
         -6    1    1    2    0  501 -0.49574026640E+02  0.14559927721E+03 -0.85968651093E+03  0.89030704294E+03  0.17300000000E+03 0. -1.
</event>
<event>
 4    1  0.5880538E-001  0.1000000E+03  0.7546771E-02  0.1280296E+00
         -1   -1    0    0    0  501 -0.00000000000E+00  0.00000000000E+00  0.16631653148E+02  0.16631653148E+02  0.00000000000E+00 0.  1.
          1   -1    0    0  502    0  0.00000000000E+00 -0.00000000000E+00 -0.21772357857E+04  0.21772357857E+04  0.00000000000E+00 0. -1.
          6    1    1    2  502    0 -0.69708991825E+02  0.34631112991E+02 -0.99414812144E+03  0.10120860363E+04  0.17300000000E+03 0.  1.
         -6    1    1    2    0  501  0.69708991825E+02 -0.34631112991E+02 -0.11664560112E+04  0.11817814026E+04  0.17300000000E+03 0. -1.
</event>
<event>
 4    1  0.5880538E-001  0.1000000E+03  0.7546771E-02  0.1280296E+00
          1   -1    0    0  502    0  0.00000000000E+00  0.00000000000E+00  0.42332947561E+03  0.42332947561E+03  0.00000000000E+00 0. -1.
         -1   -1    0    0    0  501 -0.00000000000E+00 -0.00000000000E+00 -0.11969112181E+03  0.11969112181E+03  0.00000000000E+00 0.  1.
          6    1    1    2  502    0 -0.36693690974E+02 -0.41448880144E+02  0.31218064083E+03  0.36117888799E+03  0.17300000000E+03 0.  1.
         -6    1    1    2    0  501  0.36693690974E+02  0.41448880144E+02 -0.85422870254E+01  0.18184170943E+03  0.17300000000E+03 0. -1.
</event>
<event>
 4    1  0.5880538E-001  0.1000000E+03  0.7546771E-02  0.1280296E+00
          2   -1    0    0  502    0  0.00000000000E+00  0.00000000000E+00  0.50341579614E+03  0.50341579614E+03  0.00000000000E+00 0. -1.
         -2   -1    0    0    0  501 -0.00000000000E+00 -0.00000000000E+00 -0.64883384740E+02  0.64883384740E+02  0.00000000000E+00 0.  1.
          6    1    1    2  502    0  0.34588991389E+02  0.37873651289E+02  0.20327040743E+03  0.27180631031E+03  0.17300000000E+03 0.  1.
         -6    1    1    2    0  501 -0.34588991389E+02 -0.37873651289E+02  0.23526200397E+03  0.29649287057E+03  0.17300000000E+03 0. -1.
</event>
<event>
 4    1  0.5880538E-001  0.1000000E+03  0.7546771E-02  0.1280296E+00
          1   -1    0    0  502    0  0.00000000000E+00  0.00000000000E+00  0.85079589039E+03  0.85079589039E+03  0.00000000000E+00 0. -1.
         -1   -1    0    0    0  501 -0.00000000000E+00 -0.00000000000E+00 -0.44396350271E+02  0.44396350271E+02  0.00000000000E+00 0.  1.
          6    1    1    2  502    0 -0.19568273175E+02 -0.80526751049E+02  0.47513985001E+03  0.51240057769E+03  0.17300000000E+03 0.  1.
         -6    1    1    2    0  501  0.19568273175E+02  0.80526751049E+02  0.33125969011E+03  0.38279166297E+03  0.17300000000E+03 0. -1.
</event>
<event>
 4    1  0.5880538E-001  0.1000000E+03  0.7546771E-02  0.1280296E+00
          2   -1    0    0  502    0  0.00000000000E+00  0.00000000000E+00  0.31454289805E+03  0.31454289805E+03  0.00000000000E+00 0. -1.
         -2   -1    0    0    0  501 -0.00000000000E+00 -0.00000000000E+00 -0.20806127341E+03  0.20806127341E+03  0.00000000000E+00 0.  1.
          6    1    1    2  502    0  0.66192335086E+02 -0.17610246102E+03  0.41972945030E+02  0.25900623567E+03  0.17300000000E+03 0. -1.
         -6    1    1    2    0  501 -0.66192335086E+02  0.17610246102E+03  0.64508679610E+02  0.26359793578E+03  0.17300000000E+03 0.  1.
</event>
<event>
 4    1  0.5880538E-001  0.1000000E+03  0.7546771E-02  0.1280296E+00
          1   -1    0    0  502    0  0.00000000000E+00  0.00000000000E+00  0.23800275334E+03  0.23800275334E+03  0.00000000000E+00 0. -1.
         -1   -1    0    0    0  501 -0.00000000000E+00 -0.00000000000E+00 -0.43006728434E+03  0.43006728434E+03  0.00000000000E+00 0.  1.
          6    1    1    2  502    0  0.23397277715E+02  0.11740418189E+03  0.15562515766E+03  0.26168562098E+03  0.17300000000E+03 0. -1.
         -6    1    1    2    0  501 -0.23397277715E+02 -0.11740418189E+03 -0.34768968867E+03  0.40638441670E+03  0.17300000000E+03 0.  1.
</event>
<event>
 4    1  0.5880538E-001  0.1000000E+03  0.7546771E-02  0.1280296E+00
          2   -1    0    0  502    0  0.00000000000E+00  0.00000000000E+00  0.23962908906E+04  0.23962908906E+04  0.00000000000E+00 0.  1.
         -2   -1    0    0    0  501 -0.00000000000E+00 -0.00000000000E+00 -0.14658832675E+02  0.14658832675E+02  0.00000000000E+00 0. -1.
          6    1    1    2  502    0  0.23054187474E+02 -0.68257227901E+02  0.11734588767E+04  0.11883287761E+04  0.17300000000E+03 0.  1.
         -6    1    1    2    0  501 -0.23054187474E+02  0.68257227901E+02  0.12081731812E+04  0.12226209472E+04  0.17300000000E+03 0. -1.
</event>
<event>
 4    1  0.5880538E-001  0.1000000E+03  0.7546771E-02  0.1280296E+00
         -2   -1    0    0    0  501 -0.00000000000E+00  0.00000000000E+00  0.42324073530E+03  0.42324073530E+03  0.00000000000E+00 0. -1.
          2   -1    0    0  502    0  0.00000000000E+00 -0.00000000000E+00 -0.34736599344E+03  0.34736599344E+03  0.00000000000E+00 0.  1.
          6    1    1    2  502    0  0.14764214427E+03  0.30410426004E+03  0.91232501441E+02  0.39055085848E+03  0.17300000000E+03 0.  1.
         -6    1    1    2    0  501 -0.14764214427E+03 -0.30410426004E+03 -0.15357759578E+02  0.38005587026E+03  0.17300000000E+03 0.  1.
</event>
<event>
 4    1  0.5880538E-001  0.1000000E+03  0.7546771E-02  0.1280296E+00
         -2   -1    0    0    0  501 -0.00000000000E+00  0.00000000000E+00  0.87407860709E+02  0.87407860709E+02  0.00000000000E+00 0. -1.
          2   -1    0    0  502    0  0.00000000000E+00 -0.00000000000E+00 -0.78040812476E+03  0.78040812476E+03  0.00000000000E+00 0.  1.
          6    1    1    2  502    0 -0.19057098329E+03  0.30662443788E+02 -0.29325078504E+03  0.39138537026E+03  0.17300000000E+03 0.  1.
         -6    1    1    2    0  501  0.19057098329E+03 -0.30662443788E+02 -0.39974947902E+03  0.47643061521E+03  0.17300000000E+03 0.  1.
</event>
<event>
 4    1  0.5880538E-001  0.1000000E+03  0.7546771E-02  0.1280296E+00
          1   -1    0    0  502    0  0.00000000000E+00  0.00000000000E+00  0.16326401008E+03  0.16326401008E+03  0.00000000000E+00 0.  1.
         -1   -1    0    0    0  501 -0.00000000000E+00 -0.00000000000E+00 -0.41026922391E+03  0.41026922391E+03  0.00000000000E+00 0. -1.
          6    1    1    2  502    0  0.17998746823E+03  0.65618007132E+02 -0.10271462717E+03  0.27781379774E+03  0.17300000000E+03 0. -1.
         -6    1    1    2    0  501 -0.17998746823E+03 -0.65618007132E+02 -0.14429058666E+03  0.29571943625E+03  0.17300000000E+03 0.  1.
</event>
<event>
 4    1  0.5880538E-001  0.1000000E+03  0.7546771E-02  0.1280296E+00
          2   -1    0    0  502    0  0.00000000000E+00  0.00000000000E+00  0.20532348436E+04  0.20532348436E+04  0.00000000000E+00 0.  1.
         -2   -1    0    0    0  501 -0.00000000000E+00 -0.00000000000E+00 -0.20691883581E+02  0.20691883581E+02  0.00000000000E+00 0. -1.
          6    1    1    2  502    0 -0.10359021314E+03 -0.42118158032E+02  0.98019446337E+03  0.10016062388E+04  0.17300000000E+03 0. -1.
         -6    1    1    2    0  501  0.10359021314E+03  0.42118158032E+02  0.10523484966E+04  0.10723204884E+04  0.17300000000E+03 0.  1.
</event>
<event>
 4    1  0.5880538E-001  0.1000000E+03  0.7546771E-02  0.1280296E+00
         -2   -1    0    0    0  501 -0.00000000000E+00  0.00000000000E+00  0.79960668827E+02  0.79960668827E+02  0.00000000000E+00 0.  1.
          2   -1    0    0  502    0  0.00000000000E+00 -0.00000000000E+00 -0.10053245932E+04  0.10053245932E+04  0.00000000000E+00 0. -1.
          6    1    1    2  502    0  0.17854900388E+03 -0.44878166233E+02 -0.21636160189E+03  0.33261860947E+03  0.17300000000E+03 0.  1.
         -6    1    1    2    0  501 -0.17854900388E+03  0.44878166233E+02 -0.70900232246E+03  0.75266665254E+03  0.17300000000E+03 0.  1.
</event>
<event>
 4    1  0.5880538E-001  0.1000000E+03  0.7546771E-02  0.1280296E+00
          1   -1    0    0  502    0  0.00000000000E+00  0.00000000000E+00  0.15720405600E+03  0.15720405600E+03  0.00000000000E+00 0. -1.
         -1   -1    0    0    0  501 -0.00000000000E+00 -0.00000000000E+00 -0.13726135315E+04  0.13726135315E+04  0.00000000000E+00 0.  1.
          6    1    1    2  502    0  0.12709734619E+02 -0.69529624259E+01 -0.13171864670E+04  0.13285778374E+04  0.17300000000E+03 0.  1.
         -6    1    1    2    0  501 -0.12709734619E+02  0.69529624259E+01  0.10177699150E+03  0.20123975015E+03  0.17300000000E+03 0. -1.
</event>
<event>
 4    1  0.5880538E-001  0.1000000E+03  0.7546771E-02  0.1280296E+00
          1   -1    0    0  502    0  0.00000000000E+00  0.00000000000E+00  0.13338906073E+03  0.13338906073E+03  0.00000000000E+00 0. -1.
         -1   -1    0    0    0  501 -0.00000000000E+00 -0.00000000000E+00 -0.67773909603E+03  0.67773909603E+03  0.00000000000E+00 0.  1.
          6    1    1    2  502    0  0.21244652981E+03  0.12366943620E+03 -0.26299441993E+03  0.39940295742E+03  0.17300000000E+03 0.  1.
         -6    1    1    2    0  501 -0.21244652981E+03 -0.12366943620E+03 -0.28135561537E+03  0.41172519934E+03  0.17300000000E+03 0. -1.
</event>
<event>
 4    1  0.5880538E-001  0.1000000E+03  0.7546771E-02  0.1280296E+00
          2   -1    0    0  502    0  0.00000000000E+00  0.00000000000E+00  0.22443571399E+04  0.22443571399E+04  0.00000000000E+00 0. -1.
         -2   -1    0    0    0  501 -0.00000000000E+00 -0.00000000000E+00 -0.78433718781E+02  0.78433718781E+02  0.00000000000E+00 0.  1.
          6    1    1    2  502    0  0.32161152066E+03  0.18031781759E+02  0.16525809140E+04  0.16925459499E+04  0.17300000000E+03 0.  1.
         -6    1    1    2    0  501 -0.32161152066E+03 -0.18031781759E+02  0.51334250714E+03  0.63024490875E+03  0.17300000000E+03 0. -1.
</event>
<event>
 4    1  0.5880538E-001  0.1000000E+03  0.7546771E-02  0.1280296E+00
          2   -1    0    0  502    0  0.00000000000E+00  0.00000000000E+00  0.56209830329E+03  0.56209830329E+03  0.00000000000E+00 0. -1.
         -2   -1    0    0    0  501 -0.00000000000E+00 -0.00000000000E+00 -0.61311689455E+02  0.61311689455E+02  0.00000000000E+00 0.  1.
          6    1    1    2  502    0  0.45456088832E+02 -0.42377690555E+02  0.29392182364E+03  0.34667154928E+03  0.17300000000E+03 0.  1.
         -6    1    1    2    0  501 -0.45456088832E+02  0.42377690555E+02  0.20686479019E+03  0.27673844346E+03  0.17300000000E+03 0. -1.
</event>
<event>
 4    1  0.5880538E-001  0.1000000E+03  0.7546771E-02  0.1280296E+00
         -1   -1    0    0    0  501 -0.00000000000E+00  0.00000000000E+00  0.11022518136E+04  0.11022518136E+04  0.00000000000E+00 0.  1.
          1   -1    0    0  502    0  0.00000000000E+00 -0.00000000000E+00 -0.36774840819E+02  0.36774840819E+02  0.00000000000E+00 0. -1.
          6    1    1    2  502    0 -0.87084073995E+02 -0.32258405205E+02  0.40680874020E+03  0.45171516662E+03  0.17300000000E+03 0. -1.
         -6    1    1    2    0  501  0.87084073995E+02  0.32258405205E+02  0.65866823255E+03  0.68731148777E+03  0.17300000000E+03 0.  1.
</event>
<event>
 4    1  0.5880538E-001  0.1000000E+03  0.7546771E-02  0.1280296E+00
          2   -1    0    0  502    0  0.00000000000E+00  0.00000000000E+00  0.57374421497E+03  0.57374421497E+03  0.00000000000E+00 0.  1.
         -2   -1    0    0    0  501 -0.00000000000E+00 -0.00000000000E+00 -0.11043218918E+03  0.11043218918E+03  0.00000000000E+00 0. -1.
          6    1    1    2  502    0 -0.28788571090E+02 -0.13113279226E+02  0.47639613442E+03  0.50782183569E+03  0.17300000000E+03 0.  1.
         -6    1    1    2    0  501  0.28788571090E+02  0.13113279226E+02 -0.13084108622E+02  0.17635456846E+03  0.17300000000E+03 0. -1.
</event>
<event>
 4    1  0.5880538E-001  0.1000000E+03  0.7546771E-02  0.1280296E+00
          2   -1    0    0  502    0  0.00000000000E+00  0.00000000000E+00  0.56542468117E+03  0.56542468117E+03  0.00000000000E+00 0.  1.
         -2   -1    0    0    0  501 -0.00000000000E+00 -0.00000000000E+00 -0.57257152874E+03  0.57257152874E+03  0.00000000000E+00 0. -1.
          6    1    1    2  502    0 -0.47481351567E+02  0.33823461386E+03  0.41733859666E+03  0.56635469189E+03  0.17300000000E+03 0.  1.
         -6    1    1    2    0  501  0.47481351567E+02 -0.33823461386E+03 -0.42448544424E+03  0.57164151802E+03  0.17300000000E+03 0. -1.
</event>
<event>
 4    1  0.5880538E-001  0.1000000E+03  0.7546771E-02  0.1280296E+00
         -2   -1    0    0    0  501 -0.00000000000E+00  0.00000000000E+00  0.78748993992E+02  0.78748993992E+02  0.00000000000E+00 0.  1.
          2   -1    0    0  502    0  0.00000000000E+00 -0.00000000000E+00 -0.45400309707E+03  0.45400309707E+03  0.00000000000E+00 0. -1.
          6    1    1    2  502    0  0.37820418982E+02 -0.66101266270E+02 -0.19446009602E+03  0.27118903083E+03  0.17300000000E+03 0.  1.
         -6    1    1    2    0  501 -0.37820418982E+02  0.66101266270E+02 -0.18079400706E+03  0.26156306024E+03  0.17300000000E+03 0.  1.
</event>
<event>
 4    1  0.5880538E-001  0.1000000E+03  0.7546771E-02  0.1280296E+00
         -2   -1    0    0    0  501 -0.00000000000E+00  0.00000000000E+00  0.58563295666E+02  0.58563295666E+02  0.00000000000E+00 0.  1.
          2   -1    0    0  502    0  0.00000000000E+00 -0.00000000000E+00 -0.14041724811E+04  0.14041724811E+04  0.00000000000E+00 0. -1.
          6    1    1    2  502    0  0.79536357260E+02 -0.20719359213E+03 -0.81362769693E+03  0.86091477276E+03  0.17300000000E+03 0.  1.
         -6    1    1    2    0  501 -0.79536357260E+02  0.20719359213E+03 -0.53198148847E+03  0.60182100397E+03  0.17300000000E+03 0.  1.
</event>
<event>
 4    1  0.5880538E-001  0.1000000E+03  0.7546771E-02  0.1280296E+00
         -2   -1    0    0    0  501 -0.00000000000E+00  0.00000000000E+00  0.38681738435E+02  0.38681738435E+02  0.00000000000E+00 0.  1.
          2   -1    0    0  502    0  0.00000000000E+00 -0.00000000000E+00 -0.97670059944E+03  0.97670059944E+03  0.00000000000E+00 0. -1.
          6    1    1    2  502    0 -0.10267020570E+01 -0.87344688768E+02 -0.43015107593E+03  0.47179348967E+03  0.17300000000E+03 0.  1.
         -6    1    1    2    0  501  0.10267020570E+01  0.87344688768E+02 -0.50786778508E+03  0.54358884821E+03  0.17300000000E+03 0. -1.
</event>
<event>
 4    1  0.5880538E-001  0.1000000E+03  0.7546771E-02  0.1280296E+00
         -2   -1    0    0    0  501 -0.00000000000E+00  0.00000000000E+00  0.52897836243E+02  0.52897836243E+02  0.00000000000E+00 0.  1.
          2   -1    0    0  502    0  0.00000000000E+00 -0.00000000000E+00 -0.11027363447E+04  0.11027363447E+04  0.00000000000E+00 0. -1.
          6    1    1    2  502    0  0.13647326879E+02 -0.16750590453E+03 -0.49476264584E+03  0.55042125077E+03  0.17300000000E+03 0.  1.
         -6    1    1    2    0  501 -0.13647326879E+02  0.16750590453E+03 -0.55507586261E+03  0.60521293016E+03  0.17300000000E+03 0. -1.
</event>
<event>
 4    1  0.5880538E-001  0.1000000E+03  0.7546771E-02  0.1280296E+00
         -2   -1    0    0    0  501 -0.00000000000E+00  0.00000000000E+00  0.17534248578E+03  0.17534248578E+03  0.00000000000E+00 0.  1.
          2   -1    0    0  502    0  0.00000000000E+00 -0.00000000000E+00 -0.44678907879E+03  0.44678907879E+03  0.00000000000E+00 0. -1.
          6    1    1    2  502    0  0.10085868149E+03  0.10062179581E+03 -0.32207165336E+03  0.39237274284E+03  0.17300000000E+03 0.  1.
         -6    1    1    2    0  501 -0.10085868149E+03 -0.10062179581E+03  0.50625060351E+02  0.22975882173E+03  0.17300000000E+03 0. -1.
</event>
<event>
 4    1  0.5880538E-001  0.1000000E+03  0.7546771E-02  0.1280296E+00
         -2   -1    0    0    0  501 -0.00000000000E+00  0.00000000000E+00  0.15079281890E+03  0.15079281890E+03  0.00000000000E+00 0.  1.
          2   -1    0    0  502    0  0.00000000000E+00 -0.00000000000E+00 -0.31625234544E+03  0.31625234544E+03  0.00000000000E+00 0. -1.
          6    1    1    2  502    0 -0.19487681533E+02  0.88619652806E+02  0.21642572008E+02  0.19654672095E+03  0.17300000000E+03 0.  1.
         -6    1    1    2    0  501  0.19487681533E+02 -0.88619652806E+02 -0.18710209855E+03  0.27049844339E+03  0.17300000000E+03 0. -1.
</event>
<event>
 4    1  0.5880538E-001  0.1000000E+03  0.7546771E-02  0.1280296E+00
         -2   -1    0    0    0  501 -0.00000000000E+00  0.00000000000E+00  0.35516411439E+03  0.35516411439E+03  0.00000000000E+00 0.  1.
          2   -1    0    0  502    0  0.00000000000E+00 -0.00000000000E+00 -0.13933236288E+03  0.13933236288E+03  0.00000000000E+00 0. -1.
          6    1    1    2  502    0 -0.10899657832E+03 -0.32071230509E+02  0.17292676135E+02  0.20769413704E+03  0.17300000000E+03 0.  1.
         -6    1    1    2    0  501  0.10899657832E+03  0.32071230509E+02  0.19853907538E+03  0.28680234023E+03  0.17300000000E+03 0. -1.
</event>
<event>
 4    1  0.5880538E-001  0.1000000E+03  0.7546771E-02  0.1280296E+00
         -2   -1    0    0    0  501 -0.00000000000E+00  0.00000000000E+00  0.93469834215E+02  0.93469834215E+02  0.00000000000E+00 0.  1.
          2   -1    0    0  502    0  0.00000000000E+00 -0.00000000000E+00 -0.39681355745E+03  0.39681355745E+03  0.00000000000E+00 0. -1.
          6    1    1    2  502    0 -0.82414765110E+01  0.80046806265E+02 -0.18500301191E+03  0.26576404487E+03  0.17300000000E+03 0. -1.
         -6    1    1    2    0  501  0.82414765110E+01 -0.80046806265E+02 -0.11834071132E+03  0.22451934679E+03  0.17300000000E+03 0. -1.
</event>
<event>
 4    1  0.5880538E-001  0.1000000E+03  0.7546771E-02  0.1280296E+00
         -2   -1    0    0    0  501 -0.00000000000E+00  0.00000000000E+00  0.11666200938E+04  0.11666200938E+04  0.00000000000E+00 0.  1.
          2   -1    0    0  502    0  0.00000000000E+00 -0.00000000000E+00 -0.30588622346E+02  0.30588622346E+02  0.00000000000E+00 0. -1.
          6    1    1    2  502    0 -0.41307659589E+02  0.42395063218E+02  0.71841330912E+03  0.74131663063E+03  0.17300000000E+03 0. -1.
         -6    1    1    2    0  501  0.41307659589E+02 -0.42395063218E+02  0.41761816234E+03  0.45589208552E+03  0.17300000000E+03 0. -1.
</event>
<event>
 4    1  0.5880538E-001  0.1000000E+03  0.7546771E-02  0.1280296E+00
         -2   -1    0    0    0  501 -0.00000000000E+00  0.00000000000E+00  0.20046482686E+03  0.20046482686E+03  0.00000000000E+00 0. -1.
          2   -1    0    0  502    0  0.00000000000E+00 -0.00000000000E+00 -0.36612940079E+03  0.36612940079E+03  0.00000000000E+00 0.  1.
          6    1    1    2  502    0 -0.11055967194E+03  0.26247876840E+02 -0.26561898568E+03  0.33674149974E+03  0.17300000000E+03 0.  1.
         -6    1    1    2    0  501  0.11055967194E+03 -0.26247876840E+02  0.99954411750E+02  0.22985272791E+03  0.17300000000E+03 0.  1.
</event>
<event>
 4    1  0.5880538E-001  0.1000000E+03  0.7546771E-02  0.1280296E+00
         -1   -1    0    0    0  501 -0.00000000000E+00  0.00000000000E+00  0.19082717600E+03  0.19082717600E+03  0.00000000000E+00 0. -1.
          1   -1    0    0  502    0  0.00000000000E+00 -0.00000000000E+00 -0.38822577592E+03  0.38822577592E+03  0.00000000000E+00 0.  1.
          6    1    1    2  502    0 -0.17541105565E+02  0.20130812991E+02 -0.32040728607E+03  0.36510651731E+03  0.17300000000E+03 0.  1.
         -6    1    1    2    0  501  0.17541105565E+02 -0.20130812991E+02  0.12300868615E+03  0.21394643461E+03  0.17300000000E+03 0.  1.
</event>
<event>
 4    1  0.5880538E-001  0.1000000E+03  0.7546771E-02  0.1280296E+00
         -2   -1    0    0    0  501 -0.00000000000E+00  0.00000000000E+00  0.24955558776E+02  0.24955558776E+02  0.00000000000E+00 0. -1.
          2   -1    0    0  502    0  0.00000000000E+00 -0.00000000000E+00 -0.21958894340E+04  0.21958894340E+04  0.00000000000E+00 0.  1.
          6    1    1    2  502    0 -0.28256722702E+02  0.15497249953E+03 -0.10500555216E+04  0.10758069141E+04  0.17300000000E+03 0.  1.
         -6    1    1    2    0  501  0.28256722702E+02 -0.15497249953E+03 -0.11208783536E+04  0.11450380787E+04  0.17300000000E+03 0.  1.
</event>
<event>
 4    1  0.5880538E-001  0.1000000E+03  0.7546771E-02  0.1280296E+00
         -1   -1    0    0    0  501 -0.00000000000E+00  0.00000000000E+00  0.26526102383E+02  0.26526102383E+02  0.00000000000E+00 0. -1.
          1   -1    0    0  502    0  0.00000000000E+00 -0.00000000000E+00 -0.11515703534E+04  0.11515703534E+04  0.00000000000E+00 0.  1.
          6    1    1    2  502    0  0.11907819600E+02 -0.21515013153E+02 -0.55037914592E+03  0.57745207267E+03  0.17300000000E+03 0. -1.
         -6    1    1    2    0  501 -0.11907819600E+02  0.21515013153E+02 -0.57466510509E+03  0.60064438311E+03  0.17300000000E+03 0.  1.
</event>
<event>
 4    1  0.5880538E-001  0.1000000E+03  0.7546771E-02  0.1280296E+00
         -1   -1    0    0    0  501 -0.00000000000E+00  0.00000000000E+00  0.31443728999E+02  0.31443728999E+02  0.00000000000E+00 0. -1.
          1   -1    0    0  502    0  0.00000000000E+00 -0.00000000000E+00 -0.14732501384E+04  0.14732501384E+04  0.00000000000E+00 0.  1.
          6    1    1    2  502    0  0.12395969713E+03  0.11829009597E+02 -0.61664814954E+03  0.65244913389E+03  0.17300000000E+03 0. -1.
         -6    1    1    2    0  501 -0.12395969713E+03 -0.11829009597E+02 -0.82515825988E+03  0.85224473353E+03  0.17300000000E+03 0.  1.
</event>
<event>
 4    1  0.5880538E-001  0.1000000E+03  0.7546771E-02  0.1280296E+00
         -1   -1    0    0    0  501 -0.00000000000E+00  0.00000000000E+00  0.98288431526E+02  0.98288431526E+02  0.00000000000E+00 0. -1.
          1   -1    0    0  502    0  0.00000000000E+00 -0.00000000000E+00 -0.43911257802E+03  0.43911257802E+03  0.00000000000E+00 0.  1.
          6    1    1    2  502    0 -0.51419349891E+02 -0.16230399114E+02 -0.30182523070E+03  0.35204381160E+03  0.17300000000E+03 0. -1.
         -6    1    1    2    0  501  0.51419349891E+02  0.16230399114E+02 -0.38998915799E+02  0.18535719795E+03  0.17300000000E+03 0.  1.
</event>
<event>
 4    1  0.5880538E-001  0.1000000E+03  0.7546771E-02  0.1280296E+00
         -1   -1    0    0    0  501 -0.00000000000E+00  0.00000000000E+00  0.92138271792E+02  0.92138271792E+02  0.00000000000E+00 0. -1.
          1   -1    0    0  502    0  0.00000000000E+00 -0.00000000000E+00 -0.58119040234E+03  0.58119040234E+03  0.00000000000E+00 0.  1.
          6    1    1    2  502    0  0.73576961157E+02  0.13475928980E+03 -0.25452584721E+03  0.34392737939E+03  0.17300000000E+03 0. -1.
         -6    1    1    2    0  501 -0.73576961157E+02 -0.13475928980E+03 -0.23452628334E+03  0.32940129474E+03  0.17300000000E+03 0.  1.
</event>
<event>
 4    1  0.5880538E-001  0.1000000E+03  0.7546771E-02  0.1280296E+00
         -1   -1    0    0    0  501 -0.00000000000E+00  0.00000000000E+00  0.40288368443E+03  0.40288368443E+03  0.00000000000E+00 0. -1.
          1   -1    0    0  502    0  0.00000000000E+00 -0.00000000000E+00 -0.13819980291E+03  0.13819980291E+03  0.00000000000E+00 0.  1.
          6    1    1    2  502    0 -0.14985258194E+03 -0.24212679201E+02  0.72684228504E+02  0.24135875212E+03  0.17300000000E+03 0. -1.
         -6    1    1    2    0  501  0.14985258194E+03  0.24212679201E+02  0.19199965302E+03  0.29972473523E+03  0.17300000000E+03 0.  1.
</event>
<event>
 4    1  0.5880538E-001  0.1000000E+03  0.7546771E-02  0.1280296E+00
         -2   -1    0    0    0  501 -0.00000000000E+00  0.00000000000E+00  0.24694878100E+03  0.24694878100E+03  0.00000000000E+00 0. -1.
          2   -1    0    0  502    0  0.00000000000E+00 -0.00000000000E+00 -0.20985959883E+03  0.20985959883E+03  0.00000000000E+00 0.  1.
          6    1    1    2  502    0 -0.13358072464E+03  0.61443799480E+02  0.18635862208E+01  0.22704982591E+03  0.17300000000E+03 0.  1.
         -6    1    1    2    0  501  0.13358072464E+03 -0.61443799480E+02  0.35225595957E+02  0.22975855392E+03  0.17300000000E+03 0. -1.
</event>
<event>
 4    1  0.5880538E-001  0.1000000E+03  0.7546771E-02  0.1280296E+00
         -1   -1    0    0    0  501 -0.00000000000E+00  0.00000000000E+00  0.16913911902E+04  0.16913911902E+04  0.00000000000E+00 0. -1.
          1   -1    0    0  502    0  0.00000000000E+00 -0.00000000000E+00 -0.13280655324E+04  0.13280655324E+04  0.00000000000E+00 0.  1.
          6    1    1    2  502    0 -0.85128417630E+03 -0.11950030815E+04 -0.72437713934E+02  0.14791529117E+04  0.17300000000E+03 0.  1.
         -6    1    1    2    0  501  0.85128417630E+03  0.11950030815E+04  0.43576337179E+03  0.15403038109E+04  0.17300000000E+03 0. -1.
</event>
<event>
 4    1  0.5880538E-001  0.1000000E+03  0.7546771E-02  0.1280296E+00
         -2   -1    0    0    0  501 -0.00000000000E+00  0.00000000000E+00  0.19770936381E+03  0.19770936381E+03  0.00000000000E+00 0.  1.
          2   -1    0    0  502    0  0.00000000000E+00 -0.00000000000E+00 -0.87241364746E+03  0.87241364746E+03  0.00000000000E+00 0. -1.
          6    1    1    2  502    0 -0.36600721580E+03  0.91794194769E+02 -0.35404545664E+03  0.54558651154E+03  0.17300000000E+03 0. -1.
         -6    1    1    2    0  501  0.36600721580E+03 -0.91794194769E+02 -0.32065882700E+03  0.52453649972E+03  0.17300000000E+03 0.  1.
</event>
<event>
 4    1  0.5880538E-001  0.1000000E+03  0.7546771E-02  0.1280296E+00
         -2   -1    0    0    0  501 -0.00000000000E+00  0.00000000000E+00  0.46353223674E+02  0.46353223674E+02  0.00000000000E+00 0.  1.
          2   -1    0    0  502    0  0.00000000000E+00 -0.00000000000E+00 -0.95767304078E+03  0.95767304078E+03  0.00000000000E+00 0. -1.
          6    1    1    2  502    0 -0.20834429368E+01 -0.10914961998E+03 -0.57584388558E+03  0.61109995977E+03  0.17300000000E+03 0.  1.
         -6    1    1    2    0  501  0.20834429368E+01  0.10914961998E+03 -0.33547593153E+03  0.39292630468E+03  0.17300000000E+03 0. -1.
</event>
<event>
 4    1  0.5880538E-001  0.1000000E+03  0.7546771E-02  0.1280296E+00
         -2   -1    0    0    0  501 -0.00000000000E+00  0.00000000000E+00  0.48210794787E+03  0.48210794787E+03  0.00000000000E+00 0.  1.
          2   -1    0    0  502    0  0.00000000000E+00 -0.00000000000E+00 -0.78343260413E+02  0.78343260413E+02  0.00000000000E+00 0. -1.
          6    1    1    2  502    0  0.51634914804E+02 -0.57716465332E+02  0.26379262045E+03  0.32482749483E+03  0.17300000000E+03 0.  1.
         -6    1    1    2    0  501 -0.51634914804E+02  0.57716465332E+02  0.13997206701E+03  0.23562371345E+03  0.17300000000E+03 0. -1.
</event>
<event>
 4    1  0.5880538E-001  0.1000000E+03  0.7546771E-02  0.1280296E+00
         -2   -1    0    0    0  501 -0.00000000000E+00  0.00000000000E+00  0.10046216887E+03  0.10046216887E+03  0.00000000000E+00 0.  1.
          2   -1    0    0  502    0  0.00000000000E+00 -0.00000000000E+00 -0.55161914474E+03  0.55161914474E+03  0.00000000000E+00 0. -1.
          6    1    1    2  502    0  0.89639291560E+02  0.12985472958E+03 -0.19192540678E+03  0.30275702330E+03  0.17300000000E+03 0.  1.
         -6    1    1    2    0  501 -0.89639291560E+02 -0.12985472958E+03 -0.25923156909E+03  0.34932429031E+03  0.17300000000E+03 0. -1.
</event>
<event>
 4    1  0.5880538E-001  0.1000000E+03  0.7546771E-02  0.1280296E+00
         -2   -1    0    0    0  501 -0.00000000000E+00  0.00000000000E+00  0.62113331618E+02  0.62113331618E+02  0.00000000000E+00 0.  1.
          2   -1    0    0  502    0  0.00000000000E+00 -0.00000000000E+00 -0.10538862611E+04  0.10538862611E+04  0.00000000000E+00 0. -1.
          6    1    1    2  502    0 -0.99872151443E+02 -0.11571506275E+03 -0.25531956230E+03  0.34421141944E+03  0.17300000000E+03 0. -1.
         -6    1    1    2    0  501  0.99872151443E+02  0.11571506275E+03 -0.73645336722E+03  0.77178817331E+03  0.17300000000E+03 0. -1.
</event>
<event>
 4    1  0.5880538E-001  0.1000000E+03  0.7546771E-02  0.1280296E+00
          2   -1    0    0  502    0  0.00000000000E+00  0.00000000000E+00  0.21810274406E+04  0.21810274406E+04  0.00000000000E+00 0. -1.
         -2   -1    0    0    0  501 -0.00000000000E+00 -0.00000000000E+00 -0.16455222255E+02  0.16455222255E+02  0.00000000000E+00 0.  1.
          6    1    1    2  502    0 -0.63384702175E+02 -0.34216958919E+02  0.92115282789E+03  0.94002125140E+03  0.17300000000E+03 0. -1.
         -6    1    1    2    0  501  0.63384702175E+02  0.34216958919E+02  0.12434193905E+04  0.12574614115E+04  0.17300000000E+03 0.  1.
</event>
<event>
 4    1  0.5880538E-001  0.1000000E+03  0.7546771E-02  0.1280296E+00
         -2   -1    0    0    0  501 -0.00000000000E+00  0.00000000000E+00  0.20138895906E+02  0.20138895906E+02  0.00000000000E+00 0.  1.
          2   -1    0    0  502    0  0.00000000000E+00 -0.00000000000E+00 -0.26131972713E+04  0.26131972713E+04  0.00000000000E+00 0. -1.
          6    1    1    2  502    0  0.13414061875E+03  0.68484872845E+02 -0.12750353051E+04  0.12955029574E+04  0.17300000000E+03 0.  1.
         -6    1    1    2    0  501 -0.13414061875E+03 -0.68484872845E+02 -0.13180230703E+04  0.13378332098E+04  0.17300000000E+03 0. -1.
</event>
<event>
 4    1  0.5880538E-001  0.1000000E+03  0.7546771E-02  0.1280296E+00
         -2   -1    0    0    0  501 -0.00000000000E+00  0.00000000000E+00  0.20696427092E+03  0.20696427092E+03  0.00000000000E+00 0.  1.
          2   -1    0    0  502    0  0.00000000000E+00 -0.00000000000E+00 -0.19729331817E+03  0.19729331817E+03  0.00000000000E+00 0. -1.
          6    1    1    2  502    0  0.72983629686E+02  0.73748820039E+02  0.16593376365E+02  0.20241007583E+03  0.17300000000E+03 0.  1.
         -6    1    1    2    0  501 -0.72983629686E+02 -0.73748820039E+02 -0.69224236079E+01  0.20184751326E+03  0.17300000000E+03 0. -1.
</event>
<event>
 4    1  0.5880538E-001  0.1000000E+03  0.7546771E-02  0.1280296E+00
         -2   -1    0    0    0  501 -0.00000000000E+00  0.00000000000E+00  0.36879700874E+03  0.36879700874E+03  0.00000000000E+00 0.  1.
          2   -1    0    0  502    0  0.00000000000E+00 -0.00000000000E+00 -0.21271734294E+03  0.21271734294E+03  0.00000000000E+00 0. -1.
          6    1    1    2  502    0 -0.20239474075E+03  0.33307694270E+02 -0.53149467427E+01  0.26838457899E+03  0.17300000000E+03 0.  1.
         -6    1    1    2    0  501  0.20239474075E+03 -0.33307694270E+02  0.16139461254E+03  0.31312977268E+03  0.17300000000E+03 0. -1.
</event>
<event>
 4    1  0.5880538E-001  0.1000000E+03  0.7546771E-02  0.1280296E+00
         -2   -1    0    0    0  501 -0.00000000000E+00  0.00000000000E+00  0.69722821944E+03  0.69722821944E+03  0.00000000000E+00 0. -1.
          2   -1    0    0  502    0  0.00000000000E+00 -0.00000000000E+00 -0.15151082662E+03  0.15151082662E+03  0.00000000000E+00 0.  1.
          6    1    1    2  502    0  0.24074642836E+03  0.13045593231E+03  0.30816097357E+03  0.44706797993E+03  0.17300000000E+03 0. -1.
         -6    1    1    2    0  501 -0.24074642836E+03 -0.13045593231E+03  0.23755641924E+03  0.40167106613E+03  0.17300000000E+03 0.  1.
</event>
<event>
 4    1  0.5880538E-001  0.1000000E+03  0.7546771E-02  0.1280296E+00
         -2   -1    0    0    0  501 -0.00000000000E+00  0.00000000000E+00  0.25380561555E+02  0.25380561555E+02  0.00000000000E+00 0. -1.
          2   -1    0    0  502    0  0.00000000000E+00 -0.00000000000E+00 -0.15550074837E+04  0.15550074837E+04  0.00000000000E+00 0.  1.
          6    1    1    2  502    0 -0.73327752228E+02  0.25143972453E+02 -0.10010948186E+04  0.10188861636E+04  0.17300000000E+03 0. -1.
         -6    1    1    2    0  501  0.73327752228E+02 -0.25143972453E+02 -0.52853210356E+03  0.56150188165E+03  0.17300000000E+03 0.  1.
</event>
<event>
 4    1  0.5880538E-001  0.1000000E+03  0.7546771E-02  0.1280296E+00
         -4   -1    0    0    0  501 -0.00000000000E+00  0.00000000000E+00  0.79229706683E+03  0.79229706683E+03  0.00000000000E+00 0. -1.
          4   -1    0    0  502    0  0.00000000000E+00 -0.00000000000E+00 -0.89704502457E+02  0.89704502457E+02  0.00000000000E+00 0.  1.
          6    1    1    2  502    0  0.16558086289E+03 -0.76704641759E+02  0.49779338861E+03  0.55769873764E+03  0.17300000000E+03 0. -1.
         -6    1    1    2    0  501 -0.16558086289E+03  0.76704641759E+02  0.20479917577E+03  0.32430283165E+03  0.17300000000E+03 0.  1.
</event>
<event>
 4    1  0.5880538E-001  0.1000000E+03  0.7546771E-02  0.1280296E+00
          2   -1    0    0  502    0  0.00000000000E+00  0.00000000000E+00  0.12759962576E+03  0.12759962576E+03  0.00000000000E+00 0.  1.
         -2   -1    0    0    0  501 -0.00000000000E+00 -0.00000000000E+00 -0.39887137921E+03  0.39887137921E+03  0.00000000000E+00 0. -1.
          6    1    1    2  502    0  0.12110274634E+03 -0.78547225234E+02 -0.14900585332E+03  0.27012457512E+03  0.17300000000E+03 0.  1.
         -6    1    1    2    0  501 -0.12110274634E+03  0.78547225234E+02 -0.12226590013E+03  0.25634642985E+03  0.17300000000E+03 0. -1.
</event>
<event>
 4    1  0.5880538E-001  0.1000000E+03  0.7546771E-02  0.1280296E+00
          1   -1    0    0  502    0  0.00000000000E+00  0.00000000000E+00  0.13929908592E+04  0.13929908592E+04  0.00000000000E+00 0.  1.
         -1   -1    0    0    0  501 -0.00000000000E+00 -0.00000000000E+00 -0.44064014414E+02  0.44064014414E+02  0.00000000000E+00 0. -1.
          6    1    1    2  502    0 -0.16935829738E+02 -0.17556548476E+03  0.72807449150E+03  0.76885078327E+03  0.17300000000E+03 0.  1.
         -6    1    1    2    0  501  0.16935829738E+02  0.17556548476E+03  0.62085235330E+03  0.66820409036E+03  0.17300000000E+03 0. -1.
</event>
<event>
 4    1  0.5880538E-001  0.1000000E+03  0.7546771E-02  0.1280296E+00
         -2   -1    0    0    0  501 -0.00000000000E+00  0.00000000000E+00  0.11029313505E+03  0.11029313505E+03  0.00000000000E+00 0. -1.
          2   -1    0    0  502    0  0.00000000000E+00 -0.00000000000E+00 -0.45745126628E+03  0.45745126628E+03  0.00000000000E+00 0.  1.
          6    1    1    2  502    0 -0.48010667289E+02 -0.63120312550E+02 -0.22792335762E+02  0.19167078181E+03  0.17300000000E+03 0.  1.
         -6    1    1    2    0  501  0.48010667289E+02  0.63120312550E+02 -0.32436579547E+03  0.37607361952E+03  0.17300000000E+03 0.  1.
</event>
<event>
 4    1  0.5880538E-001  0.1000000E+03  0.7546771E-02  0.1280296E+00
         -1   -1    0    0    0  501 -0.00000000000E+00  0.00000000000E+00  0.10066882555E+03  0.10066882555E+03  0.00000000000E+00 0.  1.
          1   -1    0    0  502    0  0.00000000000E+00 -0.00000000000E+00 -0.39759477198E+03  0.39759477198E+03  0.00000000000E+00 0. -1.
          6    1    1    2  502    0  0.31689219447E+02 -0.53791270669E+02 -0.24650478647E+03  0.30755701453E+03  0.17300000000E+03 0.  1.
         -6    1    1    2    0  501 -0.31689219447E+02  0.53791270669E+02 -0.50421159954E+02  0.19070658300E+03  0.17300000000E+03 0. -1.
</event>
<event>
 4    1  0.5880538E-001  0.1000000E+03  0.7546771E-02  0.1280296E+00
         -4   -1    0    0    0  501 -0.00000000000E+00  0.00000000000E+00  0.10213499402E+04  0.10213499402E+04  0.00000000000E+00 0.  1.
          4   -1    0    0  502    0  0.00000000000E+00 -0.00000000000E+00 -0.82104032224E+02  0.82104032224E+02  0.00000000000E+00 0. -1.
          6    1    1    2  502    0  0.95928854028E+02  0.20828157360E+03  0.39976477670E+03  0.49226459920E+03  0.17300000000E+03 0. -1.
         -6    1    1    2    0  501 -0.95928854028E+02 -0.20828157360E+03  0.53948113127E+03  0.61118937322E+03  0.17300000000E+03 0.  1.
</event>
<event>
 4    1  0.5880538E-001  0.1000000E+03  0.7546771E-02  0.1280296E+00
         -2   -1    0    0    0  501 -0.00000000000E+00  0.00000000000E+00  0.13781427860E+03  0.13781427860E+03  0.00000000000E+00 0. -1.
          2   -1    0    0  502    0  0.00000000000E+00 -0.00000000000E+00 -0.64342124702E+03  0.64342124702E+03  0.00000000000E+00 0.  1.
          6    1    1    2  502    0  0.61609965620E+01  0.40065798775E+02  0.60652662361E+02  0.18775242092E+03  0.17300000000E+03 0. -1.
         -6    1    1    2    0  501 -0.61609965620E+01 -0.40065798775E+02 -0.56625963078E+03  0.59348310470E+03  0.17300000000E+03 0.  1.
</event>
<event>
 4    1  0.5880538E-001  0.1000000E+03  0.7546771E-02  0.1280296E+00
         -2   -1    0    0    0  501 -0.00000000000E+00  0.00000000000E+00  0.13603892823E+03  0.13603892823E+03  0.00000000000E+00 0. -1.
          2   -1    0    0  502    0  0.00000000000E+00 -0.00000000000E+00 -0.24863347484E+03  0.24863347484E+03  0.00000000000E+00 0.  1.
          6    1    1    2  502    0 -0.39069400548E+02 -0.24242012099E+02 -0.10042887353E+03  0.20525362810E+03  0.17300000000E+03 0. -1.
         -6    1    1    2    0  501  0.39069400548E+02  0.24242012099E+02 -0.12165673078E+02  0.17941877497E+03  0.17300000000E+03 0.  1.
</event>
<event>
 4    1  0.5880538E-001  0.1000000E+03  0.7546771E-02  0.1280296E+00
         -2   -1    0    0    0  501 -0.00000000000E+00  0.00000000000E+00  0.76701447018E+02  0.76701447018E+02  0.00000000000E+00 0. -1.
          2   -1    0    0  502    0  0.00000000000E+00 -0.00000000000E+00 -0.69955168122E+03  0.69955168122E+03  0.00000000000E+00 0.  1.
          6    1    1    2  502    0 -0.32319610748E+02  0.74896406647E+02 -0.92485576237E+02  0.21245378504E+03  0.17300000000E+03 0.  1.
         -6    1    1    2    0  501  0.32319610748E+02 -0.74896406647E+02 -0.53036465796E+03  0.56379934319E+03  0.17300000000E+03 0. -1.
</event>
<event>
 4    1  0.5880538E-001  0.1000000E+03  0.7546771E-02  0.1280296E+00
         -2   -1    0    0    0  501 -0.00000000000E+00  0.00000000000E+00  0.69085790481E+02  0.69085790481E+02  0.00000000000E+00 0.  1.
          2   -1    0    0  502    0  0.00000000000E+00 -0.00000000000E+00 -0.62399563910E+03  0.62399563910E+03  0.00000000000E+00 0. -1.
          6    1    1    2  502    0  0.10328978519E+03  0.50065634687E+02 -0.28114366776E+03  0.34949407637E+03  0.17300000000E+03 0.  1.
         -6    1    1    2    0  501 -0.10328978519E+03 -0.50065634687E+02 -0.27376618086E+03  0.34358735321E+03  0.17300000000E+03 0. -1.
</event>
<event>
 4    1  0.5880538E-001  0.1000000E+03  0.7546771E-02  0.1280296E+00
          2   -1    0    0  502    0  0.00000000000E+00  0.00000000000E+00  0.89623638585E+03  0.89623638585E+03  0.00000000000E+00 0. -1.
         -2   -1    0    0    0  501 -0.00000000000E+00 -0.00000000000E+00 -0.48163367540E+02  0.48163367540E+02  0.00000000000E+00 0.  1.
          6    1    1    2  502    0  0.53228184931E+02  0.24200044219E+02  0.19883824681E+03  0.26997135071E+03  0.17300000000E+03 0. -1.
         -6    1    1    2    0  501 -0.53228184931E+02 -0.24200044219E+02  0.64923477150E+03  0.67442840268E+03  0.17300000000E+03 0.  1.
</event>
<event>
 4    1  0.5880538E-001  0.1000000E+03  0.7546771E-02  0.1280296E+00
          1   -1    0    0  502    0  0.00000000000E+00  0.00000000000E+00  0.24725291301E+04  0.24725291301E+04  0.00000000000E+00 0. -1.
         -1   -1    0    0    0  501 -0.00000000000E+00 -0.00000000000E+00 -0.15754753919E+02  0.15754753919E+02  0.00000000000E+00 0.  1.
          6    1    1    2  502    0  0.50790000467E+02  0.22274366246E+02  0.74217376311E+03  0.76408550974E+03  0.17300000000E+03 0. -1.
         -6    1    1    2    0  501 -0.50790000467E+02 -0.22274366246E+02  0.17146006131E+04  0.17241983743E+04  0.17300000000E+03 0.  1.
</event>
<event>
 4    1  0.5880538E-001  0.1000000E+03  0.7546771E-02  0.1280296E+00
          1   -1    0    0  502    0  0.00000000000E+00  0.00000000000E+00  0.40691251980E+02  0.40691251980E+02  0.00000000000E+00 0.  1.
         -1   -1    0    0    0  501 -0.00000000000E+00 -0.00000000000E+00 -0.13166376707E+04  0.13166376707E+04  0.00000000000E+00 0. -1.
          6    1    1    2  502    0 -0.31711916029E+02 -0.83807004821E+02 -0.10043900874E+04  0.10231117766E+04  0.17300000000E+03 0.  1.
         -6    1    1    2    0  501  0.31711916029E+02  0.83807004821E+02 -0.27155633129E+03  0.33421714609E+03  0.17300000000E+03 0. -1.
</event>
<event>
 4    1  0.5880538E-001  0.1000000E+03  0.7546771E-02  0.1280296E+00
          2   -1    0    0  502    0  0.00000000000E+00  0.00000000000E+00  0.12255324203E+04  0.12255324203E+04  0.00000000000E+00 0.  1.
         -2   -1    0    0    0  501 -0.00000000000E+00 -0.00000000000E+00 -0.30827099492E+02  0.30827099492E+02  0.00000000000E+00 0. -1.
          6    1    1    2  502    0  0.59534311458E+02 -0.36821745977E+02  0.77290159724E+03  0.79511386243E+03  0.17300000000E+03 0.  1.
         -6    1    1    2    0  501 -0.59534311458E+02  0.36821745977E+02  0.42180372358E+03  0.46124565737E+03  0.17300000000E+03 0. -1.
</event>
<event>
 4    1  0.5880538E-001  0.1000000E+03  0.7546771E-02  0.1280296E+00
         -1   -1    0    0    0  501 -0.00000000000E+00  0.00000000000E+00  0.83835950788E+02  0.83835950788E+02  0.00000000000E+00 0. -1.
          1   -1    0    0  502    0  0.00000000000E+00 -0.00000000000E+00 -0.13848144261E+04  0.13848144261E+04  0.00000000000E+00 0.  1.
          6    1    1    2  502    0 -0.20257361409E+03 -0.17684514066E+03 -0.39678532854E+03  0.50958597886E+03  0.17300000000E+03 0.  1.
         -6    1    1    2    0  501  0.20257361409E+03  0.17684514066E+03 -0.90419314674E+03  0.95906439800E+03  0.17300000000E+03 0. -1.
</event>
<event>
 4    1  0.5880538E-001  0.1000000E+03  0.7546771E-02  0.1280296E+00
         -1   -1    0    0    0  501 -0.00000000000E+00  0.00000000000E+00  0.81698467464E+01  0.81698467464E+01  0.00000000000E+00 0.  1.
          1   -1    0    0  502    0  0.00000000000E+00 -0.00000000000E+00 -0.40286724409E+04  0.40286724409E+04  0.00000000000E+00 0. -1.
          6    1    1    2  502    0  0.39764416288E+02 -0.37126720571E+02 -0.19545851519E+04  0.19629803153E+04  0.17300000000E+03 0. -1.
         -6    1    1    2    0  501 -0.39764416288E+02  0.37126720571E+02 -0.20659174422E+04  0.20738619723E+04  0.17300000000E+03 0.  1.
</event>
<event>
 4    1  0.5880538E-001  0.1000000E+03  0.7546771E-02  0.1280296E+00
         -1   -1    0    0    0  501 -0.00000000000E+00  0.00000000000E+00  0.18151227681E+03  0.18151227681E+03  0.00000000000E+00 0. -1.
          1   -1    0    0  502    0  0.00000000000E+00 -0.00000000000E+00 -0.20287995149E+03  0.20287995149E+03  0.00000000000E+00 0.  1.
          6    1    1    2  502    0  0.47939531405E+02  0.91191425084E+01  0.56612810544E+02  0.18845521417E+03  0.17300000000E+03 0. -1.
         -6    1    1    2    0  501 -0.47939531405E+02 -0.91191425084E+01 -0.77980485221E+02  0.19593701413E+03  0.17300000000E+03 0.  1.
</event>
<event>
 4    1  0.5880538E-001  0.1000000E+03  0.7546771E-02  0.1280296E+00
         -1   -1    0    0    0  501 -0.00000000000E+00  0.00000000000E+00  0.32552067358E+02  0.32552067358E+02  0.00000000000E+00 0. -1.
          1   -1    0    0  502    0  0.00000000000E+00 -0.00000000000E+00 -0.11202233843E+04  0.11202233843E+04  0.00000000000E+00 0.  1.
          6    1    1    2  502    0  0.63936206587E+02 -0.35376627291E+02 -0.43939629063E+03  0.47784667467E+03  0.17300000000E+03 0. -1.
         -6    1    1    2    0  501 -0.63936206587E+02  0.35376627291E+02 -0.64827502630E+03  0.67492877698E+03  0.17300000000E+03 0.  1.
</event>
<event>
 4    1  0.5880538E-001  0.1000000E+03  0.7546771E-02  0.1280296E+00
         -2   -1    0    0    0  501 -0.00000000000E+00  0.00000000000E+00  0.30645562735E+02  0.30645562735E+02  0.00000000000E+00 0. -1.
          2   -1    0    0  502    0  0.00000000000E+00 -0.00000000000E+00 -0.20495231624E+04  0.20495231624E+04  0.00000000000E+00 0.  1.
          6    1    1    2  502    0 -0.62429780065E+02 -0.16202860894E+03 -0.12262409316E+04  0.12504985285E+04  0.17300000000E+03 0. -1.
         -6    1    1    2    0  501  0.62429780065E+02  0.16202860894E+03 -0.79263666807E+03  0.82967019660E+03  0.17300000000E+03 0.  1.
</event>
<event>
 4    1  0.5880538E-001  0.1000000E+03  0.7546771E-02  0.1280296E+00
         -2   -1    0    0    0  501 -0.00000000000E+00  0.00000000000E+00  0.51656361190E+02  0.51656361190E+02  0.00000000000E+00 0.  1.
          2   -1    0    0  502    0  0.00000000000E+00 -0.00000000000E+00 -0.69340239792E+03  0.69340239792E+03  0.00000000000E+00 0. -1.
          6    1    1    2  502    0  0.25519833592E+02  0.51923238742E+02 -0.22162439637E+03  0.28704295444E+03  0.17300000000E+03 0. -1.
         -6    1    1    2    0  501 -0.25519833592E+02 -0.51923238742E+02 -0.42012164036E+03  0.45801580467E+03  0.17300000000E+03 0.  1.
</event>
<event>
 4    1  0.5880538E-001  0.1000000E+03  0.7546771E-02  0.1280296E+00
         -1   -1    0    0    0  501 -0.00000000000E+00  0.00000000000E+00  0.58207609467E+03  0.58207609467E+03  0.00000000000E+00 0.  1.
          1   -1    0    0  502    0  0.00000000000E+00 -0.00000000000E+00 -0.58842691478E+02  0.58842691478E+02  0.00000000000E+00 0. -1.
          6    1    1    2  502    0  0.17899186515E+02  0.30981313575E+02  0.16611851007E+03  0.24249656091E+03  0.17300000000E+03 0. -1.
         -6    1    1    2    0  501 -0.17899186515E+02 -0.30981313575E+02  0.35711489313E+03  0.39842222524E+03  0.17300000000E+03 0.  1.
</event>
<event>
 4    1  0.5880538E-001  0.1000000E+03  0.7546771E-02  0.1280296E+00
         -1   -1    0    0    0  501 -0.00000000000E+00  0.00000000000E+00  0.49826922419E+03  0.49826922419E+03  0.00000000000E+00 0.  1.
          1   -1    0    0  502    0  0.00000000000E+00 -0.00000000000E+00 -0.95167336640E+02  0.95167336640E+02  0.00000000000E+00 0. -1.
          6    1    1    2  502    0 -0.11020845912E+03  0.64915367227E+02  0.15574558338E+03  0.26560420950E+03  0.17300000000E+03 0. -1.
         -6    1    1    2    0  501  0.11020845912E+03 -0.64915367227E+02  0.24735630417E+03  0.32783235133E+03  0.17300000000E+03 0.  1.
</event>
<event>
 4    1  0.5880538E-001  0.1000000E+03  0.7546771E-02  0.1280296E+00
         -2   -1    0    0    0  501 -0.00000000000E+00  0.00000000000E+00  0.23795411499E+02  0.23795411499E+02  0.00000000000E+00 0.  1.
          2   -1    0    0  502    0  0.00000000000E+00 -0.00000000000E+00 -0.21419334768E+04  0.21419334768E+04  0.00000000000E+00 0. -1.
          6    1    1    2  502    0  0.61620268328E+02  0.21728856448E+02 -0.43792707238E+03  0.47537177177E+03  0.17300000000E+03 0. -1.
         -6    1    1    2    0  501 -0.61620268328E+02 -0.21728856448E+02 -0.16802109929E+04  0.16903571165E+04  0.17300000000E+03 0.  1.
</event>
<event>
 4    1  0.5880538E-001  0.1000000E+03  0.7546771E-02  0.1280296E+00
         -2   -1    0    0    0  501 -0.00000000000E+00  0.00000000000E+00  0.22739819807E+03  0.22739819807E+03  0.00000000000E+00 0.  1.
          2   -1    0    0  502    0  0.00000000000E+00 -0.00000000000E+00 -0.46282039330E+03  0.46282039330E+03  0.00000000000E+00 0. -1.
          6    1    1    2  502    0 -0.14547068506E+03 -0.19313744337E+03  0.20384287721E+02  0.29800723385E+03  0.17300000000E+03 0. -1.
         -6    1    1    2    0  501  0.14547068506E+03  0.19313744337E+03 -0.25580648295E+03  0.39221135751E+03  0.17300000000E+03 0.  1.
</event>
<event>
 4    1  0.5880538E-001  0.1000000E+03  0.7546771E-02  0.1280296E+00
          2   -1    0    0  502    0  0.00000000000E+00  0.00000000000E+00  0.43474220813E+03  0.43474220813E+03  0.00000000000E+00 0.  1.
         -2   -1    0    0    0  501 -0.00000000000E+00 -0.00000000000E+00 -0.15187097916E+03  0.15187097916E+03  0.00000000000E+00 0. -1.
          6    1    1    2  502    0  0.13932807912E+03 -0.10632666856E+03  0.22514631465E+03  0.33367279943E+03  0.17300000000E+03 0.  1.
         -6    1    1    2    0  501 -0.13932807912E+03  0.10632666856E+03  0.57724914320E+02  0.25294038786E+03  0.17300000000E+03 0. -1.
</event>
<event>
 4    1  0.5880538E-001  0.1000000E+03  0.7546771E-02  0.1280296E+00
          2   -1    0    0  502    0  0.00000000000E+00  0.00000000000E+00  0.11028998775E+03  0.11028998775E+03  0.00000000000E+00 0.  1.
         -2   -1    0    0    0  501 -0.00000000000E+00 -0.00000000000E+00 -0.28718311992E+03  0.28718311992E+03  0.00000000000E+00 0. -1.
          6    1    1    2  502    0 -0.20359194600E+02 -0.35518906998E+02 -0.97677511775E+02  0.20284473339E+03  0.17300000000E+03 0.  1.
         -6    1    1    2    0  501  0.20359194600E+02  0.35518906998E+02 -0.79215620402E+02  0.19462837428E+03  0.17300000000E+03 0. -1.
</event>
<event>
 4    1  0.5880538E-001  0.1000000E+03  0.7546771E-02  0.1280296E+00
          1   -1    0    0  502    0  0.00000000000E+00  0.00000000000E+00  0.67011050211E+02  0.67011050211E+02  0.00000000000E+00 0.  1.
         -1   -1    0    0    0  501 -0.00000000000E+00 -0.00000000000E+00 -0.66365284043E+03  0.66365284043E+03  0.00000000000E+00 0. -1.
          6    1    1    2  502    0  0.32028389153E+02  0.54665641593E+02 -0.12056011466E+03  0.22017695458E+03  0.17300000000E+03 0.  1.
         -6    1    1    2    0  501 -0.32028389153E+02 -0.54665641593E+02 -0.47608167556E+03  0.51048693605E+03  0.17300000000E+03 0. -1.
</event>
<event>
 4    1  0.5880538E-001  0.1000000E+03  0.7546771E-02  0.1280296E+00
          2   -1    0    0  502    0  0.00000000000E+00  0.00000000000E+00  0.14747757087E+03  0.14747757087E+03  0.00000000000E+00 0. -1.
         -2   -1    0    0    0  501 -0.00000000000E+00 -0.00000000000E+00 -0.27650889824E+03  0.27650889824E+03  0.00000000000E+00 0.  1.
          6    1    1    2  502    0 -0.73842662197E+02  0.75139706787E+01  0.12203173049E+02  0.18864547688E+03  0.17300000000E+03 0. -1.
         -6    1    1    2    0  501  0.73842662197E+02 -0.75139706787E+01 -0.14123450042E+03  0.23534099223E+03  0.17300000000E+03 0.  1.
</event>
<event>
 4    1  0.5880538E-001  0.1000000E+03  0.7546771E-02  0.1280296E+00
          2   -1    0    0  502    0  0.00000000000E+00  0.00000000000E+00  0.48534327982E+03  0.48534327982E+03  0.00000000000E+00 0. -1.
         -2   -1    0    0    0  501 -0.00000000000E+00 -0.00000000000E+00 -0.22926162472E+03  0.22926162472E+03  0.00000000000E+00 0.  1.
          6    1    1    2  502    0 -0.21770283708E+03 -0.10943978536E+03 -0.30726378536E+02  0.30040756021E+03  0.17300000000E+03 0. -1.
         -6    1    1    2    0  501  0.21770283708E+03  0.10943978536E+03  0.28680803363E+03  0.41419734433E+03  0.17300000000E+03 0.  1.
</event>
<event>
 4    1  0.5880538E-001  0.1000000E+03  0.7546771E-02  0.1280296E+00
          1   -1    0    0  502    0  0.00000000000E+00  0.00000000000E+00  0.10165504488E+04  0.10165504488E+04  0.00000000000E+00 0.  1.
         -1   -1    0    0    0  501 -0.00000000000E+00 -0.00000000000E+00 -0.69161711968E+02  0.69161711968E+02  0.00000000000E+00 0. -1.
          6    1    1    2  502    0 -0.35573862565E+00  0.16011985943E+03  0.72224765792E+03  0.75974283498E+03  0.17300000000E+03 0.  1.
         -6    1    1    2    0  501  0.35573862565E+00 -0.16011985943E+03  0.22514107887E+03  0.32596932574E+03  0.17300000000E+03 0. -1.
</event>
<event>
 4    1  0.5880538E-001  0.1000000E+03  0.7546771E-02  0.1280296E+00
         -2   -1    0    0    0  501 -0.00000000000E+00  0.00000000000E+00  0.49636603358E+03  0.49636603358E+03  0.00000000000E+00 0.  1.
          2   -1    0    0  502    0  0.00000000000E+00 -0.00000000000E+00 -0.19815016106E+03  0.19815016106E+03  0.00000000000E+00 0. -1.
          6    1    1    2  502    0  0.76666420454E+02 -0.24711726229E+03  0.19172463227E+03  0.36555713092E+03  0.17300000000E+03 0. -1.
         -6    1    1    2    0  501 -0.76666420454E+02  0.24711726229E+03  0.10649124025E+03  0.32895906371E+03  0.17300000000E+03 0. -1.
</event>
<event>
 4    1  0.5880538E-001  0.1000000E+03  0.7546771E-02  0.1280296E+00
         -4   -1    0    0    0  501 -0.00000000000E+00  0.00000000000E+00  0.95952512151E+02  0.95952512151E+02  0.00000000000E+00 0.  1.
          4   -1    0    0  502    0  0.00000000000E+00 -0.00000000000E+00 -0.10909617592E+04  0.10909617592E+04  0.00000000000E+00 0. -1.
          6    1    1    2  502    0 -0.83127568626E+02  0.12143662563E+03 -0.74854420607E+02  0.23914270007E+03  0.17300000000E+03 0. -1.
         -6    1    1    2    0  501  0.83127568626E+02 -0.12143662563E+03 -0.92015482641E+03  0.94777157125E+03  0.17300000000E+03 0. -1.
</event>
<event>
 4    1  0.5880538E-001  0.1000000E+03  0.7546771E-02  0.1280296E+00
          3   -1    0    0  502    0  0.00000000000E+00  0.00000000000E+00  0.13200446182E+03  0.13200446182E+03  0.00000000000E+00 0. -1.
         -3   -1    0    0    0  501 -0.00000000000E+00 -0.00000000000E+00 -0.42921845177E+03  0.42921845177E+03  0.00000000000E+00 0.  1.
          6    1    1    2  502    0  0.14150743564E+03  0.81004833099E+02 -0.16273462750E+03  0.28809320768E+03  0.17300000000E+03 0. -1.
         -6    1    1    2    0  501 -0.14150743564E+03 -0.81004833099E+02 -0.13447936245E+03  0.27312970591E+03  0.17300000000E+03 0.  1.
</event>
<event>
 4    1  0.5880538E-001  0.1000000E+03  0.7546771E-02  0.1280296E+00
         -1   -1    0    0    0  501 -0.00000000000E+00  0.00000000000E+00  0.43265914673E+03  0.43265914673E+03  0.00000000000E+00 0. -1.
          1   -1    0    0  502    0  0.00000000000E+00 -0.00000000000E+00 -0.11911568140E+03  0.11911568140E+03  0.00000000000E+00 0.  1.
          6    1    1    2  502    0 -0.11317251765E+03 -0.77311384025E+01  0.27038334737E+03  0.34044668273E+03  0.17300000000E+03 0.  1.
         -6    1    1    2    0  501  0.11317251765E+03  0.77311384025E+01  0.43160117966E+02  0.21132814539E+03  0.17300000000E+03 0. -1.
</event>
<event>
 4    1  0.5880538E-001  0.1000000E+03  0.7546771E-02  0.1280296E+00
         -2   -1    0    0    0  501 -0.00000000000E+00  0.00000000000E+00  0.11740651144E+03  0.11740651144E+03  0.00000000000E+00 0. -1.
          2   -1    0    0  502    0  0.00000000000E+00 -0.00000000000E+00 -0.10623658300E+04  0.10623658300E+04  0.00000000000E+00 0.  1.
          6    1    1    2  502    0 -0.50258255808E+02 -0.28747323121E+03 -0.63641173610E+03  0.72119043864E+03  0.17300000000E+03 0.  1.
         -6    1    1    2    0  501  0.50258255808E+02  0.28747323121E+03 -0.30854758248E+03  0.45858190282E+03  0.17300000000E+03 0. -1.
</event>
<event>
 4    1  0.5880538E-001  0.1000000E+03  0.7546771E-02  0.1280296E+00
         -1   -1    0    0    0  501 -0.00000000000E+00  0.00000000000E+00  0.10161202932E+03  0.10161202932E+03  0.00000000000E+00 0. -1.
          1   -1    0    0  502    0  0.00000000000E+00 -0.00000000000E+00 -0.42755988320E+03  0.42755988320E+03  0.00000000000E+00 0.  1.
          6    1    1    2  502    0 -0.47881147687E+02  0.10438814344E+03 -0.18591934476E+03  0.27871937778E+03  0.17300000000E+03 0.  1.
         -6    1    1    2    0  501  0.47881147687E+02 -0.10438814344E+03 -0.14002850912E+03  0.25045253474E+03  0.17300000000E+03 0. -1.
</event>
<event>
 4    1  0.5880538E-001  0.1000000E+03  0.7546771E-02  0.1280296E+00
         -2   -1    0    0    0  501 -0.00000000000E+00  0.00000000000E+00  0.60803284477E+02  0.60803284477E+02  0.00000000000E+00 0. -1.
          2   -1    0    0  502    0  0.00000000000E+00 -0.00000000000E+00 -0.17977371238E+04  0.17977371238E+04  0.00000000000E+00 0.  1.
          6    1    1    2  502    0  0.20686683580E+03 -0.18983369588E+03 -0.80263385757E+03  0.86774467971E+03  0.17300000000E+03 0.  1.
         -6    1    1    2    0  501 -0.20686683580E+03  0.18983369588E+03 -0.93429998173E+03  0.99079572854E+03  0.17300000000E+03 0. -1.
</event>
<event>
 4    1  0.5880538E-001  0.1000000E+03  0.7546771E-02  0.1280296E+00
         -2   -1    0    0    0  501 -0.00000000000E+00  0.00000000000E+00  0.18676588505E+03  0.18676588505E+03  0.00000000000E+00 0. -1.
          2   -1    0    0  502    0  0.00000000000E+00 -0.00000000000E+00 -0.25349691991E+03  0.25349691991E+03  0.00000000000E+00 0.  1.
          6    1    1    2  502    0 -0.12477201303E+03  0.96978854819E+01 -0.75729457768E+02  0.22655254355E+03  0.17300000000E+03 0.  1.
         -6    1    1    2    0  501  0.12477201303E+03 -0.96978854819E+01  0.89984229089E+01  0.21371026141E+03  0.17300000000E+03 0. -1.
</event>
<event>
 4    1  0.5880538E-001  0.1000000E+03  0.7546771E-02  0.1280296E+00
          2   -1    0    0  502    0  0.00000000000E+00  0.00000000000E+00  0.43976856701E+04  0.43976856701E+04  0.00000000000E+00 0. -1.
         -2   -1    0    0    0  501 -0.00000000000E+00 -0.00000000000E+00 -0.20902049697E+02  0.20902049697E+02  0.00000000000E+00 0.  1.
          6    1    1    2  502    0 -0.62361878689E+02  0.71271659770E+02  0.51044161228E+03  0.54721868841E+03  0.17300000000E+03 0. -1.
         -6    1    1    2    0  501  0.62361878689E+02 -0.71271659770E+02  0.38663420082E+04  0.38713690314E+04  0.17300000000E+03 0.  1.
</event>
<event>
 4    1  0.5880538E-001  0.1000000E+03  0.7546771E-02  0.1280296E+00
          2   -1    0    0  502    0  0.00000000000E+00  0.00000000000E+00  0.23851724905E+03  0.23851724905E+03  0.00000000000E+00 0. -1.
         -2   -1    0    0    0  501 -0.00000000000E+00 -0.00000000000E+00 -0.17624945121E+03  0.17624945121E+03  0.00000000000E+00 0.  1.
          6    1    1    2  502    0 -0.20670230481E+02  0.46363449499E+01  0.14035685002E+03  0.22378069503E+03  0.17300000000E+03 0. -1.
         -6    1    1    2    0  501  0.20670230481E+02 -0.46363449499E+01 -0.78089052185E+02  0.19098600523E+03  0.17300000000E+03 0.  1.
</event>
<event>
 4    1  0.5880538E-001  0.1000000E+03  0.7546771E-02  0.1280296E+00
          1   -1    0    0  502    0  0.00000000000E+00  0.00000000000E+00  0.26390428888E+03  0.26390428888E+03  0.00000000000E+00 0. -1.
         -1   -1    0    0    0  501 -0.00000000000E+00 -0.00000000000E+00 -0.14832786346E+03  0.14832786346E+03  0.00000000000E+00 0.  1.
          6    1    1    2  502    0  0.54414010817E+01  0.39878713721E+02  0.14858149198E+03  0.23157154491E+03  0.17300000000E+03 0.  1.
         -6    1    1    2    0  501 -0.54414010817E+01 -0.39878713721E+02 -0.33005066562E+02  0.18066060742E+03  0.17300000000E+03 0. -1.
</event>
<event>
 4    1  0.5880538E-001  0.1000000E+03  0.7546771E-02  0.1280296E+00
          2   -1    0    0  502    0  0.00000000000E+00  0.00000000000E+00  0.39126650374E+03  0.39126650374E+03  0.00000000000E+00 0. -1.
         -2   -1    0    0    0  501 -0.00000000000E+00 -0.00000000000E+00 -0.11326379708E+03  0.11326379708E+03  0.00000000000E+00 0.  1.
          6    1    1    2  502    0  0.81865044969E+02  0.33026736599E+02  0.23631465201E+03  0.30588603380E+03  0.17300000000E+03 0.  1.
         -6    1    1    2    0  501 -0.81865044969E+02 -0.33026736599E+02  0.41688054654E+02  0.19864426702E+03  0.17300000000E+03 0. -1.
</event>
<event>
 4    1  0.5880538E-001  0.1000000E+03  0.7546771E-02  0.1280296E+00
         -3   -1    0    0    0  501 -0.00000000000E+00  0.00000000000E+00  0.20490112000E+03  0.20490112000E+03  0.00000000000E+00 0. -1.
          3   -1    0    0  502    0  0.00000000000E+00 -0.00000000000E+00 -0.21634041878E+03  0.21634041878E+03  0.00000000000E+00 0.  1.
          6    1    1    2  502    0  0.66028692668E+00  0.50659681860E+02 -0.11453732809E+03  0.21357583869E+03  0.17300000000E+03 0.  1.
         -6    1    1    2    0  501 -0.66028692668E+00 -0.50659681860E+02  0.10309802931E+03  0.20766570009E+03  0.17300000000E+03 0.  1.
</event>
<event>
 4    1  0.5880538E-001  0.1000000E+03  0.7546771E-02  0.1280296E+00
          4   -1    0    0  502    0  0.00000000000E+00  0.00000000000E+00  0.13486207174E+03  0.13486207174E+03  0.00000000000E+00 0. -1.
         -4   -1    0    0    0  501 -0.00000000000E+00 -0.00000000000E+00 -0.49509706272E+03  0.49509706272E+03  0.00000000000E+00 0.  1.
          6    1    1    2  502    0  0.17550816432E+03  0.15779660197E+02 -0.27286087054E+03  0.36801381508E+03  0.17300000000E+03 0.  1.
         -6    1    1    2    0  501 -0.17550816432E+03 -0.15779660197E+02 -0.87374120440E+02  0.26194531937E+03  0.17300000000E+03 0. -1.
</event>
<event>
 4    1  0.5880538E-001  0.1000000E+03  0.7546771E-02  0.1280296E+00
          2   -1    0    0  502    0  0.00000000000E+00  0.00000000000E+00  0.30932978323E+04  0.30932978323E+04  0.00000000000E+00 0.  1.
         -2   -1    0    0    0  501 -0.00000000000E+00 -0.00000000000E+00 -0.47975355886E+02  0.47975355886E+02  0.00000000000E+00 0. -1.
          6    1    1    2  502    0 -0.11661475674E+02 -0.29975189929E+03  0.83453121080E+03  0.90352561278E+03  0.17300000000E+03 0.  1.
         -6    1    1    2    0  501  0.11661475674E+02  0.29975189929E+03  0.22107912656E+04  0.22377475754E+04  0.17300000000E+03 0. -1.
</event>
<event>
 4    1  0.5880538E-001  0.1000000E+03  0.7546771E-02  0.1280296E+00
          1   -1    0    0  502    0  0.00000000000E+00  0.00000000000E+00  0.16537001904E+03  0.16537001904E+03  0.00000000000E+00 0.  1.
         -1   -1    0    0    0  501 -0.00000000000E+00 -0.00000000000E+00 -0.29941551310E+03  0.29941551310E+03  0.00000000000E+00 0. -1.
          6    1    1    2  502    0 -0.64026221530E+02  0.86495918342E+01  0.62627983106E+02  0.19500111987E+03  0.17300000000E+03 0.  1.
         -6    1    1    2    0  501  0.64026221530E+02 -0.86495918342E+01 -0.19667347716E+03  0.26978441227E+03  0.17300000000E+03 0. -1.
</event>
<event>
 4    1  0.5880538E-001  0.1000000E+03  0.7546771E-02  0.1280296E+00
          2   -1    0    0  502    0  0.00000000000E+00  0.00000000000E+00  0.12402569347E+03  0.12402569347E+03  0.00000000000E+00 0.  1.
         -2   -1    0    0    0  501 -0.00000000000E+00 -0.00000000000E+00 -0.27968658821E+03  0.27968658821E+03  0.00000000000E+00 0. -1.
          6    1    1    2  502    0 -0.43495592666E+02 -0.50942507300E+02 -0.95715409722E+02  0.20875211446E+03  0.17300000000E+03 0.  1.
         -6    1    1    2    0  501  0.43495592666E+02  0.50942507300E+02 -0.59945485020E+02  0.19496016723E+03  0.17300000000E+03 0. -1.
</event>
<event>
 4    1  0.5880538E-001  0.1000000E+03  0.7546771E-02  0.1280296E+00
         -1   -1    0    0    0  501 -0.00000000000E+00  0.00000000000E+00  0.12940711951E+02  0.12940711951E+02  0.00000000000E+00 0. -1.
          1   -1    0    0  502    0  0.00000000000E+00 -0.00000000000E+00 -0.38164346740E+04  0.38164346740E+04  0.00000000000E+00 0.  1.
          6    1    1    2  502    0 -0.13882359820E+03 -0.81688975093E-01 -0.17841235304E+04  0.17978592186E+04  0.17300000000E+03 0.  1.
         -6    1    1    2    0  501  0.13882359820E+03  0.81688975093E-01 -0.20193704316E+04  0.20315161673E+04  0.17300000000E+03 0. -1.
</event>
<event>
 4    1  0.5880538E-001  0.1000000E+03  0.7546771E-02  0.1280296E+00
         -1   -1    0    0    0  501 -0.00000000000E+00  0.00000000000E+00  0.19492273603E+02  0.19492273603E+02  0.00000000000E+00 0. -1.
          1   -1    0    0  502    0  0.00000000000E+00 -0.00000000000E+00 -0.17344600628E+04  0.17344600628E+04  0.00000000000E+00 0.  1.
          6    1    1    2  502    0  0.51542643969E+01  0.40140155501E+00 -0.11535338635E+04  0.11664459275E+04  0.17300000000E+03 0.  1.
         -6    1    1    2    0  501 -0.51542643969E+01 -0.40140155501E+00 -0.56143392570E+03  0.58750640889E+03  0.17300000000E+03 0. -1.
</event>
<event>
 4    1  0.5880538E-001  0.1000000E+03  0.7546771E-02  0.1280296E+00
         -2   -1    0    0    0  501 -0.00000000000E+00  0.00000000000E+00  0.66412110560E+02  0.66412110560E+02  0.00000000000E+00 0. -1.
          2   -1    0    0  502    0  0.00000000000E+00 -0.00000000000E+00 -0.99621973227E+03  0.99621973227E+03  0.00000000000E+00 0.  1.
          6    1    1    2  502    0  0.49972537576E+02  0.17063950940E+02 -0.84265711590E+03  0.86185175518E+03  0.17300000000E+03 0.  1.
         -6    1    1    2    0  501 -0.49972537576E+02 -0.17063950940E+02 -0.87150505813E+02  0.20078008765E+03  0.17300000000E+03 0. -1.
</event>
<event>
 4    1  0.5880538E-001  0.1000000E+03  0.7546771E-02  0.1280296E+00
          2   -1    0    0  502    0  0.00000000000E+00  0.00000000000E+00  0.73708166760E+03  0.73708166760E+03  0.00000000000E+00 0.  1.
         -2   -1    0    0    0  501 -0.00000000000E+00 -0.00000000000E+00 -0.71566240532E+02  0.71566240532E+02  0.00000000000E+00 0. -1.
          6    1    1    2  502    0  0.49078213237E+02 -0.12118869746E+03  0.19954816145E+03  0.29469278943E+03  0.17300000000E+03 0. -1.
         -6    1    1    2    0  501 -0.49078213237E+02  0.12118869746E+03  0.46596726562E+03  0.51395511870E+03  0.17300000000E+03 0.  1.
</event>
<event>
 4    1  0.5880538E-001  0.1000000E+03  0.7546771E-02  0.1280296E+00
          2   -1    0    0  502    0  0.00000000000E+00  0.00000000000E+00  0.58027659997E+03  0.58027659997E+03  0.00000000000E+00 0.  1.
         -2   -1    0    0    0  501 -0.00000000000E+00 -0.00000000000E+00 -0.76894558182E+02  0.76894558182E+02  0.00000000000E+00 0. -1.
          6    1    1    2  502    0 -0.75185553879E+02 -0.73313733540E+02  0.34584135914E+03  0.40070315288E+03  0.17300000000E+03 0. -1.
         -6    1    1    2    0  501  0.75185553879E+02  0.73313733540E+02  0.15754068265E+03  0.25646800527E+03  0.17300000000E+03 0.  1.
</event>
<event>
 4    1  0.5880538E-001  0.1000000E+03  0.7546771E-02  0.1280296E+00
          2   -1    0    0  502    0  0.00000000000E+00  0.00000000000E+00  0.15155216526E+04  0.15155216526E+04  0.00000000000E+00 0.  1.
         -2   -1    0    0    0  501 -0.00000000000E+00 -0.00000000000E+00 -0.83436371817E+02  0.83436371817E+02  0.00000000000E+00 0. -1.
          6    1    1    2  502    0  0.26560977243E+03  0.13551502971E+03  0.91214215048E+03  0.97511290483E+03  0.17300000000E+03 0.  1.
         -6    1    1    2    0  501 -0.26560977243E+03 -0.13551502971E+03  0.51994313033E+03  0.62384511961E+03  0.17300000000E+03 0. -1.
</event>
<event>
 4    1  0.5880538E-001  0.1000000E+03  0.7546771E-02  0.1280296E+00
          2   -1    0    0  502    0  0.00000000000E+00  0.00000000000E+00  0.33264055929E+04  0.33264055929E+04  0.00000000000E+00 0.  1.
         -2   -1    0    0    0  501 -0.00000000000E+00 -0.00000000000E+00 -0.11487727478E+02  0.11487727478E+02  0.00000000000E+00 0. -1.
          6    1    1    2  502    0  0.17669622481E+02  0.53770684282E+02  0.22659919335E+04  0.22732909943E+04  0.17300000000E+03 0.  1.
         -6    1    1    2    0  501 -0.17669622481E+02 -0.53770684282E+02  0.10489259319E+04  0.10646023260E+04  0.17300000000E+03 0. -1.
</event>
<event>
 4    1  0.5880538E-001  0.1000000E+03  0.7546771E-02  0.1280296E+00
          2   -1    0    0  502    0  0.00000000000E+00  0.00000000000E+00  0.59115503207E+03  0.59115503207E+03  0.00000000000E+00 0. -1.
         -2   -1    0    0    0  501 -0.00000000000E+00 -0.00000000000E+00 -0.90362619897E+02  0.90362619897E+02  0.00000000000E+00 0.  1.
          6    1    1    2  502    0  0.56100560476E+02  0.69630584831E+02  0.66878256471E+02  0.20590627095E+03  0.17300000000E+03 0.  1.
         -6    1    1    2    0  501 -0.56100560476E+02 -0.69630584831E+02  0.43391415570E+03  0.47561138101E+03  0.17300000000E+03 0. -1.
</event>
<event>
 4    1  0.5880538E-001  0.1000000E+03  0.7546771E-02  0.1280296E+00
          2   -1    0    0  502    0  0.00000000000E+00  0.00000000000E+00  0.33821235242E+03  0.33821235242E+03  0.00000000000E+00 0. -1.
         -2   -1    0    0    0  501 -0.00000000000E+00 -0.00000000000E+00 -0.11462196941E+03  0.11462196941E+03  0.00000000000E+00 0.  1.
          6    1    1    2  502    0 -0.83886848947E+02 -0.39681837931E+02  0.94510864960E+02  0.21788289351E+03  0.17300000000E+03 0.  1.
         -6    1    1    2    0  501  0.83886848947E+02  0.39681837931E+02  0.12907951806E+03  0.23495142832E+03  0.17300000000E+03 0. -1.
</event>
<event>
 4    1  0.5880538E-001  0.1000000E+03  0.7546771E-02  0.1280296E+00
         -1   -1    0    0    0  501 -0.00000000000E+00  0.00000000000E+00  0.73046950174E+02  0.73046950174E+02  0.00000000000E+00 0.  1.
          1   -1    0    0  502    0  0.00000000000E+00 -0.00000000000E+00 -0.70307190398E+03  0.70307190398E+03  0.00000000000E+00 0. -1.
          6    1    1    2  502    0  0.13921047770E+03  0.35534286919E+02 -0.26700455245E+03  0.34908834652E+03  0.17300000000E+03 0.  1.
         -6    1    1    2    0  501 -0.13921047770E+03 -0.35534286919E+02 -0.36302040136E+03  0.42703050764E+03  0.17300000000E+03 0. -1.
</event>
<event>
 4    1  0.5880538E-001  0.1000000E+03  0.7546771E-02  0.1280296E+00
         -2   -1    0    0    0  501 -0.00000000000E+00  0.00000000000E+00  0.60875491574E+02  0.60875491574E+02  0.00000000000E+00 0.  1.
          2   -1    0    0  502    0  0.00000000000E+00 -0.00000000000E+00 -0.68184149948E+03  0.68184149948E+03  0.00000000000E+00 0. -1.
          6    1    1    2  502    0  0.95900749150E+02  0.47246654959E+02 -0.28821569483E+03  0.35274138804E+03  0.17300000000E+03 0. -1.
         -6    1    1    2    0  501 -0.95900749150E+02 -0.47246654959E+02 -0.33275031308E+03  0.38997560302E+03  0.17300000000E+03 0.  1.
</event>
<event>
 4    1  0.5880538E-001  0.1000000E+03  0.7546771E-02  0.1280296E+00
         -1   -1    0    0    0  501 -0.00000000000E+00  0.00000000000E+00  0.20483567534E+03  0.20483567534E+03  0.00000000000E+00 0. -1.
          1   -1    0    0  502    0  0.00000000000E+00 -0.00000000000E+00 -0.24590335824E+03  0.24590335824E+03  0.00000000000E+00 0.  1.
          6    1    1    2  502    0  0.33178712488E+02 -0.13625925090E+03 -0.48459525163E+02  0.22791387847E+03  0.17300000000E+03 0. -1.
         -6    1    1    2    0  501 -0.33178712488E+02  0.13625925090E+03  0.73918422539E+01  0.22282515511E+03  0.17300000000E+03 0. -1.
</event>
<event>
 4    1  0.5880538E-001  0.1000000E+03  0.7546771E-02  0.1280296E+00
         -2   -1    0    0    0  501 -0.00000000000E+00  0.00000000000E+00  0.88982935157E+02  0.88982935157E+02  0.00000000000E+00 0. -1.
          2   -1    0    0  502    0  0.00000000000E+00 -0.00000000000E+00 -0.60009685317E+03  0.60009685317E+03  0.00000000000E+00 0.  1.
          6    1    1    2  502    0 -0.46697177470E+01  0.42451218257E+01 -0.48377893982E+03  0.51381990029E+03  0.17300000000E+03 0.  1.
         -6    1    1    2    0  501  0.46697177470E+01 -0.42451218257E+01 -0.27334978201E+02  0.17525988804E+03  0.17300000000E+03 0. -1.
</event>
<event>
 4    1  0.5880538E-001  0.1000000E+03  0.7546771E-02  0.1280296E+00
         -2   -1    0    0    0  501 -0.00000000000E+00  0.00000000000E+00  0.57459198325E+02  0.57459198325E+02  0.00000000000E+00 0.  1.
          2   -1    0    0  502    0  0.00000000000E+00 -0.00000000000E+00 -0.77515858425E+03  0.77515858425E+03  0.00000000000E+00 0. -1.
          6    1    1    2  502    0 -0.60237858628E+02 -0.93396936758E+02 -0.45261399291E+03  0.49713178734E+03  0.17300000000E+03 0.  1.
         -6    1    1    2    0  501  0.60237858628E+02  0.93396936758E+02 -0.26508539301E+03  0.33548599523E+03  0.17300000000E+03 0. -1.
</event>
<event>
 4    1  0.5880538E-001  0.1000000E+03  0.7546771E-02  0.1280296E+00
          2   -1    0    0  502    0  0.00000000000E+00  0.00000000000E+00  0.96271032575E+03  0.96271032575E+03  0.00000000000E+00 0. -1.
         -2   -1    0    0    0  501 -0.00000000000E+00 -0.00000000000E+00 -0.42497171731E+02  0.42497171731E+02  0.00000000000E+00 0.  1.
          6    1    1    2  502    0 -0.68860018513E+02  0.13894386099E+02  0.65336092487E+03  0.67951766295E+03  0.17300000000E+03 0.  1.
         -6    1    1    2    0  501  0.68860018513E+02 -0.13894386099E+02  0.26685222915E+03  0.32568983453E+03  0.17300000000E+03 0. -1.
</event>
<event>
 4    1  0.5880538E-001  0.1000000E+03  0.7546771E-02  0.1280296E+00
         -3   -1    0    0    0  501 -0.00000000000E+00  0.00000000000E+00  0.12560844258E+04  0.12560844258E+04  0.00000000000E+00 0. -1.
          3   -1    0    0  502    0  0.00000000000E+00 -0.00000000000E+00 -0.28956018290E+02  0.28956018290E+02  0.00000000000E+00 0.  1.
          6    1    1    2  502    0  0.68459244619E+02  0.12951611660E+02  0.74781122492E+03  0.77071722476E+03  0.17300000000E+03 0.  1.
         -6    1    1    2    0  501 -0.68459244619E+02 -0.12951611660E+02  0.47931718256E+03  0.51432321930E+03  0.17300000000E+03 0.  1.
</event>
<event>
 4    1  0.5880538E-001  0.1000000E+03  0.7546771E-02  0.1280296E+00
          2   -1    0    0  502    0  0.00000000000E+00  0.00000000000E+00  0.55082089610E+03  0.55082089610E+03  0.00000000000E+00 0. -1.
         -2   -1    0    0    0  501 -0.00000000000E+00 -0.00000000000E+00 -0.11436222752E+03  0.11436222752E+03  0.00000000000E+00 0.  1.
          6    1    1    2  502    0  0.65664205991E+02  0.99537735283E+02  0.36318873470E+02  0.21323135150E+03  0.17300000000E+03 0. -1.
         -6    1    1    2    0  501 -0.65664205991E+02 -0.99537735283E+02  0.40013979511E+03  0.45195177212E+03  0.17300000000E+03 0.  1.
</event>
<event>
 4    1  0.5880538E-001  0.1000000E+03  0.7546771E-02  0.1280296E+00
         -1   -1    0    0    0  501 -0.00000000000E+00  0.00000000000E+00  0.18279136147E+03  0.18279136147E+03  0.00000000000E+00 0. -1.
          1   -1    0    0  502    0  0.00000000000E+00 -0.00000000000E+00 -0.61335428317E+03  0.61335428317E+03  0.00000000000E+00 0.  1.
          6    1    1    2  502    0 -0.13924193467E+03  0.20858852030E+03 -0.38039705709E+03  0.48736886258E+03  0.17300000000E+03 0.  1.
         -6    1    1    2    0  501  0.13924193467E+03 -0.20858852030E+03 -0.50165864613E+02  0.30877678207E+03  0.17300000000E+03 0. -1.
</event>
<event>
 4    1  0.5880538E-001  0.1000000E+03  0.7546771E-02  0.1280296E+00
         -2   -1    0    0    0  501 -0.00000000000E+00  0.00000000000E+00  0.75508388249E+02  0.75508388249E+02  0.00000000000E+00 0. -1.
          2   -1    0    0  502    0  0.00000000000E+00 -0.00000000000E+00 -0.58486937044E+03  0.58486937044E+03  0.00000000000E+00 0.  1.
          6    1    1    2  502    0 -0.43116602634E+02  0.10754157475E+03 -0.29937903060E+03  0.36466564917E+03  0.17300000000E+03 0.  1.
         -6    1    1    2    0  501  0.43116602634E+02 -0.10754157475E+03 -0.20998195159E+03  0.29571210952E+03  0.17300000000E+03 0. -1.
</event>
<event>
 4    1  0.5880538E-001  0.1000000E+03  0.7546771E-02  0.1280296E+00
         -2   -1    0    0    0  501 -0.00000000000E+00  0.00000000000E+00  0.73282021626E+02  0.73282021626E+02  0.00000000000E+00 0. -1.
          2   -1    0    0  502    0  0.00000000000E+00 -0.00000000000E+00 -0.76876287542E+03  0.76876287542E+03  0.00000000000E+00 0.  1.
          6    1    1    2  502    0 -0.13572680052E+03 -0.85236210384E+02 -0.30012651436E+03  0.38169608403E+03  0.17300000000E+03 0. -1.
         -6    1    1    2    0  501  0.13572680052E+03  0.85236210384E+02 -0.39535433944E+03  0.46034881302E+03  0.17300000000E+03 0.  1.
</event>
<event>
 4    1  0.5880538E-001  0.1000000E+03  0.7546771E-02  0.1280296E+00
         -2   -1    0    0    0  501 -0.00000000000E+00  0.00000000000E+00  0.43786441516E+02  0.43786441516E+02  0.00000000000E+00 0. -1.
          2   -1    0    0  502    0  0.00000000000E+00 -0.00000000000E+00 -0.82257121020E+03  0.82257121020E+03  0.00000000000E+00 0.  1.
          6    1    1    2  502    0  0.53252225482E+02 -0.31863209178E+02 -0.28142745434E+03  0.33612717188E+03  0.17300000000E+03 0. -1.
         -6    1    1    2    0  501 -0.53252225482E+02  0.31863209178E+02 -0.49735731435E+03  0.53023047984E+03  0.17300000000E+03 0.  1.
</event>
<event>
 4    1  0.5880538E-001  0.1000000E+03  0.7546771E-02  0.1280296E+00
          2   -1    0    0  502    0  0.00000000000E+00  0.00000000000E+00  0.41651179387E+03  0.41651179387E+03  0.00000000000E+00 0. -1.
         -2   -1    0    0    0  501 -0.00000000000E+00 -0.00000000000E+00 -0.18496570511E+03  0.18496570511E+03  0.00000000000E+00 0.  1.
          6    1    1    2  502    0 -0.14010979067E+03  0.16128753548E+03  0.74273674526E+02  0.28476306163E+03  0.17300000000E+03 0.  1.
         -6    1    1    2    0  501  0.14010979067E+03 -0.16128753548E+03  0.15727241424E+03  0.31671443735E+03  0.17300000000E+03 0.  1.
</event>
<event>
 4    1  0.5880538E-001  0.1000000E+03  0.7546771E-02  0.1280296E+00
          2   -1    0    0  502    0  0.00000000000E+00  0.00000000000E+00  0.12150394178E+04  0.12150394178E+04  0.00000000000E+00 0. -1.
         -2   -1    0    0    0  501 -0.00000000000E+00 -0.00000000000E+00 -0.47529856629E+02  0.47529856629E+02  0.00000000000E+00 0.  1.
          6    1    1    2  502    0  0.10641872463E+03  0.21657316629E+02  0.91632389433E+03  0.93881439253E+03  0.17300000000E+03 0. -1.
         -6    1    1    2    0  501 -0.10641872463E+03 -0.21657316629E+02  0.25118566681E+03  0.32375488185E+03  0.17300000000E+03 0.  1.
</event>
<event>
 4    1  0.5880538E-001  0.1000000E+03  0.7546771E-02  0.1280296E+00
         -1   -1    0    0    0  501 -0.00000000000E+00  0.00000000000E+00  0.35206751507E+02  0.35206751507E+02  0.00000000000E+00 0. -1.
          1   -1    0    0  502    0  0.00000000000E+00 -0.00000000000E+00 -0.90101918976E+03  0.90101918976E+03  0.00000000000E+00 0.  1.
          6    1    1    2  502    0  0.12496900085E+02  0.35160452922E+02 -0.48550643513E+03  0.51675712720E+03  0.17300000000E+03 0.  1.
         -6    1    1    2    0  501 -0.12496900085E+02 -0.35160452922E+02 -0.38030600312E+03  0.41946881406E+03  0.17300000000E+03 0.  1.
</event>
<event>
 4    1  0.5880538E-001  0.1000000E+03  0.7546771E-02  0.1280296E+00
         -1   -1    0    0    0  501 -0.00000000000E+00  0.00000000000E+00  0.51989115225E+02  0.51989115225E+02  0.00000000000E+00 0. -1.
          1   -1    0    0  502    0  0.00000000000E+00 -0.00000000000E+00 -0.71028130072E+03  0.71028130072E+03  0.00000000000E+00 0.  1.
          6    1    1    2  502    0 -0.70556334723E+02  0.44601942419E+02 -0.34007575676E+03  0.39057400064E+03  0.17300000000E+03 0.  1.
         -6    1    1    2    0  501  0.70556334723E+02 -0.44601942419E+02 -0.31821642874E+03  0.37169641531E+03  0.17300000000E+03 0.  1.
</event>
<event>
 4    1  0.5880538E-001  0.1000000E+03  0.7546771E-02  0.1280296E+00
         -2   -1    0    0    0  501 -0.00000000000E+00  0.00000000000E+00  0.72198806796E+02  0.72198806796E+02  0.00000000000E+00 0. -1.
          2   -1    0    0  502    0  0.00000000000E+00 -0.00000000000E+00 -0.44319079460E+03  0.44319079460E+03  0.00000000000E+00 0.  1.
          6    1    1    2  502    0  0.12238632888E+02 -0.20075955869E+02 -0.12940443389E+03  0.21731851198E+03  0.17300000000E+03 0.  1.
         -6    1    1    2    0  501 -0.12238632888E+02  0.20075955869E+02 -0.24158755392E+03  0.29807108942E+03  0.17300000000E+03 0.  1.
</event>
<event>
 4    1  0.5880538E-001  0.1000000E+03  0.7546771E-02  0.1280296E+00
          2   -1    0    0  502    0  0.00000000000E+00  0.00000000000E+00  0.22589310753E+04  0.22589310753E+04  0.00000000000E+00 0. -1.
         -2   -1    0    0    0  501 -0.00000000000E+00 -0.00000000000E+00 -0.26661896547E+02  0.26661896547E+02  0.00000000000E+00 0.  1.
          6    1    1    2  502    0  0.18009722115E+02 -0.17116402676E+03  0.12372886989E+04  0.12611240219E+04  0.17300000000E+03 0. -1.
         -6    1    1    2    0  501 -0.18009722115E+02  0.17116402676E+03  0.99498047982E+03  0.10244689499E+04  0.17300000000E+03 0.  1.
</event>
<event>
 4    1  0.5880538E-001  0.1000000E+03  0.7546771E-02  0.1280296E+00
          1   -1    0    0  502    0  0.00000000000E+00  0.00000000000E+00  0.21523615308E+04  0.21523615308E+04  0.00000000000E+00 0.  1.
         -1   -1    0    0    0  501 -0.00000000000E+00 -0.00000000000E+00 -0.26286863774E+02  0.26286863774E+02  0.00000000000E+00 0. -1.
          6    1    1    2  502    0  0.10053472927E+03  0.79505781586E+02  0.60003193856E+03  0.63749174770E+03  0.17300000000E+03 0. -1.
         -6    1    1    2    0  501 -0.10053472927E+03 -0.79505781586E+02  0.15260427285E+04  0.15411566469E+04  0.17300000000E+03 0.  1.
</event>
<event>
 4    1  0.5880538E-001  0.1000000E+03  0.7546771E-02  0.1280296E+00
          2   -1    0    0  502    0  0.00000000000E+00  0.00000000000E+00  0.15848124717E+04  0.15848124717E+04  0.00000000000E+00 0.  1.
         -2   -1    0    0    0  501 -0.00000000000E+00 -0.00000000000E+00 -0.50200535924E+02  0.50200535924E+02  0.00000000000E+00 0. -1.
          6    1    1    2  502    0 -0.25466746187E+02 -0.28077606118E+02  0.13104108354E+03  0.22031267031E+03  0.17300000000E+03 0. -1.
         -6    1    1    2    0  501  0.25466746187E+02  0.28077606118E+02  0.14035708523E+04  0.14147003373E+04  0.17300000000E+03 0.  1.
</event>
<event>
 4    1  0.5880538E-001  0.1000000E+03  0.7546771E-02  0.1280296E+00
          1   -1    0    0  502    0  0.00000000000E+00  0.00000000000E+00  0.48093221774E+03  0.48093221774E+03  0.00000000000E+00 0.  1.
         -1   -1    0    0    0  501 -0.00000000000E+00 -0.00000000000E+00 -0.14835076636E+03  0.14835076636E+03  0.00000000000E+00 0. -1.
          6    1    1    2  502    0 -0.18378634802E+03  0.54011827398E+02  0.24724438240E+03  0.35742619356E+03  0.17300000000E+03 0. -1.
         -6    1    1    2    0  501  0.18378634802E+03 -0.54011827398E+02  0.85337068993E+02  0.27185679054E+03  0.17300000000E+03 0.  1.
</event>
<event>
 4    1  0.5880538E-001  0.1000000E+03  0.7546771E-02  0.1280296E+00
         -2   -1    0    0    0  501 -0.00000000000E+00  0.00000000000E+00  0.91178831117E+02  0.91178831117E+02  0.00000000000E+00 0.  1.
          2   -1    0    0  502    0  0.00000000000E+00 -0.00000000000E+00 -0.34606965294E+03  0.34606965294E+03  0.00000000000E+00 0. -1.
          6    1    1    2  502    0 -0.28427619792E+02  0.28231166887E+02 -0.13296296924E+03  0.22184066251E+03  0.17300000000E+03 0. -1.
         -6    1    1    2    0  501  0.28427619792E+02 -0.28231166887E+02 -0.12192785258E+03  0.21540782155E+03  0.17300000000E+03 0.  1.
</event>
<event>
 4    1  0.5880538E-001  0.1000000E+03  0.7546771E-02  0.1280296E+00
          1   -1    0    0  502    0  0.00000000000E+00  0.00000000000E+00  0.16533951441E+04  0.16533951441E+04  0.00000000000E+00 0. -1.
         -1   -1    0    0    0  501 -0.00000000000E+00 -0.00000000000E+00 -0.28377546554E+02  0.28377546554E+02  0.00000000000E+00 0.  1.
          6    1    1    2  502    0 -0.44620267401E+02 -0.45167181747E+02  0.12544368494E+04  0.12679005685E+04  0.17300000000E+03 0. -1.
         -6    1    1    2    0  501  0.44620267401E+02  0.45167181747E+02  0.37058074818E+03  0.41387212215E+03  0.17300000000E+03 0.  1.
</event>
<event>
 4    1  0.5880538E-001  0.1000000E+03  0.7546771E-02  0.1280296E+00
          2   -1    0    0  502    0  0.00000000000E+00  0.00000000000E+00  0.38524272527E+02  0.38524272527E+02  0.00000000000E+00 0. -1.
         -2   -1    0    0    0  501 -0.00000000000E+00 -0.00000000000E+00 -0.12368170912E+04  0.12368170912E+04  0.00000000000E+00 0.  1.
          6    1    1    2  502    0  0.32959370719E+02  0.12426198745E+03 -0.49832478113E+03  0.54294009718E+03  0.17300000000E+03 0. -1.
         -6    1    1    2    0  501 -0.32959370719E+02 -0.12426198745E+03 -0.69996803750E+03  0.73240126650E+03  0.17300000000E+03 0. -1.
</event>
<event>
 4    1  0.5880538E-001  0.1000000E+03  0.7546771E-02  0.1280296E+00
          2   -1    0    0  502    0  0.00000000000E+00  0.00000000000E+00  0.17038997204E+04  0.17038997204E+04  0.00000000000E+00 0. -1.
         -2   -1    0    0    0  501 -0.00000000000E+00 -0.00000000000E+00 -0.96059503197E+02  0.96059503197E+02  0.00000000000E+00 0.  1.
          6    1    1    2  502    0  0.31204709045E+03 -0.13816337292E+03  0.51146053889E+03  0.63873577253E+03  0.17300000000E+03 0. -1.
         -6    1    1    2    0  501 -0.31204709045E+03  0.13816337292E+03  0.10963796783E+04  0.11612234510E+04  0.17300000000E+03 0. -1.
</event>
<event>
 4    1  0.5880538E-001  0.1000000E+03  0.7546771E-02  0.1280296E+00
          2   -1    0    0  502    0  0.00000000000E+00  0.00000000000E+00  0.19853805932E+04  0.19853805932E+04  0.00000000000E+00 0.  1.
         -2   -1    0    0    0  501 -0.00000000000E+00 -0.00000000000E+00 -0.37938567800E+03  0.37938567800E+03  0.00000000000E+00 0. -1.
          6    1    1    2  502    0 -0.71567506689E+03  0.87780578958E+02  0.14174255468E+04  0.15996625932E+04  0.17300000000E+03 0. -1.
         -6    1    1    2    0  501  0.71567506689E+03 -0.87780578958E+02  0.18856936842E+03  0.76510367801E+03  0.17300000000E+03 0. -1.
</event>
<event>
 4    1  0.5880538E-001  0.1000000E+03  0.7546771E-02  0.1280296E+00
          2   -1    0    0  502    0  0.00000000000E+00  0.00000000000E+00  0.64931499991E+03  0.64931499991E+03  0.00000000000E+00 0.  1.
         -2   -1    0    0    0  501 -0.00000000000E+00 -0.00000000000E+00 -0.25019155503E+03  0.25019155503E+03  0.00000000000E+00 0. -1.
          6    1    1    2  502    0 -0.33769230750E+03  0.12675751771E+03  0.14466216764E+03  0.42539358903E+03  0.17300000000E+03 0.  1.
         -6    1    1    2    0  501  0.33769230750E+03 -0.12675751771E+03  0.25446127724E+03  0.47411296592E+03  0.17300000000E+03 0. -1.
</event>
<event>
 4    1  0.5880538E-001  0.1000000E+03  0.7546771E-02  0.1280296E+00
         -2   -1    0    0    0  501 -0.00000000000E+00  0.00000000000E+00  0.75089177515E+02  0.75089177515E+02  0.00000000000E+00 0. -1.
          2   -1    0    0  502    0  0.00000000000E+00 -0.00000000000E+00 -0.54618093868E+03  0.54618093868E+03  0.00000000000E+00 0.  1.
          6    1    1    2  502    0  0.34562160785E+02 -0.94476105516E+02 -0.18794591203E+03  0.27454133262E+03  0.17300000000E+03 0.  1.
         -6    1    1    2    0  501 -0.34562160785E+02  0.94476105516E+02 -0.28314584914E+03  0.34672878357E+03  0.17300000000E+03 0. -1.
</event>
<event>
 4    1  0.5880538E-001  0.1000000E+03  0.7546771E-02  0.1280296E+00
         -1   -1    0    0    0  501 -0.00000000000E+00  0.00000000000E+00  0.26135139266E+03  0.26135139266E+03  0.00000000000E+00 0. -1.
          1   -1    0    0  502    0  0.00000000000E+00 -0.00000000000E+00 -0.12236831720E+03  0.12236831720E+03  0.00000000000E+00 0.  1.
          6    1    1    2  502    0 -0.37446804511E+01  0.59108507767E+01  0.11750865016E+03  0.20925162759E+03  0.17300000000E+03 0.  1.
         -6    1    1    2    0  501  0.37446804511E+01 -0.59108507767E+01  0.21474425302E+02  0.17446808227E+03  0.17300000000E+03 0. -1.
</event>
<event>
 4    1  0.5880538E-001  0.1000000E+03  0.7546771E-02  0.1280296E+00
         -1   -1    0    0    0  501 -0.00000000000E+00  0.00000000000E+00  0.21142959923E+03  0.21142959923E+03  0.00000000000E+00 0. -1.
          1   -1    0    0  502    0  0.00000000000E+00 -0.00000000000E+00 -0.17433712308E+03  0.17433712308E+03  0.00000000000E+00 0.  1.
          6    1    1    2  502    0  0.67919796711E+02 -0.21923157887E+02  0.61609556701E+02  0.19702401152E+03  0.17300000000E+03 0.  1.
         -6    1    1    2    0  501 -0.67919796711E+02  0.21923157887E+02 -0.24517080550E+02  0.18874271079E+03  0.17300000000E+03 0. -1.
</event>
<event>
 4    1  0.5880538E-001  0.1000000E+03  0.7546771E-02  0.1280296E+00
          2   -1    0    0  502    0  0.00000000000E+00  0.00000000000E+00  0.87327517463E+03  0.87327517463E+03  0.00000000000E+00 0. -1.
         -2   -1    0    0    0  501 -0.00000000000E+00 -0.00000000000E+00 -0.80922399279E+02  0.80922399279E+02  0.00000000000E+00 0.  1.
          6    1    1    2  502    0 -0.19319620959E+02 -0.17574828588E+03  0.22145241937E+03  0.33201036398E+03  0.17300000000E+03 0. -1.
         -6    1    1    2    0  501  0.19319620959E+02  0.17574828588E+03  0.57090035598E+03  0.62218720994E+03  0.17300000000E+03 0.  1.
</event>
<event>
 4    1  0.5880538E-001  0.1000000E+03  0.7546771E-02  0.1280296E+00
          1   -1    0    0  502    0  0.00000000000E+00  0.00000000000E+00  0.12364533125E+04  0.12364533125E+04  0.00000000000E+00 0. -1.
         -1   -1    0    0    0  501 -0.00000000000E+00 -0.00000000000E+00 -0.73813596308E+03  0.73813596308E+03  0.00000000000E+00 0.  1.
          6    1    1    2  502    0  0.31786508841E+03 -0.60875751482E+02  0.11607052398E+04  0.12173371453E+04  0.17300000000E+03 0. -1.
         -6    1    1    2    0  501 -0.31786508841E+03  0.60875751482E+02 -0.66238789037E+03  0.75725213031E+03  0.17300000000E+03 0.  1.
</event>
<event>
 4    1  0.5880538E-001  0.1000000E+03  0.7546771E-02  0.1280296E+00
          2   -1    0    0  502    0  0.00000000000E+00  0.00000000000E+00  0.50373632035E+03  0.50373632035E+03  0.00000000000E+00 0. -1.
         -2   -1    0    0    0  501 -0.00000000000E+00 -0.00000000000E+00 -0.68820621767E+02  0.68820621767E+02  0.00000000000E+00 0.  1.
          6    1    1    2  502    0 -0.71668182953E+01  0.67773341539E+02  0.23235360822E+03  0.29759332714E+03  0.17300000000E+03 0. -1.
         -6    1    1    2    0  501  0.71668182953E+01 -0.67773341539E+02  0.20256209037E+03  0.27496361498E+03  0.17300000000E+03 0.  1.
</event>
<event>
 4    1  0.5880538E-001  0.1000000E+03  0.7546771E-02  0.1280296E+00
         -2   -1    0    0    0  501 -0.00000000000E+00  0.00000000000E+00  0.22036313527E+02  0.22036313527E+02  0.00000000000E+00 0. -1.
          2   -1    0    0  502    0  0.00000000000E+00 -0.00000000000E+00 -0.15707381875E+04  0.15707381875E+04  0.00000000000E+00 0.  1.
          6    1    1    2  502    0 -0.67772973841E+01 -0.52087444762E+02 -0.58652914254E+03  0.61376255075E+03  0.17300000000E+03 0.  1.
         -6    1    1    2    0  501  0.67772973841E+01  0.52087444762E+02 -0.96217273145E+03  0.97901195029E+03  0.17300000000E+03 0. -1.
</event>
<event>
 4    1  0.5880538E-001  0.1000000E+03  0.7546771E-02  0.1280296E+00
         -2   -1    0    0    0  501 -0.00000000000E+00  0.00000000000E+00  0.10587286338E+03  0.10587286338E+03  0.00000000000E+00 0. -1.
          2   -1    0    0  502    0  0.00000000000E+00 -0.00000000000E+00 -0.10476894283E+04  0.10476894283E+04  0.00000000000E+00 0.  1.
          6    1    1    2  502    0 -0.27196473338E+03  0.67746554128E+02 -0.38538960665E+03  0.50696011748E+03  0.17300000000E+03 0.  1.
         -6    1    1    2    0  501  0.27196473338E+03 -0.67746554128E+02 -0.55642695831E+03  0.64660217424E+03  0.17300000000E+03 0. -1.
</event>
<event>
 4    1  0.5880538E-001  0.1000000E+03  0.7546771E-02  0.1280296E+00
         -2   -1    0    0    0  501 -0.00000000000E+00  0.00000000000E+00  0.61175466949E+02  0.61175466949E+02  0.00000000000E+00 0. -1.
          2   -1    0    0  502    0  0.00000000000E+00 -0.00000000000E+00 -0.73994571524E+03  0.73994571524E+03  0.00000000000E+00 0.  1.
          6    1    1    2  502    0  0.10738103600E+03 -0.28170242681E+02 -0.44273240162E+03  0.48812419415E+03  0.17300000000E+03 0.  1.
         -6    1    1    2    0  501 -0.10738103600E+03  0.28170242681E+02 -0.23603784667E+03  0.31299698805E+03  0.17300000000E+03 0. -1.
</event>
<event>
 4    1  0.5880538E-001  0.1000000E+03  0.7546771E-02  0.1280296E+00
         -2   -1    0    0    0  501 -0.00000000000E+00  0.00000000000E+00  0.19687144456E+03  0.19687144456E+03  0.00000000000E+00 0. -1.
          2   -1    0    0  502    0  0.00000000000E+00 -0.00000000000E+00 -0.19246738239E+03  0.19246738239E+03  0.00000000000E+00 0.  1.
          6    1    1    2  502    0 -0.72793867027E+02 -0.39571067977E+02  0.35332916266E+02  0.19504417825E+03  0.17300000000E+03 0.  1.
         -6    1    1    2    0  501  0.72793867027E+02  0.39571067977E+02 -0.30928854095E+02  0.19429464870E+03  0.17300000000E+03 0. -1.
</event>
<event>
 4    1  0.5880538E-001  0.1000000E+03  0.7546771E-02  0.1280296E+00
         -2   -1    0    0    0  501 -0.00000000000E+00  0.00000000000E+00  0.23803599518E+02  0.23803599518E+02  0.00000000000E+00 0. -1.
          2   -1    0    0  502    0  0.00000000000E+00 -0.00000000000E+00 -0.25930856227E+04  0.25930856227E+04  0.00000000000E+00 0.  1.
          6    1    1    2  502    0  0.12101480218E+03 -0.11254728783E+03 -0.16373144868E+04  0.16547021493E+04  0.17300000000E+03 0.  1.
         -6    1    1    2    0  501 -0.12101480218E+03  0.11254728783E+03 -0.93196753637E+03  0.96218707286E+03  0.17300000000E+03 0. -1.
</event>
<event>
 4    1  0.5880538E-001  0.1000000E+03  0.7546771E-02  0.1280296E+00
         -2   -1    0    0    0  501 -0.00000000000E+00  0.00000000000E+00  0.77179835307E+02  0.77179835307E+02  0.00000000000E+00 0. -1.
          2   -1    0    0  502    0  0.00000000000E+00 -0.00000000000E+00 -0.19670239589E+04  0.19670239589E+04  0.00000000000E+00 0.  1.
          6    1    1    2  502    0 -0.78253168011E+02 -0.95415168824E+02 -0.88211526718E+02  0.23008234654E+03  0.17300000000E+03 0.  1.
         -6    1    1    2    0  501  0.78253168011E+02  0.95415168824E+02 -0.18016325969E+04  0.18141214476E+04  0.17300000000E+03 0. -1.
</event>
<event>
 4    1  0.5880538E-001  0.1000000E+03  0.7546771E-02  0.1280296E+00
         -2   -1    0    0    0  501 -0.00000000000E+00  0.00000000000E+00  0.78612347478E+02  0.78612347478E+02  0.00000000000E+00 0. -1.
          2   -1    0    0  502    0  0.00000000000E+00 -0.00000000000E+00 -0.59773643431E+03  0.59773643431E+03  0.00000000000E+00 0.  1.
          6    1    1    2  502    0 -0.10669083939E+01  0.91147577317E+02 -0.40550406464E+03  0.45019058807E+03  0.17300000000E+03 0.  1.
         -6    1    1    2    0  501  0.10669083939E+01 -0.91147577317E+02 -0.11362002219E+03  0.22615819372E+03  0.17300000000E+03 0. -1.
</event>
<event>
 4    1  0.5880538E-001  0.1000000E+03  0.7546771E-02  0.1280296E+00
         -2   -1    0    0    0  501 -0.00000000000E+00  0.00000000000E+00  0.18510871712E+03  0.18510871712E+03  0.00000000000E+00 0. -1.
          2   -1    0    0  502    0  0.00000000000E+00 -0.00000000000E+00 -0.26313413085E+03  0.26313413085E+03  0.00000000000E+00 0.  1.
          6    1    1    2  502    0  0.11499696521E+03 -0.74473032322E+02 -0.35985409501E+02  0.22359446381E+03  0.17300000000E+03 0.  1.
         -6    1    1    2    0  501 -0.11499696521E+03  0.74473032322E+02 -0.42040004226E+02  0.22464838416E+03  0.17300000000E+03 0. -1.
</event>
<event>
 4    1  0.5880538E-001  0.1000000E+03  0.7546771E-02  0.1280296E+00
         -4   -1    0    0    0  501 -0.00000000000E+00  0.00000000000E+00  0.12496594728E+03  0.12496594728E+03  0.00000000000E+00 0. -1.
          4   -1    0    0  502    0  0.00000000000E+00 -0.00000000000E+00 -0.38329255222E+03  0.38329255222E+03  0.00000000000E+00 0.  1.
          6    1    1    2  502    0 -0.79638536495E+02  0.76014356909E+02 -0.40358625306E+02  0.20899353480E+03  0.17300000000E+03 0.  1.
         -6    1    1    2    0  501  0.79638536495E+02 -0.76014356909E+02 -0.21796797963E+03  0.29926496470E+03  0.17300000000E+03 0. -1.
</event>
<event>
 4    1  0.5880538E-001  0.1000000E+03  0.7546771E-02  0.1280296E+00
         -2   -1    0    0    0  501 -0.00000000000E+00  0.00000000000E+00  0.92561434968E+02  0.92561434968E+02  0.00000000000E+00 0.  1.
          2   -1    0    0  502    0  0.00000000000E+00 -0.00000000000E+00 -0.45882636180E+03  0.45882636180E+03  0.00000000000E+00 0. -1.
          6    1    1    2  502    0 -0.12773494380E+02 -0.59621238497E+02 -0.30879055720E+03  0.35916355948E+03  0.17300000000E+03 0.  1.
         -6    1    1    2    0  501  0.12773494380E+02  0.59621238497E+02 -0.57474369633E+02  0.19222423729E+03  0.17300000000E+03 0. -1.
</event>
<event>
 4    1  0.5880538E-001  0.1000000E+03  0.7546771E-02  0.1280296E+00
         -1   -1    0    0    0  501 -0.00000000000E+00  0.00000000000E+00  0.97755568481E+02  0.97755568481E+02  0.00000000000E+00 0.  1.
          1   -1    0    0  502    0  0.00000000000E+00 -0.00000000000E+00 -0.11293283040E+04  0.11293283040E+04  0.00000000000E+00 0. -1.
          6    1    1    2  502    0  0.67020449398E+02  0.17464875572E+03 -0.12200903676E+03  0.28250510360E+03  0.17300000000E+03 0.  1.
         -6    1    1    2    0  501 -0.67020449398E+02 -0.17464875572E+03 -0.90956369874E+03  0.94457876885E+03  0.17300000000E+03 0. -1.
</event>
<event>
 4    1  0.5880538E-001  0.1000000E+03  0.7546771E-02  0.1280296E+00
         -2   -1    0    0    0  501 -0.00000000000E+00  0.00000000000E+00  0.46935239531E+02  0.46935239531E+02  0.00000000000E+00 0.  1.
          2   -1    0    0  502    0  0.00000000000E+00 -0.00000000000E+00 -0.66706797813E+03  0.66706797813E+03  0.00000000000E+00 0. -1.
          6    1    1    2  502    0 -0.36053995910E+01  0.34668934198E+02 -0.33598776680E+03  0.37951510292E+03  0.17300000000E+03 0. -1.
         -6    1    1    2    0  501  0.36053995910E+01 -0.34668934198E+02 -0.28414497179E+03  0.33448811473E+03  0.17300000000E+03 0.  1.
</event>
<event>
 4    1  0.5880538E-001  0.1000000E+03  0.7546771E-02  0.1280296E+00
         -2   -1    0    0    0  501 -0.00000000000E+00  0.00000000000E+00  0.90931062671E+02  0.90931062671E+02  0.00000000000E+00 0.  1.
          2   -1    0    0  502    0  0.00000000000E+00 -0.00000000000E+00 -0.81338768935E+03  0.81338768935E+03  0.00000000000E+00 0. -1.
          6    1    1    2  502    0  0.12582394662E+03  0.67070868161E+02 -0.61719805803E+03  0.65665257917E+03  0.17300000000E+03 0. -1.
         -6    1    1    2    0  501 -0.12582394662E+03 -0.67070868161E+02 -0.10525856864E+03  0.24766617284E+03  0.17300000000E+03 0.  1.
</event>
<event>
 4    1  0.5880538E-001  0.1000000E+03  0.7546771E-02  0.1280296E+00
         -2   -1    0    0    0  501 -0.00000000000E+00  0.00000000000E+00  0.52746450852E+03  0.52746450852E+03  0.00000000000E+00 0.  1.
          2   -1    0    0  502    0  0.00000000000E+00 -0.00000000000E+00 -0.10694611401E+03  0.10694611401E+03  0.00000000000E+00 0. -1.
          6    1    1    2  502    0  0.15460878669E+03 -0.25843538576E+02  0.15189819320E+03  0.27852078289E+03  0.17300000000E+03 0. -1.
         -6    1    1    2    0  501 -0.15460878669E+03  0.25843538576E+02  0.26862020131E+03  0.35588983964E+03  0.17300000000E+03 0.  1.
</event>
<event>
 4    1  0.5880538E-001  0.1000000E+03  0.7546771E-02  0.1280296E+00
         -2   -1    0    0    0  501 -0.00000000000E+00  0.00000000000E+00  0.18831744816E+03  0.18831744816E+03  0.00000000000E+00 0.  1.
          2   -1    0    0  502    0  0.00000000000E+00 -0.00000000000E+00 -0.29624108727E+03  0.29624108727E+03  0.00000000000E+00 0. -1.
          6    1    1    2  502    0 -0.68275345386E+02  0.79268408796E+02 -0.17922865554E+03  0.27017941148E+03  0.17300000000E+03 0. -1.
         -6    1    1    2    0  501  0.68275345386E+02 -0.79268408796E+02  0.71305016428E+02  0.21437912396E+03  0.17300000000E+03 0.  1.
</event>
<event>
 4    1  0.5880538E-001  0.1000000E+03  0.7546771E-02  0.1280296E+00
         -2   -1    0    0    0  501 -0.00000000000E+00  0.00000000000E+00  0.70161195870E+02  0.70161195870E+02  0.00000000000E+00 0. -1.
          2   -1    0    0  502    0  0.00000000000E+00 -0.00000000000E+00 -0.79457760082E+03  0.79457760082E+03  0.00000000000E+00 0.  1.
          6    1    1    2  502    0 -0.47315103883E+02  0.10201751311E+03 -0.57238477917E+03  0.60844032367E+03  0.17300000000E+03 0.  1.
         -6    1    1    2    0  501  0.47315103883E+02 -0.10201751311E+03 -0.15203162578E+03  0.25629847302E+03  0.17300000000E+03 0. -1.
</event>
<event>
 4    1  0.5880538E-001  0.1000000E+03  0.7546771E-02  0.1280296E+00
         -3   -1    0    0    0  501 -0.00000000000E+00  0.00000000000E+00  0.24315443980E+03  0.24315443980E+03  0.00000000000E+00 0. -1.
          3   -1    0    0  502    0  0.00000000000E+00 -0.00000000000E+00 -0.22368820827E+03  0.22368820827E+03  0.00000000000E+00 0.  1.
          6    1    1    2  502    0  0.21655940108E+02 -0.37259972958E+02  0.16021190616E+03  0.23969593280E+03  0.17300000000E+03 0.  1.
         -6    1    1    2    0  501 -0.21655940108E+02  0.37259972958E+02 -0.14074567463E+03  0.22714671526E+03  0.17300000000E+03 0. -1.
</event>
<event>
 4    1  0.5880538E-001  0.1000000E+03  0.7546771E-02  0.1280296E+00
          2   -1    0    0  502    0  0.00000000000E+00  0.00000000000E+00  0.89723474161E+03  0.89723474161E+03  0.00000000000E+00 0. -1.
         -2   -1    0    0    0  501 -0.00000000000E+00 -0.00000000000E+00 -0.11898229974E+03  0.11898229974E+03  0.00000000000E+00 0.  1.
          6    1    1    2  502    0  0.36815280406E+02  0.21810370051E+03  0.12936414118E+03  0.30917417433E+03  0.17300000000E+03 0.  1.
         -6    1    1    2    0  501 -0.36815280406E+02 -0.21810370051E+03  0.64888830069E+03  0.70704286703E+03  0.17300000000E+03 0. -1.
</event>
<event>
 4    1  0.5880538E-001  0.1000000E+03  0.7546771E-02  0.1280296E+00
          3   -1    0    0  502    0  0.00000000000E+00  0.00000000000E+00  0.31923836891E+03  0.31923836891E+03  0.00000000000E+00 0.  1.
         -3   -1    0    0    0  501 -0.00000000000E+00 -0.00000000000E+00 -0.21757785184E+03  0.21757785184E+03  0.00000000000E+00 0. -1.
          6    1    1    2  502    0  0.44111719758E+02 -0.19064978050E+03  0.15010851463E+02  0.26162474709E+03  0.17300000000E+03 0. -1.
         -6    1    1    2    0  501 -0.44111719758E+02  0.19064978050E+03  0.86649665610E+02  0.27519147366E+03  0.17300000000E+03 0.  1.
</event>
<event>
 4    1  0.5880538E-001  0.1000000E+03  0.7546771E-02  0.1280296E+00
         -1   -1    0    0    0  501 -0.00000000000E+00  0.00000000000E+00  0.86865621522E+03  0.86865621522E+03  0.00000000000E+00 0. -1.
          1   -1    0    0  502    0  0.00000000000E+00 -0.00000000000E+00 -0.51823182631E+02  0.51823182631E+02  0.00000000000E+00 0.  1.
          6    1    1    2  502    0 -0.29159924434E+02  0.41131877062E+02  0.65137959297E+03  0.67584503153E+03  0.17300000000E+03 0.  1.
         -6    1    1    2    0  501  0.29159924434E+02 -0.41131877062E+02  0.16545343961E+03  0.24463436632E+03  0.17300000000E+03 0. -1.
</event>
<event>
 4    1  0.5880538E-001  0.1000000E+03  0.7546771E-02  0.1280296E+00
         -3   -1    0    0    0  501 -0.00000000000E+00  0.00000000000E+00  0.44611349756E+03  0.44611349756E+03  0.00000000000E+00 0. -1.
          3   -1    0    0  502    0  0.00000000000E+00 -0.00000000000E+00 -0.18171717201E+03  0.18171717201E+03  0.00000000000E+00 0.  1.
          6    1    1    2  502    0 -0.22224056891E+03 -0.41740968738E+02  0.12991077553E+03  0.31295205470E+03  0.17300000000E+03 0.  1.
         -6    1    1    2    0  501  0.22224056891E+03  0.41740968738E+02  0.13448555002E+03  0.31487861487E+03  0.17300000000E+03 0. -1.
</event>
<event>
 4    1  0.5880538E-001  0.1000000E+03  0.7546771E-02  0.1280296E+00
         -1   -1    0    0    0  501 -0.00000000000E+00  0.00000000000E+00  0.65191197885E+03  0.65191197885E+03  0.00000000000E+00 0. -1.
          1   -1    0    0  502    0  0.00000000000E+00 -0.00000000000E+00 -0.53292329747E+02  0.53292329747E+02  0.00000000000E+00 0.  1.
          6    1    1    2  502    0 -0.55633241009E+02  0.32856122295E+02  0.34710448150E+03  0.39317312136E+03  0.17300000000E+03 0.  1.
         -6    1    1    2    0  501  0.55633241009E+02 -0.32856122295E+02  0.25151516759E+03  0.31203118724E+03  0.17300000000E+03 0.  1.
</event>
<event>
 4    1  0.5880538E-001  0.1000000E+03  0.7546771E-02  0.1280296E+00
          2   -1    0    0  502    0  0.00000000000E+00  0.00000000000E+00  0.35700582358E+03  0.35700582358E+03  0.00000000000E+00 0. -1.
         -2   -1    0    0    0  501 -0.00000000000E+00 -0.00000000000E+00 -0.16859016631E+03  0.16859016631E+03  0.00000000000E+00 0.  1.
          6    1    1    2  502    0 -0.24105021010E+02  0.12142745287E+03 -0.36692792034E+02  0.21587273875E+03  0.17300000000E+03 0. -1.
         -6    1    1    2    0  501  0.24105021010E+02 -0.12142745287E+03  0.22510844930E+03  0.30972325114E+03  0.17300000000E+03 0.  1.
</event>
<event>
 4    1  0.5880538E-001  0.1000000E+03  0.7546771E-02  0.1280296E+00
          1   -1    0    0  502    0  0.00000000000E+00  0.00000000000E+00  0.11244615472E+03  0.11244615472E+03  0.00000000000E+00 0. -1.
         -1   -1    0    0    0  501 -0.00000000000E+00 -0.00000000000E+00 -0.47835987464E+03  0.47835987464E+03  0.00000000000E+00 0.  1.
          6    1    1    2  502    0 -0.53651062617E+02  0.13576196532E+03 -0.24728764273E+03  0.33524606783E+03  0.17300000000E+03 0. -1.
         -6    1    1    2    0  501  0.53651062617E+02 -0.13576196532E+03 -0.11862607719E+03  0.25555996153E+03  0.17300000000E+03 0.  1.
</event>
<event>
 4    1  0.5880538E-001  0.1000000E+03  0.7546771E-02  0.1280296E+00
         -1   -1    0    0    0  501 -0.00000000000E+00  0.00000000000E+00  0.76939930229E+02  0.76939930229E+02  0.00000000000E+00 0. -1.
          1   -1    0    0  502    0  0.00000000000E+00 -0.00000000000E+00 -0.11906815607E+04  0.11906815607E+04  0.00000000000E+00 0.  1.
          6    1    1    2  502    0  0.21661356887E+03 -0.52688315072E+00 -0.30246173673E+03  0.41028504482E+03  0.17300000000E+03 0. -1.
         -6    1    1    2    0  501 -0.21661356887E+03  0.52688315072E+00 -0.81127989371E+03  0.85733644607E+03  0.17300000000E+03 0. -1.
</event>
<event>
 4    1  0.5880538E-001  0.1000000E+03  0.7546771E-02  0.1280296E+00
         -2   -1    0    0    0  501 -0.00000000000E+00  0.00000000000E+00  0.55757072858E+02  0.55757072858E+02  0.00000000000E+00 0. -1.
          2   -1    0    0  502    0  0.00000000000E+00 -0.00000000000E+00 -0.92703212492E+03  0.92703212492E+03  0.00000000000E+00 0.  1.
          6    1    1    2  502    0  0.17856703139E+02 -0.14572120470E+03 -0.46666429692E+03  0.51890085505E+03  0.17300000000E+03 0. -1.
         -6    1    1    2    0  501 -0.17856703139E+02  0.14572120470E+03 -0.40461075515E+03  0.46388834274E+03  0.17300000000E+03 0. -1.
</event>
<event>
 4    1  0.5880538E-001  0.1000000E+03  0.7546771E-02  0.1280296E+00
         -1   -1    0    0    0  501 -0.00000000000E+00  0.00000000000E+00  0.31354859733E+02  0.31354859733E+02  0.00000000000E+00 0. -1.
          1   -1    0    0  502    0  0.00000000000E+00 -0.00000000000E+00 -0.23641982562E+04  0.23641982562E+04  0.00000000000E+00 0.  1.
          6    1    1    2  502    0 -0.14290293901E+03 -0.30292383564E+02 -0.50125393664E+03  0.55002126093E+03  0.17300000000E+03 0. -1.
         -6    1    1    2    0  501  0.14290293901E+03  0.30292383564E+02 -0.18315894598E+04  0.18455318550E+04  0.17300000000E+03 0.  1.
</event>
<event>
 4    1  0.5880538E-001  0.1000000E+03  0.7546771E-02  0.1280296E+00
          2   -1    0    0  502    0  0.00000000000E+00  0.00000000000E+00  0.43042391929E+03  0.43042391929E+03  0.00000000000E+00 0.  1.
         -2   -1    0    0    0  501 -0.00000000000E+00 -0.00000000000E+00 -0.79079947834E+02  0.79079947834E+02  0.00000000000E+00 0. -1.
          6    1    1    2  502    0 -0.59130336669E+02 -0.20840421121E+02  0.19410375660E+03  0.26746212479E+03  0.17300000000E+03 0. -1.
         -6    1    1    2    0  501  0.59130336669E+02  0.20840421121E+02  0.15724021485E+03  0.24204174234E+03  0.17300000000E+03 0. -1.
</event>
<event>
 4    1  0.5880538E-001  0.1000000E+03  0.7546771E-02  0.1280296E+00
          2   -1    0    0  502    0  0.00000000000E+00  0.00000000000E+00  0.30124661409E+03  0.30124661409E+03  0.00000000000E+00 0.  1.
         -2   -1    0    0    0  501 -0.00000000000E+00 -0.00000000000E+00 -0.16151854538E+03  0.16151854538E+03  0.00000000000E+00 0. -1.
          6    1    1    2  502    0 -0.41872527539E+02 -0.12054581618E+03  0.18014138672E+02  0.21572693748E+03  0.17300000000E+03 0. -1.
         -6    1    1    2    0  501  0.41872527539E+02  0.12054581618E+03  0.12171393004E+03  0.24703822199E+03  0.17300000000E+03 0. -1.
</event>
<event>
 4    1  0.5880538E-001  0.1000000E+03  0.7546771E-02  0.1280296E+00
          2   -1    0    0  502    0  0.00000000000E+00  0.00000000000E+00  0.47399714255E+03  0.47399714255E+03  0.00000000000E+00 0. -1.
         -2   -1    0    0    0  501 -0.00000000000E+00 -0.00000000000E+00 -0.14436259924E+03  0.14436259924E+03  0.00000000000E+00 0.  1.
          6    1    1    2  502    0 -0.12589340273E+03  0.31460106608E+02  0.33876587347E+03  0.40190820368E+03  0.17300000000E+03 0. -1.
         -6    1    1    2    0  501  0.12589340273E+03 -0.31460106608E+02 -0.91313301653E+01  0.21645153811E+03  0.17300000000E+03 0.  1.
</event>
<event>
 4    1  0.5880538E-001  0.1000000E+03  0.7546771E-02  0.1280296E+00
          2   -1    0    0  502    0  0.00000000000E+00  0.00000000000E+00  0.17756100642E+04  0.17756100642E+04  0.00000000000E+00 0. -1.
         -2   -1    0    0    0  501 -0.00000000000E+00 -0.00000000000E+00 -0.19885889508E+03  0.19885889508E+03  0.00000000000E+00 0.  1.
          6    1    1    2  502    0  0.35585004982E+03 -0.20690520297E+03  0.14397793424E+04  0.15074258111E+04  0.17300000000E+03 0. -1.
         -6    1    1    2    0  501 -0.35585004982E+03  0.20690520297E+03  0.13697182667E+03  0.46704314819E+03  0.17300000000E+03 0.  1.
</event>
<event>
 4    1  0.5880538E-001  0.1000000E+03  0.7546771E-02  0.1280296E+00
          2   -1    0    0  502    0  0.00000000000E+00  0.00000000000E+00  0.22571672452E+04  0.22571672452E+04  0.00000000000E+00 0. -1.
         -2   -1    0    0    0  501 -0.00000000000E+00 -0.00000000000E+00 -0.59147348110E+02  0.59147348110E+02  0.00000000000E+00 0.  1.
          6    1    1    2  502    0  0.24535381645E+03 -0.84922751521E+02  0.17018037883E+04  0.17301663223E+04  0.17300000000E+03 0. -1.
         -6    1    1    2    0  501 -0.24535381645E+03  0.84922751521E+02  0.49621610878E+03  0.58614827100E+03  0.17300000000E+03 0.  1.
</event>
<event>
 4    1  0.5880538E-001  0.1000000E+03  0.7546771E-02  0.1280296E+00
          2   -1    0    0  502    0  0.00000000000E+00  0.00000000000E+00  0.34883796279E+03  0.34883796279E+03  0.00000000000E+00 0. -1.
         -2   -1    0    0    0  501 -0.00000000000E+00 -0.00000000000E+00 -0.16458380423E+03  0.16458380423E+03  0.00000000000E+00 0.  1.
          6    1    1    2  502    0  0.39739674449E+01 -0.86290478535E+02  0.24372567990E+03  0.31111580826E+03  0.17300000000E+03 0. -1.
         -6    1    1    2    0  501 -0.39739674449E+01  0.86290478535E+02 -0.59471521341E+02  0.20230595877E+03  0.17300000000E+03 0.  1.
</event>
<event>
 4    1  0.5880538E-001  0.1000000E+03  0.7546771E-02  0.1280296E+00
          1   -1    0    0  502    0  0.00000000000E+00  0.00000000000E+00  0.51225135613E+03  0.51225135613E+03  0.00000000000E+00 0. -1.
         -1   -1    0    0    0  501 -0.00000000000E+00 -0.00000000000E+00 -0.91023483458E+02  0.91023483458E+02  0.00000000000E+00 0.  1.
          6    1    1    2  502    0 -0.10390097015E+03  0.53249010783E+02  0.13325219536E+03  0.24762071060E+03  0.17300000000E+03 0. -1.
         -6    1    1    2    0  501  0.10390097015E+03 -0.53249010783E+02  0.28797567731E+03  0.35565412899E+03  0.17300000000E+03 0.  1.
</event>
<event>
 4    1  0.5880538E-001  0.1000000E+03  0.7546771E-02  0.1280296E+00
         -2   -1    0    0    0  501 -0.00000000000E+00  0.00000000000E+00  0.54910980507E+02  0.54910980507E+02  0.00000000000E+00 0. -1.
          2   -1    0    0  502    0  0.00000000000E+00 -0.00000000000E+00 -0.68152839850E+03  0.68152839850E+03  0.00000000000E+00 0.  1.
          6    1    1    2  502    0  0.63096902884E+02  0.11187562223E+02 -0.42410057915E+03  0.46248965604E+03  0.17300000000E+03 0. -1.
         -6    1    1    2    0  501 -0.63096902884E+02 -0.11187562223E+02 -0.20251683884E+03  0.27394972297E+03  0.17300000000E+03 0.  1.
</event>
<event>
 4    1  0.5880538E-001  0.1000000E+03  0.7546771E-02  0.1280296E+00
         -2   -1    0    0    0  501 -0.00000000000E+00  0.00000000000E+00  0.19460297503E+02  0.19460297503E+02  0.00000000000E+00 0. -1.
          2   -1    0    0  502    0  0.00000000000E+00 -0.00000000000E+00 -0.30458793545E+04  0.30458793545E+04  0.00000000000E+00 0.  1.
          6    1    1    2  502    0 -0.93793793675E+02 -0.13570165394E+03 -0.12224978851E+04  0.12456493462E+04  0.17300000000E+03 0. -1.
         -6    1    1    2    0  501  0.93793793675E+02  0.13570165394E+03 -0.18039211719E+04  0.18196903058E+04  0.17300000000E+03 0.  1.
</event>
<event>
 4    1  0.5880538E-001  0.1000000E+03  0.7546771E-02  0.1280296E+00
         -1   -1    0    0    0  501 -0.00000000000E+00  0.00000000000E+00  0.59279742114E+02  0.59279742114E+02  0.00000000000E+00 0. -1.
          1   -1    0    0  502    0  0.00000000000E+00 -0.00000000000E+00 -0.10569652526E+04  0.10569652526E+04  0.00000000000E+00 0.  1.
          6    1    1    2  502    0  0.36988069524E+02 -0.17318420593E+03 -0.41641202398E+03  0.48444696323E+03  0.17300000000E+03 0. -1.
         -6    1    1    2    0  501 -0.36988069524E+02  0.17318420593E+03 -0.58127348652E+03  0.63179803150E+03  0.17300000000E+03 0.  1.
</event>
<event>
 4    1  0.5880538E-001  0.1000000E+03  0.7546771E-02  0.1280296E+00
         -2   -1    0    0    0  501 -0.00000000000E+00  0.00000000000E+00  0.75720358624E+02  0.75720358624E+02  0.00000000000E+00 0. -1.
          2   -1    0    0  502    0  0.00000000000E+00 -0.00000000000E+00 -0.12910583164E+04  0.12910583164E+04  0.00000000000E+00 0.  1.
          6    1    1    2  502    0  0.33504398405E+02  0.24295889432E+03 -0.79919882297E+03  0.85369744504E+03  0.17300000000E+03 0.  1.
         -6    1    1    2    0  501 -0.33504398405E+02 -0.24295889432E+03 -0.41613913480E+03  0.51308122998E+03  0.17300000000E+03 0. -1.
</event>
<event>
 4    1  0.5880538E-001  0.1000000E+03  0.7546771E-02  0.1280296E+00
         -1   -1    0    0    0  501 -0.00000000000E+00  0.00000000000E+00  0.14105025181E+03  0.14105025181E+03  0.00000000000E+00 0. -1.
          1   -1    0    0  502    0  0.00000000000E+00 -0.00000000000E+00 -0.21759520149E+03  0.21759520149E+03  0.00000000000E+00 0.  1.
          6    1    1    2  502    0  0.25447968791E+02 -0.56170675096E+01 -0.28907520462E+02  0.17732398400E+03  0.17300000000E+03 0.  1.
         -6    1    1    2    0  501 -0.25447968791E+02  0.56170675096E+01 -0.47637429218E+02  0.18132146929E+03  0.17300000000E+03 0. -1.
</event>
<event>
 4    1  0.5880538E-001  0.1000000E+03  0.7546771E-02  0.1280296E+00
         -2   -1    0    0    0  501 -0.00000000000E+00  0.00000000000E+00  0.27270738096E+02  0.27270738096E+02  0.00000000000E+00 0. -1.
          2   -1    0    0  502    0  0.00000000000E+00 -0.00000000000E+00 -0.19011185338E+04  0.19011185338E+04  0.00000000000E+00 0.  1.
          6    1    1    2  502    0 -0.14254538002E+03 -0.39283900516E+02 -0.90595184623E+03  0.93409858040E+03  0.17300000000E+03 0. -1.
         -6    1    1    2    0  501  0.14254538002E+03  0.39283900516E+02 -0.96789594950E+03  0.99429069153E+03  0.17300000000E+03 0.  1.
</event>
<event>
 4    1  0.5880538E-001  0.1000000E+03  0.7546771E-02  0.1280296E+00
          2   -1    0    0  502    0  0.00000000000E+00  0.00000000000E+00  0.43116680061E+02  0.43116680061E+02  0.00000000000E+00 0. -1.
         -2   -1    0    0    0  501 -0.00000000000E+00 -0.00000000000E+00 -0.10932907491E+04  0.10932907491E+04  0.00000000000E+00 0.  1.
          6    1    1    2  502    0  0.73696687719E+02 -0.51536456678E+02 -0.27512211487E+03  0.33720674110E+03  0.17300000000E+03 0.  1.
         -6    1    1    2    0  501 -0.73696687719E+02  0.51536456678E+02 -0.77505195414E+03  0.79920068804E+03  0.17300000000E+03 0. -1.
</event>
<event>
 4    1  0.5880538E-001  0.1000000E+03  0.7546771E-02  0.1280296E+00
          1   -1    0    0  502    0  0.00000000000E+00  0.00000000000E+00  0.39763570062E+03  0.39763570062E+03  0.00000000000E+00 0. -1.
         -1   -1    0    0    0  501 -0.00000000000E+00 -0.00000000000E+00 -0.18355369479E+03  0.18355369479E+03  0.00000000000E+00 0.  1.
          6    1    1    2  502    0 -0.15596318446E+03 -0.12969947318E+03  0.60007078662E+02  0.27326967951E+03  0.17300000000E+03 0.  1.
         -6    1    1    2    0  501  0.15596318446E+03  0.12969947318E+03  0.15407492717E+03  0.30791971589E+03  0.17300000000E+03 0. -1.
</event>
<event>
 4    1  0.5880538E-001  0.1000000E+03  0.7546771E-02  0.1280296E+00
         -2   -1    0    0    0  501 -0.00000000000E+00  0.00000000000E+00  0.65382081637E+02  0.65382081637E+02  0.00000000000E+00 0. -1.
          2   -1    0    0  502    0  0.00000000000E+00 -0.00000000000E+00 -0.12123784892E+04  0.12123784892E+04  0.00000000000E+00 0.  1.
          6    1    1    2  502    0 -0.85175146625E+02 -0.19385968734E+03 -0.42123490646E+03  0.50219939307E+03  0.17300000000E+03 0. -1.
         -6    1    1    2    0  501  0.85175146625E+02  0.19385968734E+03 -0.72576150115E+03  0.77556117781E+03  0.17300000000E+03 0. -1.
</event>
<event>
 4    1  0.5880538E-001  0.1000000E+03  0.7546771E-02  0.1280296E+00
         -1   -1    0    0    0  501 -0.00000000000E+00  0.00000000000E+00  0.16895921724E+02  0.16895921724E+02  0.00000000000E+00 0. -1.
          1   -1    0    0  502    0  0.00000000000E+00 -0.00000000000E+00 -0.25098475885E+04  0.25098475885E+04  0.00000000000E+00 0.  1.
          6    1    1    2  502    0 -0.32922899401E+02 -0.94270310054E+02 -0.15536183787E+04  0.15664066762E+04  0.17300000000E+03 0. -1.
         -6    1    1    2    0  501  0.32922899401E+02  0.94270310054E+02 -0.93933328807E+03  0.96033683401E+03  0.17300000000E+03 0. -1.
</event>
<event>
 4    1  0.5880538E-001  0.1000000E+03  0.7546771E-02  0.1280296E+00
         -2   -1    0    0    0  501 -0.00000000000E+00  0.00000000000E+00  0.42535147840E+02  0.42535147840E+02  0.00000000000E+00 0. -1.
          2   -1    0    0  502    0  0.00000000000E+00 -0.00000000000E+00 -0.93891455875E+03  0.93891455875E+03  0.00000000000E+00 0.  1.
          6    1    1    2  502    0  0.39884353822E+02 -0.80875066656E+02 -0.55455643991E+03  0.58787191048E+03  0.17300000000E+03 0. -1.
         -6    1    1    2    0  501 -0.39884353822E+02  0.80875066656E+02 -0.34182297100E+03  0.39357779611E+03  0.17300000000E+03 0. -1.
</event>
<event>
 4    1  0.5880538E-001  0.1000000E+03  0.7546771E-02  0.1280296E+00
         -1   -1    0    0    0  501 -0.00000000000E+00  0.00000000000E+00  0.51754276630E+02  0.51754276630E+02  0.00000000000E+00 0. -1.
          1   -1    0    0  502    0  0.00000000000E+00 -0.00000000000E+00 -0.14977239807E+04  0.14977239807E+04  0.00000000000E+00 0.  1.
          6    1    1    2  502    0 -0.94454693303E+02  0.99603159892E+02 -0.25121949318E+03  0.33448873270E+03  0.17300000000E+03 0. -1.
         -6    1    1    2    0  501  0.94454693303E+02 -0.99603159892E+02 -0.11947502109E+04  0.12149895247E+04  0.17300000000E+03 0. -1.
</event>
<event>
 4    1  0.5880538E-001  0.1000000E+03  0.7546771E-02  0.1280296E+00
          2   -1    0    0  502    0  0.00000000000E+00  0.00000000000E+00  0.80149720031E+02  0.80149720031E+02  0.00000000000E+00 0.  1.
         -2   -1    0    0    0  501 -0.00000000000E+00 -0.00000000000E+00 -0.94713304703E+03  0.94713304703E+03  0.00000000000E+00 0. -1.
          6    1    1    2  502    0  0.84189174633E+02 -0.11609515707E+03 -0.73070638419E+03  0.76447807197E+03  0.17300000000E+03 0. -1.
         -6    1    1    2    0  501 -0.84189174633E+02  0.11609515707E+03 -0.13627694280E+03  0.26280469509E+03  0.17300000000E+03 0.  1.
</event>
<event>
 4    1  0.5880538E-001  0.1000000E+03  0.7546771E-02  0.1280296E+00
         -1   -1    0    0    0  501 -0.00000000000E+00  0.00000000000E+00  0.26418004639E+02  0.26418004639E+02  0.00000000000E+00 0.  1.
          1   -1    0    0  502    0  0.00000000000E+00 -0.00000000000E+00 -0.19379041956E+04  0.19379041956E+04  0.00000000000E+00 0. -1.
          6    1    1    2  502    0 -0.11467187325E+03 -0.84817959991E+02 -0.10876079660E+04  0.11104790914E+04  0.17300000000E+03 0. -1.
         -6    1    1    2    0  501  0.11467187325E+03  0.84817959991E+02 -0.82387822493E+03  0.85384310875E+03  0.17300000000E+03 0.  1.
</event>
<event>
 4    1  0.5880538E-001  0.1000000E+03  0.7546771E-02  0.1280296E+00
         -4   -1    0    0    0  501 -0.00000000000E+00  0.00000000000E+00  0.20341774370E+02  0.20341774370E+02  0.00000000000E+00 0.  1.
          4   -1    0    0  502    0  0.00000000000E+00 -0.00000000000E+00 -0.16729832480E+04  0.16729832480E+04  0.00000000000E+00 0. -1.
          6    1    1    2  502    0  0.12710320759E+02  0.41135395880E+02 -0.60867854457E+03  0.63424935449E+03  0.17300000000E+03 0. -1.
         -6    1    1    2    0  501 -0.12710320759E+02 -0.41135395880E+02 -0.10439629291E+04  0.10590756679E+04  0.17300000000E+03 0. -1.
</event>
<event>
 4    1  0.5880538E-001  0.1000000E+03  0.7546771E-02  0.1280296E+00
         -2   -1    0    0    0  501 -0.00000000000E+00  0.00000000000E+00  0.10990898417E+03  0.10990898417E+03  0.00000000000E+00 0. -1.
          2   -1    0    0  502    0  0.00000000000E+00 -0.00000000000E+00 -0.11386459110E+04  0.11386459110E+04  0.00000000000E+00 0.  1.
          6    1    1    2  502    0  0.17878521141E+03  0.52678890249E+02 -0.80388463135E+02  0.26670306017E+03  0.17300000000E+03 0.  1.
         -6    1    1    2    0  501 -0.17878521141E+03 -0.52678890249E+02 -0.94834846367E+03  0.98185183497E+03  0.17300000000E+03 0.  1.
</event>
<event>
 4    1  0.5880538E-001  0.1000000E+03  0.7546771E-02  0.1280296E+00
         -1   -1    0    0    0  501 -0.00000000000E+00  0.00000000000E+00  0.45034639390E+02  0.45034639390E+02  0.00000000000E+00 0. -1.
          1   -1    0    0  502    0  0.00000000000E+00 -0.00000000000E+00 -0.71463757734E+03  0.71463757734E+03  0.00000000000E+00 0.  1.
          6    1    1    2  502    0  0.20696771740E+02  0.26047627974E+02 -0.26307537208E+03  0.31661409741E+03  0.17300000000E+03 0.  1.
         -6    1    1    2    0  501 -0.20696771740E+02 -0.26047627974E+02 -0.40652756587E+03  0.44305811932E+03  0.17300000000E+03 0.  1.
</event>
<event>
 4    1  0.5880538E-001  0.1000000E+03  0.7546771E-02  0.1280296E+00
         -1   -1    0    0    0  501 -0.00000000000E+00  0.00000000000E+00  0.74930106537E+02  0.74930106537E+02  0.00000000000E+00 0. -1.
          1   -1    0    0  502    0  0.00000000000E+00 -0.00000000000E+00 -0.12082592082E+04  0.12082592082E+04  0.00000000000E+00 0.  1.
          6    1    1    2  502    0 -0.13301663419E+02 -0.23326903187E+03 -0.73203444542E+03  0.78765144878E+03  0.17300000000E+03 0.  1.
         -6    1    1    2    0  501  0.13301663419E+02  0.23326903187E+03 -0.40129465628E+03  0.49553786599E+03  0.17300000000E+03 0.  1.
</event>
<event>
 4    1  0.5880538E-001  0.1000000E+03  0.7546771E-02  0.1280296E+00
          1   -1    0    0  502    0  0.00000000000E+00  0.00000000000E+00  0.74499273526E+03  0.74499273526E+03  0.00000000000E+00 0.  1.
         -1   -1    0    0    0  501 -0.00000000000E+00 -0.00000000000E+00 -0.70445464953E+02  0.70445464953E+02  0.00000000000E+00 0. -1.
          6    1    1    2  502    0 -0.12369862471E+03  0.26136297723E+02  0.48150905065E+03  0.52703360583E+03  0.17300000000E+03 0.  1.
         -6    1    1    2    0  501  0.12369862471E+03 -0.26136297723E+02  0.19303821966E+03  0.28840459439E+03  0.17300000000E+03 0. -1.
</event>
<event>
 4    1  0.5880538E-001  0.1000000E+03  0.7546771E-02  0.1280296E+00
          2   -1    0    0  502    0  0.00000000000E+00  0.00000000000E+00  0.43172929954E+03  0.43172929954E+03  0.00000000000E+00 0.  1.
         -2   -1    0    0    0  501 -0.00000000000E+00 -0.00000000000E+00 -0.11536064080E+03  0.11536064080E+03  0.00000000000E+00 0. -1.
          6    1    1    2  502    0 -0.60812228199E+02 -0.11669897488E+03  0.22018716231E+03  0.30939968372E+03  0.17300000000E+03 0.  1.
         -6    1    1    2    0  501  0.60812228199E+02  0.11669897488E+03  0.96181496432E+02  0.23769025662E+03  0.17300000000E+03 0. -1.
</event>
<event>
 4    1  0.5880538E-001  0.1000000E+03  0.7546771E-02  0.1280296E+00
         -2   -1    0    0    0  501 -0.00000000000E+00  0.00000000000E+00  0.36887550727E+02  0.36887550727E+02  0.00000000000E+00 0. -1.
          2   -1    0    0  502    0  0.00000000000E+00 -0.00000000000E+00 -0.10049916841E+04  0.10049916841E+04  0.00000000000E+00 0.  1.
          6    1    1    2  502    0  0.16825877597E+02 -0.16506576930E+02 -0.26446158111E+03  0.31689825674E+03  0.17300000000E+03 0.  1.
         -6    1    1    2    0  501 -0.16825877597E+02  0.16506576930E+02 -0.70364255223E+03  0.72498097806E+03  0.17300000000E+03 0. -1.
</event>
<event>
 4    1  0.5880538E-001  0.1000000E+03  0.7546771E-02  0.1280296E+00
         -2   -1    0    0    0  501 -0.00000000000E+00  0.00000000000E+00  0.18324734906E+02  0.18324734906E+02  0.00000000000E+00 0. -1.
          2   -1    0    0  502    0  0.00000000000E+00 -0.00000000000E+00 -0.49446837587E+04  0.49446837587E+04  0.00000000000E+00 0.  1.
          6    1    1    2  502    0 -0.18135867651E+03 -0.16465223641E+03 -0.26781023338E+04  0.26948399653E+04  0.17300000000E+03 0.  1.
         -6    1    1    2    0  501  0.18135867651E+03  0.16465223641E+03 -0.22482566900E+04  0.22681685283E+04  0.17300000000E+03 0. -1.
</event>
<event>
 4    1  0.5880538E-001  0.1000000E+03  0.7546771E-02  0.1280296E+00
          1   -1    0    0  502    0  0.00000000000E+00  0.00000000000E+00  0.16216862561E+03  0.16216862561E+03  0.00000000000E+00 0. -1.
         -1   -1    0    0    0  501 -0.00000000000E+00 -0.00000000000E+00 -0.30562197870E+03  0.30562197870E+03  0.00000000000E+00 0.  1.
          6    1    1    2  502    0 -0.61992740672E+02  0.12387903044E+03 -0.93869160921E+02  0.24068554890E+03  0.17300000000E+03 0.  1.
         -6    1    1    2    0  501  0.61992740672E+02 -0.12387903044E+03 -0.49584192176E+02  0.22710505541E+03  0.17300000000E+03 0. -1.
</event>
<event>
 4    1  0.5880538E-001  0.1000000E+03  0.7546771E-02  0.1280296E+00
          2   -1    0    0  502    0  0.00000000000E+00  0.00000000000E+00  0.22395699705E+02  0.22395699705E+02  0.00000000000E+00 0. -1.
         -2   -1    0    0    0  501 -0.00000000000E+00 -0.00000000000E+00 -0.14469766748E+04  0.14469766748E+04  0.00000000000E+00 0.  1.
          6    1    1    2  502    0 -0.12074587045E+02  0.82678402217E+01 -0.51814750851E+03  0.54646133752E+03  0.17300000000E+03 0.  1.
         -6    1    1    2    0  501  0.12074587045E+02 -0.82678402217E+01 -0.90643346655E+03  0.92291103694E+03  0.17300000000E+03 0. -1.
</event>
<event>
 4    1  0.5880538E-001  0.1000000E+03  0.7546771E-02  0.1280296E+00
         -2   -1    0    0    0  501 -0.00000000000E+00  0.00000000000E+00  0.23308868936E+03  0.23308868936E+03  0.00000000000E+00 0.  1.
          2   -1    0    0  502    0  0.00000000000E+00 -0.00000000000E+00 -0.31418387316E+03  0.31418387316E+03  0.00000000000E+00 0. -1.
          6    1    1    2  502    0 -0.11013259112E+03 -0.10250006412E+03 -0.18591701128E+03  0.29517721094E+03  0.17300000000E+03 0. -1.
         -6    1    1    2    0  501  0.11013259112E+03  0.10250006412E+03  0.10482182749E+03  0.25209535158E+03  0.17300000000E+03 0.  1.
</event>
<event>
 4    1  0.5880538E-001  0.1000000E+03  0.7546771E-02  0.1280296E+00
          1   -1    0    0  502    0  0.00000000000E+00  0.00000000000E+00  0.52751385984E+03  0.52751385984E+03  0.00000000000E+00 0. -1.
         -1   -1    0    0    0  501 -0.00000000000E+00 -0.00000000000E+00 -0.65717005507E+02  0.65717005507E+02  0.00000000000E+00 0.  1.
          6    1    1    2  502    0  0.33533543942E+02  0.85634512644E+01  0.13611611841E+03  0.22283273762E+03  0.17300000000E+03 0.  1.
         -6    1    1    2    0  501 -0.33533543942E+02 -0.85634512644E+01  0.32568073592E+03  0.37039812772E+03  0.17300000000E+03 0. -1.
</event>
<event>
 4    1  0.5880538E-001  0.1000000E+03  0.7546771E-02  0.1280296E+00
         -2   -1    0    0    0  501 -0.00000000000E+00  0.00000000000E+00  0.69428818383E+02  0.69428818383E+02  0.00000000000E+00 0.  1.
          2   -1    0    0  502    0  0.00000000000E+00 -0.00000000000E+00 -0.47924622618E+03  0.47924622618E+03  0.00000000000E+00 0. -1.
          6    1    1    2  502    0 -0.34866681555E+02 -0.30700763570E+02 -0.25670861310E+03  0.31302800898E+03  0.17300000000E+03 0. -1.
         -6    1    1    2    0  501  0.34866681555E+02  0.30700763570E+02 -0.15310879470E+03  0.23564703559E+03  0.17300000000E+03 0.  1.
</event>
<event>
 4    1  0.5880538E-001  0.1000000E+03  0.7546771E-02  0.1280296E+00
         -2   -1    0    0    0  501 -0.00000000000E+00  0.00000000000E+00  0.87736036451E+02  0.87736036451E+02  0.00000000000E+00 0.  1.
          2   -1    0    0  502    0  0.00000000000E+00 -0.00000000000E+00 -0.44174081990E+03  0.44174081990E+03  0.00000000000E+00 0. -1.
          6    1    1    2  502    0  0.24292584537E+02 -0.84066764450E+02 -0.13099990209E+03  0.23398146272E+03  0.17300000000E+03 0. -1.
         -6    1    1    2    0  501 -0.24292584537E+02  0.84066764450E+02 -0.22300488136E+03  0.29549539364E+03  0.17300000000E+03 0.  1.
</event>
<event>
 4    1  0.5880538E-001  0.1000000E+03  0.7546771E-02  0.1280296E+00
         -1   -1    0    0    0  501 -0.00000000000E+00  0.00000000000E+00  0.18774226020E+03  0.18774226020E+03  0.00000000000E+00 0.  1.
          1   -1    0    0  502    0  0.00000000000E+00 -0.00000000000E+00 -0.30794103778E+03  0.30794103778E+03  0.00000000000E+00 0. -1.
          6    1    1    2  502    0 -0.10004935536E+03 -0.13363718563E+03 -0.64193425839E+02  0.24883441645E+03  0.17300000000E+03 0. -1.
         -6    1    1    2    0  501  0.10004935536E+03  0.13363718563E+03 -0.56005351735E+02  0.24684888153E+03  0.17300000000E+03 0.  1.
</event>
<event>
 4    1  0.5880538E-001  0.1000000E+03  0.7546771E-02  0.1280296E+00
         -2   -1    0    0    0  501 -0.00000000000E+00  0.00000000000E+00  0.28626175770E+03  0.28626175770E+03  0.00000000000E+00 0.  1.
          2   -1    0    0  502    0  0.00000000000E+00 -0.00000000000E+00 -0.30625800359E+03  0.30625800359E+03  0.00000000000E+00 0. -1.
          6    1    1    2  502    0  0.65270674942E+02  0.22340451183E+03  0.49794764051E+02  0.29424200149E+03  0.17300000000E+03 0.  1.
         -6    1    1    2    0  501 -0.65270674942E+02 -0.22340451183E+03 -0.69791009942E+02  0.29827775979E+03  0.17300000000E+03 0. -1.
</event>
<event>
 4    1  0.5880538E-001  0.1000000E+03  0.7546771E-02  0.1280296E+00
         -1   -1    0    0    0  501 -0.00000000000E+00  0.00000000000E+00  0.44064070891E+03  0.44064070891E+03  0.00000000000E+00 0.  1.
          1   -1    0    0  502    0  0.00000000000E+00 -0.00000000000E+00 -0.28193808648E+03  0.28193808648E+03  0.00000000000E+00 0. -1.
          6    1    1    2  502    0  0.25464252670E+03 -0.95986378614E+02  0.22520896164E+03  0.39332464668E+03  0.17300000000E+03 0.  1.
         -6    1    1    2    0  501 -0.25464252670E+03  0.95986378614E+02 -0.66506339223E+02  0.32925414871E+03  0.17300000000E+03 0. -1.
</event>
<event>
 4    1  0.5880538E-001  0.1000000E+03  0.7546771E-02  0.1280296E+00
          1   -1    0    0  502    0  0.00000000000E+00  0.00000000000E+00  0.10530600193E+04  0.10530600193E+04  0.00000000000E+00 0.  1.
         -1   -1    0    0    0  501 -0.00000000000E+00 -0.00000000000E+00 -0.69107230634E+02  0.69107230634E+02  0.00000000000E+00 0. -1.
          6    1    1    2  502    0  0.93946149435E+02 -0.84861666359E+02  0.83258050957E+03  0.85973640514E+03  0.17300000000E+03 0. -1.
         -6    1    1    2    0  501 -0.93946149435E+02  0.84861666359E+02  0.15137227906E+03  0.26243084475E+03  0.17300000000E+03 0.  1.
</event>
<event>
 4    1  0.5880538E-001  0.1000000E+03  0.7546771E-02  0.1280296E+00
          1   -1    0    0  502    0  0.00000000000E+00  0.00000000000E+00  0.10619645789E+03  0.10619645789E+03  0.00000000000E+00 0.  1.
         -1   -1    0    0    0  501 -0.00000000000E+00 -0.00000000000E+00 -0.33672382659E+03  0.33672382659E+03  0.00000000000E+00 0. -1.
          6    1    1    2  502    0  0.51388365558E+02  0.77864404728E+01 -0.49759255164E+02  0.18736695612E+03  0.17300000000E+03 0. -1.
         -6    1    1    2    0  501 -0.51388365558E+02 -0.77864404728E+01 -0.18076811353E+03  0.25555332837E+03  0.17300000000E+03 0.  1.
</event>
<event>
 4    1  0.5880538E-001  0.1000000E+03  0.7546771E-02  0.1280296E+00
          2   -1    0    0  502    0  0.00000000000E+00  0.00000000000E+00  0.87461012311E+03  0.87461012311E+03  0.00000000000E+00 0.  1.
         -2   -1    0    0    0  501 -0.00000000000E+00 -0.00000000000E+00 -0.50079741285E+02  0.50079741285E+02  0.00000000000E+00 0. -1.
          6    1    1    2  502    0  0.69614499605E+02  0.55362772017E+02  0.24171501649E+03  0.31026821345E+03  0.17300000000E+03 0. -1.
         -6    1    1    2    0  501 -0.69614499605E+02 -0.55362772017E+02  0.58281536533E+03  0.61442165094E+03  0.17300000000E+03 0.  1.
</event>
<event>
 4    1  0.5880538E-001  0.1000000E+03  0.7546771E-02  0.1280296E+00
         -2   -1    0    0    0  501 -0.00000000000E+00  0.00000000000E+00  0.10700949337E+03  0.10700949337E+03  0.00000000000E+00 0. -1.
          2   -1    0    0  502    0  0.00000000000E+00 -0.00000000000E+00 -0.64228278161E+03  0.64228278161E+03  0.00000000000E+00 0.  1.
          6    1    1    2  502    0  0.15957082011E+03  0.45068380458E+01 -0.10271802853E+03  0.25683292547E+03  0.17300000000E+03 0. -1.
         -6    1    1    2    0  501 -0.15957082011E+03 -0.45068380458E+01 -0.43255525971E+03  0.49245934951E+03  0.17300000000E+03 0.  1.
</event>
<event>
 4    1  0.5880538E-001  0.1000000E+03  0.7546771E-02  0.1280296E+00
         -2   -1    0    0    0  501 -0.00000000000E+00  0.00000000000E+00  0.58660028667E+02  0.58660028667E+02  0.00000000000E+00 0.  1.
          2   -1    0    0  502    0  0.00000000000E+00 -0.00000000000E+00 -0.80811083594E+03  0.80811083594E+03  0.00000000000E+00 0. -1.
          6    1    1    2  502    0  0.42065939860E+02 -0.12494669821E+03 -0.39398152313E+03  0.45003517780E+03  0.17300000000E+03 0.  1.
         -6    1    1    2    0  501 -0.42065939860E+02  0.12494669821E+03 -0.35546928414E+03  0.41673568680E+03  0.17300000000E+03 0. -1.
</event>
<event>
 4    1  0.5880538E-001  0.1000000E+03  0.7546771E-02  0.1280296E+00
         -2   -1    0    0    0  501 -0.00000000000E+00  0.00000000000E+00  0.28569428994E+02  0.28569428994E+02  0.00000000000E+00 0. -1.
          2   -1    0    0  502    0  0.00000000000E+00 -0.00000000000E+00 -0.17659580628E+04  0.17659580628E+04  0.00000000000E+00 0.  1.
          6    1    1    2  502    0  0.99938681690E+02 -0.54385154015E+02 -0.52095452000E+03  0.56059619780E+03  0.17300000000E+03 0.  1.
         -6    1    1    2    0  501 -0.99938681690E+02  0.54385154015E+02 -0.12164341138E+04  0.12339312940E+04  0.17300000000E+03 0. -1.
</event>
<event>
 4    1  0.5880538E-001  0.1000000E+03  0.7546771E-02  0.1280296E+00
         -1   -1    0    0    0  501 -0.00000000000E+00  0.00000000000E+00  0.33256823814E+02  0.33256823814E+02  0.00000000000E+00 0. -1.
          1   -1    0    0  502    0  0.00000000000E+00 -0.00000000000E+00 -0.11477990270E+04  0.11477990270E+04  0.00000000000E+00 0.  1.
          6    1    1    2  502    0 -0.76563453270E+02 -0.33442416098E+02 -0.66467823264E+03  0.69188619766E+03  0.17300000000E+03 0.  1.
         -6    1    1    2    0  501  0.76563453270E+02  0.33442416098E+02 -0.44986397058E+03  0.48916965319E+03  0.17300000000E+03 0. -1.
</event>
<event>
 4    1  0.5880538E-001  0.1000000E+03  0.7546771E-02  0.1280296E+00
         -2   -1    0    0    0  501 -0.00000000000E+00  0.00000000000E+00  0.12235760883E+03  0.12235760883E+03  0.00000000000E+00 0. -1.
          2   -1    0    0  502    0  0.00000000000E+00 -0.00000000000E+00 -0.78474400427E+03  0.78474400427E+03  0.00000000000E+00 0.  1.
          6    1    1    2  502    0  0.19295181409E+03  0.16233838809E+03 -0.25791779390E+03  0.40004342667E+03  0.17300000000E+03 0.  1.
         -6    1    1    2    0  501 -0.19295181409E+03 -0.16233838809E+03 -0.40446860153E+03  0.50705818644E+03  0.17300000000E+03 0. -1.
</event>
<event>
 4    1  0.5880538E-001  0.1000000E+03  0.7546771E-02  0.1280296E+00
          2   -1    0    0  502    0  0.00000000000E+00  0.00000000000E+00  0.46097139272E+03  0.46097139272E+03  0.00000000000E+00 0. -1.
         -2   -1    0    0    0  501 -0.00000000000E+00 -0.00000000000E+00 -0.80583168742E+02  0.80583168742E+02  0.00000000000E+00 0.  1.
          6    1    1    2  502    0  0.42690169871E+02  0.25540135980E+02  0.28694831650E+03  0.33873748758E+03  0.17300000000E+03 0. -1.
         -6    1    1    2    0  501 -0.42690169871E+02 -0.25540135980E+02  0.93439907483E+02  0.20281707389E+03  0.17300000000E+03 0.  1.
</event>
<event>
 4    1  0.5880538E-001  0.1000000E+03  0.7546771E-02  0.1280296E+00
         -2   -1    0    0    0  501 -0.00000000000E+00  0.00000000000E+00  0.59514494499E+02  0.59514494499E+02  0.00000000000E+00 0.  1.
          2   -1    0    0  502    0  0.00000000000E+00 -0.00000000000E+00 -0.87761509469E+03  0.87761509469E+03  0.00000000000E+00 0. -1.
          6    1    1    2  502    0  0.71706130103E+02 -0.32644222037E+02 -0.66915230089E+03  0.69563008569E+03  0.17300000000E+03 0. -1.
         -6    1    1    2    0  501 -0.71706130103E+02  0.32644222037E+02 -0.14894829930E+03  0.24149950350E+03  0.17300000000E+03 0.  1.
</event>
<event>
 4    1  0.5880538E-001  0.1000000E+03  0.7546771E-02  0.1280296E+00
         -2   -1    0    0    0  501 -0.00000000000E+00  0.00000000000E+00  0.92002825073E+02  0.92002825073E+02  0.00000000000E+00 0.  1.
          2   -1    0    0  502    0  0.00000000000E+00 -0.00000000000E+00 -0.78218798506E+03  0.78218798506E+03  0.00000000000E+00 0. -1.
          6    1    1    2  502    0 -0.67152993003E+02  0.11308732215E+03 -0.88828987660E+02  0.23477192325E+03  0.17300000000E+03 0. -1.
         -6    1    1    2    0  501  0.67152993003E+02 -0.11308732215E+03 -0.60135617232E+03  0.63941888687E+03  0.17300000000E+03 0.  1.
</event>
<event>
 4    1  0.5880538E-001  0.1000000E+03  0.7546771E-02  0.1280296E+00
         -2   -1    0    0    0  501 -0.00000000000E+00  0.00000000000E+00  0.17381466712E+02  0.17381466712E+02  0.00000000000E+00 0.  1.
          2   -1    0    0  502    0  0.00000000000E+00 -0.00000000000E+00 -0.38795194032E+04  0.38795194032E+04  0.00000000000E+00 0. -1.
          6    1    1    2  502    0  0.61381195135E+02  0.12710512110E+03 -0.29259219278E+04  0.29344286481E+04  0.17300000000E+03 0. -1.
         -6    1    1    2    0  501 -0.61381195135E+02 -0.12710512110E+03 -0.93621600866E+03  0.96247222183E+03  0.17300000000E+03 0.  1.
</event>
<event>
 4    1  0.5880538E-001  0.1000000E+03  0.7546771E-02  0.1280296E+00
         -2   -1    0    0    0  501 -0.00000000000E+00  0.00000000000E+00  0.95371941896E+02  0.95371941896E+02  0.00000000000E+00 0. -1.
          2   -1    0    0  502    0  0.00000000000E+00 -0.00000000000E+00 -0.11443766008E+04  0.11443766008E+04  0.00000000000E+00 0.  1.
          6    1    1    2  502    0 -0.25822826668E+03  0.70003224113E+02 -0.36060390820E+03  0.48119275525E+03  0.17300000000E+03 0. -1.
         -6    1    1    2    0  501  0.25822826668E+03 -0.70003224113E+02 -0.68840075070E+03  0.75855578744E+03  0.17300000000E+03 0.  1.
</event>
<event>
 4    1  0.5880538E-001  0.1000000E+03  0.7546771E-02  0.1280296E+00
          2   -1    0    0  502    0  0.00000000000E+00  0.00000000000E+00  0.15572517410E+04  0.15572517410E+04  0.00000000000E+00 0. -1.
         -2   -1    0    0    0  501 -0.00000000000E+00 -0.00000000000E+00 -0.31038853011E+02  0.31038853011E+02  0.00000000000E+00 0.  1.
          6    1    1    2  502    0  0.12309536566E+02  0.13334076287E+03  0.84183378285E+03  0.86979560914E+03  0.17300000000E+03 0. -1.
         -6    1    1    2    0  501 -0.12309536566E+02 -0.13334076287E+03  0.68437910510E+03  0.71849498483E+03  0.17300000000E+03 0.  1.
</event>
<event>
 4    1  0.5880538E-001  0.1000000E+03  0.7546771E-02  0.1280296E+00
          2   -1    0    0  502    0  0.00000000000E+00  0.00000000000E+00  0.21393473817E+03  0.21393473817E+03  0.00000000000E+00 0. -1.
         -2   -1    0    0    0  501 -0.00000000000E+00 -0.00000000000E+00 -0.41408155765E+03  0.41408155765E+03  0.00000000000E+00 0.  1.
          6    1    1    2  502    0 -0.45559688719E+02 -0.10810311204E+03  0.12346828470E+03  0.24276611253E+03  0.17300000000E+03 0. -1.
         -6    1    1    2    0  501  0.45559688719E+02  0.10810311204E+03 -0.32361510418E+03  0.38525018329E+03  0.17300000000E+03 0.  1.
</event>
<event>
 4    1  0.5880538E-001  0.1000000E+03  0.7546771E-02  0.1280296E+00
          1   -1    0    0  502    0  0.00000000000E+00  0.00000000000E+00  0.35577958057E+03  0.35577958057E+03  0.00000000000E+00 0. -1.
         -1   -1    0    0    0  501 -0.00000000000E+00 -0.00000000000E+00 -0.17460535247E+03  0.17460535247E+03  0.00000000000E+00 0.  1.
          6    1    1    2  502    0  0.17784851745E+03  0.10458513172E+02  0.11322167216E+03  0.27292420688E+03  0.17300000000E+03 0. -1.
         -6    1    1    2    0  501 -0.17784851745E+03 -0.10458513172E+02  0.67952555937E+02  0.25746072616E+03  0.17300000000E+03 0.  1.
</event>
<event>
 4    1  0.5880538E-001  0.1000000E+03  0.7546771E-02  0.1280296E+00
         -1   -1    0    0    0  501 -0.00000000000E+00  0.00000000000E+00  0.89320361272E+02  0.89320361272E+02  0.00000000000E+00 0.  1.
          1   -1    0    0  502    0  0.00000000000E+00 -0.00000000000E+00 -0.96197922721E+03  0.96197922721E+03  0.00000000000E+00 0. -1.
          6    1    1    2  502    0 -0.11070221393E+03 -0.45522279440E+02 -0.70279670236E+02  0.22180056389E+03  0.17300000000E+03 0.  1.
         -6    1    1    2    0  501  0.11070221393E+03  0.45522279440E+02 -0.80237919570E+03  0.82949902459E+03  0.17300000000E+03 0. -1.
</event>
<event>
 4    1  0.5880538E-001  0.1000000E+03  0.7546771E-02  0.1280296E+00
         -1   -1    0    0    0  501 -0.00000000000E+00  0.00000000000E+00  0.13297173751E+03  0.13297173751E+03  0.00000000000E+00 0.  1.
          1   -1    0    0  502    0  0.00000000000E+00 -0.00000000000E+00 -0.82865254259E+03  0.82865254259E+03  0.00000000000E+00 0. -1.
          6    1    1    2  502    0  0.41930260477E+02  0.23509057713E+03 -0.12706086411E+03  0.32109062489E+03  0.17300000000E+03 0.  1.
         -6    1    1    2    0  501 -0.41930260477E+02 -0.23509057713E+03 -0.56861994097E+03  0.64053365522E+03  0.17300000000E+03 0. -1.
</event>
<event>
 4    1  0.5880538E-001  0.1000000E+03  0.7546771E-02  0.1280296E+00
         -2   -1    0    0    0  501 -0.00000000000E+00  0.00000000000E+00  0.63210447879E+02  0.63210447879E+02  0.00000000000E+00 0.  1.
          2   -1    0    0  502    0  0.00000000000E+00 -0.00000000000E+00 -0.72090436095E+03  0.72090436095E+03  0.00000000000E+00 0. -1.
          6    1    1    2  502    0  0.71565353752E+02 -0.44347303107E+02 -0.15900885669E+03  0.24960188232E+03  0.17300000000E+03 0. -1.
         -6    1    1    2    0  501 -0.71565353752E+02  0.44347303107E+02 -0.49868505638E+03  0.53451292651E+03  0.17300000000E+03 0.  1.
</event>
<event>
 4    1  0.5880538E-001  0.1000000E+03  0.7546771E-02  0.1280296E+00
         -1   -1    0    0    0  501 -0.00000000000E+00  0.00000000000E+00  0.15522650383E+04  0.15522650383E+04  0.00000000000E+00 0.  1.
          1   -1    0    0  502    0  0.00000000000E+00 -0.00000000000E+00 -0.24636633478E+02  0.24636633478E+02  0.00000000000E+00 0. -1.
          6    1    1    2  502    0 -0.39730597264E+02 -0.76642401404E+02  0.64550888126E+03  0.67384218764E+03  0.17300000000E+03 0. -1.
         -6    1    1    2    0  501  0.39730597264E+02  0.76642401404E+02  0.88211952355E+03  0.90305948413E+03  0.17300000000E+03 0.  1.
</event>
<event>
 4    1  0.5880538E-001  0.1000000E+03  0.7546771E-02  0.1280296E+00
         -1   -1    0    0    0  501 -0.00000000000E+00  0.00000000000E+00  0.23896370336E+02  0.23896370336E+02  0.00000000000E+00 0.  1.
          1   -1    0    0  502    0  0.00000000000E+00 -0.00000000000E+00 -0.12969160207E+04  0.12969160207E+04  0.00000000000E+00 0. -1.
          6    1    1    2  502    0  0.24443030661E+02 -0.12526121371E+02 -0.70236951672E+03  0.72388279678E+03  0.17300000000E+03 0. -1.
         -6    1    1    2    0  501 -0.24443030661E+02  0.12526121371E+02 -0.57065013363E+03  0.59692959424E+03  0.17300000000E+03 0.  1.
</event>
<event>
 4    1  0.5880538E-001  0.1000000E+03  0.7546771E-02  0.1280296E+00
          2   -1    0    0  502    0  0.00000000000E+00  0.00000000000E+00  0.82130488832E+03  0.82130488832E+03  0.00000000000E+00 0.  1.
         -2   -1    0    0    0  501 -0.00000000000E+00 -0.00000000000E+00 -0.65395444851E+02  0.65395444851E+02  0.00000000000E+00 0. -1.
          6    1    1    2  502    0  0.99491829695E+02  0.87837041203E+02  0.52818062274E+03  0.57141730829E+03  0.17300000000E+03 0.  1.
         -6    1    1    2    0  501 -0.99491829695E+02 -0.87837041203E+02  0.22772882073E+03  0.31528302488E+03  0.17300000000E+03 0. -1.
</event>
