<event>
 4    1  0.1089518E+000  0.1000000E+03  0.7546771E-02  0.1280296E+00
         -2   -1    0    0    0  501 -0.00000000000E+00  0.00000000000E+00  0.34929993318E+02  0.34929993318E+02  0.00000000000E+00 0.  1.
          2   -1    0    0  502    0  0.00000000000E+00 -0.00000000000E+00 -0.13432787171E+04  0.13432787171E+04  0.00000000000E+00 0. -1.
          6    1    1    2  502    0  0.91293131632E+02  0.20909733692E+02 -0.36574446827E+03  0.41529467721E+03  0.17300000000E+03 0. -1.
         -6    1    1    2    0  501 -0.91293131632E+02 -0.20909733692E+02 -0.94260425552E+03  0.96291403322E+03  0.17300000000E+03 0.  1.
</event>
<event>
 4    1  0.1089518E+000  0.1000000E+03  0.7546771E-02  0.1280296E+00
         -2   -1    0    0    0  501 -0.00000000000E+00  0.00000000000E+00  0.18286269835E+03  0.18286269835E+03  0.00000000000E+00 0.  1.
          2   -1    0    0  502    0  0.00000000000E+00 -0.00000000000E+00 -0.34202184985E+03  0.34202184985E+03  0.00000000000E+00 0. -1.
          6    1    1    2  502    0  0.42711849364E+02  0.10512042782E+02 -0.26338848383E+03  0.31817809248E+03  0.17300000000E+03 0. -1.
         -6    1    1    2    0  501 -0.42711849364E+02 -0.10512042782E+02  0.10422933232E+03  0.20670645572E+03  0.17300000000E+03 0.  1.
</event>
<event>
 4    1  0.1089518E+000  0.1000000E+03  0.7546771E-02  0.1280296E+00
         -2   -1    0    0    0  501 -0.00000000000E+00  0.00000000000E+00  0.47386755842E+02  0.47386755842E+02  0.00000000000E+00 0. -1.
          2   -1    0    0  502    0  0.00000000000E+00 -0.00000000000E+00 -0.65220853705E+03  0.65220853705E+03  0.00000000000E+00 0.  1.
          6    1    1    2  502    0  0.27133381065E+02 -0.26881251558E+01 -0.33282197246E+03  0.37608896785E+03  0.17300000000E+03 0. -1.
         -6    1    1    2    0  501 -0.27133381065E+02  0.26881251558E+01 -0.27199980875E+03  0.32350632505E+03  0.17300000000E+03 0.  1.
</event>
<event>
 4    1  0.1089518E+000  0.1000000E+03  0.7546771E-02  0.1280296E+00
         -2   -1    0    0    0  501 -0.00000000000E+00  0.00000000000E+00  0.11276923273E+03  0.11276923273E+03  0.00000000000E+00 0. -1.
          2   -1    0    0  502    0  0.00000000000E+00 -0.00000000000E+00 -0.80339066570E+03  0.80339066570E+03  0.00000000000E+00 0.  1.
          6    1    1    2  502    0  0.15976684229E+03  0.84507873418E+02 -0.90642370683E+02  0.26610536246E+03  0.17300000000E+03 0. -1.
         -6    1    1    2    0  501 -0.15976684229E+03 -0.84507873418E+02 -0.59997906228E+03  0.65005453597E+03  0.17300000000E+03 0.  1.
</event>
<event>
 4    1  0.1089518E+000  0.1000000E+03  0.7546771E-02  0.1280296E+00
         -2   -1    0    0    0  501 -0.00000000000E+00  0.00000000000E+00  0.39008530390E+02  0.39008530390E+02  0.00000000000E+00 0. -1.
          2   -1    0    0  502    0  0.00000000000E+00 -0.00000000000E+00 -0.93091409178E+03  0.93091409178E+03  0.00000000000E+00 0.  1.
          6    1    1    2  502    0 -0.41731648819E+02 -0.61285926768E+02 -0.52175076159E+03  0.55466237709E+03  0.17300000000E+03 0.  1.
         -6    1    1    2    0  501  0.41731648819E+02  0.61285926768E+02 -0.37015479979E+03  0.41526024508E+03  0.17300000000E+03 0. -1.
</event>
<event>
 4    1  0.1089518E+000  0.1000000E+03  0.7546771E-02  0.1280296E+00
          1   -1    0    0  502    0  0.00000000000E+00  0.00000000000E+00  0.92391985307E+02  0.92391985307E+02  0.00000000000E+00 0.  1.
         -1   -1    0    0    0  501 -0.00000000000E+00 -0.00000000000E+00 -0.59880001735E+03  0.59880001735E+03  0.00000000000E+00 0. -1.
          6    1    1    2  502    0 -0.81685876440E+02 -0.49295686060E+02 -0.44074960701E+03  0.48300296392E+03  0.17300000000E+03 0. -1.
         -6    1    1    2    0  501  0.81685876440E+02  0.49295686060E+02 -0.65658425035E+02  0.20818903874E+03  0.17300000000E+03 0.  1.
</event>
<event>
 4    1  0.1089518E+000  0.1000000E+03  0.7546771E-02  0.1280296E+00
          2   -1    0    0  502    0  0.00000000000E+00  0.00000000000E+00  0.31337028368E+04  0.31337028368E+04  0.00000000000E+00 0.  1.
         -2   -1    0    0    0  501 -0.00000000000E+00 -0.00000000000E+00 -0.11398957898E+02  0.11398957898E+02  0.00000000000E+00 0. -1.
          6    1    1    2  502    0 -0.51878239515E+02 -0.51205770348E+01  0.10998113922E+04  0.11145544718E+04  0.17300000000E+03 0. -1.
         -6    1    1    2    0  501  0.51878239515E+02  0.51205770348E+01  0.20224924867E+04  0.20305473230E+04  0.17300000000E+03 0.  1.
</event>
<event>
 4    1  0.1089518E+000  0.1000000E+03  0.7546771E-02  0.1280296E+00
         -2   -1    0    0    0  501 -0.00000000000E+00  0.00000000000E+00  0.36655555370E+02  0.36655555370E+02  0.00000000000E+00 0. -1.
          2   -1    0    0  502    0  0.00000000000E+00 -0.00000000000E+00 -0.86692592774E+03  0.86692592774E+03  0.00000000000E+00 0.  1.
          6    1    1    2  502    0 -0.21052462156E+02 -0.54321568079E+01 -0.32112483377E+03  0.36540781786E+03  0.17300000000E+03 0. -1.
         -6    1    1    2    0  501  0.21052462156E+02  0.54321568079E+01 -0.50914553861E+03  0.53817366525E+03  0.17300000000E+03 0.  1.
</event>
<event>
 4    1  0.1089518E+000  0.1000000E+03  0.7546771E-02  0.1280296E+00
         -2   -1    0    0    0  501 -0.00000000000E+00  0.00000000000E+00  0.33868391753E+02  0.33868391753E+02  0.00000000000E+00 0. -1.
          2   -1    0    0  502    0  0.00000000000E+00 -0.00000000000E+00 -0.15519591465E+04  0.15519591465E+04  0.00000000000E+00 0.  1.
          6    1    1    2  502    0 -0.79797624178E+02 -0.36267663938E+02 -0.11819226047E+04  0.11977282863E+04  0.17300000000E+03 0. -1.
         -6    1    1    2    0  501  0.79797624178E+02  0.36267663938E+02 -0.33616815007E+03  0.38809925199E+03  0.17300000000E+03 0.  1.
</event>
<event>
 4    1  0.1089518E+000  0.1000000E+03  0.7546771E-02  0.1280296E+00
         -3   -1    0    0    0  501 -0.00000000000E+00  0.00000000000E+00  0.59993517547E+03  0.59993517547E+03  0.00000000000E+00 0.  1.
          3   -1    0    0  502    0  0.00000000000E+00 -0.00000000000E+00 -0.94234034898E+02  0.94234034898E+02  0.00000000000E+00 0. -1.
          6    1    1    2  502    0  0.12774871930E+03  0.99808179319E+02  0.27912223937E+03  0.36622347338E+03  0.17300000000E+03 0.  1.
         -6    1    1    2    0  501 -0.12774871930E+03 -0.99808179319E+02  0.22657890121E+03  0.32794573700E+03  0.17300000000E+03 0. -1.
</event>
<event>
 4    1  0.1089518E+000  0.1000000E+03  0.7546771E-02  0.1280296E+00
          1   -1    0    0  502    0  0.00000000000E+00  0.00000000000E+00  0.50565702771E+03  0.50565702771E+03  0.00000000000E+00 0. -1.
         -1   -1    0    0    0  501 -0.00000000000E+00 -0.00000000000E+00 -0.75705723542E+02  0.75705723542E+02  0.00000000000E+00 0.  1.
          6    1    1    2  502    0 -0.58440222620E+02  0.56873640418E+02  0.15367884635E+03  0.24534885044E+03  0.17300000000E+03 0. -1.
         -6    1    1    2    0  501  0.58440222620E+02 -0.56873640418E+02  0.27627245781E+03  0.33601390081E+03  0.17300000000E+03 0.  1.
</event>
<event>
 4    1  0.1089518E+000  0.1000000E+03  0.7546771E-02  0.1280296E+00
          2   -1    0    0  502    0  0.00000000000E+00  0.00000000000E+00  0.46714122911E+03  0.46714122911E+03  0.00000000000E+00 0. -1.
         -2   -1    0    0    0  501 -0.00000000000E+00 -0.00000000000E+00 -0.26350490587E+03  0.26350490587E+03  0.00000000000E+00 0.  1.
          6    1    1    2  502    0  0.43118775557E+02  0.49320915472E+02 -0.20859784761E+03  0.27880789719E+03  0.17300000000E+03 0. -1.
         -6    1    1    2    0  501 -0.43118775557E+02 -0.49320915472E+02  0.41223417085E+03  0.45183823778E+03  0.17300000000E+03 0.  1.
</event>
<event>
 4    1  0.1089518E+000  0.1000000E+03  0.7546771E-02  0.1280296E+00
          1   -1    0    0  502    0  0.00000000000E+00  0.00000000000E+00  0.34007729645E+03  0.34007729645E+03  0.00000000000E+00 0. -1.
         -1   -1    0    0    0  501 -0.00000000000E+00 -0.00000000000E+00 -0.19747993391E+03  0.19747993391E+03  0.00000000000E+00 0.  1.
          6    1    1    2  502    0  0.60292917630E+02  0.15428225123E+03  0.17392581811E+03  0.29600243101E+03  0.17300000000E+03 0.  1.
         -6    1    1    2    0  501 -0.60292917630E+02 -0.15428225123E+03 -0.31328455569E+02  0.24155479935E+03  0.17300000000E+03 0. -1.
</event>
<event>
 4    1  0.1089518E+000  0.1000000E+03  0.7546771E-02  0.1280296E+00
          1   -1    0    0  502    0  0.00000000000E+00  0.00000000000E+00  0.27813074187E+04  0.27813074187E+04  0.00000000000E+00 0. -1.
         -1   -1    0    0    0  501 -0.00000000000E+00 -0.00000000000E+00 -0.11828274627E+02  0.11828274627E+02  0.00000000000E+00 0.  1.
          6    1    1    2  502    0  0.56142638618E+01  0.33187408171E+02  0.10548031918E+04  0.10694258729E+04  0.17300000000E+03 0. -1.
         -6    1    1    2    0  501 -0.56142638618E+01 -0.33187408171E+02  0.17146759523E+04  0.17237098205E+04  0.17300000000E+03 0.  1.
</event>
<event>
 4    1  0.1089518E+000  0.1000000E+03  0.7546771E-02  0.1280296E+00
          2   -1    0    0  502    0  0.00000000000E+00  0.00000000000E+00  0.26040358173E+04  0.26040358173E+04  0.00000000000E+00 0.  1.
         -2   -1    0    0    0  501 -0.00000000000E+00 -0.00000000000E+00 -0.12403105209E+02  0.12403105209E+02  0.00000000000E+00 0. -1.
          6    1    1    2  502    0  0.14658651481E+02  0.19639442074E+02  0.98969040184E+03  0.10049958583E+04  0.17300000000E+03 0. -1.
         -6    1    1    2    0  501 -0.14658651481E+02 -0.19639442074E+02  0.16019423103E+04  0.16114430642E+04  0.17300000000E+03 0.  1.
</event>
<event>
 4    1  0.1089518E+000  0.1000000E+03  0.7546771E-02  0.1280296E+00
          4   -1    0    0  502    0  0.00000000000E+00  0.00000000000E+00  0.20960563187E+03  0.20960563187E+03  0.00000000000E+00 0. -1.
         -4   -1    0    0    0  501 -0.00000000000E+00 -0.00000000000E+00 -0.23479172835E+03  0.23479172835E+03  0.00000000000E+00 0.  1.
          6    1    1    2  502    0 -0.10294507163E+03 -0.23524741141E+02  0.77738434427E+02  0.21707916852E+03  0.17300000000E+03 0.  1.
         -6    1    1    2    0  501  0.10294507163E+03  0.23524741141E+02 -0.10292453091E+03  0.22731819171E+03  0.17300000000E+03 0.  1.
</event>
<event>
 4    1  0.1089518E+000  0.1000000E+03  0.7546771E-02  0.1280296E+00
         -2   -1    0    0    0  501 -0.00000000000E+00  0.00000000000E+00  0.11159048543E+04  0.11159048543E+04  0.00000000000E+00 0. -1.
          2   -1    0    0  502    0  0.00000000000E+00 -0.00000000000E+00 -0.53576227191E+02  0.53576227191E+02  0.00000000000E+00 0.  1.
          6    1    1    2  502    0 -0.27923075627E+02 -0.71978237890E+02  0.90084763901E+03  0.92055202656E+03  0.17300000000E+03 0.  1.
         -6    1    1    2    0  501  0.27923075627E+02  0.71978237890E+02  0.16148098814E+03  0.24892905498E+03  0.17300000000E+03 0. -1.
</event>
<event>
 4    1  0.1089518E+000  0.1000000E+03  0.7546771E-02  0.1280296E+00
         -2   -1    0    0    0  501 -0.00000000000E+00  0.00000000000E+00  0.10078330368E+03  0.10078330368E+03  0.00000000000E+00 0. -1.
          2   -1    0    0  502    0  0.00000000000E+00 -0.00000000000E+00 -0.10087934462E+04  0.10087934462E+04  0.00000000000E+00 0.  1.
          6    1    1    2  502    0 -0.16714713324E+03 -0.38070985375E+02 -0.81207996962E+03  0.84781509844E+03  0.17300000000E+03 0.  1.
         -6    1    1    2    0  501  0.16714713324E+03  0.38070985375E+02 -0.95930172864E+02  0.26176165140E+03  0.17300000000E+03 0. -1.
</event>
<event>
 4    1  0.1089518E+000  0.1000000E+03  0.7546771E-02  0.1280296E+00
         -2   -1    0    0    0  501 -0.00000000000E+00  0.00000000000E+00  0.18823226737E+02  0.18823226737E+02  0.00000000000E+00 0. -1.
          2   -1    0    0  502    0  0.00000000000E+00 -0.00000000000E+00 -0.23215900685E+04  0.23215900685E+04  0.00000000000E+00 0.  1.
          6    1    1    2  502    0 -0.50924589117E+02 -0.85199554908E+02 -0.15018001281E+04  0.15149867665E+04  0.17300000000E+03 0.  1.
         -6    1    1    2    0  501  0.50924589117E+02  0.85199554908E+02 -0.80096671365E+03  0.82542652872E+03  0.17300000000E+03 0. -1.
</event>
<event>
 4    1  0.1089518E+000  0.1000000E+03  0.7546771E-02  0.1280296E+00
         -1   -1    0    0    0  501 -0.00000000000E+00  0.00000000000E+00  0.11440603882E+03  0.11440603882E+03  0.00000000000E+00 0. -1.
          1   -1    0    0  502    0  0.00000000000E+00 -0.00000000000E+00 -0.54547974617E+03  0.54547974617E+03  0.00000000000E+00 0.  1.
          6    1    1    2  502    0 -0.92061082235E+02 -0.32580721087E+02 -0.41558096536E+03  0.46062271439E+03  0.17300000000E+03 0.  1.
         -6    1    1    2    0  501  0.92061082235E+02  0.32580721087E+02 -0.15492741994E+02  0.19926307060E+03  0.17300000000E+03 0. -1.
</event>
<event>
 4    1  0.1089518E+000  0.1000000E+03  0.7546771E-02  0.1280296E+00
         -1   -1    0    0    0  501 -0.00000000000E+00  0.00000000000E+00  0.59675886770E+02  0.59675886770E+02  0.00000000000E+00 0.  1.
          1   -1    0    0  502    0  0.00000000000E+00 -0.00000000000E+00 -0.11075472789E+04  0.11075472789E+04  0.00000000000E+00 0. -1.
          6    1    1    2  502    0  0.75838416540E+02  0.12168136174E+03 -0.24033735176E+03  0.32901194791E+03  0.17300000000E+03 0.  1.
         -6    1    1    2    0  501 -0.75838416540E+02 -0.12168136174E+03 -0.80753404039E+03  0.83821121777E+03  0.17300000000E+03 0.  1.
</event>
<event>
 4    1  0.1089518E+000  0.1000000E+03  0.7546771E-02  0.1280296E+00
         -2   -1    0    0    0  501 -0.00000000000E+00  0.00000000000E+00  0.89470358976E+02  0.89470358976E+02  0.00000000000E+00 0.  1.
          2   -1    0    0  502    0  0.00000000000E+00 -0.00000000000E+00 -0.81473256105E+03  0.81473256105E+03  0.00000000000E+00 0. -1.
          6    1    1    2  502    0  0.96757973274E+02  0.57209844683E+02 -0.65425790862E+03  0.68601565777E+03  0.17300000000E+03 0.  1.
         -6    1    1    2    0  501 -0.96757973274E+02 -0.57209844683E+02 -0.71004293459E+02  0.21818726225E+03  0.17300000000E+03 0.  1.
</event>
<event>
 4    1  0.1089518E+000  0.1000000E+03  0.7546771E-02  0.1280296E+00
          1   -1    0    0  502    0  0.00000000000E+00  0.00000000000E+00  0.12409181899E+04  0.12409181899E+04  0.00000000000E+00 0.  1.
         -1   -1    0    0    0  501 -0.00000000000E+00 -0.00000000000E+00 -0.78146103432E+02  0.78146103432E+02  0.00000000000E+00 0. -1.
          6    1    1    2  502    0  0.98896824560E+02  0.20001800635E+03  0.30316978053E+03  0.41428094405E+03  0.17300000000E+03 0.  1.
         -6    1    1    2    0  501 -0.98896824560E+02 -0.20001800635E+03  0.85960230596E+03  0.90478334931E+03  0.17300000000E+03 0. -1.
</event>
<event>
 4    1  0.1089518E+000  0.1000000E+03  0.7546771E-02  0.1280296E+00
         -2   -1    0    0    0  501 -0.00000000000E+00  0.00000000000E+00  0.38493747547E+03  0.38493747547E+03  0.00000000000E+00 0.  1.
          2   -1    0    0  502    0  0.00000000000E+00 -0.00000000000E+00 -0.16344015662E+03  0.16344015662E+03  0.00000000000E+00 0. -1.
          6    1    1    2  502    0  0.89348137182E+02  0.60379307253E+02 -0.49001096077E+02  0.20966367778E+03  0.17300000000E+03 0. -1.
         -6    1    1    2    0  501 -0.89348137182E+02 -0.60379307253E+02  0.27049841493E+03  0.33871395430E+03  0.17300000000E+03 0. -1.
</event>
<event>
 4    1  0.1089518E+000  0.1000000E+03  0.7546771E-02  0.1280296E+00
         -2   -1    0    0    0  501 -0.00000000000E+00  0.00000000000E+00  0.37419151828E+02  0.37419151828E+02  0.00000000000E+00 0.  1.
          2   -1    0    0  502    0  0.00000000000E+00 -0.00000000000E+00 -0.10203506860E+04  0.10203506860E+04  0.00000000000E+00 0. -1.
          6    1    1    2  502    0 -0.86631271576E+02  0.13197493225E+02 -0.55622915795E+03  0.58906623329E+03  0.17300000000E+03 0. -1.
         -6    1    1    2    0  501  0.86631271576E+02 -0.13197493225E+02 -0.42670237625E+03  0.46870360458E+03  0.17300000000E+03 0. -1.
</event>
<event>
 4    1  0.1089518E+000  0.1000000E+03  0.7546771E-02  0.1280296E+00
         -1   -1    0    0    0  501 -0.00000000000E+00  0.00000000000E+00  0.16870876966E+04  0.16870876966E+04  0.00000000000E+00 0.  1.
          1   -1    0    0  502    0  0.00000000000E+00 -0.00000000000E+00 -0.72536196216E+02  0.72536196216E+02  0.00000000000E+00 0. -1.
          6    1    1    2  502    0  0.11500448181E+03 -0.20784840150E+03  0.12845951356E+04  0.13177786806E+04  0.17300000000E+03 0. -1.
         -6    1    1    2    0  501 -0.11500448181E+03  0.20784840150E+03  0.32995636486E+03  0.44184521221E+03  0.17300000000E+03 0.  1.
</event>
<event>
 4    1  0.1089518E+000  0.1000000E+03  0.7546771E-02  0.1280296E+00
         -2   -1    0    0    0  501 -0.00000000000E+00  0.00000000000E+00  0.17506434104E+02  0.17506434104E+02  0.00000000000E+00 0.  1.
          2   -1    0    0  502    0  0.00000000000E+00 -0.00000000000E+00 -0.37783855970E+04  0.37783855970E+04  0.00000000000E+00 0. -1.
          6    1    1    2  502    0  0.71450142671E+02  0.45186901079E+02 -0.31386549347E+04  0.31445557362E+04  0.17300000000E+03 0. -1.
         -6    1    1    2    0  501 -0.71450142671E+02 -0.45186901079E+02 -0.62222422826E+03  0.65133629498E+03  0.17300000000E+03 0.  1.
</event>
<event>
 4    1  0.1089518E+000  0.1000000E+03  0.7546771E-02  0.1280296E+00
         -1   -1    0    0    0  501 -0.00000000000E+00  0.00000000000E+00  0.68008458315E+02  0.68008458315E+02  0.00000000000E+00 0.  1.
          1   -1    0    0  502    0  0.00000000000E+00 -0.00000000000E+00 -0.73282397834E+03  0.73282397834E+03  0.00000000000E+00 0. -1.
          6    1    1    2  502    0  0.98426174866E+02  0.76508741933E+02 -0.45094864597E+03  0.49882359687E+03  0.17300000000E+03 0. -1.
         -6    1    1    2    0  501 -0.98426174866E+02 -0.76508741933E+02 -0.21386687405E+03  0.30200883978E+03  0.17300000000E+03 0.  1.
</event>
<event>
 4    1  0.1089518E+000  0.1000000E+03  0.7546771E-02  0.1280296E+00
         -1   -1    0    0    0  501 -0.00000000000E+00  0.00000000000E+00  0.19004610046E+04  0.19004610046E+04  0.00000000000E+00 0.  1.
          1   -1    0    0  502    0  0.00000000000E+00 -0.00000000000E+00 -0.40174218059E+02  0.40174218059E+02  0.00000000000E+00 0. -1.
          6    1    1    2  502    0  0.14137606304E+03 -0.60014900204E+02  0.39952968542E+03  0.46167298922E+03  0.17300000000E+03 0. -1.
         -6    1    1    2    0  501 -0.14137606304E+03  0.60014900204E+02  0.14607571011E+04  0.14789622334E+04  0.17300000000E+03 0.  1.
</event>
<event>
 4    1  0.1089518E+000  0.1000000E+03  0.7546771E-02  0.1280296E+00
          1   -1    0    0  502    0  0.00000000000E+00  0.00000000000E+00  0.82442970363E+03  0.82442970363E+03  0.00000000000E+00 0. -1.
         -1   -1    0    0    0  501 -0.00000000000E+00 -0.00000000000E+00 -0.14685818537E+03  0.14685818537E+03  0.00000000000E+00 0.  1.
          6    1    1    2  502    0  0.30785313849E+02  0.19713590895E+03  0.22558978043E+02  0.26504378815E+03  0.17300000000E+03 0. -1.
         -6    1    1    2    0  501 -0.30785313849E+02 -0.19713590895E+03  0.65501254021E+03  0.70624410085E+03  0.17300000000E+03 0.  1.
</event>
<event>
 4    1  0.1089518E+000  0.1000000E+03  0.7546771E-02  0.1280296E+00
          2   -1    0    0  502    0  0.00000000000E+00  0.00000000000E+00  0.31054014253E+03  0.31054014253E+03  0.00000000000E+00 0. -1.
         -2   -1    0    0    0  501 -0.00000000000E+00 -0.00000000000E+00 -0.18075254781E+03  0.18075254781E+03  0.00000000000E+00 0.  1.
          6    1    1    2  502    0  0.10858357108E+03  0.97350037243E+02  0.13772723506E+03  0.26488717020E+03  0.17300000000E+03 0. -1.
         -6    1    1    2    0  501 -0.10858357108E+03 -0.97350037243E+02 -0.79396403357E+01  0.22640552014E+03  0.17300000000E+03 0.  1.
</event>
<event>
 4    1  0.1089518E+000  0.1000000E+03  0.7546771E-02  0.1280296E+00
         -2   -1    0    0    0  501 -0.00000000000E+00  0.00000000000E+00  0.62199763075E+02  0.62199763075E+02  0.00000000000E+00 0.  1.
          2   -1    0    0  502    0  0.00000000000E+00 -0.00000000000E+00 -0.61755075854E+03  0.61755075854E+03  0.00000000000E+00 0. -1.
          6    1    1    2  502    0  0.11336496913E+02 -0.89489597299E+02 -0.24543661939E+03  0.31353634291E+03  0.17300000000E+03 0.  1.
         -6    1    1    2    0  501 -0.11336496913E+02  0.89489597299E+02 -0.30991437607E+03  0.36621417870E+03  0.17300000000E+03 0. -1.
</event>
<event>
 4    1  0.1089518E+000  0.1000000E+03  0.7546771E-02  0.1280296E+00
         -2   -1    0    0    0  501 -0.00000000000E+00  0.00000000000E+00  0.35476010718E+03  0.35476010718E+03  0.00000000000E+00 0. -1.
          2   -1    0    0  502    0  0.00000000000E+00 -0.00000000000E+00 -0.15646462825E+03  0.15646462825E+03  0.00000000000E+00 0.  1.
          6    1    1    2  502    0  0.90046250043E+02 -0.48461189376E+02 -0.34267419709E+02  0.20386287076E+03  0.17300000000E+03 0.  1.
         -6    1    1    2    0  501 -0.90046250043E+02  0.48461189376E+02  0.23256289864E+03  0.30736186466E+03  0.17300000000E+03 0. -1.
</event>
<event>
 4    1  0.1089518E+000  0.1000000E+03  0.7546771E-02  0.1280296E+00
         -4   -1    0    0    0  501 -0.00000000000E+00  0.00000000000E+00  0.26239558496E+03  0.26239558496E+03  0.00000000000E+00 0.  1.
          4   -1    0    0  502    0  0.00000000000E+00 -0.00000000000E+00 -0.32441629229E+03  0.32441629229E+03  0.00000000000E+00 0. -1.
          6    1    1    2  502    0 -0.16507271233E+03 -0.12371661577E+03  0.82057814556E+02  0.28145565602E+03  0.17300000000E+03 0. -1.
         -6    1    1    2    0  501  0.16507271233E+03  0.12371661577E+03 -0.14407852189E+03  0.30535622123E+03  0.17300000000E+03 0.  1.
</event>
<event>
 4    1  0.1089518E+000  0.1000000E+03  0.7546771E-02  0.1280296E+00
         -2   -1    0    0    0  501 -0.00000000000E+00  0.00000000000E+00  0.22695755359E+02  0.22695755359E+02  0.00000000000E+00 0. -1.
          2   -1    0    0  502    0  0.00000000000E+00 -0.00000000000E+00 -0.14282540651E+04  0.14282540651E+04  0.00000000000E+00 0.  1.
          6    1    1    2  502    0 -0.42202044846E+02  0.15442080738E+02 -0.78984118119E+03  0.80981328832E+03  0.17300000000E+03 0.  1.
         -6    1    1    2    0  501  0.42202044846E+02 -0.15442080738E+02 -0.61571712860E+03  0.64113653218E+03  0.17300000000E+03 0. -1.
</event>
<event>
 4    1  0.1089518E+000  0.1000000E+03  0.7546771E-02  0.1280296E+00
          2   -1    0    0  502    0  0.00000000000E+00  0.00000000000E+00  0.23430717593E+03  0.23430717593E+03  0.00000000000E+00 0. -1.
         -2   -1    0    0    0  501 -0.00000000000E+00 -0.00000000000E+00 -0.12903635475E+03  0.12903635475E+03  0.00000000000E+00 0.  1.
          6    1    1    2  502    0  0.84109793636E+01 -0.15306468440E+02  0.52984013689E+02  0.18177276544E+03  0.17300000000E+03 0. -1.
         -6    1    1    2    0  501 -0.84109793636E+01  0.15306468440E+02  0.52286807494E+02  0.18157076523E+03  0.17300000000E+03 0.  1.
</event>
<event>
 4    1  0.1089518E+000  0.1000000E+03  0.7546771E-02  0.1280296E+00
          3   -1    0    0  502    0  0.00000000000E+00  0.00000000000E+00  0.31237660695E+03  0.31237660695E+03  0.00000000000E+00 0. -1.
         -3   -1    0    0    0  501 -0.00000000000E+00 -0.00000000000E+00 -0.12602983576E+03  0.12602983576E+03  0.00000000000E+00 0.  1.
          6    1    1    2  502    0 -0.79948726085E+02  0.19399208989E+02  0.36070202465E+02  0.19493123818E+03  0.17300000000E+03 0. -1.
         -6    1    1    2    0  501  0.79948726085E+02 -0.19399208989E+02  0.15027656873E+03  0.24347520453E+03  0.17300000000E+03 0.  1.
</event>
<event>
 4    1  0.1089518E+000  0.1000000E+03  0.7546771E-02  0.1280296E+00
         -3   -1    0    0    0  501 -0.00000000000E+00  0.00000000000E+00  0.54491051158E+03  0.54491051158E+03  0.00000000000E+00 0. -1.
          3   -1    0    0  502    0  0.00000000000E+00 -0.00000000000E+00 -0.74838767218E+02  0.74838767218E+02  0.00000000000E+00 0.  1.
          6    1    1    2  502    0 -0.71650571353E+02  0.15730896341E+01  0.35104015398E+03  0.39786237406E+03  0.17300000000E+03 0.  1.
         -6    1    1    2    0  501  0.71650571353E+02 -0.15730896341E+01  0.11903159038E+03  0.22188690474E+03  0.17300000000E+03 0. -1.
</event>
<event>
 4    1  0.1089518E+000  0.1000000E+03  0.7546771E-02  0.1280296E+00
          2   -1    0    0  502    0  0.00000000000E+00  0.00000000000E+00  0.16980655367E+04  0.16980655367E+04  0.00000000000E+00 0.  1.
         -2   -1    0    0    0  501 -0.00000000000E+00 -0.00000000000E+00 -0.17049338438E+03  0.17049338438E+03  0.00000000000E+00 0. -1.
          6    1    1    2  502    0  0.82092653457E+02  0.22282876616E+03  0.15464853341E+04  0.15741466740E+04  0.17300000000E+03 0.  1.
         -6    1    1    2    0  501 -0.82092653457E+02 -0.22282876616E+03 -0.18913181753E+02  0.29441224707E+03  0.17300000000E+03 0. -1.
</event>
<event>
 4    1  0.1089518E+000  0.1000000E+03  0.7546771E-02  0.1280296E+00
          2   -1    0    0  502    0  0.00000000000E+00  0.00000000000E+00  0.25372482278E+04  0.25372482278E+04  0.00000000000E+00 0.  1.
         -2   -1    0    0    0  501 -0.00000000000E+00 -0.00000000000E+00 -0.13326877335E+02  0.13326877335E+02  0.00000000000E+00 0. -1.
          6    1    1    2  502    0  0.50397288513E+01 -0.21630278164E+02  0.16658360238E+04  0.16749423650E+04  0.17300000000E+03 0. -1.
         -6    1    1    2    0  501 -0.50397288513E+01  0.21630278164E+02  0.85808532661E+03  0.87563274011E+03  0.17300000000E+03 0.  1.
</event>
<event>
 4    1  0.1089518E+000  0.1000000E+03  0.7546771E-02  0.1280296E+00
         -2   -1    0    0    0  501 -0.00000000000E+00  0.00000000000E+00  0.63611622650E+02  0.63611622650E+02  0.00000000000E+00 0.  1.
          2   -1    0    0  502    0  0.00000000000E+00 -0.00000000000E+00 -0.62553112042E+03  0.62553112042E+03  0.00000000000E+00 0. -1.
          6    1    1    2  502    0  0.62187684284E+02  0.77313606713E+02 -0.27376512989E+03  0.33870495745E+03  0.17300000000E+03 0.  1.
         -6    1    1    2    0  501 -0.62187684284E+02 -0.77313606713E+02 -0.28815436788E+03  0.35043778562E+03  0.17300000000E+03 0. -1.
</event>
<event>
 4    1  0.1089518E+000  0.1000000E+03  0.7546771E-02  0.1280296E+00
         -2   -1    0    0    0  501 -0.00000000000E+00  0.00000000000E+00  0.27926425236E+03  0.27926425236E+03  0.00000000000E+00 0.  1.
          2   -1    0    0  502    0  0.00000000000E+00 -0.00000000000E+00 -0.23582776428E+03  0.23582776428E+03  0.00000000000E+00 0. -1.
          6    1    1    2  502    0  0.59538341522E+02  0.14329769485E+03 -0.87529607393E+02  0.24833339612E+03  0.17300000000E+03 0.  1.
         -6    1    1    2    0  501 -0.59538341522E+02 -0.14329769485E+03  0.13096609547E+03  0.26675862052E+03  0.17300000000E+03 0. -1.
</event>
<event>
 4    1  0.1089518E+000  0.1000000E+03  0.7546771E-02  0.1280296E+00
         -2   -1    0    0    0  501 -0.00000000000E+00  0.00000000000E+00  0.52177195112E+02  0.52177195112E+02  0.00000000000E+00 0.  1.
          2   -1    0    0  502    0  0.00000000000E+00 -0.00000000000E+00 -0.29837541935E+04  0.29837541935E+04  0.00000000000E+00 0. -1.
          6    1    1    2  502    0 -0.10681060765E+03 -0.45262960357E+02 -0.27550038537E+04  0.27628667133E+04  0.17300000000E+03 0.  1.
         -6    1    1    2    0  501  0.10681060765E+03  0.45262960357E+02 -0.17657314469E+03  0.27306467533E+03  0.17300000000E+03 0. -1.
</event>
<event>
 4    1  0.1089518E+000  0.1000000E+03  0.7546771E-02  0.1280296E+00
          2   -1    0    0  502    0  0.00000000000E+00  0.00000000000E+00  0.30859175919E+03  0.30859175919E+03  0.00000000000E+00 0. -1.
         -2   -1    0    0    0  501 -0.00000000000E+00 -0.00000000000E+00 -0.30946645049E+03  0.30946645049E+03  0.00000000000E+00 0.  1.
          6    1    1    2  502    0 -0.29595113253E+02 -0.19763880142E+03 -0.16054006627E+03  0.30925568618E+03  0.17300000000E+03 0. -1.
         -6    1    1    2    0  501  0.29595113253E+02  0.19763880142E+03  0.15966537497E+03  0.30880252350E+03  0.17300000000E+03 0.  1.
</event>
<event>
 4    1  0.1089518E+000  0.1000000E+03  0.7546771E-02  0.1280296E+00
          2   -1    0    0  502    0  0.00000000000E+00  0.00000000000E+00  0.16362456994E+04  0.16362456994E+04  0.00000000000E+00 0. -1.
         -2   -1    0    0    0  501 -0.00000000000E+00 -0.00000000000E+00 -0.51249650710E+02  0.51249650710E+02  0.00000000000E+00 0.  1.
          6    1    1    2  502    0  0.40439104977E+02 -0.22855701302E+03  0.77100947889E+03  0.82356435447E+03  0.17300000000E+03 0. -1.
         -6    1    1    2    0  501 -0.40439104977E+02  0.22855701302E+03  0.81398656975E+03  0.86393099559E+03  0.17300000000E+03 0.  1.
</event>
<event>
 4    1  0.1089518E+000  0.1000000E+03  0.7546771E-02  0.1280296E+00
          1   -1    0    0  502    0  0.00000000000E+00  0.00000000000E+00  0.39309774751E+03  0.39309774751E+03  0.00000000000E+00 0.  1.
         -1   -1    0    0    0  501 -0.00000000000E+00 -0.00000000000E+00 -0.14773212922E+03  0.14773212922E+03  0.00000000000E+00 0. -1.
          6    1    1    2  502    0  0.61263445792E+02 -0.11494922998E+03  0.40464455941E+01  0.21659157182E+03  0.17300000000E+03 0.  1.
         -6    1    1    2    0  501 -0.61263445792E+02  0.11494922998E+03  0.24131917269E+03  0.32423830491E+03  0.17300000000E+03 0. -1.
</event>
<event>
 4    1  0.1089518E+000  0.1000000E+03  0.7546771E-02  0.1280296E+00
         -2   -1    0    0    0  501 -0.00000000000E+00  0.00000000000E+00  0.86483411518E+02  0.86483411518E+02  0.00000000000E+00 0. -1.
          2   -1    0    0  502    0  0.00000000000E+00 -0.00000000000E+00 -0.79237376670E+03  0.79237376670E+03  0.00000000000E+00 0.  1.
          6    1    1    2  502    0 -0.12139616179E+03  0.69589555648E+02 -0.58444168451E+03  0.62536454724E+03  0.17300000000E+03 0. -1.
         -6    1    1    2    0  501  0.12139616179E+03 -0.69589555648E+02 -0.12144867067E+03  0.25349263098E+03  0.17300000000E+03 0.  1.
</event>
<event>
 4    1  0.1089518E+000  0.1000000E+03  0.7546771E-02  0.1280296E+00
         -1   -1    0    0    0  501 -0.00000000000E+00  0.00000000000E+00  0.80243393078E+02  0.80243393078E+02  0.00000000000E+00 0. -1.
          1   -1    0    0  502    0  0.00000000000E+00 -0.00000000000E+00 -0.52435648775E+03  0.52435648775E+03  0.00000000000E+00 0.  1.
          6    1    1    2  502    0  0.49837258032E+02 -0.98274485745E+02 -0.21859501376E+03  0.29975724658E+03  0.17300000000E+03 0. -1.
         -6    1    1    2    0  501 -0.49837258032E+02  0.98274485745E+02 -0.22551808091E+03  0.30484263425E+03  0.17300000000E+03 0.  1.
</event>
<event>
 4    1  0.1089518E+000  0.1000000E+03  0.7546771E-02  0.1280296E+00
          4   -1    0    0  502    0  0.00000000000E+00  0.00000000000E+00  0.25204609398E+04  0.25204609398E+04  0.00000000000E+00 0.  1.
         -4   -1    0    0    0  501 -0.00000000000E+00 -0.00000000000E+00 -0.17950334453E+02  0.17950334453E+02  0.00000000000E+00 0. -1.
          6    1    1    2  502    0  0.22979699621E+02 -0.12188566283E+02  0.19731752245E+04  0.19809154687E+04  0.17300000000E+03 0. -1.
         -6    1    1    2    0  501 -0.22979699621E+02  0.12188566283E+02  0.52933538089E+03  0.55749580555E+03  0.17300000000E+03 0.  1.
</event>
<event>
 4    1  0.1089518E+000  0.1000000E+03  0.7546771E-02  0.1280296E+00
          2   -1    0    0  502    0  0.00000000000E+00  0.00000000000E+00  0.23985651419E+03  0.23985651419E+03  0.00000000000E+00 0.  1.
         -2   -1    0    0    0  501 -0.00000000000E+00 -0.00000000000E+00 -0.14853746202E+03  0.14853746202E+03  0.00000000000E+00 0. -1.
          6    1    1    2  502    0  0.33847649983E+02  0.61017183323E+02  0.75298711947E+02  0.20116574284E+03  0.17300000000E+03 0. -1.
         -6    1    1    2    0  501 -0.33847649983E+02 -0.61017183323E+02  0.16020340224E+02  0.18722823337E+03  0.17300000000E+03 0.  1.
</event>
<event>
 4    1  0.1089518E+000  0.1000000E+03  0.7546771E-02  0.1280296E+00
          2   -1    0    0  502    0  0.00000000000E+00  0.00000000000E+00  0.26567405561E+03  0.26567405561E+03  0.00000000000E+00 0.  1.
         -2   -1    0    0    0  501 -0.00000000000E+00 -0.00000000000E+00 -0.20691397038E+03  0.20691397038E+03  0.00000000000E+00 0. -1.
          6    1    1    2  502    0  0.17280414898E+00 -0.15492872929E+03 -0.31170179579E+01  0.23225343231E+03  0.17300000000E+03 0. -1.
         -6    1    1    2    0  501 -0.17280414898E+00  0.15492872929E+03  0.61877103193E+02  0.24033459368E+03  0.17300000000E+03 0.  1.
</event>
<event>
 4    1  0.1089518E+000  0.1000000E+03  0.7546771E-02  0.1280296E+00
         -2   -1    0    0    0  501 -0.00000000000E+00  0.00000000000E+00  0.15616174806E+03  0.15616174806E+03  0.00000000000E+00 0. -1.
          2   -1    0    0  502    0  0.00000000000E+00 -0.00000000000E+00 -0.23392094994E+03  0.23392094994E+03  0.00000000000E+00 0.  1.
          6    1    1    2  502    0 -0.58439792221E+02  0.50543525456E+01  0.18483295300E+02  0.18360661208E+03  0.17300000000E+03 0.  1.
         -6    1    1    2    0  501  0.58439792221E+02 -0.50543525456E+01 -0.96242497179E+02  0.20647608592E+03  0.17300000000E+03 0. -1.
</event>
<event>
 4    1  0.1089518E+000  0.1000000E+03  0.7546771E-02  0.1280296E+00
         -2   -1    0    0    0  501 -0.00000000000E+00  0.00000000000E+00  0.14219242827E+03  0.14219242827E+03  0.00000000000E+00 0. -1.
          2   -1    0    0  502    0  0.00000000000E+00 -0.00000000000E+00 -0.26473176324E+03  0.26473176324E+03  0.00000000000E+00 0.  1.
          6    1    1    2  502    0  0.56631156031E+02 -0.66865079590E+02 -0.54992861571E+02  0.20157192643E+03  0.17300000000E+03 0.  1.
         -6    1    1    2    0  501 -0.56631156031E+02  0.66865079590E+02 -0.67546473396E+02  0.20535226507E+03  0.17300000000E+03 0. -1.
</event>
<event>
 4    1  0.1089518E+000  0.1000000E+03  0.7546771E-02  0.1280296E+00
         -2   -1    0    0    0  501 -0.00000000000E+00  0.00000000000E+00  0.60460897589E+03  0.60460897589E+03  0.00000000000E+00 0. -1.
          2   -1    0    0  502    0  0.00000000000E+00 -0.00000000000E+00 -0.11724784975E+03  0.11724784975E+03  0.00000000000E+00 0.  1.
          6    1    1    2  502    0  0.16763721870E+03  0.28670480005E+02  0.39240079581E+03  0.46133677295E+03  0.17300000000E+03 0.  1.
         -6    1    1    2    0  501 -0.16763721870E+03 -0.28670480005E+02  0.94960330335E+02  0.26052005269E+03  0.17300000000E+03 0. -1.
</event>
<event>
 4    1  0.1089518E+000  0.1000000E+03  0.7546771E-02  0.1280296E+00
         -2   -1    0    0    0  501 -0.00000000000E+00  0.00000000000E+00  0.95841147448E+02  0.95841147448E+02  0.00000000000E+00 0. -1.
          2   -1    0    0  502    0  0.00000000000E+00 -0.00000000000E+00 -0.43433820793E+03  0.43433820793E+03  0.00000000000E+00 0.  1.
          6    1    1    2  502    0 -0.44832010637E+02 -0.86564577194E+02 -0.10837428146E+03  0.22622404842E+03  0.17300000000E+03 0.  1.
         -6    1    1    2    0  501  0.44832010637E+02  0.86564577194E+02 -0.23012277902E+03  0.30395530696E+03  0.17300000000E+03 0. -1.
</event>
<event>
 4    1  0.1089518E+000  0.1000000E+03  0.7546771E-02  0.1280296E+00
         -1   -1    0    0    0  501 -0.00000000000E+00  0.00000000000E+00  0.40841194813E+02  0.40841194813E+02  0.00000000000E+00 0. -1.
          1   -1    0    0  502    0  0.00000000000E+00 -0.00000000000E+00 -0.25036820409E+04  0.25036820409E+04  0.00000000000E+00 0.  1.
          6    1    1    2  502    0  0.63764418800E+02 -0.26029574054E+03 -0.13207937539E+04  0.13587659527E+04  0.17300000000E+03 0.  1.
         -6    1    1    2    0  501 -0.63764418800E+02  0.26029574054E+03 -0.11420470922E+04  0.11857572831E+04  0.17300000000E+03 0. -1.
</event>
<event>
 4    1  0.1089518E+000  0.1000000E+03  0.7546771E-02  0.1280296E+00
         -1   -1    0    0    0  501 -0.00000000000E+00  0.00000000000E+00  0.34299489810E+02  0.34299489810E+02  0.00000000000E+00 0. -1.
          1   -1    0    0  502    0  0.00000000000E+00 -0.00000000000E+00 -0.18603735382E+04  0.18603735382E+04  0.00000000000E+00 0.  1.
          6    1    1    2  502    0 -0.10604380364E+03  0.13052384616E+03 -0.11936575939E+04  0.12177968690E+04  0.17300000000E+03 0.  1.
         -6    1    1    2    0  501  0.10604380364E+03 -0.13052384616E+03 -0.63241645448E+03  0.67687615898E+03  0.17300000000E+03 0. -1.
</event>
<event>
 4    1  0.1089518E+000  0.1000000E+03  0.7546771E-02  0.1280296E+00
         -2   -1    0    0    0  501 -0.00000000000E+00  0.00000000000E+00  0.71284054144E+02  0.71284054144E+02  0.00000000000E+00 0. -1.
          2   -1    0    0  502    0  0.00000000000E+00 -0.00000000000E+00 -0.10915873164E+04  0.10915873164E+04  0.00000000000E+00 0.  1.
          6    1    1    2  502    0 -0.18047404600E+03  0.69455322329E+02 -0.72362323208E+03  0.76873565358E+03  0.17300000000E+03 0.  1.
         -6    1    1    2    0  501  0.18047404600E+03 -0.69455322329E+02 -0.29668003016E+03  0.39413571695E+03  0.17300000000E+03 0.  1.
</event>
<event>
 4    1  0.1089518E+000  0.1000000E+03  0.7546771E-02  0.1280296E+00
         -1   -1    0    0    0  501 -0.00000000000E+00  0.00000000000E+00  0.75042674822E+02  0.75042674822E+02  0.00000000000E+00 0. -1.
          1   -1    0    0  502    0  0.00000000000E+00 -0.00000000000E+00 -0.71897697123E+03  0.71897697123E+03  0.00000000000E+00 0.  1.
          6    1    1    2  502    0 -0.32483433077E+02  0.32181338968E+02 -0.57510083547E+03  0.60229625847E+03  0.17300000000E+03 0.  1.
         -6    1    1    2    0  501  0.32483433077E+02 -0.32181338968E+02 -0.68833460933E+02  0.19172338758E+03  0.17300000000E+03 0.  1.
</event>
<event>
 4    1  0.1089518E+000  0.1000000E+03  0.7546771E-02  0.1280296E+00
         -2   -1    0    0    0  501 -0.00000000000E+00  0.00000000000E+00  0.61963025726E+03  0.61963025726E+03  0.00000000000E+00 0. -1.
          2   -1    0    0  502    0  0.00000000000E+00 -0.00000000000E+00 -0.20548234044E+03  0.20548234044E+03  0.00000000000E+00 0.  1.
          6    1    1    2  502    0  0.20430776555E+03 -0.19760723731E+03  0.58092127773E+02  0.33777800196E+03  0.17300000000E+03 0. -1.
         -6    1    1    2    0  501 -0.20430776555E+03  0.19760723731E+03  0.35605578904E+03  0.48733459574E+03  0.17300000000E+03 0. -1.
</event>
<event>
 4    1  0.1089518E+000  0.1000000E+03  0.7546771E-02  0.1280296E+00
         -2   -1    0    0    0  501 -0.00000000000E+00  0.00000000000E+00  0.49350491434E+02  0.49350491434E+02  0.00000000000E+00 0. -1.
          2   -1    0    0  502    0  0.00000000000E+00 -0.00000000000E+00 -0.12060582470E+04  0.12060582470E+04  0.00000000000E+00 0.  1.
          6    1    1    2  502    0  0.13252755043E+03  0.76392376089E+02 -0.78080183700E+03  0.81423574929E+03  0.17300000000E+03 0. -1.
         -6    1    1    2    0  501 -0.13252755043E+03 -0.76392376089E+02 -0.37590591859E+03  0.44117298917E+03  0.17300000000E+03 0. -1.
</event>
<event>
 4    1  0.1089518E+000  0.1000000E+03  0.7546771E-02  0.1280296E+00
         -2   -1    0    0    0  501 -0.00000000000E+00  0.00000000000E+00  0.18838000938E+03  0.18838000938E+03  0.00000000000E+00 0.  1.
          2   -1    0    0  502    0  0.00000000000E+00 -0.00000000000E+00 -0.14358299431E+04  0.14358299431E+04  0.00000000000E+00 0. -1.
          6    1    1    2  502    0  0.40325935017E+03  0.10518790159E+03 -0.10275182756E+04  0.11222323311E+04  0.17300000000E+03 0. -1.
         -6    1    1    2    0  501 -0.40325935017E+03 -0.10518790159E+03 -0.21993165803E+03  0.50197762136E+03  0.17300000000E+03 0.  1.
</event>
<event>
 4    1  0.1089518E+000  0.1000000E+03  0.7546771E-02  0.1280296E+00
         -2   -1    0    0    0  501 -0.00000000000E+00  0.00000000000E+00  0.30169760944E+02  0.30169760944E+02  0.00000000000E+00 0.  1.
          2   -1    0    0  502    0  0.00000000000E+00 -0.00000000000E+00 -0.11234495682E+04  0.11234495682E+04  0.00000000000E+00 0. -1.
          6    1    1    2  502    0 -0.20332807187E+02  0.21849333725E+02 -0.72035964528E+03  0.74144307602E+03  0.17300000000E+03 0. -1.
         -6    1    1    2    0  501  0.20332807187E+02 -0.21849333725E+02 -0.37292016201E+03  0.41217625316E+03  0.17300000000E+03 0.  1.
</event>
<event>
 4    1  0.1089518E+000  0.1000000E+03  0.7546771E-02  0.1280296E+00
         -1   -1    0    0    0  501 -0.00000000000E+00  0.00000000000E+00  0.26763307464E+03  0.26763307464E+03  0.00000000000E+00 0.  1.
          1   -1    0    0  502    0  0.00000000000E+00 -0.00000000000E+00 -0.23187286815E+04  0.23187286815E+04  0.00000000000E+00 0. -1.
          6    1    1    2  502    0  0.51159353448E+03 -0.45746015120E+03 -0.45773419442E+03  0.84288037538E+03  0.17300000000E+03 0. -1.
         -6    1    1    2    0  501 -0.51159353448E+03  0.45746015120E+03 -0.15933614125E+04  0.17434813808E+04  0.17300000000E+03 0.  1.
</event>
<event>
 4    1  0.1089518E+000  0.1000000E+03  0.7546771E-02  0.1280296E+00
         -2   -1    0    0    0  501 -0.00000000000E+00  0.00000000000E+00  0.12343149770E+03  0.12343149770E+03  0.00000000000E+00 0.  1.
          2   -1    0    0  502    0  0.00000000000E+00 -0.00000000000E+00 -0.40565150561E+03  0.40565150561E+03  0.00000000000E+00 0. -1.
          6    1    1    2  502    0 -0.15006448201E+01  0.67763191783E+01  0.26471733013E+02  0.17515114355E+03  0.17300000000E+03 0. -1.
         -6    1    1    2    0  501  0.15006448201E+01 -0.67763191783E+01 -0.30869174093E+03  0.35393185976E+03  0.17300000000E+03 0.  1.
</event>
<event>
 4    1  0.1089518E+000  0.1000000E+03  0.7546771E-02  0.1280296E+00
         -1   -1    0    0    0  501 -0.00000000000E+00  0.00000000000E+00  0.37693865644E+03  0.37693865644E+03  0.00000000000E+00 0. -1.
          1   -1    0    0  502    0  0.00000000000E+00 -0.00000000000E+00 -0.32753316659E+03  0.32753316659E+03  0.00000000000E+00 0.  1.
          6    1    1    2  502    0  0.36684915101E+02  0.16466329436E+03  0.28042281741E+03  0.37016987996E+03  0.17300000000E+03 0. -1.
         -6    1    1    2    0  501 -0.36684915101E+02 -0.16466329436E+03 -0.23101732756E+03  0.33430194306E+03  0.17300000000E+03 0.  1.
</event>
<event>
 4    1  0.1089518E+000  0.1000000E+03  0.7546771E-02  0.1280296E+00
         -2   -1    0    0    0  501 -0.00000000000E+00  0.00000000000E+00  0.79433431906E+02  0.79433431906E+02  0.00000000000E+00 0.  1.
          2   -1    0    0  502    0  0.00000000000E+00 -0.00000000000E+00 -0.86150237901E+03  0.86150237901E+03  0.00000000000E+00 0. -1.
          6    1    1    2  502    0  0.16686380396E+02 -0.13148553519E+03 -0.65125953743E+03  0.68675677379E+03  0.17300000000E+03 0. -1.
         -6    1    1    2    0  501 -0.16686380396E+02  0.13148553519E+03 -0.13080940968E+03  0.25417903713E+03  0.17300000000E+03 0.  1.
</event>
<event>
 4    1  0.1089518E+000  0.1000000E+03  0.7546771E-02  0.1280296E+00
         -2   -1    0    0    0  501 -0.00000000000E+00  0.00000000000E+00  0.38837377727E+02  0.38837377727E+02  0.00000000000E+00 0.  1.
          2   -1    0    0  502    0  0.00000000000E+00 -0.00000000000E+00 -0.81557311663E+03  0.81557311663E+03  0.00000000000E+00 0. -1.
          6    1    1    2  502    0 -0.27220043419E+02  0.15979053391E+02 -0.32265438605E+03  0.36746579943E+03  0.17300000000E+03 0. -1.
         -6    1    1    2    0  501  0.27220043419E+02 -0.15979053391E+02 -0.45408135285E+03  0.48694469493E+03  0.17300000000E+03 0.  1.
</event>
<event>
 4    1  0.1089518E+000  0.1000000E+03  0.7546771E-02  0.1280296E+00
         -2   -1    0    0    0  501 -0.00000000000E+00  0.00000000000E+00  0.29191422164E+02  0.29191422164E+02  0.00000000000E+00 0.  1.
          2   -1    0    0  502    0  0.00000000000E+00 -0.00000000000E+00 -0.11547105397E+04  0.11547105397E+04  0.00000000000E+00 0. -1.
          6    1    1    2  502    0  0.59748956594E+02 -0.23022910571E+01 -0.60874303641E+03  0.63566683313E+03  0.17300000000E+03 0. -1.
         -6    1    1    2    0  501 -0.59748956594E+02  0.23022910571E+01 -0.51677608110E+03  0.54823512872E+03  0.17300000000E+03 0.  1.
</event>
<event>
 4    1  0.1089518E+000  0.1000000E+03  0.7546771E-02  0.1280296E+00
         -2   -1    0    0    0  501 -0.00000000000E+00  0.00000000000E+00  0.22153692463E+02  0.22153692463E+02  0.00000000000E+00 0.  1.
          2   -1    0    0  502    0  0.00000000000E+00 -0.00000000000E+00 -0.20146130868E+04  0.20146130868E+04  0.00000000000E+00 0. -1.
          6    1    1    2  502    0 -0.83707640235E+02  0.25174110354E+02 -0.59115207286E+03  0.62211773654E+03  0.17300000000E+03 0. -1.
         -6    1    1    2    0  501  0.83707640235E+02 -0.25174110354E+02 -0.14013073215E+04  0.14146490427E+04  0.17300000000E+03 0.  1.
</event>
<event>
 4    1  0.1089518E+000  0.1000000E+03  0.7546771E-02  0.1280296E+00
          4   -1    0    0  502    0  0.00000000000E+00  0.00000000000E+00  0.13975794140E+03  0.13975794140E+03  0.00000000000E+00 0. -1.
         -4   -1    0    0    0  501 -0.00000000000E+00 -0.00000000000E+00 -0.22341329252E+03  0.22341329252E+03  0.00000000000E+00 0.  1.
          6    1    1    2  502    0  0.18051163149E+01  0.26676814512E+02 -0.66573639551E+02  0.18728577191E+03  0.17300000000E+03 0.  1.
         -6    1    1    2    0  501 -0.18051163149E+01 -0.26676814512E+02 -0.17081711571E+02  0.17588546201E+03  0.17300000000E+03 0.  1.
</event>
<event>
 4    1  0.1089518E+000  0.1000000E+03  0.7546771E-02  0.1280296E+00
          2   -1    0    0  502    0  0.00000000000E+00  0.00000000000E+00  0.26796447363E+03  0.26796447363E+03  0.00000000000E+00 0. -1.
         -2   -1    0    0    0  501 -0.00000000000E+00 -0.00000000000E+00 -0.49387849582E+03  0.49387849582E+03  0.00000000000E+00 0.  1.
          6    1    1    2  502    0 -0.11975301061E+03  0.29249528699E+03 -0.16550639976E+03  0.39650428096E+03  0.17300000000E+03 0.  1.
         -6    1    1    2    0  501  0.11975301061E+03 -0.29249528699E+03 -0.60407622430E+02  0.36533868849E+03  0.17300000000E+03 0.  1.
</event>
<event>
 4    1  0.1089518E+000  0.1000000E+03  0.7546771E-02  0.1280296E+00
         -1   -1    0    0    0  501 -0.00000000000E+00  0.00000000000E+00  0.38237997577E+02  0.38237997577E+02  0.00000000000E+00 0. -1.
          1   -1    0    0  502    0  0.00000000000E+00 -0.00000000000E+00 -0.80541395517E+03  0.80541395517E+03  0.00000000000E+00 0.  1.
          6    1    1    2  502    0 -0.91797082793E+01  0.46943863666E+01 -0.44994482456E+03  0.48216765700E+03  0.17300000000E+03 0.  1.
         -6    1    1    2    0  501  0.91797082793E+01 -0.46943863666E+01 -0.31723113303E+03  0.36148429575E+03  0.17300000000E+03 0. -1.
</event>
<event>
 4    1  0.1089518E+000  0.1000000E+03  0.7546771E-02  0.1280296E+00
         -2   -1    0    0    0  501 -0.00000000000E+00  0.00000000000E+00  0.38503777965E+02  0.38503777965E+02  0.00000000000E+00 0. -1.
          2   -1    0    0  502    0  0.00000000000E+00 -0.00000000000E+00 -0.10326753314E+04  0.10326753314E+04  0.00000000000E+00 0.  1.
          6    1    1    2  502    0 -0.91483913237E+02 -0.12139901601E+00 -0.59984169383E+03  0.63095830193E+03  0.17300000000E+03 0. -1.
         -6    1    1    2    0  501  0.91483913237E+02  0.12139901601E+00 -0.39432985958E+03  0.44022080741E+03  0.17300000000E+03 0.  1.
</event>
<event>
 4    1  0.1089518E+000  0.1000000E+03  0.7546771E-02  0.1280296E+00
          2   -1    0    0  502    0  0.00000000000E+00  0.00000000000E+00  0.27654025555E+03  0.27654025555E+03  0.00000000000E+00 0.  1.
         -2   -1    0    0    0  501 -0.00000000000E+00 -0.00000000000E+00 -0.14462686480E+03  0.14462686480E+03  0.00000000000E+00 0. -1.
          6    1    1    2  502    0 -0.67948779859E+02  0.58971674263E+02  0.19203182976E+02  0.19593993285E+03  0.17300000000E+03 0. -1.
         -6    1    1    2    0  501  0.67948779859E+02 -0.58971674263E+02  0.11271020778E+03  0.22522718750E+03  0.17300000000E+03 0.  1.
</event>
<event>
 4    1  0.1089518E+000  0.1000000E+03  0.7546771E-02  0.1280296E+00
          1   -1    0    0  502    0  0.00000000000E+00  0.00000000000E+00  0.46834313337E+03  0.46834313337E+03  0.00000000000E+00 0.  1.
         -1   -1    0    0    0  501 -0.00000000000E+00 -0.00000000000E+00 -0.67521688099E+02  0.67521688099E+02  0.00000000000E+00 0. -1.
          6    1    1    2  502    0 -0.33825243224E+02  0.91554778888E+01  0.16787375253E+03  0.24359508747E+03  0.17300000000E+03 0. -1.
         -6    1    1    2    0  501  0.33825243224E+02 -0.91554778888E+01  0.23294769275E+03  0.29226973400E+03  0.17300000000E+03 0.  1.
</event>
<event>
 4    1  0.1089518E+000  0.1000000E+03  0.7546771E-02  0.1280296E+00
         -2   -1    0    0    0  501 -0.00000000000E+00  0.00000000000E+00  0.60063387823E+02  0.60063387823E+02  0.00000000000E+00 0. -1.
          2   -1    0    0  502    0  0.00000000000E+00 -0.00000000000E+00 -0.94554254135E+03  0.94554254135E+03  0.00000000000E+00 0.  1.
          6    1    1    2  502    0  0.53843218028E+02  0.10644969826E+03 -0.67987868787E+03  0.71161412339E+03  0.17300000000E+03 0.  1.
         -6    1    1    2    0  501 -0.53843218028E+02 -0.10644969826E+03 -0.20560046565E+03  0.29399180578E+03  0.17300000000E+03 0. -1.
</event>
<event>
 4    1  0.1089518E+000  0.1000000E+03  0.7546771E-02  0.1280296E+00
         -1   -1    0    0    0  501 -0.00000000000E+00  0.00000000000E+00  0.57154171368E+02  0.57154171368E+02  0.00000000000E+00 0.  1.
          1   -1    0    0  502    0  0.00000000000E+00 -0.00000000000E+00 -0.62576360333E+03  0.62576360333E+03  0.00000000000E+00 0. -1.
          6    1    1    2  502    0  0.14535590145E+02  0.66042241228E+02 -0.34847514069E+03  0.39488831926E+03  0.17300000000E+03 0.  1.
         -6    1    1    2    0  501 -0.14535590145E+02 -0.66042241228E+02 -0.22013429127E+03  0.28802945544E+03  0.17300000000E+03 0.  1.
</event>
<event>
 4    1  0.1089518E+000  0.1000000E+03  0.7546771E-02  0.1280296E+00
         -1   -1    0    0    0  501 -0.00000000000E+00  0.00000000000E+00  0.65403526648E+02  0.65403526648E+02  0.00000000000E+00 0.  1.
          1   -1    0    0  502    0  0.00000000000E+00 -0.00000000000E+00 -0.79137404466E+03  0.79137404466E+03  0.00000000000E+00 0. -1.
          6    1    1    2  502    0 -0.53357829108E+02 -0.87918167330E+02 -0.56273241351E+03  0.59763988429E+03  0.17300000000E+03 0.  1.
         -6    1    1    2    0  501  0.53357829108E+02  0.87918167330E+02 -0.16323810450E+03  0.25913768702E+03  0.17300000000E+03 0.  1.
</event>
<event>
 4    1  0.1089518E+000  0.1000000E+03  0.7546771E-02  0.1280296E+00
         -2   -1    0    0    0  501 -0.00000000000E+00  0.00000000000E+00  0.10057870454E+03  0.10057870454E+03  0.00000000000E+00 0. -1.
          2   -1    0    0  502    0  0.00000000000E+00 -0.00000000000E+00 -0.12623992803E+04  0.12623992803E+04  0.00000000000E+00 0.  1.
          6    1    1    2  502    0  0.18384786968E+03 -0.19514338337E+03 -0.88427644768E+03  0.94008234489E+03  0.17300000000E+03 0.  1.
         -6    1    1    2    0  501 -0.18384786968E+03  0.19514338337E+03 -0.27754412807E+03  0.42289563995E+03  0.17300000000E+03 0. -1.
</event>
<event>
 4    1  0.1089518E+000  0.1000000E+03  0.7546771E-02  0.1280296E+00
         -1   -1    0    0    0  501 -0.00000000000E+00  0.00000000000E+00  0.15088724685E+04  0.15088724685E+04  0.00000000000E+00 0. -1.
          1   -1    0    0  502    0  0.00000000000E+00 -0.00000000000E+00 -0.19920653565E+02  0.19920653565E+02  0.00000000000E+00 0.  1.
          6    1    1    2  502    0 -0.40756778999E+01  0.91785438092E+01  0.72120032308E+03  0.74172755296E+03  0.17300000000E+03 0.  1.
         -6    1    1    2    0  501  0.40756778999E+01 -0.91785438092E+01  0.76775149188E+03  0.78706556912E+03  0.17300000000E+03 0. -1.
</event>
<event>
 4    1  0.1089518E+000  0.1000000E+03  0.7546771E-02  0.1280296E+00
         -2   -1    0    0    0  501 -0.00000000000E+00  0.00000000000E+00  0.17553602408E+02  0.17553602408E+02  0.00000000000E+00 0. -1.
          2   -1    0    0  502    0  0.00000000000E+00 -0.00000000000E+00 -0.38077047389E+04  0.38077047389E+04  0.00000000000E+00 0.  1.
          6    1    1    2  502    0 -0.59621476906E+02  0.16903659856E+03 -0.13834954395E+04  0.14057441884E+04  0.17300000000E+03 0.  1.
         -6    1    1    2    0  501  0.59621476906E+02 -0.16903659856E+03 -0.24066556969E+04  0.24195141528E+04  0.17300000000E+03 0. -1.
</event>
<event>
 4    1  0.1089518E+000  0.1000000E+03  0.7546771E-02  0.1280296E+00
          2   -1    0    0  502    0  0.00000000000E+00  0.00000000000E+00  0.11316053767E+03  0.11316053767E+03  0.00000000000E+00 0.  1.
         -2   -1    0    0    0  501 -0.00000000000E+00 -0.00000000000E+00 -0.50562172385E+03  0.50562172385E+03  0.00000000000E+00 0. -1.
          6    1    1    2  502    0  0.13694095486E+03  0.74749499763E+02 -0.12601300434E+03  0.26485579113E+03  0.17300000000E+03 0.  1.
         -6    1    1    2    0  501 -0.13694095486E+03 -0.74749499763E+02 -0.26644818185E+03  0.35392647039E+03  0.17300000000E+03 0. -1.
</event>
<event>
 4    1  0.1089518E+000  0.1000000E+03  0.7546771E-02  0.1280296E+00
          2   -1    0    0  502    0  0.00000000000E+00  0.00000000000E+00  0.18833309349E+04  0.18833309349E+04  0.00000000000E+00 0.  1.
         -2   -1    0    0    0  501 -0.00000000000E+00 -0.00000000000E+00 -0.50373719853E+02  0.50373719853E+02  0.00000000000E+00 0. -1.
          6    1    1    2  502    0  0.62254798773E+02 -0.21189764642E+03  0.51737635424E+03  0.58854359605E+03  0.17300000000E+03 0.  1.
         -6    1    1    2    0  501 -0.62254798773E+02  0.21189764642E+03  0.13155808608E+04  0.13451610587E+04  0.17300000000E+03 0. -1.
</event>
<event>
 4    1  0.1089518E+000  0.1000000E+03  0.7546771E-02  0.1280296E+00
          2   -1    0    0  502    0  0.00000000000E+00  0.00000000000E+00  0.97128206837E+03  0.97128206837E+03  0.00000000000E+00 0. -1.
         -2   -1    0    0    0  501 -0.00000000000E+00 -0.00000000000E+00 -0.62322199081E+02  0.62322199081E+02  0.00000000000E+00 0.  1.
          6    1    1    2  502    0 -0.53068638758E+02  0.15180200769E+03  0.30981251696E+03  0.38958044820E+03  0.17300000000E+03 0. -1.
         -6    1    1    2    0  501  0.53068638758E+02 -0.15180200769E+03  0.59914735232E+03  0.64402381924E+03  0.17300000000E+03 0.  1.
</event>
<event>
 4    1  0.1089518E+000  0.1000000E+03  0.7546771E-02  0.1280296E+00
         -2   -1    0    0    0  501 -0.00000000000E+00  0.00000000000E+00  0.51884376229E+02  0.51884376229E+02  0.00000000000E+00 0. -1.
          2   -1    0    0  502    0  0.00000000000E+00 -0.00000000000E+00 -0.70132316660E+03  0.70132316660E+03  0.00000000000E+00 0.  1.
          6    1    1    2  502    0 -0.41737298617E+02 -0.35420593071E+02 -0.44088477934E+03  0.47676515095E+03  0.17300000000E+03 0.  1.
         -6    1    1    2    0  501  0.41737298617E+02  0.35420593071E+02 -0.20855401104E+03  0.27644239188E+03  0.17300000000E+03 0. -1.
</event>
<event>
 4    1  0.1089518E+000  0.1000000E+03  0.7546771E-02  0.1280296E+00
          2   -1    0    0  502    0  0.00000000000E+00  0.00000000000E+00  0.29119816658E+04  0.29119816658E+04  0.00000000000E+00 0.  1.
         -2   -1    0    0    0  501 -0.00000000000E+00 -0.00000000000E+00 -0.13191283122E+03  0.13191283122E+03  0.00000000000E+00 0. -1.
          6    1    1    2  502    0  0.20754244314E+03  0.38370034945E+03  0.23841795935E+04  0.24299261631E+04  0.17300000000E+03 0.  1.
         -6    1    1    2    0  501 -0.20754244314E+03 -0.38370034945E+03  0.39588924100E+03  0.61396833388E+03  0.17300000000E+03 0. -1.
</event>
<event>
 4    1  0.1089518E+000  0.1000000E+03  0.7546771E-02  0.1280296E+00
          2   -1    0    0  502    0  0.00000000000E+00  0.00000000000E+00  0.27373481402E+04  0.27373481402E+04  0.00000000000E+00 0.  1.
         -2   -1    0    0    0  501 -0.00000000000E+00 -0.00000000000E+00 -0.17462394840E+02  0.17462394840E+02  0.00000000000E+00 0. -1.
          6    1    1    2  502    0 -0.63623226306E+02  0.60777490128E+02  0.72585999927E+03  0.75136113605E+03  0.17300000000E+03 0.  1.
         -6    1    1    2    0  501  0.63623226306E+02 -0.60777490128E+02  0.19940257461E+04  0.20034493990E+04  0.17300000000E+03 0. -1.
</event>
<event>
 4    1  0.1089518E+000  0.1000000E+03  0.7546771E-02  0.1280296E+00
          1   -1    0    0  502    0  0.00000000000E+00  0.00000000000E+00  0.14822816574E+03  0.14822816574E+03  0.00000000000E+00 0. -1.
         -1   -1    0    0    0  501 -0.00000000000E+00 -0.00000000000E+00 -0.25902045484E+03  0.25902045484E+03  0.00000000000E+00 0.  1.
          6    1    1    2  502    0 -0.61575764682E+01 -0.49219326458E+02 -0.13592319033E+03  0.22553175279E+03  0.17300000000E+03 0.  1.
         -6    1    1    2    0  501  0.61575764682E+01  0.49219326458E+02  0.25130901233E+02  0.18171686780E+03  0.17300000000E+03 0. -1.
</event>
<event>
 4    1  0.1089518E+000  0.1000000E+03  0.7546771E-02  0.1280296E+00
          1   -1    0    0  502    0  0.00000000000E+00  0.00000000000E+00  0.28695673115E+03  0.28695673115E+03  0.00000000000E+00 0. -1.
         -1   -1    0    0    0  501 -0.00000000000E+00 -0.00000000000E+00 -0.24409326444E+03  0.24409326444E+03  0.00000000000E+00 0.  1.
          6    1    1    2  502    0 -0.13395859761E+03  0.14018545786E+03  0.71779036566E+02  0.26958875822E+03  0.17300000000E+03 0.  1.
         -6    1    1    2    0  501  0.13395859761E+03 -0.14018545786E+03 -0.28915569857E+02  0.26146123737E+03  0.17300000000E+03 0. -1.
</event>
<event>
 4    1  0.1089518E+000  0.1000000E+03  0.7546771E-02  0.1280296E+00
          2   -1    0    0  502    0  0.00000000000E+00  0.00000000000E+00  0.11616266863E+04  0.11616266863E+04  0.00000000000E+00 0.  1.
         -2   -1    0    0    0  501 -0.00000000000E+00 -0.00000000000E+00 -0.31290435508E+02  0.31290435508E+02  0.00000000000E+00 0. -1.
          6    1    1    2  502    0 -0.32148779036E+02 -0.44447322436E+02  0.38248474442E+03  0.42335881729E+03  0.17300000000E+03 0.  1.
         -6    1    1    2    0  501  0.32148779036E+02  0.44447322436E+02  0.74785150637E+03  0.76955830452E+03  0.17300000000E+03 0. -1.
</event>
<event>
 4    1  0.1089518E+000  0.1000000E+03  0.7546771E-02  0.1280296E+00
          1   -1    0    0  502    0  0.00000000000E+00  0.00000000000E+00  0.41918044284E+03  0.41918044284E+03  0.00000000000E+00 0.  1.
         -1   -1    0    0    0  501 -0.00000000000E+00 -0.00000000000E+00 -0.22527612971E+03  0.22527612971E+03  0.00000000000E+00 0. -1.
          6    1    1    2  502    0  0.24356462829E+03 -0.59091477156E+02  0.14001865376E+03  0.33518614862E+03  0.17300000000E+03 0.  1.
         -6    1    1    2    0  501 -0.24356462829E+03  0.59091477156E+02  0.53885659368E+02  0.30927042392E+03  0.17300000000E+03 0. -1.
</event>
<event>
 4    1  0.1089518E+000  0.1000000E+03  0.7546771E-02  0.1280296E+00
          2   -1    0    0  502    0  0.00000000000E+00  0.00000000000E+00  0.10308035106E+04  0.10308035106E+04  0.00000000000E+00 0.  1.
         -2   -1    0    0    0  501 -0.00000000000E+00 -0.00000000000E+00 -0.36905057373E+02  0.36905057373E+02  0.00000000000E+00 0. -1.
          6    1    1    2  502    0 -0.60211592546E+02 -0.41252416049E+02  0.35248634005E+03  0.39937803849E+03  0.17300000000E+03 0.  1.
         -6    1    1    2    0  501  0.60211592546E+02  0.41252416049E+02  0.64141211316E+03  0.66833052946E+03  0.17300000000E+03 0. -1.
</event>
<event>
 4    1  0.1089518E+000  0.1000000E+03  0.7546771E-02  0.1280296E+00
          2   -1    0    0  502    0  0.00000000000E+00  0.00000000000E+00  0.23332309243E+03  0.23332309243E+03  0.00000000000E+00 0. -1.
         -2   -1    0    0    0  501 -0.00000000000E+00 -0.00000000000E+00 -0.19743953223E+03  0.19743953223E+03  0.00000000000E+00 0.  1.
          6    1    1    2  502    0 -0.88286300386E+02  0.91328501648E+02  0.19631749985E+02  0.21552209088E+03  0.17300000000E+03 0.  1.
         -6    1    1    2    0  501  0.88286300386E+02 -0.91328501648E+02  0.16251810220E+02  0.21524053379E+03  0.17300000000E+03 0. -1.
</event>
<event>
 4    1  0.1089518E+000  0.1000000E+03  0.7546771E-02  0.1280296E+00
          2   -1    0    0  502    0  0.00000000000E+00  0.00000000000E+00  0.11660623342E+04  0.11660623342E+04  0.00000000000E+00 0. -1.
         -2   -1    0    0    0  501 -0.00000000000E+00 -0.00000000000E+00 -0.28546878184E+02  0.28546878184E+02  0.00000000000E+00 0.  1.
          6    1    1    2  502    0  0.71503824450E+01  0.16080149549E+01  0.75695935789E+03  0.77651154735E+03  0.17300000000E+03 0.  1.
         -6    1    1    2    0  501 -0.71503824450E+01 -0.16080149549E+01  0.38055609815E+03  0.41809766505E+03  0.17300000000E+03 0. -1.
</event>
<event>
 4    1  0.1089518E+000  0.1000000E+03  0.7546771E-02  0.1280296E+00
         -2   -1    0    0    0  501 -0.00000000000E+00  0.00000000000E+00  0.77274388258E+02  0.77274388258E+02  0.00000000000E+00 0.  1.
          2   -1    0    0  502    0  0.00000000000E+00 -0.00000000000E+00 -0.42861706469E+03  0.42861706469E+03  0.00000000000E+00 0. -1.
          6    1    1    2  502    0  0.34806283700E+02  0.37337718753E+02 -0.20933204411E+03  0.27632315741E+03  0.17300000000E+03 0.  1.
         -6    1    1    2    0  501 -0.34806283700E+02 -0.37337718753E+02 -0.14201063232E+03  0.22956829554E+03  0.17300000000E+03 0. -1.
</event>
<event>
 4    1  0.1089518E+000  0.1000000E+03  0.7546771E-02  0.1280296E+00
          3   -1    0    0  502    0  0.00000000000E+00  0.00000000000E+00  0.37265492049E+03  0.37265492049E+03  0.00000000000E+00 0.  1.
         -3   -1    0    0    0  501 -0.00000000000E+00 -0.00000000000E+00 -0.15400537831E+03  0.15400537831E+03  0.00000000000E+00 0. -1.
          6    1    1    2  502    0  0.19121413302E+02 -0.98243019431E+02  0.25450551122E+03  0.32360373075E+03  0.17300000000E+03 0. -1.
         -6    1    1    2    0  501 -0.19121413302E+02  0.98243019431E+02 -0.35855969043E+02  0.20305656805E+03  0.17300000000E+03 0. -1.
</event>
<event>
 4    1  0.1089518E+000  0.1000000E+03  0.7546771E-02  0.1280296E+00
          2   -1    0    0  502    0  0.00000000000E+00  0.00000000000E+00  0.94163004692E+03  0.94163004692E+03  0.00000000000E+00 0.  1.
         -2   -1    0    0    0  501 -0.00000000000E+00 -0.00000000000E+00 -0.53131398686E+02  0.53131398686E+02  0.00000000000E+00 0. -1.
          6    1    1    2  502    0  0.11475340048E+03 -0.77363260944E+02  0.37579362460E+03  0.43623762487E+03  0.17300000000E+03 0. -1.
         -6    1    1    2    0  501 -0.11475340048E+03  0.77363260944E+02  0.51270502363E+03  0.55852382073E+03  0.17300000000E+03 0. -1.
</event>
<event>
 4    1  0.1089518E+000  0.1000000E+03  0.7546771E-02  0.1280296E+00
          2   -1    0    0  502    0  0.00000000000E+00  0.00000000000E+00  0.34669657590E+03  0.34669657590E+03  0.00000000000E+00 0.  1.
         -2   -1    0    0    0  501 -0.00000000000E+00 -0.00000000000E+00 -0.11988264103E+03  0.11988264103E+03  0.00000000000E+00 0. -1.
          6    1    1    2  502    0 -0.91901632286E+02 -0.43347153050E+02  0.15480835101E+03  0.25341568861E+03  0.17300000000E+03 0. -1.
         -6    1    1    2    0  501  0.91901632286E+02  0.43347153050E+02  0.72005583861E+02  0.21316352831E+03  0.17300000000E+03 0. -1.
</event>
<event>
 4    1  0.1089518E+000  0.1000000E+03  0.7546771E-02  0.1280296E+00
          2   -1    0    0  502    0  0.00000000000E+00  0.00000000000E+00  0.13803830952E+04  0.13803830952E+04  0.00000000000E+00 0.  1.
         -2   -1    0    0    0  501 -0.00000000000E+00 -0.00000000000E+00 -0.39793231284E+02  0.39793231284E+02  0.00000000000E+00 0. -1.
          6    1    1    2  502    0 -0.15145783985E+03 -0.43951313460E+02  0.63578912628E+03  0.67751605760E+03  0.17300000000E+03 0.  1.
         -6    1    1    2    0  501  0.15145783985E+03  0.43951313460E+02  0.70480073763E+03  0.74266026887E+03  0.17300000000E+03 0. -1.
</event>
<event>
 4    1  0.1089518E+000  0.1000000E+03  0.7546771E-02  0.1280296E+00
          2   -1    0    0  502    0  0.00000000000E+00  0.00000000000E+00  0.21305313588E+04  0.21305313588E+04  0.00000000000E+00 0.  1.
         -2   -1    0    0    0  501 -0.00000000000E+00 -0.00000000000E+00 -0.21918610434E+02  0.21918610434E+02  0.00000000000E+00 0. -1.
          6    1    1    2  502    0 -0.12687403511E+01 -0.11109058053E+02  0.41178893535E+03  0.44679318275E+03  0.17300000000E+03 0.  1.
         -6    1    1    2    0  501  0.12687403511E+01  0.11109058053E+02  0.16968238131E+04  0.17056567865E+04  0.17300000000E+03 0. -1.
</event>
<event>
 4    1  0.1089518E+000  0.1000000E+03  0.7546771E-02  0.1280296E+00
          2   -1    0    0  502    0  0.00000000000E+00  0.00000000000E+00  0.14605834414E+03  0.14605834414E+03  0.00000000000E+00 0.  1.
         -2   -1    0    0    0  501 -0.00000000000E+00 -0.00000000000E+00 -0.37572107851E+03  0.37572107851E+03  0.00000000000E+00 0. -1.
          6    1    1    2  502    0  0.22716510288E+02 -0.14043082625E+03 -0.38389147127E+02  0.22724344527E+03  0.17300000000E+03 0.  1.
         -6    1    1    2    0  501 -0.22716510288E+02  0.14043082625E+03 -0.19127358724E+03  0.29453597739E+03  0.17300000000E+03 0. -1.
</event>
<event>
 4    1  0.1089518E+000  0.1000000E+03  0.7546771E-02  0.1280296E+00
         -2   -1    0    0    0  501 -0.00000000000E+00  0.00000000000E+00  0.20222592809E+02  0.20222592809E+02  0.00000000000E+00 0. -1.
          2   -1    0    0  502    0  0.00000000000E+00 -0.00000000000E+00 -0.15191183967E+04  0.15191183967E+04  0.00000000000E+00 0.  1.
          6    1    1    2  502    0  0.47885147407E+01 -0.27700308521E+02 -0.74448790122E+03  0.76484081483E+03  0.17300000000E+03 0. -1.
         -6    1    1    2    0  501 -0.47885147407E+01  0.27700308521E+02 -0.75440790264E+03  0.77450017465E+03  0.17300000000E+03 0. -1.
</event>
<event>
 4    1  0.1089518E+000  0.1000000E+03  0.7546771E-02  0.1280296E+00
         -1   -1    0    0    0  501 -0.00000000000E+00  0.00000000000E+00  0.34460380040E+03  0.34460380040E+03  0.00000000000E+00 0. -1.
          1   -1    0    0  502    0  0.00000000000E+00 -0.00000000000E+00 -0.62743227014E+03  0.62743227014E+03  0.00000000000E+00 0.  1.
          6    1    1    2  502    0 -0.32213111684E+03 -0.20894901625E+03  0.64625683216E+02  0.42606763167E+03  0.17300000000E+03 0. -1.
         -6    1    1    2    0  501  0.32213111684E+03  0.20894901625E+03 -0.34745415296E+03  0.54596843887E+03  0.17300000000E+03 0. -1.
</event>
<event>
 4    1  0.1089518E+000  0.1000000E+03  0.7546771E-02  0.1280296E+00
         -1   -1    0    0    0  501 -0.00000000000E+00  0.00000000000E+00  0.82693496550E+02  0.82693496550E+02  0.00000000000E+00 0. -1.
          1   -1    0    0  502    0  0.00000000000E+00 -0.00000000000E+00 -0.16221818445E+04  0.16221818445E+04  0.00000000000E+00 0.  1.
          6    1    1    2  502    0  0.40670238950E+02  0.11975045365E+03 -0.78450930227E+02  0.22820558262E+03  0.17300000000E+03 0. -1.
         -6    1    1    2    0  501 -0.40670238950E+02 -0.11975045365E+03 -0.14610374177E+04  0.14766697585E+04  0.17300000000E+03 0. -1.
</event>
<event>
 4    1  0.1089518E+000  0.1000000E+03  0.7546771E-02  0.1280296E+00
         -1   -1    0    0    0  501 -0.00000000000E+00  0.00000000000E+00  0.13371398965E+03  0.13371398965E+03  0.00000000000E+00 0. -1.
          1   -1    0    0  502    0  0.00000000000E+00 -0.00000000000E+00 -0.79130462795E+03  0.79130462795E+03  0.00000000000E+00 0.  1.
          6    1    1    2  502    0 -0.17767456826E+03  0.19035526491E+03 -0.45657493451E+03  0.55334713328E+03  0.17300000000E+03 0.  1.
         -6    1    1    2    0  501  0.17767456826E+03 -0.19035526491E+03 -0.20101570380E+03  0.37167148432E+03  0.17300000000E+03 0. -1.
</event>
<event>
 4    1  0.1089518E+000  0.1000000E+03  0.7546771E-02  0.1280296E+00
         -2   -1    0    0    0  501 -0.00000000000E+00  0.00000000000E+00  0.28439655421E+02  0.28439655421E+02  0.00000000000E+00 0. -1.
          2   -1    0    0  502    0  0.00000000000E+00 -0.00000000000E+00 -0.15208522531E+04  0.15208522531E+04  0.00000000000E+00 0.  1.
          6    1    1    2  502    0 -0.11140544962E+03 -0.11159594063E+02 -0.85075207028E+03  0.87535352620E+03  0.17300000000E+03 0.  1.
         -6    1    1    2    0  501  0.11140544962E+03  0.11159594063E+02 -0.64166052741E+03  0.67393838234E+03  0.17300000000E+03 0. -1.
</event>
<event>
 4    1  0.1089518E+000  0.1000000E+03  0.7546771E-02  0.1280296E+00
         -1   -1    0    0    0  501 -0.00000000000E+00  0.00000000000E+00  0.10405404784E+03  0.10405404784E+03  0.00000000000E+00 0. -1.
          1   -1    0    0  502    0  0.00000000000E+00 -0.00000000000E+00 -0.66316531900E+03  0.66316531900E+03  0.00000000000E+00 0.  1.
          6    1    1    2  502    0 -0.67721177213E+02  0.12703744979E+03 -0.47738162539E+03  0.52777541413E+03  0.17300000000E+03 0.  1.
         -6    1    1    2    0  501  0.67721177213E+02 -0.12703744979E+03 -0.81729645770E+02  0.23944395271E+03  0.17300000000E+03 0. -1.
</event>
<event>
 4    1  0.1089518E+000  0.1000000E+03  0.7546771E-02  0.1280296E+00
          2   -1    0    0  502    0  0.00000000000E+00  0.00000000000E+00  0.34684121854E+03  0.34684121854E+03  0.00000000000E+00 0. -1.
         -2   -1    0    0    0  501 -0.00000000000E+00 -0.00000000000E+00 -0.21317572928E+03  0.21317572928E+03  0.00000000000E+00 0.  1.
          6    1    1    2  502    0  0.72274709221E+02 -0.14799922614E+03  0.20062943083E+03  0.31194322087E+03  0.17300000000E+03 0. -1.
         -6    1    1    2    0  501 -0.72274709221E+02  0.14799922614E+03 -0.66963941563E+02  0.24807372695E+03  0.17300000000E+03 0.  1.
</event>
<event>
 4    1  0.1089518E+000  0.1000000E+03  0.7546771E-02  0.1280296E+00
         -2   -1    0    0    0  501 -0.00000000000E+00  0.00000000000E+00  0.13549721516E+03  0.13549721516E+03  0.00000000000E+00 0.  1.
          2   -1    0    0  502    0  0.00000000000E+00 -0.00000000000E+00 -0.39934512810E+03  0.39934512810E+03  0.00000000000E+00 0. -1.
          6    1    1    2  502    0  0.14013097654E+03 -0.61951888405E+02 -0.16247947426E+03  0.28249479042E+03  0.17300000000E+03 0.  1.
         -6    1    1    2    0  501 -0.14013097654E+03  0.61951888405E+02 -0.10136843869E+03  0.25234755284E+03  0.17300000000E+03 0. -1.
</event>
<event>
 4    1  0.1089518E+000  0.1000000E+03  0.7546771E-02  0.1280296E+00
         -1   -1    0    0    0  501 -0.00000000000E+00  0.00000000000E+00  0.63208453857E+03  0.63208453857E+03  0.00000000000E+00 0.  1.
          1   -1    0    0  502    0  0.00000000000E+00 -0.00000000000E+00 -0.52500773741E+02  0.52500773741E+02  0.00000000000E+00 0. -1.
          6    1    1    2  502    0 -0.21347995169E+02 -0.17100678999E+02  0.38388760704E+03  0.42195599884E+03  0.17300000000E+03 0.  1.
         -6    1    1    2    0  501  0.21347995169E+02  0.17100678999E+02  0.19569615779E+03  0.26262931347E+03  0.17300000000E+03 0. -1.
</event>
<event>
 4    1  0.1089518E+000  0.1000000E+03  0.7546771E-02  0.1280296E+00
         -1   -1    0    0    0  501 -0.00000000000E+00  0.00000000000E+00  0.10120055957E+03  0.10120055957E+03  0.00000000000E+00 0.  1.
          1   -1    0    0  502    0  0.00000000000E+00 -0.00000000000E+00 -0.34120334525E+03  0.34120334525E+03  0.00000000000E+00 0. -1.
          6    1    1    2  502    0 -0.33366671442E+02 -0.21440857276E+02 -0.18550472129E+03  0.25673731077E+03  0.17300000000E+03 0.  1.
         -6    1    1    2    0  501  0.33366671442E+02  0.21440857276E+02 -0.54498064388E+02  0.18566659405E+03  0.17300000000E+03 0. -1.
</event>
<event>
 4    1  0.1089518E+000  0.1000000E+03  0.7546771E-02  0.1280296E+00
         -1   -1    0    0    0  501 -0.00000000000E+00  0.00000000000E+00  0.81068025612E+02  0.81068025612E+02  0.00000000000E+00 0.  1.
          1   -1    0    0  502    0  0.00000000000E+00 -0.00000000000E+00 -0.74914077731E+03  0.74914077731E+03  0.00000000000E+00 0. -1.
          6    1    1    2  502    0  0.11394927592E+03 -0.32385913338E+02 -0.11591138546E+03  0.23957824222E+03  0.17300000000E+03 0.  1.
         -6    1    1    2    0  501 -0.11394927592E+03  0.32385913338E+02 -0.55216136624E+03  0.59063056070E+03  0.17300000000E+03 0. -1.
</event>
<event>
 4    1  0.1089518E+000  0.1000000E+03  0.7546771E-02  0.1280296E+00
          2   -1    0    0  502    0  0.00000000000E+00  0.00000000000E+00  0.92345674245E+03  0.92345674245E+03  0.00000000000E+00 0.  1.
         -2   -1    0    0    0  501 -0.00000000000E+00 -0.00000000000E+00 -0.66082235405E+02  0.66082235405E+02  0.00000000000E+00 0. -1.
          6    1    1    2  502    0  0.12544166869E+02 -0.24625373484E+02  0.77750448384E+03  0.79699811012E+03  0.17300000000E+03 0. -1.
         -6    1    1    2    0  501 -0.12544166869E+02  0.24625373484E+02  0.79870023203E+02  0.19254086774E+03  0.17300000000E+03 0.  1.
</event>
<event>
 4    1  0.1089518E+000  0.1000000E+03  0.7546771E-02  0.1280296E+00
          4   -1    0    0  502    0  0.00000000000E+00  0.00000000000E+00  0.12559330754E+04  0.12559330754E+04  0.00000000000E+00 0.  1.
         -4   -1    0    0    0  501 -0.00000000000E+00 -0.00000000000E+00 -0.34441797915E+03  0.34441797915E+03  0.00000000000E+00 0. -1.
          6    1    1    2  502    0 -0.38654203136E+03  0.27562169905E+03 -0.56464413725E+02  0.50842825749E+03  0.17300000000E+03 0. -1.
         -6    1    1    2    0  501  0.38654203136E+03 -0.27562169905E+03  0.96797950998E+03  0.10919227971E+04  0.17300000000E+03 0.  1.
</event>
<event>
 4    1  0.1089518E+000  0.1000000E+03  0.7546771E-02  0.1280296E+00
         -3   -1    0    0    0  501 -0.00000000000E+00  0.00000000000E+00  0.10477352134E+03  0.10477352134E+03  0.00000000000E+00 0. -1.
          3   -1    0    0  502    0  0.00000000000E+00 -0.00000000000E+00 -0.45972882151E+03  0.45972882151E+03  0.00000000000E+00 0.  1.
          6    1    1    2  502    0  0.18296738276E+02 -0.13266522300E+03 -0.15507019934E+03  0.26816151616E+03  0.17300000000E+03 0. -1.
         -6    1    1    2    0  501 -0.18296738276E+02  0.13266522300E+03 -0.19988510083E+03  0.29634082668E+03  0.17300000000E+03 0.  1.
</event>
<event>
 4    1  0.1089518E+000  0.1000000E+03  0.7546771E-02  0.1280296E+00
         -2   -1    0    0    0  501 -0.00000000000E+00  0.00000000000E+00  0.63682426037E+02  0.63682426037E+02  0.00000000000E+00 0. -1.
          2   -1    0    0  502    0  0.00000000000E+00 -0.00000000000E+00 -0.18916237910E+04  0.18916237910E+04  0.00000000000E+00 0.  1.
          6    1    1    2  502    0  0.11907417413E+03  0.11318341161E+03 -0.20390510456E+03  0.31383982423E+03  0.17300000000E+03 0. -1.
         -6    1    1    2    0  501 -0.11907417413E+03 -0.11318341161E+03 -0.16240362604E+04  0.16414663928E+04  0.17300000000E+03 0.  1.
</event>
<event>
 4    1  0.1089518E+000  0.1000000E+03  0.7546771E-02  0.1280296E+00
         -2   -1    0    0    0  501 -0.00000000000E+00  0.00000000000E+00  0.29637241539E+02  0.29637241539E+02  0.00000000000E+00 0. -1.
          2   -1    0    0  502    0  0.00000000000E+00 -0.00000000000E+00 -0.22313035453E+04  0.22313035453E+04  0.00000000000E+00 0.  1.
          6    1    1    2  502    0 -0.10990463035E+03 -0.59483626764E+01 -0.17830866364E+04  0.17948374198E+04  0.17300000000E+03 0.  1.
         -6    1    1    2    0  501  0.10990463035E+03  0.59483626764E+01 -0.41857966739E+03  0.46610336702E+03  0.17300000000E+03 0. -1.
</event>
<event>
 4    1  0.1089518E+000  0.1000000E+03  0.7546771E-02  0.1280296E+00
          2   -1    0    0  502    0  0.00000000000E+00  0.00000000000E+00  0.13410505669E+04  0.13410505669E+04  0.00000000000E+00 0. -1.
         -2   -1    0    0    0  501 -0.00000000000E+00 -0.00000000000E+00 -0.27596567127E+02  0.27596567127E+02  0.00000000000E+00 0.  1.
          6    1    1    2  502    0 -0.43621107550E+02 -0.53822584815E+02  0.82657176862E+03  0.84731904283E+03  0.17300000000E+03 0. -1.
         -6    1    1    2    0  501  0.43621107550E+02  0.53822584815E+02  0.48688223116E+03  0.52132809121E+03  0.17300000000E+03 0.  1.
</event>
<event>
 4    1  0.1089518E+000  0.1000000E+03  0.7546771E-02  0.1280296E+00
          1   -1    0    0  502    0  0.00000000000E+00  0.00000000000E+00  0.51689506463E+02  0.51689506463E+02  0.00000000000E+00 0. -1.
         -1   -1    0    0    0  501 -0.00000000000E+00 -0.00000000000E+00 -0.87611021997E+03  0.87611021997E+03  0.00000000000E+00 0.  1.
          6    1    1    2  502    0  0.91479286639E+02 -0.81380629821E+02 -0.45388295517E+03  0.50092914048E+03  0.17300000000E+03 0. -1.
         -6    1    1    2    0  501 -0.91479286639E+02  0.81380629821E+02 -0.37053775834E+03  0.42687058595E+03  0.17300000000E+03 0.  1.
</event>
<event>
 4    1  0.1089518E+000  0.1000000E+03  0.7546771E-02  0.1280296E+00
          2   -1    0    0  502    0  0.00000000000E+00  0.00000000000E+00  0.15361971771E+04  0.15361971771E+04  0.00000000000E+00 0. -1.
         -2   -1    0    0    0  501 -0.00000000000E+00 -0.00000000000E+00 -0.34774241585E+02  0.34774241585E+02  0.00000000000E+00 0.  1.
          6    1    1    2  502    0 -0.29229928940E+02  0.85267712668E+02  0.11719887948E+04  0.11881126659E+04  0.17300000000E+03 0. -1.
         -6    1    1    2    0  501  0.29229928940E+02 -0.85267712668E+02  0.32943414072E+03  0.38285875286E+03  0.17300000000E+03 0.  1.
</event>
<event>
 4    1  0.1089518E+000  0.1000000E+03  0.7546771E-02  0.1280296E+00
          2   -1    0    0  502    0  0.00000000000E+00  0.00000000000E+00  0.94228266670E+03  0.94228266670E+03  0.00000000000E+00 0. -1.
         -2   -1    0    0    0  501 -0.00000000000E+00 -0.00000000000E+00 -0.43390498095E+02  0.43390498095E+02  0.00000000000E+00 0.  1.
          6    1    1    2  502    0  0.81391163033E+02 -0.57935746270E+02  0.52559247138E+03  0.56227886150E+03  0.17300000000E+03 0.  1.
         -6    1    1    2    0  501 -0.81391163033E+02  0.57935746270E+02  0.37329969722E+03  0.42339430330E+03  0.17300000000E+03 0. -1.
</event>
<event>
 4    1  0.1089518E+000  0.1000000E+03  0.7546771E-02  0.1280296E+00
          1   -1    0    0  502    0  0.00000000000E+00  0.00000000000E+00  0.22848759434E+04  0.22848759434E+04  0.00000000000E+00 0. -1.
         -1   -1    0    0    0  501 -0.00000000000E+00 -0.00000000000E+00 -0.21322181832E+02  0.21322181832E+02  0.00000000000E+00 0.  1.
          6    1    1    2  502    0  0.99605376713E+02 -0.59758252815E+02  0.75154795762E+03  0.77990102735E+03  0.17300000000E+03 0. -1.
         -6    1    1    2    0  501 -0.99605376713E+02  0.59758252815E+02  0.15120058040E+04  0.15262970979E+04  0.17300000000E+03 0.  1.
</event>
<event>
 4    1  0.1089518E+000  0.1000000E+03  0.7546771E-02  0.1280296E+00
         -1   -1    0    0    0  501 -0.00000000000E+00  0.00000000000E+00  0.61442114395E+02  0.61442114395E+02  0.00000000000E+00 0. -1.
          1   -1    0    0  502    0  0.00000000000E+00 -0.00000000000E+00 -0.26008975834E+04  0.26008975834E+04  0.00000000000E+00 0.  1.
          6    1    1    2  502    0 -0.14435127470E+03  0.32533117065E+03 -0.10814161523E+04  0.11515500664E+04  0.17300000000E+03 0.  1.
         -6    1    1    2    0  501  0.14435127470E+03 -0.32533117065E+03 -0.14580393167E+04  0.15107896314E+04  0.17300000000E+03 0. -1.
</event>
<event>
 4    1  0.1089518E+000  0.1000000E+03  0.7546771E-02  0.1280296E+00
         -2   -1    0    0    0  501 -0.00000000000E+00  0.00000000000E+00  0.23545270069E+02  0.23545270069E+02  0.00000000000E+00 0. -1.
          2   -1    0    0  502    0  0.00000000000E+00 -0.00000000000E+00 -0.13645930795E+04  0.13645930795E+04  0.00000000000E+00 0.  1.
          6    1    1    2  502    0 -0.30480556573E+02  0.35399926447E+02 -0.65387220595E+03  0.67798236027E+03  0.17300000000E+03 0.  1.
         -6    1    1    2    0  501  0.30480556573E+02 -0.35399926447E+02 -0.68717560350E+03  0.71015598932E+03  0.17300000000E+03 0. -1.
</event>
<event>
 4    1  0.1089518E+000  0.1000000E+03  0.7546771E-02  0.1280296E+00
         -2   -1    0    0    0  501 -0.00000000000E+00  0.00000000000E+00  0.81144546752E+02  0.81144546752E+02  0.00000000000E+00 0. -1.
          2   -1    0    0  502    0  0.00000000000E+00 -0.00000000000E+00 -0.70250325172E+03  0.70250325172E+03  0.00000000000E+00 0.  1.
          6    1    1    2  502    0  0.52326833622E+02  0.64351443870E+02 -0.77456629164E+02  0.20690030267E+03  0.17300000000E+03 0.  1.
         -6    1    1    2    0  501 -0.52326833622E+02 -0.64351443870E+02 -0.54390207580E+03  0.57674749579E+03  0.17300000000E+03 0. -1.
</event>
<event>
 4    1  0.1089518E+000  0.1000000E+03  0.7546771E-02  0.1280296E+00
         -2   -1    0    0    0  501 -0.00000000000E+00  0.00000000000E+00  0.27976932022E+02  0.27976932022E+02  0.00000000000E+00 0. -1.
          2   -1    0    0  502    0  0.00000000000E+00 -0.00000000000E+00 -0.24631020046E+04  0.24631020046E+04  0.00000000000E+00 0.  1.
          6    1    1    2  502    0  0.16507206424E+03  0.91909659833E+02 -0.94562131763E+03  0.97970651132E+03  0.17300000000E+03 0.  1.
         -6    1    1    2    0  501 -0.16507206424E+03 -0.91909659833E+02 -0.14895037549E+04  0.15113724253E+04  0.17300000000E+03 0. -1.
</event>
<event>
 4    1  0.1089518E+000  0.1000000E+03  0.7546771E-02  0.1280296E+00
         -2   -1    0    0    0  501 -0.00000000000E+00  0.00000000000E+00  0.83757691439E+03  0.83757691439E+03  0.00000000000E+00 0. -1.
          2   -1    0    0  502    0  0.00000000000E+00 -0.00000000000E+00 -0.74690311662E+02  0.74690311662E+02  0.00000000000E+00 0.  1.
          6    1    1    2  502    0  0.96010276697E+02 -0.15300866265E+03  0.38236727298E+03  0.45690628747E+03  0.17300000000E+03 0.  1.
         -6    1    1    2    0  501 -0.96010276697E+02  0.15300866265E+03  0.38051932975E+03  0.45536093859E+03  0.17300000000E+03 0. -1.
</event>
<event>
 4    1  0.1089518E+000  0.1000000E+03  0.7546771E-02  0.1280296E+00
         -2   -1    0    0    0  501 -0.00000000000E+00  0.00000000000E+00  0.45283008139E+03  0.45283008139E+03  0.00000000000E+00 0.  1.
          2   -1    0    0  502    0  0.00000000000E+00 -0.00000000000E+00 -0.92163716165E+02  0.92163716165E+02  0.00000000000E+00 0. -1.
          6    1    1    2  502    0  0.87031488376E+01 -0.84000374771E+02  0.27152253673E+03  0.33284425143E+03  0.17300000000E+03 0. -1.
         -6    1    1    2    0  501 -0.87031488376E+01  0.84000374771E+02  0.89143828499E+02  0.21214954612E+03  0.17300000000E+03 0. -1.
</event>
<event>
 4    1  0.1089518E+000  0.1000000E+03  0.7546771E-02  0.1280296E+00
          2   -1    0    0  502    0  0.00000000000E+00  0.00000000000E+00  0.60788847722E+03  0.60788847722E+03  0.00000000000E+00 0. -1.
         -2   -1    0    0    0  501 -0.00000000000E+00 -0.00000000000E+00 -0.75319057521E+02  0.75319057521E+02  0.00000000000E+00 0.  1.
          6    1    1    2  502    0 -0.33505283354E+02  0.60248441822E+02  0.98056003815E+02  0.21046723887E+03  0.17300000000E+03 0. -1.
         -6    1    1    2    0  501  0.33505283354E+02 -0.60248441822E+02  0.43451341589E+03  0.47274029587E+03  0.17300000000E+03 0.  1.
</event>
<event>
 4    1  0.1089518E+000  0.1000000E+03  0.7546771E-02  0.1280296E+00
          2   -1    0    0  502    0  0.00000000000E+00  0.00000000000E+00  0.10867184092E+04  0.10867184092E+04  0.00000000000E+00 0. -1.
         -2   -1    0    0    0  501 -0.00000000000E+00 -0.00000000000E+00 -0.75163030506E+02  0.75163030506E+02  0.00000000000E+00 0.  1.
          6    1    1    2  502    0 -0.21417025933E+03  0.73715473098E+02  0.54885815575E+03  0.61844736728E+03  0.17300000000E+03 0. -1.
         -6    1    1    2    0  501  0.21417025933E+03 -0.73715473098E+02  0.46269722293E+03  0.54343407241E+03  0.17300000000E+03 0. -1.
</event>
<event>
 4    1  0.1089518E+000  0.1000000E+03  0.7546771E-02  0.1280296E+00
          1   -1    0    0  502    0  0.00000000000E+00  0.00000000000E+00  0.25505898743E+04  0.25505898743E+04  0.00000000000E+00 0. -1.
         -1   -1    0    0    0  501 -0.00000000000E+00 -0.00000000000E+00 -0.16107654968E+02  0.16107654968E+02  0.00000000000E+00 0.  1.
          6    1    1    2  502    0  0.10171948407E+03  0.88996591802E+01  0.14381880566E+04  0.14521501105E+04  0.17300000000E+03 0. -1.
         -6    1    1    2    0  501 -0.10171948407E+03 -0.88996591802E+01  0.10962941628E+04  0.11145474188E+04  0.17300000000E+03 0. -1.
</event>
<event>
 4    1  0.1089518E+000  0.1000000E+03  0.7546771E-02  0.1280296E+00
          1   -1    0    0  502    0  0.00000000000E+00  0.00000000000E+00  0.26137330352E+03  0.26137330352E+03  0.00000000000E+00 0. -1.
         -1   -1    0    0    0  501 -0.00000000000E+00 -0.00000000000E+00 -0.11702126826E+03  0.11702126826E+03  0.00000000000E+00 0.  1.
          6    1    1    2  502    0 -0.94301409741E+01 -0.13361712388E+02  0.93533866711E+02  0.19734499522E+03  0.17300000000E+03 0. -1.
         -6    1    1    2    0  501  0.94301409741E+01  0.13361712388E+02  0.50818168556E+02  0.18104957656E+03  0.17300000000E+03 0. -1.
</event>
<event>
 4    1  0.1089518E+000  0.1000000E+03  0.7546771E-02  0.1280296E+00
          1   -1    0    0  502    0  0.00000000000E+00  0.00000000000E+00  0.98364532307E+03  0.98364532307E+03  0.00000000000E+00 0. -1.
         -1   -1    0    0    0  501 -0.00000000000E+00 -0.00000000000E+00 -0.91486831999E+02  0.91486831999E+02  0.00000000000E+00 0.  1.
          6    1    1    2  502    0 -0.12332143547E+03 -0.19073151520E+03  0.28111084347E+03  0.40067317561E+03  0.17300000000E+03 0. -1.
         -6    1    1    2    0  501  0.12332143547E+03  0.19073151520E+03  0.61104764760E+03  0.67445897946E+03  0.17300000000E+03 0. -1.
</event>
<event>
 4    1  0.1089518E+000  0.1000000E+03  0.7546771E-02  0.1280296E+00
          1   -1    0    0  502    0  0.00000000000E+00  0.00000000000E+00  0.61513689913E+03  0.61513689913E+03  0.00000000000E+00 0. -1.
         -1   -1    0    0    0  501 -0.00000000000E+00 -0.00000000000E+00 -0.53810470145E+03  0.53810470145E+03  0.00000000000E+00 0.  1.
          6    1    1    2  502    0  0.24654122318E+02 -0.48600538327E+03 -0.21556664388E+03  0.55964902954E+03  0.17300000000E+03 0. -1.
         -6    1    1    2    0  501 -0.24654122318E+02  0.48600538327E+03  0.29259884156E+03  0.59359257104E+03  0.17300000000E+03 0.  1.
</event>
<event>
 4    1  0.1089518E+000  0.1000000E+03  0.7546771E-02  0.1280296E+00
         -2   -1    0    0    0  501 -0.00000000000E+00  0.00000000000E+00  0.16498859959E+03  0.16498859959E+03  0.00000000000E+00 0.  1.
          2   -1    0    0  502    0  0.00000000000E+00 -0.00000000000E+00 -0.21220797860E+03  0.21220797860E+03  0.00000000000E+00 0. -1.
          6    1    1    2  502    0  0.52370463384E+02  0.48338579104E+02 -0.21693684276E+02  0.18835843385E+03  0.17300000000E+03 0. -1.
         -6    1    1    2    0  501 -0.52370463384E+02 -0.48338579104E+02 -0.25525694732E+02  0.18883814434E+03  0.17300000000E+03 0.  1.
</event>
<event>
 4    1  0.1089518E+000  0.1000000E+03  0.7546771E-02  0.1280296E+00
          2   -1    0    0  502    0  0.00000000000E+00  0.00000000000E+00  0.53512523886E+03  0.53512523886E+03  0.00000000000E+00 0. -1.
         -2   -1    0    0    0  501 -0.00000000000E+00 -0.00000000000E+00 -0.10174037404E+03  0.10174037404E+03  0.00000000000E+00 0.  1.
          6    1    1    2  502    0  0.12027793800E+03  0.56074263084E+02  0.33008524537E+03  0.39559622668E+03  0.17300000000E+03 0.  1.
         -6    1    1    2    0  501 -0.12027793800E+03 -0.56074263084E+02  0.10329961945E+03  0.24126938622E+03  0.17300000000E+03 0. -1.
</event>
<event>
 4    1  0.1089518E+000  0.1000000E+03  0.7546771E-02  0.1280296E+00
          1   -1    0    0  502    0  0.00000000000E+00  0.00000000000E+00  0.10874182092E+04  0.10874182092E+04  0.00000000000E+00 0. -1.
         -1   -1    0    0    0  501 -0.00000000000E+00 -0.00000000000E+00 -0.67690904985E+02  0.67690904985E+02  0.00000000000E+00 0.  1.
          6    1    1    2  502    0 -0.15268947685E+03 -0.37396035497E+02  0.80303828528E+03  0.83636835631E+03  0.17300000000E+03 0.  1.
         -6    1    1    2    0  501  0.15268947685E+03  0.37396035497E+02  0.21668901896E+03  0.31874075790E+03  0.17300000000E+03 0. -1.
</event>
<event>
 4    1  0.1089518E+000  0.1000000E+03  0.7546771E-02  0.1280296E+00
          1   -1    0    0  502    0  0.00000000000E+00  0.00000000000E+00  0.14829327399E+04  0.14829327399E+04  0.00000000000E+00 0. -1.
         -1   -1    0    0    0  501 -0.00000000000E+00 -0.00000000000E+00 -0.62090248894E+02  0.62090248894E+02  0.00000000000E+00 0.  1.
          6    1    1    2  502    0  0.47229595594E+02  0.13834532228E+03  0.19633258026E+03  0.29974246441E+03  0.17300000000E+03 0.  1.
         -6    1    1    2    0  501 -0.47229595594E+02 -0.13834532228E+03  0.12245099108E+04  0.12452805244E+04  0.17300000000E+03 0. -1.
</event>
<event>
 4    1  0.1089518E+000  0.1000000E+03  0.7546771E-02  0.1280296E+00
          1   -1    0    0  502    0  0.00000000000E+00  0.00000000000E+00  0.62335800327E+02  0.62335800327E+02  0.00000000000E+00 0. -1.
         -1   -1    0    0    0  501 -0.00000000000E+00 -0.00000000000E+00 -0.68474650325E+03  0.68474650325E+03  0.00000000000E+00 0.  1.
          6    1    1    2  502    0  0.68256313838E+02  0.86987942739E+02 -0.26960523147E+03  0.33888317662E+03  0.17300000000E+03 0.  1.
         -6    1    1    2    0  501 -0.68256313838E+02 -0.86987942739E+02 -0.35280547145E+03  0.40819912696E+03  0.17300000000E+03 0. -1.
</event>
<event>
 4    1  0.1089518E+000  0.1000000E+03  0.7546771E-02  0.1280296E+00
         -1   -1    0    0    0  501 -0.00000000000E+00  0.00000000000E+00  0.37297035857E+03  0.37297035857E+03  0.00000000000E+00 0. -1.
          1   -1    0    0  502    0  0.00000000000E+00 -0.00000000000E+00 -0.24795558167E+03  0.24795558167E+03  0.00000000000E+00 0.  1.
          6    1    1    2  502    0 -0.39411027138E+02  0.24109026206E+03  0.11723154975E+03  0.32148091666E+03  0.17300000000E+03 0.  1.
         -6    1    1    2    0  501  0.39411027138E+02 -0.24109026206E+03  0.77832271433E+01  0.29944502358E+03  0.17300000000E+03 0. -1.
</event>
<event>
 4    1  0.1089518E+000  0.1000000E+03  0.7546771E-02  0.1280296E+00
          1   -1    0    0  502    0  0.00000000000E+00  0.00000000000E+00  0.43553187388E+03  0.43553187388E+03  0.00000000000E+00 0.  1.
         -1   -1    0    0    0  501 -0.00000000000E+00 -0.00000000000E+00 -0.79239093129E+02  0.79239093129E+02  0.00000000000E+00 0. -1.
          6    1    1    2  502    0  0.40138886531E+02  0.54501639399E+02  0.17921223530E+03  0.25812319576E+03  0.17300000000E+03 0. -1.
         -6    1    1    2    0  501 -0.40138886531E+02 -0.54501639399E+02  0.17708054546E+03  0.25664777125E+03  0.17300000000E+03 0.  1.
</event>
<event>
 4    1  0.1089518E+000  0.1000000E+03  0.7546771E-02  0.1280296E+00
          1   -1    0    0  502    0  0.00000000000E+00  0.00000000000E+00  0.45954089926E+03  0.45954089926E+03  0.00000000000E+00 0. -1.
         -1   -1    0    0    0  501 -0.00000000000E+00 -0.00000000000E+00 -0.32841677947E+03  0.32841677947E+03  0.00000000000E+00 0.  1.
          6    1    1    2  502    0 -0.28811757058E+03  0.16715803196E+03  0.16717064223E+03  0.41088753418E+03  0.17300000000E+03 0.  1.
         -6    1    1    2    0  501  0.28811757058E+03 -0.16715803196E+03 -0.36046522434E+02  0.37707014454E+03  0.17300000000E+03 0. -1.
</event>
<event>
 4    1  0.1089518E+000  0.1000000E+03  0.7546771E-02  0.1280296E+00
         -2   -1    0    0    0  501 -0.00000000000E+00  0.00000000000E+00  0.12063146038E+02  0.12063146038E+02  0.00000000000E+00 0. -1.
          2   -1    0    0  502    0  0.00000000000E+00 -0.00000000000E+00 -0.26908085593E+04  0.26908085593E+04  0.00000000000E+00 0.  1.
          6    1    1    2  502    0  0.17753962300E+01 -0.35540486431E+02 -0.10726528138E+04  0.10870967469E+04  0.17300000000E+03 0.  1.
         -6    1    1    2    0  501 -0.17753962300E+01  0.35540486431E+02 -0.16060925995E+04  0.16157749585E+04  0.17300000000E+03 0. -1.
</event>
<event>
 4    1  0.1089518E+000  0.1000000E+03  0.7546771E-02  0.1280296E+00
         -2   -1    0    0    0  501 -0.00000000000E+00  0.00000000000E+00  0.10037806519E+03  0.10037806519E+03  0.00000000000E+00 0. -1.
          2   -1    0    0  502    0  0.00000000000E+00 -0.00000000000E+00 -0.29230051822E+04  0.29230051822E+04  0.00000000000E+00 0.  1.
          6    1    1    2  502    0  0.25093831066E+03 -0.28724700410E+03 -0.23699681246E+04  0.24066904223E+04  0.17300000000E+03 0.  1.
         -6    1    1    2    0  501 -0.25093831066E+03  0.28724700410E+03 -0.45265899242E+03  0.61669282511E+03  0.17300000000E+03 0. -1.
</event>
<event>
 4    1  0.1089518E+000  0.1000000E+03  0.7546771E-02  0.1280296E+00
         -2   -1    0    0    0  501 -0.00000000000E+00  0.00000000000E+00  0.53860985594E+03  0.53860985594E+03  0.00000000000E+00 0. -1.
          2   -1    0    0  502    0  0.00000000000E+00 -0.00000000000E+00 -0.71918766898E+02  0.71918766898E+02  0.00000000000E+00 0.  1.
          6    1    1    2  502    0 -0.24652597098E+02  0.90428857317E+02  0.22606599824E+03  0.29969979036E+03  0.17300000000E+03 0.  1.
         -6    1    1    2    0  501  0.24652597098E+02 -0.90428857317E+02  0.24062509080E+03  0.31082883249E+03  0.17300000000E+03 0. -1.
</event>
<event>
 4    1  0.1089518E+000  0.1000000E+03  0.7546771E-02  0.1280296E+00
          1   -1    0    0  502    0  0.00000000000E+00  0.00000000000E+00  0.73194668554E+03  0.73194668554E+03  0.00000000000E+00 0.  1.
         -1   -1    0    0    0  501 -0.00000000000E+00 -0.00000000000E+00 -0.53227557209E+02  0.53227557209E+02  0.00000000000E+00 0. -1.
          6    1    1    2  502    0  0.28751127097E+02 -0.88167344055E+02  0.38063372833E+03  0.42826527177E+03  0.17300000000E+03 0.  1.
         -6    1    1    2    0  501 -0.28751127097E+02  0.88167344055E+02  0.29808540000E+03  0.35690897097E+03  0.17300000000E+03 0. -1.
</event>
<event>
 4    1  0.1089518E+000  0.1000000E+03  0.7546771E-02  0.1280296E+00
          2   -1    0    0  502    0  0.00000000000E+00  0.00000000000E+00  0.92572854504E+03  0.92572854504E+03  0.00000000000E+00 0.  1.
         -2   -1    0    0    0  501 -0.00000000000E+00 -0.00000000000E+00 -0.93831021362E+02  0.93831021362E+02  0.00000000000E+00 0. -1.
          6    1    1    2  502    0  0.31594499866E+01  0.20689005673E+03  0.21041725577E+03  0.34207879096E+03  0.17300000000E+03 0.  1.
         -6    1    1    2    0  501 -0.31594499866E+01 -0.20689005673E+03  0.62148026790E+03  0.67748077544E+03  0.17300000000E+03 0. -1.
</event>
<event>
 4    1  0.1089518E+000  0.1000000E+03  0.7546771E-02  0.1280296E+00
         -2   -1    0    0    0  501 -0.00000000000E+00  0.00000000000E+00  0.43807573409E+02  0.43807573409E+02  0.00000000000E+00 0. -1.
          2   -1    0    0  502    0  0.00000000000E+00 -0.00000000000E+00 -0.15541276224E+04  0.15541276224E+04  0.00000000000E+00 0.  1.
          6    1    1    2  502    0  0.11701991110E+02  0.77206709303E+02 -0.20692827670E+03  0.28079552036E+03  0.17300000000E+03 0.  1.
         -6    1    1    2    0  501 -0.11701991110E+02 -0.77206709303E+02 -0.13033917723E+04  0.13171396754E+04  0.17300000000E+03 0. -1.
</event>
<event>
 4    1  0.1089518E+000  0.1000000E+03  0.7546771E-02  0.1280296E+00
         -1   -1    0    0    0  501 -0.00000000000E+00  0.00000000000E+00  0.13624590425E+04  0.13624590425E+04  0.00000000000E+00 0.  1.
          1   -1    0    0  502    0  0.00000000000E+00 -0.00000000000E+00 -0.27382675257E+02  0.27382675257E+02  0.00000000000E+00 0. -1.
          6    1    1    2  502    0 -0.49283467179E+02 -0.19557484262E+02  0.91068638997E+03  0.92848804850E+03  0.17300000000E+03 0. -1.
         -6    1    1    2    0  501  0.49283467179E+02  0.19557484262E+02  0.42438997726E+03  0.46135366925E+03  0.17300000000E+03 0.  1.
</event>
<event>
 4    1  0.1089518E+000  0.1000000E+03  0.7546771E-02  0.1280296E+00
          1   -1    0    0  502    0  0.00000000000E+00  0.00000000000E+00  0.69585890637E+02  0.69585890637E+02  0.00000000000E+00 0.  1.
         -1   -1    0    0    0  501 -0.00000000000E+00 -0.00000000000E+00 -0.77844031027E+03  0.77844031027E+03  0.00000000000E+00 0. -1.
          6    1    1    2  502    0 -0.22207911924E+01  0.13260198860E+03 -0.50300620907E+03  0.54820841444E+03  0.17300000000E+03 0.  1.
         -6    1    1    2    0  501  0.22207911924E+01 -0.13260198860E+03 -0.20584821056E+03  0.29981778647E+03  0.17300000000E+03 0. -1.
</event>
<event>
 4    1  0.1089518E+000  0.1000000E+03  0.7546771E-02  0.1280296E+00
         -2   -1    0    0    0  501 -0.00000000000E+00  0.00000000000E+00  0.36325859569E+02  0.36325859569E+02  0.00000000000E+00 0.  1.
          2   -1    0    0  502    0  0.00000000000E+00 -0.00000000000E+00 -0.27879295450E+04  0.27879295450E+04  0.00000000000E+00 0. -1.
          6    1    1    2  502    0  0.11189483550E+03  0.16526498133E+03 -0.21635055606E+04  0.21795683698E+04  0.17300000000E+03 0.  1.
         -6    1    1    2    0  501 -0.11189483550E+03 -0.16526498133E+03 -0.58809812490E+03  0.64468703475E+03  0.17300000000E+03 0. -1.
</event>
<event>
 4    1  0.1089518E+000  0.1000000E+03  0.7546771E-02  0.1280296E+00
         -1   -1    0    0    0  501 -0.00000000000E+00  0.00000000000E+00  0.22123192547E+02  0.22123192547E+02  0.00000000000E+00 0.  1.
          1   -1    0    0  502    0  0.00000000000E+00 -0.00000000000E+00 -0.18242539598E+04  0.18242539598E+04  0.00000000000E+00 0. -1.
          6    1    1    2  502    0  0.87871856528E+02 -0.17552060993E+02 -0.67594754357E+03  0.70346543602E+03  0.17300000000E+03 0.  1.
         -6    1    1    2    0  501 -0.87871856528E+02  0.17552060993E+02 -0.11261832237E+04  0.11429117163E+04  0.17300000000E+03 0. -1.
</event>
<event>
 4    1  0.1089518E+000  0.1000000E+03  0.7546771E-02  0.1280296E+00
          4   -1    0    0  502    0  0.00000000000E+00  0.00000000000E+00  0.68768434274E+03  0.68768434274E+03  0.00000000000E+00 0.  1.
         -4   -1    0    0    0  501 -0.00000000000E+00 -0.00000000000E+00 -0.90192298321E+02  0.90192298321E+02  0.00000000000E+00 0. -1.
          6    1    1    2  502    0 -0.26099633865E+02 -0.14780899526E+03  0.14600002508E+03  0.27161313902E+03  0.17300000000E+03 0.  1.
         -6    1    1    2    0  501  0.26099633865E+02  0.14780899526E+03  0.45149201934E+03  0.50626350204E+03  0.17300000000E+03 0. -1.
</event>
<event>
 4    1  0.1089518E+000  0.1000000E+03  0.7546771E-02  0.1280296E+00
         -1   -1    0    0    0  501 -0.00000000000E+00  0.00000000000E+00  0.37717572116E+03  0.37717572116E+03  0.00000000000E+00 0.  1.
          1   -1    0    0  502    0  0.00000000000E+00 -0.00000000000E+00 -0.37431999772E+03  0.37431999772E+03  0.00000000000E+00 0. -1.
          6    1    1    2  502    0  0.15617782298E+03 -0.59278578799E+02  0.29013386514E+03  0.37684495750E+03  0.17300000000E+03 0.  1.
         -6    1    1    2    0  501 -0.15617782298E+03  0.59278578799E+02 -0.28727814171E+03  0.37465076137E+03  0.17300000000E+03 0. -1.
</event>
<event>
 4    1  0.1089518E+000  0.1000000E+03  0.7546771E-02  0.1280296E+00
         -2   -1    0    0    0  501 -0.00000000000E+00  0.00000000000E+00  0.25081262637E+03  0.25081262637E+03  0.00000000000E+00 0.  1.
          2   -1    0    0  502    0  0.00000000000E+00 -0.00000000000E+00 -0.17514001069E+03  0.17514001069E+03  0.00000000000E+00 0. -1.
          6    1    1    2  502    0 -0.93757330354E+02  0.37249617971E+02 -0.24971812128E+02  0.20181814199E+03  0.17300000000E+03 0.  1.
         -6    1    1    2    0  501  0.93757330354E+02 -0.37249617971E+02  0.10064442781E+03  0.22413449508E+03  0.17300000000E+03 0. -1.
</event>
<event>
 4    1  0.1089518E+000  0.1000000E+03  0.7546771E-02  0.1280296E+00
         -1   -1    0    0    0  501 -0.00000000000E+00  0.00000000000E+00  0.26540208580E+02  0.26540208580E+02  0.00000000000E+00 0.  1.
          1   -1    0    0  502    0  0.00000000000E+00 -0.00000000000E+00 -0.12674972497E+04  0.12674972497E+04  0.00000000000E+00 0. -1.
          6    1    1    2  502    0  0.43977073638E+02 -0.18958226817E+02 -0.48767380714E+03  0.51966156250E+03  0.17300000000E+03 0.  1.
         -6    1    1    2    0  501 -0.43977073638E+02  0.18958226817E+02 -0.75328323399E+03  0.77437589579E+03  0.17300000000E+03 0. -1.
</event>
<event>
 4    1  0.1089518E+000  0.1000000E+03  0.7546771E-02  0.1280296E+00
         -2   -1    0    0    0  501 -0.00000000000E+00  0.00000000000E+00  0.47957065972E+02  0.47957065972E+02  0.00000000000E+00 0. -1.
          2   -1    0    0  502    0  0.00000000000E+00 -0.00000000000E+00 -0.14037915208E+04  0.14037915208E+04  0.00000000000E+00 0.  1.
          6    1    1    2  502    0  0.75154273570E+02  0.33700856606E+02 -0.18846869667E+03  0.26876265030E+03  0.17300000000E+03 0. -1.
         -6    1    1    2    0  501 -0.75154273570E+02 -0.33700856606E+02 -0.11673657582E+04  0.11829859365E+04  0.17300000000E+03 0.  1.
</event>
<event>
 4    1  0.1089518E+000  0.1000000E+03  0.7546771E-02  0.1280296E+00
         -2   -1    0    0    0  501 -0.00000000000E+00  0.00000000000E+00  0.77738433138E+02  0.77738433138E+02  0.00000000000E+00 0. -1.
          2   -1    0    0  502    0  0.00000000000E+00 -0.00000000000E+00 -0.62557822486E+03  0.62557822486E+03  0.00000000000E+00 0.  1.
          6    1    1    2  502    0  0.13530374322E+03  0.19703533543E+02 -0.27818054809E+03  0.35497711123E+03  0.17300000000E+03 0. -1.
         -6    1    1    2    0  501 -0.13530374322E+03 -0.19703533543E+02 -0.26965924364E+03  0.34833954677E+03  0.17300000000E+03 0.  1.
</event>
<event>
 4    1  0.1089518E+000  0.1000000E+03  0.7546771E-02  0.1280296E+00
          2   -1    0    0  502    0  0.00000000000E+00  0.00000000000E+00  0.23116021965E+04  0.23116021965E+04  0.00000000000E+00 0. -1.
         -2   -1    0    0    0  501 -0.00000000000E+00 -0.00000000000E+00 -0.13248309082E+02  0.13248309082E+02  0.00000000000E+00 0.  1.
          6    1    1    2  502    0  0.25671397701E+02 -0.43117796906E+00  0.11089839218E+04  0.11226903159E+04  0.17300000000E+03 0. -1.
         -6    1    1    2    0  501 -0.25671397701E+02  0.43117796906E+00  0.11893699656E+04  0.12021601897E+04  0.17300000000E+03 0. -1.
</event>
<event>
 4    1  0.1089518E+000  0.1000000E+03  0.7546771E-02  0.1280296E+00
          2   -1    0    0  502    0  0.00000000000E+00  0.00000000000E+00  0.36842724599E+03  0.36842724599E+03  0.00000000000E+00 0. -1.
         -2   -1    0    0    0  501 -0.00000000000E+00 -0.00000000000E+00 -0.30453134023E+03  0.30453134023E+03  0.00000000000E+00 0.  1.
          6    1    1    2  502    0 -0.26368797521E+03  0.70453835849E+02 -0.56619921759E+02  0.32806997241E+03  0.17300000000E+03 0. -1.
         -6    1    1    2    0  501  0.26368797521E+03 -0.70453835849E+02  0.12051582752E+03  0.34488861381E+03  0.17300000000E+03 0. -1.
</event>
<event>
 4    1  0.1089518E+000  0.1000000E+03  0.7546771E-02  0.1280296E+00
          2   -1    0    0  502    0  0.00000000000E+00  0.00000000000E+00  0.20070810178E+04  0.20070810178E+04  0.00000000000E+00 0. -1.
         -2   -1    0    0    0  501 -0.00000000000E+00 -0.00000000000E+00 -0.17599089106E+02  0.17599089106E+02  0.00000000000E+00 0.  1.
          6    1    1    2  502    0 -0.55463311576E+02 -0.45865820333E+02  0.10735271759E+04  0.10897566012E+04  0.17300000000E+03 0. -1.
         -6    1    1    2    0  501  0.55463311576E+02  0.45865820333E+02  0.91595475284E+03  0.93492350578E+03  0.17300000000E+03 0. -1.
</event>
<event>
 4    1  0.1089518E+000  0.1000000E+03  0.7546771E-02  0.1280296E+00
          1   -1    0    0  502    0  0.00000000000E+00  0.00000000000E+00  0.42616595254E+04  0.42616595254E+04  0.00000000000E+00 0.  1.
         -1   -1    0    0    0  501 -0.00000000000E+00 -0.00000000000E+00 -0.12928070872E+02  0.12928070872E+02  0.00000000000E+00 0. -1.
          6    1    1    2  502    0 -0.55844646170E+02  0.14121083687E+03  0.25423222688E+04  0.25527222026E+04  0.17300000000E+03 0. -1.
         -6    1    1    2    0  501  0.55844646170E+02 -0.14121083687E+03  0.17064091857E+04  0.17218653936E+04  0.17300000000E+03 0.  1.
</event>
<event>
 4    1  0.1089518E+000  0.1000000E+03  0.7546771E-02  0.1280296E+00
          1   -1    0    0  502    0  0.00000000000E+00  0.00000000000E+00  0.86733123489E+03  0.86733123489E+03  0.00000000000E+00 0.  1.
         -1   -1    0    0    0  501 -0.00000000000E+00 -0.00000000000E+00 -0.70021617397E+02  0.70021617397E+02  0.00000000000E+00 0. -1.
          6    1    1    2  502    0 -0.12837395701E+03 -0.70995870101E+02  0.21542314595E+03  0.31282010521E+03  0.17300000000E+03 0. -1.
         -6    1    1    2    0  501  0.12837395701E+03  0.70995870101E+02  0.58188647155E+03  0.62453274709E+03  0.17300000000E+03 0.  1.
</event>
<event>
 4    1  0.1089518E+000  0.1000000E+03  0.7546771E-02  0.1280296E+00
         -2   -1    0    0    0  501 -0.00000000000E+00  0.00000000000E+00  0.28532589053E+02  0.28532589053E+02  0.00000000000E+00 0. -1.
          2   -1    0    0  502    0  0.00000000000E+00 -0.00000000000E+00 -0.24062541657E+04  0.24062541657E+04  0.00000000000E+00 0.  1.
          6    1    1    2  502    0  0.12406491780E+03 -0.49974835532E+02 -0.18595454510E+04  0.18723589059E+04  0.17300000000E+03 0.  1.
         -6    1    1    2    0  501 -0.12406491780E+03  0.49974835532E+02 -0.51817612559E+03  0.56242784884E+03  0.17300000000E+03 0. -1.
</event>
<event>
 4    1  0.1089518E+000  0.1000000E+03  0.7546771E-02  0.1280296E+00
         -2   -1    0    0    0  501 -0.00000000000E+00  0.00000000000E+00  0.73405832539E+02  0.73405832539E+02  0.00000000000E+00 0. -1.
          2   -1    0    0  502    0  0.00000000000E+00 -0.00000000000E+00 -0.12046166397E+04  0.12046166397E+04  0.00000000000E+00 0.  1.
          6    1    1    2  502    0 -0.16303875414E+03 -0.11078087347E+02 -0.94876641620E+03  0.97815697712E+03  0.17300000000E+03 0.  1.
         -6    1    1    2    0  501  0.16303875414E+03  0.11078087347E+02 -0.18244439095E+03  0.29986549512E+03  0.17300000000E+03 0. -1.
</event>
<event>
 4    1  0.1089518E+000  0.1000000E+03  0.7546771E-02  0.1280296E+00
         -2   -1    0    0    0  501 -0.00000000000E+00  0.00000000000E+00  0.12515915755E+03  0.12515915755E+03  0.00000000000E+00 0. -1.
          2   -1    0    0  502    0  0.00000000000E+00 -0.00000000000E+00 -0.45367163212E+03  0.45367163212E+03  0.00000000000E+00 0.  1.
          6    1    1    2  502    0 -0.12466427974E+03  0.91717497294E+01 -0.35565120279E+02  0.21637740505E+03  0.17300000000E+03 0.  1.
         -6    1    1    2    0  501  0.12466427974E+03 -0.91717497294E+01 -0.29294735429E+03  0.36245338462E+03  0.17300000000E+03 0. -1.
</event>
<event>
 4    1  0.1089518E+000  0.1000000E+03  0.7546771E-02  0.1280296E+00
         -2   -1    0    0    0  501 -0.00000000000E+00  0.00000000000E+00  0.81520412870E+02  0.81520412870E+02  0.00000000000E+00 0.  1.
          2   -1    0    0  502    0  0.00000000000E+00 -0.00000000000E+00 -0.53956048360E+03  0.53956048360E+03  0.00000000000E+00 0. -1.
          6    1    1    2  502    0  0.64071582815E+02 -0.39344598395E+02 -0.93287852267E+02  0.21043951275E+03  0.17300000000E+03 0. -1.
         -6    1    1    2    0  501 -0.64071582815E+02  0.39344598395E+02 -0.36475221847E+03  0.41064138372E+03  0.17300000000E+03 0.  1.
</event>
<event>
 4    1  0.1089518E+000  0.1000000E+03  0.7546771E-02  0.1280296E+00
         -1   -1    0    0    0  501 -0.00000000000E+00  0.00000000000E+00  0.23611393642E+03  0.23611393642E+03  0.00000000000E+00 0.  1.
          1   -1    0    0  502    0  0.00000000000E+00 -0.00000000000E+00 -0.47376990194E+03  0.47376990194E+03  0.00000000000E+00 0. -1.
          6    1    1    2  502    0 -0.13633659015E+03  0.12466201968E+03  0.11320820996E+03  0.27726049803E+03  0.17300000000E+03 0. -1.
         -6    1    1    2    0  501  0.13633659015E+03 -0.12466201968E+03 -0.35086417548E+03  0.43262334033E+03  0.17300000000E+03 0.  1.
</event>
<event>
 4    1  0.1089518E+000  0.1000000E+03  0.7546771E-02  0.1280296E+00
         -1   -1    0    0    0  501 -0.00000000000E+00  0.00000000000E+00  0.12624944549E+03  0.12624944549E+03  0.00000000000E+00 0.  1.
          1   -1    0    0  502    0  0.00000000000E+00 -0.00000000000E+00 -0.38795655633E+03  0.38795655633E+03  0.00000000000E+00 0. -1.
          6    1    1    2  502    0  0.54008372061E+02  0.98533497338E+02 -0.37738035669E+02  0.20971150108E+03  0.17300000000E+03 0. -1.
         -6    1    1    2    0  501 -0.54008372061E+02 -0.98533497338E+02 -0.22396907517E+03  0.30449450074E+03  0.17300000000E+03 0.  1.
</event>
<event>
 4    1  0.1089518E+000  0.1000000E+03  0.7546771E-02  0.1280296E+00
          2   -1    0    0  502    0  0.00000000000E+00  0.00000000000E+00  0.27012491729E+03  0.27012491729E+03  0.00000000000E+00 0.  1.
         -2   -1    0    0    0  501 -0.00000000000E+00 -0.00000000000E+00 -0.63262058777E+03  0.63262058777E+03  0.00000000000E+00 0. -1.
          6    1    1    2  502    0 -0.39779369724E+02 -0.32379780004E+03 -0.38414721316E+03  0.53284659607E+03  0.17300000000E+03 0.  1.
         -6    1    1    2    0  501  0.39779369724E+02  0.32379780004E+03  0.21651542684E+02  0.36989890898E+03  0.17300000000E+03 0. -1.
</event>
<event>
 4    1  0.1089518E+000  0.1000000E+03  0.7546771E-02  0.1280296E+00
          2   -1    0    0  502    0  0.00000000000E+00  0.00000000000E+00  0.10524278028E+03  0.10524278028E+03  0.00000000000E+00 0.  1.
         -2   -1    0    0    0  501 -0.00000000000E+00 -0.00000000000E+00 -0.10080337054E+04  0.10080337054E+04  0.00000000000E+00 0. -1.
          6    1    1    2  502    0 -0.64817501649E+02  0.12942314898E+03 -0.85294472224E+03  0.88226716997E+03  0.17300000000E+03 0.  1.
         -6    1    1    2    0  501  0.64817501649E+02 -0.12942314898E+03 -0.49846202911E+02  0.23100931574E+03  0.17300000000E+03 0. -1.
</event>
<event>
 4    1  0.1089518E+000  0.1000000E+03  0.7546771E-02  0.1280296E+00
          1   -1    0    0  502    0  0.00000000000E+00  0.00000000000E+00  0.54236967146E+02  0.54236967146E+02  0.00000000000E+00 0.  1.
         -1   -1    0    0    0  501 -0.00000000000E+00 -0.00000000000E+00 -0.13652893794E+04  0.13652893794E+04  0.00000000000E+00 0. -1.
          6    1    1    2  502    0 -0.95898100015E+02  0.18498813044E+03 -0.72468737662E+03  0.77363935256E+03  0.17300000000E+03 0.  1.
         -6    1    1    2    0  501  0.95898100015E+02 -0.18498813044E+03 -0.58636503563E+03  0.64588699399E+03  0.17300000000E+03 0. -1.
</event>
<event>
 4    1  0.1089518E+000  0.1000000E+03  0.7546771E-02  0.1280296E+00
          1   -1    0    0  502    0  0.00000000000E+00  0.00000000000E+00  0.39930115994E+03  0.39930115994E+03  0.00000000000E+00 0.  1.
         -1   -1    0    0    0  501 -0.00000000000E+00 -0.00000000000E+00 -0.91609689471E+02  0.91609689471E+02  0.00000000000E+00 0. -1.
          6    1    1    2  502    0 -0.47260969234E+02 -0.10934106703E+02  0.23797939105E+03  0.29818843785E+03  0.17300000000E+03 0.  1.
         -6    1    1    2    0  501  0.47260969234E+02  0.10934106703E+02  0.69712079422E+02  0.19272241157E+03  0.17300000000E+03 0. -1.
</event>
<event>
 4    1  0.1089518E+000  0.1000000E+03  0.7546771E-02  0.1280296E+00
          1   -1    0    0  502    0  0.00000000000E+00  0.00000000000E+00  0.31543219484E+03  0.31543219484E+03  0.00000000000E+00 0.  1.
         -1   -1    0    0    0  501 -0.00000000000E+00 -0.00000000000E+00 -0.15437550238E+03  0.15437550238E+03  0.00000000000E+00 0. -1.
          6    1    1    2  502    0 -0.10611055546E+03  0.86023658198E+02  0.69543608501E+02  0.23113812587E+03  0.17300000000E+03 0.  1.
         -6    1    1    2    0  501  0.10611055546E+03 -0.86023658198E+02  0.91513083968E+02  0.23866957135E+03  0.17300000000E+03 0. -1.
</event>
<event>
 4    1  0.1089518E+000  0.1000000E+03  0.7546771E-02  0.1280296E+00
          2   -1    0    0  502    0  0.00000000000E+00  0.00000000000E+00  0.35565246527E+03  0.35565246527E+03  0.00000000000E+00 0.  1.
         -2   -1    0    0    0  501 -0.00000000000E+00 -0.00000000000E+00 -0.10356738101E+03  0.10356738101E+03  0.00000000000E+00 0. -1.
          6    1    1    2  502    0 -0.68192470114E+02  0.35095807979E+02  0.87776107643E+02  0.20860386811E+03  0.17300000000E+03 0.  1.
         -6    1    1    2    0  501  0.68192470114E+02 -0.35095807979E+02  0.16430897662E+03  0.25061597817E+03  0.17300000000E+03 0. -1.
</event>
<event>
 4    1  0.1089518E+000  0.1000000E+03  0.7546771E-02  0.1280296E+00
         -1   -1    0    0    0  501 -0.00000000000E+00  0.00000000000E+00  0.44784523417E+02  0.44784523417E+02  0.00000000000E+00 0.  1.
          1   -1    0    0  502    0  0.00000000000E+00 -0.00000000000E+00 -0.16167662152E+04  0.16167662152E+04  0.00000000000E+00 0. -1.
          6    1    1    2  502    0 -0.27462587054E+01 -0.53138720853E+02 -0.17124609859E+03  0.24916960463E+03  0.17300000000E+03 0.  1.
         -6    1    1    2    0  501  0.27462587054E+01  0.53138720853E+02 -0.14007355932E+04  0.14123811339E+04  0.17300000000E+03 0. -1.
</event>
<event>
 4    1  0.1089518E+000  0.1000000E+03  0.7546771E-02  0.1280296E+00
         -2   -1    0    0    0  501 -0.00000000000E+00  0.00000000000E+00  0.22207317289E+02  0.22207317289E+02  0.00000000000E+00 0.  1.
          2   -1    0    0  502    0  0.00000000000E+00 -0.00000000000E+00 -0.20458282634E+04  0.20458282634E+04  0.00000000000E+00 0. -1.
          6    1    1    2  502    0 -0.98264094858E+02  0.82896430992E+01 -0.13805880141E+04  0.13948751970E+04  0.17300000000E+03 0.  1.
         -6    1    1    2    0  501  0.98264094858E+02 -0.82896430992E+01 -0.64303293200E+03  0.67316038368E+03  0.17300000000E+03 0. -1.
</event>
<event>
 4    1  0.1089518E+000  0.1000000E+03  0.7546771E-02  0.1280296E+00
         -1   -1    0    0    0  501 -0.00000000000E+00  0.00000000000E+00  0.35693153907E+02  0.35693153907E+02  0.00000000000E+00 0.  1.
          1   -1    0    0  502    0  0.00000000000E+00 -0.00000000000E+00 -0.95329648959E+03  0.95329648959E+03  0.00000000000E+00 0. -1.
          6    1    1    2  502    0  0.55941253294E+02  0.29310786656E+02 -0.48673963285E+03  0.52041619519E+03  0.17300000000E+03 0.  1.
         -6    1    1    2    0  501 -0.55941253294E+02 -0.29310786656E+02 -0.43086370283E+03  0.46857344830E+03  0.17300000000E+03 0. -1.
</event>
<event>
 4    1  0.1089518E+000  0.1000000E+03  0.7546771E-02  0.1280296E+00
         -2   -1    0    0    0  501 -0.00000000000E+00  0.00000000000E+00  0.51262325117E+03  0.51262325117E+03  0.00000000000E+00 0.  1.
          2   -1    0    0  502    0  0.00000000000E+00 -0.00000000000E+00 -0.28790451673E+03  0.28790451673E+03  0.00000000000E+00 0. -1.
          6    1    1    2  502    0 -0.85801734262E+02  0.33102812146E+03  0.14023841183E+03  0.40808990058E+03  0.17300000000E+03 0.  1.
         -6    1    1    2    0  501  0.85801734262E+02 -0.33102812146E+03  0.84480322606E+02  0.39243786732E+03  0.17300000000E+03 0. -1.
</event>
<event>
 4    1  0.1089518E+000  0.1000000E+03  0.7546771E-02  0.1280296E+00
         -2   -1    0    0    0  501 -0.00000000000E+00  0.00000000000E+00  0.50444035661E+02  0.50444035661E+02  0.00000000000E+00 0.  1.
          2   -1    0    0  502    0  0.00000000000E+00 -0.00000000000E+00 -0.86677087654E+03  0.86677087654E+03  0.00000000000E+00 0. -1.
          6    1    1    2  502    0 -0.10244264445E+03  0.53839884857E+02 -0.45209333865E+03  0.49770535003E+03  0.17300000000E+03 0.  1.
         -6    1    1    2    0  501  0.10244264445E+03 -0.53839884857E+02 -0.36423350223E+03  0.41950956217E+03  0.17300000000E+03 0. -1.
</event>
<event>
 4    1  0.1089518E+000  0.1000000E+03  0.7546771E-02  0.1280296E+00
         -2   -1    0    0    0  501 -0.00000000000E+00  0.00000000000E+00  0.18887116273E+03  0.18887116273E+03  0.00000000000E+00 0. -1.
          2   -1    0    0  502    0  0.00000000000E+00 -0.00000000000E+00 -0.12692890669E+04  0.12692890669E+04  0.00000000000E+00 0.  1.
          6    1    1    2  502    0 -0.25707366806E+03  0.88624351265E+02  0.86504235718E+01  0.32240498798E+03  0.17300000000E+03 0. -1.
         -6    1    1    2    0  501  0.25707366806E+03 -0.88624351265E+02 -0.10890683278E+04  0.11357552417E+04  0.17300000000E+03 0.  1.
</event>
<event>
 4    1  0.1089518E+000  0.1000000E+03  0.7546771E-02  0.1280296E+00
         -2   -1    0    0    0  501 -0.00000000000E+00  0.00000000000E+00  0.49354257981E+02  0.49354257981E+02  0.00000000000E+00 0. -1.
          2   -1    0    0  502    0  0.00000000000E+00 -0.00000000000E+00 -0.23300479699E+04  0.23300479699E+04  0.00000000000E+00 0.  1.
          6    1    1    2  502    0 -0.11243234018E+03  0.19348044696E+03 -0.17966193045E+04  0.18187483717E+04  0.17300000000E+03 0.  1.
         -6    1    1    2    0  501  0.11243234018E+03 -0.19348044696E+03 -0.48407440746E+03  0.56065385617E+03  0.17300000000E+03 0. -1.
</event>
<event>
 4    1  0.1089518E+000  0.1000000E+03  0.7546771E-02  0.1280296E+00
         -2   -1    0    0    0  501 -0.00000000000E+00  0.00000000000E+00  0.76035483230E+02  0.76035483230E+02  0.00000000000E+00 0. -1.
          2   -1    0    0  502    0  0.00000000000E+00 -0.00000000000E+00 -0.15054577820E+04  0.15054577820E+04  0.00000000000E+00 0.  1.
          6    1    1    2  502    0  0.28633945939E+03  0.30961835109E+02 -0.62150750534E+03  0.70650513121E+03  0.17300000000E+03 0.  1.
         -6    1    1    2    0  501 -0.28633945939E+03 -0.30961835109E+02 -0.80791479347E+03  0.87498813406E+03  0.17300000000E+03 0. -1.
</event>
<event>
 4    1  0.1089518E+000  0.1000000E+03  0.7546771E-02  0.1280296E+00
          2   -1    0    0  502    0  0.00000000000E+00  0.00000000000E+00  0.24134234409E+03  0.24134234409E+03  0.00000000000E+00 0.  1.
         -2   -1    0    0    0  501 -0.00000000000E+00 -0.00000000000E+00 -0.20344289498E+03  0.20344289498E+03  0.00000000000E+00 0. -1.
          6    1    1    2  502    0 -0.14160384114E+02 -0.11292905749E+03  0.98084826768E+02  0.22913559685E+03  0.17300000000E+03 0.  1.
         -6    1    1    2    0  501  0.14160384114E+02  0.11292905749E+03 -0.60185377655E+02  0.21564964221E+03  0.17300000000E+03 0. -1.
</event>
<event>
 4    1  0.1089518E+000  0.1000000E+03  0.7546771E-02  0.1280296E+00
          2   -1    0    0  502    0  0.00000000000E+00  0.00000000000E+00  0.16337778370E+02  0.16337778370E+02  0.00000000000E+00 0.  1.
         -2   -1    0    0    0  501 -0.00000000000E+00 -0.00000000000E+00 -0.30674686332E+04  0.30674686332E+04  0.00000000000E+00 0. -1.
          6    1    1    2  502    0  0.10052151617E+03 -0.39597667916E+02 -0.21611000421E+04  0.21707037896E+04  0.17300000000E+03 0.  1.
         -6    1    1    2    0  501 -0.10052151617E+03  0.39597667916E+02 -0.89003081279E+03  0.91310262196E+03  0.17300000000E+03 0. -1.
</event>
<event>
 4    1  0.1089518E+000  0.1000000E+03  0.7546771E-02  0.1280296E+00
         -2   -1    0    0    0  501 -0.00000000000E+00  0.00000000000E+00  0.19096923528E+03  0.19096923528E+03  0.00000000000E+00 0. -1.
          2   -1    0    0  502    0  0.00000000000E+00 -0.00000000000E+00 -0.21678170558E+03  0.21678170558E+03  0.00000000000E+00 0.  1.
          6    1    1    2  502    0  0.80808350238E+02  0.63740375235E+02  0.16764281519E+02  0.20199719314E+03  0.17300000000E+03 0.  1.
         -6    1    1    2    0  501 -0.80808350238E+02 -0.63740375235E+02 -0.42576751819E+02  0.20575374772E+03  0.17300000000E+03 0. -1.
</event>
<event>
 4    1  0.1089518E+000  0.1000000E+03  0.7546771E-02  0.1280296E+00
         -2   -1    0    0    0  501 -0.00000000000E+00  0.00000000000E+00  0.10312601250E+03  0.10312601250E+03  0.00000000000E+00 0.  1.
          2   -1    0    0  502    0  0.00000000000E+00 -0.00000000000E+00 -0.34474352018E+03  0.34474352018E+03  0.00000000000E+00 0. -1.
          6    1    1    2  502    0 -0.55824326552E+02 -0.22346022674E+01 -0.18021127248E+03  0.25598135012E+03  0.17300000000E+03 0. -1.
         -6    1    1    2    0  501  0.55824326552E+02  0.22346022674E+01 -0.61406235201E+02  0.19188818255E+03  0.17300000000E+03 0.  1.
</event>
<event>
 4    1  0.1089518E+000  0.1000000E+03  0.7546771E-02  0.1280296E+00
         -2   -1    0    0    0  501 -0.00000000000E+00  0.00000000000E+00  0.24050462415E+02  0.24050462415E+02  0.00000000000E+00 0.  1.
          2   -1    0    0  502    0  0.00000000000E+00 -0.00000000000E+00 -0.13516403116E+04  0.13516403116E+04  0.00000000000E+00 0. -1.
          6    1    1    2  502    0 -0.75483708054E+01 -0.35545040367E+02 -0.79911561029E+03  0.81843459507E+03  0.17300000000E+03 0. -1.
         -6    1    1    2    0  501  0.75483708054E+01  0.35545040367E+02 -0.52847423886E+03  0.55725617892E+03  0.17300000000E+03 0.  1.
</event>
<event>
 4    1  0.1089518E+000  0.1000000E+03  0.7546771E-02  0.1280296E+00
          2   -1    0    0  502    0  0.00000000000E+00  0.00000000000E+00  0.26574184226E+03  0.26574184226E+03  0.00000000000E+00 0. -1.
         -2   -1    0    0    0  501 -0.00000000000E+00 -0.00000000000E+00 -0.23438428295E+03  0.23438428295E+03  0.00000000000E+00 0.  1.
          6    1    1    2  502    0 -0.12181249440E+03  0.66087077017E+02  0.13058234184E+03  0.25726743583E+03  0.17300000000E+03 0. -1.
         -6    1    1    2    0  501  0.12181249440E+03 -0.66087077017E+02 -0.99224782520E+02  0.24285868938E+03  0.17300000000E+03 0.  1.
</event>
<event>
 4    1  0.1089518E+000  0.1000000E+03  0.7546771E-02  0.1280296E+00
          2   -1    0    0  502    0  0.00000000000E+00  0.00000000000E+00  0.90655492543E+03  0.90655492543E+03  0.00000000000E+00 0. -1.
         -2   -1    0    0    0  501 -0.00000000000E+00 -0.00000000000E+00 -0.37989193410E+02  0.37989193410E+02  0.00000000000E+00 0.  1.
          6    1    1    2  502    0  0.61879698393E+02 -0.17482878434E+02  0.38496610123E+03  0.42692229645E+03  0.17300000000E+03 0. -1.
         -6    1    1    2    0  501 -0.61879698393E+02  0.17482878434E+02  0.48359963079E+03  0.51762182239E+03  0.17300000000E+03 0.  1.
</event>
<event>
 4    1  0.1089518E+000  0.1000000E+03  0.7546771E-02  0.1280296E+00
         -2   -1    0    0    0  501 -0.00000000000E+00  0.00000000000E+00  0.64502368097E+02  0.64502368097E+02  0.00000000000E+00 0.  1.
          2   -1    0    0  502    0  0.00000000000E+00 -0.00000000000E+00 -0.16378819520E+04  0.16378819520E+04  0.00000000000E+00 0. -1.
          6    1    1    2  502    0  0.15154404520E+03  0.22333764640E+03 -0.64632329052E+03  0.72146247152E+03  0.17300000000E+03 0. -1.
         -6    1    1    2    0  501 -0.15154404520E+03 -0.22333764640E+03 -0.92705629342E+03  0.98092184862E+03  0.17300000000E+03 0.  1.
</event>
<event>
 4    1  0.1089518E+000  0.1000000E+03  0.7546771E-02  0.1280296E+00
         -2   -1    0    0    0  501 -0.00000000000E+00  0.00000000000E+00  0.27472718408E+03  0.27472718408E+03  0.00000000000E+00 0.  1.
          2   -1    0    0  502    0  0.00000000000E+00 -0.00000000000E+00 -0.12273173306E+03  0.12273173306E+03  0.00000000000E+00 0. -1.
          6    1    1    2  502    0 -0.20664351895E+02 -0.41677402168E+02  0.32374020648E+02  0.18204696785E+03  0.17300000000E+03 0. -1.
         -6    1    1    2    0  501  0.20664351895E+02  0.41677402168E+02  0.11962143037E+03  0.21541194929E+03  0.17300000000E+03 0.  1.
</event>
<event>
 4    1  0.1089518E+000  0.1000000E+03  0.7546771E-02  0.1280296E+00
         -2   -1    0    0    0  501 -0.00000000000E+00  0.00000000000E+00  0.47527441473E+02  0.47527441473E+02  0.00000000000E+00 0.  1.
          2   -1    0    0  502    0  0.00000000000E+00 -0.00000000000E+00 -0.89841947092E+03  0.89841947092E+03  0.00000000000E+00 0. -1.
          6    1    1    2  502    0  0.74088412319E+01 -0.15854892201E+02 -0.68098613720E+03  0.70283524925E+03  0.17300000000E+03 0.  1.
         -6    1    1    2    0  501 -0.74088412319E+01  0.15854892201E+02 -0.16990589225E+03  0.24311166315E+03  0.17300000000E+03 0. -1.
</event>
<event>
 4    1  0.1089518E+000  0.1000000E+03  0.7546771E-02  0.1280296E+00
          2   -1    0    0  502    0  0.00000000000E+00  0.00000000000E+00  0.19759808038E+03  0.19759808038E+03  0.00000000000E+00 0. -1.
         -2   -1    0    0    0  501 -0.00000000000E+00 -0.00000000000E+00 -0.22120193671E+03  0.22120193671E+03  0.00000000000E+00 0.  1.
          6    1    1    2  502    0  0.60189414755E+02  0.39705691838E+02  0.80977996196E+02  0.20417086834E+03  0.17300000000E+03 0. -1.
         -6    1    1    2    0  501 -0.60189414755E+02 -0.39705691838E+02 -0.10458185253E+03  0.21462914874E+03  0.17300000000E+03 0.  1.
</event>
<event>
 4    1  0.1089518E+000  0.1000000E+03  0.7546771E-02  0.1280296E+00
         -2   -1    0    0    0  501 -0.00000000000E+00  0.00000000000E+00  0.19536809533E+04  0.19536809533E+04  0.00000000000E+00 0. -1.
          2   -1    0    0  502    0  0.00000000000E+00 -0.00000000000E+00 -0.37782007150E+02  0.37782007150E+02  0.00000000000E+00 0.  1.
          6    1    1    2  502    0 -0.15557187921E+03 -0.12237076653E+03  0.70648265297E+03  0.75380631004E+03  0.17300000000E+03 0.  1.
         -6    1    1    2    0  501  0.15557187921E+03  0.12237076653E+03  0.12094162932E+04  0.12376566504E+04  0.17300000000E+03 0. -1.
</event>
<event>
 4    1  0.1089518E+000  0.1000000E+03  0.7546771E-02  0.1280296E+00
          2   -1    0    0  502    0  0.00000000000E+00  0.00000000000E+00  0.60931944747E+02  0.60931944747E+02  0.00000000000E+00 0. -1.
         -2   -1    0    0    0  501 -0.00000000000E+00 -0.00000000000E+00 -0.98061262253E+03  0.98061262253E+03  0.00000000000E+00 0.  1.
          6    1    1    2  502    0  0.11721619993E+03 -0.43688072353E+02 -0.71347747606E+03  0.74473310255E+03  0.17300000000E+03 0.  1.
         -6    1    1    2    0  501 -0.11721619993E+03  0.43688072353E+02 -0.20620320172E+03  0.29681146473E+03  0.17300000000E+03 0. -1.
</event>
<event>
 4    1  0.1089518E+000  0.1000000E+03  0.7546771E-02  0.1280296E+00
          2   -1    0    0  502    0  0.00000000000E+00  0.00000000000E+00  0.10093088108E+04  0.10093088108E+04  0.00000000000E+00 0. -1.
         -2   -1    0    0    0  501 -0.00000000000E+00 -0.00000000000E+00 -0.34673235306E+02  0.34673235306E+02  0.00000000000E+00 0.  1.
          6    1    1    2  502    0  0.41604003304E+02 -0.38105148876E+02  0.36620038906E+03  0.40891884331E+03  0.17300000000E+03 0.  1.
         -6    1    1    2    0  501 -0.41604003304E+02  0.38105148876E+02  0.60843518642E+03  0.63506320279E+03  0.17300000000E+03 0. -1.
</event>
<event>
 4    1  0.1089518E+000  0.1000000E+03  0.7546771E-02  0.1280296E+00
          1   -1    0    0  502    0  0.00000000000E+00  0.00000000000E+00  0.24287542705E+04  0.24287542705E+04  0.00000000000E+00 0. -1.
         -1   -1    0    0    0  501 -0.00000000000E+00 -0.00000000000E+00 -0.26170157376E+02  0.26170157376E+02  0.00000000000E+00 0.  1.
          6    1    1    2  502    0  0.21292403587E+01 -0.18327888373E+03  0.11719993796E+04  0.11987940726E+04  0.17300000000E+03 0.  1.
         -6    1    1    2    0  501 -0.21292403587E+01  0.18327888373E+03  0.12305847335E+04  0.12561303552E+04  0.17300000000E+03 0. -1.
</event>
<event>
 4    1  0.1089518E+000  0.1000000E+03  0.7546771E-02  0.1280296E+00
          2   -1    0    0  502    0  0.00000000000E+00  0.00000000000E+00  0.12406503460E+04  0.12406503460E+04  0.00000000000E+00 0.  1.
         -2   -1    0    0    0  501 -0.00000000000E+00 -0.00000000000E+00 -0.42429632104E+02  0.42429632104E+02  0.00000000000E+00 0. -1.
          6    1    1    2  502    0 -0.62163948508E+02 -0.13117038623E+02  0.21699558530E+03  0.28469720272E+03  0.17300000000E+03 0.  1.
         -6    1    1    2    0  501  0.62163948508E+02  0.13117038623E+02  0.98122512857E+03  0.99838277536E+03  0.17300000000E+03 0. -1.
</event>
<event>
 4    1  0.1089518E+000  0.1000000E+03  0.7546771E-02  0.1280296E+00
          2   -1    0    0  502    0  0.00000000000E+00  0.00000000000E+00  0.36993439382E+03  0.36993439382E+03  0.00000000000E+00 0.  1.
         -2   -1    0    0    0  501 -0.00000000000E+00 -0.00000000000E+00 -0.35957621097E+03  0.35957621097E+03  0.00000000000E+00 0. -1.
          6    1    1    2  502    0  0.81221768934E+02 -0.24369804919E+03  0.19782481496E+03  0.36749064252E+03  0.17300000000E+03 0.  1.
         -6    1    1    2    0  501 -0.81221768934E+02  0.24369804919E+03 -0.18746663211E+03  0.36201996227E+03  0.17300000000E+03 0. -1.
</event>
<event>
 4    1  0.1089518E+000  0.1000000E+03  0.7546771E-02  0.1280296E+00
          2   -1    0    0  502    0  0.00000000000E+00  0.00000000000E+00  0.48278132134E+02  0.48278132134E+02  0.00000000000E+00 0.  1.
         -2   -1    0    0    0  501 -0.00000000000E+00 -0.00000000000E+00 -0.69573071775E+03  0.69573071775E+03  0.00000000000E+00 0. -1.
          6    1    1    2  502    0  0.49707440494E+02  0.26718792451E+02 -0.36795795464E+03  0.41049577329E+03  0.17300000000E+03 0.  1.
         -6    1    1    2    0  501 -0.49707440494E+02 -0.26718792451E+02 -0.27949463097E+03  0.33351307659E+03  0.17300000000E+03 0. -1.
</event>
<event>
 4    1  0.1089518E+000  0.1000000E+03  0.7546771E-02  0.1280296E+00
         -1   -1    0    0    0  501 -0.00000000000E+00  0.00000000000E+00  0.13860187209E+02  0.13860187209E+02  0.00000000000E+00 0.  1.
          1   -1    0    0  502    0  0.00000000000E+00 -0.00000000000E+00 -0.29852324713E+04  0.29852324713E+04  0.00000000000E+00 0. -1.
          6    1    1    2  502    0 -0.70135805181E+02 -0.56637944071E+02 -0.10609151528E+04  0.10787014644E+04  0.17300000000E+03 0. -1.
         -6    1    1    2    0  501  0.70135805181E+02  0.56637944071E+02 -0.19104571313E+04  0.19203911941E+04  0.17300000000E+03 0.  1.
</event>
<event>
 4    1  0.1089518E+000  0.1000000E+03  0.7546771E-02  0.1280296E+00
         -1   -1    0    0    0  501 -0.00000000000E+00  0.00000000000E+00  0.49093616181E+03  0.49093616181E+03  0.00000000000E+00 0.  1.
          1   -1    0    0  502    0  0.00000000000E+00 -0.00000000000E+00 -0.46320753243E+03  0.46320753243E+03  0.00000000000E+00 0. -1.
          6    1    1    2  502    0  0.67492381468E+02  0.16692564967E+03  0.42030797859E+03  0.48888361697E+03  0.17300000000E+03 0. -1.
         -6    1    1    2    0  501 -0.67492381468E+02 -0.16692564967E+03 -0.39257934922E+03  0.46526007727E+03  0.17300000000E+03 0.  1.
</event>
<event>
 4    1  0.1089518E+000  0.1000000E+03  0.7546771E-02  0.1280296E+00
         -1   -1    0    0    0  501 -0.00000000000E+00  0.00000000000E+00  0.17200538358E+02  0.17200538358E+02  0.00000000000E+00 0.  1.
          1   -1    0    0  502    0  0.00000000000E+00 -0.00000000000E+00 -0.21917308047E+04  0.21917308047E+04  0.00000000000E+00 0. -1.
          6    1    1    2  502    0  0.51683608433E+02  0.46826113519E+02 -0.78061681055E+03  0.80259297605E+03  0.17300000000E+03 0. -1.
         -6    1    1    2    0  501 -0.51683608433E+02 -0.46826113519E+02 -0.13939134558E+04  0.14063383670E+04  0.17300000000E+03 0.  1.
</event>
<event>
 4    1  0.1089518E+000  0.1000000E+03  0.7546771E-02  0.1280296E+00
          2   -1    0    0  502    0  0.00000000000E+00  0.00000000000E+00  0.95872107451E+02  0.95872107451E+02  0.00000000000E+00 0. -1.
         -2   -1    0    0    0  501 -0.00000000000E+00 -0.00000000000E+00 -0.74839742983E+03  0.74839742983E+03  0.00000000000E+00 0.  1.
          6    1    1    2  502    0  0.16284933527E+03 -0.82092984216E+02 -0.47208814397E+03  0.53484145290E+03  0.17300000000E+03 0. -1.
         -6    1    1    2    0  501 -0.16284933527E+03  0.82092984216E+02 -0.18043717840E+03  0.30942808438E+03  0.17300000000E+03 0.  1.
</event>
<event>
 4    1  0.1089518E+000  0.1000000E+03  0.7546771E-02  0.1280296E+00
          2   -1    0    0  502    0  0.00000000000E+00  0.00000000000E+00  0.78675090095E+03  0.78675090095E+03  0.00000000000E+00 0. -1.
         -2   -1    0    0    0  501 -0.00000000000E+00 -0.00000000000E+00 -0.54243963558E+02  0.54243963558E+02  0.00000000000E+00 0.  1.
          6    1    1    2  502    0 -0.15289872051E+02  0.10878145685E+03  0.31316260623E+03  0.37425526514E+03  0.17300000000E+03 0. -1.
         -6    1    1    2    0  501  0.15289872051E+02 -0.10878145685E+03  0.41934433116E+03  0.46673959937E+03  0.17300000000E+03 0.  1.
</event>
<event>
 4    1  0.1089518E+000  0.1000000E+03  0.7546771E-02  0.1280296E+00
         -1   -1    0    0    0  501 -0.00000000000E+00  0.00000000000E+00  0.22305820023E+03  0.22305820023E+03  0.00000000000E+00 0.  1.
          1   -1    0    0  502    0  0.00000000000E+00 -0.00000000000E+00 -0.58048543154E+03  0.58048543154E+03  0.00000000000E+00 0. -1.
          6    1    1    2  502    0  0.92825439492E+02  0.23608845104E+02 -0.51438066027E+03  0.55108112238E+03  0.17300000000E+03 0. -1.
         -6    1    1    2    0  501 -0.92825439492E+02 -0.23608845104E+02  0.15695342896E+03  0.25246250939E+03  0.17300000000E+03 0.  1.
</event>
<event>
 4    1  0.1089518E+000  0.1000000E+03  0.7546771E-02  0.1280296E+00
         -1   -1    0    0    0  501 -0.00000000000E+00  0.00000000000E+00  0.51499337495E+02  0.51499337495E+02  0.00000000000E+00 0.  1.
          1   -1    0    0  502    0  0.00000000000E+00 -0.00000000000E+00 -0.63892540902E+03  0.63892540902E+03  0.00000000000E+00 0. -1.
          6    1    1    2  502    0  0.51839287716E+02  0.71993054085E+01 -0.32295472721E+03  0.37009174211E+03  0.17300000000E+03 0. -1.
         -6    1    1    2    0  501 -0.51839287716E+02 -0.71993054085E+01 -0.26447134432E+03  0.32033300441E+03  0.17300000000E+03 0.  1.
</event>
<event>
 4    1  0.1089518E+000  0.1000000E+03  0.7546771E-02  0.1280296E+00
         -1   -1    0    0    0  501 -0.00000000000E+00  0.00000000000E+00  0.11354558535E+03  0.11354558535E+03  0.00000000000E+00 0. -1.
          1   -1    0    0  502    0  0.00000000000E+00 -0.00000000000E+00 -0.43887165677E+03  0.43887165677E+03  0.00000000000E+00 0.  1.
          6    1    1    2  502    0  0.11673295179E+03  0.48536236339E+02 -0.85188479164E+02  0.23058279479E+03  0.17300000000E+03 0. -1.
         -6    1    1    2    0  501 -0.11673295179E+03 -0.48536236339E+02 -0.24013759226E+03  0.32183444733E+03  0.17300000000E+03 0. -1.
</event>
<event>
 4    1  0.1089518E+000  0.1000000E+03  0.7546771E-02  0.1280296E+00
         -2   -1    0    0    0  501 -0.00000000000E+00  0.00000000000E+00  0.15553924875E+03  0.15553924875E+03  0.00000000000E+00 0. -1.
          2   -1    0    0  502    0  0.00000000000E+00 -0.00000000000E+00 -0.27457050715E+03  0.27457050715E+03  0.00000000000E+00 0.  1.
          6    1    1    2  502    0  0.10585240805E+03 -0.34806740228E+02 -0.39736568783E+02  0.20958109732E+03  0.17300000000E+03 0. -1.
         -6    1    1    2    0  501 -0.10585240805E+03  0.34806740228E+02 -0.79294689611E+02  0.22052865858E+03  0.17300000000E+03 0. -1.
</event>
<event>
 4    1  0.1089518E+000  0.1000000E+03  0.7546771E-02  0.1280296E+00
          1   -1    0    0  502    0  0.00000000000E+00  0.00000000000E+00  0.75544066928E+03  0.75544066928E+03  0.00000000000E+00 0. -1.
         -1   -1    0    0    0  501 -0.00000000000E+00 -0.00000000000E+00 -0.69351153840E+02  0.69351153840E+02  0.00000000000E+00 0.  1.
          6    1    1    2  502    0 -0.42085049494E+02 -0.13522711729E+03  0.43138707284E+03  0.48588201372E+03  0.17300000000E+03 0.  1.
         -6    1    1    2    0  501  0.42085049494E+02  0.13522711729E+03  0.25470244260E+03  0.33890980940E+03  0.17300000000E+03 0. -1.
</event>
<event>
 4    1  0.1089518E+000  0.1000000E+03  0.7546771E-02  0.1280296E+00
          2   -1    0    0  502    0  0.00000000000E+00  0.00000000000E+00  0.13613836671E+04  0.13613836671E+04  0.00000000000E+00 0. -1.
         -2   -1    0    0    0  501 -0.00000000000E+00 -0.00000000000E+00 -0.74522323791E+02  0.74522323791E+02  0.00000000000E+00 0.  1.
          6    1    1    2  502    0 -0.18850909430E+03 -0.36128750416E+02  0.10632129162E+04  0.10941625430E+04  0.17300000000E+03 0.  1.
         -6    1    1    2    0  501  0.18850909430E+03  0.36128750416E+02  0.22364842704E+03  0.34174344787E+03  0.17300000000E+03 0. -1.
</event>
<event>
 4    1  0.1089518E+000  0.1000000E+03  0.7546771E-02  0.1280296E+00
          2   -1    0    0  502    0  0.00000000000E+00  0.00000000000E+00  0.15095567488E+04  0.15095567488E+04  0.00000000000E+00 0. -1.
         -2   -1    0    0    0  501 -0.00000000000E+00 -0.00000000000E+00 -0.10742715022E+03  0.10742715022E+03  0.00000000000E+00 0.  1.
          6    1    1    2  502    0 -0.34381697732E+02 -0.27723148230E+03  0.11684656750E+04  0.12137876377E+04  0.17300000000E+03 0.  1.
         -6    1    1    2    0  501  0.34381697732E+02  0.27723148230E+03  0.23366392359E+03  0.40319626128E+03  0.17300000000E+03 0. -1.
</event>
<event>
 4    1  0.1089518E+000  0.1000000E+03  0.7546771E-02  0.1280296E+00
          4   -1    0    0  502    0  0.00000000000E+00  0.00000000000E+00  0.30696919394E+03  0.30696919394E+03  0.00000000000E+00 0.  1.
         -4   -1    0    0    0  501 -0.00000000000E+00 -0.00000000000E+00 -0.14076106884E+03  0.14076106884E+03  0.00000000000E+00 0. -1.
          6    1    1    2  502    0 -0.67334902530E+02  0.80059194046E+02  0.31042999786E+02  0.20453882635E+03  0.17300000000E+03 0.  1.
         -6    1    1    2    0  501  0.67334902530E+02 -0.80059194046E+02  0.13516512532E+03  0.24319143643E+03  0.17300000000E+03 0. -1.
</event>
<event>
 4    1  0.1089518E+000  0.1000000E+03  0.7546771E-02  0.1280296E+00
          1   -1    0    0  502    0  0.00000000000E+00  0.00000000000E+00  0.18160912187E+03  0.18160912187E+03  0.00000000000E+00 0.  1.
         -1   -1    0    0    0  501 -0.00000000000E+00 -0.00000000000E+00 -0.22879668211E+03  0.22879668211E+03  0.00000000000E+00 0. -1.
          6    1    1    2  502    0 -0.76058145281E+02 -0.17033280947E+02 -0.98573187229E+02  0.21382386996E+03  0.17300000000E+03 0. -1.
         -6    1    1    2    0  501  0.76058145281E+02  0.17033280947E+02  0.51385626982E+02  0.19658193402E+03  0.17300000000E+03 0.  1.
</event>
<event>
 4    1  0.1089518E+000  0.1000000E+03  0.7546771E-02  0.1280296E+00
          2   -1    0    0  502    0  0.00000000000E+00  0.00000000000E+00  0.15768279210E+04  0.15768279210E+04  0.00000000000E+00 0.  1.
         -2   -1    0    0    0  501 -0.00000000000E+00 -0.00000000000E+00 -0.53271662170E+02  0.53271662170E+02  0.00000000000E+00 0. -1.
          6    1    1    2  502    0  0.45584229526E+02 -0.86345676255E+02  0.16829553613E+03  0.26035722627E+03  0.17300000000E+03 0. -1.
         -6    1    1    2    0  501 -0.45584229526E+02  0.86345676255E+02  0.13552607227E+04  0.13697423569E+04  0.17300000000E+03 0.  1.
</event>
<event>
 4    1  0.1089518E+000  0.1000000E+03  0.7546771E-02  0.1280296E+00
          2   -1    0    0  502    0  0.00000000000E+00  0.00000000000E+00  0.23912197527E+03  0.23912197527E+03  0.00000000000E+00 0. -1.
         -2   -1    0    0    0  501 -0.00000000000E+00 -0.00000000000E+00 -0.15522232141E+03  0.15522232141E+03  0.00000000000E+00 0.  1.
          6    1    1    2  502    0  0.60269730998E+02 -0.18150822911E+02 -0.16180493167E+02  0.18480449455E+03  0.17300000000E+03 0.  1.
         -6    1    1    2    0  501 -0.60269730998E+02  0.18150822911E+02  0.10008014703E+03  0.20953980213E+03  0.17300000000E+03 0. -1.
</event>
<event>
 4    1  0.1089518E+000  0.1000000E+03  0.7546771E-02  0.1280296E+00
          1   -1    0    0  502    0  0.00000000000E+00  0.00000000000E+00  0.34403870360E+03  0.34403870360E+03  0.00000000000E+00 0. -1.
         -1   -1    0    0    0  501 -0.00000000000E+00 -0.00000000000E+00 -0.11516239735E+03  0.11516239735E+03  0.00000000000E+00 0.  1.
          6    1    1    2  502    0 -0.68085134005E+02  0.39001365461E+02  0.18301632427E+03  0.26378147571E+03  0.17300000000E+03 0.  1.
         -6    1    1    2    0  501  0.68085134005E+02 -0.39001365461E+02  0.45859981981E+02  0.19541962524E+03  0.17300000000E+03 0. -1.
</event>
<event>
 4    1  0.1089518E+000  0.1000000E+03  0.7546771E-02  0.1280296E+00
          2   -1    0    0  502    0  0.00000000000E+00  0.00000000000E+00  0.14979861764E+04  0.14979861764E+04  0.00000000000E+00 0. -1.
         -2   -1    0    0    0  501 -0.00000000000E+00 -0.00000000000E+00 -0.77369201063E+02  0.77369201063E+02  0.00000000000E+00 0.  1.
          6    1    1    2  502    0  0.10310998181E+03 -0.41428047481E+02  0.13380943999E+04  0.13537996804E+04  0.17300000000E+03 0.  1.
         -6    1    1    2    0  501 -0.10310998181E+03  0.41428047481E+02  0.82522575436E+02  0.22155569711E+03  0.17300000000E+03 0. -1.
</event>
<event>
 4    1  0.1089518E+000  0.1000000E+03  0.7546771E-02  0.1280296E+00
          2   -1    0    0  502    0  0.00000000000E+00  0.00000000000E+00  0.27436458152E+03  0.27436458152E+03  0.00000000000E+00 0.  1.
         -2   -1    0    0    0  501 -0.00000000000E+00 -0.00000000000E+00 -0.15983883555E+03  0.15983883555E+03  0.00000000000E+00 0. -1.
          6    1    1    2  502    0 -0.28927741741E+02 -0.93049677374E+02 -0.11739304588E+02  0.19890165403E+03  0.17300000000E+03 0. -1.
         -6    1    1    2    0  501  0.28927741741E+02  0.93049677374E+02  0.12626505056E+03  0.23530176305E+03  0.17300000000E+03 0.  1.
</event>
<event>
 4    1  0.1089518E+000  0.1000000E+03  0.7546771E-02  0.1280296E+00
          2   -1    0    0  502    0  0.00000000000E+00  0.00000000000E+00  0.79658202419E+03  0.79658202419E+03  0.00000000000E+00 0.  1.
         -2   -1    0    0    0  501 -0.00000000000E+00 -0.00000000000E+00 -0.75968167447E+02  0.75968167447E+02  0.00000000000E+00 0. -1.
          6    1    1    2  502    0 -0.43050486922E+02  0.83329577164E+02  0.98521696379E+02  0.22007427726E+03  0.17300000000E+03 0. -1.
         -6    1    1    2    0  501  0.43050486922E+02 -0.83329577164E+02  0.62209216037E+03  0.65247591438E+03  0.17300000000E+03 0.  1.
</event>
<event>
 4    1  0.1089518E+000  0.1000000E+03  0.7546771E-02  0.1280296E+00
          2   -1    0    0  502    0  0.00000000000E+00  0.00000000000E+00  0.26420473346E+04  0.26420473346E+04  0.00000000000E+00 0.  1.
         -2   -1    0    0    0  501 -0.00000000000E+00 -0.00000000000E+00 -0.15083008090E+02  0.15083008090E+02  0.00000000000E+00 0. -1.
          6    1    1    2  502    0 -0.98406022429E+01  0.75018052104E+01  0.19712450076E+04  0.19788605293E+04  0.17300000000E+03 0. -1.
         -6    1    1    2    0  501  0.98406022429E+01 -0.75018052104E+01  0.65571931898E+03  0.67826981343E+03  0.17300000000E+03 0.  1.
</event>
<event>
 4    1  0.1089518E+000  0.1000000E+03  0.7546771E-02  0.1280296E+00
          2   -1    0    0  502    0  0.00000000000E+00  0.00000000000E+00  0.75721911760E+03  0.75721911760E+03  0.00000000000E+00 0.  1.
         -2   -1    0    0    0  501 -0.00000000000E+00 -0.00000000000E+00 -0.55591639106E+02  0.55591639106E+02  0.00000000000E+00 0. -1.
          6    1    1    2  502    0  0.59162764212E+02  0.38382758950E+02  0.18282260405E+03  0.26139352212E+03  0.17300000000E+03 0. -1.
         -6    1    1    2    0  501 -0.59162764212E+02 -0.38382758950E+02  0.51880487444E+03  0.55141723459E+03  0.17300000000E+03 0.  1.
</event>
<event>
 4    1  0.1089518E+000  0.1000000E+03  0.7546771E-02  0.1280296E+00
         -2   -1    0    0    0  501 -0.00000000000E+00  0.00000000000E+00  0.65033579021E+02  0.65033579021E+02  0.00000000000E+00 0.  1.
          2   -1    0    0  502    0  0.00000000000E+00 -0.00000000000E+00 -0.67752223859E+03  0.67752223859E+03  0.00000000000E+00 0. -1.
          6    1    1    2  502    0  0.30229538683E+02  0.97018200488E+02 -0.19711982581E+03  0.28126781181E+03  0.17300000000E+03 0. -1.
         -6    1    1    2    0  501 -0.30229538683E+02 -0.97018200488E+02 -0.41536883375E+03  0.46128800579E+03  0.17300000000E+03 0.  1.
</event>
<event>
 4    1  0.1089518E+000  0.1000000E+03  0.7546771E-02  0.1280296E+00
         -1   -1    0    0    0  501 -0.00000000000E+00  0.00000000000E+00  0.34060121708E+02  0.34060121708E+02  0.00000000000E+00 0.  1.
          1   -1    0    0  502    0  0.00000000000E+00 -0.00000000000E+00 -0.11183944818E+04  0.11183944818E+04  0.00000000000E+00 0. -1.
          6    1    1    2  502    0 -0.73326952891E+01  0.81200607539E+02 -0.65713392872E+03  0.68439850041E+03  0.17300000000E+03 0.  1.
         -6    1    1    2    0  501  0.73326952891E+01 -0.81200607539E+02 -0.42720043137E+03  0.46805610310E+03  0.17300000000E+03 0. -1.
</event>
<event>
 4    1  0.1089518E+000  0.1000000E+03  0.7546771E-02  0.1280296E+00
         -2   -1    0    0    0  501 -0.00000000000E+00  0.00000000000E+00  0.15246878484E+03  0.15246878484E+03  0.00000000000E+00 0.  1.
          2   -1    0    0  502    0  0.00000000000E+00 -0.00000000000E+00 -0.85137616514E+03  0.85137616514E+03  0.00000000000E+00 0. -1.
          6    1    1    2  502    0  0.19822871238E+03 -0.11554381163E+03 -0.46682780134E+02  0.29112416042E+03  0.17300000000E+03 0.  1.
         -6    1    1    2    0  501 -0.19822871238E+03  0.11554381163E+03 -0.65222460016E+03  0.71272078956E+03  0.17300000000E+03 0. -1.
</event>
<event>
 4    1  0.1089518E+000  0.1000000E+03  0.7546771E-02  0.1280296E+00
         -1   -1    0    0    0  501 -0.00000000000E+00  0.00000000000E+00  0.13459808774E+04  0.13459808774E+04  0.00000000000E+00 0.  1.
          1   -1    0    0  502    0  0.00000000000E+00 -0.00000000000E+00 -0.32115538701E+02  0.32115538701E+02  0.00000000000E+00 0. -1.
          6    1    1    2  502    0 -0.78483911453E+02 -0.78601289747E+02  0.55424665276E+03  0.59114823793E+03  0.17300000000E+03 0.  1.
         -6    1    1    2    0  501  0.78483911453E+02  0.78601289747E+02  0.75961868592E+03  0.78694817816E+03  0.17300000000E+03 0. -1.
</event>
<event>
 4    1  0.1089518E+000  0.1000000E+03  0.7546771E-02  0.1280296E+00
         -2   -1    0    0    0  501 -0.00000000000E+00  0.00000000000E+00  0.21689260372E+03  0.21689260372E+03  0.00000000000E+00 0.  1.
          2   -1    0    0  502    0  0.00000000000E+00 -0.00000000000E+00 -0.63280824202E+03  0.63280824202E+03  0.00000000000E+00 0. -1.
          6    1    1    2  502    0 -0.43919395948E+02 -0.33281290341E+02 -0.57828906289E+03  0.60612193318E+03  0.17300000000E+03 0.  1.
         -6    1    1    2    0  501  0.43919395948E+02  0.33281290341E+02  0.16237342459E+03  0.24357891255E+03  0.17300000000E+03 0. -1.
</event>
<event>
 4    1  0.1089518E+000  0.1000000E+03  0.7546771E-02  0.1280296E+00
         -1   -1    0    0    0  501 -0.00000000000E+00  0.00000000000E+00  0.73712655989E+03  0.73712655989E+03  0.00000000000E+00 0.  1.
          1   -1    0    0  502    0  0.00000000000E+00 -0.00000000000E+00 -0.73380538780E+02  0.73380538780E+02  0.00000000000E+00 0. -1.
          6    1    1    2  502    0 -0.69776432973E+02  0.12295254625E+03  0.21927566094E+03  0.31304455707E+03  0.17300000000E+03 0. -1.
         -6    1    1    2    0  501  0.69776432973E+02 -0.12295254625E+03  0.44447036018E+03  0.49746254161E+03  0.17300000000E+03 0.  1.
</event>
<event>
 4    1  0.1089518E+000  0.1000000E+03  0.7546771E-02  0.1280296E+00
         -2   -1    0    0    0  501 -0.00000000000E+00  0.00000000000E+00  0.49660163819E+03  0.49660163819E+03  0.00000000000E+00 0.  1.
          2   -1    0    0  502    0  0.00000000000E+00 -0.00000000000E+00 -0.10784979703E+04  0.10784979703E+04  0.00000000000E+00 0. -1.
          6    1    1    2  502    0  0.21168786052E+03 -0.13893266611E+03 -0.10060200779E+04  0.10517221274E+04  0.17300000000E+03 0. -1.
         -6    1    1    2    0  501 -0.21168786052E+03  0.13893266611E+03  0.42412374580E+03  0.52337748113E+03  0.17300000000E+03 0.  1.
</event>
<event>
 4    1  0.1089518E+000  0.1000000E+03  0.7546771E-02  0.1280296E+00
         -2   -1    0    0    0  501 -0.00000000000E+00  0.00000000000E+00  0.23285204976E+03  0.23285204976E+03  0.00000000000E+00 0.  1.
          2   -1    0    0  502    0  0.00000000000E+00 -0.00000000000E+00 -0.42085154439E+03  0.42085154439E+03  0.00000000000E+00 0. -1.
          6    1    1    2  502    0  0.16749072701E+03 -0.18661406765E+03 -0.16921331763E+03  0.34848256878E+03  0.17300000000E+03 0. -1.
         -6    1    1    2    0  501 -0.16749072701E+03  0.18661406765E+03 -0.18786177004E+02  0.30522102537E+03  0.17300000000E+03 0.  1.
</event>
<event>
 4    1  0.1089518E+000  0.1000000E+03  0.7546771E-02  0.1280296E+00
         -1   -1    0    0    0  501 -0.00000000000E+00  0.00000000000E+00  0.60050080067E+03  0.60050080067E+03  0.00000000000E+00 0.  1.
          1   -1    0    0  502    0  0.00000000000E+00 -0.00000000000E+00 -0.63566350374E+02  0.63566350374E+02  0.00000000000E+00 0. -1.
          6    1    1    2  502    0  0.70846318441E+02 -0.54935768728E+02  0.29282976286E+03  0.35173201381E+03  0.17300000000E+03 0.  1.
         -6    1    1    2    0  501 -0.70846318441E+02  0.54935768728E+02  0.24410468743E+03  0.31233513723E+03  0.17300000000E+03 0. -1.
</event>
<event>
 4    1  0.1089518E+000  0.1000000E+03  0.7546771E-02  0.1280296E+00
          2   -1    0    0  502    0  0.00000000000E+00  0.00000000000E+00  0.57055206375E+03  0.57055206375E+03  0.00000000000E+00 0. -1.
         -2   -1    0    0    0  501 -0.00000000000E+00 -0.00000000000E+00 -0.13462521044E+03  0.13462521044E+03  0.00000000000E+00 0.  1.
          6    1    1    2  502    0  0.15438617847E+03 -0.11574831703E+03  0.34293089645E+03  0.42984109242E+03  0.17300000000E+03 0. -1.
         -6    1    1    2    0  501 -0.15438617847E+03  0.11574831703E+03  0.92995956858E+02  0.27533618176E+03  0.17300000000E+03 0.  1.
</event>
<event>
 4    1  0.1089518E+000  0.1000000E+03  0.7546771E-02  0.1280296E+00
          1   -1    0    0  502    0  0.00000000000E+00  0.00000000000E+00  0.10384068755E+04  0.10384068755E+04  0.00000000000E+00 0. -1.
         -1   -1    0    0    0  501 -0.00000000000E+00 -0.00000000000E+00 -0.87183984037E+02  0.87183984037E+02  0.00000000000E+00 0.  1.
          6    1    1    2  502    0  0.16060713633E+03  0.13101699504E+03  0.72406137092E+03  0.77275738372E+03  0.17300000000E+03 0. -1.
         -6    1    1    2    0  501 -0.16060713633E+03 -0.13101699504E+03  0.22716152049E+03  0.35283347577E+03  0.17300000000E+03 0.  1.
</event>
<event>
 4    1  0.1089518E+000  0.1000000E+03  0.7546771E-02  0.1280296E+00
         -3   -1    0    0    0  501 -0.00000000000E+00  0.00000000000E+00  0.82537228661E+03  0.82537228661E+03  0.00000000000E+00 0. -1.
          3   -1    0    0  502    0  0.00000000000E+00 -0.00000000000E+00 -0.69524305259E+02  0.69524305259E+02  0.00000000000E+00 0.  1.
          6    1    1    2  502    0  0.10229668725E+03  0.88143327707E+02  0.19856274032E+03  0.29595611209E+03  0.17300000000E+03 0. -1.
         -6    1    1    2    0  501 -0.10229668725E+03 -0.88143327707E+02  0.55728524103E+03  0.59894047978E+03  0.17300000000E+03 0.  1.
</event>
<event>
 4    1  0.1089518E+000  0.1000000E+03  0.7546771E-02  0.1280296E+00
         -1   -1    0    0    0  501 -0.00000000000E+00  0.00000000000E+00  0.10165241332E+03  0.10165241332E+03  0.00000000000E+00 0. -1.
          1   -1    0    0  502    0  0.00000000000E+00 -0.00000000000E+00 -0.10130148802E+04  0.10130148802E+04  0.00000000000E+00 0.  1.
          6    1    1    2  502    0  0.17814464892E+02  0.24345963747E+01  0.12684128723E+02  0.17439371990E+03  0.17300000000E+03 0. -1.
         -6    1    1    2    0  501 -0.17814464892E+02 -0.24345963747E+01 -0.92404659564E+03  0.94027357366E+03  0.17300000000E+03 0.  1.
</event>
<event>
 4    1  0.1089518E+000  0.1000000E+03  0.7546771E-02  0.1280296E+00
         -2   -1    0    0    0  501 -0.00000000000E+00  0.00000000000E+00  0.65198484828E+02  0.65198484828E+02  0.00000000000E+00 0. -1.
          2   -1    0    0  502    0  0.00000000000E+00 -0.00000000000E+00 -0.54539754926E+03  0.54539754926E+03  0.00000000000E+00 0.  1.
          6    1    1    2  502    0  0.57936518983E+02 -0.46133449714E+02 -0.22059346275E+03  0.28995760246E+03  0.17300000000E+03 0. -1.
         -6    1    1    2    0  501 -0.57936518983E+02  0.46133449714E+02 -0.25960560168E+03  0.32063843163E+03  0.17300000000E+03 0.  1.
</event>
<event>
 4    1  0.1089518E+000  0.1000000E+03  0.7546771E-02  0.1280296E+00
         -2   -1    0    0    0  501 -0.00000000000E+00  0.00000000000E+00  0.10105734750E+02  0.10105734750E+02  0.00000000000E+00 0. -1.
          2   -1    0    0  502    0  0.00000000000E+00 -0.00000000000E+00 -0.37820959635E+04  0.37820959635E+04  0.00000000000E+00 0.  1.
          6    1    1    2  502    0 -0.79762009929E+02 -0.19327246225E+01 -0.14603421163E+04  0.14727164731E+04  0.17300000000E+03 0.  1.
         -6    1    1    2    0  501  0.79762009929E+02  0.19327246225E+01 -0.23116481125E+04  0.23194852251E+04  0.17300000000E+03 0. -1.
</event>
<event>
 4    1  0.1089518E+000  0.1000000E+03  0.7546771E-02  0.1280296E+00
         -2   -1    0    0    0  501 -0.00000000000E+00  0.00000000000E+00  0.15220717404E+03  0.15220717404E+03  0.00000000000E+00 0. -1.
          2   -1    0    0  502    0  0.00000000000E+00 -0.00000000000E+00 -0.59235084579E+03  0.59235084579E+03  0.00000000000E+00 0.  1.
          6    1    1    2  502    0  0.24524954396E+02  0.20679548895E+03 -0.59060208887E+02  0.27709737623E+03  0.17300000000E+03 0.  1.
         -6    1    1    2    0  501 -0.24524954396E+02 -0.20679548895E+03 -0.38108346287E+03  0.46746064359E+03  0.17300000000E+03 0. -1.
</event>
<event>
 4    1  0.1089518E+000  0.1000000E+03  0.7546771E-02  0.1280296E+00
         -2   -1    0    0    0  501 -0.00000000000E+00  0.00000000000E+00  0.18066003064E+03  0.18066003064E+03  0.00000000000E+00 0. -1.
          2   -1    0    0  502    0  0.00000000000E+00 -0.00000000000E+00 -0.18185689731E+03  0.18185689731E+03  0.00000000000E+00 0.  1.
          6    1    1    2  502    0  0.32412846972E+02 -0.38396045609E+02 -0.20609131402E+02  0.18132453023E+03  0.17300000000E+03 0.  1.
         -6    1    1    2    0  501 -0.32412846972E+02  0.38396045609E+02  0.19412264727E+02  0.18119239771E+03  0.17300000000E+03 0. -1.
</event>
<event>
 4    1  0.1089518E+000  0.1000000E+03  0.7546771E-02  0.1280296E+00
         -1   -1    0    0    0  501 -0.00000000000E+00  0.00000000000E+00  0.38372900832E+02  0.38372900832E+02  0.00000000000E+00 0. -1.
          1   -1    0    0  502    0  0.00000000000E+00 -0.00000000000E+00 -0.20700790973E+04  0.20700790973E+04  0.00000000000E+00 0.  1.
          6    1    1    2  502    0  0.46150789718E+02  0.14234154338E+03 -0.16317842602E+04  0.16477378075E+04  0.17300000000E+03 0. -1.
         -6    1    1    2    0  501 -0.46150789718E+02 -0.14234154338E+03 -0.39992193631E+03  0.46071419069E+03  0.17300000000E+03 0.  1.
</event>
<event>
 4    1  0.1089518E+000  0.1000000E+03  0.7546771E-02  0.1280296E+00
         -2   -1    0    0    0  501 -0.00000000000E+00  0.00000000000E+00  0.93496121653E+02  0.93496121653E+02  0.00000000000E+00 0. -1.
          2   -1    0    0  502    0  0.00000000000E+00 -0.00000000000E+00 -0.47553982338E+03  0.47553982338E+03  0.00000000000E+00 0.  1.
          6    1    1    2  502    0 -0.72346355759E+01 -0.10413329259E+03 -0.10965749673E+03  0.22989095060E+03  0.17300000000E+03 0. -1.
         -6    1    1    2    0  501  0.72346355759E+01  0.10413329259E+03 -0.27238620500E+03  0.33914499443E+03  0.17300000000E+03 0.  1.
</event>
<event>
 4    1  0.1089518E+000  0.1000000E+03  0.7546771E-02  0.1280296E+00
         -2   -1    0    0    0  501 -0.00000000000E+00  0.00000000000E+00  0.60975233191E+02  0.60975233191E+02  0.00000000000E+00 0. -1.
          2   -1    0    0  502    0  0.00000000000E+00 -0.00000000000E+00 -0.69027684001E+03  0.69027684001E+03  0.00000000000E+00 0.  1.
          6    1    1    2  502    0  0.10902671038E+03 -0.14287895643E+02 -0.29935159779E+03  0.36281034527E+03  0.17300000000E+03 0. -1.
         -6    1    1    2    0  501 -0.10902671038E+03  0.14287895643E+02 -0.32995000903E+03  0.38844172793E+03  0.17300000000E+03 0.  1.
</event>
<event>
 4    1  0.1089518E+000  0.1000000E+03  0.7546771E-02  0.1280296E+00
         -1   -1    0    0    0  501 -0.00000000000E+00  0.00000000000E+00  0.10835096655E+03  0.10835096655E+03  0.00000000000E+00 0. -1.
          1   -1    0    0  502    0  0.00000000000E+00 -0.00000000000E+00 -0.50699191243E+03  0.50699191243E+03  0.00000000000E+00 0.  1.
          6    1    1    2  502    0  0.12478436826E+03 -0.72226592455E+02 -0.28455845663E+03  0.36289162908E+03  0.17300000000E+03 0. -1.
         -6    1    1    2    0  501 -0.12478436826E+03  0.72226592455E+02 -0.11408248926E+03  0.25245124990E+03  0.17300000000E+03 0. -1.
</event>
<event>
 4    1  0.1089518E+000  0.1000000E+03  0.7546771E-02  0.1280296E+00
         -2   -1    0    0    0  501 -0.00000000000E+00  0.00000000000E+00  0.30760134384E+03  0.30760134384E+03  0.00000000000E+00 0. -1.
          2   -1    0    0  502    0  0.00000000000E+00 -0.00000000000E+00 -0.28546159875E+03  0.28546159875E+03  0.00000000000E+00 0.  1.
          6    1    1    2  502    0 -0.78517052994E+02 -0.56678270718E+02  0.23145522825E+03  0.30475871877E+03  0.17300000000E+03 0. -1.
         -6    1    1    2    0  501  0.78517052994E+02  0.56678270718E+02 -0.20931548316E+03  0.28830422382E+03  0.17300000000E+03 0. -1.
</event>
<event>
 4    1  0.1089518E+000  0.1000000E+03  0.7546771E-02  0.1280296E+00
         -2   -1    0    0    0  501 -0.00000000000E+00  0.00000000000E+00  0.41595747302E+03  0.41595747302E+03  0.00000000000E+00 0.  1.
          2   -1    0    0  502    0  0.00000000000E+00 -0.00000000000E+00 -0.11146011594E+03  0.11146011594E+03  0.00000000000E+00 0. -1.
          6    1    1    2  502    0  0.89252266710E+02 -0.89782109266E+02  0.12754450524E+03  0.24944617671E+03  0.17300000000E+03 0.  1.
         -6    1    1    2    0  501 -0.89252266710E+02  0.89782109266E+02  0.17695285184E+03  0.27797141225E+03  0.17300000000E+03 0. -1.
</event>
<event>
 4    1  0.1089518E+000  0.1000000E+03  0.7546771E-02  0.1280296E+00
         -2   -1    0    0    0  501 -0.00000000000E+00  0.00000000000E+00  0.17654709829E+03  0.17654709829E+03  0.00000000000E+00 0.  1.
          2   -1    0    0  502    0  0.00000000000E+00 -0.00000000000E+00 -0.19122347894E+03  0.19122347894E+03  0.00000000000E+00 0. -1.
          6    1    1    2  502    0 -0.14974857167E+02 -0.68085264192E+01  0.52378029497E+02  0.18150223236E+03  0.17300000000E+03 0.  1.
         -6    1    1    2    0  501  0.14974857167E+02  0.68085264192E+01 -0.67054410147E+02  0.18626834487E+03  0.17300000000E+03 0. -1.
</event>
<event>
 4    1  0.1089518E+000  0.1000000E+03  0.7546771E-02  0.1280296E+00
         -2   -1    0    0    0  501 -0.00000000000E+00  0.00000000000E+00  0.14538198380E+03  0.14538198380E+03  0.00000000000E+00 0.  1.
          2   -1    0    0  502    0  0.00000000000E+00 -0.00000000000E+00 -0.34310245312E+03  0.34310245312E+03  0.00000000000E+00 0. -1.
          6    1    1    2  502    0  0.77497436217E+02  0.77484208145E+02 -0.14004195332E+01  0.20479408270E+03  0.17300000000E+03 0.  1.
         -6    1    1    2    0  501 -0.77497436217E+02 -0.77484208145E+02 -0.19632004979E+03  0.28369035423E+03  0.17300000000E+03 0. -1.
</event>
<event>
 4    1  0.1089518E+000  0.1000000E+03  0.7546771E-02  0.1280296E+00
         -1   -1    0    0    0  501 -0.00000000000E+00  0.00000000000E+00  0.16544148303E+03  0.16544148303E+03  0.00000000000E+00 0.  1.
          1   -1    0    0  502    0  0.00000000000E+00 -0.00000000000E+00 -0.27522408084E+03  0.27522408084E+03  0.00000000000E+00 0. -1.
          6    1    1    2  502    0  0.68652240864E+01  0.12275245720E+03 -0.32053754982E+02  0.21464328608E+03  0.17300000000E+03 0. -1.
         -6    1    1    2    0  501 -0.68652240864E+01 -0.12275245720E+03 -0.77728842836E+02  0.22602227779E+03  0.17300000000E+03 0.  1.
</event>
<event>
 4    1  0.1089518E+000  0.1000000E+03  0.7546771E-02  0.1280296E+00
          2   -1    0    0  502    0  0.00000000000E+00  0.00000000000E+00  0.12359652433E+04  0.12359652433E+04  0.00000000000E+00 0.  1.
         -2   -1    0    0    0  501 -0.00000000000E+00 -0.00000000000E+00 -0.56295248941E+02  0.56295248941E+02  0.00000000000E+00 0. -1.
          6    1    1    2  502    0  0.11094636873E+03  0.21336695868E+01  0.18483864710E+03  0.27641992464E+03  0.17300000000E+03 0.  1.
         -6    1    1    2    0  501 -0.11094636873E+03 -0.21336695868E+01  0.99483134728E+03  0.10158405676E+04  0.17300000000E+03 0. -1.
</event>
<event>
 4    1  0.1089518E+000  0.1000000E+03  0.7546771E-02  0.1280296E+00
          2   -1    0    0  502    0  0.00000000000E+00  0.00000000000E+00  0.47961932015E+03  0.47961932015E+03  0.00000000000E+00 0.  1.
         -2   -1    0    0    0  501 -0.00000000000E+00 -0.00000000000E+00 -0.66234358011E+02  0.66234358011E+02  0.00000000000E+00 0. -1.
          6    1    1    2  502    0  0.17542012698E+02 -0.39082449822E+02  0.20939625922E+03  0.27497445967E+03  0.17300000000E+03 0.  1.
         -6    1    1    2    0  501 -0.17542012698E+02  0.39082449822E+02  0.20398870292E+03  0.27087921850E+03  0.17300000000E+03 0. -1.
</event>
<event>
 4    1  0.1089518E+000  0.1000000E+03  0.7546771E-02  0.1280296E+00
          2   -1    0    0  502    0  0.00000000000E+00  0.00000000000E+00  0.12843125756E+04  0.12843125756E+04  0.00000000000E+00 0.  1.
         -2   -1    0    0    0  501 -0.00000000000E+00 -0.00000000000E+00 -0.30477417717E+02  0.30477417717E+02  0.00000000000E+00 0. -1.
          6    1    1    2  502    0 -0.72383641190E+02 -0.62136788830E+02  0.66226405492E+03  0.69110277852E+03  0.17300000000E+03 0.  1.
         -6    1    1    2    0  501  0.72383641190E+02  0.62136788830E+02  0.59157110293E+03  0.62368721476E+03  0.17300000000E+03 0. -1.
</event>
<event>
 4    1  0.1089518E+000  0.1000000E+03  0.7546771E-02  0.1280296E+00
          1   -1    0    0  502    0  0.00000000000E+00  0.00000000000E+00  0.34462278179E+03  0.34462278179E+03  0.00000000000E+00 0. -1.
         -1   -1    0    0    0  501 -0.00000000000E+00 -0.00000000000E+00 -0.13901382419E+03  0.13901382419E+03  0.00000000000E+00 0.  1.
          6    1    1    2  502    0  0.18640168487E+02  0.81409422431E+02 -0.13086933286E+02  0.19254926062E+03  0.17300000000E+03 0. -1.
         -6    1    1    2    0  501 -0.18640168487E+02 -0.81409422431E+02  0.21869589088E+03  0.29108734536E+03  0.17300000000E+03 0.  1.
</event>
<event>
 4    1  0.1089518E+000  0.1000000E+03  0.7546771E-02  0.1280296E+00
          3   -1    0    0  502    0  0.00000000000E+00  0.00000000000E+00  0.16813658498E+03  0.16813658498E+03  0.00000000000E+00 0.  1.
         -3   -1    0    0    0  501 -0.00000000000E+00 -0.00000000000E+00 -0.30476544935E+03  0.30476544935E+03  0.00000000000E+00 0. -1.
          6    1    1    2  502    0 -0.14390101762E+03 -0.30887361169E+01 -0.42810012761E+02  0.22908238770E+03  0.17300000000E+03 0. -1.
         -6    1    1    2    0  501  0.14390101762E+03  0.30887361169E+01 -0.93818851605E+02  0.24381964663E+03  0.17300000000E+03 0.  1.
</event>
<event>
 4    1  0.1089518E+000  0.1000000E+03  0.7546771E-02  0.1280296E+00
          1   -1    0    0  502    0  0.00000000000E+00  0.00000000000E+00  0.16741256086E+03  0.16741256086E+03  0.00000000000E+00 0.  1.
         -1   -1    0    0    0  501 -0.00000000000E+00 -0.00000000000E+00 -0.48543169383E+03  0.48543169383E+03  0.00000000000E+00 0. -1.
          6    1    1    2  502    0 -0.22338467170E+03  0.37887634078E+02 -0.16069966688E+03  0.32724542365E+03  0.17300000000E+03 0. -1.
         -6    1    1    2    0  501  0.22338467170E+03 -0.37887634078E+02 -0.15731946608E+03  0.32559883104E+03  0.17300000000E+03 0.  1.
</event>
<event>
 4    1  0.1089518E+000  0.1000000E+03  0.7546771E-02  0.1280296E+00
          2   -1    0    0  502    0  0.00000000000E+00  0.00000000000E+00  0.44895769557E+03  0.44895769557E+03  0.00000000000E+00 0.  1.
         -2   -1    0    0    0  501 -0.00000000000E+00 -0.00000000000E+00 -0.47320729517E+03  0.47320729517E+03  0.00000000000E+00 0. -1.
          6    1    1    2  502    0  0.28716947402E+03  0.26539500034E+03  0.16004006396E+03  0.45655518296E+03  0.17300000000E+03 0. -1.
         -6    1    1    2    0  501 -0.28716947402E+03 -0.26539500034E+03 -0.18428966355E+03  0.46560980778E+03  0.17300000000E+03 0.  1.
</event>
<event>
 4    1  0.1089518E+000  0.1000000E+03  0.7546771E-02  0.1280296E+00
          2   -1    0    0  502    0  0.00000000000E+00  0.00000000000E+00  0.38260852115E+04  0.38260852115E+04  0.00000000000E+00 0.  1.
         -2   -1    0    0    0  501 -0.00000000000E+00 -0.00000000000E+00 -0.11903363540E+02  0.11903363540E+02  0.00000000000E+00 0. -1.
          6    1    1    2  502    0  0.78386834377E+02  0.55532409745E+02  0.11885129637E+04  0.12048736072E+04  0.17300000000E+03 0.  1.
         -6    1    1    2    0  501 -0.78386834377E+02 -0.55532409745E+02  0.26256688843E+04  0.26331149679E+04  0.17300000000E+03 0. -1.
</event>
<event>
 4    1  0.1089518E+000  0.1000000E+03  0.7546771E-02  0.1280296E+00
          1   -1    0    0  502    0  0.00000000000E+00  0.00000000000E+00  0.21768979852E+04  0.21768979852E+04  0.00000000000E+00 0.  1.
         -1   -1    0    0    0  501 -0.00000000000E+00 -0.00000000000E+00 -0.30188820853E+02  0.30188820853E+02  0.00000000000E+00 0. -1.
          6    1    1    2  502    0  0.37240605039E+02 -0.88902153039E+02  0.37261253392E+03  0.42197103682E+03  0.17300000000E+03 0.  1.
         -6    1    1    2    0  501 -0.37240605039E+02  0.88902153039E+02  0.17740966305E+04  0.17851157693E+04  0.17300000000E+03 0. -1.
</event>
<event>
 4    1  0.1089518E+000  0.1000000E+03  0.7546771E-02  0.1280296E+00
          2   -1    0    0  502    0  0.00000000000E+00  0.00000000000E+00  0.36417175789E+03  0.36417175789E+03  0.00000000000E+00 0.  1.
         -2   -1    0    0    0  501 -0.00000000000E+00 -0.00000000000E+00 -0.17972843583E+03  0.17972843583E+03  0.00000000000E+00 0. -1.
          6    1    1    2  502    0  0.12765466749E+03 -0.12710004240E+03  0.15114683578E+03  0.29193235668E+03  0.17300000000E+03 0.  1.
         -6    1    1    2    0  501 -0.12765466749E+03  0.12710004240E+03  0.33296486286E+02  0.25196783705E+03  0.17300000000E+03 0. -1.
</event>
<event>
 4    1  0.1089518E+000  0.1000000E+03  0.7546771E-02  0.1280296E+00
          3   -1    0    0  502    0  0.00000000000E+00  0.00000000000E+00  0.16125053818E+02  0.16125053818E+02  0.00000000000E+00 0.  1.
         -3   -1    0    0    0  501 -0.00000000000E+00 -0.00000000000E+00 -0.37687617349E+04  0.37687617349E+04  0.00000000000E+00 0. -1.
          6    1    1    2  502    0 -0.14885389059E+03  0.30617846992E+02 -0.25520203879E+04  0.25623879475E+04  0.17300000000E+03 0.  1.
         -6    1    1    2    0  501  0.14885389059E+03 -0.30617846992E+02 -0.12006162932E+04  0.12224988412E+04  0.17300000000E+03 0. -1.
</event>
<event>
 4    1  0.1089518E+000  0.1000000E+03  0.7546771E-02  0.1280296E+00
          1   -1    0    0  502    0  0.00000000000E+00  0.00000000000E+00  0.70993140151E+03  0.70993140151E+03  0.00000000000E+00 0. -1.
         -1   -1    0    0    0  501 -0.00000000000E+00 -0.00000000000E+00 -0.10374689466E+03  0.10374689466E+03  0.00000000000E+00 0.  1.
          6    1    1    2  502    0  0.61268837667E+02  0.15593866922E+03  0.49064864845E+03  0.54656731997E+03  0.17300000000E+03 0. -1.
         -6    1    1    2    0  501 -0.61268837667E+02 -0.15593866922E+03  0.11553585840E+03  0.26711097620E+03  0.17300000000E+03 0.  1.
</event>
<event>
 4    1  0.1089518E+000  0.1000000E+03  0.7546771E-02  0.1280296E+00
          2   -1    0    0  502    0  0.00000000000E+00  0.00000000000E+00  0.41422618562E+03  0.41422618562E+03  0.00000000000E+00 0. -1.
         -2   -1    0    0    0  501 -0.00000000000E+00 -0.00000000000E+00 -0.25709072577E+03  0.25709072577E+03  0.00000000000E+00 0.  1.
          6    1    1    2  502    0 -0.11489115477E+03 -0.18048851705E+02  0.33681763706E+03  0.39610713087E+03  0.17300000000E+03 0. -1.
         -6    1    1    2    0  501  0.11489115477E+03  0.18048851705E+02 -0.17968217720E+03  0.27520978053E+03  0.17300000000E+03 0.  1.
</event>
<event>
 4    1  0.1089518E+000  0.1000000E+03  0.7546771E-02  0.1280296E+00
          2   -1    0    0  502    0  0.00000000000E+00  0.00000000000E+00  0.23003647817E+04  0.23003647817E+04  0.00000000000E+00 0.  1.
         -2   -1    0    0    0  501 -0.00000000000E+00 -0.00000000000E+00 -0.63585039141E+02  0.63585039141E+02  0.00000000000E+00 0. -1.
          6    1    1    2  502    0  0.19532676232E+03  0.16819678566E+03  0.42803879643E+03  0.52876167981E+03  0.17300000000E+03 0.  1.
         -6    1    1    2    0  501 -0.19532676232E+03 -0.16819678566E+03  0.18087409461E+04  0.18351881410E+04  0.17300000000E+03 0.  1.
</event>
<event>
 4    1  0.1089518E+000  0.1000000E+03  0.7546771E-02  0.1280296E+00
          2   -1    0    0  502    0  0.00000000000E+00  0.00000000000E+00  0.27449710487E+04  0.27449710487E+04  0.00000000000E+00 0.  1.
         -2   -1    0    0    0  501 -0.00000000000E+00 -0.00000000000E+00 -0.22954688717E+02  0.22954688717E+02  0.00000000000E+00 0. -1.
          6    1    1    2  502    0  0.13699432190E+03 -0.11848013965E+03  0.14525984624E+04  0.14740340161E+04  0.17300000000E+03 0.  1.
         -6    1    1    2    0  501 -0.13699432190E+03  0.11848013965E+03  0.12694178976E+04  0.12938917213E+04  0.17300000000E+03 0.  1.
</event>
<event>
 4    1  0.1089518E+000  0.1000000E+03  0.7546771E-02  0.1280296E+00
          1   -1    0    0  502    0  0.00000000000E+00  0.00000000000E+00  0.73607789836E+02  0.73607789836E+02  0.00000000000E+00 0. -1.
         -1   -1    0    0    0  501 -0.00000000000E+00 -0.00000000000E+00 -0.89128925990E+03  0.89128925990E+03  0.00000000000E+00 0.  1.
          6    1    1    2  502    0  0.16473726508E+03  0.13880132686E+01 -0.58286935766E+03  0.62992537748E+03  0.17300000000E+03 0. -1.
         -6    1    1    2    0  501 -0.16473726508E+03 -0.13880132686E+01 -0.23481211240E+03  0.33497167226E+03  0.17300000000E+03 0.  1.
</event>
<event>
 4    1  0.1089518E+000  0.1000000E+03  0.7546771E-02  0.1280296E+00
          1   -1    0    0  502    0  0.00000000000E+00  0.00000000000E+00  0.15766898290E+04  0.15766898290E+04  0.00000000000E+00 0. -1.
         -1   -1    0    0    0  501 -0.00000000000E+00 -0.00000000000E+00 -0.27512434739E+02  0.27512434739E+02  0.00000000000E+00 0.  1.
          6    1    1    2  502    0  0.48969688225E+02 -0.81530887910E+01  0.11782275406E+04  0.11918949789E+04  0.17300000000E+03 0. -1.
         -6    1    1    2    0  501 -0.48969688225E+02  0.81530887910E+01  0.37094985360E+03  0.41230728481E+03  0.17300000000E+03 0.  1.
</event>
<event>
 4    1  0.1089518E+000  0.1000000E+03  0.7546771E-02  0.1280296E+00
          2   -1    0    0  502    0  0.00000000000E+00  0.00000000000E+00  0.14289608214E+04  0.14289608214E+04  0.00000000000E+00 0. -1.
         -2   -1    0    0    0  501 -0.00000000000E+00 -0.00000000000E+00 -0.56525058323E+02  0.56525058323E+02  0.00000000000E+00 0.  1.
          6    1    1    2  502    0 -0.90177014456E+02  0.11938081621E+03  0.11270983796E+04  0.11500710546E+04  0.17300000000E+03 0.  1.
         -6    1    1    2    0  501  0.90177014456E+02 -0.11938081621E+03  0.24533738347E+03  0.33541482517E+03  0.17300000000E+03 0. -1.
</event>
<event>
 4    1  0.1089518E+000  0.1000000E+03  0.7546771E-02  0.1280296E+00
          2   -1    0    0  502    0  0.00000000000E+00  0.00000000000E+00  0.90206939751E+03  0.90206939751E+03  0.00000000000E+00 0. -1.
         -2   -1    0    0    0  501 -0.00000000000E+00 -0.00000000000E+00 -0.62036551124E+02  0.62036551124E+02  0.00000000000E+00 0.  1.
          6    1    1    2  502    0  0.12525331176E+03 -0.89690380292E+02  0.51773325189E+03  0.56719439043E+03  0.17300000000E+03 0. -1.
         -6    1    1    2    0  501 -0.12525331176E+03  0.89690380292E+02  0.32229959450E+03  0.39691155821E+03  0.17300000000E+03 0. -1.
</event>
<event>
 4    1  0.1089518E+000  0.1000000E+03  0.7546771E-02  0.1280296E+00
          2   -1    0    0  502    0  0.00000000000E+00  0.00000000000E+00  0.12690838886E+04  0.12690838886E+04  0.00000000000E+00 0. -1.
         -2   -1    0    0    0  501 -0.00000000000E+00 -0.00000000000E+00 -0.37010984268E+02  0.37010984268E+02  0.00000000000E+00 0.  1.
          6    1    1    2  502    0  0.98466085502E+02 -0.83272538800E+01  0.87306685183E+03  0.89551082680E+03  0.17300000000E+03 0. -1.
         -6    1    1    2    0  501 -0.98466085502E+02  0.83272538800E+01  0.35900605249E+03  0.41058404605E+03  0.17300000000E+03 0. -1.
</event>
<event>
 4    1  0.1089518E+000  0.1000000E+03  0.7546771E-02  0.1280296E+00
          1   -1    0    0  502    0  0.00000000000E+00  0.00000000000E+00  0.61976994448E+02  0.61976994448E+02  0.00000000000E+00 0. -1.
         -1   -1    0    0    0  501 -0.00000000000E+00 -0.00000000000E+00 -0.96920138132E+03  0.96920138132E+03  0.00000000000E+00 0.  1.
          6    1    1    2  502    0 -0.20284236448E+01  0.52154851914E+02 -0.80192963945E+03  0.82203673258E+03  0.17300000000E+03 0. -1.
         -6    1    1    2    0  501  0.20284236448E+01 -0.52154851914E+02 -0.10529474742E+03  0.20914164319E+03  0.17300000000E+03 0. -1.
</event>
<event>
 4    1  0.1089518E+000  0.1000000E+03  0.7546771E-02  0.1280296E+00
          1   -1    0    0  502    0  0.00000000000E+00  0.00000000000E+00  0.14279102877E+04  0.14279102877E+04  0.00000000000E+00 0. -1.
         -1   -1    0    0    0  501 -0.00000000000E+00 -0.00000000000E+00 -0.22599366344E+02  0.22599366344E+02  0.00000000000E+00 0.  1.
          6    1    1    2  502    0  0.18639281316E+02 -0.19545360996E+02  0.54058759372E+03  0.56823708998E+03  0.17300000000E+03 0. -1.
         -6    1    1    2    0  501 -0.18639281316E+02  0.19545360996E+02  0.86472332763E+03  0.88227256406E+03  0.17300000000E+03 0. -1.
</event>
<event>
 4    1  0.1089518E+000  0.1000000E+03  0.7546771E-02  0.1280296E+00
         -1   -1    0    0    0  501 -0.00000000000E+00  0.00000000000E+00  0.13000591090E+03  0.13000591090E+03  0.00000000000E+00 0.  1.
          1   -1    0    0  502    0  0.00000000000E+00 -0.00000000000E+00 -0.87622846200E+03  0.87622846200E+03  0.00000000000E+00 0. -1.
          6    1    1    2  502    0  0.23768119996E+03  0.16370904445E+03 -0.41234923993E+03  0.53221602730E+03  0.17300000000E+03 0. -1.
         -6    1    1    2    0  501 -0.23768119996E+03 -0.16370904445E+03 -0.33387331117E+03  0.47401834560E+03  0.17300000000E+03 0.  1.
</event>
<event>
 4    1  0.1089518E+000  0.1000000E+03  0.7546771E-02  0.1280296E+00
          1   -1    0    0  502    0  0.00000000000E+00  0.00000000000E+00  0.40287209723E+03  0.40287209723E+03  0.00000000000E+00 0. -1.
         -1   -1    0    0    0  501 -0.00000000000E+00 -0.00000000000E+00 -0.12218313472E+03  0.12218313472E+03  0.00000000000E+00 0.  1.
          6    1    1    2  502    0  0.11763720494E+03 -0.26840184930E+00  0.52937424242E+02  0.21580072963E+03  0.17300000000E+03 0. -1.
         -6    1    1    2    0  501 -0.11763720494E+03  0.26840184930E+00  0.22775153826E+03  0.30925450232E+03  0.17300000000E+03 0.  1.
</event>
<event>
 4    1  0.1089518E+000  0.1000000E+03  0.7546771E-02  0.1280296E+00
          1   -1    0    0  502    0  0.00000000000E+00  0.00000000000E+00  0.51786379123E+03  0.51786379123E+03  0.00000000000E+00 0. -1.
         -1   -1    0    0    0  501 -0.00000000000E+00 -0.00000000000E+00 -0.15339649341E+03  0.15339649341E+03  0.00000000000E+00 0.  1.
          6    1    1    2  502    0 -0.20708400480E+03 -0.55837654334E+02  0.11170482317E+03  0.29733583068E+03  0.17300000000E+03 0. -1.
         -6    1    1    2    0  501  0.20708400480E+03  0.55837654334E+02  0.25276247465E+03  0.37392445397E+03  0.17300000000E+03 0.  1.
</event>
<event>
 4    1  0.1089518E+000  0.1000000E+03  0.7546771E-02  0.1280296E+00
          1   -1    0    0  502    0  0.00000000000E+00  0.00000000000E+00  0.30967331565E+04  0.30967331565E+04  0.00000000000E+00 0. -1.
         -1   -1    0    0    0  501 -0.00000000000E+00 -0.00000000000E+00 -0.13174597391E+02  0.13174597391E+02  0.00000000000E+00 0.  1.
          6    1    1    2  502    0  0.65009049213E+01 -0.36512134844E+02  0.79168246480E+03  0.81121237838E+03  0.17300000000E+03 0.  1.
         -6    1    1    2    0  501 -0.65009049213E+01  0.36512134844E+02  0.22918760943E+04  0.22986953755E+04  0.17300000000E+03 0. -1.
</event>
<event>
 4    1  0.1089518E+000  0.1000000E+03  0.7546771E-02  0.1280296E+00
          1   -1    0    0  502    0  0.00000000000E+00  0.00000000000E+00  0.68629466636E+03  0.68629466636E+03  0.00000000000E+00 0. -1.
         -1   -1    0    0    0  501 -0.00000000000E+00 -0.00000000000E+00 -0.26070366114E+03  0.26070366114E+03  0.00000000000E+00 0.  1.
          6    1    1    2  502    0 -0.13888824752E+03 -0.23628968973E+03  0.51703656692E+03  0.61022829687E+03  0.17300000000E+03 0.  1.
         -6    1    1    2    0  501  0.13888824752E+03  0.23628968973E+03 -0.91445561701E+02  0.33677003063E+03  0.17300000000E+03 0. -1.
</event>
<event>
 4    1  0.1089518E+000  0.1000000E+03  0.7546771E-02  0.1280296E+00
         -2   -1    0    0    0  501 -0.00000000000E+00  0.00000000000E+00  0.76588685122E+02  0.76588685122E+02  0.00000000000E+00 0.  1.
          2   -1    0    0  502    0  0.00000000000E+00 -0.00000000000E+00 -0.13644724512E+04  0.13644724512E+04  0.00000000000E+00 0. -1.
          6    1    1    2  502    0 -0.15658766780E+03  0.14291517622E+03 -0.26027758652E+03  0.37764780860E+03  0.17300000000E+03 0. -1.
         -6    1    1    2    0  501  0.15658766780E+03 -0.14291517622E+03 -0.10276061795E+04  0.10634133277E+04  0.17300000000E+03 0. -1.
</event>
<event>
 4    1  0.1089518E+000  0.1000000E+03  0.7546771E-02  0.1280296E+00
         -1   -1    0    0    0  501 -0.00000000000E+00  0.00000000000E+00  0.91855278921E+02  0.91855278921E+02  0.00000000000E+00 0.  1.
          1   -1    0    0  502    0  0.00000000000E+00 -0.00000000000E+00 -0.52275241042E+03  0.52275241042E+03  0.00000000000E+00 0. -1.
          6    1    1    2  502    0  0.58341222819E+02 -0.12055569364E+03 -0.23269250588E+03  0.31939344991E+03  0.17300000000E+03 0. -1.
         -6    1    1    2    0  501 -0.58341222819E+02  0.12055569364E+03 -0.19820462561E+03  0.29521423943E+03  0.17300000000E+03 0. -1.
</event>
<event>
 4    1  0.1089518E+000  0.1000000E+03  0.7546771E-02  0.1280296E+00
          1   -1    0    0  502    0  0.00000000000E+00  0.00000000000E+00  0.10539948189E+04  0.10539948189E+04  0.00000000000E+00 0.  1.
         -1   -1    0    0    0  501 -0.00000000000E+00 -0.00000000000E+00 -0.60643256494E+02  0.60643256494E+02  0.00000000000E+00 0. -1.
          6    1    1    2  502    0 -0.16411096809E+03  0.83023114112E+02  0.46849452376E+03  0.53220425225E+03  0.17300000000E+03 0.  1.
         -6    1    1    2    0  501  0.16411096809E+03 -0.83023114112E+02  0.52485703864E+03  0.58243382313E+03  0.17300000000E+03 0. -1.
</event>
<event>
 4    1  0.1089518E+000  0.1000000E+03  0.7546771E-02  0.1280296E+00
          1   -1    0    0  502    0  0.00000000000E+00  0.00000000000E+00  0.15250270356E+04  0.15250270356E+04  0.00000000000E+00 0.  1.
         -1   -1    0    0    0  501 -0.00000000000E+00 -0.00000000000E+00 -0.34621247552E+02  0.34621247552E+02  0.00000000000E+00 0. -1.
          6    1    1    2  502    0 -0.13959287452E+03 -0.39429488952E+02  0.89032449058E+03  0.91850288717E+03  0.17300000000E+03 0.  1.
         -6    1    1    2    0  501  0.13959287452E+03  0.39429488952E+02  0.60008129744E+03  0.64114539596E+03  0.17300000000E+03 0. -1.
</event>
<event>
 4    1  0.1089518E+000  0.1000000E+03  0.7546771E-02  0.1280296E+00
          1   -1    0    0  502    0  0.00000000000E+00  0.00000000000E+00  0.56885678292E+03  0.56885678292E+03  0.00000000000E+00 0.  1.
         -1   -1    0    0    0  501 -0.00000000000E+00 -0.00000000000E+00 -0.94541344851E+02  0.94541344851E+02  0.00000000000E+00 0. -1.
          6    1    1    2  502    0  0.10691392635E+03 -0.11078028524E+03  0.21972041506E+03  0.31923176540E+03  0.17300000000E+03 0.  1.
         -6    1    1    2    0  501 -0.10691392635E+03  0.11078028524E+03  0.25459502301E+03  0.34416636237E+03  0.17300000000E+03 0. -1.
</event>
<event>
 4    1  0.1089518E+000  0.1000000E+03  0.7546771E-02  0.1280296E+00
         -2   -1    0    0    0  501 -0.00000000000E+00  0.00000000000E+00  0.48185740061E+02  0.48185740061E+02  0.00000000000E+00 0.  1.
          2   -1    0    0  502    0  0.00000000000E+00 -0.00000000000E+00 -0.18704707842E+04  0.18704707842E+04  0.00000000000E+00 0. -1.
          6    1    1    2  502    0  0.23469356280E+03  0.67247504400E+02 -0.83301883047E+03  0.88512861619E+03  0.17300000000E+03 0.  1.
         -6    1    1    2    0  501 -0.23469356280E+03 -0.67247504400E+02 -0.98926621363E+03  0.10335279080E+04  0.17300000000E+03 0.  1.
</event>
<event>
 4    1  0.1089518E+000  0.1000000E+03  0.7546771E-02  0.1280296E+00
         -1   -1    0    0    0  501 -0.00000000000E+00  0.00000000000E+00  0.25106211709E+02  0.25106211709E+02  0.00000000000E+00 0.  1.
          1   -1    0    0  502    0  0.00000000000E+00 -0.00000000000E+00 -0.13985933298E+04  0.13985933298E+04  0.00000000000E+00 0. -1.
          6    1    1    2  502    0 -0.46930162864E+02  0.48527885312E+02 -0.78186543253E+03  0.80361679327E+03  0.17300000000E+03 0. -1.
         -6    1    1    2    0  501  0.46930162864E+02 -0.48527885312E+02 -0.59162168557E+03  0.62008274825E+03  0.17300000000E+03 0.  1.
</event>
<event>
 4    1  0.1089518E+000  0.1000000E+03  0.7546771E-02  0.1280296E+00
         -2   -1    0    0    0  501 -0.00000000000E+00  0.00000000000E+00  0.26185089542E+02  0.26185089542E+02  0.00000000000E+00 0.  1.
          2   -1    0    0  502    0  0.00000000000E+00 -0.00000000000E+00 -0.12586515144E+04  0.12586515144E+04  0.00000000000E+00 0. -1.
          6    1    1    2  502    0  0.24753306897E+02  0.35531713307E+02 -0.49604008698E+03  0.52712427069E+03  0.17300000000E+03 0. -1.
         -6    1    1    2    0  501 -0.24753306897E+02 -0.35531713307E+02 -0.73642633792E+03  0.75771233330E+03  0.17300000000E+03 0.  1.
</event>
<event>
 4    1  0.1089518E+000  0.1000000E+03  0.7546771E-02  0.1280296E+00
         -2   -1    0    0    0  501 -0.00000000000E+00  0.00000000000E+00  0.18096401789E+03  0.18096401789E+03  0.00000000000E+00 0.  1.
          2   -1    0    0  502    0  0.00000000000E+00 -0.00000000000E+00 -0.45380916213E+03  0.45380916213E+03  0.00000000000E+00 0. -1.
          6    1    1    2  502    0 -0.14865559711E+03  0.16105713201E+03 -0.20782390094E+03  0.34807708935E+03  0.17300000000E+03 0.  1.
         -6    1    1    2    0  501  0.14865559711E+03 -0.16105713201E+03 -0.65021243296E+02  0.28669609067E+03  0.17300000000E+03 0. -1.
</event>
<event>
 4    1  0.1089518E+000  0.1000000E+03  0.7546771E-02  0.1280296E+00
         -1   -1    0    0    0  501 -0.00000000000E+00  0.00000000000E+00  0.12308585389E+03  0.12308585389E+03  0.00000000000E+00 0.  1.
          1   -1    0    0  502    0  0.00000000000E+00 -0.00000000000E+00 -0.68106970868E+03  0.68106970868E+03  0.00000000000E+00 0. -1.
          6    1    1    2  502    0  0.14225165072E+03 -0.25749976675E+02 -0.53127222399E+03  0.57712890190E+03  0.17300000000E+03 0.  1.
         -6    1    1    2    0  501 -0.14225165072E+03  0.25749976675E+02 -0.26711630806E+02  0.22702666066E+03  0.17300000000E+03 0. -1.
</event>
<event>
 4    1  0.1089518E+000  0.1000000E+03  0.7546771E-02  0.1280296E+00
         -2   -1    0    0    0  501 -0.00000000000E+00  0.00000000000E+00  0.39986916554E+03  0.39986916554E+03  0.00000000000E+00 0.  1.
          2   -1    0    0  502    0  0.00000000000E+00 -0.00000000000E+00 -0.81662370446E+02  0.81662370446E+02  0.00000000000E+00 0. -1.
          6    1    1    2  502    0  0.14205826909E+02  0.50224210781E+02  0.16042711855E+03  0.24164051240E+03  0.17300000000E+03 0.  1.
         -6    1    1    2    0  501 -0.14205826909E+02 -0.50224210781E+02  0.15777967654E+03  0.23989102358E+03  0.17300000000E+03 0. -1.
</event>
<event>
 4    1  0.1089518E+000  0.1000000E+03  0.7546771E-02  0.1280296E+00
         -2   -1    0    0    0  501 -0.00000000000E+00  0.00000000000E+00  0.46686410844E+02  0.46686410844E+02  0.00000000000E+00 0.  1.
          2   -1    0    0  502    0  0.00000000000E+00 -0.00000000000E+00 -0.11172644479E+04  0.11172644479E+04  0.00000000000E+00 0. -1.
          6    1    1    2  502    0  0.63888962594E+02 -0.42171653022E+02 -0.86133577604E+03  0.88186652445E+03  0.17300000000E+03 0. -1.
         -6    1    1    2    0  501 -0.63888962594E+02  0.42171653022E+02 -0.20924226102E+03  0.28208433430E+03  0.17300000000E+03 0.  1.
</event>
<event>
 4    1  0.1089518E+000  0.1000000E+03  0.7546771E-02  0.1280296E+00
          1   -1    0    0  502    0  0.00000000000E+00  0.00000000000E+00  0.57674363201E+02  0.57674363201E+02  0.00000000000E+00 0. -1.
         -1   -1    0    0    0  501 -0.00000000000E+00 -0.00000000000E+00 -0.67842841633E+03  0.67842841633E+03  0.00000000000E+00 0.  1.
          6    1    1    2  502    0  0.52915740992E+02 -0.31082913622E+02 -0.17323421350E+03  0.25239912023E+03  0.17300000000E+03 0.  1.
         -6    1    1    2    0  501 -0.52915740992E+02  0.31082913622E+02 -0.44751983963E+03  0.48370365931E+03  0.17300000000E+03 0. -1.
</event>
<event>
 4    1  0.1089518E+000  0.1000000E+03  0.7546771E-02  0.1280296E+00
          1   -1    0    0  502    0  0.00000000000E+00  0.00000000000E+00  0.96284880532E+03  0.96284880532E+03  0.00000000000E+00 0.  1.
         -1   -1    0    0    0  501 -0.00000000000E+00 -0.00000000000E+00 -0.26863418647E+03  0.26863418647E+03  0.00000000000E+00 0. -1.
          6    1    1    2  502    0 -0.60911354996E+02 -0.87551320076E+02  0.91154789742E+03  0.93392933143E+03  0.17300000000E+03 0.  1.
         -6    1    1    2    0  501  0.60911354996E+02  0.87551320076E+02 -0.21733327858E+03  0.29755366036E+03  0.17300000000E+03 0. -1.
</event>
<event>
 4    1  0.1089518E+000  0.1000000E+03  0.7546771E-02  0.1280296E+00
         -2   -1    0    0    0  501 -0.00000000000E+00  0.00000000000E+00  0.78445517168E+02  0.78445517168E+02  0.00000000000E+00 0.  1.
          2   -1    0    0  502    0  0.00000000000E+00 -0.00000000000E+00 -0.10925457279E+04  0.10925457279E+04  0.00000000000E+00 0. -1.
          6    1    1    2  502    0  0.13884204896E+03  0.11309664035E+03 -0.19910703127E+03  0.31881118945E+03  0.17300000000E+03 0. -1.
         -6    1    1    2    0  501 -0.13884204896E+03 -0.11309664035E+03 -0.81499317951E+03  0.85218005566E+03  0.17300000000E+03 0.  1.
</event>
<event>
 4    1  0.1089518E+000  0.1000000E+03  0.7546771E-02  0.1280296E+00
         -2   -1    0    0    0  501 -0.00000000000E+00  0.00000000000E+00  0.17156292952E+02  0.17156292952E+02  0.00000000000E+00 0.  1.
          2   -1    0    0  502    0  0.00000000000E+00 -0.00000000000E+00 -0.31982762863E+04  0.31982762863E+04  0.00000000000E+00 0. -1.
          6    1    1    2  502    0  0.87372108081E+02 -0.12166434916E+03 -0.12470147577E+04  0.12678370972E+04  0.17300000000E+03 0. -1.
         -6    1    1    2    0  501 -0.87372108081E+02  0.12166434916E+03 -0.19341052357E+04  0.19475954821E+04  0.17300000000E+03 0.  1.
</event>
<event>
 4    1  0.1089518E+000  0.1000000E+03  0.7546771E-02  0.1280296E+00
         -2   -1    0    0    0  501 -0.00000000000E+00  0.00000000000E+00  0.42463104517E+02  0.42463104517E+02  0.00000000000E+00 0.  1.
          2   -1    0    0  502    0  0.00000000000E+00 -0.00000000000E+00 -0.11339025757E+04  0.11339025757E+04  0.00000000000E+00 0. -1.
          6    1    1    2  502    0 -0.10810649053E+03 -0.33824080780E+02 -0.34894453831E+03  0.40561357540E+03  0.17300000000E+03 0. -1.
         -6    1    1    2    0  501  0.10810649053E+03  0.33824080780E+02 -0.74249493292E+03  0.77075210486E+03  0.17300000000E+03 0.  1.
</event>
<event>
 4    1  0.1089518E+000  0.1000000E+03  0.7546771E-02  0.1280296E+00
         -2   -1    0    0    0  501 -0.00000000000E+00  0.00000000000E+00  0.12496728067E+03  0.12496728067E+03  0.00000000000E+00 0.  1.
          2   -1    0    0  502    0  0.00000000000E+00 -0.00000000000E+00 -0.10965787559E+04  0.10965787559E+04  0.00000000000E+00 0. -1.
          6    1    1    2  502    0  0.16793269751E+03 -0.18732095951E+03 -0.14043721382E+03  0.33606865934E+03  0.17300000000E+03 0. -1.
         -6    1    1    2    0  501 -0.16793269751E+03  0.18732095951E+03 -0.83117426144E+03  0.88547737726E+03  0.17300000000E+03 0.  1.
</event>
<event>
 4    1  0.1089518E+000  0.1000000E+03  0.7546771E-02  0.1280296E+00
          2   -1    0    0  502    0  0.00000000000E+00  0.00000000000E+00  0.21444139729E+04  0.21444139729E+04  0.00000000000E+00 0.  1.
         -2   -1    0    0    0  501 -0.00000000000E+00 -0.00000000000E+00 -0.20849581367E+02  0.20849581367E+02  0.00000000000E+00 0. -1.
          6    1    1    2  502    0 -0.14754044570E+01  0.16526414158E+02  0.44511741656E+03  0.47784287554E+03  0.17300000000E+03 0. -1.
         -6    1    1    2    0  501  0.14754044570E+01 -0.16526414158E+02  0.16784469750E+04  0.16874206787E+04  0.17300000000E+03 0.  1.
</event>
<event>
 4    1  0.1089518E+000  0.1000000E+03  0.7546771E-02  0.1280296E+00
         -1   -1    0    0    0  501 -0.00000000000E+00  0.00000000000E+00  0.12523397929E+03  0.12523397929E+03  0.00000000000E+00 0.  1.
          1   -1    0    0  502    0  0.00000000000E+00 -0.00000000000E+00 -0.39625412592E+03  0.39625412592E+03  0.00000000000E+00 0. -1.
          6    1    1    2  502    0  0.48907330563E+02 -0.94442298451E+02 -0.28334108987E+02  0.20504413294E+03  0.17300000000E+03 0. -1.
         -6    1    1    2    0  501 -0.48907330563E+02  0.94442298451E+02 -0.24268603764E+03  0.31644397227E+03  0.17300000000E+03 0.  1.
</event>
<event>
 4    1  0.1089518E+000  0.1000000E+03  0.7546771E-02  0.1280296E+00
         -1   -1    0    0    0  501 -0.00000000000E+00  0.00000000000E+00  0.96717279332E+02  0.96717279332E+02  0.00000000000E+00 0.  1.
          1   -1    0    0  502    0  0.00000000000E+00 -0.00000000000E+00 -0.44554263902E+03  0.44554263902E+03  0.00000000000E+00 0. -1.
          6    1    1    2  502    0  0.78973185957E+02  0.44593593364E+02 -0.82637247422E+02  0.21209259141E+03  0.17300000000E+03 0. -1.
         -6    1    1    2    0  501 -0.78973185957E+02 -0.44593593364E+02 -0.26618811227E+03  0.33016732695E+03  0.17300000000E+03 0.  1.
</event>
<event>
 4    1  0.1089518E+000  0.1000000E+03  0.7546771E-02  0.1280296E+00
         -2   -1    0    0    0  501 -0.00000000000E+00  0.00000000000E+00  0.12977578171E+03  0.12977578171E+03  0.00000000000E+00 0.  1.
          2   -1    0    0  502    0  0.00000000000E+00 -0.00000000000E+00 -0.31058539767E+03  0.31058539767E+03  0.00000000000E+00 0. -1.
          6    1    1    2  502    0 -0.57755987010E+02  0.81650609149E+02 -0.11163929328E+03  0.22889933992E+03  0.17300000000E+03 0. -1.
         -6    1    1    2    0  501  0.57755987010E+02 -0.81650609149E+02 -0.69170322683E+02  0.21146183947E+03  0.17300000000E+03 0.  1.
</event>
<event>
 4    1  0.1089518E+000  0.1000000E+03  0.7546771E-02  0.1280296E+00
          2   -1    0    0  502    0  0.00000000000E+00  0.00000000000E+00  0.27622103218E+04  0.27622103218E+04  0.00000000000E+00 0.  1.
         -2   -1    0    0    0  501 -0.00000000000E+00 -0.00000000000E+00 -0.11848968384E+02  0.11848968384E+02  0.00000000000E+00 0. -1.
          6    1    1    2  502    0  0.50857901544E+01 -0.52481867880E+02  0.13407813156E+04  0.13529241472E+04  0.17300000000E+03 0. -1.
         -6    1    1    2    0  501 -0.50857901544E+01  0.52481867880E+02  0.14095800378E+04  0.14211351430E+04  0.17300000000E+03 0.  1.
</event>
<event>
 4    1  0.1089518E+000  0.1000000E+03  0.7546771E-02  0.1280296E+00
          2   -1    0    0  502    0  0.00000000000E+00  0.00000000000E+00  0.10392041090E+04  0.10392041090E+04  0.00000000000E+00 0. -1.
         -2   -1    0    0    0  501 -0.00000000000E+00 -0.00000000000E+00 -0.60554755117E+02  0.60554755117E+02  0.00000000000E+00 0.  1.
          6    1    1    2  502    0 -0.68187787141E+02  0.13667540514E+03  0.70487882046E+03  0.74169595672E+03  0.17300000000E+03 0. -1.
         -6    1    1    2    0  501  0.68187787141E+02 -0.13667540514E+03  0.27377053345E+03  0.35806290742E+03  0.17300000000E+03 0.  1.
</event>
<event>
 4    1  0.1089518E+000  0.1000000E+03  0.7546771E-02  0.1280296E+00
          2   -1    0    0  502    0  0.00000000000E+00  0.00000000000E+00  0.78238072349E+03  0.78238072349E+03  0.00000000000E+00 0. -1.
         -2   -1    0    0    0  501 -0.00000000000E+00 -0.00000000000E+00 -0.58888943575E+02  0.58888943575E+02  0.00000000000E+00 0.  1.
          6    1    1    2  502    0 -0.51579545485E+02  0.10680956236E+03  0.45103046698E+03  0.49741955557E+03  0.17300000000E+03 0. -1.
         -6    1    1    2    0  501  0.51579545485E+02 -0.10680956236E+03  0.27246131294E+03  0.34385011149E+03  0.17300000000E+03 0.  1.
</event>
<event>
 4    1  0.1089518E+000  0.1000000E+03  0.7546771E-02  0.1280296E+00
         -1   -1    0    0    0  501 -0.00000000000E+00  0.00000000000E+00  0.41387873906E+03  0.41387873906E+03  0.00000000000E+00 0.  1.
          1   -1    0    0  502    0  0.00000000000E+00 -0.00000000000E+00 -0.40120925998E+03  0.40120925998E+03  0.00000000000E+00 0. -1.
          6    1    1    2  502    0  0.18421512606E+03  0.15651034395E+01  0.32603775017E+03  0.41251336554E+03  0.17300000000E+03 0. -1.
         -6    1    1    2    0  501 -0.18421512606E+03 -0.15651034395E+01 -0.31336827109E+03  0.40257463351E+03  0.17300000000E+03 0.  1.
</event>
<event>
 4    1  0.1089518E+000  0.1000000E+03  0.7546771E-02  0.1280296E+00
         -2   -1    0    0    0  501 -0.00000000000E+00  0.00000000000E+00  0.84252782457E+02  0.84252782457E+02  0.00000000000E+00 0.  1.
          2   -1    0    0  502    0  0.00000000000E+00 -0.00000000000E+00 -0.63577128584E+03  0.63577128584E+03  0.00000000000E+00 0. -1.
          6    1    1    2  502    0 -0.14662132795E+03 -0.24144922893E+02 -0.21440585925E+03  0.31301703402E+03  0.17300000000E+03 0. -1.
         -6    1    1    2    0  501  0.14662132795E+03  0.24144922893E+02 -0.33711264413E+03  0.40700703427E+03  0.17300000000E+03 0.  1.
</event>
<event>
 4    1  0.1089518E+000  0.1000000E+03  0.7546771E-02  0.1280296E+00
         -1   -1    0    0    0  501 -0.00000000000E+00  0.00000000000E+00  0.15500578324E+03  0.15500578324E+03  0.00000000000E+00 0. -1.
          1   -1    0    0  502    0  0.00000000000E+00 -0.00000000000E+00 -0.61075894884E+03  0.61075894884E+03  0.00000000000E+00 0.  1.
          6    1    1    2  502    0 -0.11883960345E+03  0.18196377960E+03 -0.63219288454E+02  0.28488479578E+03  0.17300000000E+03 0.  1.
         -6    1    1    2    0  501  0.11883960345E+03 -0.18196377960E+03 -0.39253387714E+03  0.48087993630E+03  0.17300000000E+03 0. -1.
</event>
<event>
 4    1  0.1089518E+000  0.1000000E+03  0.7546771E-02  0.1280296E+00
          2   -1    0    0  502    0  0.00000000000E+00  0.00000000000E+00  0.17636757476E+03  0.17636757476E+03  0.00000000000E+00 0.  1.
         -2   -1    0    0    0  501 -0.00000000000E+00 -0.00000000000E+00 -0.30803964164E+03  0.30803964164E+03  0.00000000000E+00 0. -1.
          6    1    1    2  502    0  0.61600073392E+02  0.12121966835E+03 -0.14572326649E+03  0.26391863790E+03  0.17300000000E+03 0.  1.
         -6    1    1    2    0  501 -0.61600073392E+02 -0.12121966835E+03  0.14051199614E+02  0.22048857850E+03  0.17300000000E+03 0. -1.
</event>
<event>
 4    1  0.1089518E+000  0.1000000E+03  0.7546771E-02  0.1280296E+00
          1   -1    0    0  502    0  0.00000000000E+00  0.00000000000E+00  0.56118132048E+03  0.56118132048E+03  0.00000000000E+00 0.  1.
         -1   -1    0    0    0  501 -0.00000000000E+00 -0.00000000000E+00 -0.98345370955E+02  0.98345370955E+02  0.00000000000E+00 0. -1.
          6    1    1    2  502    0  0.74623303594E+02  0.14027370575E+03  0.23689692694E+03  0.33360830918E+03  0.17300000000E+03 0.  1.
         -6    1    1    2    0  501 -0.74623303594E+02 -0.14027370575E+03  0.22593902259E+03  0.32591838225E+03  0.17300000000E+03 0. -1.
</event>
<event>
 4    1  0.1089518E+000  0.1000000E+03  0.7546771E-02  0.1280296E+00
          1   -1    0    0  502    0  0.00000000000E+00  0.00000000000E+00  0.62716682744E+03  0.62716682744E+03  0.00000000000E+00 0.  1.
         -1   -1    0    0    0  501 -0.00000000000E+00 -0.00000000000E+00 -0.98582030689E+02  0.98582030689E+02  0.00000000000E+00 0. -1.
          6    1    1    2  502    0  0.16095984245E+03 -0.63222031450E+02  0.32944780488E+03  0.41032907803E+03  0.17300000000E+03 0.  1.
         -6    1    1    2    0  501 -0.16095984245E+03  0.63222031450E+02  0.19913699187E+03  0.31541978009E+03  0.17300000000E+03 0. -1.
</event>
<event>
 4    1  0.1089518E+000  0.1000000E+03  0.7546771E-02  0.1280296E+00
         -2   -1    0    0    0  501 -0.00000000000E+00  0.00000000000E+00  0.47504846913E+02  0.47504846913E+02  0.00000000000E+00 0. -1.
          2   -1    0    0  502    0  0.00000000000E+00 -0.00000000000E+00 -0.17447532998E+04  0.17447532998E+04  0.00000000000E+00 0.  1.
          6    1    1    2  502    0 -0.11264227405E+03  0.74174834193E+02 -0.14289956548E+04  0.14457343357E+04  0.17300000000E+03 0.  1.
         -6    1    1    2    0  501  0.11264227405E+03 -0.74174834193E+02 -0.26825279809E+03  0.34652381104E+03  0.17300000000E+03 0. -1.
</event>
<event>
 4    1  0.1089518E+000  0.1000000E+03  0.7546771E-02  0.1280296E+00
         -2   -1    0    0    0  501 -0.00000000000E+00  0.00000000000E+00  0.79610923042E+02  0.79610923042E+02  0.00000000000E+00 0. -1.
          2   -1    0    0  502    0  0.00000000000E+00 -0.00000000000E+00 -0.94759359429E+03  0.94759359429E+03  0.00000000000E+00 0.  1.
          6    1    1    2  502    0  0.10557886815E+03  0.71943396820E+02 -0.11452533463E+03  0.24365508823E+03  0.17300000000E+03 0.  1.
         -6    1    1    2    0  501 -0.10557886815E+03 -0.71943396820E+02 -0.75345733662E+03  0.78354942911E+03  0.17300000000E+03 0. -1.
</event>
<event>
 4    1  0.1089518E+000  0.1000000E+03  0.7546771E-02  0.1280296E+00
          2   -1    0    0  502    0  0.00000000000E+00  0.00000000000E+00  0.60302035885E+03  0.60302035885E+03  0.00000000000E+00 0. -1.
         -2   -1    0    0    0  501 -0.00000000000E+00 -0.00000000000E+00 -0.21205001467E+03  0.21205001467E+03  0.00000000000E+00 0.  1.
          6    1    1    2  502    0  0.28966377656E+03  0.79104392096E+02  0.29600185816E+03  0.45575070854E+03  0.17300000000E+03 0. -1.
         -6    1    1    2    0  501 -0.28966377656E+03 -0.79104392096E+02  0.94968486019E+02  0.35931966497E+03  0.17300000000E+03 0.  1.
</event>
<event>
 4    1  0.1089518E+000  0.1000000E+03  0.7546771E-02  0.1280296E+00
          1   -1    0    0  502    0  0.00000000000E+00  0.00000000000E+00  0.89239205952E+03  0.89239205952E+03  0.00000000000E+00 0. -1.
         -1   -1    0    0    0  501 -0.00000000000E+00 -0.00000000000E+00 -0.59767897756E+02  0.59767897756E+02  0.00000000000E+00 0.  1.
          6    1    1    2  502    0 -0.13476811130E+03 -0.13149916616E+02  0.26950090252E+03  0.34769972762E+03  0.17300000000E+03 0.  1.
         -6    1    1    2    0  501  0.13476811130E+03  0.13149916616E+02  0.56312325924E+03  0.60446022965E+03  0.17300000000E+03 0. -1.
</event>
<event>
 4    1  0.1089518E+000  0.1000000E+03  0.7546771E-02  0.1280296E+00
          1   -1    0    0  502    0  0.00000000000E+00  0.00000000000E+00  0.13790175412E+04  0.13790175412E+04  0.00000000000E+00 0. -1.
         -1   -1    0    0    0  501 -0.00000000000E+00 -0.00000000000E+00 -0.27141873050E+02  0.27141873050E+02  0.00000000000E+00 0.  1.
          6    1    1    2  502    0  0.63751041424E+02 -0.58480960418E+02  0.66144636859E+03  0.68914767397E+03  0.17300000000E+03 0.  1.
         -6    1    1    2    0  501 -0.63751041424E+02  0.58480960418E+02  0.69042929960E+03  0.71701174032E+03  0.17300000000E+03 0. -1.
</event>
<event>
 4    1  0.1089518E+000  0.1000000E+03  0.7546771E-02  0.1280296E+00
          2   -1    0    0  502    0  0.00000000000E+00  0.00000000000E+00  0.28705848619E+03  0.28705848619E+03  0.00000000000E+00 0. -1.
         -2   -1    0    0    0  501 -0.00000000000E+00 -0.00000000000E+00 -0.16137780034E+03  0.16137780034E+03  0.00000000000E+00 0.  1.
          6    1    1    2  502    0  0.10798453091E+03  0.36060320250E+02  0.17857593399E+01  0.20710672261E+03  0.17300000000E+03 0.  1.
         -6    1    1    2    0  501 -0.10798453091E+03 -0.36060320250E+02  0.12389492651E+03  0.24132956393E+03  0.17300000000E+03 0. -1.
</event>
<event>
 4    1  0.1089518E+000  0.1000000E+03  0.7546771E-02  0.1280296E+00
          2   -1    0    0  502    0  0.00000000000E+00  0.00000000000E+00  0.23989843433E+04  0.23989843433E+04  0.00000000000E+00 0. -1.
         -2   -1    0    0    0  501 -0.00000000000E+00 -0.00000000000E+00 -0.13548179862E+02  0.13548179862E+02  0.00000000000E+00 0.  1.
          6    1    1    2  502    0 -0.49791500841E+02 -0.78544235269E+01  0.11548766188E+04  0.11688498151E+04  0.17300000000E+03 0.  1.
         -6    1    1    2    0  501  0.49791500841E+02  0.78544235269E+01  0.12305595446E+04  0.12436827081E+04  0.17300000000E+03 0. -1.
</event>
<event>
 4    1  0.1089518E+000  0.1000000E+03  0.7546771E-02  0.1280296E+00
         -2   -1    0    0    0  501 -0.00000000000E+00  0.00000000000E+00  0.65690530067E+02  0.65690530067E+02  0.00000000000E+00 0. -1.
          2   -1    0    0  502    0  0.00000000000E+00 -0.00000000000E+00 -0.12303862449E+04  0.12303862449E+04  0.00000000000E+00 0.  1.
          6    1    1    2  502    0  0.52384275037E+02 -0.11183579927E+03 -0.10127000948E+04  0.10347665632E+04  0.17300000000E+03 0.  1.
         -6    1    1    2    0  501 -0.52384275037E+02  0.11183579927E+03 -0.15199562001E+03  0.26131021176E+03  0.17300000000E+03 0. -1.
</event>
<event>
 4    1  0.1089518E+000  0.1000000E+03  0.7546771E-02  0.1280296E+00
         -1   -1    0    0    0  501 -0.00000000000E+00  0.00000000000E+00  0.26490428539E+02  0.26490428539E+02  0.00000000000E+00 0.  1.
          1   -1    0    0  502    0  0.00000000000E+00 -0.00000000000E+00 -0.13080525456E+04  0.13080525456E+04  0.00000000000E+00 0. -1.
          6    1    1    2  502    0  0.30946901592E+02 -0.35637901102E+02 -0.81980147613E+03  0.83918486103E+03  0.17300000000E+03 0. -1.
         -6    1    1    2    0  501 -0.30946901592E+02  0.35637901102E+02 -0.46176064095E+03  0.49535811313E+03  0.17300000000E+03 0.  1.
</event>
<event>
 4    1  0.1089518E+000  0.1000000E+03  0.7546771E-02  0.1280296E+00
         -2   -1    0    0    0  501 -0.00000000000E+00  0.00000000000E+00  0.29368138415E+02  0.29368138415E+02  0.00000000000E+00 0.  1.
          2   -1    0    0  502    0  0.00000000000E+00 -0.00000000000E+00 -0.12374383774E+04  0.12374383774E+04  0.00000000000E+00 0. -1.
          6    1    1    2  502    0 -0.67231498591E+02  0.12867102084E+02 -0.46597149063E+03  0.50174103560E+03  0.17300000000E+03 0. -1.
         -6    1    1    2    0  501  0.67231498591E+02 -0.12867102084E+02 -0.74209874838E+03  0.76506548025E+03  0.17300000000E+03 0.  1.
</event>
<event>
 4    1  0.1089518E+000  0.1000000E+03  0.7546771E-02  0.1280296E+00
         -1   -1    0    0    0  501 -0.00000000000E+00  0.00000000000E+00  0.96216621067E+03  0.96216621067E+03  0.00000000000E+00 0.  1.
          1   -1    0    0  502    0  0.00000000000E+00 -0.00000000000E+00 -0.33919905778E+02  0.33919905778E+02  0.00000000000E+00 0. -1.
          6    1    1    2  502    0  0.26948918643E+02 -0.34224138761E+02  0.54258721469E+03  0.57116321786E+03  0.17300000000E+03 0. -1.
         -6    1    1    2    0  501 -0.26948918643E+02  0.34224138761E+02  0.38565909019E+03  0.42492289858E+03  0.17300000000E+03 0.  1.
</event>
<event>
 4    1  0.1089518E+000  0.1000000E+03  0.7546771E-02  0.1280296E+00
         -1   -1    0    0    0  501 -0.00000000000E+00  0.00000000000E+00  0.42739719271E+02  0.42739719271E+02  0.00000000000E+00 0.  1.
          1   -1    0    0  502    0  0.00000000000E+00 -0.00000000000E+00 -0.93460605590E+03  0.93460605590E+03  0.00000000000E+00 0. -1.
          6    1    1    2  502    0 -0.73552792710E+02  0.41935276899E+02 -0.31546679029E+03  0.36961720271E+03  0.17300000000E+03 0. -1.
         -6    1    1    2    0  501  0.73552792710E+02 -0.41935276899E+02 -0.57639954634E+03  0.60772857246E+03  0.17300000000E+03 0.  1.
</event>
<event>
 4    1  0.1089518E+000  0.1000000E+03  0.7546771E-02  0.1280296E+00
         -1   -1    0    0    0  501 -0.00000000000E+00  0.00000000000E+00  0.25863839281E+03  0.25863839281E+03  0.00000000000E+00 0.  1.
          1   -1    0    0  502    0  0.00000000000E+00 -0.00000000000E+00 -0.22283771897E+03  0.22283771897E+03  0.00000000000E+00 0. -1.
          6    1    1    2  502    0  0.15352672462E+03  0.64191824667E+02  0.14102480663E+02  0.24045566220E+03  0.17300000000E+03 0. -1.
         -6    1    1    2    0  501 -0.15352672462E+03 -0.64191824667E+02  0.21698193181E+02  0.24102044957E+03  0.17300000000E+03 0.  1.
</event>
<event>
 4    1  0.1089518E+000  0.1000000E+03  0.7546771E-02  0.1280296E+00
         -2   -1    0    0    0  501 -0.00000000000E+00  0.00000000000E+00  0.86835016778E+02  0.86835016778E+02  0.00000000000E+00 0.  1.
          2   -1    0    0  502    0  0.00000000000E+00 -0.00000000000E+00 -0.47063843392E+03  0.47063843392E+03  0.00000000000E+00 0. -1.
          6    1    1    2  502    0  0.41616699334E+02 -0.78641234502E+02 -0.26770471207E+03  0.33092477437E+03  0.17300000000E+03 0. -1.
         -6    1    1    2    0  501 -0.41616699334E+02  0.78641234502E+02 -0.11609870508E+03  0.22654867633E+03  0.17300000000E+03 0.  1.
</event>
<event>
 4    1  0.1089518E+000  0.1000000E+03  0.7546771E-02  0.1280296E+00
         -2   -1    0    0    0  501 -0.00000000000E+00  0.00000000000E+00  0.63358889836E+02  0.63358889836E+02  0.00000000000E+00 0.  1.
          2   -1    0    0  502    0  0.00000000000E+00 -0.00000000000E+00 -0.13033859358E+04  0.13033859358E+04  0.00000000000E+00 0. -1.
          6    1    1    2  502    0 -0.24318398095E+01 -0.72754949960E+02 -0.10253731176E+03  0.21387402108E+03  0.17300000000E+03 0. -1.
         -6    1    1    2    0  501  0.24318398095E+01  0.72754949960E+02 -0.11374897342E+04  0.11528708046E+04  0.17300000000E+03 0.  1.
</event>
<event>
 4    1  0.1089518E+000  0.1000000E+03  0.7546771E-02  0.1280296E+00
         -2   -1    0    0    0  501 -0.00000000000E+00  0.00000000000E+00  0.17320661996E+03  0.17320661996E+03  0.00000000000E+00 0.  1.
          2   -1    0    0  502    0  0.00000000000E+00 -0.00000000000E+00 -0.18366789147E+03  0.18366789147E+03  0.00000000000E+00 0. -1.
          6    1    1    2  502    0  0.22009022392E+02 -0.14771117393E+02 -0.39609805518E+02  0.17944503244E+03  0.17300000000E+03 0. -1.
         -6    1    1    2    0  501 -0.22009022392E+02  0.14771117393E+02  0.29148534007E+02  0.17742947898E+03  0.17300000000E+03 0.  1.
</event>
<event>
 4    1  0.1089518E+000  0.1000000E+03  0.7546771E-02  0.1280296E+00
          2   -1    0    0  502    0  0.00000000000E+00  0.00000000000E+00  0.26035283267E+04  0.26035283267E+04  0.00000000000E+00 0.  1.
         -2   -1    0    0    0  501 -0.00000000000E+00 -0.00000000000E+00 -0.20440187653E+02  0.20440187653E+02  0.00000000000E+00 0. -1.
          6    1    1    2  502    0 -0.12644689880E+03 -0.77925634699E+02  0.14907115411E+04  0.15080487796E+04  0.17300000000E+03 0.  1.
         -6    1    1    2    0  501  0.12644689880E+03  0.77925634699E+02  0.10923765980E+04  0.11159197348E+04  0.17300000000E+03 0. -1.
</event>
<event>
 4    1  0.1089518E+000  0.1000000E+03  0.7546771E-02  0.1280296E+00
         -2   -1    0    0    0  501 -0.00000000000E+00  0.00000000000E+00  0.54135855743E+02  0.54135855743E+02  0.00000000000E+00 0. -1.
          2   -1    0    0  502    0  0.00000000000E+00 -0.00000000000E+00 -0.77176392875E+03  0.77176392875E+03  0.00000000000E+00 0.  1.
          6    1    1    2  502    0 -0.76963023653E+02 -0.56406004366E+02 -0.25294346735E+03  0.32095847397E+03  0.17300000000E+03 0. -1.
         -6    1    1    2    0  501  0.76963023653E+02  0.56406004366E+02 -0.46468460566E+03  0.50494131052E+03  0.17300000000E+03 0.  1.
</event>
<event>
 4    1  0.1089518E+000  0.1000000E+03  0.7546771E-02  0.1280296E+00
         -2   -1    0    0    0  501 -0.00000000000E+00  0.00000000000E+00  0.21925577776E+03  0.21925577776E+03  0.00000000000E+00 0. -1.
          2   -1    0    0  502    0  0.00000000000E+00 -0.00000000000E+00 -0.29157656702E+03  0.29157656702E+03  0.00000000000E+00 0.  1.
          6    1    1    2  502    0 -0.12957028750E+03 -0.47442048587E+02  0.87401953969E+02  0.23792290544E+03  0.17300000000E+03 0. -1.
         -6    1    1    2    0  501  0.12957028750E+03  0.47442048587E+02 -0.15972274323E+03  0.27290943934E+03  0.17300000000E+03 0.  1.
</event>
<event>
 4    1  0.1089518E+000  0.1000000E+03  0.7546771E-02  0.1280296E+00
         -1   -1    0    0    0  501 -0.00000000000E+00  0.00000000000E+00  0.35900344607E+04  0.35900344607E+04  0.00000000000E+00 0. -1.
          1   -1    0    0  502    0  0.00000000000E+00 -0.00000000000E+00 -0.10135128131E+02  0.10135128131E+02  0.00000000000E+00 0.  1.
          6    1    1    2  502    0  0.13040532503E+02  0.66770838574E+02  0.21934316273E+04  0.22012950062E+04  0.17300000000E+03 0.  1.
         -6    1    1    2    0  501 -0.13040532503E+02 -0.66770838574E+02  0.13864677052E+04  0.13988745827E+04  0.17300000000E+03 0. -1.
</event>
<event>
 4    1  0.1089518E+000  0.1000000E+03  0.7546771E-02  0.1280296E+00
         -2   -1    0    0    0  501 -0.00000000000E+00  0.00000000000E+00  0.43099377735E+02  0.43099377735E+02  0.00000000000E+00 0. -1.
          2   -1    0    0  502    0  0.00000000000E+00 -0.00000000000E+00 -0.92830777975E+03  0.92830777975E+03  0.00000000000E+00 0.  1.
          6    1    1    2  502    0 -0.93862524964E+01 -0.60563309511E+02 -0.24949546243E+03  0.30973053122E+03  0.17300000000E+03 0.  1.
         -6    1    1    2    0  501  0.93862524964E+01  0.60563309511E+02 -0.63571293958E+03  0.66167662627E+03  0.17300000000E+03 0. -1.
</event>
<event>
 4    1  0.1089518E+000  0.1000000E+03  0.7546771E-02  0.1280296E+00
         -1   -1    0    0    0  501 -0.00000000000E+00  0.00000000000E+00  0.19546743792E+03  0.19546743792E+03  0.00000000000E+00 0. -1.
          1   -1    0    0  502    0  0.00000000000E+00 -0.00000000000E+00 -0.19371123470E+03  0.19371123470E+03  0.00000000000E+00 0.  1.
          6    1    1    2  502    0 -0.41451753494E+02  0.70261904766E+02  0.36659125706E+02  0.19475080135E+03  0.17300000000E+03 0.  1.
         -6    1    1    2    0  501  0.41451753494E+02 -0.70261904766E+02 -0.34902922477E+02  0.19442787127E+03  0.17300000000E+03 0. -1.
</event>
<event>
 4    1  0.1089518E+000  0.1000000E+03  0.7546771E-02  0.1280296E+00
          2   -1    0    0  502    0  0.00000000000E+00  0.00000000000E+00  0.91487620847E+03  0.91487620847E+03  0.00000000000E+00 0.  1.
         -2   -1    0    0    0  501 -0.00000000000E+00 -0.00000000000E+00 -0.74602221089E+02  0.74602221089E+02  0.00000000000E+00 0. -1.
          6    1    1    2  502    0  0.40911217340E+02 -0.21630534846E+02  0.78035109457E+03  0.80063627106E+03  0.17300000000E+03 0. -1.
         -6    1    1    2    0  501 -0.40911217340E+02  0.21630534846E+02  0.59922892806E+02  0.18884215849E+03  0.17300000000E+03 0. -1.
</event>
<event>
 4    1  0.1089518E+000  0.1000000E+03  0.7546771E-02  0.1280296E+00
          2   -1    0    0  502    0  0.00000000000E+00  0.00000000000E+00  0.57748595969E+03  0.57748595969E+03  0.00000000000E+00 0.  1.
         -2   -1    0    0    0  501 -0.00000000000E+00 -0.00000000000E+00 -0.12798924390E+03  0.12798924390E+03  0.00000000000E+00 0. -1.
          6    1    1    2  502    0 -0.16424045516E+03 -0.12975161225E+03  0.20770348549E+03  0.34187738428E+03  0.17300000000E+03 0. -1.
         -6    1    1    2    0  501  0.16424045516E+03  0.12975161225E+03  0.24179323030E+03  0.36359781932E+03  0.17300000000E+03 0. -1.
</event>
<event>
 4    1  0.1089518E+000  0.1000000E+03  0.7546771E-02  0.1280296E+00
          2   -1    0    0  502    0  0.00000000000E+00  0.00000000000E+00  0.26152050644E+03  0.26152050644E+03  0.00000000000E+00 0.  1.
         -2   -1    0    0    0  501 -0.00000000000E+00 -0.00000000000E+00 -0.27864948412E+03  0.27864948412E+03  0.00000000000E+00 0. -1.
          6    1    1    2  502    0  0.17628718322E+03 -0.22171886423E+02  0.98141837510E+02  0.26670130068E+03  0.17300000000E+03 0.  1.
         -6    1    1    2    0  501 -0.17628718322E+03  0.22171886423E+02 -0.11527081519E+03  0.27346868989E+03  0.17300000000E+03 0. -1.
</event>
<event>
 4    1  0.1089518E+000  0.1000000E+03  0.7546771E-02  0.1280296E+00
          2   -1    0    0  502    0  0.00000000000E+00  0.00000000000E+00  0.25878379487E+04  0.25878379487E+04  0.00000000000E+00 0.  1.
         -2   -1    0    0    0  501 -0.00000000000E+00 -0.00000000000E+00 -0.17354913227E+02  0.17354913227E+02  0.00000000000E+00 0. -1.
          6    1    1    2  502    0 -0.19451220893E+02 -0.31932108829E+02  0.56884239763E+03  0.59574212786E+03  0.17300000000E+03 0.  1.
         -6    1    1    2    0  501  0.19451220893E+02  0.31932108829E+02  0.20016406379E+04  0.20094507341E+04  0.17300000000E+03 0. -1.
</event>
<event>
 4    1  0.1089518E+000  0.1000000E+03  0.7546771E-02  0.1280296E+00
          2   -1    0    0  502    0  0.00000000000E+00  0.00000000000E+00  0.23424654996E+03  0.23424654996E+03  0.00000000000E+00 0.  1.
         -2   -1    0    0    0  501 -0.00000000000E+00 -0.00000000000E+00 -0.20363058798E+03  0.20363058798E+03  0.00000000000E+00 0. -1.
          6    1    1    2  502    0 -0.12948386265E+03  0.18813775095E+02  0.40880050440E+02  0.22072654427E+03  0.17300000000E+03 0.  1.
         -6    1    1    2    0  501  0.12948386265E+03 -0.18813775095E+02 -0.10264088462E+02  0.21715059367E+03  0.17300000000E+03 0. -1.
</event>
<event>
 4    1  0.1089518E+000  0.1000000E+03  0.7546771E-02  0.1280296E+00
          1   -1    0    0  502    0  0.00000000000E+00  0.00000000000E+00  0.14252276714E+03  0.14252276714E+03  0.00000000000E+00 0. -1.
         -1   -1    0    0    0  501 -0.00000000000E+00 -0.00000000000E+00 -0.41681761298E+03  0.41681761298E+03  0.00000000000E+00 0.  1.
          6    1    1    2  502    0  0.81180539592E+02  0.69815268031E+02 -0.29114667030E+03  0.35518985809E+03  0.17300000000E+03 0.  1.
         -6    1    1    2    0  501 -0.81180539592E+02 -0.69815268031E+02  0.16851824461E+02  0.20415052203E+03  0.17300000000E+03 0. -1.
</event>
<event>
 4    1  0.1089518E+000  0.1000000E+03  0.7546771E-02  0.1280296E+00
          3   -1    0    0  502    0  0.00000000000E+00  0.00000000000E+00  0.39469838155E+02  0.39469838155E+02  0.00000000000E+00 0. -1.
         -3   -1    0    0    0  501 -0.00000000000E+00 -0.00000000000E+00 -0.13630788271E+04  0.13630788271E+04  0.00000000000E+00 0.  1.
          6    1    1    2  502    0 -0.13754167565E+03 -0.86179393272E+01 -0.87299933484E+03  0.90058248931E+03  0.17300000000E+03 0. -1.
         -6    1    1    2    0  501  0.13754167565E+03  0.86179393272E+01 -0.45060965409E+03  0.50196617593E+03  0.17300000000E+03 0.  1.
</event>
<event>
 4    1  0.1089518E+000  0.1000000E+03  0.7546771E-02  0.1280296E+00
          1   -1    0    0  502    0  0.00000000000E+00  0.00000000000E+00  0.13304242322E+03  0.13304242322E+03  0.00000000000E+00 0. -1.
         -1   -1    0    0    0  501 -0.00000000000E+00 -0.00000000000E+00 -0.23248772084E+03  0.23248772084E+03  0.00000000000E+00 0.  1.
          6    1    1    2  502    0 -0.26838111829E+01  0.24045217116E+02 -0.70927231004E+02  0.18853394232E+03  0.17300000000E+03 0. -1.
         -6    1    1    2    0  501  0.26838111829E+01 -0.24045217116E+02 -0.28518066620E+02  0.17699620175E+03  0.17300000000E+03 0.  1.
</event>
<event>
 4    1  0.1089518E+000  0.1000000E+03  0.7546771E-02  0.1280296E+00
          1   -1    0    0  502    0  0.00000000000E+00  0.00000000000E+00  0.12886547479E+03  0.12886547479E+03  0.00000000000E+00 0. -1.
         -1   -1    0    0    0  501 -0.00000000000E+00 -0.00000000000E+00 -0.24395196197E+03  0.24395196197E+03  0.00000000000E+00 0.  1.
          6    1    1    2  502    0  0.29491358980E+02  0.15304706252E+02 -0.36411154569E+02  0.17988537035E+03  0.17300000000E+03 0. -1.
         -6    1    1    2    0  501 -0.29491358980E+02 -0.15304706252E+02 -0.78675332618E+02  0.19293206641E+03  0.17300000000E+03 0.  1.
</event>
<event>
 4    1  0.1089518E+000  0.1000000E+03  0.7546771E-02  0.1280296E+00
         -2   -1    0    0    0  501 -0.00000000000E+00  0.00000000000E+00  0.58786589595E+03  0.58786589595E+03  0.00000000000E+00 0.  1.
          2   -1    0    0  502    0  0.00000000000E+00 -0.00000000000E+00 -0.11833037470E+03  0.11833037470E+03  0.00000000000E+00 0. -1.
          6    1    1    2  502    0 -0.19017479331E+03 -0.45635221427E+02  0.18495579504E+03  0.31997917364E+03  0.17300000000E+03 0. -1.
         -6    1    1    2    0  501  0.19017479331E+03  0.45635221427E+02  0.28457972622E+03  0.38621709701E+03  0.17300000000E+03 0. -1.
</event>
<event>
 4    1  0.1089518E+000  0.1000000E+03  0.7546771E-02  0.1280296E+00
         -2   -1    0    0    0  501 -0.00000000000E+00  0.00000000000E+00  0.20979753624E+02  0.20979753624E+02  0.00000000000E+00 0.  1.
          2   -1    0    0  502    0  0.00000000000E+00 -0.00000000000E+00 -0.31168276727E+04  0.31168276727E+04  0.00000000000E+00 0. -1.
          6    1    1    2  502    0  0.95488497387E+02 -0.51773025499E+02 -0.60414006440E+03  0.63774032076E+03  0.17300000000E+03 0. -1.
         -6    1    1    2    0  501 -0.95488497387E+02  0.51773025499E+02 -0.24917078547E+04  0.25000671056E+04  0.17300000000E+03 0. -1.
</event>
<event>
 4    1  0.1089518E+000  0.1000000E+03  0.7546771E-02  0.1280296E+00
         -2   -1    0    0    0  501 -0.00000000000E+00  0.00000000000E+00  0.53301408114E+02  0.53301408114E+02  0.00000000000E+00 0.  1.
          2   -1    0    0  502    0  0.00000000000E+00 -0.00000000000E+00 -0.15301254413E+04  0.15301254413E+04  0.00000000000E+00 0. -1.
          6    1    1    2  502    0  0.21838236439E+03  0.62143296400E+02 -0.71421308270E+03  0.76914366269E+03  0.17300000000E+03 0. -1.
         -6    1    1    2    0  501 -0.21838236439E+03 -0.62143296400E+02 -0.76261095045E+03  0.81428318668E+03  0.17300000000E+03 0. -1.
</event>
<event>
 4    1  0.1089518E+000  0.1000000E+03  0.7546771E-02  0.1280296E+00
          2   -1    0    0  502    0  0.00000000000E+00  0.00000000000E+00  0.94395492037E+03  0.94395492037E+03  0.00000000000E+00 0. -1.
         -2   -1    0    0    0  501 -0.00000000000E+00 -0.00000000000E+00 -0.11982038580E+03  0.11982038580E+03  0.00000000000E+00 0.  1.
          6    1    1    2  502    0 -0.17124203121E+03  0.17702281041E+03  0.17475718294E+03  0.34803732795E+03  0.17300000000E+03 0.  1.
         -6    1    1    2    0  501  0.17124203121E+03 -0.17702281041E+03  0.64937735163E+03  0.71573797822E+03  0.17300000000E+03 0. -1.
</event>
<event>
 4    1  0.1089518E+000  0.1000000E+03  0.7546771E-02  0.1280296E+00
          2   -1    0    0  502    0  0.00000000000E+00  0.00000000000E+00  0.19632709039E+04  0.19632709039E+04  0.00000000000E+00 0. -1.
         -2   -1    0    0    0  501 -0.00000000000E+00 -0.00000000000E+00 -0.32549531991E+02  0.32549531991E+02  0.00000000000E+00 0.  1.
          6    1    1    2  502    0  0.10788223305E+03  0.98648609382E+02  0.14085512396E+04  0.14266449169E+04  0.17300000000E+03 0.  1.
         -6    1    1    2    0  501 -0.10788223305E+03 -0.98648609382E+02  0.52217013230E+03  0.56917551898E+03  0.17300000000E+03 0. -1.
</event>
<event>
 4    1  0.1089518E+000  0.1000000E+03  0.7546771E-02  0.1280296E+00
          2   -1    0    0  502    0  0.00000000000E+00  0.00000000000E+00  0.59760835060E+03  0.59760835060E+03  0.00000000000E+00 0.  1.
         -2   -1    0    0    0  501 -0.00000000000E+00 -0.00000000000E+00 -0.18649285201E+03  0.18649285201E+03  0.00000000000E+00 0. -1.
          6    1    1    2  502    0 -0.11457453912E+03  0.23649587324E+03  0.33666149161E+03  0.46079017243E+03  0.17300000000E+03 0.  1.
         -6    1    1    2    0  501  0.11457453912E+03 -0.23649587324E+03  0.74454006982E+02  0.32331103017E+03  0.17300000000E+03 0.  1.
</event>
<event>
 4    1  0.1089518E+000  0.1000000E+03  0.7546771E-02  0.1280296E+00
          2   -1    0    0  502    0  0.00000000000E+00  0.00000000000E+00  0.36014117251E+03  0.36014117251E+03  0.00000000000E+00 0.  1.
         -2   -1    0    0    0  501 -0.00000000000E+00 -0.00000000000E+00 -0.18146679659E+03  0.18146679659E+03  0.00000000000E+00 0. -1.
          6    1    1    2  502    0  0.97617471175E+02  0.81117446231E+02 -0.57884752771E+02  0.22223603525E+03  0.17300000000E+03 0.  1.
         -6    1    1    2    0  501 -0.97617471175E+02 -0.81117446231E+02  0.23655912869E+03  0.31937193385E+03  0.17300000000E+03 0.  1.
</event>
<event>
 4    1  0.1089518E+000  0.1000000E+03  0.7546771E-02  0.1280296E+00
          2   -1    0    0  502    0  0.00000000000E+00  0.00000000000E+00  0.29077529881E+04  0.29077529881E+04  0.00000000000E+00 0.  1.
         -2   -1    0    0    0  501 -0.00000000000E+00 -0.00000000000E+00 -0.14013359551E+02  0.14013359551E+02  0.00000000000E+00 0. -1.
          6    1    1    2  502    0  0.44212512413E+02  0.33850975948E+02  0.81108369120E+03  0.83119575851E+03  0.17300000000E+03 0.  1.
         -6    1    1    2    0  501 -0.44212512413E+02 -0.33850975948E+02  0.20826559373E+04  0.20905705891E+04  0.17300000000E+03 0.  1.
</event>
<event>
 4    1  0.1089518E+000  0.1000000E+03  0.7546771E-02  0.1280296E+00
          1   -1    0    0  502    0  0.00000000000E+00  0.00000000000E+00  0.16867621410E+03  0.16867621410E+03  0.00000000000E+00 0. -1.
         -1   -1    0    0    0  501 -0.00000000000E+00 -0.00000000000E+00 -0.45524603699E+03  0.45524603699E+03  0.00000000000E+00 0.  1.
          6    1    1    2  502    0  0.39289866582E+02  0.10244334377E+03  0.66791051365E+02  0.21547245031E+03  0.17300000000E+03 0.  1.
         -6    1    1    2    0  501 -0.39289866582E+02 -0.10244334377E+03 -0.35336087425E+03  0.40844980078E+03  0.17300000000E+03 0. -1.
</event>
<event>
 4    1  0.1089518E+000  0.1000000E+03  0.7546771E-02  0.1280296E+00
         -2   -1    0    0    0  501 -0.00000000000E+00  0.00000000000E+00  0.71123176336E+02  0.71123176336E+02  0.00000000000E+00 0.  1.
          2   -1    0    0  502    0  0.00000000000E+00 -0.00000000000E+00 -0.73727189917E+03  0.73727189917E+03  0.00000000000E+00 0. -1.
          6    1    1    2  502    0 -0.49166840274E+02 -0.63648476601E+02 -0.10952615615E+03  0.21998519413E+03  0.17300000000E+03 0. -1.
         -6    1    1    2    0  501  0.49166840274E+02  0.63648476601E+02 -0.55662256668E+03  0.58840988137E+03  0.17300000000E+03 0.  1.
</event>
<event>
 4    1  0.1089518E+000  0.1000000E+03  0.7546771E-02  0.1280296E+00
         -2   -1    0    0    0  501 -0.00000000000E+00  0.00000000000E+00  0.15415221734E+03  0.15415221734E+03  0.00000000000E+00 0.  1.
          2   -1    0    0  502    0  0.00000000000E+00 -0.00000000000E+00 -0.16767817838E+04  0.16767817838E+04  0.00000000000E+00 0. -1.
          6    1    1    2  502    0  0.42310579566E+03  0.10336859343E+03 -0.40641269709E+03  0.62032560868E+03  0.17300000000E+03 0. -1.
         -6    1    1    2    0  501 -0.42310579566E+03 -0.10336859343E+03 -0.11162168694E+04  0.12106083925E+04  0.17300000000E+03 0.  1.
</event>
<event>
 4    1  0.1089518E+000  0.1000000E+03  0.7546771E-02  0.1280296E+00
         -2   -1    0    0    0  501 -0.00000000000E+00  0.00000000000E+00  0.56625539831E+02  0.56625539831E+02  0.00000000000E+00 0.  1.
          2   -1    0    0  502    0  0.00000000000E+00 -0.00000000000E+00 -0.74138425434E+03  0.74138425434E+03  0.00000000000E+00 0. -1.
          6    1    1    2  502    0  0.58500386961E+00  0.91602556212E+02 -0.22455228715E+03  0.29789948003E+03  0.17300000000E+03 0. -1.
         -6    1    1    2    0  501 -0.58500386961E+00 -0.91602556212E+02 -0.46020642736E+03  0.50011031415E+03  0.17300000000E+03 0.  1.
</event>
<event>
 4    1  0.1089518E+000  0.1000000E+03  0.7546771E-02  0.1280296E+00
         -2   -1    0    0    0  501 -0.00000000000E+00  0.00000000000E+00  0.27304280016E+02  0.27304280016E+02  0.00000000000E+00 0. -1.
          2   -1    0    0  502    0  0.00000000000E+00 -0.00000000000E+00 -0.16636336436E+04  0.16636336436E+04  0.00000000000E+00 0.  1.
          6    1    1    2  502    0 -0.45070330581E+02  0.11175434752E+03 -0.94202854470E+03  0.96533266179E+03  0.17300000000E+03 0. -1.
         -6    1    1    2    0  501  0.45070330581E+02 -0.11175434752E+03 -0.69430081890E+03  0.72560526185E+03  0.17300000000E+03 0.  1.
</event>
<event>
 4    1  0.1089518E+000  0.1000000E+03  0.7546771E-02  0.1280296E+00
          2   -1    0    0  502    0  0.00000000000E+00  0.00000000000E+00  0.22301381707E+04  0.22301381707E+04  0.00000000000E+00 0. -1.
         -2   -1    0    0    0  501 -0.00000000000E+00 -0.00000000000E+00 -0.12637953040E+03  0.12637953040E+03  0.00000000000E+00 0.  1.
          6    1    1    2  502    0 -0.39561504865E+03  0.21334112871E+03  0.55615601317E+03  0.73570660926E+03  0.17300000000E+03 0. -1.
         -6    1    1    2    0  501  0.39561504865E+03 -0.21334112871E+03  0.15476026271E+04  0.16208110918E+04  0.17300000000E+03 0.  1.
</event>
<event>
 4    1  0.1089518E+000  0.1000000E+03  0.7546771E-02  0.1280296E+00
          2   -1    0    0  502    0  0.00000000000E+00  0.00000000000E+00  0.78572492521E+03  0.78572492521E+03  0.00000000000E+00 0. -1.
         -2   -1    0    0    0  501 -0.00000000000E+00 -0.00000000000E+00 -0.24132999140E+03  0.24132999140E+03  0.00000000000E+00 0.  1.
          6    1    1    2  502    0 -0.22491413170E+03 -0.33020779946E+03  0.28180941373E+03  0.51862231260E+03  0.17300000000E+03 0. -1.
         -6    1    1    2    0  501  0.22491413170E+03  0.33020779946E+03  0.26258552008E+03  0.50843260401E+03  0.17300000000E+03 0.  1.
</event>
<event>
 4    1  0.1089518E+000  0.1000000E+03  0.7546771E-02  0.1280296E+00
         -2   -1    0    0    0  501 -0.00000000000E+00  0.00000000000E+00  0.14996621785E+03  0.14996621785E+03  0.00000000000E+00 0.  1.
          2   -1    0    0  502    0  0.00000000000E+00 -0.00000000000E+00 -0.52392956599E+03  0.52392956599E+03  0.00000000000E+00 0. -1.
          6    1    1    2  502    0 -0.20814772483E+03  0.40925134644E+02 -0.11443408272E+03  0.29668923352E+03  0.17300000000E+03 0. -1.
         -6    1    1    2    0  501  0.20814772483E+03 -0.40925134644E+02 -0.25952926542E+03  0.37720655033E+03  0.17300000000E+03 0.  1.
</event>
<event>
 4    1  0.1089518E+000  0.1000000E+03  0.7546771E-02  0.1280296E+00
         -4   -1    0    0    0  501 -0.00000000000E+00  0.00000000000E+00  0.14604441100E+03  0.14604441100E+03  0.00000000000E+00 0.  1.
          4   -1    0    0  502    0  0.00000000000E+00 -0.00000000000E+00 -0.27864799759E+03  0.27864799759E+03  0.00000000000E+00 0. -1.
          6    1    1    2  502    0  0.83884860266E+02 -0.25677430471E+02 -0.12462508350E+03  0.23055674281E+03  0.17300000000E+03 0. -1.
         -6    1    1    2    0  501 -0.83884860266E+02  0.25677430471E+02 -0.79785030981E+01  0.19413566578E+03  0.17300000000E+03 0.  1.
</event>
<event>
 4    1  0.1089518E+000  0.1000000E+03  0.7546771E-02  0.1280296E+00
         -1   -1    0    0    0  501 -0.00000000000E+00  0.00000000000E+00  0.18607213769E+03  0.18607213769E+03  0.00000000000E+00 0.  1.
          1   -1    0    0  502    0  0.00000000000E+00 -0.00000000000E+00 -0.20312278715E+03  0.20312278715E+03  0.00000000000E+00 0. -1.
          6    1    1    2  502    0 -0.19702100882E+02 -0.85800082177E+02 -0.19336831822E+02  0.19507111510E+03  0.17300000000E+03 0. -1.
         -6    1    1    2    0  501  0.19702100882E+02  0.85800082177E+02  0.22861823653E+01  0.19412380975E+03  0.17300000000E+03 0.  1.
</event>
<event>
 4    1  0.1089518E+000  0.1000000E+03  0.7546771E-02  0.1280296E+00
          1   -1    0    0  502    0  0.00000000000E+00  0.00000000000E+00  0.11663298151E+03  0.11663298151E+03  0.00000000000E+00 0.  1.
         -1   -1    0    0    0  501 -0.00000000000E+00 -0.00000000000E+00 -0.34745560226E+03  0.34745560226E+03  0.00000000000E+00 0. -1.
          6    1    1    2  502    0 -0.89278270978E+02 -0.40568477041E+02 -0.15148448354E+03  0.24998591910E+03  0.17300000000E+03 0.  1.
         -6    1    1    2    0  501  0.89278270978E+02  0.40568477041E+02 -0.79338137214E+02  0.21410266466E+03  0.17300000000E+03 0. -1.
</event>
<event>
 4    1  0.1089518E+000  0.1000000E+03  0.7546771E-02  0.1280296E+00
          1   -1    0    0  502    0  0.00000000000E+00  0.00000000000E+00  0.23815459519E+04  0.23815459519E+04  0.00000000000E+00 0.  1.
         -1   -1    0    0    0  501 -0.00000000000E+00 -0.00000000000E+00 -0.22149952641E+02  0.22149952641E+02  0.00000000000E+00 0. -1.
          6    1    1    2  502    0 -0.19762063619E+02 -0.25455893796E+02  0.19520199084E+04  0.19599360358E+04  0.17300000000E+03 0.  1.
         -6    1    1    2    0  501  0.19762063619E+02  0.25455893796E+02  0.40737609082E+03  0.44375986869E+03  0.17300000000E+03 0. -1.
</event>
<event>
 4    1  0.1089518E+000  0.1000000E+03  0.7546771E-02  0.1280296E+00
          1   -1    0    0  502    0  0.00000000000E+00  0.00000000000E+00  0.69818997445E+02  0.69818997445E+02  0.00000000000E+00 0.  1.
         -1   -1    0    0    0  501 -0.00000000000E+00 -0.00000000000E+00 -0.49971203642E+03  0.49971203642E+03  0.00000000000E+00 0. -1.
          6    1    1    2  502    0 -0.44476624739E+02 -0.42395847056E+02 -0.16246987783E+03  0.24515513292E+03  0.17300000000E+03 0.  1.
         -6    1    1    2    0  501  0.44476624739E+02  0.42395847056E+02 -0.26742316115E+03  0.32437590094E+03  0.17300000000E+03 0. -1.
</event>
<event>
 4    1  0.1089518E+000  0.1000000E+03  0.7546771E-02  0.1280296E+00
          2   -1    0    0  502    0  0.00000000000E+00  0.00000000000E+00  0.11030437780E+04  0.11030437780E+04  0.00000000000E+00 0. -1.
         -2   -1    0    0    0  501 -0.00000000000E+00 -0.00000000000E+00 -0.13378826304E+03  0.13378826304E+03  0.00000000000E+00 0.  1.
          6    1    1    2  502    0 -0.16599611925E+03 -0.16219874725E+03  0.78067445564E+02  0.29981105929E+03  0.17300000000E+03 0. -1.
         -6    1    1    2    0  501  0.16599611925E+03  0.16219874725E+03  0.89118806937E+03  0.93702098173E+03  0.17300000000E+03 0.  1.
</event>
<event>
 4    1  0.1089518E+000  0.1000000E+03  0.7546771E-02  0.1280296E+00
          2   -1    0    0  502    0  0.00000000000E+00  0.00000000000E+00  0.16685673420E+03  0.16685673420E+03  0.00000000000E+00 0. -1.
         -2   -1    0    0    0  501 -0.00000000000E+00 -0.00000000000E+00 -0.30499959055E+03  0.30499959055E+03  0.00000000000E+00 0.  1.
          6    1    1    2  502    0  0.14052456487E+03 -0.16652583131E+02 -0.10109776927E+03  0.24530434323E+03  0.17300000000E+03 0. -1.
         -6    1    1    2    0  501 -0.14052456487E+03  0.16652583131E+02 -0.37045087083E+02  0.22655198153E+03  0.17300000000E+03 0.  1.
</event>
<event>
 4    1  0.1089518E+000  0.1000000E+03  0.7546771E-02  0.1280296E+00
         -2   -1    0    0    0  501 -0.00000000000E+00  0.00000000000E+00  0.88694093520E+02  0.88694093520E+02  0.00000000000E+00 0.  1.
          2   -1    0    0  502    0  0.00000000000E+00 -0.00000000000E+00 -0.56878062863E+03  0.56878062863E+03  0.00000000000E+00 0. -1.
          6    1    1    2  502    0 -0.12262742552E+03 -0.57753081088E+02 -0.17224766719E+03  0.27923316908E+03  0.17300000000E+03 0. -1.
         -6    1    1    2    0  501  0.12262742552E+03  0.57753081088E+02 -0.30783886792E+03  0.37824155307E+03  0.17300000000E+03 0.  1.
</event>
<event>
 4    1  0.1089518E+000  0.1000000E+03  0.7546771E-02  0.1280296E+00
          2   -1    0    0  502    0  0.00000000000E+00  0.00000000000E+00  0.12211090468E+04  0.12211090468E+04  0.00000000000E+00 0.  1.
         -2   -1    0    0    0  501 -0.00000000000E+00 -0.00000000000E+00 -0.51402706875E+02  0.51402706875E+02  0.00000000000E+00 0. -1.
          6    1    1    2  502    0 -0.13221816312E+03 -0.79642095109E+02  0.34372955718E+03  0.41461248709E+03  0.17300000000E+03 0.  1.
         -6    1    1    2    0  501  0.13221816312E+03  0.79642095109E+02  0.82597678272E+03  0.85789926656E+03  0.17300000000E+03 0. -1.
</event>
<event>
 4    1  0.1089518E+000  0.1000000E+03  0.7546771E-02  0.1280296E+00
          2   -1    0    0  502    0  0.00000000000E+00  0.00000000000E+00  0.26252445563E+04  0.26252445563E+04  0.00000000000E+00 0.  1.
         -2   -1    0    0    0  501 -0.00000000000E+00 -0.00000000000E+00 -0.13999251496E+02  0.13999251496E+02  0.00000000000E+00 0. -1.
          6    1    1    2  502    0 -0.46455109743E+01 -0.55432198794E+02  0.88532315055E+03  0.90378116286E+03  0.17300000000E+03 0. -1.
         -6    1    1    2    0  501  0.46455109743E+01  0.55432198794E+02  0.17259221542E+04  0.17354626449E+04  0.17300000000E+03 0. -1.
</event>
<event>
 4    1  0.1089518E+000  0.1000000E+03  0.7546771E-02  0.1280296E+00
          2   -1    0    0  502    0  0.00000000000E+00  0.00000000000E+00  0.57999803603E+02  0.57999803603E+02  0.00000000000E+00 0.  1.
         -2   -1    0    0    0  501 -0.00000000000E+00 -0.00000000000E+00 -0.59984687591E+03  0.59984687591E+03  0.00000000000E+00 0. -1.
          6    1    1    2  502    0  0.27939751545E+02 -0.22755198390E+02 -0.16565368430E+03  0.24221596127E+03  0.17300000000E+03 0. -1.
         -6    1    1    2    0  501 -0.27939751545E+02  0.22755198390E+02 -0.37619338800E+03  0.41563071824E+03  0.17300000000E+03 0. -1.
</event>
<event>
 4    1  0.1089518E+000  0.1000000E+03  0.7546771E-02  0.1280296E+00
         -2   -1    0    0    0  501 -0.00000000000E+00  0.00000000000E+00  0.29302598112E+02  0.29302598112E+02  0.00000000000E+00 0. -1.
          2   -1    0    0  502    0  0.00000000000E+00 -0.00000000000E+00 -0.15612597846E+04  0.15612597846E+04  0.00000000000E+00 0.  1.
          6    1    1    2  502    0 -0.86625971440E+02  0.88078985993E+02 -0.85380956165E+03  0.87987597664E+03  0.17300000000E+03 0.  1.
         -6    1    1    2    0  501  0.86625971440E+02 -0.88078985993E+02 -0.67814762480E+03  0.71068640603E+03  0.17300000000E+03 0. -1.
</event>
<event>
 4    1  0.1089518E+000  0.1000000E+03  0.7546771E-02  0.1280296E+00
          2   -1    0    0  502    0  0.00000000000E+00  0.00000000000E+00  0.70130444509E+03  0.70130444509E+03  0.00000000000E+00 0. -1.
         -2   -1    0    0    0  501 -0.00000000000E+00 -0.00000000000E+00 -0.10219573280E+03  0.10219573280E+03  0.00000000000E+00 0.  1.
          6    1    1    2  502    0 -0.44913947322E+00  0.92670422152E+01 -0.67274045674E+01  0.17337917340E+03  0.17300000000E+03 0. -1.
         -6    1    1    2    0  501  0.44913947322E+00 -0.92670422152E+01  0.60583611686E+03  0.63012100449E+03  0.17300000000E+03 0.  1.
</event>
<event>
 4    1  0.1089518E+000  0.1000000E+03  0.7546771E-02  0.1280296E+00
         -2   -1    0    0    0  501 -0.00000000000E+00  0.00000000000E+00  0.98118512640E+02  0.98118512640E+02  0.00000000000E+00 0. -1.
          2   -1    0    0  502    0  0.00000000000E+00 -0.00000000000E+00 -0.70222789557E+03  0.70222789557E+03  0.00000000000E+00 0.  1.
          6    1    1    2  502    0  0.35082075543E+02  0.16794765468E+03 -0.45092315841E+03  0.51254059500E+03  0.17300000000E+03 0.  1.
         -6    1    1    2    0  501 -0.35082075543E+02 -0.16794765468E+03 -0.15318622453E+03  0.28780581321E+03  0.17300000000E+03 0. -1.
</event>
<event>
 4    1  0.1089518E+000  0.1000000E+03  0.7546771E-02  0.1280296E+00
         -1   -1    0    0    0  501 -0.00000000000E+00  0.00000000000E+00  0.29625198313E+02  0.29625198313E+02  0.00000000000E+00 0. -1.
          1   -1    0    0  502    0  0.00000000000E+00 -0.00000000000E+00 -0.22802103944E+04  0.22802103944E+04  0.00000000000E+00 0.  1.
          6    1    1    2  502    0 -0.57741028855E+02 -0.18476112591E+03 -0.10705111579E+04  0.11015415740E+04  0.17300000000E+03 0.  1.
         -6    1    1    2    0  501  0.57741028855E+02  0.18476112591E+03 -0.11800740382E+04  0.12082940188E+04  0.17300000000E+03 0. -1.
</event>
<event>
 4    1  0.1089518E+000  0.1000000E+03  0.7546771E-02  0.1280296E+00
         -1   -1    0    0    0  501 -0.00000000000E+00  0.00000000000E+00  0.66386969647E+02  0.66386969647E+02  0.00000000000E+00 0.  1.
          1   -1    0    0  502    0  0.00000000000E+00 -0.00000000000E+00 -0.50230091168E+03  0.50230091168E+03  0.00000000000E+00 0. -1.
          6    1    1    2  502    0  0.33797602406E+02  0.29453971781E+02 -0.15954086753E+03  0.23956648930E+03  0.17300000000E+03 0. -1.
         -6    1    1    2    0  501 -0.33797602406E+02 -0.29453971781E+02 -0.27637307450E+03  0.32912139203E+03  0.17300000000E+03 0.  1.
</event>
<event>
 4    1  0.1089518E+000  0.1000000E+03  0.7546771E-02  0.1280296E+00
          1   -1    0    0  502    0  0.00000000000E+00  0.00000000000E+00  0.83714513318E+03  0.83714513318E+03  0.00000000000E+00 0.  1.
         -1   -1    0    0    0  501 -0.00000000000E+00 -0.00000000000E+00 -0.33422440226E+03  0.33422440226E+03  0.00000000000E+00 0. -1.
          6    1    1    2  502    0 -0.12564659287E+02  0.16903272996E+03 -0.26922288356E+03  0.36213242812E+03  0.17300000000E+03 0.  1.
         -6    1    1    2    0  501  0.12564659287E+02 -0.16903272996E+03  0.77214361449E+03  0.80923710732E+03  0.17300000000E+03 0. -1.
</event>
<event>
 4    1  0.1089518E+000  0.1000000E+03  0.7546771E-02  0.1280296E+00
          1   -1    0    0  502    0  0.00000000000E+00  0.00000000000E+00  0.17215312269E+03  0.17215312269E+03  0.00000000000E+00 0.  1.
         -1   -1    0    0    0  501 -0.00000000000E+00 -0.00000000000E+00 -0.63254338754E+03  0.63254338754E+03  0.00000000000E+00 0. -1.
          6    1    1    2  502    0  0.21878210125E+03  0.11141370823E+03 -0.63521928486E+02  0.30698967020E+03  0.17300000000E+03 0.  1.
         -6    1    1    2    0  501 -0.21878210125E+03 -0.11141370823E+03 -0.39686833637E+03  0.49770684003E+03  0.17300000000E+03 0. -1.
</event>
<event>
 4    1  0.1089518E+000  0.1000000E+03  0.7546771E-02  0.1280296E+00
          1   -1    0    0  502    0  0.00000000000E+00  0.00000000000E+00  0.10654543649E+04  0.10654543649E+04  0.00000000000E+00 0.  1.
         -1   -1    0    0    0  501 -0.00000000000E+00 -0.00000000000E+00 -0.46901947535E+02  0.46901947535E+02  0.00000000000E+00 0. -1.
          6    1    1    2  502    0  0.50384832788E+02 -0.45043156094E+02  0.81878397291E+03  0.83958544031E+03  0.17300000000E+03 0.  1.
         -6    1    1    2    0  501 -0.50384832788E+02  0.45043156094E+02  0.19976844450E+03  0.27277087217E+03  0.17300000000E+03 0. -1.
</event>
<event>
 4    1  0.1089518E+000  0.1000000E+03  0.7546771E-02  0.1280296E+00
          2   -1    0    0  502    0  0.00000000000E+00  0.00000000000E+00  0.95191447344E+02  0.95191447344E+02  0.00000000000E+00 0.  1.
         -2   -1    0    0    0  501 -0.00000000000E+00 -0.00000000000E+00 -0.77842182841E+03  0.77842182841E+03  0.00000000000E+00 0. -1.
          6    1    1    2  502    0  0.17846181881E+03  0.10020069981E+03 -0.26497194067E+03  0.37686593154E+03  0.17300000000E+03 0.  1.
         -6    1    1    2    0  501 -0.17846181881E+03 -0.10020069981E+03 -0.41825844040E+03  0.49674734421E+03  0.17300000000E+03 0. -1.
</event>
<event>
 4    1  0.1089518E+000  0.1000000E+03  0.7546771E-02  0.1280296E+00
          1   -1    0    0  502    0  0.00000000000E+00  0.00000000000E+00  0.70874338593E+03  0.70874338593E+03  0.00000000000E+00 0. -1.
         -1   -1    0    0    0  501 -0.00000000000E+00 -0.00000000000E+00 -0.57696062233E+02  0.57696062233E+02  0.00000000000E+00 0.  1.
          6    1    1    2  502    0 -0.11638408370E+02  0.81899859118E+02  0.20388794902E+03  0.27989700825E+03  0.17300000000E+03 0. -1.
         -6    1    1    2    0  501  0.11638408370E+02 -0.81899859118E+02  0.44715937468E+03  0.48654243992E+03  0.17300000000E+03 0.  1.
</event>
<event>
 4    1  0.1089518E+000  0.1000000E+03  0.7546771E-02  0.1280296E+00
         -2   -1    0    0    0  501 -0.00000000000E+00  0.00000000000E+00  0.89340636684E+02  0.89340636684E+02  0.00000000000E+00 0.  1.
          2   -1    0    0  502    0  0.00000000000E+00 -0.00000000000E+00 -0.99202882464E+03  0.99202882464E+03  0.00000000000E+00 0. -1.
          6    1    1    2  502    0  0.22743366921E+03  0.81394568113E+02 -0.48524078948E+03  0.56898046836E+03  0.17300000000E+03 0. -1.
         -6    1    1    2    0  501 -0.22743366921E+03 -0.81394568113E+02 -0.41744739848E+03  0.51238899296E+03  0.17300000000E+03 0.  1.
</event>
<event>
 4    1  0.1089518E+000  0.1000000E+03  0.7546771E-02  0.1280296E+00
         -2   -1    0    0    0  501 -0.00000000000E+00  0.00000000000E+00  0.22261507058E+02  0.22261507058E+02  0.00000000000E+00 0.  1.
          2   -1    0    0  502    0  0.00000000000E+00 -0.00000000000E+00 -0.15522735426E+04  0.15522735426E+04  0.00000000000E+00 0. -1.
          6    1    1    2  502    0  0.57213164710E+02 -0.28888167835E+02 -0.66851733243E+03  0.69350724309E+03  0.17300000000E+03 0. -1.
         -6    1    1    2    0  501 -0.57213164710E+02  0.28888167835E+02 -0.86149470308E+03  0.88102780653E+03  0.17300000000E+03 0.  1.
</event>
<event>
 4    1  0.1089518E+000  0.1000000E+03  0.7546771E-02  0.1280296E+00
         -2   -1    0    0    0  501 -0.00000000000E+00  0.00000000000E+00  0.43791007057E+02  0.43791007057E+02  0.00000000000E+00 0. -1.
          2   -1    0    0  502    0  0.00000000000E+00 -0.00000000000E+00 -0.74613596787E+03  0.74613596787E+03  0.00000000000E+00 0.  1.
          6    1    1    2  502    0  0.43608034119E+02  0.27932472309E+02 -0.33380716422E+03  0.37952352566E+03  0.17300000000E+03 0.  1.
         -6    1    1    2    0  501 -0.43608034119E+02 -0.27932472309E+02 -0.36853779660E+03  0.41040344927E+03  0.17300000000E+03 0. -1.
</event>
<event>
 4    1  0.1089518E+000  0.1000000E+03  0.7546771E-02  0.1280296E+00
          1   -1    0    0  502    0  0.00000000000E+00  0.00000000000E+00  0.71807670314E+03  0.71807670314E+03  0.00000000000E+00 0. -1.
         -1   -1    0    0    0  501 -0.00000000000E+00 -0.00000000000E+00 -0.52734204556E+02  0.52734204556E+02  0.00000000000E+00 0.  1.
          6    1    1    2  502    0 -0.20644745821E+02 -0.46957898042E+02  0.47695216857E+03  0.50994472330E+03  0.17300000000E+03 0. -1.
         -6    1    1    2    0  501  0.20644745821E+02  0.46957898042E+02  0.18839033001E+03  0.26086618440E+03  0.17300000000E+03 0.  1.
</event>
<event>
 4    1  0.1089518E+000  0.1000000E+03  0.7546771E-02  0.1280296E+00
         -2   -1    0    0    0  501 -0.00000000000E+00  0.00000000000E+00  0.10926556525E+04  0.10926556525E+04  0.00000000000E+00 0.  1.
          2   -1    0    0  502    0  0.00000000000E+00 -0.00000000000E+00 -0.85995187263E+02  0.85995187263E+02  0.00000000000E+00 0. -1.
          6    1    1    2  502    0 -0.23734676531E+03  0.66835788188E+02  0.39400490430E+03  0.49595299595E+03  0.17300000000E+03 0.  1.
         -6    1    1    2    0  501  0.23734676531E+03 -0.66835788188E+02  0.61265556090E+03  0.68269784377E+03  0.17300000000E+03 0.  1.
</event>
<event>
 4    1  0.1089518E+000  0.1000000E+03  0.7546771E-02  0.1280296E+00
         -3   -1    0    0    0  501 -0.00000000000E+00  0.00000000000E+00  0.62481208899E+03  0.62481208899E+03  0.00000000000E+00 0. -1.
          3   -1    0    0  502    0  0.00000000000E+00 -0.00000000000E+00 -0.10883804589E+03  0.10883804589E+03  0.00000000000E+00 0.  1.
          6    1    1    2  502    0  0.77496320187E+02  0.36827708305E+02  0.50450612023E+03  0.54020124499E+03  0.17300000000E+03 0. -1.
         -6    1    1    2    0  501 -0.77496320187E+02 -0.36827708305E+02  0.11467922872E+02  0.19344888988E+03  0.17300000000E+03 0. -1.
</event>
<event>
 4    1  0.1089518E+000  0.1000000E+03  0.7546771E-02  0.1280296E+00
         -2   -1    0    0    0  501 -0.00000000000E+00  0.00000000000E+00  0.31702566467E+02  0.31702566467E+02  0.00000000000E+00 0. -1.
          2   -1    0    0  502    0  0.00000000000E+00 -0.00000000000E+00 -0.13680143749E+04  0.13680143749E+04  0.00000000000E+00 0.  1.
          6    1    1    2  502    0  0.50978297039E+02  0.60725361451E+02 -0.95240463546E+03  0.97123114960E+03  0.17300000000E+03 0. -1.
         -6    1    1    2    0  501 -0.50978297039E+02 -0.60725361451E+02 -0.38390717297E+03  0.42848579177E+03  0.17300000000E+03 0. -1.
</event>
<event>
 4    1  0.1089518E+000  0.1000000E+03  0.7546771E-02  0.1280296E+00
          2   -1    0    0  502    0  0.00000000000E+00  0.00000000000E+00  0.17133889137E+04  0.17133889137E+04  0.00000000000E+00 0. -1.
         -2   -1    0    0    0  501 -0.00000000000E+00 -0.00000000000E+00 -0.33830974815E+02  0.33830974815E+02  0.00000000000E+00 0.  1.
          6    1    1    2  502    0  0.10054509227E+03 -0.13929533545E+02  0.13229787700E+04  0.13380975949E+04  0.17300000000E+03 0. -1.
         -6    1    1    2    0  501 -0.10054509227E+03  0.13929533545E+02  0.35657916885E+03  0.40912229362E+03  0.17300000000E+03 0. -1.
</event>
<event>
 4    1  0.1089518E+000  0.1000000E+03  0.7546771E-02  0.1280296E+00
         -1   -1    0    0    0  501 -0.00000000000E+00  0.00000000000E+00  0.10360897138E+03  0.10360897138E+03  0.00000000000E+00 0. -1.
          1   -1    0    0  502    0  0.00000000000E+00 -0.00000000000E+00 -0.60648930637E+03  0.60648930637E+03  0.00000000000E+00 0.  1.
          6    1    1    2  502    0 -0.77797816115E+02  0.32854956128E+02 -0.24039056543E+02  0.19400727969E+03  0.17300000000E+03 0. -1.
         -6    1    1    2    0  501  0.77797816115E+02 -0.32854956128E+02 -0.47884127845E+03  0.51609099806E+03  0.17300000000E+03 0.  1.
</event>
<event>
 4    1  0.1089518E+000  0.1000000E+03  0.7546771E-02  0.1280296E+00
          2   -1    0    0  502    0  0.00000000000E+00  0.00000000000E+00  0.40799075236E+03  0.40799075236E+03  0.00000000000E+00 0. -1.
         -2   -1    0    0    0  501 -0.00000000000E+00 -0.00000000000E+00 -0.82592973404E+02  0.82592973404E+02  0.00000000000E+00 0.  1.
          6    1    1    2  502    0 -0.28754208291E+02  0.44789613262E+02  0.20356389343E+03  0.27239708636E+03  0.17300000000E+03 0.  1.
         -6    1    1    2    0  501  0.28754208291E+02 -0.44789613262E+02  0.12183388553E+03  0.21818663940E+03  0.17300000000E+03 0. -1.
</event>
<event>
 4    1  0.1089518E+000  0.1000000E+03  0.7546771E-02  0.1280296E+00
          2   -1    0    0  502    0  0.00000000000E+00  0.00000000000E+00  0.19324229578E+04  0.19324229578E+04  0.00000000000E+00 0. -1.
         -2   -1    0    0    0  501 -0.00000000000E+00 -0.00000000000E+00 -0.31463837723E+02  0.31463837723E+02  0.00000000000E+00 0.  1.
          6    1    1    2  502    0 -0.30400452181E+01 -0.10762818211E+03  0.15034169876E+04  0.15171633748E+04  0.17300000000E+03 0.  1.
         -6    1    1    2    0  501  0.30400452181E+01  0.10762818211E+03  0.39754213246E+03  0.44672342063E+03  0.17300000000E+03 0. -1.
</event>
<event>
 4    1  0.1089518E+000  0.1000000E+03  0.7546771E-02  0.1280296E+00
          1   -1    0    0  502    0  0.00000000000E+00  0.00000000000E+00  0.21300558498E+04  0.21300558498E+04  0.00000000000E+00 0. -1.
         -1   -1    0    0    0  501 -0.00000000000E+00 -0.00000000000E+00 -0.62375093913E+02  0.62375093913E+02  0.00000000000E+00 0.  1.
          6    1    1    2  502    0  0.17296139461E+03  0.24264823607E+03  0.67622701104E+03  0.75895044697E+03  0.17300000000E+03 0.  1.
         -6    1    1    2    0  501 -0.17296139461E+03 -0.24264823607E+03  0.13914537448E+04  0.14334804967E+04  0.17300000000E+03 0. -1.
</event>
<event>
 4    1  0.1089518E+000  0.1000000E+03  0.7546771E-02  0.1280296E+00
          1   -1    0    0  502    0  0.00000000000E+00  0.00000000000E+00  0.27749625515E+03  0.27749625515E+03  0.00000000000E+00 0. -1.
         -1   -1    0    0    0  501 -0.00000000000E+00 -0.00000000000E+00 -0.25472377769E+03  0.25472377769E+03  0.00000000000E+00 0.  1.
          6    1    1    2  502    0 -0.19919716629E+03  0.30005725610E+02  0.24666399298E+02  0.26667824411E+03  0.17300000000E+03 0.  1.
         -6    1    1    2    0  501  0.19919716629E+03 -0.30005725610E+02 -0.18939218367E+01  0.26554178874E+03  0.17300000000E+03 0. -1.
</event>
<event>
 4    1  0.1089518E+000  0.1000000E+03  0.7546771E-02  0.1280296E+00
          1   -1    0    0  502    0  0.00000000000E+00  0.00000000000E+00  0.18861078817E+03  0.18861078817E+03  0.00000000000E+00 0. -1.
         -1   -1    0    0    0  501 -0.00000000000E+00 -0.00000000000E+00 -0.49815831731E+03  0.49815831731E+03  0.00000000000E+00 0.  1.
          6    1    1    2  502    0 -0.24766873981E+03  0.74797475263E+01 -0.97287717563E+02  0.31747385922E+03  0.17300000000E+03 0.  1.
         -6    1    1    2    0  501  0.24766873981E+03 -0.74797475263E+01 -0.21225981158E+03  0.36929524626E+03  0.17300000000E+03 0. -1.
</event>
<event>
 4    1  0.1089518E+000  0.1000000E+03  0.7546771E-02  0.1280296E+00
          2   -1    0    0  502    0  0.00000000000E+00  0.00000000000E+00  0.47018995970E+03  0.47018995970E+03  0.00000000000E+00 0.  1.
         -2   -1    0    0    0  501 -0.00000000000E+00 -0.00000000000E+00 -0.70715554175E+02  0.70715554175E+02  0.00000000000E+00 0. -1.
          6    1    1    2  502    0 -0.45020989237E+02  0.34272350272E+02  0.21593458581E+03  0.28241499396E+03  0.17300000000E+03 0. -1.
         -6    1    1    2    0  501  0.45020989237E+02 -0.34272350272E+02  0.18353981972E+03  0.25849051992E+03  0.17300000000E+03 0.  1.
</event>
<event>
 4    1  0.1089518E+000  0.1000000E+03  0.7546771E-02  0.1280296E+00
          2   -1    0    0  502    0  0.00000000000E+00  0.00000000000E+00  0.14686889113E+04  0.14686889113E+04  0.00000000000E+00 0.  1.
         -2   -1    0    0    0  501 -0.00000000000E+00 -0.00000000000E+00 -0.39279133531E+02  0.39279133531E+02  0.00000000000E+00 0. -1.
          6    1    1    2  502    0 -0.15659922162E+03 -0.24792604059E+02  0.55396663427E+03  0.60161949878E+03  0.17300000000E+03 0. -1.
         -6    1    1    2    0  501  0.15659922162E+03  0.24792604059E+02  0.87544314349E+03  0.90634854604E+03  0.17300000000E+03 0.  1.
</event>
<event>
 4    1  0.1089518E+000  0.1000000E+03  0.7546771E-02  0.1280296E+00
          1   -1    0    0  502    0  0.00000000000E+00  0.00000000000E+00  0.15898204948E+04  0.15898204948E+04  0.00000000000E+00 0. -1.
         -1   -1    0    0    0  501 -0.00000000000E+00 -0.00000000000E+00 -0.29208253028E+02  0.29208253028E+02  0.00000000000E+00 0.  1.
          6    1    1    2  502    0  0.97812964641E+02 -0.44197783778E+02  0.10455689765E+04  0.10652062264E+04  0.17300000000E+03 0.  1.
         -6    1    1    2    0  501 -0.97812964641E+02  0.44197783778E+02  0.51504326532E+03  0.55382252148E+03  0.17300000000E+03 0.  1.
</event>
<event>
 4    1  0.1089518E+000  0.1000000E+03  0.7546771E-02  0.1280296E+00
          1   -1    0    0  502    0  0.00000000000E+00  0.00000000000E+00  0.11594721625E+04  0.11594721625E+04  0.00000000000E+00 0. -1.
         -1   -1    0    0    0  501 -0.00000000000E+00 -0.00000000000E+00 -0.59941668193E+02  0.59941668193E+02  0.00000000000E+00 0.  1.
          6    1    1    2  502    0 -0.16593473188E+03  0.80760834363E+02  0.72151700662E+03  0.76457337022E+03  0.17300000000E+03 0.  1.
         -6    1    1    2    0  501  0.16593473188E+03 -0.80760834363E+02  0.37801348772E+03  0.45484046050E+03  0.17300000000E+03 0.  1.
</event>
<event>
 4    1  0.1089518E+000  0.1000000E+03  0.7546771E-02  0.1280296E+00
          1   -1    0    0  502    0  0.00000000000E+00  0.00000000000E+00  0.17076482892E+04  0.17076482892E+04  0.00000000000E+00 0. -1.
         -1   -1    0    0    0  501 -0.00000000000E+00 -0.00000000000E+00 -0.25263626813E+02  0.25263626813E+02  0.00000000000E+00 0.  1.
          6    1    1    2  502    0 -0.11237299007E+03  0.71571748389E+01  0.74484127283E+03  0.77291424864E+03  0.17300000000E+03 0.  1.
         -6    1    1    2    0  501  0.11237299007E+03 -0.71571748389E+01  0.93754338959E+03  0.95999766740E+03  0.17300000000E+03 0.  1.
</event>
<event>
 4    1  0.1089518E+000  0.1000000E+03  0.7546771E-02  0.1280296E+00
          1   -1    0    0  502    0  0.00000000000E+00  0.00000000000E+00  0.31220810289E+03  0.31220810289E+03  0.00000000000E+00 0.  1.
         -1   -1    0    0    0  501 -0.00000000000E+00 -0.00000000000E+00 -0.10490839412E+03  0.10490839412E+03  0.00000000000E+00 0. -1.
          6    1    1    2  502    0  0.16054592275E+02 -0.32545743170E+02  0.58909804099E+02  0.18632321474E+03  0.17300000000E+03 0.  1.
         -6    1    1    2    0  501 -0.16054592275E+02  0.32545743170E+02  0.14838990467E+03  0.23079328227E+03  0.17300000000E+03 0. -1.
</event>
<event>
 4    1  0.1089518E+000  0.1000000E+03  0.7546771E-02  0.1280296E+00
          2   -1    0    0  502    0  0.00000000000E+00  0.00000000000E+00  0.29265501756E+04  0.29265501756E+04  0.00000000000E+00 0.  1.
         -2   -1    0    0    0  501 -0.00000000000E+00 -0.00000000000E+00 -0.19984453171E+02  0.19984453171E+02  0.00000000000E+00 0. -1.
          6    1    1    2  502    0  0.13091961798E+03  0.27951912903E+02  0.82503464272E+03  0.85354110475E+03  0.17300000000E+03 0.  1.
         -6    1    1    2    0  501 -0.13091961798E+03 -0.27951912903E+02  0.20815310797E+04  0.20929935240E+04  0.17300000000E+03 0. -1.
</event>
<event>
 4    1  0.1089518E+000  0.1000000E+03  0.7546771E-02  0.1280296E+00
          2   -1    0    0  502    0  0.00000000000E+00  0.00000000000E+00  0.61253418216E+03  0.61253418216E+03  0.00000000000E+00 0. -1.
         -2   -1    0    0    0  501 -0.00000000000E+00 -0.00000000000E+00 -0.76833509181E+02  0.76833509181E+02  0.00000000000E+00 0.  1.
          6    1    1    2  502    0 -0.82132759466E+02 -0.19854336686E+02  0.42668807922E+03  0.46811505190E+03  0.17300000000E+03 0. -1.
         -6    1    1    2    0  501  0.82132759466E+02  0.19854336686E+02  0.10901259376E+03  0.22125263944E+03  0.17300000000E+03 0.  1.
</event>
<event>
 4    1  0.1089518E+000  0.1000000E+03  0.7546771E-02  0.1280296E+00
          3   -1    0    0  502    0  0.00000000000E+00  0.00000000000E+00  0.23020225562E+03  0.23020225562E+03  0.00000000000E+00 0. -1.
         -3   -1    0    0    0  501 -0.00000000000E+00 -0.00000000000E+00 -0.15200773897E+03  0.15200773897E+03  0.00000000000E+00 0.  1.
          6    1    1    2  502    0 -0.45963904444E+02 -0.40131286232E+02  0.16957375726E+01  0.18345319886E+03  0.17300000000E+03 0. -1.
         -6    1    1    2    0  501  0.45963904444E+02  0.40131286232E+02  0.76498779077E+02  0.19875679572E+03  0.17300000000E+03 0.  1.
</event>
<event>
 4    1  0.1089518E+000  0.1000000E+03  0.7546771E-02  0.1280296E+00
          2   -1    0    0  502    0  0.00000000000E+00  0.00000000000E+00  0.98971668441E+03  0.98971668441E+03  0.00000000000E+00 0. -1.
         -2   -1    0    0    0  501 -0.00000000000E+00 -0.00000000000E+00 -0.13730277167E+03  0.13730277167E+03  0.00000000000E+00 0.  1.
          6    1    1    2  502    0 -0.15980676882E+03  0.13312137730E+03  0.80898603475E+03  0.85302222063E+03  0.17300000000E+03 0. -1.
         -6    1    1    2    0  501  0.15980676882E+03 -0.13312137730E+03  0.43427877984E+02  0.27399723546E+03  0.17300000000E+03 0.  1.
</event>
<event>
 4    1  0.1089518E+000  0.1000000E+03  0.7546771E-02  0.1280296E+00
          2   -1    0    0  502    0  0.00000000000E+00  0.00000000000E+00  0.34982898513E+04  0.34982898513E+04  0.00000000000E+00 0. -1.
         -2   -1    0    0    0  501 -0.00000000000E+00 -0.00000000000E+00 -0.91581432062E+01  0.91581432062E+01  0.00000000000E+00 0.  1.
          6    1    1    2  502    0 -0.22935027437E+02 -0.66855690189E+00  0.21343144981E+04  0.21414373303E+04  0.17300000000E+03 0. -1.
         -6    1    1    2    0  501  0.22935027437E+02  0.66855690189E+00  0.13548172099E+04  0.13660106642E+04  0.17300000000E+03 0.  1.
</event>
<event>
 4    1  0.1089518E+000  0.1000000E+03  0.7546771E-02  0.1280296E+00
         -1   -1    0    0    0  501 -0.00000000000E+00  0.00000000000E+00  0.50743971200E+02  0.50743971200E+02  0.00000000000E+00 0.  1.
          1   -1    0    0  502    0  0.00000000000E+00 -0.00000000000E+00 -0.73995063479E+03  0.73995063479E+03  0.00000000000E+00 0. -1.
          6    1    1    2  502    0 -0.23418829765E+00 -0.56969216440E+02 -0.47953040895E+03  0.51295609907E+03  0.17300000000E+03 0. -1.
         -6    1    1    2    0  501  0.23418829765E+00  0.56969216440E+02 -0.20967625464E+03  0.27773850692E+03  0.17300000000E+03 0.  1.
</event>
<event>
 4    1  0.1089518E+000  0.1000000E+03  0.7546771E-02  0.1280296E+00
         -2   -1    0    0    0  501 -0.00000000000E+00  0.00000000000E+00  0.52782844954E+02  0.52782844954E+02  0.00000000000E+00 0.  1.
          2   -1    0    0  502    0  0.00000000000E+00 -0.00000000000E+00 -0.19857930799E+04  0.19857930799E+04  0.00000000000E+00 0. -1.
          6    1    1    2  502    0  0.38855780217E+02  0.14144379911E+03 -0.23916941971E+03  0.32961664292E+03  0.17300000000E+03 0. -1.
         -6    1    1    2    0  501 -0.38855780217E+02 -0.14144379911E+03 -0.16938408153E+04  0.17089592820E+04  0.17300000000E+03 0.  1.
</event>
<event>
 4    1  0.1089518E+000  0.1000000E+03  0.7546771E-02  0.1280296E+00
         -3   -1    0    0    0  501 -0.00000000000E+00  0.00000000000E+00  0.72551011670E+02  0.72551011670E+02  0.00000000000E+00 0.  1.
          3   -1    0    0  502    0  0.00000000000E+00 -0.00000000000E+00 -0.57142345481E+03  0.57142345481E+03  0.00000000000E+00 0. -1.
          6    1    1    2  502    0  0.14023689066E+02  0.71471874393E+02 -0.12468243592E+03  0.22534329924E+03  0.17300000000E+03 0. -1.
         -6    1    1    2    0  501 -0.14023689066E+02 -0.71471874393E+02 -0.37419000721E+03  0.41863116724E+03  0.17300000000E+03 0.  1.
</event>
<event>
 4    1  0.1089518E+000  0.1000000E+03  0.7546771E-02  0.1280296E+00
          2   -1    0    0  502    0  0.00000000000E+00  0.00000000000E+00  0.21705524163E+03  0.21705524163E+03  0.00000000000E+00 0. -1.
         -2   -1    0    0    0  501 -0.00000000000E+00 -0.00000000000E+00 -0.17771319741E+03  0.17771319741E+03  0.00000000000E+00 0.  1.
          6    1    1    2  502    0  0.23495858984E+02  0.22464357596E+02  0.10721527210E+03  0.20610875120E+03  0.17300000000E+03 0. -1.
         -6    1    1    2    0  501 -0.23495858984E+02 -0.22464357596E+02 -0.67873227874E+02  0.18865968783E+03  0.17300000000E+03 0.  1.
</event>
<event>
 4    1  0.1089518E+000  0.1000000E+03  0.7546771E-02  0.1280296E+00
          2   -1    0    0  502    0  0.00000000000E+00  0.00000000000E+00  0.68701834184E+03  0.68701834184E+03  0.00000000000E+00 0. -1.
         -2   -1    0    0    0  501 -0.00000000000E+00 -0.00000000000E+00 -0.17772204249E+03  0.17772204249E+03  0.00000000000E+00 0.  1.
          6    1    1    2  502    0 -0.16209376259E+03 -0.69709064661E+02 -0.51049713946E+02  0.25232680171E+03  0.17300000000E+03 0. -1.
         -6    1    1    2    0  501  0.16209376259E+03  0.69709064661E+02  0.56034601330E+03  0.61241358263E+03  0.17300000000E+03 0.  1.
</event>
<event>
 4    1  0.1089518E+000  0.1000000E+03  0.7546771E-02  0.1280296E+00
          2   -1    0    0  502    0  0.00000000000E+00  0.00000000000E+00  0.19573838254E+04  0.19573838254E+04  0.00000000000E+00 0.  1.
         -2   -1    0    0    0  501 -0.00000000000E+00 -0.00000000000E+00 -0.16437254456E+02  0.16437254456E+02  0.00000000000E+00 0. -1.
          6    1    1    2  502    0 -0.46999678541E+02 -0.36432869411E+01  0.99672950862E+03  0.10127294588E+04  0.17300000000E+03 0.  1.
         -6    1    1    2    0  501  0.46999678541E+02  0.36432869411E+01  0.94421706235E+03  0.96109162110E+03  0.17300000000E+03 0. -1.
</event>
<event>
 4    1  0.1089518E+000  0.1000000E+03  0.7546771E-02  0.1280296E+00
          1   -1    0    0  502    0  0.00000000000E+00  0.00000000000E+00  0.94814150556E+03  0.94814150556E+03  0.00000000000E+00 0.  1.
         -1   -1    0    0    0  501 -0.00000000000E+00 -0.00000000000E+00 -0.54076377101E+02  0.54076377101E+02  0.00000000000E+00 0. -1.
          6    1    1    2  502    0  0.59492134282E+02  0.31153577528E+02  0.73416026732E+03  0.75725171347E+03  0.17300000000E+03 0.  1.
         -6    1    1    2    0  501 -0.59492134282E+02 -0.31153577528E+02  0.15990486113E+03  0.24496616919E+03  0.17300000000E+03 0. -1.
</event>
<event>
 4    1  0.1089518E+000  0.1000000E+03  0.7546771E-02  0.1280296E+00
          2   -1    0    0  502    0  0.00000000000E+00  0.00000000000E+00  0.99119323110E+03  0.99119323110E+03  0.00000000000E+00 0. -1.
         -2   -1    0    0    0  501 -0.00000000000E+00 -0.00000000000E+00 -0.65193670478E+02  0.65193670478E+02  0.00000000000E+00 0.  1.
          6    1    1    2  502    0  0.17071534174E+03  0.41522880741E+02  0.33453228715E+03  0.41558239697E+03  0.17300000000E+03 0.  1.
         -6    1    1    2    0  501 -0.17071534174E+03 -0.41522880741E+02  0.59146727348E+03  0.64080450461E+03  0.17300000000E+03 0. -1.
</event>
<event>
 4    1  0.1089518E+000  0.1000000E+03  0.7546771E-02  0.1280296E+00
          1   -1    0    0  502    0  0.00000000000E+00  0.00000000000E+00  0.61748961675E+03  0.61748961675E+03  0.00000000000E+00 0. -1.
         -1   -1    0    0    0  501 -0.00000000000E+00 -0.00000000000E+00 -0.94746458234E+02  0.94746458234E+02  0.00000000000E+00 0.  1.
          6    1    1    2  502    0  0.14032816078E+03 -0.61643093085E+02  0.36635102805E+03  0.43316733416E+03  0.17300000000E+03 0.  1.
         -6    1    1    2    0  501 -0.14032816078E+03  0.61643093085E+02  0.15639213047E+03  0.27906874082E+03  0.17300000000E+03 0. -1.
</event>
<event>
 4    1  0.1089518E+000  0.1000000E+03  0.7546771E-02  0.1280296E+00
          1   -1    0    0  502    0  0.00000000000E+00  0.00000000000E+00  0.21404635077E+03  0.21404635077E+03  0.00000000000E+00 0. -1.
         -1   -1    0    0    0  501 -0.00000000000E+00 -0.00000000000E+00 -0.31166901164E+03  0.31166901164E+03  0.00000000000E+00 0.  1.
          6    1    1    2  502    0  0.64163649373E+02 -0.83617215897E+02 -0.21187793920E+03  0.29313831857E+03  0.17300000000E+03 0.  1.
         -6    1    1    2    0  501 -0.64163649373E+02  0.83617215897E+02  0.11425527833E+03  0.23257704384E+03  0.17300000000E+03 0. -1.
</event>
<event>
 4    1  0.1089518E+000  0.1000000E+03  0.7546771E-02  0.1280296E+00
          1   -1    0    0  502    0  0.00000000000E+00  0.00000000000E+00  0.12651154600E+03  0.12651154600E+03  0.00000000000E+00 0.  1.
         -1   -1    0    0    0  501 -0.00000000000E+00 -0.00000000000E+00 -0.55727079368E+03  0.55727079368E+03  0.00000000000E+00 0. -1.
          6    1    1    2  502    0  0.16280861772E+03  0.49013849418E+01 -0.36795931241E+03  0.43801110165E+03  0.17300000000E+03 0.  1.
         -6    1    1    2    0  501 -0.16280861772E+03 -0.49013849418E+01 -0.62799935273E+02  0.24577123804E+03  0.17300000000E+03 0. -1.
</event>
<event>
 4    1  0.1089518E+000  0.1000000E+03  0.7546771E-02  0.1280296E+00
          1   -1    0    0  502    0  0.00000000000E+00  0.00000000000E+00  0.49137667471E+03  0.49137667471E+03  0.00000000000E+00 0. -1.
         -1   -1    0    0    0  501 -0.00000000000E+00 -0.00000000000E+00 -0.87335123350E+02  0.87335123350E+02  0.00000000000E+00 0.  1.
          6    1    1    2  502    0  0.92854889192E+02  0.27660667865E+02  0.28580828055E+03  0.34785415942E+03  0.17300000000E+03 0. -1.
         -6    1    1    2    0  501 -0.92854889192E+02 -0.27660667865E+02  0.11823327082E+03  0.23085763865E+03  0.17300000000E+03 0.  1.
</event>
<event>
 4    1  0.1089518E+000  0.1000000E+03  0.7546771E-02  0.1280296E+00
         -2   -1    0    0    0  501 -0.00000000000E+00  0.00000000000E+00  0.13943716208E+03  0.13943716208E+03  0.00000000000E+00 0. -1.
          2   -1    0    0  502    0  0.00000000000E+00 -0.00000000000E+00 -0.12478122924E+04  0.12478122924E+04  0.00000000000E+00 0.  1.
          6    1    1    2  502    0  0.95451349786E+02  0.55818295149E+02  0.49590439073E+02  0.21122228551E+03  0.17300000000E+03 0. -1.
         -6    1    1    2    0  501 -0.95451349786E+02 -0.55818295149E+02 -0.11579655694E+04  0.11760271690E+04  0.17300000000E+03 0.  1.
</event>
<event>
 4    1  0.1089518E+000  0.1000000E+03  0.7546771E-02  0.1280296E+00
         -1   -1    0    0    0  501 -0.00000000000E+00  0.00000000000E+00  0.36594111745E+03  0.36594111745E+03  0.00000000000E+00 0. -1.
          1   -1    0    0  502    0  0.00000000000E+00 -0.00000000000E+00 -0.24418412217E+03  0.24418412217E+03  0.00000000000E+00 0.  1.
          6    1    1    2  502    0  0.13152393678E+03 -0.48043266737E+02  0.26452757493E+03  0.34570296401E+03  0.17300000000E+03 0. -1.
         -6    1    1    2    0  501 -0.13152393678E+03  0.48043266737E+02 -0.14277057966E+03  0.26442227561E+03  0.17300000000E+03 0.  1.
</event>
<event>
 4    1  0.1089518E+000  0.1000000E+03  0.7546771E-02  0.1280296E+00
         -1   -1    0    0    0  501 -0.00000000000E+00  0.00000000000E+00  0.10420564181E+03  0.10420564181E+03  0.00000000000E+00 0.  1.
          1   -1    0    0  502    0  0.00000000000E+00 -0.00000000000E+00 -0.17171315113E+04  0.17171315113E+04  0.00000000000E+00 0. -1.
          6    1    1    2  502    0 -0.23936504245E+03 -0.10995777298E+03 -0.14139297499E+04  0.14486244072E+04  0.17300000000E+03 0. -1.
         -6    1    1    2    0  501  0.23936504245E+03  0.10995777298E+03 -0.19899611961E+03  0.37271274597E+03  0.17300000000E+03 0.  1.
</event>
<event>
 4    1  0.1089518E+000  0.1000000E+03  0.7546771E-02  0.1280296E+00
         -2   -1    0    0    0  501 -0.00000000000E+00  0.00000000000E+00  0.41661578997E+03  0.41661578997E+03  0.00000000000E+00 0.  1.
          2   -1    0    0  502    0  0.00000000000E+00 -0.00000000000E+00 -0.21481651550E+03  0.21481651550E+03  0.00000000000E+00 0. -1.
          6    1    1    2  502    0 -0.66469090486E+02  0.61884901947E+02  0.33997482143E+03  0.39212212420E+03  0.17300000000E+03 0. -1.
         -6    1    1    2    0  501  0.66469090486E+02 -0.61884901947E+02 -0.13817554696E+03  0.23931018126E+03  0.17300000000E+03 0.  1.
</event>
<event>
 4    1  0.1089518E+000  0.1000000E+03  0.7546771E-02  0.1280296E+00
         -2   -1    0    0    0  501 -0.00000000000E+00  0.00000000000E+00  0.11869547586E+03  0.11869547586E+03  0.00000000000E+00 0.  1.
          2   -1    0    0  502    0  0.00000000000E+00 -0.00000000000E+00 -0.45367025866E+03  0.45367025866E+03  0.00000000000E+00 0. -1.
          6    1    1    2  502    0  0.12855946351E+03 -0.85601802327E+02 -0.15759025637E+03  0.28039060812E+03  0.17300000000E+03 0. -1.
         -6    1    1    2    0  501 -0.12855946351E+03  0.85601802327E+02 -0.17738452642E+03  0.29197512640E+03  0.17300000000E+03 0.  1.
</event>
<event>
 4    1  0.1089518E+000  0.1000000E+03  0.7546771E-02  0.1280296E+00
         -3   -1    0    0    0  501 -0.00000000000E+00  0.00000000000E+00  0.34125836612E+03  0.34125836612E+03  0.00000000000E+00 0.  1.
          3   -1    0    0  502    0  0.00000000000E+00 -0.00000000000E+00 -0.20652657681E+03  0.20652657681E+03  0.00000000000E+00 0. -1.
          6    1    1    2  502    0 -0.13052723735E+03  0.10919436298E+03  0.17843066599E+03  0.30120967973E+03  0.17300000000E+03 0. -1.
         -6    1    1    2    0  501  0.13052723735E+03 -0.10919436298E+03 -0.43698876685E+02  0.24657526320E+03  0.17300000000E+03 0.  1.
</event>
<event>
 4    1  0.1089518E+000  0.1000000E+03  0.7546771E-02  0.1280296E+00
         -2   -1    0    0    0  501 -0.00000000000E+00  0.00000000000E+00  0.96159573393E+02  0.96159573393E+02  0.00000000000E+00 0. -1.
          2   -1    0    0  502    0  0.00000000000E+00 -0.00000000000E+00 -0.23437146321E+04  0.23437146321E+04  0.00000000000E+00 0.  1.
          6    1    1    2  502    0 -0.12884438390E+03  0.39648518847E+03 -0.15018017604E+04  0.15681641838E+04  0.17300000000E+03 0.  1.
         -6    1    1    2    0  501  0.12884438390E+03 -0.39648518847E+03 -0.74575329838E+03  0.87171002173E+03  0.17300000000E+03 0. -1.
</event>
<event>
 4    1  0.1089518E+000  0.1000000E+03  0.7546771E-02  0.1280296E+00
         -1   -1    0    0    0  501 -0.00000000000E+00  0.00000000000E+00  0.26181995518E+03  0.26181995518E+03  0.00000000000E+00 0.  1.
          1   -1    0    0  502    0  0.00000000000E+00 -0.00000000000E+00 -0.14117847755E+03  0.14117847755E+03  0.00000000000E+00 0. -1.
          6    1    1    2  502    0  0.47986244852E+02  0.94030571829E+01 -0.11095761588E+02  0.18011999640E+03  0.17300000000E+03 0. -1.
         -6    1    1    2    0  501 -0.47986244852E+02 -0.94030571829E+01  0.13173723922E+03  0.22287843632E+03  0.17300000000E+03 0.  1.
</event>
<event>
 4    1  0.1089518E+000  0.1000000E+03  0.7546771E-02  0.1280296E+00
         -2   -1    0    0    0  501 -0.00000000000E+00  0.00000000000E+00  0.11411695317E+03  0.11411695317E+03  0.00000000000E+00 0.  1.
          2   -1    0    0  502    0  0.00000000000E+00 -0.00000000000E+00 -0.88561648028E+03  0.88561648028E+03  0.00000000000E+00 0. -1.
          6    1    1    2  502    0  0.11627622969E+03 -0.71552447584E+01 -0.76300030357E+03  0.79099293446E+03  0.17300000000E+03 0. -1.
         -6    1    1    2    0  501 -0.11627622969E+03  0.71552447584E+01 -0.84992235455E+01  0.20874049899E+03  0.17300000000E+03 0.  1.
</event>
<event>
 4    1  0.1089518E+000  0.1000000E+03  0.7546771E-02  0.1280296E+00
          1   -1    0    0  502    0  0.00000000000E+00  0.00000000000E+00  0.12968515787E+03  0.12968515787E+03  0.00000000000E+00 0.  1.
         -1   -1    0    0    0  501 -0.00000000000E+00 -0.00000000000E+00 -0.32825995176E+03  0.32825995176E+03  0.00000000000E+00 0. -1.
          6    1    1    2  502    0  0.98947591214E+02 -0.12984083299E+02 -0.41812597289E+02  0.20405025243E+03  0.17300000000E+03 0.  1.
         -6    1    1    2    0  501 -0.98947591214E+02  0.12984083299E+02 -0.15676219661E+03  0.25389485720E+03  0.17300000000E+03 0. -1.
</event>
<event>
 4    1  0.1089518E+000  0.1000000E+03  0.7546771E-02  0.1280296E+00
          2   -1    0    0  502    0  0.00000000000E+00  0.00000000000E+00  0.23310489236E+04  0.23310489236E+04  0.00000000000E+00 0.  1.
         -2   -1    0    0    0  501 -0.00000000000E+00 -0.00000000000E+00 -0.29996662600E+02  0.29996662600E+02  0.00000000000E+00 0. -1.
          6    1    1    2  502    0  0.66115285212E+02 -0.18660137428E+03  0.12770649762E+04  0.13038463319E+04  0.17300000000E+03 0.  1.
         -6    1    1    2    0  501 -0.66115285212E+02  0.18660137428E+03  0.10239872848E+04  0.10571992543E+04  0.17300000000E+03 0. -1.
</event>
<event>
 4    1  0.1089518E+000  0.1000000E+03  0.7546771E-02  0.1280296E+00
          1   -1    0    0  502    0  0.00000000000E+00  0.00000000000E+00  0.73147379133E+03  0.73147379133E+03  0.00000000000E+00 0.  1.
         -1   -1    0    0    0  501 -0.00000000000E+00 -0.00000000000E+00 -0.68847814267E+02  0.68847814267E+02  0.00000000000E+00 0. -1.
          6    1    1    2  502    0  0.14154273097E+02  0.13252287047E+03  0.42343032028E+03  0.47642931352E+03  0.17300000000E+03 0.  1.
         -6    1    1    2    0  501 -0.14154273097E+02 -0.13252287047E+03  0.23919565678E+03  0.32389229208E+03  0.17300000000E+03 0. -1.
</event>
<event>
 4    1  0.1089518E+000  0.1000000E+03  0.7546771E-02  0.1280296E+00
          2   -1    0    0  502    0  0.00000000000E+00  0.00000000000E+00  0.75903506840E+03  0.75903506840E+03  0.00000000000E+00 0.  1.
         -2   -1    0    0    0  501 -0.00000000000E+00 -0.00000000000E+00 -0.18317434664E+03  0.18317434664E+03  0.00000000000E+00 0. -1.
          6    1    1    2  502    0  0.12945362033E+02  0.24427060327E+03  0.56837689317E+03  0.64250836781E+03  0.17300000000E+03 0.  1.
         -6    1    1    2    0  501 -0.12945362033E+02 -0.24427060327E+03  0.74838285950E+01  0.29970104723E+03  0.17300000000E+03 0. -1.
</event>
<event>
 4    1  0.1089518E+000  0.1000000E+03  0.7546771E-02  0.1280296E+00
          1   -1    0    0  502    0  0.00000000000E+00  0.00000000000E+00  0.12556989024E+03  0.12556989024E+03  0.00000000000E+00 0.  1.
         -1   -1    0    0    0  501 -0.00000000000E+00 -0.00000000000E+00 -0.31884758254E+03  0.31884758254E+03  0.00000000000E+00 0. -1.
          6    1    1    2  502    0 -0.99786366736E+02  0.61416052316E+01 -0.10847606541E+03  0.22735675725E+03  0.17300000000E+03 0.  1.
         -6    1    1    2    0  501  0.99786366736E+02 -0.61416052316E+01 -0.84801626892E+02  0.21706071553E+03  0.17300000000E+03 0. -1.
</event>
<event>
 4    1  0.1089518E+000  0.1000000E+03  0.7546771E-02  0.1280296E+00
          2   -1    0    0  502    0  0.00000000000E+00  0.00000000000E+00  0.10751111076E+04  0.10751111076E+04  0.00000000000E+00 0.  1.
         -2   -1    0    0    0  501 -0.00000000000E+00 -0.00000000000E+00 -0.41819379413E+02  0.41819379413E+02  0.00000000000E+00 0. -1.
          6    1    1    2  502    0 -0.36046614159E+02 -0.11401632192E+03  0.58792372087E+03  0.62440562267E+03  0.17300000000E+03 0.  1.
         -6    1    1    2    0  501  0.36046614159E+02  0.11401632192E+03  0.44536800729E+03  0.49252486432E+03  0.17300000000E+03 0. -1.
</event>
<event>
 4    1  0.1089518E+000  0.1000000E+03  0.7546771E-02  0.1280296E+00
          2   -1    0    0  502    0  0.00000000000E+00  0.00000000000E+00  0.19518088605E+04  0.19518088605E+04  0.00000000000E+00 0.  1.
         -2   -1    0    0    0  501 -0.00000000000E+00 -0.00000000000E+00 -0.12397260736E+03  0.12397260736E+03  0.00000000000E+00 0. -1.
          6    1    1    2  502    0 -0.21736947465E+03 -0.34885948888E+03  0.47593703869E+03  0.65222503501E+03  0.17300000000E+03 0. -1.
         -6    1    1    2    0  501  0.21736947465E+03  0.34885948888E+03  0.13518992144E+04  0.14235564329E+04  0.17300000000E+03 0.  1.
</event>
<event>
 4    1  0.1089518E+000  0.1000000E+03  0.7546771E-02  0.1280296E+00
          2   -1    0    0  502    0  0.00000000000E+00  0.00000000000E+00  0.62288622324E+03  0.62288622324E+03  0.00000000000E+00 0. -1.
         -2   -1    0    0    0  501 -0.00000000000E+00 -0.00000000000E+00 -0.70264874063E+02  0.70264874063E+02  0.00000000000E+00 0.  1.
          6    1    1    2  502    0 -0.37045602521E+02  0.89312025244E+02  0.38730469604E+03  0.43506659501E+03  0.17300000000E+03 0. -1.
         -6    1    1    2    0  501  0.37045602521E+02 -0.89312025244E+02  0.16531665314E+03  0.25808450230E+03  0.17300000000E+03 0.  1.
</event>
<event>
 4    1  0.1089518E+000  0.1000000E+03  0.7546771E-02  0.1280296E+00
          2   -1    0    0  502    0  0.00000000000E+00  0.00000000000E+00  0.82539796926E+03  0.82539796926E+03  0.00000000000E+00 0. -1.
         -2   -1    0    0    0  501 -0.00000000000E+00 -0.00000000000E+00 -0.62212698463E+02  0.62212698463E+02  0.00000000000E+00 0.  1.
          6    1    1    2  502    0 -0.11717974977E+03  0.34065254093E+02  0.53985144822E+03  0.57987940249E+03  0.17300000000E+03 0. -1.
         -6    1    1    2    0  501  0.11717974977E+03 -0.34065254093E+02  0.22333382257E+03  0.30773126523E+03  0.17300000000E+03 0.  1.
</event>
<event>
 4    1  0.1089518E+000  0.1000000E+03  0.7546771E-02  0.1280296E+00
          2   -1    0    0  502    0  0.00000000000E+00  0.00000000000E+00  0.28493952268E+04  0.28493952268E+04  0.00000000000E+00 0.  1.
         -2   -1    0    0    0  501 -0.00000000000E+00 -0.00000000000E+00 -0.19389051253E+02  0.19389051253E+02  0.00000000000E+00 0. -1.
          6    1    1    2  502    0 -0.80095583052E+02  0.67110588505E+02  0.21472852923E+04  0.21567758947E+04  0.17300000000E+03 0. -1.
         -6    1    1    2    0  501  0.80095583052E+02 -0.67110588505E+02  0.68272088320E+03  0.71200838328E+03  0.17300000000E+03 0.  1.
</event>
<event>
 4    1  0.1089518E+000  0.1000000E+03  0.7546771E-02  0.1280296E+00
          1   -1    0    0  502    0  0.00000000000E+00  0.00000000000E+00  0.10378319954E+04  0.10378319954E+04  0.00000000000E+00 0.  1.
         -1   -1    0    0    0  501 -0.00000000000E+00 -0.00000000000E+00 -0.34335419311E+02  0.34335419311E+02  0.00000000000E+00 0. -1.
          6    1    1    2  502    0  0.54798807822E+02 -0.15740156310E+02  0.36104631115E+03  0.40439349729E+03  0.17300000000E+03 0. -1.
         -6    1    1    2    0  501 -0.54798807822E+02  0.15740156310E+02  0.64245026490E+03  0.66777391738E+03  0.17300000000E+03 0.  1.
</event>
<event>
 4    1  0.1089518E+000  0.1000000E+03  0.7546771E-02  0.1280296E+00
          2   -1    0    0  502    0  0.00000000000E+00  0.00000000000E+00  0.22315014044E+03  0.22315014044E+03  0.00000000000E+00 0.  1.
         -2   -1    0    0    0  501 -0.00000000000E+00 -0.00000000000E+00 -0.21663240616E+03  0.21663240616E+03  0.00000000000E+00 0. -1.
          6    1    1    2  502    0 -0.63242408105E+02 -0.15036707589E+02 -0.11586276745E+03  0.21812584817E+03  0.17300000000E+03 0. -1.
         -6    1    1    2    0  501  0.63242408105E+02  0.15036707589E+02  0.12238050172E+03  0.22165669843E+03  0.17300000000E+03 0.  1.
</event>
<event>
 4    1  0.1089518E+000  0.1000000E+03  0.7546771E-02  0.1280296E+00
          1   -1    0    0  502    0  0.00000000000E+00  0.00000000000E+00  0.27427357611E+03  0.27427357611E+03  0.00000000000E+00 0.  1.
         -1   -1    0    0    0  501 -0.00000000000E+00 -0.00000000000E+00 -0.29023445326E+03  0.29023445326E+03  0.00000000000E+00 0. -1.
          6    1    1    2  502    0  0.15935016828E+02 -0.94973482851E+02  0.19309933932E+03  0.27656869319E+03  0.17300000000E+03 0. -1.
         -6    1    1    2    0  501 -0.15935016828E+02  0.94973482851E+02 -0.20906021647E+03  0.28793933618E+03  0.17300000000E+03 0.  1.
</event>
<event>
 4    1  0.1089518E+000  0.1000000E+03  0.7546771E-02  0.1280296E+00
          2   -1    0    0  502    0  0.00000000000E+00  0.00000000000E+00  0.14184369249E+04  0.14184369249E+04  0.00000000000E+00 0. -1.
         -2   -1    0    0    0  501 -0.00000000000E+00 -0.00000000000E+00 -0.24728338922E+02  0.24728338922E+02  0.00000000000E+00 0.  1.
          6    1    1    2  502    0 -0.36938608490E+02 -0.93114511617E+01  0.93106987630E+03  0.94777174387E+03  0.17300000000E+03 0. -1.
         -6    1    1    2    0  501  0.36938608490E+02  0.93114511617E+01  0.46263870966E+03  0.49539351993E+03  0.17300000000E+03 0.  1.
</event>
<event>
 4    1  0.1089518E+000  0.1000000E+03  0.7546771E-02  0.1280296E+00
          2   -1    0    0  502    0  0.00000000000E+00  0.00000000000E+00  0.12509745335E+04  0.12509745335E+04  0.00000000000E+00 0. -1.
         -2   -1    0    0    0  501 -0.00000000000E+00 -0.00000000000E+00 -0.91674080043E+02  0.91674080043E+02  0.00000000000E+00 0.  1.
          6    1    1    2  502    0 -0.18535230309E+02  0.22499000254E+03  0.94404469731E+03  0.98595813629E+03  0.17300000000E+03 0. -1.
         -6    1    1    2    0  501  0.18535230309E+02 -0.22499000254E+03  0.21525575616E+03  0.35669047726E+03  0.17300000000E+03 0.  1.
</event>
<event>
 4    1  0.1089518E+000  0.1000000E+03  0.7546771E-02  0.1280296E+00
          1   -1    0    0  502    0  0.00000000000E+00  0.00000000000E+00  0.22357920969E+03  0.22357920969E+03  0.00000000000E+00 0. -1.
         -1   -1    0    0    0  501 -0.00000000000E+00 -0.00000000000E+00 -0.16884992950E+03  0.16884992950E+03  0.00000000000E+00 0.  1.
          6    1    1    2  502    0 -0.65934339325E+02  0.54862146736E+02  0.55846504943E+01  0.19317707050E+03  0.17300000000E+03 0. -1.
         -6    1    1    2    0  501  0.65934339325E+02 -0.54862146736E+02  0.49144629700E+02  0.19925206868E+03  0.17300000000E+03 0.  1.
</event>
<event>
 4    1  0.1089518E+000  0.1000000E+03  0.7546771E-02  0.1280296E+00
          2   -1    0    0  502    0  0.00000000000E+00  0.00000000000E+00  0.27244958192E+03  0.27244958192E+03  0.00000000000E+00 0. -1.
         -2   -1    0    0    0  501 -0.00000000000E+00 -0.00000000000E+00 -0.20837229819E+03  0.20837229819E+03  0.00000000000E+00 0.  1.
          6    1    1    2  502    0 -0.11871283488E+03  0.45505154403E+01  0.14587468623E+03  0.25558143211E+03  0.17300000000E+03 0. -1.
         -6    1    1    2    0  501  0.11871283488E+03 -0.45505154403E+01 -0.81797402498E+02  0.22524044799E+03  0.17300000000E+03 0.  1.
</event>
<event>
 4    1  0.1089518E+000  0.1000000E+03  0.7546771E-02  0.1280296E+00
          2   -1    0    0  502    0  0.00000000000E+00  0.00000000000E+00  0.77192469884E+03  0.77192469884E+03  0.00000000000E+00 0. -1.
         -2   -1    0    0    0  501 -0.00000000000E+00 -0.00000000000E+00 -0.50886465719E+02  0.50886465719E+02  0.00000000000E+00 0.  1.
          6    1    1    2  502    0 -0.35254299290E+02 -0.71547830622E+02  0.24702186291E+03  0.31194672372E+03  0.17300000000E+03 0. -1.
         -6    1    1    2    0  501  0.35254299290E+02  0.71547830622E+02  0.47401637021E+03  0.51086444084E+03  0.17300000000E+03 0.  1.
</event>
<event>
 4    1  0.1089518E+000  0.1000000E+03  0.7546771E-02  0.1280296E+00
          1   -1    0    0  502    0  0.00000000000E+00  0.00000000000E+00  0.18729092279E+03  0.18729092279E+03  0.00000000000E+00 0. -1.
         -1   -1    0    0    0  501 -0.00000000000E+00 -0.00000000000E+00 -0.18290494367E+03  0.18290494367E+03  0.00000000000E+00 0.  1.
          6    1    1    2  502    0  0.86754804727E+01 -0.25529687702E+02 -0.57814611810E+02  0.18438697962E+03  0.17300000000E+03 0.  1.
         -6    1    1    2    0  501 -0.86754804727E+01  0.25529687702E+02  0.62200590926E+02  0.18580888684E+03  0.17300000000E+03 0. -1.
</event>
<event>
 4    1  0.1089518E+000  0.1000000E+03  0.7546771E-02  0.1280296E+00
          1   -1    0    0  502    0  0.00000000000E+00  0.00000000000E+00  0.72342849650E+03  0.72342849650E+03  0.00000000000E+00 0. -1.
         -1   -1    0    0    0  501 -0.00000000000E+00 -0.00000000000E+00 -0.67798267692E+02  0.67798267692E+02  0.00000000000E+00 0.  1.
          6    1    1    2  502    0  0.13247742573E+03  0.25014416981E+02  0.27298267052E+03  0.35017785166E+03  0.17300000000E+03 0.  1.
         -6    1    1    2    0  501 -0.13247742573E+03 -0.25014416981E+02  0.38264755829E+03  0.44104891254E+03  0.17300000000E+03 0. -1.
</event>
<event>
 4    1  0.1089518E+000  0.1000000E+03  0.7546771E-02  0.1280296E+00
         -2   -1    0    0    0  501 -0.00000000000E+00  0.00000000000E+00  0.38473797191E+03  0.38473797191E+03  0.00000000000E+00 0. -1.
          2   -1    0    0  502    0  0.00000000000E+00 -0.00000000000E+00 -0.36009930421E+03  0.36009930421E+03  0.00000000000E+00 0.  1.
          6    1    1    2  502    0  0.18100139288E+03 -0.16232273257E+03 -0.21029902007E+03  0.36505458711E+03  0.17300000000E+03 0.  1.
         -6    1    1    2    0  501 -0.18100139288E+03  0.16232273257E+03  0.23493768777E+03  0.37978268900E+03  0.17300000000E+03 0. -1.
</event>
<event>
 4    1  0.1089518E+000  0.1000000E+03  0.7546771E-02  0.1280296E+00
         -2   -1    0    0    0  501 -0.00000000000E+00  0.00000000000E+00  0.16257098300E+03  0.16257098300E+03  0.00000000000E+00 0. -1.
          2   -1    0    0  502    0  0.00000000000E+00 -0.00000000000E+00 -0.20821524576E+04  0.20821524576E+04  0.00000000000E+00 0.  1.
          6    1    1    2  502    0  0.43431410306E+03  0.28381124806E+03 -0.13426627398E+04  0.14497757749E+04  0.17300000000E+03 0.  1.
         -6    1    1    2    0  501 -0.43431410306E+03 -0.28381124806E+03 -0.57691873478E+03  0.79494766569E+03  0.17300000000E+03 0. -1.
</event>
<event>
 4    1  0.1089518E+000  0.1000000E+03  0.7546771E-02  0.1280296E+00
         -3   -1    0    0    0  501 -0.00000000000E+00  0.00000000000E+00  0.81949457906E+03  0.81949457906E+03  0.00000000000E+00 0. -1.
          3   -1    0    0  502    0  0.00000000000E+00 -0.00000000000E+00 -0.61680269423E+02  0.61680269423E+02  0.00000000000E+00 0.  1.
          6    1    1    2  502    0 -0.94488865367E+02 -0.10692538234E+03  0.41029045333E+03  0.46757720129E+03  0.17300000000E+03 0.  1.
         -6    1    1    2    0  501  0.94488865367E+02  0.10692538234E+03  0.34752385631E+03  0.41359764720E+03  0.17300000000E+03 0. -1.
</event>
<event>
 4    1  0.1089518E+000  0.1000000E+03  0.7546771E-02  0.1280296E+00
         -2   -1    0    0    0  501 -0.00000000000E+00  0.00000000000E+00  0.30743353724E+02  0.30743353724E+02  0.00000000000E+00 0. -1.
          2   -1    0    0  502    0  0.00000000000E+00 -0.00000000000E+00 -0.12662921345E+04  0.12662921345E+04  0.00000000000E+00 0.  1.
          6    1    1    2  502    0 -0.45407277218E+01  0.90795710260E+02 -0.70697987315E+03  0.73349439006E+03  0.17300000000E+03 0.  1.
         -6    1    1    2    0  501  0.45407277218E+01 -0.90795710260E+02 -0.52856890759E+03  0.56354109813E+03  0.17300000000E+03 0. -1.
</event>
<event>
 4    1  0.1089518E+000  0.1000000E+03  0.7546771E-02  0.1280296E+00
         -2   -1    0    0    0  501 -0.00000000000E+00  0.00000000000E+00  0.84233882776E+02  0.84233882776E+02  0.00000000000E+00 0. -1.
          2   -1    0    0  502    0  0.00000000000E+00 -0.00000000000E+00 -0.77235102317E+03  0.77235102317E+03  0.00000000000E+00 0.  1.
          6    1    1    2  502    0 -0.41485261183E+02  0.18188662358E+03 -0.37434640770E+03  0.45262346790E+03  0.17300000000E+03 0.  1.
         -6    1    1    2    0  501  0.41485261183E+02 -0.18188662358E+03 -0.31377073269E+03  0.40396143804E+03  0.17300000000E+03 0. -1.
</event>
<event>
 4    1  0.1089518E+000  0.1000000E+03  0.7546771E-02  0.1280296E+00
         -2   -1    0    0    0  501 -0.00000000000E+00  0.00000000000E+00  0.18487404850E+02  0.18487404850E+02  0.00000000000E+00 0. -1.
          2   -1    0    0  502    0  0.00000000000E+00 -0.00000000000E+00 -0.25124724694E+04  0.25124724694E+04  0.00000000000E+00 0.  1.
          6    1    1    2  502    0 -0.10063356797E+03 -0.79826404544E+02 -0.12737240015E+04  0.12918208862E+04  0.17300000000E+03 0.  1.
         -6    1    1    2    0  501  0.10063356797E+03  0.79826404544E+02 -0.12202610630E+04  0.12391389881E+04  0.17300000000E+03 0. -1.
</event>
<event>
 4    1  0.1089518E+000  0.1000000E+03  0.7546771E-02  0.1280296E+00
         -1   -1    0    0    0  501 -0.00000000000E+00  0.00000000000E+00  0.73404985484E+02  0.73404985484E+02  0.00000000000E+00 0. -1.
          1   -1    0    0  502    0  0.00000000000E+00 -0.00000000000E+00 -0.49844783230E+03  0.49844783230E+03  0.00000000000E+00 0.  1.
          6    1    1    2  502    0  0.32350825699E+02  0.74740965063E+02 -0.20478766661E+03  0.28017811509E+03  0.17300000000E+03 0.  1.
         -6    1    1    2    0  501 -0.32350825699E+02 -0.74740965063E+02 -0.22025518021E+03  0.29167470269E+03  0.17300000000E+03 0. -1.
</event>
<event>
 4    1  0.1089518E+000  0.1000000E+03  0.7546771E-02  0.1280296E+00
         -1   -1    0    0    0  501 -0.00000000000E+00  0.00000000000E+00  0.58517780249E+03  0.58517780249E+03  0.00000000000E+00 0. -1.
          1   -1    0    0  502    0  0.00000000000E+00 -0.00000000000E+00 -0.98652148267E+02  0.98652148267E+02  0.00000000000E+00 0.  1.
          6    1    1    2  502    0  0.10507886790E+03 -0.12800138905E+03  0.21573776680E+03  0.32233167406E+03  0.17300000000E+03 0.  1.
         -6    1    1    2    0  501 -0.10507886790E+03  0.12800138905E+03  0.27078788742E+03  0.36149827670E+03  0.17300000000E+03 0. -1.
</event>
<event>
 4    1  0.1089518E+000  0.1000000E+03  0.7546771E-02  0.1280296E+00
         -2   -1    0    0    0  501 -0.00000000000E+00  0.00000000000E+00  0.37441652022E+02  0.37441652022E+02  0.00000000000E+00 0. -1.
          2   -1    0    0  502    0  0.00000000000E+00 -0.00000000000E+00 -0.14235907536E+04  0.14235907536E+04  0.00000000000E+00 0.  1.
          6    1    1    2  502    0  0.12356665808E+03 -0.57171237284E+02 -0.47304936605E+03  0.52176812099E+03  0.17300000000E+03 0.  1.
         -6    1    1    2    0  501 -0.12356665808E+03  0.57171237284E+02 -0.91309973553E+03  0.93926428463E+03  0.17300000000E+03 0. -1.
</event>
<event>
 4    1  0.1089518E+000  0.1000000E+03  0.7546771E-02  0.1280296E+00
         -3   -1    0    0    0  501 -0.00000000000E+00  0.00000000000E+00  0.97602045859E+03  0.97602045859E+03  0.00000000000E+00 0.  1.
          3   -1    0    0  502    0  0.00000000000E+00 -0.00000000000E+00 -0.36366557420E+02  0.36366557420E+02  0.00000000000E+00 0. -1.
          6    1    1    2  502    0  0.60075968442E+02 -0.42198494825E+02  0.43421598874E+03  0.47314095133E+03  0.17300000000E+03 0.  1.
         -6    1    1    2    0  501 -0.60075968442E+02  0.42198494825E+02  0.50543791242E+03  0.53924606467E+03  0.17300000000E+03 0. -1.
</event>
<event>
 4    1  0.1089518E+000  0.1000000E+03  0.7546771E-02  0.1280296E+00
         -2   -1    0    0    0  501 -0.00000000000E+00  0.00000000000E+00  0.34002887683E+03  0.34002887683E+03  0.00000000000E+00 0.  1.
          2   -1    0    0  502    0  0.00000000000E+00 -0.00000000000E+00 -0.49333532157E+03  0.49333532157E+03  0.00000000000E+00 0. -1.
          6    1    1    2  502    0  0.26541381014E+03 -0.15318791786E+03 -0.28983436489E+03  0.45589909834E+03  0.17300000000E+03 0. -1.
         -6    1    1    2    0  501 -0.26541381014E+03  0.15318791786E+03  0.13652792015E+03  0.37746510007E+03  0.17300000000E+03 0.  1.
</event>
<event>
 4    1  0.1089518E+000  0.1000000E+03  0.7546771E-02  0.1280296E+00
         -2   -1    0    0    0  501 -0.00000000000E+00  0.00000000000E+00  0.23827679657E+03  0.23827679657E+03  0.00000000000E+00 0. -1.
          2   -1    0    0  502    0  0.00000000000E+00 -0.00000000000E+00 -0.13309671851E+03  0.13309671851E+03  0.00000000000E+00 0.  1.
          6    1    1    2  502    0  0.20437491738E+02 -0.20727209735E+02  0.84516731736E+02  0.19472900717E+03  0.17300000000E+03 0.  1.
         -6    1    1    2    0  501 -0.20437491738E+02  0.20727209735E+02  0.20663346333E+02  0.17664450791E+03  0.17300000000E+03 0. -1.
</event>
<event>
 4    1  0.1089518E+000  0.1000000E+03  0.7546771E-02  0.1280296E+00
         -3   -1    0    0    0  501 -0.00000000000E+00  0.00000000000E+00  0.28114889389E+03  0.28114889389E+03  0.00000000000E+00 0. -1.
          3   -1    0    0  502    0  0.00000000000E+00 -0.00000000000E+00 -0.13036957839E+03  0.13036957839E+03  0.00000000000E+00 0.  1.
          6    1    1    2  502    0 -0.10653217167E+02  0.81306651791E+02  0.75400472134E+02  0.20576319851E+03  0.17300000000E+03 0.  1.
         -6    1    1    2    0  501  0.10653217167E+02 -0.81306651791E+02  0.75378843364E+02  0.20575527378E+03  0.17300000000E+03 0. -1.
</event>
<event>
 4    1  0.1089518E+000  0.1000000E+03  0.7546771E-02  0.1280296E+00
          2   -1    0    0  502    0  0.00000000000E+00  0.00000000000E+00  0.52344353760E+02  0.52344353760E+02  0.00000000000E+00 0.  1.
         -2   -1    0    0    0  501 -0.00000000000E+00 -0.00000000000E+00 -0.65112046735E+03  0.65112046735E+03  0.00000000000E+00 0. -1.
          6    1    1    2  502    0 -0.63451788298E+02  0.10185542175E+02 -0.30864467294E+03  0.35961146929E+03  0.17300000000E+03 0.  1.
         -6    1    1    2    0  501  0.63451788298E+02 -0.10185542175E+02 -0.29013144065E+03  0.34385335183E+03  0.17300000000E+03 0. -1.
</event>
<event>
 4    1  0.1089518E+000  0.1000000E+03  0.7546771E-02  0.1280296E+00
          1   -1    0    0  502    0  0.00000000000E+00  0.00000000000E+00  0.21414078052E+04  0.21414078052E+04  0.00000000000E+00 0.  1.
         -1   -1    0    0    0  501 -0.00000000000E+00 -0.00000000000E+00 -0.33195791656E+02  0.33195791656E+02  0.00000000000E+00 0. -1.
          6    1    1    2  502    0  0.10220657163E+03 -0.14175033706E+02  0.34178254914E+03  0.39672588239E+03  0.17300000000E+03 0. -1.
         -6    1    1    2    0  501 -0.10220657163E+03  0.14175033706E+02  0.17664294644E+04  0.17778777144E+04  0.17300000000E+03 0.  1.
</event>
<event>
 4    1  0.1089518E+000  0.1000000E+03  0.7546771E-02  0.1280296E+00
         -2   -1    0    0    0  501 -0.00000000000E+00  0.00000000000E+00  0.38987688881E+02  0.38987688881E+02  0.00000000000E+00 0.  1.
          2   -1    0    0  502    0  0.00000000000E+00 -0.00000000000E+00 -0.13209232054E+04  0.13209232054E+04  0.00000000000E+00 0. -1.
          6    1    1    2  502    0  0.54680617795E+02 -0.92642761837E+02 -0.94056408481E+03  0.96237334176E+03  0.17300000000E+03 0. -1.
         -6    1    1    2    0  501 -0.54680617795E+02  0.92642761837E+02 -0.34137143172E+03  0.39753755254E+03  0.17300000000E+03 0.  1.
</event>
<event>
 4    1  0.1089518E+000  0.1000000E+03  0.7546771E-02  0.1280296E+00
          2   -1    0    0  502    0  0.00000000000E+00  0.00000000000E+00  0.31976251795E+03  0.31976251795E+03  0.00000000000E+00 0. -1.
         -2   -1    0    0    0  501 -0.00000000000E+00 -0.00000000000E+00 -0.15591104731E+03  0.15591104731E+03  0.00000000000E+00 0.  1.
          6    1    1    2  502    0 -0.49766329765E+02 -0.70868857128E+02 -0.36815053106E+02  0.19693509241E+03  0.17300000000E+03 0. -1.
         -6    1    1    2    0  501  0.49766329765E+02  0.70868857128E+02  0.20066652375E+03  0.27873847284E+03  0.17300000000E+03 0.  1.
</event>
<event>
 4    1  0.1089518E+000  0.1000000E+03  0.7546771E-02  0.1280296E+00
          1   -1    0    0  502    0  0.00000000000E+00  0.00000000000E+00  0.11149582434E+03  0.11149582434E+03  0.00000000000E+00 0. -1.
         -1   -1    0    0    0  501 -0.00000000000E+00 -0.00000000000E+00 -0.43958660203E+03  0.43958660203E+03  0.00000000000E+00 0.  1.
          6    1    1    2  502    0  0.33034753953E+02 -0.10773859610E+03 -0.64599397849E+02  0.21633534677E+03  0.17300000000E+03 0. -1.
         -6    1    1    2    0  501 -0.33034753953E+02  0.10773859610E+03 -0.26349137984E+03  0.33474707961E+03  0.17300000000E+03 0.  1.
</event>
<event>
 4    1  0.1089518E+000  0.1000000E+03  0.7546771E-02  0.1280296E+00
          3   -1    0    0  502    0  0.00000000000E+00  0.00000000000E+00  0.25195855597E+03  0.25195855597E+03  0.00000000000E+00 0. -1.
         -3   -1    0    0    0  501 -0.00000000000E+00 -0.00000000000E+00 -0.13065307415E+03  0.13065307415E+03  0.00000000000E+00 0.  1.
          6    1    1    2  502    0  0.35293366460E+02  0.21895978615E+02  0.98155823419E+02  0.20319601686E+03  0.17300000000E+03 0. -1.
         -6    1    1    2    0  501 -0.35293366460E+02 -0.21895978615E+02  0.23149658400E+02  0.17941561325E+03  0.17300000000E+03 0.  1.
</event>
<event>
 4    1  0.1089518E+000  0.1000000E+03  0.7546771E-02  0.1280296E+00
          2   -1    0    0  502    0  0.00000000000E+00  0.00000000000E+00  0.55567058406E+03  0.55567058406E+03  0.00000000000E+00 0. -1.
         -2   -1    0    0    0  501 -0.00000000000E+00 -0.00000000000E+00 -0.16368105811E+03  0.16368105811E+03  0.00000000000E+00 0.  1.
          6    1    1    2  502    0 -0.23399797749E+03  0.54825362225E+01  0.10179534845E+03  0.30834461993E+03  0.17300000000E+03 0. -1.
         -6    1    1    2    0  501  0.23399797749E+03 -0.54825362225E+01  0.29019417750E+03  0.41100702224E+03  0.17300000000E+03 0. -1.
</event>
<event>
 4    1  0.1089518E+000  0.1000000E+03  0.7546771E-02  0.1280296E+00
          2   -1    0    0  502    0  0.00000000000E+00  0.00000000000E+00  0.28653783769E+04  0.28653783769E+04  0.00000000000E+00 0. -1.
         -2   -1    0    0    0  501 -0.00000000000E+00 -0.00000000000E+00 -0.32867587183E+02  0.32867587183E+02  0.00000000000E+00 0.  1.
          6    1    1    2  502    0  0.22045650455E+03  0.47270218860E+02  0.19631477834E+04  0.19836112934E+04  0.17300000000E+03 0. -1.
         -6    1    1    2    0  501 -0.22045650455E+03 -0.47270218860E+02  0.86936300631E+03  0.91463467064E+03  0.17300000000E+03 0. -1.
</event>
<event>
 4    1  0.1089518E+000  0.1000000E+03  0.7546771E-02  0.1280296E+00
          2   -1    0    0  502    0  0.00000000000E+00  0.00000000000E+00  0.22178436959E+03  0.22178436959E+03  0.00000000000E+00 0. -1.
         -2   -1    0    0    0  501 -0.00000000000E+00 -0.00000000000E+00 -0.17738731210E+03  0.17738731210E+03  0.00000000000E+00 0.  1.
          6    1    1    2  502    0  0.96431727097E+01 -0.20451561268E+02  0.11713519944E+03  0.21014497873E+03  0.17300000000E+03 0. -1.
         -6    1    1    2    0  501 -0.96431727097E+01  0.20451561268E+02 -0.72738141943E+02  0.18902670296E+03  0.17300000000E+03 0. -1.
</event>
<event>
 4    1  0.1089518E+000  0.1000000E+03  0.7546771E-02  0.1280296E+00
         -1   -1    0    0    0  501 -0.00000000000E+00  0.00000000000E+00  0.17242461813E+03  0.17242461813E+03  0.00000000000E+00 0.  1.
          1   -1    0    0  502    0  0.00000000000E+00 -0.00000000000E+00 -0.29365380633E+03  0.29365380633E+03  0.00000000000E+00 0. -1.
          6    1    1    2  502    0 -0.65976115115E+02  0.12751864201E+03 -0.50773576208E+02  0.23047951724E+03  0.17300000000E+03 0.  1.
         -6    1    1    2    0  501  0.65976115115E+02 -0.12751864201E+03 -0.70455611995E+02  0.23559890723E+03  0.17300000000E+03 0. -1.
</event>
<event>
 4    1  0.1089518E+000  0.1000000E+03  0.7546771E-02  0.1280296E+00
         -3   -1    0    0    0  501 -0.00000000000E+00  0.00000000000E+00  0.19505612969E+03  0.19505612969E+03  0.00000000000E+00 0.  1.
          3   -1    0    0  502    0  0.00000000000E+00 -0.00000000000E+00 -0.18576431799E+03  0.18576431799E+03  0.00000000000E+00 0. -1.
          6    1    1    2  502    0 -0.74515278806E+02  0.30389722572E+01 -0.22633203209E+02  0.18974462842E+03  0.17300000000E+03 0.  1.
         -6    1    1    2    0  501  0.74515278806E+02 -0.30389722572E+01  0.31925014914E+02  0.19107581926E+03  0.17300000000E+03 0. -1.
</event>
<event>
 4    1  0.1089518E+000  0.1000000E+03  0.7546771E-02  0.1280296E+00
         -1   -1    0    0    0  501 -0.00000000000E+00  0.00000000000E+00  0.25333132170E+03  0.25333132170E+03  0.00000000000E+00 0.  1.
          1   -1    0    0  502    0  0.00000000000E+00 -0.00000000000E+00 -0.10012196663E+04  0.10012196663E+04  0.00000000000E+00 0. -1.
          6    1    1    2  502    0 -0.22878201711E+03 -0.15235850716E+03 -0.85335765357E+03  0.91307316846E+03  0.17300000000E+03 0.  1.
         -6    1    1    2    0  501  0.22878201711E+03  0.15235850716E+03  0.10546930902E+03  0.34147781949E+03  0.17300000000E+03 0. -1.
</event>
<event>
 4    1  0.1089518E+000  0.1000000E+03  0.7546771E-02  0.1280296E+00
          2   -1    0    0  502    0  0.00000000000E+00  0.00000000000E+00  0.28580028646E+03  0.28580028646E+03  0.00000000000E+00 0. -1.
         -2   -1    0    0    0  501 -0.00000000000E+00 -0.00000000000E+00 -0.14587765608E+03  0.14587765608E+03  0.00000000000E+00 0.  1.
          6    1    1    2  502    0  0.53966981206E+02 -0.90069847159E+02  0.98675212880E+02  0.22514619709E+03  0.17300000000E+03 0. -1.
         -6    1    1    2    0  501 -0.53966981206E+02  0.90069847159E+02  0.41247417493E+02  0.20653174545E+03  0.17300000000E+03 0.  1.
</event>
<event>
 4    1  0.1089518E+000  0.1000000E+03  0.7546771E-02  0.1280296E+00
          2   -1    0    0  502    0  0.00000000000E+00  0.00000000000E+00  0.11421037071E+04  0.11421037071E+04  0.00000000000E+00 0. -1.
         -2   -1    0    0    0  501 -0.00000000000E+00 -0.00000000000E+00 -0.64993446805E+02  0.64993446805E+02  0.00000000000E+00 0.  1.
          6    1    1    2  502    0  0.18924401549E+02 -0.47468560164E+02  0.86246701064E+02  0.19994721959E+03  0.17300000000E+03 0. -1.
         -6    1    1    2    0  501 -0.18924401549E+02  0.47468560164E+02  0.99086355927E+03  0.10071499344E+04  0.17300000000E+03 0.  1.
</event>
<event>
 4    1  0.1089518E+000  0.1000000E+03  0.7546771E-02  0.1280296E+00
          1   -1    0    0  502    0  0.00000000000E+00  0.00000000000E+00  0.31319804779E+03  0.31319804779E+03  0.00000000000E+00 0. -1.
         -1   -1    0    0    0  501 -0.00000000000E+00 -0.00000000000E+00 -0.14534962219E+03  0.14534962219E+03  0.00000000000E+00 0.  1.
          6    1    1    2  502    0 -0.12224876513E+03  0.25475904534E+02  0.84633457987E+02  0.22953344963E+03  0.17300000000E+03 0. -1.
         -6    1    1    2    0  501  0.12224876513E+03 -0.25475904534E+02  0.83214967615E+02  0.22901422035E+03  0.17300000000E+03 0.  1.
</event>
<event>
 4    1  0.1089518E+000  0.1000000E+03  0.7546771E-02  0.1280296E+00
          1   -1    0    0  502    0  0.00000000000E+00  0.00000000000E+00  0.12369251807E+04  0.12369251807E+04  0.00000000000E+00 0. -1.
         -1   -1    0    0    0  501 -0.00000000000E+00 -0.00000000000E+00 -0.71901739391E+02  0.71901739391E+02  0.00000000000E+00 0.  1.
          6    1    1    2  502    0 -0.43081223931E+02 -0.12998745782E+03  0.10227852391E+04  0.10463132305E+04  0.17300000000E+03 0. -1.
         -6    1    1    2    0  501  0.43081223931E+02  0.12998745782E+03  0.14223820222E+03  0.26251368958E+03  0.17300000000E+03 0.  1.
</event>
<event>
 4    1  0.1089518E+000  0.1000000E+03  0.7546771E-02  0.1280296E+00
          2   -1    0    0  502    0  0.00000000000E+00  0.00000000000E+00  0.45266542391E+03  0.45266542391E+03  0.00000000000E+00 0. -1.
         -2   -1    0    0    0  501 -0.00000000000E+00 -0.00000000000E+00 -0.29115517091E+03  0.29115517091E+03  0.00000000000E+00 0.  1.
          6    1    1    2  502    0  0.31555447815E+03  0.44556936413E+02  0.62807514360E+02  0.36801322411E+03  0.17300000000E+03 0. -1.
         -6    1    1    2    0  501 -0.31555447815E+03 -0.44556936413E+02  0.98702738644E+02  0.37580737071E+03  0.17300000000E+03 0.  1.
</event>
<event>
 4    1  0.1089518E+000  0.1000000E+03  0.7546771E-02  0.1280296E+00
         -1   -1    0    0    0  501 -0.00000000000E+00  0.00000000000E+00  0.71789246002E+03  0.71789246002E+03  0.00000000000E+00 0. -1.
          1   -1    0    0  502    0  0.00000000000E+00 -0.00000000000E+00 -0.18134140065E+03  0.18134140065E+03  0.00000000000E+00 0.  1.
          6    1    1    2  502    0  0.38461356702E+02 -0.11734075985E+03  0.63159655444E+03  0.66640178381E+03  0.17300000000E+03 0. -1.
         -6    1    1    2    0  501 -0.38461356702E+02  0.11734075985E+03 -0.95045495069E+02  0.23283207686E+03  0.17300000000E+03 0.  1.
</event>
<event>
 4    1  0.1089518E+000  0.1000000E+03  0.7546771E-02  0.1280296E+00
         -4   -1    0    0    0  501 -0.00000000000E+00  0.00000000000E+00  0.38891785515E+03  0.38891785515E+03  0.00000000000E+00 0.  1.
          4   -1    0    0  502    0  0.00000000000E+00 -0.00000000000E+00 -0.56164111042E+03  0.56164111042E+03  0.00000000000E+00 0. -1.
          6    1    1    2  502    0  0.36629389016E+03  0.55815566990E+02 -0.31650386298E+03  0.51709794698E+03  0.17300000000E+03 0.  1.
         -6    1    1    2    0  501 -0.36629389016E+03 -0.55815566990E+02  0.14378060771E+03  0.43346101859E+03  0.17300000000E+03 0. -1.
</event>
<event>
 4    1  0.1089518E+000  0.1000000E+03  0.7546771E-02  0.1280296E+00
         -1   -1    0    0    0  501 -0.00000000000E+00  0.00000000000E+00  0.71275049882E+02  0.71275049882E+02  0.00000000000E+00 0.  1.
          1   -1    0    0  502    0  0.00000000000E+00 -0.00000000000E+00 -0.24147023423E+04  0.24147023423E+04  0.00000000000E+00 0. -1.
          6    1    1    2  502    0 -0.29693086339E+02  0.37581670584E+03 -0.11486695766E+04  0.12212660120E+04  0.17300000000E+03 0.  1.
         -6    1    1    2    0  501  0.29693086339E+02 -0.37581670584E+03 -0.11947577158E+04  0.12647113802E+04  0.17300000000E+03 0. -1.
</event>
<event>
 4    1  0.1089518E+000  0.1000000E+03  0.7546771E-02  0.1280296E+00
          1   -1    0    0  502    0  0.00000000000E+00  0.00000000000E+00  0.30828986643E+03  0.30828986643E+03  0.00000000000E+00 0. -1.
         -1   -1    0    0    0  501 -0.00000000000E+00 -0.00000000000E+00 -0.18374447109E+03  0.18374447109E+03  0.00000000000E+00 0.  1.
          6    1    1    2  502    0  0.12913153907E+03  0.98437187874E+02  0.81685857256E+02  0.25093109336E+03  0.17300000000E+03 0. -1.
         -6    1    1    2    0  501 -0.12913153907E+03 -0.98437187874E+02  0.42859538089E+02  0.24110324416E+03  0.17300000000E+03 0.  1.
</event>
<event>
 4    1  0.1089518E+000  0.1000000E+03  0.7546771E-02  0.1280296E+00
         -1   -1    0    0    0  501 -0.00000000000E+00  0.00000000000E+00  0.11386009149E+03  0.11386009149E+03  0.00000000000E+00 0.  1.
          1   -1    0    0  502    0  0.00000000000E+00 -0.00000000000E+00 -0.19381440439E+04  0.19381440439E+04  0.00000000000E+00 0. -1.
          6    1    1    2  502    0 -0.35334564545E+03 -0.20906202672E+03 -0.58680733715E+03  0.73677128548E+03  0.17300000000E+03 0. -1.
         -6    1    1    2    0  501  0.35334564545E+03  0.20906202672E+03 -0.12374766153E+04  0.13152328499E+04  0.17300000000E+03 0.  1.
</event>
<event>
 4    1  0.1089518E+000  0.1000000E+03  0.7546771E-02  0.1280296E+00
         -1   -1    0    0    0  501 -0.00000000000E+00  0.00000000000E+00  0.22759464408E+02  0.22759464408E+02  0.00000000000E+00 0.  1.
          1   -1    0    0  502    0  0.00000000000E+00 -0.00000000000E+00 -0.13717304240E+04  0.13717304240E+04  0.00000000000E+00 0. -1.
          6    1    1    2  502    0 -0.17864632432E+02 -0.31030177030E+02 -0.66275762006E+03  0.68589990518E+03  0.17300000000E+03 0. -1.
         -6    1    1    2    0  501  0.17864632432E+02  0.31030177030E+02 -0.68621333953E+03  0.70858998323E+03  0.17300000000E+03 0.  1.
</event>
<event>
 4    1  0.1089518E+000  0.1000000E+03  0.7546771E-02  0.1280296E+00
         -2   -1    0    0    0  501 -0.00000000000E+00  0.00000000000E+00  0.38656392565E+03  0.38656392565E+03  0.00000000000E+00 0.  1.
          2   -1    0    0  502    0  0.00000000000E+00 -0.00000000000E+00 -0.33216437318E+03  0.33216437318E+03  0.00000000000E+00 0. -1.
          6    1    1    2  502    0  0.29351503749E+03  0.11205698341E+02  0.13795805449E+03  0.36774729055E+03  0.17300000000E+03 0. -1.
         -6    1    1    2    0  501 -0.29351503749E+03 -0.11205698341E+02 -0.83558502025E+02  0.35098100828E+03  0.17300000000E+03 0.  1.
</event>
<event>
 4    1  0.1089518E+000  0.1000000E+03  0.7546771E-02  0.1280296E+00
         -3   -1    0    0    0  501 -0.00000000000E+00  0.00000000000E+00  0.15286584978E+03  0.15286584978E+03  0.00000000000E+00 0.  1.
          3   -1    0    0  502    0  0.00000000000E+00 -0.00000000000E+00 -0.41825284046E+03  0.41825284046E+03  0.00000000000E+00 0. -1.
          6    1    1    2  502    0  0.67414680753E+02 -0.13404254580E+03 -0.11610167000E+02  0.22929443788E+03  0.17300000000E+03 0. -1.
         -6    1    1    2    0  501 -0.67414680753E+02  0.13404254580E+03 -0.25377682368E+03  0.34182425236E+03  0.17300000000E+03 0.  1.
</event>
<event>
 4    1  0.1089518E+000  0.1000000E+03  0.7546771E-02  0.1280296E+00
         -2   -1    0    0    0  501 -0.00000000000E+00  0.00000000000E+00  0.11954408138E+03  0.11954408138E+03  0.00000000000E+00 0.  1.
          2   -1    0    0  502    0  0.00000000000E+00 -0.00000000000E+00 -0.72620820536E+03  0.72620820536E+03  0.00000000000E+00 0. -1.
          6    1    1    2  502    0 -0.13319242440E+03  0.10665173594E+02 -0.58687771353E+03  0.62626545369E+03  0.17300000000E+03 0. -1.
         -6    1    1    2    0  501  0.13319242440E+03 -0.10665173594E+02 -0.19786410446E+02  0.21948683305E+03  0.17300000000E+03 0.  1.
</event>
<event>
 4    1  0.1089518E+000  0.1000000E+03  0.7546771E-02  0.1280296E+00
          2   -1    0    0  502    0  0.00000000000E+00  0.00000000000E+00  0.13755298255E+04  0.13755298255E+04  0.00000000000E+00 0. -1.
         -2   -1    0    0    0  501 -0.00000000000E+00 -0.00000000000E+00 -0.72606566780E+02  0.72606566780E+02  0.00000000000E+00 0.  1.
          6    1    1    2  502    0 -0.50854902131E+02  0.11695941272E+03  0.11822895519E+04  0.12016668881E+04  0.17300000000E+03 0. -1.
         -6    1    1    2    0  501  0.50854902131E+02 -0.11695941272E+03  0.12063370681E+03  0.24646950423E+03  0.17300000000E+03 0.  1.
</event>
<event>
 4    1  0.1089518E+000  0.1000000E+03  0.7546771E-02  0.1280296E+00
          3   -1    0    0  502    0  0.00000000000E+00  0.00000000000E+00  0.79808381145E+02  0.79808381145E+02  0.00000000000E+00 0. -1.
         -3   -1    0    0    0  501 -0.00000000000E+00 -0.00000000000E+00 -0.46182980087E+03  0.46182980087E+03  0.00000000000E+00 0.  1.
          6    1    1    2  502    0 -0.22864641536E+02  0.65995029067E+02 -0.12712985276E+03  0.22576344956E+03  0.17300000000E+03 0. -1.
         -6    1    1    2    0  501  0.22864641536E+02 -0.65995029067E+02 -0.25489156696E+03  0.31587473245E+03  0.17300000000E+03 0.  1.
</event>
<event>
 4    1  0.1089518E+000  0.1000000E+03  0.7546771E-02  0.1280296E+00
         -2   -1    0    0    0  501 -0.00000000000E+00  0.00000000000E+00  0.35958390243E+02  0.35958390243E+02  0.00000000000E+00 0. -1.
          2   -1    0    0  502    0  0.00000000000E+00 -0.00000000000E+00 -0.18775547317E+04  0.18775547317E+04  0.00000000000E+00 0.  1.
          6    1    1    2  502    0 -0.17114227797E+03 -0.52134542215E+02 -0.11957847000E+04  0.12214080966E+04  0.17300000000E+03 0. -1.
         -6    1    1    2    0  501  0.17114227797E+03  0.52134542215E+02 -0.64581164150E+03  0.69210502533E+03  0.17300000000E+03 0.  1.
</event>
<event>
 4    1  0.1089518E+000  0.1000000E+03  0.7546771E-02  0.1280296E+00
         -3   -1    0    0    0  501 -0.00000000000E+00  0.00000000000E+00  0.58790452687E+03  0.58790452687E+03  0.00000000000E+00 0. -1.
          3   -1    0    0  502    0  0.00000000000E+00 -0.00000000000E+00 -0.27645959363E+03  0.27645959363E+03  0.00000000000E+00 0.  1.
          6    1    1    2  502    0 -0.17512120110E+03  0.28737062648E+03  0.65881299793E+01  0.37844644997E+03  0.17300000000E+03 0. -1.
         -6    1    1    2    0  501  0.17512120110E+03 -0.28737062648E+03  0.30485680325E+03  0.48591767053E+03  0.17300000000E+03 0.  1.
</event>
<event>
 4    1  0.1089518E+000  0.1000000E+03  0.7546771E-02  0.1280296E+00
         -2   -1    0    0    0  501 -0.00000000000E+00  0.00000000000E+00  0.63522480481E+02  0.63522480481E+02  0.00000000000E+00 0. -1.
          2   -1    0    0  502    0  0.00000000000E+00 -0.00000000000E+00 -0.14638434400E+04  0.14638434400E+04  0.00000000000E+00 0.  1.
          6    1    1    2  502    0 -0.19703027519E+02 -0.14425100922E+03 -0.18776067837E+03  0.29390412603E+03  0.17300000000E+03 0. -1.
         -6    1    1    2    0  501  0.19703027519E+02  0.14425100922E+03 -0.12125602811E+04  0.12334617944E+04  0.17300000000E+03 0.  1.
</event>
<event>
 4    1  0.1089518E+000  0.1000000E+03  0.7546771E-02  0.1280296E+00
         -2   -1    0    0    0  501 -0.00000000000E+00  0.00000000000E+00  0.50389125724E+02  0.50389125724E+02  0.00000000000E+00 0. -1.
          2   -1    0    0  502    0  0.00000000000E+00 -0.00000000000E+00 -0.87450526042E+03  0.87450526042E+03  0.00000000000E+00 0.  1.
          6    1    1    2  502    0  0.49595668569E+02  0.60248455572E+02 -0.21443932034E+03  0.28636136060E+03  0.17300000000E+03 0. -1.
         -6    1    1    2    0  501 -0.49595668569E+02 -0.60248455572E+02 -0.60967681436E+03  0.63853302554E+03  0.17300000000E+03 0.  1.
</event>
<event>
 4    1  0.1089518E+000  0.1000000E+03  0.7546771E-02  0.1280296E+00
         -1   -1    0    0    0  501 -0.00000000000E+00  0.00000000000E+00  0.78851593483E+03  0.78851593483E+03  0.00000000000E+00 0. -1.
          1   -1    0    0  502    0  0.00000000000E+00 -0.00000000000E+00 -0.15683799776E+03  0.15683799776E+03  0.00000000000E+00 0.  1.
          6    1    1    2  502    0  0.83574562971E+02  0.29068776455E+03  0.37968296761E+03  0.51533701587E+03  0.17300000000E+03 0.  1.
         -6    1    1    2    0  501 -0.83574562971E+02 -0.29068776455E+03  0.25199496945E+03  0.43001691672E+03  0.17300000000E+03 0. -1.
</event>
<event>
 4    1  0.1089518E+000  0.1000000E+03  0.7546771E-02  0.1280296E+00
         -1   -1    0    0    0  501 -0.00000000000E+00  0.00000000000E+00  0.62050429247E+02  0.62050429247E+02  0.00000000000E+00 0. -1.
          1   -1    0    0  502    0  0.00000000000E+00 -0.00000000000E+00 -0.74566796074E+03  0.74566796074E+03  0.00000000000E+00 0.  1.
          6    1    1    2  502    0 -0.11151701147E+03 -0.62384792338E+02 -0.34834266822E+03  0.40938920438E+03  0.17300000000E+03 0.  1.
         -6    1    1    2    0  501  0.11151701147E+03  0.62384792338E+02 -0.33527486328E+03  0.39832918561E+03  0.17300000000E+03 0. -1.
</event>
<event>
 4    1  0.1089518E+000  0.1000000E+03  0.7546771E-02  0.1280296E+00
         -2   -1    0    0    0  501 -0.00000000000E+00  0.00000000000E+00  0.67516483532E+02  0.67516483532E+02  0.00000000000E+00 0.  1.
          2   -1    0    0  502    0  0.00000000000E+00 -0.00000000000E+00 -0.15079954372E+04  0.15079954372E+04  0.00000000000E+00 0. -1.
          6    1    1    2  502    0  0.18017597231E+03 -0.66811412820E+02 -0.25864290965E+03  0.36572161625E+03  0.17300000000E+03 0.  1.
         -6    1    1    2    0  501 -0.18017597231E+03  0.66811412820E+02 -0.11818360440E+04  0.12097903045E+04  0.17300000000E+03 0. -1.
</event>
<event>
 4    1  0.1089518E+000  0.1000000E+03  0.7546771E-02  0.1280296E+00
         -2   -1    0    0    0  501 -0.00000000000E+00  0.00000000000E+00  0.15234436232E+03  0.15234436232E+03  0.00000000000E+00 0.  1.
          2   -1    0    0  502    0  0.00000000000E+00 -0.00000000000E+00 -0.41926353842E+03  0.41926353842E+03  0.00000000000E+00 0. -1.
          6    1    1    2  502    0  0.17268794952E+03 -0.36120757904E+02 -0.19348720531E+03  0.31383456737E+03  0.17300000000E+03 0.  1.
         -6    1    1    2    0  501 -0.17268794952E+03  0.36120757904E+02 -0.73431970784E+02  0.25777333337E+03  0.17300000000E+03 0. -1.
</event>
<event>
 4    1  0.1089518E+000  0.1000000E+03  0.7546771E-02  0.1280296E+00
         -1   -1    0    0    0  501 -0.00000000000E+00  0.00000000000E+00  0.21073997369E+02  0.21073997369E+02  0.00000000000E+00 0. -1.
          1   -1    0    0  502    0  0.00000000000E+00 -0.00000000000E+00 -0.16448340637E+04  0.16448340637E+04  0.00000000000E+00 0.  1.
          6    1    1    2  502    0  0.58357995305E+02  0.29557620524E+02 -0.71645679940E+03  0.73994503441E+03  0.17300000000E+03 0. -1.
         -6    1    1    2    0  501 -0.58357995305E+02 -0.29557620524E+02 -0.90730326693E+03  0.92596302666E+03  0.17300000000E+03 0. -1.
</event>
<event>
 4    1  0.1089518E+000  0.1000000E+03  0.7546771E-02  0.1280296E+00
         -2   -1    0    0    0  501 -0.00000000000E+00  0.00000000000E+00  0.37054777655E+02  0.37054777655E+02  0.00000000000E+00 0. -1.
          2   -1    0    0  502    0  0.00000000000E+00 -0.00000000000E+00 -0.10042010178E+04  0.10042010178E+04  0.00000000000E+00 0.  1.
          6    1    1    2  502    0 -0.72845947061E+02  0.25650368167E+02 -0.38562789247E+03  0.42965374995E+03  0.17300000000E+03 0. -1.
         -6    1    1    2    0  501  0.72845947061E+02 -0.25650368167E+02 -0.58151834767E+03  0.61160204551E+03  0.17300000000E+03 0. -1.
</event>
<event>
 4    1  0.1089518E+000  0.1000000E+03  0.7546771E-02  0.1280296E+00
          2   -1    0    0  502    0  0.00000000000E+00  0.00000000000E+00  0.47635725597E+03  0.47635725597E+03  0.00000000000E+00 0.  1.
         -2   -1    0    0    0  501 -0.00000000000E+00 -0.00000000000E+00 -0.18046155529E+03  0.18046155529E+03  0.00000000000E+00 0. -1.
          6    1    1    2  502    0 -0.27543286384E+02 -0.10619877570E+03 -0.87001952216E+02  0.22256493945E+03  0.17300000000E+03 0. -1.
         -6    1    1    2    0  501  0.27543286384E+02  0.10619877570E+03  0.38289765290E+03  0.43425387181E+03  0.17300000000E+03 0. -1.
</event>
<event>
 4    1  0.1089518E+000  0.1000000E+03  0.7546771E-02  0.1280296E+00
          1   -1    0    0  502    0  0.00000000000E+00  0.00000000000E+00  0.11714535628E+04  0.11714535628E+04  0.00000000000E+00 0.  1.
         -1   -1    0    0    0  501 -0.00000000000E+00 -0.00000000000E+00 -0.27234165890E+02  0.27234165890E+02  0.00000000000E+00 0. -1.
          6    1    1    2  502    0  0.25409662905E+02 -0.88564448431E+01  0.69076677898E+03  0.71260917095E+03  0.17300000000E+03 0. -1.
         -6    1    1    2    0  501 -0.25409662905E+02  0.88564448431E+01  0.45345261795E+03  0.48607855775E+03  0.17300000000E+03 0. -1.
</event>
<event>
 4    1  0.1089518E+000  0.1000000E+03  0.7546771E-02  0.1280296E+00
          1   -1    0    0  502    0  0.00000000000E+00  0.00000000000E+00  0.62896491889E+02  0.62896491889E+02  0.00000000000E+00 0.  1.
         -1   -1    0    0    0  501 -0.00000000000E+00 -0.00000000000E+00 -0.56347961622E+03  0.56347961622E+03  0.00000000000E+00 0. -1.
          6    1    1    2  502    0 -0.16415712413E+02 -0.14226589357E+02 -0.36839675330E+03  0.40757458127E+03  0.17300000000E+03 0. -1.
         -6    1    1    2    0  501  0.16415712413E+02  0.14226589357E+02 -0.13218637103E+03  0.21880152684E+03  0.17300000000E+03 0. -1.
</event>
<event>
 4    1  0.1089518E+000  0.1000000E+03  0.7546771E-02  0.1280296E+00
         -2   -1    0    0    0  501 -0.00000000000E+00  0.00000000000E+00  0.45173507288E+03  0.45173507288E+03  0.00000000000E+00 0.  1.
          2   -1    0    0  502    0  0.00000000000E+00 -0.00000000000E+00 -0.78658358425E+02  0.78658358425E+02  0.00000000000E+00 0. -1.
          6    1    1    2  502    0  0.50036271855E+02 -0.73969348478E+01  0.10890011533E+03  0.21058627273E+03  0.17300000000E+03 0. -1.
         -6    1    1    2    0  501 -0.50036271855E+02  0.73969348478E+01  0.26417659913E+03  0.31980715857E+03  0.17300000000E+03 0.  1.
</event>
<event>
 4    1  0.1089518E+000  0.1000000E+03  0.7546771E-02  0.1280296E+00
         -1   -1    0    0    0  501 -0.00000000000E+00  0.00000000000E+00  0.13449161631E+03  0.13449161631E+03  0.00000000000E+00 0.  1.
          1   -1    0    0  502    0  0.00000000000E+00 -0.00000000000E+00 -0.77851771036E+03  0.77851771036E+03  0.00000000000E+00 0. -1.
          6    1    1    2  502    0 -0.17955182617E+03 -0.16443516337E+03 -0.49764022351E+03  0.58039001825E+03  0.17300000000E+03 0. -1.
         -6    1    1    2    0  501  0.17955182617E+03  0.16443516337E+03 -0.14638587054E+03  0.33261930841E+03  0.17300000000E+03 0.  1.
</event>
<event>
 4    1  0.1089518E+000  0.1000000E+03  0.7546771E-02  0.1280296E+00
          2   -1    0    0  502    0  0.00000000000E+00  0.00000000000E+00  0.15731631310E+04  0.15731631310E+04  0.00000000000E+00 0. -1.
         -2   -1    0    0    0  501 -0.00000000000E+00 -0.00000000000E+00 -0.31390583633E+02  0.31390583633E+02  0.00000000000E+00 0.  1.
          6    1    1    2  502    0 -0.12124275761E+03  0.53054063927E+02  0.61191337001E+03  0.64952406605E+03  0.17300000000E+03 0. -1.
         -6    1    1    2    0  501  0.12124275761E+03 -0.53054063927E+02  0.92985917737E+03  0.95502964860E+03  0.17300000000E+03 0.  1.
</event>
<event>
 4    1  0.1089518E+000  0.1000000E+03  0.7546771E-02  0.1280296E+00
          1   -1    0    0  502    0  0.00000000000E+00  0.00000000000E+00  0.13613975894E+04  0.13613975894E+04  0.00000000000E+00 0. -1.
         -1   -1    0    0    0  501 -0.00000000000E+00 -0.00000000000E+00 -0.45080955547E+02  0.45080955547E+02  0.00000000000E+00 0.  1.
          6    1    1    2  502    0 -0.60797088332E+02  0.83272047360E+02  0.24862663031E+03  0.31996049932E+03  0.17300000000E+03 0. -1.
         -6    1    1    2    0  501  0.60797088332E+02 -0.83272047360E+02  0.10676900035E+04  0.10865180456E+04  0.17300000000E+03 0.  1.
</event>
<event>
 4    1  0.1089518E+000  0.1000000E+03  0.7546771E-02  0.1280296E+00
          2   -1    0    0  502    0  0.00000000000E+00  0.00000000000E+00  0.49985768852E+03  0.49985768852E+03  0.00000000000E+00 0.  1.
         -2   -1    0    0    0  501 -0.00000000000E+00 -0.00000000000E+00 -0.98737078217E+02  0.98737078217E+02  0.00000000000E+00 0. -1.
          6    1    1    2  502    0 -0.21458865472E+01 -0.45565739607E+02  0.23132239001E+02  0.18040216722E+03  0.17300000000E+03 0.  1.
         -6    1    1    2    0  501  0.21458865472E+01  0.45565739607E+02  0.37798837130E+03  0.41819259952E+03  0.17300000000E+03 0. -1.
</event>
<event>
 4    1  0.1089518E+000  0.1000000E+03  0.7546771E-02  0.1280296E+00
          2   -1    0    0  502    0  0.00000000000E+00  0.00000000000E+00  0.24923233046E+04  0.24923233046E+04  0.00000000000E+00 0.  1.
         -2   -1    0    0    0  501 -0.00000000000E+00 -0.00000000000E+00 -0.13964332342E+02  0.13964332342E+02  0.00000000000E+00 0. -1.
          6    1    1    2  502    0 -0.65762364520E+02 -0.23406430218E+02  0.12488703595E+04  0.12627267022E+04  0.17300000000E+03 0.  1.
         -6    1    1    2    0  501  0.65762364520E+02  0.23406430218E+02  0.12294886127E+04  0.12435609347E+04  0.17300000000E+03 0. -1.
</event>
<event>
 4    1  0.1089518E+000  0.1000000E+03  0.7546771E-02  0.1280296E+00
         -2   -1    0    0    0  501 -0.00000000000E+00  0.00000000000E+00  0.11374753972E+03  0.11374753972E+03  0.00000000000E+00 0.  1.
          2   -1    0    0  502    0  0.00000000000E+00 -0.00000000000E+00 -0.63868262323E+03  0.63868262323E+03  0.00000000000E+00 0. -1.
          6    1    1    2  502    0 -0.14940314898E+03  0.11843223861E+03 -0.15104750730E+03  0.29848257157E+03  0.17300000000E+03 0.  1.
         -6    1    1    2    0  501  0.14940314898E+03 -0.11843223861E+03 -0.37388757622E+03  0.45394759138E+03  0.17300000000E+03 0. -1.
</event>
<event>
 4    1  0.1089518E+000  0.1000000E+03  0.7546771E-02  0.1280296E+00
         -1   -1    0    0    0  501 -0.00000000000E+00  0.00000000000E+00  0.17287092272E+03  0.17287092272E+03  0.00000000000E+00 0.  1.
          1   -1    0    0  502    0  0.00000000000E+00 -0.00000000000E+00 -0.70290260540E+03  0.70290260540E+03  0.00000000000E+00 0. -1.
          6    1    1    2  502    0 -0.56821804830E+02  0.20537105323E+03  0.49218110939E+01  0.27451632234E+03  0.17300000000E+03 0. -1.
         -6    1    1    2    0  501  0.56821804830E+02 -0.20537105323E+03 -0.53495349377E+03  0.60125720579E+03  0.17300000000E+03 0.  1.
</event>
<event>
 4    1  0.1089518E+000  0.1000000E+03  0.7546771E-02  0.1280296E+00
          1   -1    0    0  502    0  0.00000000000E+00  0.00000000000E+00  0.14951968819E+03  0.14951968819E+03  0.00000000000E+00 0.  1.
         -1   -1    0    0    0  501 -0.00000000000E+00 -0.00000000000E+00 -0.24484751482E+03  0.24484751482E+03  0.00000000000E+00 0. -1.
          6    1    1    2  502    0 -0.52456025506E+02 -0.38128933632E+02  0.36066201657E+01  0.18479030792E+03  0.17300000000E+03 0.  1.
         -6    1    1    2    0  501  0.52456025506E+02  0.38128933632E+02 -0.98934446795E+02  0.20957689509E+03  0.17300000000E+03 0. -1.
</event>
<event>
 4    1  0.1089518E+000  0.1000000E+03  0.7546771E-02  0.1280296E+00
          2   -1    0    0  502    0  0.00000000000E+00  0.00000000000E+00  0.23279905422E+04  0.23279905422E+04  0.00000000000E+00 0.  1.
         -2   -1    0    0    0  501 -0.00000000000E+00 -0.00000000000E+00 -0.11146821273E+03  0.11146821273E+03  0.00000000000E+00 0. -1.
          6    1    1    2  502    0  0.91250767455E+02  0.28338937443E+03  0.20071411538E+04  0.20364628284E+04  0.17300000000E+03 0.  1.
         -6    1    1    2    0  501 -0.91250767455E+02 -0.28338937443E+03  0.20938117571E+03  0.40299592658E+03  0.17300000000E+03 0. -1.
</event>
<event>
 4    1  0.1089518E+000  0.1000000E+03  0.7546771E-02  0.1280296E+00
          2   -1    0    0  502    0  0.00000000000E+00  0.00000000000E+00  0.27751744032E+03  0.27751744032E+03  0.00000000000E+00 0.  1.
         -2   -1    0    0    0  501 -0.00000000000E+00 -0.00000000000E+00 -0.26996612686E+03  0.26996612686E+03  0.00000000000E+00 0. -1.
          6    1    1    2  502    0 -0.25706250948E+02 -0.44863939134E+02 -0.20195663583E+03  0.27090416595E+03  0.17300000000E+03 0.  1.
         -6    1    1    2    0  501  0.25706250948E+02  0.44863939134E+02  0.20950794929E+03  0.27657940123E+03  0.17300000000E+03 0. -1.
</event>
<event>
 4    1  0.1089518E+000  0.1000000E+03  0.7546771E-02  0.1280296E+00
          2   -1    0    0  502    0  0.00000000000E+00  0.00000000000E+00  0.50006273655E+03  0.50006273655E+03  0.00000000000E+00 0.  1.
         -2   -1    0    0    0  501 -0.00000000000E+00 -0.00000000000E+00 -0.11336364467E+03  0.11336364467E+03  0.00000000000E+00 0. -1.
          6    1    1    2  502    0 -0.15569977750E+03 -0.55105407598E+01  0.25759376986E+03  0.34721223631E+03  0.17300000000E+03 0.  1.
         -6    1    1    2    0  501  0.15569977750E+03  0.55105407598E+01  0.12910532203E+03  0.26621414491E+03  0.17300000000E+03 0. -1.
</event>
<event>
 4    1  0.1089518E+000  0.1000000E+03  0.7546771E-02  0.1280296E+00
          2   -1    0    0  502    0  0.00000000000E+00  0.00000000000E+00  0.65887135823E+02  0.65887135823E+02  0.00000000000E+00 0.  1.
         -2   -1    0    0    0  501 -0.00000000000E+00 -0.00000000000E+00 -0.31672286096E+04  0.31672286096E+04  0.00000000000E+00 0. -1.
          6    1    1    2  502    0  0.10863625277E+03  0.21500143072E+03 -0.32111971858E+03  0.43712049173E+03  0.17300000000E+03 0. -1.
         -6    1    1    2    0  501 -0.10863625277E+03 -0.21500143072E+03 -0.27802217552E+04  0.27959952537E+04  0.17300000000E+03 0.  1.
</event>
<event>
 4    1  0.1089518E+000  0.1000000E+03  0.7546771E-02  0.1280296E+00
          2   -1    0    0  502    0  0.00000000000E+00  0.00000000000E+00  0.16523038747E+03  0.16523038747E+03  0.00000000000E+00 0.  1.
         -2   -1    0    0    0  501 -0.00000000000E+00 -0.00000000000E+00 -0.25436345277E+03  0.25436345277E+03  0.00000000000E+00 0. -1.
          6    1    1    2  502    0 -0.98704727381E+02  0.36763438057E+02 -0.77015124884E+02  0.21668987758E+03  0.17300000000E+03 0.  1.
         -6    1    1    2    0  501  0.98704727381E+02 -0.36763438057E+02 -0.12117940419E+02  0.20290396267E+03  0.17300000000E+03 0. -1.
</event>
<event>
 4    1  0.1089518E+000  0.1000000E+03  0.7546771E-02  0.1280296E+00
         -1   -1    0    0    0  501 -0.00000000000E+00  0.00000000000E+00  0.35709417504E+02  0.35709417504E+02  0.00000000000E+00 0. -1.
          1   -1    0    0  502    0  0.00000000000E+00 -0.00000000000E+00 -0.12008512297E+04  0.12008512297E+04  0.00000000000E+00 0.  1.
          6    1    1    2  502    0 -0.11188294333E+01 -0.22824925243E+02 -0.24968669623E+03  0.30462218446E+03  0.17300000000E+03 0.  1.
         -6    1    1    2    0  501  0.11188294333E+01  0.22824925243E+02 -0.91545511597E+03  0.93193846275E+03  0.17300000000E+03 0. -1.
</event>
<event>
 4    1  0.1089518E+000  0.1000000E+03  0.7546771E-02  0.1280296E+00
         -2   -1    0    0    0  501 -0.00000000000E+00  0.00000000000E+00  0.17109272951E+04  0.17109272951E+04  0.00000000000E+00 0. -1.
          2   -1    0    0  502    0  0.00000000000E+00 -0.00000000000E+00 -0.41624803130E+02  0.41624803130E+02  0.00000000000E+00 0.  1.
          6    1    1    2  502    0 -0.17964484310E+03  0.94950778520E+02  0.83564629911E+03  0.87722383530E+03  0.17300000000E+03 0.  1.
         -6    1    1    2    0  501  0.17964484310E+03 -0.94950778520E+02  0.83365619281E+03  0.87532826288E+03  0.17300000000E+03 0.  1.
</event>
<event>
 4    1  0.1089518E+000  0.1000000E+03  0.7546771E-02  0.1280296E+00
         -2   -1    0    0    0  501 -0.00000000000E+00  0.00000000000E+00  0.55874845025E+02  0.55874845025E+02  0.00000000000E+00 0. -1.
          2   -1    0    0  502    0  0.00000000000E+00 -0.00000000000E+00 -0.11458139392E+04  0.11458139392E+04  0.00000000000E+00 0.  1.
          6    1    1    2  502    0  0.69229945674E+02  0.11865586444E+03 -0.25200105886E+03  0.33512017727E+03  0.17300000000E+03 0.  1.
         -6    1    1    2    0  501 -0.69229945674E+02 -0.11865586444E+03 -0.83793803532E+03  0.86656860697E+03  0.17300000000E+03 0.  1.
</event>
<event>
 4    1  0.1089518E+000  0.1000000E+03  0.7546771E-02  0.1280296E+00
         -2   -1    0    0    0  501 -0.00000000000E+00  0.00000000000E+00  0.10101862229E+03  0.10101862229E+03  0.00000000000E+00 0. -1.
          2   -1    0    0  502    0  0.00000000000E+00 -0.00000000000E+00 -0.17712522146E+04  0.17712522146E+04  0.00000000000E+00 0.  1.
          6    1    1    2  502    0  0.19493297949E+03 -0.23766348128E+03 -0.31838359932E+03  0.47516303848E+03  0.17300000000E+03 0.  1.
         -6    1    1    2    0  501 -0.19493297949E+03  0.23766348128E+03 -0.13518499929E+04  0.13971077984E+04  0.17300000000E+03 0.  1.
</event>
<event>
 4    1  0.1089518E+000  0.1000000E+03  0.7546771E-02  0.1280296E+00
         -4   -1    0    0    0  501 -0.00000000000E+00  0.00000000000E+00  0.21635508707E+03  0.21635508707E+03  0.00000000000E+00 0. -1.
          4   -1    0    0  502    0  0.00000000000E+00 -0.00000000000E+00 -0.25420322797E+03  0.25420322797E+03  0.00000000000E+00 0.  1.
          6    1    1    2  502    0 -0.40655459932E+02 -0.15245250272E+03 -0.32177974076E+02  0.23634520097E+03  0.17300000000E+03 0.  1.
         -6    1    1    2    0  501  0.40655459932E+02  0.15245250272E+03 -0.56701668201E+01  0.23421311406E+03  0.17300000000E+03 0.  1.
</event>
<event>
 4    1  0.1089518E+000  0.1000000E+03  0.7546771E-02  0.1280296E+00
         -2   -1    0    0    0  501 -0.00000000000E+00  0.00000000000E+00  0.28588979583E+02  0.28588979583E+02  0.00000000000E+00 0. -1.
          2   -1    0    0  502    0  0.00000000000E+00 -0.00000000000E+00 -0.21535214654E+04  0.21535214654E+04  0.00000000000E+00 0.  1.
          6    1    1    2  502    0 -0.85470445473E+02 -0.15314415650E+03 -0.93205106954E+03  0.96405732503E+03  0.17300000000E+03 0.  1.
         -6    1    1    2    0  501  0.85470445473E+02  0.15314415650E+03 -0.11928814163E+04  0.12180531199E+04  0.17300000000E+03 0. -1.
</event>
<event>
 4    1  0.1089518E+000  0.1000000E+03  0.7546771E-02  0.1280296E+00
         -1   -1    0    0    0  501 -0.00000000000E+00  0.00000000000E+00  0.79944561181E+02  0.79944561181E+02  0.00000000000E+00 0. -1.
          1   -1    0    0  502    0  0.00000000000E+00 -0.00000000000E+00 -0.87901425050E+03  0.87901425050E+03  0.00000000000E+00 0.  1.
          6    1    1    2  502    0 -0.10196759065E+03 -0.10453064898E+03 -0.64898025409E+03  0.68733428280E+03  0.17300000000E+03 0.  1.
         -6    1    1    2    0  501  0.10196759065E+03  0.10453064898E+03 -0.15008943523E+03  0.27162452888E+03  0.17300000000E+03 0. -1.
</event>
<event>
 4    1  0.1089518E+000  0.1000000E+03  0.7546771E-02  0.1280296E+00
          4   -1    0    0  502    0  0.00000000000E+00  0.00000000000E+00  0.40657133248E+03  0.40657133248E+03  0.00000000000E+00 0.  1.
         -4   -1    0    0    0  501 -0.00000000000E+00 -0.00000000000E+00 -0.19126252400E+03  0.19126252400E+03  0.00000000000E+00 0. -1.
          6    1    1    2  502    0 -0.16882507529E+03  0.21038577689E+00 -0.41382331603E+02  0.24524161082E+03  0.17300000000E+03 0.  1.
         -6    1    1    2    0  501  0.16882507529E+03 -0.21038577689E+00  0.25669114008E+03  0.35259224566E+03  0.17300000000E+03 0. -1.
</event>
<event>
 4    1  0.1089518E+000  0.1000000E+03  0.7546771E-02  0.1280296E+00
          2   -1    0    0  502    0  0.00000000000E+00  0.00000000000E+00  0.68177602278E+02  0.68177602278E+02  0.00000000000E+00 0.  1.
         -2   -1    0    0    0  501 -0.00000000000E+00 -0.00000000000E+00 -0.62070473689E+03  0.62070473689E+03  0.00000000000E+00 0. -1.
          6    1    1    2  502    0 -0.10333995345E+03 -0.14126525886E+02 -0.34133729700E+03  0.39663440979E+03  0.17300000000E+03 0.  1.
         -6    1    1    2    0  501  0.10333995345E+03  0.14126525886E+02 -0.21118983762E+03  0.29224792938E+03  0.17300000000E+03 0. -1.
</event>
<event>
 4    1  0.1089518E+000  0.1000000E+03  0.7546771E-02  0.1280296E+00
         -2   -1    0    0    0  501 -0.00000000000E+00  0.00000000000E+00  0.29611983622E+02  0.29611983622E+02  0.00000000000E+00 0.  1.
          2   -1    0    0  502    0  0.00000000000E+00 -0.00000000000E+00 -0.10924561061E+04  0.10924561061E+04  0.00000000000E+00 0. -1.
          6    1    1    2  502    0  0.27076986097E+01 -0.48190757531E+02 -0.50164785068E+03  0.53283134934E+03  0.17300000000E+03 0. -1.
         -6    1    1    2    0  501 -0.27076986097E+01  0.48190757531E+02 -0.56119627183E+03  0.58923674042E+03  0.17300000000E+03 0.  1.
</event>
<event>
 4    1  0.1089518E+000  0.1000000E+03  0.7546771E-02  0.1280296E+00
         -1   -1    0    0    0  501 -0.00000000000E+00  0.00000000000E+00  0.76655806350E+02  0.76655806350E+02  0.00000000000E+00 0.  1.
          1   -1    0    0  502    0  0.00000000000E+00 -0.00000000000E+00 -0.12622169831E+04  0.12622169831E+04  0.00000000000E+00 0. -1.
          6    1    1    2  502    0  0.21662714957E+03 -0.14097246655E+03 -0.60390161100E+03  0.67928397157E+03  0.17300000000E+03 0. -1.
         -6    1    1    2    0  501 -0.21662714957E+03  0.14097246655E+03 -0.58165956579E+03  0.65958881793E+03  0.17300000000E+03 0.  1.
</event>
<event>
 4    1  0.1089518E+000  0.1000000E+03  0.7546771E-02  0.1280296E+00
          2   -1    0    0  502    0  0.00000000000E+00  0.00000000000E+00  0.17964290547E+04  0.17964290547E+04  0.00000000000E+00 0.  1.
         -2   -1    0    0    0  501 -0.00000000000E+00 -0.00000000000E+00 -0.22022676081E+02  0.22022676081E+02  0.00000000000E+00 0. -1.
          6    1    1    2  502    0 -0.67213176537E+02 -0.61336228639E+02  0.71903270235E+03  0.74512869431E+03  0.17300000000E+03 0.  1.
         -6    1    1    2    0  501  0.67213176537E+02  0.61336228639E+02  0.10553736763E+04  0.10733230365E+04  0.17300000000E+03 0. -1.
</event>
<event>
 4    1  0.1089518E+000  0.1000000E+03  0.7546771E-02  0.1280296E+00
          4   -1    0    0  502    0  0.00000000000E+00  0.00000000000E+00  0.53104838646E+03  0.53104838646E+03  0.00000000000E+00 0.  1.
         -4   -1    0    0    0  501 -0.00000000000E+00 -0.00000000000E+00 -0.12552859592E+03  0.12552859592E+03  0.00000000000E+00 0. -1.
          6    1    1    2  502    0  0.42097741355E+02  0.18648077712E+03  0.22007560754E+03  0.33898314574E+03  0.17300000000E+03 0.  1.
         -6    1    1    2    0  501 -0.42097741355E+02 -0.18648077712E+03  0.18544418300E+03  0.31759383664E+03  0.17300000000E+03 0. -1.
</event>
<event>
 4    1  0.1089518E+000  0.1000000E+03  0.7546771E-02  0.1280296E+00
          1   -1    0    0  502    0  0.00000000000E+00  0.00000000000E+00  0.17465798227E+04  0.17465798227E+04  0.00000000000E+00 0.  1.
         -1   -1    0    0    0  501 -0.00000000000E+00 -0.00000000000E+00 -0.19859689768E+02  0.19859689768E+02  0.00000000000E+00 0. -1.
          6    1    1    2  502    0  0.57145639420E+01 -0.41591834652E+02  0.11228894195E+04  0.11369134467E+04  0.17300000000E+03 0.  1.
         -6    1    1    2    0  501 -0.57145639420E+01  0.41591834652E+02  0.60383071347E+03  0.62952606576E+03  0.17300000000E+03 0. -1.
</event>
<event>
 4    1  0.1089518E+000  0.1000000E+03  0.7546771E-02  0.1280296E+00
         -1   -1    0    0    0  501 -0.00000000000E+00  0.00000000000E+00  0.94567242675E+02  0.94567242675E+02  0.00000000000E+00 0.  1.
          1   -1    0    0  502    0  0.00000000000E+00 -0.00000000000E+00 -0.16114429249E+04  0.16114429249E+04  0.00000000000E+00 0. -1.
          6    1    1    2  502    0  0.12679270923E+03  0.13728884338E+03 -0.11193955121E+03  0.27817994313E+03  0.17300000000E+03 0. -1.
         -6    1    1    2    0  501 -0.12679270923E+03 -0.13728884338E+03 -0.14049361310E+04  0.14278302245E+04  0.17300000000E+03 0.  1.
</event>
<event>
 4    1  0.1089518E+000  0.1000000E+03  0.7546771E-02  0.1280296E+00
         -2   -1    0    0    0  501 -0.00000000000E+00  0.00000000000E+00  0.17966699231E+03  0.17966699231E+03  0.00000000000E+00 0.  1.
          2   -1    0    0  502    0  0.00000000000E+00 -0.00000000000E+00 -0.13063904054E+04  0.13063904054E+04  0.00000000000E+00 0. -1.
          6    1    1    2  502    0 -0.10627654481E+03 -0.43330929755E+03 -0.44722061791E+03  0.65497094012E+03  0.17300000000E+03 0. -1.
         -6    1    1    2    0  501  0.10627654481E+03  0.43330929755E+03 -0.67950279519E+03  0.83108645759E+03  0.17300000000E+03 0.  1.
</event>
<event>
 4    1  0.1089518E+000  0.1000000E+03  0.7546771E-02  0.1280296E+00
         -1   -1    0    0    0  501 -0.00000000000E+00  0.00000000000E+00  0.12402044555E+03  0.12402044555E+03  0.00000000000E+00 0.  1.
          1   -1    0    0  502    0  0.00000000000E+00 -0.00000000000E+00 -0.28743569689E+03  0.28743569689E+03  0.00000000000E+00 0. -1.
          6    1    1    2  502    0 -0.65594384205E+02  0.22530039966E+02 -0.48861708873E+02  0.19268288075E+03  0.17300000000E+03 0. -1.
         -6    1    1    2    0  501  0.65594384205E+02 -0.22530039966E+02 -0.11455354247E+03  0.21877326169E+03  0.17300000000E+03 0.  1.
</event>
<event>
 4    1  0.1089518E+000  0.1000000E+03  0.7546771E-02  0.1280296E+00
         -1   -1    0    0    0  501 -0.00000000000E+00  0.00000000000E+00  0.43410144014E+03  0.43410144014E+03  0.00000000000E+00 0.  1.
          1   -1    0    0  502    0  0.00000000000E+00 -0.00000000000E+00 -0.43946506943E+03  0.43946506943E+03  0.00000000000E+00 0. -1.
          6    1    1    2  502    0 -0.11401955096E+03 -0.34770535925E+02 -0.38561718709E+03  0.43913444769E+03  0.17300000000E+03 0. -1.
         -6    1    1    2    0  501  0.11401955096E+03  0.34770535925E+02  0.38025355780E+03  0.43443206188E+03  0.17300000000E+03 0.  1.
</event>
<event>
 4    1  0.1089518E+000  0.1000000E+03  0.7546771E-02  0.1280296E+00
          2   -1    0    0  502    0  0.00000000000E+00  0.00000000000E+00  0.31429149881E+03  0.31429149881E+03  0.00000000000E+00 0. -1.
         -2   -1    0    0    0  501 -0.00000000000E+00 -0.00000000000E+00 -0.12151880281E+03  0.12151880281E+03  0.00000000000E+00 0.  1.
          6    1    1    2  502    0  0.82971362608E+02 -0.31088536363E+02  0.11903460959E+03  0.22792319405E+03  0.17300000000E+03 0. -1.
         -6    1    1    2    0  501 -0.82971362608E+02  0.31088536363E+02  0.73738086412E+02  0.20788710757E+03  0.17300000000E+03 0.  1.
</event>
<event>
 4    1  0.1089518E+000  0.1000000E+03  0.7546771E-02  0.1280296E+00
          1   -1    0    0  502    0  0.00000000000E+00  0.00000000000E+00  0.28669389760E+03  0.28669389760E+03  0.00000000000E+00 0. -1.
         -1   -1    0    0    0  501 -0.00000000000E+00 -0.00000000000E+00 -0.12767863709E+03  0.12767863709E+03  0.00000000000E+00 0.  1.
          6    1    1    2  502    0 -0.13751298073E+02  0.75417319323E+02  0.11011429180E+03  0.21893155896E+03  0.17300000000E+03 0. -1.
         -6    1    1    2    0  501  0.13751298073E+02 -0.75417319323E+02  0.48900968715E+02  0.19544097573E+03  0.17300000000E+03 0.  1.
</event>
<event>
 4    1  0.1089518E+000  0.1000000E+03  0.7546771E-02  0.1280296E+00
         -1   -1    0    0    0  501 -0.00000000000E+00  0.00000000000E+00  0.84859862261E+03  0.84859862261E+03  0.00000000000E+00 0.  1.
          1   -1    0    0  502    0  0.00000000000E+00 -0.00000000000E+00 -0.39479706669E+02  0.39479706669E+02  0.00000000000E+00 0. -1.
          6    1    1    2  502    0  0.51903571281E+02 -0.26733136347E+02  0.43570098464E+03  0.47241188523E+03  0.17300000000E+03 0. -1.
         -6    1    1    2    0  501 -0.51903571281E+02  0.26733136347E+02  0.37341793131E+03  0.41566644405E+03  0.17300000000E+03 0. -1.
</event>
<event>
 4    1  0.1089518E+000  0.1000000E+03  0.7546771E-02  0.1280296E+00
         -2   -1    0    0    0  501 -0.00000000000E+00  0.00000000000E+00  0.56454443263E+03  0.56454443263E+03  0.00000000000E+00 0.  1.
          2   -1    0    0  502    0  0.00000000000E+00 -0.00000000000E+00 -0.12839030292E+03  0.12839030292E+03  0.00000000000E+00 0. -1.
          6    1    1    2  502    0 -0.79886715710E+02  0.49912213743E+02 -0.18097241889E+02  0.19781209920E+03  0.17300000000E+03 0. -1.
         -6    1    1    2    0  501  0.79886715710E+02 -0.49912213743E+02  0.45425137160E+03  0.49512263635E+03  0.17300000000E+03 0. -1.
</event>
<event>
 4    1  0.1089518E+000  0.1000000E+03  0.7546771E-02  0.1280296E+00
          1   -1    0    0  502    0  0.00000000000E+00  0.00000000000E+00  0.37403828195E+03  0.37403828195E+03  0.00000000000E+00 0.  1.
         -1   -1    0    0    0  501 -0.00000000000E+00 -0.00000000000E+00 -0.12495777505E+03  0.12495777505E+03  0.00000000000E+00 0. -1.
          6    1    1    2  502    0  0.32173085527E+02  0.97959645486E+02  0.21525528054E+03  0.29477963867E+03  0.17300000000E+03 0.  1.
         -6    1    1    2    0  501 -0.32173085527E+02 -0.97959645486E+02  0.33825226372E+02  0.20421641833E+03  0.17300000000E+03 0. -1.
</event>
<event>
 4    1  0.1089518E+000  0.1000000E+03  0.7546771E-02  0.1280296E+00
          2   -1    0    0  502    0  0.00000000000E+00  0.00000000000E+00  0.23092777845E+04  0.23092777845E+04  0.00000000000E+00 0.  1.
         -2   -1    0    0    0  501 -0.00000000000E+00 -0.00000000000E+00 -0.40149255812E+02  0.40149255812E+02  0.00000000000E+00 0. -1.
          6    1    1    2  502    0  0.94454738948E+02 -0.42946764786E+01  0.23933464405E+03  0.31008097942E+03  0.17300000000E+03 0.  1.
         -6    1    1    2    0  501 -0.94454738948E+02  0.42946764786E+01  0.20297938846E+04  0.20393460609E+04  0.17300000000E+03 0. -1.
</event>
<event>
 4    1  0.1089518E+000  0.1000000E+03  0.7546771E-02  0.1280296E+00
          2   -1    0    0  502    0  0.00000000000E+00  0.00000000000E+00  0.27928850295E+04  0.27928850295E+04  0.00000000000E+00 0.  1.
         -2   -1    0    0    0  501 -0.00000000000E+00 -0.00000000000E+00 -0.11382850255E+02  0.11382850255E+02  0.00000000000E+00 0. -1.
          6    1    1    2  502    0  0.22253614030E+02 -0.22203454838E+02  0.11582969152E+04  0.11715668826E+04  0.17300000000E+03 0.  1.
         -6    1    1    2    0  501 -0.22253614030E+02  0.22203454838E+02  0.16232052641E+04  0.16327009971E+04  0.17300000000E+03 0. -1.
</event>
<event>
 4    1  0.1089518E+000  0.1000000E+03  0.7546771E-02  0.1280296E+00
         -2   -1    0    0    0  501 -0.00000000000E+00  0.00000000000E+00  0.36028913041E+02  0.36028913041E+02  0.00000000000E+00 0.  1.
          2   -1    0    0  502    0  0.00000000000E+00 -0.00000000000E+00 -0.11754422337E+04  0.11754422337E+04  0.00000000000E+00 0. -1.
          6    1    1    2  502    0 -0.76627333695E+02 -0.86691858622E+01 -0.33287306873E+03  0.38298875041E+03  0.17300000000E+03 0. -1.
         -6    1    1    2    0  501  0.76627333695E+02  0.86691858622E+01 -0.80654025189E+03  0.82848239629E+03  0.17300000000E+03 0.  1.
</event>
<event>
 4    1  0.1089518E+000  0.1000000E+03  0.7546771E-02  0.1280296E+00
         -1   -1    0    0    0  501 -0.00000000000E+00  0.00000000000E+00  0.21311919452E+03  0.21311919452E+03  0.00000000000E+00 0. -1.
          1   -1    0    0  502    0  0.00000000000E+00 -0.00000000000E+00 -0.50529829141E+03  0.50529829141E+03  0.00000000000E+00 0.  1.
          6    1    1    2  502    0 -0.10903284751E+03 -0.25445829712E+03 -0.18276453584E+03  0.37412439425E+03  0.17300000000E+03 0.  1.
         -6    1    1    2    0  501  0.10903284751E+03  0.25445829712E+03 -0.10941456104E+03  0.34429309168E+03  0.17300000000E+03 0. -1.
</event>
<event>
 4    1  0.1089518E+000  0.1000000E+03  0.7546771E-02  0.1280296E+00
         -1   -1    0    0    0  501 -0.00000000000E+00  0.00000000000E+00  0.23383067232E+03  0.23383067232E+03  0.00000000000E+00 0. -1.
          1   -1    0    0  502    0  0.00000000000E+00 -0.00000000000E+00 -0.20788277119E+03  0.20788277119E+03  0.00000000000E+00 0.  1.
          6    1    1    2  502    0 -0.74673645006E+02 -0.67989145095E+02 -0.79281462525E+02  0.21543729345E+03  0.17300000000E+03 0.  1.
         -6    1    1    2    0  501  0.74673645006E+02  0.67989145095E+02  0.10522936366E+03  0.22627615006E+03  0.17300000000E+03 0. -1.
</event>
<event>
 4    1  0.1089518E+000  0.1000000E+03  0.7546771E-02  0.1280296E+00
         -1   -1    0    0    0  501 -0.00000000000E+00  0.00000000000E+00  0.25955092867E+03  0.25955092867E+03  0.00000000000E+00 0.  1.
          1   -1    0    0  502    0  0.00000000000E+00 -0.00000000000E+00 -0.29485589419E+03  0.29485589419E+03  0.00000000000E+00 0. -1.
          6    1    1    2  502    0  0.14021959870E+03  0.12990887606E+03  0.82867386704E+02  0.27080224467E+03  0.17300000000E+03 0. -1.
         -6    1    1    2    0  501 -0.14021959870E+03 -0.12990887606E+03 -0.11817235222E+03  0.28360457819E+03  0.17300000000E+03 0.  1.
</event>
<event>
 4    1  0.1089518E+000  0.1000000E+03  0.7546771E-02  0.1280296E+00
         -1   -1    0    0    0  501 -0.00000000000E+00  0.00000000000E+00  0.88519911448E+02  0.88519911448E+02  0.00000000000E+00 0.  1.
          1   -1    0    0  502    0  0.00000000000E+00 -0.00000000000E+00 -0.10952146841E+04  0.10952146841E+04  0.00000000000E+00 0. -1.
          6    1    1    2  502    0 -0.12314911441E+03  0.33269052499E+02 -0.93155900223E+03  0.95603541193E+03  0.17300000000E+03 0. -1.
         -6    1    1    2    0  501  0.12314911441E+03 -0.33269052499E+02 -0.75135770462E+02  0.22769918365E+03  0.17300000000E+03 0.  1.
</event>
<event>
 4    1  0.1089518E+000  0.1000000E+03  0.7546771E-02  0.1280296E+00
         -1   -1    0    0    0  501 -0.00000000000E+00  0.00000000000E+00  0.22659135824E+03  0.22659135824E+03  0.00000000000E+00 0.  1.
          1   -1    0    0  502    0  0.00000000000E+00 -0.00000000000E+00 -0.82654205133E+03  0.82654205133E+03  0.00000000000E+00 0. -1.
          6    1    1    2  502    0 -0.14073171699E+03  0.33519357751E+03 -0.10683035538E+03  0.41653556319E+03  0.17300000000E+03 0.  1.
         -6    1    1    2    0  501  0.14073171699E+03 -0.33519357751E+03 -0.49312033770E+03  0.63659784639E+03  0.17300000000E+03 0.  1.
</event>
<event>
 4    1  0.1089518E+000  0.1000000E+03  0.7546771E-02  0.1280296E+00
         -3   -1    0    0    0  501 -0.00000000000E+00  0.00000000000E+00  0.34812156161E+03  0.34812156161E+03  0.00000000000E+00 0.  1.
          3   -1    0    0  502    0  0.00000000000E+00 -0.00000000000E+00 -0.10603188102E+03  0.10603188102E+03  0.00000000000E+00 0. -1.
          6    1    1    2  502    0 -0.34481058012E+02 -0.75350089261E+02  0.10829296217E+03  0.22027924316E+03  0.17300000000E+03 0. -1.
         -6    1    1    2    0  501  0.34481058012E+02  0.75350089261E+02  0.13379671843E+03  0.23387419946E+03  0.17300000000E+03 0.  1.
</event>
<event>
 4    1  0.1089518E+000  0.1000000E+03  0.7546771E-02  0.1280296E+00
         -1   -1    0    0    0  501 -0.00000000000E+00  0.00000000000E+00  0.51788495083E+02  0.51788495083E+02  0.00000000000E+00 0.  1.
          1   -1    0    0  502    0  0.00000000000E+00 -0.00000000000E+00 -0.10372224632E+04  0.10372224632E+04  0.00000000000E+00 0. -1.
          6    1    1    2  502    0 -0.87275007724E+02 -0.11517632315E+03 -0.36609804999E+03  0.42992940653E+03  0.17300000000E+03 0. -1.
         -6    1    1    2    0  501  0.87275007724E+02  0.11517632315E+03 -0.61933591810E+03  0.65908155173E+03  0.17300000000E+03 0.  1.
</event>
<event>
 4    1  0.1089518E+000  0.1000000E+03  0.7546771E-02  0.1280296E+00
         -2   -1    0    0    0  501 -0.00000000000E+00  0.00000000000E+00  0.76090086633E+02  0.76090086633E+02  0.00000000000E+00 0.  1.
          2   -1    0    0  502    0  0.00000000000E+00 -0.00000000000E+00 -0.54804934427E+03  0.54804934427E+03  0.00000000000E+00 0. -1.
          6    1    1    2  502    0  0.24647916680E+02  0.86172435667E+02 -0.32942342433E+03  0.38272967086E+03  0.17300000000E+03 0. -1.
         -6    1    1    2    0  501 -0.24647916680E+02 -0.86172435667E+02 -0.14253583332E+03  0.24140976004E+03  0.17300000000E+03 0.  1.
</event>
<event>
 4    1  0.1089518E+000  0.1000000E+03  0.7546771E-02  0.1280296E+00
         -2   -1    0    0    0  501 -0.00000000000E+00  0.00000000000E+00  0.32026100806E+03  0.32026100806E+03  0.00000000000E+00 0.  1.
          2   -1    0    0  502    0  0.00000000000E+00 -0.00000000000E+00 -0.50723216044E+03  0.50723216044E+03  0.00000000000E+00 0. -1.
          6    1    1    2  502    0 -0.33430065934E+02 -0.91346342313E+01 -0.46548214285E+03  0.49779879084E+03  0.17300000000E+03 0. -1.
         -6    1    1    2    0  501  0.33430065934E+02  0.91346342313E+01  0.27851099047E+03  0.32969437767E+03  0.17300000000E+03 0.  1.
</event>
<event>
 4    1  0.1089518E+000  0.1000000E+03  0.7546771E-02  0.1280296E+00
          4   -1    0    0  502    0  0.00000000000E+00  0.00000000000E+00  0.33624038571E+03  0.33624038571E+03  0.00000000000E+00 0.  1.
         -4   -1    0    0    0  501 -0.00000000000E+00 -0.00000000000E+00 -0.11172404902E+03  0.11172404902E+03  0.00000000000E+00 0. -1.
          6    1    1    2  502    0  0.78740363696E+02 -0.36073535826E+02  0.98791718527E+02  0.21723293607E+03  0.17300000000E+03 0.  1.
         -6    1    1    2    0  501 -0.78740363696E+02  0.36073535826E+02  0.12572461817E+03  0.23073149866E+03  0.17300000000E+03 0. -1.
</event>
<event>
 4    1  0.1089518E+000  0.1000000E+03  0.7546771E-02  0.1280296E+00
          2   -1    0    0  502    0  0.00000000000E+00  0.00000000000E+00  0.13692144830E+04  0.13692144830E+04  0.00000000000E+00 0. -1.
         -2   -1    0    0    0  501 -0.00000000000E+00 -0.00000000000E+00 -0.39471509939E+02  0.39471509939E+02  0.00000000000E+00 0.  1.
          6    1    1    2  502    0  0.13364283470E+03 -0.54533666748E+02  0.83843231962E+03  0.86817744883E+03  0.17300000000E+03 0.  1.
         -6    1    1    2    0  501 -0.13364283470E+03  0.54533666748E+02  0.49131065349E+03  0.54050854416E+03  0.17300000000E+03 0. -1.
</event>
<event>
 4    1  0.1089518E+000  0.1000000E+03  0.7546771E-02  0.1280296E+00
          2   -1    0    0  502    0  0.00000000000E+00  0.00000000000E+00  0.13665455443E+04  0.13665455443E+04  0.00000000000E+00 0. -1.
         -2   -1    0    0    0  501 -0.00000000000E+00 -0.00000000000E+00 -0.34643228317E+02  0.34643228317E+02  0.00000000000E+00 0.  1.
          6    1    1    2  502    0 -0.46408248394E+02  0.75802421364E+02  0.35190030021E+03  0.40207282163E+03  0.17300000000E+03 0.  1.
         -6    1    1    2    0  501  0.46408248394E+02 -0.75802421364E+02  0.98000201579E+03  0.99911595101E+03  0.17300000000E+03 0. -1.
</event>
<event>
 4    1  0.1089518E+000  0.1000000E+03  0.7546771E-02  0.1280296E+00
          1   -1    0    0  502    0  0.00000000000E+00  0.00000000000E+00  0.98025497132E+02  0.98025497132E+02  0.00000000000E+00 0. -1.
         -1   -1    0    0    0  501 -0.00000000000E+00 -0.00000000000E+00 -0.69409661753E+03  0.69409661753E+03  0.00000000000E+00 0.  1.
          6    1    1    2  502    0  0.13859007867E+03 -0.58654324439E+02 -0.48684525138E+03  0.53814016620E+03  0.17300000000E+03 0.  1.
         -6    1    1    2    0  501 -0.13859007867E+03  0.58654324439E+02 -0.10922586901E+03  0.25398194846E+03  0.17300000000E+03 0. -1.
</event>
<event>
 4    1  0.1089518E+000  0.1000000E+03  0.7546771E-02  0.1280296E+00
          2   -1    0    0  502    0  0.00000000000E+00  0.00000000000E+00  0.59525631599E+03  0.59525631599E+03  0.00000000000E+00 0. -1.
         -2   -1    0    0    0  501 -0.00000000000E+00 -0.00000000000E+00 -0.72466395224E+02  0.72466395224E+02  0.00000000000E+00 0.  1.
          6    1    1    2  502    0  0.74615104592E+02 -0.61830776469E+01  0.12124479479E+03  0.22413153403E+03  0.17300000000E+03 0.  1.
         -6    1    1    2    0  501 -0.74615104592E+02  0.61830776469E+01  0.40154512598E+03  0.44359117719E+03  0.17300000000E+03 0. -1.
</event>
<event>
 4    1  0.1089518E+000  0.1000000E+03  0.7546771E-02  0.1280296E+00
          2   -1    0    0  502    0  0.00000000000E+00  0.00000000000E+00  0.17336365687E+04  0.17336365687E+04  0.00000000000E+00 0. -1.
         -2   -1    0    0    0  501 -0.00000000000E+00 -0.00000000000E+00 -0.95663956105E+02  0.95663956105E+02  0.00000000000E+00 0.  1.
          6    1    1    2  502    0 -0.43847252995E+02 -0.20379509087E+03  0.13604291123E+03  0.30313642862E+03  0.17300000000E+03 0.  1.
         -6    1    1    2    0  501  0.43847252995E+02  0.20379509087E+03  0.15019297013E+04  0.15261640962E+04  0.17300000000E+03 0. -1.
</event>
<event>
 4    1  0.1089518E+000  0.1000000E+03  0.7546771E-02  0.1280296E+00
          1   -1    0    0  502    0  0.00000000000E+00  0.00000000000E+00  0.72307325469E+03  0.72307325469E+03  0.00000000000E+00 0.  1.
         -1   -1    0    0    0  501 -0.00000000000E+00 -0.00000000000E+00 -0.59723259980E+02  0.59723259980E+02  0.00000000000E+00 0. -1.
          6    1    1    2  502    0 -0.51740330364E+02  0.99710508521E+02  0.28417432055E+03  0.35114568452E+03  0.17300000000E+03 0.  1.
         -6    1    1    2    0  501  0.51740330364E+02 -0.99710508521E+02  0.37917567416E+03  0.43165083015E+03  0.17300000000E+03 0. -1.
</event>
<event>
 4    1  0.1089518E+000  0.1000000E+03  0.7546771E-02  0.1280296E+00
         -1   -1    0    0    0  501 -0.00000000000E+00  0.00000000000E+00  0.18802049023E+03  0.18802049023E+03  0.00000000000E+00 0.  1.
          1   -1    0    0  502    0  0.00000000000E+00 -0.00000000000E+00 -0.27803074708E+03  0.27803074708E+03  0.00000000000E+00 0. -1.
          6    1    1    2  502    0 -0.17648443871E+02  0.14478338303E+03 -0.78386975485E+02  0.23947278237E+03  0.17300000000E+03 0.  1.
         -6    1    1    2    0  501  0.17648443871E+02 -0.14478338303E+03 -0.11623281366E+02  0.22657845494E+03  0.17300000000E+03 0. -1.
</event>
<event>
 4    1  0.1089518E+000  0.1000000E+03  0.7546771E-02  0.1280296E+00
         -1   -1    0    0    0  501 -0.00000000000E+00  0.00000000000E+00  0.96725594070E+02  0.96725594070E+02  0.00000000000E+00 0.  1.
          1   -1    0    0  502    0  0.00000000000E+00 -0.00000000000E+00 -0.36038241752E+03  0.36038241752E+03  0.00000000000E+00 0. -1.
          6    1    1    2  502    0 -0.38854599332E+02 -0.58357064609E+02 -0.13640494157E+03  0.23119371740E+03  0.17300000000E+03 0.  1.
         -6    1    1    2    0  501  0.38854599332E+02  0.58357064609E+02 -0.12725188188E+03  0.22591429419E+03  0.17300000000E+03 0. -1.
</event>
<event>
 4    1  0.1089518E+000  0.1000000E+03  0.7546771E-02  0.1280296E+00
          1   -1    0    0  502    0  0.00000000000E+00  0.00000000000E+00  0.10372436537E+04  0.10372436537E+04  0.00000000000E+00 0. -1.
         -1   -1    0    0    0  501 -0.00000000000E+00 -0.00000000000E+00 -0.53025900990E+02  0.53025900990E+02  0.00000000000E+00 0.  1.
          6    1    1    2  502    0 -0.99844959115E+02 -0.22345451430E+02  0.77300588594E+03  0.79870860441E+03  0.17300000000E+03 0.  1.
         -6    1    1    2    0  501  0.99844959115E+02  0.22345451430E+02  0.21121186675E+03  0.29156095026E+03  0.17300000000E+03 0. -1.
</event>
<event>
 4    1  0.1089518E+000  0.1000000E+03  0.7546771E-02  0.1280296E+00
          1   -1    0    0  502    0  0.00000000000E+00  0.00000000000E+00  0.58905729684E+03  0.58905729684E+03  0.00000000000E+00 0. -1.
         -1   -1    0    0    0  501 -0.00000000000E+00 -0.00000000000E+00 -0.11892320789E+03  0.11892320789E+03  0.00000000000E+00 0.  1.
          6    1    1    2  502    0  0.10078457391E+03  0.16893648491E+03  0.28558173731E+03  0.38753450808E+03  0.17300000000E+03 0.  1.
         -6    1    1    2    0  501 -0.10078457391E+03 -0.16893648491E+03  0.18455235164E+03  0.32044599665E+03  0.17300000000E+03 0. -1.
</event>
<event>
 4    1  0.1089518E+000  0.1000000E+03  0.7546771E-02  0.1280296E+00
         -2   -1    0    0    0  501 -0.00000000000E+00  0.00000000000E+00  0.22407744888E+03  0.22407744888E+03  0.00000000000E+00 0.  1.
          2   -1    0    0  502    0  0.00000000000E+00 -0.00000000000E+00 -0.44000202569E+03  0.44000202569E+03  0.00000000000E+00 0. -1.
          6    1    1    2  502    0 -0.16152550046E+03 -0.13163345854E+03  0.60062887303E+02  0.27740657010E+03  0.17300000000E+03 0. -1.
         -6    1    1    2    0  501  0.16152550046E+03  0.13163345854E+03 -0.27598746412E+03  0.38667290447E+03  0.17300000000E+03 0.  1.
</event>
<event>
 4    1  0.1089518E+000  0.1000000E+03  0.7546771E-02  0.1280296E+00
         -2   -1    0    0    0  501 -0.00000000000E+00  0.00000000000E+00  0.20670769695E+03  0.20670769695E+03  0.00000000000E+00 0.  1.
          2   -1    0    0  502    0  0.00000000000E+00 -0.00000000000E+00 -0.16630083312E+03  0.16630083312E+03  0.00000000000E+00 0. -1.
          6    1    1    2  502    0  0.54905806985E+02 -0.37363274340E+02  0.14167889246E+02  0.18585045331E+03  0.17300000000E+03 0. -1.
         -6    1    1    2    0  501 -0.54905806985E+02  0.37363274340E+02  0.26238974578E+02  0.18715807676E+03  0.17300000000E+03 0.  1.
</event>
<event>
 4    1  0.1089518E+000  0.1000000E+03  0.7546771E-02  0.1280296E+00
         -2   -1    0    0    0  501 -0.00000000000E+00  0.00000000000E+00  0.43701542702E+03  0.43701542702E+03  0.00000000000E+00 0.  1.
          2   -1    0    0  502    0  0.00000000000E+00 -0.00000000000E+00 -0.14239532763E+03  0.14239532763E+03  0.00000000000E+00 0. -1.
          6    1    1    2  502    0  0.22300159075E+02  0.17038057678E+03  0.86153300934E+02  0.25860825451E+03  0.17300000000E+03 0. -1.
         -6    1    1    2    0  501 -0.22300159075E+02 -0.17038057678E+03  0.20846679846E+03  0.32080250014E+03  0.17300000000E+03 0.  1.
</event>
<event>
 4    1  0.1089518E+000  0.1000000E+03  0.7546771E-02  0.1280296E+00
         -2   -1    0    0    0  501 -0.00000000000E+00  0.00000000000E+00  0.75442753799E+02  0.75442753799E+02  0.00000000000E+00 0. -1.
          2   -1    0    0  502    0  0.00000000000E+00 -0.00000000000E+00 -0.11612355802E+04  0.11612355802E+04  0.00000000000E+00 0.  1.
          6    1    1    2  502    0  0.10337062603E+03  0.84823051176E+02 -0.95965545372E+03  0.98424998155E+03  0.17300000000E+03 0.  1.
         -6    1    1    2    0  501 -0.10337062603E+03 -0.84823051176E+02 -0.12613737271E+03  0.25242835247E+03  0.17300000000E+03 0. -1.
</event>
<event>
 4    1  0.1089518E+000  0.1000000E+03  0.7546771E-02  0.1280296E+00
         -1   -1    0    0    0  501 -0.00000000000E+00  0.00000000000E+00  0.19125099879E+03  0.19125099879E+03  0.00000000000E+00 0. -1.
          1   -1    0    0  502    0  0.00000000000E+00 -0.00000000000E+00 -0.19148171959E+03  0.19148171959E+03  0.00000000000E+00 0.  1.
          6    1    1    2  502    0 -0.48552512745E+02  0.13143126468E+02 -0.64628795947E+02  0.19140524949E+03  0.17300000000E+03 0.  1.
         -6    1    1    2    0  501  0.48552512745E+02 -0.13143126468E+02  0.64398075151E+02  0.19132746889E+03  0.17300000000E+03 0. -1.
</event>
<event>
 4    1  0.1089518E+000  0.1000000E+03  0.7546771E-02  0.1280296E+00
         -1   -1    0    0    0  501 -0.00000000000E+00  0.00000000000E+00  0.22871041120E+02  0.22871041120E+02  0.00000000000E+00 0. -1.
          1   -1    0    0  502    0  0.00000000000E+00 -0.00000000000E+00 -0.13359535676E+04  0.13359535676E+04  0.00000000000E+00 0.  1.
          6    1    1    2  502    0  0.46617583770E+01 -0.80880543453E+01 -0.74673736307E+03  0.76657213491E+03  0.17300000000E+03 0.  1.
         -6    1    1    2    0  501 -0.46617583770E+01  0.80880543453E+01 -0.56634516336E+03  0.59225247376E+03  0.17300000000E+03 0. -1.
</event>
<event>
 4    1  0.1089518E+000  0.1000000E+03  0.7546771E-02  0.1280296E+00
         -1   -1    0    0    0  501 -0.00000000000E+00  0.00000000000E+00  0.22184021843E+02  0.22184021843E+02  0.00000000000E+00 0. -1.
          1   -1    0    0  502    0  0.00000000000E+00 -0.00000000000E+00 -0.26689271466E+04  0.26689271466E+04  0.00000000000E+00 0.  1.
          6    1    1    2  502    0  0.70732454968E+01 -0.39095650460E+02 -0.22437222038E+04  0.22507325093E+04  0.17300000000E+03 0.  1.
         -6    1    1    2    0  501 -0.70732454968E+01  0.39095650460E+02 -0.40302092102E+03  0.44037865919E+03  0.17300000000E+03 0. -1.
</event>
<event>
 4    1  0.1089518E+000  0.1000000E+03  0.7546771E-02  0.1280296E+00
         -2   -1    0    0    0  501 -0.00000000000E+00  0.00000000000E+00  0.10198329648E+03  0.10198329648E+03  0.00000000000E+00 0.  1.
          2   -1    0    0  502    0  0.00000000000E+00 -0.00000000000E+00 -0.15348878049E+04  0.15348878049E+04  0.00000000000E+00 0. -1.
          6    1    1    2  502    0  0.69829673472E+02  0.12572051021E+03 -0.43204502395E+02  0.22907959100E+03  0.17300000000E+03 0. -1.
         -6    1    1    2    0  501 -0.69829673472E+02 -0.12572051021E+03 -0.13897000060E+04  0.14077915104E+04  0.17300000000E+03 0.  1.
</event>
<event>
 4    1  0.1089518E+000  0.1000000E+03  0.7546771E-02  0.1280296E+00
          3   -1    0    0  502    0  0.00000000000E+00  0.00000000000E+00  0.37431690417E+03  0.37431690417E+03  0.00000000000E+00 0.  1.
         -3   -1    0    0    0  501 -0.00000000000E+00 -0.00000000000E+00 -0.46501433136E+03  0.46501433136E+03  0.00000000000E+00 0. -1.
          6    1    1    2  502    0  0.12809078663E+02  0.12286868383E+03 -0.40645193873E+03  0.45868612848E+03  0.17300000000E+03 0.  1.
         -6    1    1    2    0  501 -0.12809078663E+02 -0.12286868383E+03  0.31575451154E+03  0.38064510705E+03  0.17300000000E+03 0. -1.
</event>
<event>
 4    1  0.1089518E+000  0.1000000E+03  0.7546771E-02  0.1280296E+00
          1   -1    0    0  502    0  0.00000000000E+00  0.00000000000E+00  0.24377270984E+02  0.24377270984E+02  0.00000000000E+00 0.  1.
         -1   -1    0    0    0  501 -0.00000000000E+00 -0.00000000000E+00 -0.13580911744E+04  0.13580911744E+04  0.00000000000E+00 0. -1.
          6    1    1    2  502    0 -0.58226582368E+01 -0.41028632539E+02 -0.52168258379E+03  0.55117961706E+03  0.17300000000E+03 0.  1.
         -6    1    1    2    0  501  0.58226582368E+01  0.41028632539E+02 -0.81203131962E+03  0.83128882832E+03  0.17300000000E+03 0. -1.
</event>
<event>
 4    1  0.1089518E+000  0.1000000E+03  0.7546771E-02  0.1280296E+00
          3   -1    0    0  502    0  0.00000000000E+00  0.00000000000E+00  0.10590960361E+03  0.10590960361E+03  0.00000000000E+00 0. -1.
         -3   -1    0    0    0  501 -0.00000000000E+00 -0.00000000000E+00 -0.39159383137E+03  0.39159383137E+03  0.00000000000E+00 0.  1.
          6    1    1    2  502    0  0.23570882811E+02  0.10231074431E+03 -0.17073517750E+03  0.26476891010E+03  0.17300000000E+03 0. -1.
         -6    1    1    2    0  501 -0.23570882811E+02 -0.10231074431E+03 -0.11494905026E+03  0.23273452488E+03  0.17300000000E+03 0.  1.
</event>
<event>
 4    1  0.1089518E+000  0.1000000E+03  0.7546771E-02  0.1280296E+00
          1   -1    0    0  502    0  0.00000000000E+00  0.00000000000E+00  0.89602295748E+03  0.89602295748E+03  0.00000000000E+00 0. -1.
         -1   -1    0    0    0  501 -0.00000000000E+00 -0.00000000000E+00 -0.41355402630E+02  0.41355402630E+02  0.00000000000E+00 0.  1.
          6    1    1    2  502    0 -0.64958084928E+02  0.32207355215E+02  0.53260864737E+03  0.56467498420E+03  0.17300000000E+03 0. -1.
         -6    1    1    2    0  501  0.64958084928E+02 -0.32207355215E+02  0.32205890748E+03  0.37270337591E+03  0.17300000000E+03 0.  1.
</event>
<event>
 4    1  0.1089518E+000  0.1000000E+03  0.7546771E-02  0.1280296E+00
          1   -1    0    0  502    0  0.00000000000E+00  0.00000000000E+00  0.26349624217E+03  0.26349624217E+03  0.00000000000E+00 0. -1.
         -1   -1    0    0    0  501 -0.00000000000E+00 -0.00000000000E+00 -0.53417472731E+03  0.53417472731E+03  0.00000000000E+00 0.  1.
          6    1    1    2  502    0  0.18489429499E+03 -0.24272578322E+03  0.61831897447E+01  0.35081182704E+03  0.17300000000E+03 0. -1.
         -6    1    1    2    0  501 -0.18489429499E+03  0.24272578322E+03 -0.27686167489E+03  0.44685914244E+03  0.17300000000E+03 0.  1.
</event>
<event>
 4    1  0.1089518E+000  0.1000000E+03  0.7546771E-02  0.1280296E+00
          2   -1    0    0  502    0  0.00000000000E+00  0.00000000000E+00  0.84030924977E+03  0.84030924977E+03  0.00000000000E+00 0.  1.
         -2   -1    0    0    0  501 -0.00000000000E+00 -0.00000000000E+00 -0.78682504534E+02  0.78682504534E+02  0.00000000000E+00 0. -1.
          6    1    1    2  502    0 -0.43592308383E+02  0.99885383186E+02  0.10218414664E+03  0.22857816814E+03  0.17300000000E+03 0. -1.
         -6    1    1    2    0  501  0.43592308383E+02 -0.99885383186E+02  0.65944259859E+03  0.69041358616E+03  0.17300000000E+03 0.  1.
</event>
<event>
 4    1  0.1089518E+000  0.1000000E+03  0.7546771E-02  0.1280296E+00
          2   -1    0    0  502    0  0.00000000000E+00  0.00000000000E+00  0.35813726840E+03  0.35813726840E+03  0.00000000000E+00 0.  1.
         -2   -1    0    0    0  501 -0.00000000000E+00 -0.00000000000E+00 -0.10363651220E+03  0.10363651220E+03  0.00000000000E+00 0. -1.
          6    1    1    2  502    0 -0.48431141155E+02  0.66530569659E+02  0.15167059637E+03  0.24434578354E+03  0.17300000000E+03 0.  1.
         -6    1    1    2    0  501  0.48431141155E+02 -0.66530569659E+02  0.10283015983E+03  0.21742799706E+03  0.17300000000E+03 0.  1.
</event>
<event>
 4    1  0.1089518E+000  0.1000000E+03  0.7546771E-02  0.1280296E+00
         -2   -1    0    0    0  501 -0.00000000000E+00  0.00000000000E+00  0.80270305489E+02  0.80270305489E+02  0.00000000000E+00 0. -1.
          2   -1    0    0  502    0  0.00000000000E+00 -0.00000000000E+00 -0.14021208453E+04  0.14021208453E+04  0.00000000000E+00 0.  1.
          6    1    1    2  502    0 -0.18405953003E+03  0.94023015016E+02 -0.11022485840E+04  0.11347242744E+04  0.17300000000E+03 0. -1.
         -6    1    1    2    0  501  0.18405953003E+03 -0.94023015016E+02 -0.21960195579E+03  0.34766687638E+03  0.17300000000E+03 0.  1.
</event>
<event>
 4    1  0.1089518E+000  0.1000000E+03  0.7546771E-02  0.1280296E+00
         -2   -1    0    0    0  501 -0.00000000000E+00  0.00000000000E+00  0.20186115912E+03  0.20186115912E+03  0.00000000000E+00 0. -1.
          2   -1    0    0  502    0  0.00000000000E+00 -0.00000000000E+00 -0.29206026616E+03  0.29206026616E+03  0.00000000000E+00 0.  1.
          6    1    1    2  502    0  0.15698536663E+02 -0.41441084248E+02  0.12222194490E+03  0.21640473962E+03  0.17300000000E+03 0. -1.
         -6    1    1    2    0  501 -0.15698536663E+02  0.41441084248E+02 -0.21242105194E+03  0.27751668567E+03  0.17300000000E+03 0.  1.
</event>
<event>
 4    1  0.1089518E+000  0.1000000E+03  0.7546771E-02  0.1280296E+00
          2   -1    0    0  502    0  0.00000000000E+00  0.00000000000E+00  0.11160564593E+04  0.11160564593E+04  0.00000000000E+00 0.  1.
         -2   -1    0    0    0  501 -0.00000000000E+00 -0.00000000000E+00 -0.34931238794E+02  0.34931238794E+02  0.00000000000E+00 0. -1.
          6    1    1    2  502    0 -0.81801395968E+02 -0.29883872328E+02  0.65237843628E+03  0.68052269494E+03  0.17300000000E+03 0. -1.
         -6    1    1    2    0  501  0.81801395968E+02  0.29883872328E+02  0.42874678423E+03  0.47046500316E+03  0.17300000000E+03 0.  1.
</event>
<event>
 4    1  0.1089518E+000  0.1000000E+03  0.7546771E-02  0.1280296E+00
          1   -1    0    0  502    0  0.00000000000E+00  0.00000000000E+00  0.15506639248E+04  0.15506639248E+04  0.00000000000E+00 0. -1.
         -1   -1    0    0    0  501 -0.00000000000E+00 -0.00000000000E+00 -0.29311226509E+02  0.29311226509E+02  0.00000000000E+00 0.  1.
          6    1    1    2  502    0 -0.92792262764E+02 -0.36985755094E+02  0.10365918280E+04  0.10556656516E+04  0.17300000000E+03 0. -1.
         -6    1    1    2    0  501  0.92792262764E+02  0.36985755094E+02  0.48476087027E+03  0.52430949968E+03  0.17300000000E+03 0.  1.
</event>
<event>
 4    1  0.1089518E+000  0.1000000E+03  0.7546771E-02  0.1280296E+00
          2   -1    0    0  502    0  0.00000000000E+00  0.00000000000E+00  0.42557592116E+03  0.42557592116E+03  0.00000000000E+00 0. -1.
         -2   -1    0    0    0  501 -0.00000000000E+00 -0.00000000000E+00 -0.85224395323E+02  0.85224395323E+02  0.00000000000E+00 0.  1.
          6    1    1    2  502    0  0.36125739586E+02  0.63774787390E+02  0.12844812628E+03  0.22759660303E+03  0.17300000000E+03 0. -1.
         -6    1    1    2    0  501 -0.36125739586E+02 -0.63774787390E+02  0.21190339956E+03  0.28320371345E+03  0.17300000000E+03 0.  1.
</event>
<event>
 4    1  0.1089518E+000  0.1000000E+03  0.7546771E-02  0.1280296E+00
         -1   -1    0    0    0  501 -0.00000000000E+00  0.00000000000E+00  0.95655011877E+03  0.95655011877E+03  0.00000000000E+00 0.  1.
          1   -1    0    0  502    0  0.00000000000E+00 -0.00000000000E+00 -0.39623681845E+02  0.39623681845E+02  0.00000000000E+00 0. -1.
          6    1    1    2  502    0  0.14897887128E+02 -0.84161758885E+02  0.39234426880E+03  0.43722782844E+03  0.17300000000E+03 0. -1.
         -6    1    1    2    0  501 -0.14897887128E+02  0.84161758885E+02  0.52458216812E+03  0.55894597218E+03  0.17300000000E+03 0.  1.
</event>
<event>
 4    1  0.1089518E+000  0.1000000E+03  0.7546771E-02  0.1280296E+00
         -2   -1    0    0    0  501 -0.00000000000E+00  0.00000000000E+00  0.17072368346E+03  0.17072368346E+03  0.00000000000E+00 0.  1.
          2   -1    0    0  502    0  0.00000000000E+00 -0.00000000000E+00 -0.36838761297E+03  0.36838761297E+03  0.00000000000E+00 0. -1.
          6    1    1    2  502    0 -0.63124710051E+00 -0.12068189225E+02 -0.29354788466E+03  0.34094779696E+03  0.17300000000E+03 0. -1.
         -6    1    1    2    0  501  0.63124710051E+00  0.12068189225E+02  0.95883955151E+02  0.19816349946E+03  0.17300000000E+03 0.  1.
</event>
<event>
 4    1  0.1089518E+000  0.1000000E+03  0.7546771E-02  0.1280296E+00
         -2   -1    0    0    0  501 -0.00000000000E+00  0.00000000000E+00  0.33975822485E+03  0.33975822485E+03  0.00000000000E+00 0. -1.
          2   -1    0    0  502    0  0.00000000000E+00 -0.00000000000E+00 -0.69074465767E+03  0.69074465767E+03  0.00000000000E+00 0.  1.
          6    1    1    2  502    0 -0.43472886343E+02 -0.17190274109E+03  0.26729464572E+03  0.36443911957E+03  0.17300000000E+03 0.  1.
         -6    1    1    2    0  501  0.43472886343E+02  0.17190274109E+03 -0.61828107853E+03  0.66606376295E+03  0.17300000000E+03 0. -1.
</event>
<event>
 4    1  0.1089518E+000  0.1000000E+03  0.7546771E-02  0.1280296E+00
         -1   -1    0    0    0  501 -0.00000000000E+00  0.00000000000E+00  0.25501002631E+03  0.25501002631E+03  0.00000000000E+00 0. -1.
          1   -1    0    0  502    0  0.00000000000E+00 -0.00000000000E+00 -0.27763146025E+03  0.27763146025E+03  0.00000000000E+00 0.  1.
          6    1    1    2  502    0  0.10067623015E+03  0.17356471802E+03 -0.36018863109E+02  0.26737010521E+03  0.17300000000E+03 0.  1.
         -6    1    1    2    0  501 -0.10067623015E+03 -0.17356471802E+03  0.13397429172E+02  0.26527138136E+03  0.17300000000E+03 0. -1.
</event>
<event>
 4    1  0.1089518E+000  0.1000000E+03  0.7546771E-02  0.1280296E+00
         -1   -1    0    0    0  501 -0.00000000000E+00  0.00000000000E+00  0.20345583409E+03  0.20345583409E+03  0.00000000000E+00 0. -1.
          1   -1    0    0  502    0  0.00000000000E+00 -0.00000000000E+00 -0.46468661896E+03  0.46468661896E+03  0.00000000000E+00 0.  1.
          6    1    1    2  502    0 -0.14807333633E+03  0.10575554643E+03  0.62229669274E+02  0.25867253482E+03  0.17300000000E+03 0.  1.
         -6    1    1    2    0  501  0.14807333633E+03 -0.10575554643E+03 -0.32346045414E+03  0.40946991822E+03  0.17300000000E+03 0. -1.
</event>
<event>
 4    1  0.1089518E+000  0.1000000E+03  0.7546771E-02  0.1280296E+00
         -3   -1    0    0    0  501 -0.00000000000E+00  0.00000000000E+00  0.36906271030E+02  0.36906271030E+02  0.00000000000E+00 0. -1.
          3   -1    0    0  502    0  0.00000000000E+00 -0.00000000000E+00 -0.87055805777E+03  0.87055805777E+03  0.00000000000E+00 0.  1.
          6    1    1    2  502    0 -0.21213593220E+02  0.22002191271E+02 -0.32676070810E+03  0.37099282111E+03  0.17300000000E+03 0.  1.
         -6    1    1    2    0  501  0.21213593220E+02 -0.22002191271E+02 -0.50689107864E+03  0.53647150769E+03  0.17300000000E+03 0. -1.
</event>
<event>
 4    1  0.1089518E+000  0.1000000E+03  0.7546771E-02  0.1280296E+00
         -2   -1    0    0    0  501 -0.00000000000E+00  0.00000000000E+00  0.45982860081E+03  0.45982860081E+03  0.00000000000E+00 0.  1.
          2   -1    0    0  502    0  0.00000000000E+00 -0.00000000000E+00 -0.23548616699E+03  0.23548616699E+03  0.00000000000E+00 0. -1.
          6    1    1    2  502    0 -0.27964618351E+03  0.55211839276E+01  0.12383126158E+03  0.35141948263E+03  0.17300000000E+03 0.  1.
         -6    1    1    2    0  501  0.27964618351E+03 -0.55211839276E+01  0.10051117224E+03  0.34389528518E+03  0.17300000000E+03 0. -1.
</event>
<event>
 4    1  0.1089518E+000  0.1000000E+03  0.7546771E-02  0.1280296E+00
         -2   -1    0    0    0  501 -0.00000000000E+00  0.00000000000E+00  0.15184170531E+03  0.15184170531E+03  0.00000000000E+00 0.  1.
          2   -1    0    0  502    0  0.00000000000E+00 -0.00000000000E+00 -0.50478250597E+03  0.50478250597E+03  0.00000000000E+00 0. -1.
          6    1    1    2  502    0 -0.12724159096E+03  0.58620069980E+02 -0.37165886450E+03  0.43322747678E+03  0.17300000000E+03 0.  1.
         -6    1    1    2    0  501  0.12724159096E+03 -0.58620069980E+02  0.18718063835E+02  0.22339673451E+03  0.17300000000E+03 0. -1.
</event>
<event>
 4    1  0.1089518E+000  0.1000000E+03  0.7546771E-02  0.1280296E+00
         -2   -1    0    0    0  501 -0.00000000000E+00  0.00000000000E+00  0.32994866034E+02  0.32994866034E+02  0.00000000000E+00 0.  1.
          2   -1    0    0  502    0  0.00000000000E+00 -0.00000000000E+00 -0.23296303652E+04  0.23296303652E+04  0.00000000000E+00 0. -1.
          6    1    1    2  502    0  0.13089378378E+03 -0.14411097485E+03 -0.74329565461E+03  0.78760306365E+03  0.17300000000E+03 0.  1.
         -6    1    1    2    0  501 -0.13089378378E+03  0.14411097485E+03 -0.15533398445E+04  0.15750221676E+04  0.17300000000E+03 0. -1.
</event>
<event>
 4    1  0.1089518E+000  0.1000000E+03  0.7546771E-02  0.1280296E+00
         -1   -1    0    0    0  501 -0.00000000000E+00  0.00000000000E+00  0.62777555504E+03  0.62777555504E+03  0.00000000000E+00 0.  1.
          1   -1    0    0  502    0  0.00000000000E+00 -0.00000000000E+00 -0.70113147092E+02  0.70113147092E+02  0.00000000000E+00 0. -1.
          6    1    1    2  502    0 -0.72244776073E+02  0.51644724307E+01  0.12244849402E+03  0.22398351085E+03  0.17300000000E+03 0.  1.
         -6    1    1    2    0  501  0.72244776073E+02 -0.51644724307E+01  0.43521391393E+03  0.47390519128E+03  0.17300000000E+03 0. -1.
</event>
<event>
 4    1  0.1089518E+000  0.1000000E+03  0.7546771E-02  0.1280296E+00
         -2   -1    0    0    0  501 -0.00000000000E+00  0.00000000000E+00  0.31857828329E+02  0.31857828329E+02  0.00000000000E+00 0.  1.
          2   -1    0    0  502    0  0.00000000000E+00 -0.00000000000E+00 -0.10985811265E+04  0.10985811265E+04  0.00000000000E+00 0. -1.
          6    1    1    2  502    0 -0.63240400544E+02  0.19030879038E+02 -0.45297670253E+03  0.48936531922E+03  0.17300000000E+03 0. -1.
         -6    1    1    2    0  501  0.63240400544E+02 -0.19030879038E+02 -0.61374659568E+03  0.64107363565E+03  0.17300000000E+03 0.  1.
</event>
<event>
 4    1  0.1089518E+000  0.1000000E+03  0.7546771E-02  0.1280296E+00
          2   -1    0    0  502    0  0.00000000000E+00  0.00000000000E+00  0.18032583496E+04  0.18032583496E+04  0.00000000000E+00 0.  1.
         -2   -1    0    0    0  501 -0.00000000000E+00 -0.00000000000E+00 -0.26593428012E+02  0.26593428012E+02  0.00000000000E+00 0. -1.
          6    1    1    2  502    0  0.11257214707E+03  0.63388620039E+02  0.10409995720E+04  0.10631555457E+04  0.17300000000E+03 0.  1.
         -6    1    1    2    0  501 -0.11257214707E+03 -0.63388620039E+02  0.73566534957E+03  0.76669623190E+03  0.17300000000E+03 0. -1.
</event>
<event>
 4    1  0.1089518E+000  0.1000000E+03  0.7546771E-02  0.1280296E+00
          1   -1    0    0  502    0  0.00000000000E+00  0.00000000000E+00  0.33147611495E+03  0.33147611495E+03  0.00000000000E+00 0.  1.
         -1   -1    0    0    0  501 -0.00000000000E+00 -0.00000000000E+00 -0.13736429006E+03  0.13736429006E+03  0.00000000000E+00 0. -1.
          6    1    1    2  502    0  0.31151201147E+02  0.10322757607E+03  0.27769934095E+02  0.20573404928E+03  0.17300000000E+03 0.  1.
         -6    1    1    2    0  501 -0.31151201147E+02 -0.10322757607E+03  0.16634189079E+03  0.26310635573E+03  0.17300000000E+03 0. -1.
</event>
<event>
 4    1  0.1089518E+000  0.1000000E+03  0.7546771E-02  0.1280296E+00
          1   -1    0    0  502    0  0.00000000000E+00  0.00000000000E+00  0.85063673399E+03  0.85063673399E+03  0.00000000000E+00 0.  1.
         -1   -1    0    0    0  501 -0.00000000000E+00 -0.00000000000E+00 -0.96946347352E+03  0.96946347352E+03  0.00000000000E+00 0. -1.
          6    1    1    2  502    0 -0.51958420034E+03  0.71888392224E+03  0.30054642027E+02  0.90420911099E+03  0.17300000000E+03 0.  1.
         -6    1    1    2    0  501  0.51958420034E+03 -0.71888392224E+03 -0.14888138155E+03  0.91589109651E+03  0.17300000000E+03 0. -1.
</event>
<event>
 4    1  0.1089518E+000  0.1000000E+03  0.7546771E-02  0.1280296E+00
          2   -1    0    0  502    0  0.00000000000E+00  0.00000000000E+00  0.41768848511E+03  0.41768848511E+03  0.00000000000E+00 0.  1.
         -2   -1    0    0    0  501 -0.00000000000E+00 -0.00000000000E+00 -0.82057154629E+02  0.82057154629E+02  0.00000000000E+00 0. -1.
          6    1    1    2  502    0  0.55871988995E+01  0.33778220800E+02  0.24384468729E+03  0.30093423951E+03  0.17300000000E+03 0.  1.
         -6    1    1    2    0  501 -0.55871988995E+01 -0.33778220800E+02  0.91786643194E+02  0.19881140023E+03  0.17300000000E+03 0. -1.
</event>
<event>
 4    1  0.1089518E+000  0.1000000E+03  0.7546771E-02  0.1280296E+00
          1   -1    0    0  502    0  0.00000000000E+00  0.00000000000E+00  0.31717284442E+03  0.31717284442E+03  0.00000000000E+00 0.  1.
         -1   -1    0    0    0  501 -0.00000000000E+00 -0.00000000000E+00 -0.17885096073E+03  0.17885096073E+03  0.00000000000E+00 0. -1.
          6    1    1    2  502    0 -0.60749473060E+02 -0.12119830096E+03 -0.26379444384E+02  0.22136937846E+03  0.17300000000E+03 0.  1.
         -6    1    1    2    0  501  0.60749473060E+02  0.12119830096E+03  0.16470132808E+03  0.27465442670E+03  0.17300000000E+03 0. -1.
</event>
<event>
 4    1  0.1089518E+000  0.1000000E+03  0.7546771E-02  0.1280296E+00
          2   -1    0    0  502    0  0.00000000000E+00  0.00000000000E+00  0.40980613260E+03  0.40980613260E+03  0.00000000000E+00 0.  1.
         -2   -1    0    0    0  501 -0.00000000000E+00 -0.00000000000E+00 -0.20531946099E+03  0.20531946099E+03  0.00000000000E+00 0. -1.
          6    1    1    2  502    0 -0.21406142658E+03  0.24426455485E+02  0.86406709517E+01  0.27644639132E+03  0.17300000000E+03 0.  1.
         -6    1    1    2    0  501  0.21406142658E+03 -0.24426455485E+02  0.19584600065E+03  0.33867920227E+03  0.17300000000E+03 0. -1.
</event>
<event>
 4    1  0.1089518E+000  0.1000000E+03  0.7546771E-02  0.1280296E+00
          2   -1    0    0  502    0  0.00000000000E+00  0.00000000000E+00  0.24228661696E+04  0.24228661696E+04  0.00000000000E+00 0. -1.
         -2   -1    0    0    0  501 -0.00000000000E+00 -0.00000000000E+00 -0.13329728115E+02  0.13329728115E+02  0.00000000000E+00 0.  1.
          6    1    1    2  502    0  0.40787572784E+02 -0.23436403216E+02  0.12889519540E+04  0.13013604538E+04  0.17300000000E+03 0. -1.
         -6    1    1    2    0  501 -0.40787572784E+02  0.23436403216E+02  0.11205844875E+04  0.11348354439E+04  0.17300000000E+03 0.  1.
</event>
<event>
 4    1  0.1089518E+000  0.1000000E+03  0.7546771E-02  0.1280296E+00
         -2   -1    0    0    0  501 -0.00000000000E+00  0.00000000000E+00  0.10333277002E+03  0.10333277002E+03  0.00000000000E+00 0.  1.
          2   -1    0    0  502    0  0.00000000000E+00 -0.00000000000E+00 -0.18544672035E+04  0.18544672035E+04  0.00000000000E+00 0. -1.
          6    1    1    2  502    0 -0.90216860412E+02 -0.31862748508E+03 -0.13856730765E+04  0.14351590264E+04  0.17300000000E+03 0. -1.
         -6    1    1    2    0  501  0.90216860412E+02  0.31862748508E+03 -0.36546135696E+03  0.52264094710E+03  0.17300000000E+03 0.  1.
</event>
<event>
 4    1  0.1089518E+000  0.1000000E+03  0.7546771E-02  0.1280296E+00
         -2   -1    0    0    0  501 -0.00000000000E+00  0.00000000000E+00  0.22256202247E+02  0.22256202247E+02  0.00000000000E+00 0.  1.
          2   -1    0    0  502    0  0.00000000000E+00 -0.00000000000E+00 -0.14987221812E+04  0.14987221812E+04  0.00000000000E+00 0. -1.
          6    1    1    2  502    0 -0.93840576174E+00  0.10653396606E+01 -0.49454864621E+03  0.52393642651E+03  0.17300000000E+03 0. -1.
         -6    1    1    2    0  501  0.93840576174E+00 -0.10653396606E+01 -0.98191733274E+03  0.99704195693E+03  0.17300000000E+03 0.  1.
</event>
<event>
 4    1  0.1089518E+000  0.1000000E+03  0.7546771E-02  0.1280296E+00
         -2   -1    0    0    0  501 -0.00000000000E+00  0.00000000000E+00  0.17616488367E+03  0.17616488367E+03  0.00000000000E+00 0. -1.
          2   -1    0    0  502    0  0.00000000000E+00 -0.00000000000E+00 -0.26365224004E+03  0.26365224004E+03  0.00000000000E+00 0.  1.
          6    1    1    2  502    0 -0.12825399364E+03  0.38044010383E+01 -0.36265815119E+02  0.21842108345E+03  0.17300000000E+03 0.  1.
         -6    1    1    2    0  501  0.12825399364E+03 -0.38044010383E+01 -0.51221541254E+02  0.22139604025E+03  0.17300000000E+03 0. -1.
</event>
<event>
 4    1  0.1089518E+000  0.1000000E+03  0.7546771E-02  0.1280296E+00
          2   -1    0    0  502    0  0.00000000000E+00  0.00000000000E+00  0.20859142384E+04  0.20859142384E+04  0.00000000000E+00 0.  1.
         -2   -1    0    0    0  501 -0.00000000000E+00 -0.00000000000E+00 -0.36113410775E+02  0.36113410775E+02  0.00000000000E+00 0. -1.
          6    1    1    2  502    0 -0.65103762045E+02  0.94359829815E+02  0.33058208135E+03  0.39032779792E+03  0.17300000000E+03 0. -1.
         -6    1    1    2    0  501  0.65103762045E+02 -0.94359829815E+02  0.17192187463E+04  0.17316998512E+04  0.17300000000E+03 0.  1.
</event>
<event>
 4    1  0.1089518E+000  0.1000000E+03  0.7546771E-02  0.1280296E+00
          2   -1    0    0  502    0  0.00000000000E+00  0.00000000000E+00  0.21269598445E+04  0.21269598445E+04  0.00000000000E+00 0.  1.
         -2   -1    0    0    0  501 -0.00000000000E+00 -0.00000000000E+00 -0.62162694544E+02  0.62162694544E+02  0.00000000000E+00 0. -1.
          6    1    1    2  502    0 -0.25722763634E+03 -0.71134623479E+02  0.50186513268E+03  0.59415806227E+03  0.17300000000E+03 0. -1.
         -6    1    1    2    0  501  0.25722763634E+03  0.71134623479E+02  0.15629320173E+04  0.15949644768E+04  0.17300000000E+03 0.  1.
</event>
<event>
 4    1  0.1089518E+000  0.1000000E+03  0.7546771E-02  0.1280296E+00
          2   -1    0    0  502    0  0.00000000000E+00  0.00000000000E+00  0.13035139085E+03  0.13035139085E+03  0.00000000000E+00 0. -1.
         -2   -1    0    0    0  501 -0.00000000000E+00 -0.00000000000E+00 -0.35222249923E+03  0.35222249923E+03  0.00000000000E+00 0.  1.
          6    1    1    2  502    0  0.44456700174E+02  0.37536747184E+02 -0.23732860398E+03  0.29939818277E+03  0.17300000000E+03 0. -1.
         -6    1    1    2    0  501 -0.44456700174E+02 -0.37536747184E+02  0.15457495600E+02  0.18317570731E+03  0.17300000000E+03 0.  1.
</event>
<event>
 4    1  0.1089518E+000  0.1000000E+03  0.7546771E-02  0.1280296E+00
          1   -1    0    0  502    0  0.00000000000E+00  0.00000000000E+00  0.16469005257E+04  0.16469005257E+04  0.00000000000E+00 0. -1.
         -1   -1    0    0    0  501 -0.00000000000E+00 -0.00000000000E+00 -0.50262075747E+02  0.50262075747E+02  0.00000000000E+00 0.  1.
          6    1    1    2  502    0  0.20005808278E+03 -0.37692376985E+02  0.48335428647E+03  0.55227196019E+03  0.17300000000E+03 0. -1.
         -6    1    1    2    0  501 -0.20005808278E+03  0.37692376985E+02  0.11132841635E+04  0.11448906413E+04  0.17300000000E+03 0.  1.
</event>
<event>
 4    1  0.1089518E+000  0.1000000E+03  0.7546771E-02  0.1280296E+00
          2   -1    0    0  502    0  0.00000000000E+00  0.00000000000E+00  0.93506693538E+03  0.93506693538E+03  0.00000000000E+00 0. -1.
         -2   -1    0    0    0  501 -0.00000000000E+00 -0.00000000000E+00 -0.80253158537E+02  0.80253158537E+02  0.00000000000E+00 0.  1.
          6    1    1    2  502    0  0.13422531534E+03 -0.39968937232E+02  0.13148083855E+03  0.25851530347E+03  0.17300000000E+03 0. -1.
         -6    1    1    2    0  501 -0.13422531534E+03  0.39968937232E+02  0.72333293829E+03  0.75680479044E+03  0.17300000000E+03 0.  1.
</event>
<event>
 4    1  0.1089518E+000  0.1000000E+03  0.7546771E-02  0.1280296E+00
          3   -1    0    0  502    0  0.00000000000E+00  0.00000000000E+00  0.20621940588E+03  0.20621940588E+03  0.00000000000E+00 0.  1.
         -3   -1    0    0    0  501 -0.00000000000E+00 -0.00000000000E+00 -0.19707981530E+03  0.19707981530E+03  0.00000000000E+00 0. -1.
          6    1    1    2  502    0  0.23822492238E+02 -0.96681482627E+02  0.32823506010E+02  0.20228989784E+03  0.17300000000E+03 0.  1.
         -6    1    1    2    0  501 -0.23822492238E+02  0.96681482627E+02 -0.23683915431E+02  0.20100932334E+03  0.17300000000E+03 0. -1.
</event>
<event>
 4    1  0.1089518E+000  0.1000000E+03  0.7546771E-02  0.1280296E+00
         -2   -1    0    0    0  501 -0.00000000000E+00  0.00000000000E+00  0.73431125555E+02  0.73431125555E+02  0.00000000000E+00 0. -1.
          2   -1    0    0  502    0  0.00000000000E+00 -0.00000000000E+00 -0.61375278302E+03  0.61375278302E+03  0.00000000000E+00 0.  1.
          6    1    1    2  502    0  0.61451152669E+02  0.91272295481E+02 -0.35928993727E+03  0.41367273915E+03  0.17300000000E+03 0.  1.
         -6    1    1    2    0  501 -0.61451152669E+02 -0.91272295481E+02 -0.18103172019E+03  0.27351116943E+03  0.17300000000E+03 0. -1.
</event>
<event>
 4    1  0.1089518E+000  0.1000000E+03  0.7546771E-02  0.1280296E+00
         -3   -1    0    0    0  501 -0.00000000000E+00  0.00000000000E+00  0.44137195331E+03  0.44137195331E+03  0.00000000000E+00 0.  1.
          3   -1    0    0  502    0  0.00000000000E+00 -0.00000000000E+00 -0.37279134382E+03  0.37279134382E+03  0.00000000000E+00 0. -1.
          6    1    1    2  502    0 -0.15285950094E+03 -0.94491986027E+02  0.35529972173E+03  0.43412170496E+03  0.17300000000E+03 0. -1.
         -6    1    1    2    0  501  0.15285950094E+03  0.94491986027E+02 -0.28671911225E+03  0.38004159217E+03  0.17300000000E+03 0.  1.
</event>
<event>
 4    1  0.1089518E+000  0.1000000E+03  0.7546771E-02  0.1280296E+00
         -2   -1    0    0    0  501 -0.00000000000E+00  0.00000000000E+00  0.81585219865E+02  0.81585219865E+02  0.00000000000E+00 0.  1.
          2   -1    0    0  502    0  0.00000000000E+00 -0.00000000000E+00 -0.12089017790E+04  0.12089017790E+04  0.00000000000E+00 0. -1.
          6    1    1    2  502    0  0.22116444766E+03 -0.10640188043E+03 -0.37463224970E+03  0.48011810587E+03  0.17300000000E+03 0. -1.
         -6    1    1    2    0  501 -0.22116444766E+03  0.10640188043E+03 -0.75268430942E+03  0.81036889299E+03  0.17300000000E+03 0.  1.
</event>
<event>
 4    1  0.1089518E+000  0.1000000E+03  0.7546771E-02  0.1280296E+00
          2   -1    0    0  502    0  0.00000000000E+00  0.00000000000E+00  0.27726753601E+03  0.27726753601E+03  0.00000000000E+00 0.  1.
         -2   -1    0    0    0  501 -0.00000000000E+00 -0.00000000000E+00 -0.34178167996E+03  0.34178167996E+03  0.00000000000E+00 0. -1.
          6    1    1    2  502    0  0.47571889937E+02  0.17243912740E+03  0.14994661573E+03  0.29053627130E+03  0.17300000000E+03 0. -1.
         -6    1    1    2    0  501 -0.47571889937E+02 -0.17243912740E+03 -0.21446075968E+03  0.32851294467E+03  0.17300000000E+03 0.  1.
</event>
<event>
 4    1  0.1089518E+000  0.1000000E+03  0.7546771E-02  0.1280296E+00
          1   -1    0    0  502    0  0.00000000000E+00  0.00000000000E+00  0.15973995405E+03  0.15973995405E+03  0.00000000000E+00 0.  1.
         -1   -1    0    0    0  501 -0.00000000000E+00 -0.00000000000E+00 -0.37636292399E+03  0.37636292399E+03  0.00000000000E+00 0. -1.
          6    1    1    2  502    0  0.11747032068E+03  0.29632735850E+02 -0.24447706342E+03  0.32307183383E+03  0.17300000000E+03 0. -1.
         -6    1    1    2    0  501 -0.11747032068E+03 -0.29632735850E+02  0.27854093486E+02  0.21303104421E+03  0.17300000000E+03 0.  1.
</event>
<event>
 4    1  0.1089518E+000  0.1000000E+03  0.7546771E-02  0.1280296E+00
          1   -1    0    0  502    0  0.00000000000E+00  0.00000000000E+00  0.97157853589E+02  0.97157853589E+02  0.00000000000E+00 0.  1.
         -1   -1    0    0    0  501 -0.00000000000E+00 -0.00000000000E+00 -0.88345553034E+03  0.88345553034E+03  0.00000000000E+00 0. -1.
          6    1    1    2  502    0 -0.27298575430E+02  0.20737860127E+03 -0.57765288648E+03  0.63824991480E+03  0.17300000000E+03 0. -1.
         -6    1    1    2    0  501  0.27298575430E+02 -0.20737860127E+03 -0.20864479028E+03  0.34236346913E+03  0.17300000000E+03 0.  1.
</event>
<event>
 4    1  0.1089518E+000  0.1000000E+03  0.7546771E-02  0.1280296E+00
          1   -1    0    0  502    0  0.00000000000E+00  0.00000000000E+00  0.21123778726E+03  0.21123778726E+03  0.00000000000E+00 0.  1.
         -1   -1    0    0    0  501 -0.00000000000E+00 -0.00000000000E+00 -0.20401812554E+03  0.20401812554E+03  0.00000000000E+00 0. -1.
          6    1    1    2  502    0  0.30285637332E+01  0.19539626474E+01 -0.11109991007E+03  0.20563360665E+03  0.17300000000E+03 0. -1.
         -6    1    1    2    0  501 -0.30285637332E+01 -0.19539626474E+01  0.11831957179E+03  0.20962230615E+03  0.17300000000E+03 0.  1.
</event>
<event>
 4    1  0.1089518E+000  0.1000000E+03  0.7546771E-02  0.1280296E+00
          1   -1    0    0  502    0  0.00000000000E+00  0.00000000000E+00  0.16809410991E+03  0.16809410991E+03  0.00000000000E+00 0.  1.
         -1   -1    0    0    0  501 -0.00000000000E+00 -0.00000000000E+00 -0.23433826582E+03  0.23433826582E+03  0.00000000000E+00 0. -1.
          6    1    1    2  502    0  0.16167723850E+02 -0.95784165496E+02 -0.27964427886E+02  0.20036719013E+03  0.17300000000E+03 0. -1.
         -6    1    1    2    0  501 -0.16167723850E+02  0.95784165496E+02 -0.38279728025E+02  0.20206518560E+03  0.17300000000E+03 0.  1.
</event>
<event>
 4    1  0.1089518E+000  0.1000000E+03  0.7546771E-02  0.1280296E+00
          2   -1    0    0  502    0  0.00000000000E+00  0.00000000000E+00  0.27272243222E+02  0.27272243222E+02  0.00000000000E+00 0.  1.
         -2   -1    0    0    0  501 -0.00000000000E+00 -0.00000000000E+00 -0.13078257511E+04  0.13078257511E+04  0.00000000000E+00 0. -1.
          6    1    1    2  502    0  0.47045859223E+02 -0.23069110135E+02 -0.83364711431E+03  0.85301934791E+03  0.17300000000E+03 0. -1.
         -6    1    1    2    0  501 -0.47045859223E+02  0.23069110135E+02 -0.44690639354E+03  0.48207864638E+03  0.17300000000E+03 0. -1.
</event>
<event>
 4    1  0.1089518E+000  0.1000000E+03  0.7546771E-02  0.1280296E+00
          1   -1    0    0  502    0  0.00000000000E+00  0.00000000000E+00  0.33849506760E+02  0.33849506760E+02  0.00000000000E+00 0.  1.
         -1   -1    0    0    0  501 -0.00000000000E+00 -0.00000000000E+00 -0.11143764102E+04  0.11143764102E+04  0.00000000000E+00 0. -1.
          6    1    1    2  502    0 -0.69065274368E+02  0.54671944185E+02 -0.55725938446E+03  0.59010681675E+03  0.17300000000E+03 0. -1.
         -6    1    1    2    0  501  0.69065274368E+02 -0.54671944185E+02 -0.52326751902E+03  0.55811910025E+03  0.17300000000E+03 0. -1.
</event>
<event>
 4    1  0.1089518E+000  0.1000000E+03  0.7546771E-02  0.1280296E+00
          2   -1    0    0  502    0  0.00000000000E+00  0.00000000000E+00  0.18799406656E+03  0.18799406656E+03  0.00000000000E+00 0.  1.
         -2   -1    0    0    0  501 -0.00000000000E+00 -0.00000000000E+00 -0.22714728907E+03  0.22714728907E+03  0.00000000000E+00 0. -1.
          6    1    1    2  502    0 -0.10053508033E+03  0.44541550240E+02 -0.45810408334E+02  0.21004486565E+03  0.17300000000E+03 0. -1.
         -6    1    1    2    0  501  0.10053508033E+03 -0.44541550240E+02  0.66571858238E+01  0.20509648997E+03  0.17300000000E+03 0. -1.
</event>
<event>
 4    1  0.1089518E+000  0.1000000E+03  0.7546771E-02  0.1280296E+00
          1   -1    0    0  502    0  0.00000000000E+00  0.00000000000E+00  0.15844537260E+04  0.15844537260E+04  0.00000000000E+00 0. -1.
         -1   -1    0    0    0  501 -0.00000000000E+00 -0.00000000000E+00 -0.79918614397E+02  0.79918614397E+02  0.00000000000E+00 0.  1.
          6    1    1    2  502    0 -0.10445745630E+03  0.65713914787E+02  0.14197687515E+04  0.14355841969E+04  0.17300000000E+03 0. -1.
         -6    1    1    2    0  501  0.10445745630E+03 -0.65713914787E+02  0.84766360081E+02  0.22878814343E+03  0.17300000000E+03 0.  1.
</event>
<event>
 4    1  0.1089518E+000  0.1000000E+03  0.7546771E-02  0.1280296E+00
          2   -1    0    0  502    0  0.00000000000E+00  0.00000000000E+00  0.24449562165E+04  0.24449562165E+04  0.00000000000E+00 0. -1.
         -2   -1    0    0    0  501 -0.00000000000E+00 -0.00000000000E+00 -0.14576175416E+02  0.14576175416E+02  0.00000000000E+00 0.  1.
          6    1    1    2  502    0 -0.37160709128E+02  0.63648043466E+02  0.13236322236E+04  0.13369230551E+04  0.17300000000E+03 0. -1.
         -6    1    1    2    0  501  0.37160709128E+02 -0.63648043466E+02  0.11067478174E+04  0.11226093368E+04  0.17300000000E+03 0.  1.
</event>
<event>
 4    1  0.1089518E+000  0.1000000E+03  0.7546771E-02  0.1280296E+00
         -1   -1    0    0    0  501 -0.00000000000E+00  0.00000000000E+00  0.50556377786E+03  0.50556377786E+03  0.00000000000E+00 0.  1.
          1   -1    0    0  502    0  0.00000000000E+00 -0.00000000000E+00 -0.73179483615E+02  0.73179483615E+02  0.00000000000E+00 0. -1.
          6    1    1    2  502    0  0.77334683506E+02  0.22382654205E+02  0.17976557262E+03  0.26215700941E+03  0.17300000000E+03 0.  1.
         -6    1    1    2    0  501 -0.77334683506E+02 -0.22382654205E+02  0.25261872162E+03  0.31658625207E+03  0.17300000000E+03 0. -1.
</event>
<event>
 4    1  0.1089518E+000  0.1000000E+03  0.7546771E-02  0.1280296E+00
         -2   -1    0    0    0  501 -0.00000000000E+00  0.00000000000E+00  0.14237516559E+03  0.14237516559E+03  0.00000000000E+00 0.  1.
          2   -1    0    0  502    0  0.00000000000E+00 -0.00000000000E+00 -0.28373282183E+03  0.28373282183E+03  0.00000000000E+00 0. -1.
          6    1    1    2  502    0  0.61205320601E+01 -0.24420815999E+02 -0.17579646570E+03  0.24792586497E+03  0.17300000000E+03 0.  1.
         -6    1    1    2    0  501 -0.61205320601E+01  0.24420815999E+02  0.34438809458E+02  0.17818212246E+03  0.17300000000E+03 0. -1.
</event>
<event>
 4    1  0.1089518E+000  0.1000000E+03  0.7546771E-02  0.1280296E+00
         -2   -1    0    0    0  501 -0.00000000000E+00  0.00000000000E+00  0.73177187027E+02  0.73177187027E+02  0.00000000000E+00 0. -1.
          2   -1    0    0  502    0  0.00000000000E+00 -0.00000000000E+00 -0.89523229146E+03  0.89523229146E+03  0.00000000000E+00 0.  1.
          6    1    1    2  502    0  0.18196683834E+03 -0.49278658414E+01 -0.50457787892E+03  0.56361693553E+03  0.17300000000E+03 0. -1.
         -6    1    1    2    0  501 -0.18196683834E+03  0.49278658414E+01 -0.31747722551E+03  0.40479254296E+03  0.17300000000E+03 0. -1.
</event>
<event>
 4    1  0.1089518E+000  0.1000000E+03  0.7546771E-02  0.1280296E+00
         -1   -1    0    0    0  501 -0.00000000000E+00  0.00000000000E+00  0.11844195658E+03  0.11844195658E+03  0.00000000000E+00 0. -1.
          1   -1    0    0  502    0  0.00000000000E+00 -0.00000000000E+00 -0.66163784446E+03  0.66163784446E+03  0.00000000000E+00 0.  1.
          6    1    1    2  502    0  0.15294706191E+03 -0.14346215974E+03 -0.17852263078E+03  0.32522841931E+03  0.17300000000E+03 0. -1.
         -6    1    1    2    0  501 -0.15294706191E+03  0.14346215974E+03 -0.36467325709E+03  0.45485138173E+03  0.17300000000E+03 0. -1.
</event>
<event>
 4    1  0.1089518E+000  0.1000000E+03  0.7546771E-02  0.1280296E+00
          1   -1    0    0  502    0  0.00000000000E+00  0.00000000000E+00  0.89310839790E+03  0.89310839790E+03  0.00000000000E+00 0.  1.
         -1   -1    0    0    0  501 -0.00000000000E+00 -0.00000000000E+00 -0.34463955762E+02  0.34463955762E+02  0.00000000000E+00 0. -1.
          6    1    1    2  502    0  0.24898546580E+02 -0.14654653553E+02  0.41863250318E+03  0.45389081199E+03  0.17300000000E+03 0.  1.
         -6    1    1    2    0  501 -0.24898546580E+02  0.14654653553E+02  0.44001193896E+03  0.47368154167E+03  0.17300000000E+03 0. -1.
</event>
<event>
 4    1  0.1089518E+000  0.1000000E+03  0.7546771E-02  0.1280296E+00
          1   -1    0    0  502    0  0.00000000000E+00  0.00000000000E+00  0.10922281606E+03  0.10922281606E+03  0.00000000000E+00 0.  1.
         -1   -1    0    0    0  501 -0.00000000000E+00 -0.00000000000E+00 -0.74154120083E+03  0.74154120083E+03  0.00000000000E+00 0. -1.
          6    1    1    2  502    0 -0.20418625041E+01  0.20589472810E+03 -0.45531439820E+03  0.52880715716E+03  0.17300000000E+03 0.  1.
         -6    1    1    2    0  501  0.20418625041E+01 -0.20589472810E+03 -0.17700398658E+03  0.32195685973E+03  0.17300000000E+03 0. -1.
</event>
<event>
 4    1  0.1089518E+000  0.1000000E+03  0.7546771E-02  0.1280296E+00
          2   -1    0    0  502    0  0.00000000000E+00  0.00000000000E+00  0.44328510069E+04  0.44328510069E+04  0.00000000000E+00 0.  1.
         -2   -1    0    0    0  501 -0.00000000000E+00 -0.00000000000E+00 -0.10100645481E+02  0.10100645481E+02  0.00000000000E+00 0. -1.
          6    1    1    2  502    0 -0.46527573004E+02  0.63382274119E+02  0.31885513593E+04  0.31942089629E+04  0.17300000000E+03 0.  1.
         -6    1    1    2    0  501  0.46527573004E+02 -0.63382274119E+02  0.12341990021E+04  0.12487426895E+04  0.17300000000E+03 0. -1.
</event>
<event>
 4    1  0.1089518E+000  0.1000000E+03  0.7546771E-02  0.1280296E+00
         -2   -1    0    0    0  501 -0.00000000000E+00  0.00000000000E+00  0.47173391676E+02  0.47173391676E+02  0.00000000000E+00 0. -1.
          2   -1    0    0  502    0  0.00000000000E+00 -0.00000000000E+00 -0.12445688019E+04  0.12445688019E+04  0.00000000000E+00 0.  1.
          6    1    1    2  502    0 -0.12733024308E+03  0.85754142173E+02 -0.40620896336E+03  0.46744142480E+03  0.17300000000E+03 0.  1.
         -6    1    1    2    0  501  0.12733024308E+03 -0.85754142173E+02 -0.79118644683E+03  0.82430076874E+03  0.17300000000E+03 0. -1.
</event>
<event>
 4    1  0.1089518E+000  0.1000000E+03  0.7546771E-02  0.1280296E+00
          1   -1    0    0  502    0  0.00000000000E+00  0.00000000000E+00  0.22937905655E+03  0.22937905655E+03  0.00000000000E+00 0. -1.
         -1   -1    0    0    0  501 -0.00000000000E+00 -0.00000000000E+00 -0.18987683876E+03  0.18987683876E+03  0.00000000000E+00 0.  1.
          6    1    1    2  502    0 -0.95976390988E+02  0.37453841125E+01 -0.46872298568E+02  0.20335070175E+03  0.17300000000E+03 0. -1.
         -6    1    1    2    0  501  0.95976390988E+02 -0.37453841125E+01  0.86374516354E+02  0.21590519356E+03  0.17300000000E+03 0.  1.
</event>
<event>
 4    1  0.1089518E+000  0.1000000E+03  0.7546771E-02  0.1280296E+00
          2   -1    0    0  502    0  0.00000000000E+00  0.00000000000E+00  0.35577139267E+04  0.35577139267E+04  0.00000000000E+00 0. -1.
         -2   -1    0    0    0  501 -0.00000000000E+00 -0.00000000000E+00 -0.15306603882E+02  0.15306603882E+02  0.00000000000E+00 0.  1.
          6    1    1    2  502    0  0.14704117007E+03 -0.21854128521E+01  0.13588194271E+04  0.13776592892E+04  0.17300000000E+03 0. -1.
         -6    1    1    2    0  501 -0.14704117007E+03  0.21854128521E+01  0.21835878957E+04  0.21953612414E+04  0.17300000000E+03 0.  1.
</event>
<event>
 4    1  0.1089518E+000  0.1000000E+03  0.7546771E-02  0.1280296E+00
          2   -1    0    0  502    0  0.00000000000E+00  0.00000000000E+00  0.88855638958E+03  0.88855638958E+03  0.00000000000E+00 0. -1.
         -2   -1    0    0    0  501 -0.00000000000E+00 -0.00000000000E+00 -0.64778358398E+02  0.64778358398E+02  0.00000000000E+00 0.  1.
          6    1    1    2  502    0 -0.67730467525E+02 -0.49021640571E+02  0.69732551878E+03  0.72331349816E+03  0.17300000000E+03 0. -1.
         -6    1    1    2    0  501  0.67730467525E+02  0.49021640571E+02  0.12645251240E+03  0.23002124982E+03  0.17300000000E+03 0.  1.
</event>
<event>
 4    1  0.1089518E+000  0.1000000E+03  0.7546771E-02  0.1280296E+00
          2   -1    0    0  502    0  0.00000000000E+00  0.00000000000E+00  0.15800565565E+04  0.15800565565E+04  0.00000000000E+00 0. -1.
         -2   -1    0    0    0  501 -0.00000000000E+00 -0.00000000000E+00 -0.24574180785E+02  0.24574180785E+02  0.00000000000E+00 0.  1.
          6    1    1    2  502    0  0.48298004680E+02 -0.20161163836E+02  0.10973175379E+04  0.11121033894E+04  0.17300000000E+03 0. -1.
         -6    1    1    2    0  501 -0.48298004680E+02  0.20161163836E+02  0.45816483784E+03  0.49252734789E+03  0.17300000000E+03 0.  1.
</event>
<event>
 4    1  0.1089518E+000  0.1000000E+03  0.7546771E-02  0.1280296E+00
          2   -1    0    0  502    0  0.00000000000E+00  0.00000000000E+00  0.88594771796E+02  0.88594771796E+02  0.00000000000E+00 0. -1.
         -2   -1    0    0    0  501 -0.00000000000E+00 -0.00000000000E+00 -0.47722545866E+03  0.47722545866E+03  0.00000000000E+00 0.  1.
          6    1    1    2  502    0  0.83983218816E+02 -0.60430719455E+02 -0.13850066560E+03  0.24457409361E+03  0.17300000000E+03 0. -1.
         -6    1    1    2    0  501 -0.83983218816E+02  0.60430719455E+02 -0.25013002127E+03  0.32124613684E+03  0.17300000000E+03 0.  1.
</event>
<event>
 4    1  0.1089518E+000  0.1000000E+03  0.7546771E-02  0.1280296E+00
         -1   -1    0    0    0  501 -0.00000000000E+00  0.00000000000E+00  0.43185845978E+03  0.43185845978E+03  0.00000000000E+00 0.  1.
          1   -1    0    0  502    0  0.00000000000E+00 -0.00000000000E+00 -0.14513312489E+03  0.14513312489E+03  0.00000000000E+00 0. -1.
          6    1    1    2  502    0  0.14890852727E+02  0.13030016782E+03  0.28705186153E+03  0.35989948936E+03  0.17300000000E+03 0. -1.
         -6    1    1    2    0  501 -0.14890852727E+02 -0.13030016782E+03 -0.32652664022E+00  0.21709209532E+03  0.17300000000E+03 0.  1.
</event>
<event>
 4    1  0.1089518E+000  0.1000000E+03  0.7546771E-02  0.1280296E+00
         -2   -1    0    0    0  501 -0.00000000000E+00  0.00000000000E+00  0.33941417826E+02  0.33941417826E+02  0.00000000000E+00 0.  1.
          2   -1    0    0  502    0  0.00000000000E+00 -0.00000000000E+00 -0.12652827885E+04  0.12652827885E+04  0.00000000000E+00 0. -1.
          6    1    1    2  502    0  0.61352052711E+02 -0.37623458870E+02 -0.89317342146E+03  0.91261566929E+03  0.17300000000E+03 0. -1.
         -6    1    1    2    0  501 -0.61352052711E+02  0.37623458870E+02 -0.33816794917E+03  0.38660853699E+03  0.17300000000E+03 0.  1.
</event>
<event>
 4    1  0.1089518E+000  0.1000000E+03  0.7546771E-02  0.1280296E+00
         -1   -1    0    0    0  501 -0.00000000000E+00  0.00000000000E+00  0.12173082628E+03  0.12173082628E+03  0.00000000000E+00 0. -1.
          1   -1    0    0  502    0  0.00000000000E+00 -0.00000000000E+00 -0.56470121770E+03  0.56470121770E+03  0.00000000000E+00 0.  1.
          6    1    1    2  502    0 -0.34546095091E+02  0.19320656840E+03 -0.24379047450E+03  0.35761013159E+03  0.17300000000E+03 0.  1.
         -6    1    1    2    0  501  0.34546095091E+02 -0.19320656840E+03 -0.19917991692E+03  0.32882191238E+03  0.17300000000E+03 0. -1.
</event>
<event>
 4    1  0.1089518E+000  0.1000000E+03  0.7546771E-02  0.1280296E+00
         -2   -1    0    0    0  501 -0.00000000000E+00  0.00000000000E+00  0.66376799183E+02  0.66376799183E+02  0.00000000000E+00 0. -1.
          2   -1    0    0  502    0  0.00000000000E+00 -0.00000000000E+00 -0.71376558842E+03  0.71376558842E+03  0.00000000000E+00 0.  1.
          6    1    1    2  502    0 -0.53960213402E+02  0.89161267788E+02 -0.17824797501E+03  0.26937478891E+03  0.17300000000E+03 0.  1.
         -6    1    1    2    0  501  0.53960213402E+02 -0.89161267788E+02 -0.46914081423E+03  0.51076759870E+03  0.17300000000E+03 0. -1.
</event>
<event>
 4    1  0.1089518E+000  0.1000000E+03  0.7546771E-02  0.1280296E+00
         -2   -1    0    0    0  501 -0.00000000000E+00  0.00000000000E+00  0.69520135117E+02  0.69520135117E+02  0.00000000000E+00 0. -1.
          2   -1    0    0  502    0  0.00000000000E+00 -0.00000000000E+00 -0.60211164039E+03  0.60211164039E+03  0.00000000000E+00 0.  1.
          6    1    1    2  502    0  0.21611264507E+02 -0.98546373376E+02 -0.33498773734E+03  0.39028735391E+03  0.17300000000E+03 0.  1.
         -6    1    1    2    0  501 -0.21611264507E+02  0.98546373376E+02 -0.19760376794E+03  0.28134442160E+03  0.17300000000E+03 0. -1.
</event>
<event>
 4    1  0.1089518E+000  0.1000000E+03  0.7546771E-02  0.1280296E+00
          2   -1    0    0  502    0  0.00000000000E+00  0.00000000000E+00  0.33632288163E+03  0.33632288163E+03  0.00000000000E+00 0.  1.
         -2   -1    0    0    0  501 -0.00000000000E+00 -0.00000000000E+00 -0.16682311126E+03  0.16682311126E+03  0.00000000000E+00 0. -1.
          6    1    1    2  502    0  0.37828118499E+02 -0.26021140465E+02 -0.80024616464E+02  0.19606377927E+03  0.17300000000E+03 0. -1.
         -6    1    1    2    0  501 -0.37828118499E+02  0.26021140465E+02  0.24952438683E+03  0.30708221362E+03  0.17300000000E+03 0.  1.
</event>
<event>
 4    1  0.1089518E+000  0.1000000E+03  0.7546771E-02  0.1280296E+00
          2   -1    0    0  502    0  0.00000000000E+00  0.00000000000E+00  0.11603130324E+04  0.11603130324E+04  0.00000000000E+00 0.  1.
         -2   -1    0    0    0  501 -0.00000000000E+00 -0.00000000000E+00 -0.52676573350E+02  0.52676573350E+02  0.00000000000E+00 0. -1.
          6    1    1    2  502    0  0.16045543028E+02  0.36944117742E+02  0.13196992360E+03  0.22128576100E+03  0.17300000000E+03 0. -1.
         -6    1    1    2    0  501 -0.16045543028E+02 -0.36944117742E+02  0.97566653541E+03  0.99170384471E+03  0.17300000000E+03 0.  1.
</event>
<event>
 4    1  0.1089518E+000  0.1000000E+03  0.7546771E-02  0.1280296E+00
          3   -1    0    0  502    0  0.00000000000E+00  0.00000000000E+00  0.67749166333E+03  0.67749166333E+03  0.00000000000E+00 0.  1.
         -3   -1    0    0    0  501 -0.00000000000E+00 -0.00000000000E+00 -0.68467161529E+02  0.68467161529E+02  0.00000000000E+00 0. -1.
          6    1    1    2  502    0 -0.34952767291E+02  0.11206146001E+03  0.21490285026E+03  0.29981944868E+03  0.17300000000E+03 0. -1.
         -6    1    1    2    0  501  0.34952767291E+02 -0.11206146001E+03  0.39412165154E+03  0.44613937618E+03  0.17300000000E+03 0.  1.
</event>
<event>
 4    1  0.1089518E+000  0.1000000E+03  0.7546771E-02  0.1280296E+00
          2   -1    0    0  502    0  0.00000000000E+00  0.00000000000E+00  0.58965235218E+03  0.58965235218E+03  0.00000000000E+00 0.  1.
         -2   -1    0    0    0  501 -0.00000000000E+00 -0.00000000000E+00 -0.63725214236E+02  0.63725214236E+02  0.00000000000E+00 0. -1.
          6    1    1    2  502    0  0.61028592713E+01 -0.87162357814E+02  0.26885034479E+03  0.33142726110E+03  0.17300000000E+03 0. -1.
         -6    1    1    2    0  501 -0.61028592713E+01  0.87162357814E+02  0.25707679316E+03  0.32195030531E+03  0.17300000000E+03 0.  1.
</event>
<event>
 4    1  0.1089518E+000  0.1000000E+03  0.7546771E-02  0.1280296E+00
          2   -1    0    0  502    0  0.00000000000E+00  0.00000000000E+00  0.32276962833E+04  0.32276962833E+04  0.00000000000E+00 0.  1.
         -2   -1    0    0    0  501 -0.00000000000E+00 -0.00000000000E+00 -0.11696266149E+02  0.11696266149E+02  0.00000000000E+00 0. -1.
          6    1    1    2  502    0 -0.82493866046E+02 -0.31782691945E+02  0.16310072839E+04  0.16425374082E+04  0.17300000000E+03 0. -1.
         -6    1    1    2    0  501  0.82493866046E+02  0.31782691945E+02  0.15849927333E+04  0.15968551413E+04  0.17300000000E+03 0.  1.
</event>
<event>
 4    1  0.1089518E+000  0.1000000E+03  0.7546771E-02  0.1280296E+00
         -2   -1    0    0    0  501 -0.00000000000E+00  0.00000000000E+00  0.24957240331E+03  0.24957240331E+03  0.00000000000E+00 0.  1.
          2   -1    0    0  502    0  0.00000000000E+00 -0.00000000000E+00 -0.26899246534E+03  0.26899246534E+03  0.00000000000E+00 0. -1.
          6    1    1    2  502    0  0.62617508858E+02 -0.15121326125E+03  0.92428719337E+02  0.25545737600E+03  0.17300000000E+03 0.  1.
         -6    1    1    2    0  501 -0.62617508858E+02  0.15121326125E+03 -0.11184878137E+03  0.26310749265E+03  0.17300000000E+03 0.  1.
</event>
<event>
 4    1  0.1089518E+000  0.1000000E+03  0.7546771E-02  0.1280296E+00
         -2   -1    0    0    0  501 -0.00000000000E+00  0.00000000000E+00  0.27278267257E+03  0.27278267257E+03  0.00000000000E+00 0. -1.
          2   -1    0    0  502    0  0.00000000000E+00 -0.00000000000E+00 -0.13972108378E+03  0.13972108378E+03  0.00000000000E+00 0.  1.
          6    1    1    2  502    0 -0.27448031250E+02 -0.19933379560E+01 -0.24516878984E+02  0.17688257453E+03  0.17300000000E+03 0.  1.
         -6    1    1    2    0  501  0.27448031250E+02  0.19933379560E+01  0.15757846777E+03  0.23562118182E+03  0.17300000000E+03 0. -1.
</event>
<event>
 4    1  0.1089518E+000  0.1000000E+03  0.7546771E-02  0.1280296E+00
         -1   -1    0    0    0  501 -0.00000000000E+00  0.00000000000E+00  0.11038210203E+03  0.11038210203E+03  0.00000000000E+00 0. -1.
          1   -1    0    0  502    0  0.00000000000E+00 -0.00000000000E+00 -0.39900441643E+03  0.39900441643E+03  0.00000000000E+00 0.  1.
          6    1    1    2  502    0 -0.21047137837E+01 -0.11832963006E+03 -0.13172144684E+03  0.24755983262E+03  0.17300000000E+03 0.  1.
         -6    1    1    2    0  501  0.21047137837E+01  0.11832963006E+03 -0.15690086757E+03  0.26182668583E+03  0.17300000000E+03 0. -1.
</event>
<event>
 4    1  0.1089518E+000  0.1000000E+03  0.7546771E-02  0.1280296E+00
         -1   -1    0    0    0  501 -0.00000000000E+00  0.00000000000E+00  0.21392572488E+03  0.21392572488E+03  0.00000000000E+00 0. -1.
          1   -1    0    0  502    0  0.00000000000E+00 -0.00000000000E+00 -0.26962793190E+03  0.26962793190E+03  0.00000000000E+00 0.  1.
          6    1    1    2  502    0 -0.83830781721E+02  0.13363993451E+03  0.26025007350E+02  0.23557065409E+03  0.17300000000E+03 0.  1.
         -6    1    1    2    0  501  0.83830781721E+02 -0.13363993451E+03 -0.81727214368E+02  0.24798300270E+03  0.17300000000E+03 0. -1.
</event>
<event>
 4    1  0.1089518E+000  0.1000000E+03  0.7546771E-02  0.1280296E+00
         -2   -1    0    0    0  501 -0.00000000000E+00  0.00000000000E+00  0.70611434750E+02  0.70611434750E+02  0.00000000000E+00 0. -1.
          2   -1    0    0  502    0  0.00000000000E+00 -0.00000000000E+00 -0.15075659415E+04  0.15075659415E+04  0.00000000000E+00 0.  1.
          6    1    1    2  502    0 -0.12437480032E+03 -0.35285453341E+02 -0.12701007210E+03  0.25054882276E+03  0.17300000000E+03 0. -1.
         -6    1    1    2    0  501  0.12437480032E+03  0.35285453341E+02 -0.13099444347E+04  0.13276285535E+04  0.17300000000E+03 0.  1.
</event>
<event>
 4    1  0.1089518E+000  0.1000000E+03  0.7546771E-02  0.1280296E+00
         -3   -1    0    0    0  501 -0.00000000000E+00  0.00000000000E+00  0.17289782271E+02  0.17289782271E+02  0.00000000000E+00 0. -1.
          3   -1    0    0  502    0  0.00000000000E+00 -0.00000000000E+00 -0.26290373142E+04  0.26290373142E+04  0.00000000000E+00 0.  1.
          6    1    1    2  502    0 -0.11789245554E+03 -0.27011481381E+02 -0.14918744503E+04  0.15067337611E+04  0.17300000000E+03 0. -1.
         -6    1    1    2    0  501  0.11789245554E+03  0.27011481381E+02 -0.11198730816E+04  0.11395933354E+04  0.17300000000E+03 0.  1.
</event>
<event>
 4    1  0.1089518E+000  0.1000000E+03  0.7546771E-02  0.1280296E+00
         -2   -1    0    0    0  501 -0.00000000000E+00  0.00000000000E+00  0.45146732889E+02  0.45146732889E+02  0.00000000000E+00 0. -1.
          2   -1    0    0  502    0  0.00000000000E+00 -0.00000000000E+00 -0.12913715876E+04  0.12913715876E+04  0.00000000000E+00 0.  1.
          6    1    1    2  502    0  0.14531765036E+03 -0.47680603272E+02 -0.81845114547E+03  0.85040104478E+03  0.17300000000E+03 0. -1.
         -6    1    1    2    0  501 -0.14531765036E+03  0.47680603272E+02 -0.42777370928E+03  0.48611727576E+03  0.17300000000E+03 0.  1.
</event>
<event>
 4    1  0.1089518E+000  0.1000000E+03  0.7546771E-02  0.1280296E+00
          2   -1    0    0  502    0  0.00000000000E+00  0.00000000000E+00  0.12433884113E+04  0.12433884113E+04  0.00000000000E+00 0.  1.
         -2   -1    0    0    0  501 -0.00000000000E+00 -0.00000000000E+00 -0.31670413532E+02  0.31670413532E+02  0.00000000000E+00 0. -1.
          6    1    1    2  502    0  0.63799331945E+02 -0.10075409085E+02  0.83925565380E+03  0.85933167116E+03  0.17300000000E+03 0. -1.
         -6    1    1    2    0  501 -0.63799331945E+02  0.10075409085E+02  0.37246234396E+03  0.41572715367E+03  0.17300000000E+03 0.  1.
</event>
<event>
 4    1  0.1089518E+000  0.1000000E+03  0.7546771E-02  0.1280296E+00
          1   -1    0    0  502    0  0.00000000000E+00  0.00000000000E+00  0.51594718075E+03  0.51594718075E+03  0.00000000000E+00 0.  1.
         -1   -1    0    0    0  501 -0.00000000000E+00 -0.00000000000E+00 -0.72473472817E+02  0.72473472817E+02  0.00000000000E+00 0. -1.
          6    1    1    2  502    0  0.30487428747E+02  0.75449218284E+02  0.17760306944E+03  0.26094811386E+03  0.17300000000E+03 0. -1.
         -6    1    1    2    0  501 -0.30487428747E+02 -0.75449218284E+02  0.26587063849E+03  0.32747253971E+03  0.17300000000E+03 0.  1.
</event>
<event>
 4    1  0.1089518E+000  0.1000000E+03  0.7546771E-02  0.1280296E+00
         -2   -1    0    0    0  501 -0.00000000000E+00  0.00000000000E+00  0.78279751589E+02  0.78279751589E+02  0.00000000000E+00 0.  1.
          2   -1    0    0  502    0  0.00000000000E+00 -0.00000000000E+00 -0.38727898163E+03  0.38727898163E+03  0.00000000000E+00 0. -1.
          6    1    1    2  502    0  0.13542982932E+02 -0.63417330381E+01 -0.17159308243E+03  0.24412459094E+03  0.17300000000E+03 0. -1.
         -6    1    1    2    0  501 -0.13542982932E+02  0.63417330381E+01 -0.13740614761E+03  0.22143414228E+03  0.17300000000E+03 0.  1.
</event>
<event>
 4    1  0.1089518E+000  0.1000000E+03  0.7546771E-02  0.1280296E+00
         -2   -1    0    0    0  501 -0.00000000000E+00  0.00000000000E+00  0.61363822703E+02  0.61363822703E+02  0.00000000000E+00 0.  1.
          2   -1    0    0  502    0  0.00000000000E+00 -0.00000000000E+00 -0.86027111682E+03  0.86027111682E+03  0.00000000000E+00 0. -1.
          6    1    1    2  502    0  0.28817623353E+02 -0.14534976816E+03 -0.33916681709E+03  0.40855861309E+03  0.17300000000E+03 0. -1.
         -6    1    1    2    0  501 -0.28817623353E+02  0.14534976816E+03 -0.45974047703E+03  0.51307632643E+03  0.17300000000E+03 0.  1.
</event>
<event>
 4    1  0.1089518E+000  0.1000000E+03  0.7546771E-02  0.1280296E+00
         -1   -1    0    0    0  501 -0.00000000000E+00  0.00000000000E+00  0.97697570544E+03  0.97697570544E+03  0.00000000000E+00 0.  1.
          1   -1    0    0  502    0  0.00000000000E+00 -0.00000000000E+00 -0.39824470910E+02  0.39824470910E+02  0.00000000000E+00 0. -1.
          6    1    1    2  502    0  0.69342720315E+02  0.16571809714E+02  0.62944392360E+03  0.65666710798E+03  0.17300000000E+03 0. -1.
         -6    1    1    2    0  501 -0.69342720315E+02 -0.16571809714E+02  0.30770731093E+03  0.36013306838E+03  0.17300000000E+03 0.  1.
</event>
<event>
 4    1  0.1089518E+000  0.1000000E+03  0.7546771E-02  0.1280296E+00
          2   -1    0    0  502    0  0.00000000000E+00  0.00000000000E+00  0.27945894165E+04  0.27945894165E+04  0.00000000000E+00 0.  1.
         -2   -1    0    0    0  501 -0.00000000000E+00 -0.00000000000E+00 -0.18973424948E+02  0.18973424948E+02  0.00000000000E+00 0. -1.
          6    1    1    2  502    0 -0.10023575147E+03 -0.24695720493E+02  0.20691260801E+04  0.20789104887E+04  0.17300000000E+03 0.  1.
         -6    1    1    2    0  501  0.10023575147E+03  0.24695720493E+02  0.70648991144E+03  0.73465235278E+03  0.17300000000E+03 0. -1.
</event>
<event>
 4    1  0.1089518E+000  0.1000000E+03  0.7546771E-02  0.1280296E+00
          1   -1    0    0  502    0  0.00000000000E+00  0.00000000000E+00  0.15720615031E+04  0.15720615031E+04  0.00000000000E+00 0.  1.
         -1   -1    0    0    0  501 -0.00000000000E+00 -0.00000000000E+00 -0.61911738738E+02  0.61911738738E+02  0.00000000000E+00 0. -1.
          6    1    1    2  502    0  0.25732005605E+03 -0.22066344086E+02  0.68581277628E+03  0.75297323916E+03  0.17300000000E+03 0.  1.
         -6    1    1    2    0  501 -0.25732005605E+03  0.22066344086E+02  0.82433698804E+03  0.88100000263E+03  0.17300000000E+03 0. -1.
</event>
<event>
 4    1  0.1089518E+000  0.1000000E+03  0.7546771E-02  0.1280296E+00
          1   -1    0    0  502    0  0.00000000000E+00  0.00000000000E+00  0.18992173966E+03  0.18992173966E+03  0.00000000000E+00 0. -1.
         -1   -1    0    0    0  501 -0.00000000000E+00 -0.00000000000E+00 -0.24094038254E+03  0.24094038254E+03  0.00000000000E+00 0.  1.
          6    1    1    2  502    0  0.12069418801E+03 -0.24923573920E+02  0.18748082240E-01  0.21240826704E+03  0.17300000000E+03 0. -1.
         -6    1    1    2    0  501 -0.12069418801E+03  0.24923573920E+02 -0.51037390960E+02  0.21845385516E+03  0.17300000000E+03 0.  1.
</event>
<event>
 4    1  0.1089518E+000  0.1000000E+03  0.7546771E-02  0.1280296E+00
          2   -1    0    0  502    0  0.00000000000E+00  0.00000000000E+00  0.13987267784E+04  0.13987267784E+04  0.00000000000E+00 0. -1.
         -2   -1    0    0    0  501 -0.00000000000E+00 -0.00000000000E+00 -0.36342738993E+02  0.36342738993E+02  0.00000000000E+00 0.  1.
          6    1    1    2  502    0 -0.10646379307E+03 -0.40522169160E+02  0.39782529071E+03  0.44852039793E+03  0.17300000000E+03 0. -1.
         -6    1    1    2    0  501  0.10646379307E+03  0.40522169160E+02  0.96455874873E+03  0.98654911950E+03  0.17300000000E+03 0.  1.
</event>
<event>
 4    1  0.1089518E+000  0.1000000E+03  0.7546771E-02  0.1280296E+00
          2   -1    0    0  502    0  0.00000000000E+00  0.00000000000E+00  0.44782515773E+03  0.44782515773E+03  0.00000000000E+00 0. -1.
         -2   -1    0    0    0  501 -0.00000000000E+00 -0.00000000000E+00 -0.94764042312E+02  0.94764042312E+02  0.00000000000E+00 0.  1.
          6    1    1    2  502    0  0.28469526727E+02  0.75280275985E+02  0.27880402032E+03  0.33784362604E+03  0.17300000000E+03 0. -1.
         -6    1    1    2    0  501 -0.28469526727E+02 -0.75280275985E+02  0.74257095098E+02  0.20474557401E+03  0.17300000000E+03 0.  1.
</event>
<event>
 4    1  0.1089518E+000  0.1000000E+03  0.7546771E-02  0.1280296E+00
          1   -1    0    0  502    0  0.00000000000E+00  0.00000000000E+00  0.43531753475E+03  0.43531753475E+03  0.00000000000E+00 0. -1.
         -1   -1    0    0    0  501 -0.00000000000E+00 -0.00000000000E+00 -0.41104203803E+03  0.41104203803E+03  0.00000000000E+00 0.  1.
          6    1    1    2  502    0 -0.25442078263E+03 -0.14886339963E+03  0.26146825640E+03  0.43033114631E+03  0.17300000000E+03 0. -1.
         -6    1    1    2    0  501  0.25442078263E+03  0.14886339963E+03 -0.23719275968E+03  0.41602842647E+03  0.17300000000E+03 0.  1.
</event>
<event>
 4    1  0.1089518E+000  0.1000000E+03  0.7546771E-02  0.1280296E+00
          2   -1    0    0  502    0  0.00000000000E+00  0.00000000000E+00  0.26527056819E+03  0.26527056819E+03  0.00000000000E+00 0. -1.
         -2   -1    0    0    0  501 -0.00000000000E+00 -0.00000000000E+00 -0.21406208955E+03  0.21406208955E+03  0.00000000000E+00 0.  1.
          6    1    1    2  502    0 -0.76610878859E+02  0.91622627250E+02  0.13846170712E+03  0.25172321491E+03  0.17300000000E+03 0. -1.
         -6    1    1    2    0  501  0.76610878859E+02 -0.91622627250E+02 -0.87253228485E+02  0.22760944283E+03  0.17300000000E+03 0.  1.
</event>
<event>
 4    1  0.1089518E+000  0.1000000E+03  0.7546771E-02  0.1280296E+00
          1   -1    0    0  502    0  0.00000000000E+00  0.00000000000E+00  0.10207407907E+04  0.10207407907E+04  0.00000000000E+00 0. -1.
         -1   -1    0    0    0  501 -0.00000000000E+00 -0.00000000000E+00 -0.75335292963E+02  0.75335292963E+02  0.00000000000E+00 0.  1.
          6    1    1    2  502    0 -0.55063611864E+02  0.15615115226E+03  0.19634773610E+03  0.30967178944E+03  0.17300000000E+03 0. -1.
         -6    1    1    2    0  501  0.55063611864E+02 -0.15615115226E+03  0.74905776159E+03  0.78640429418E+03  0.17300000000E+03 0.  1.
</event>
<event>
 4    1  0.1089518E+000  0.1000000E+03  0.7546771E-02  0.1280296E+00
          2   -1    0    0  502    0  0.00000000000E+00  0.00000000000E+00  0.87842692587E+03  0.87842692587E+03  0.00000000000E+00 0. -1.
         -2   -1    0    0    0  501 -0.00000000000E+00 -0.00000000000E+00 -0.10561883021E+03  0.10561883021E+03  0.00000000000E+00 0.  1.
          6    1    1    2  502    0 -0.75499269920E+02 -0.23485301819E+03  0.45852359207E+03  0.54866106514E+03  0.17300000000E+03 0. -1.
         -6    1    1    2    0  501  0.75499269920E+02  0.23485301819E+03  0.31428450359E+03  0.43538469094E+03  0.17300000000E+03 0.  1.
</event>
<event>
 4    1  0.1089518E+000  0.1000000E+03  0.7546771E-02  0.1280296E+00
          2   -1    0    0  502    0  0.00000000000E+00  0.00000000000E+00  0.77823335114E+03  0.77823335114E+03  0.00000000000E+00 0. -1.
         -2   -1    0    0    0  501 -0.00000000000E+00 -0.00000000000E+00 -0.54720175381E+02  0.54720175381E+02  0.00000000000E+00 0.  1.
          6    1    1    2  502    0 -0.89531636615E+02 -0.36439160249E+02  0.47790934203E+03  0.51736840410E+03  0.17300000000E+03 0. -1.
         -6    1    1    2    0  501  0.89531636615E+02  0.36439160249E+02  0.24560383372E+03  0.31558512242E+03  0.17300000000E+03 0.  1.
</event>
<event>
 4    1  0.1089518E+000  0.1000000E+03  0.7546771E-02  0.1280296E+00
          2   -1    0    0  502    0  0.00000000000E+00  0.00000000000E+00  0.71903282224E+03  0.71903282224E+03  0.00000000000E+00 0. -1.
         -2   -1    0    0    0  501 -0.00000000000E+00 -0.00000000000E+00 -0.47808387979E+02  0.47808387979E+02  0.00000000000E+00 0.  1.
          6    1    1    2  502    0 -0.58941806126E+02  0.21798069663E+02  0.28948587873E+03  0.34304572047E+03  0.17300000000E+03 0. -1.
         -6    1    1    2    0  501  0.58941806126E+02 -0.21798069663E+02  0.38173855553E+03  0.42379548975E+03  0.17300000000E+03 0.  1.
</event>
<event>
 4    1  0.1089518E+000  0.1000000E+03  0.7546771E-02  0.1280296E+00
          1   -1    0    0  502    0  0.00000000000E+00  0.00000000000E+00  0.97846456040E+03  0.97846456040E+03  0.00000000000E+00 0.  1.
         -1   -1    0    0    0  501 -0.00000000000E+00 -0.00000000000E+00 -0.10433438476E+03  0.10433438476E+03  0.00000000000E+00 0. -1.
          6    1    1    2  502    0  0.17514993293E+03  0.13987210795E+03  0.18621165716E+03  0.33888860537E+03  0.17300000000E+03 0. -1.
         -6    1    1    2    0  501 -0.17514993293E+03 -0.13987210795E+03  0.68791851848E+03  0.74391033979E+03  0.17300000000E+03 0.  1.
</event>
<event>
 4    1  0.1089518E+000  0.1000000E+03  0.7546771E-02  0.1280296E+00
          2   -1    0    0  502    0  0.00000000000E+00  0.00000000000E+00  0.74700983671E+03  0.74700983671E+03  0.00000000000E+00 0.  1.
         -2   -1    0    0    0  501 -0.00000000000E+00 -0.00000000000E+00 -0.14842096369E+03  0.14842096369E+03  0.00000000000E+00 0. -1.
          6    1    1    2  502    0 -0.17881264599E+02  0.21959111553E+03  0.54133231543E+03  0.60951593365E+03  0.17300000000E+03 0. -1.
         -6    1    1    2    0  501  0.17881264599E+02 -0.21959111553E+03  0.57256557587E+02  0.28591486675E+03  0.17300000000E+03 0.  1.
</event>
<event>
 4    1  0.1089518E+000  0.1000000E+03  0.7546771E-02  0.1280296E+00
          2   -1    0    0  502    0  0.00000000000E+00  0.00000000000E+00  0.14781443387E+04  0.14781443387E+04  0.00000000000E+00 0.  1.
         -2   -1    0    0    0  501 -0.00000000000E+00 -0.00000000000E+00 -0.37035066796E+02  0.37035066796E+02  0.00000000000E+00 0. -1.
          6    1    1    2  502    0 -0.10446395516E+02 -0.15696404839E+03  0.69398483022E+03  0.73231877228E+03  0.17300000000E+03 0.  1.
         -6    1    1    2    0  501  0.10446395516E+02  0.15696404839E+03  0.74712444166E+03  0.78286063319E+03  0.17300000000E+03 0. -1.
</event>
<event>
 4    1  0.1089518E+000  0.1000000E+03  0.7546771E-02  0.1280296E+00
          4   -1    0    0  502    0  0.00000000000E+00  0.00000000000E+00  0.12387820541E+04  0.12387820541E+04  0.00000000000E+00 0. -1.
         -4   -1    0    0    0  501 -0.00000000000E+00 -0.00000000000E+00 -0.37246332714E+02  0.37246332714E+02  0.00000000000E+00 0.  1.
          6    1    1    2  502    0  0.11431939117E+03 -0.32933891091E+02  0.46603808062E+03  0.51114974026E+03  0.17300000000E+03 0. -1.
         -6    1    1    2    0  501 -0.11431939117E+03  0.32933891091E+02  0.73549764077E+03  0.76487864656E+03  0.17300000000E+03 0.  1.
</event>
<event>
 4    1  0.1089518E+000  0.1000000E+03  0.7546771E-02  0.1280296E+00
          2   -1    0    0  502    0  0.00000000000E+00  0.00000000000E+00  0.37454810513E+03  0.37454810513E+03  0.00000000000E+00 0. -1.
         -2   -1    0    0    0  501 -0.00000000000E+00 -0.00000000000E+00 -0.20113227401E+03  0.20113227401E+03  0.00000000000E+00 0.  1.
          6    1    1    2  502    0  0.51214164215E+02 -0.71821321903E+02  0.29012454598E+03  0.34911666399E+03  0.17300000000E+03 0. -1.
         -6    1    1    2    0  501 -0.51214164215E+02  0.71821321903E+02 -0.11670871486E+03  0.22656371515E+03  0.17300000000E+03 0.  1.
</event>
<event>
 4    1  0.1089518E+000  0.1000000E+03  0.7546771E-02  0.1280296E+00
          1   -1    0    0  502    0  0.00000000000E+00  0.00000000000E+00  0.14461323306E+04  0.14461323306E+04  0.00000000000E+00 0. -1.
         -1   -1    0    0    0  501 -0.00000000000E+00 -0.00000000000E+00 -0.19304370387E+03  0.19304370387E+03  0.00000000000E+00 0.  1.
          6    1    1    2  502    0 -0.85914100746E+02  0.34383450668E+03  0.81121473633E+02  0.40263270381E+03  0.17300000000E+03 0.  1.
         -6    1    1    2    0  501  0.85914100746E+02 -0.34383450668E+03  0.11719671531E+04  0.12365433307E+04  0.17300000000E+03 0. -1.
</event>
<event>
 4    1  0.1089518E+000  0.1000000E+03  0.7546771E-02  0.1280296E+00
          2   -1    0    0  502    0  0.00000000000E+00  0.00000000000E+00  0.37998443975E+04  0.37998443975E+04  0.00000000000E+00 0.  1.
         -2   -1    0    0    0  501 -0.00000000000E+00 -0.00000000000E+00 -0.16198476708E+02  0.16198476708E+02  0.00000000000E+00 0. -1.
          6    1    1    2  502    0 -0.10814058150E+03 -0.33831452522E+02  0.83778980681E+03  0.86293667957E+03  0.17300000000E+03 0. -1.
         -6    1    1    2    0  501  0.10814058150E+03  0.33831452522E+02  0.29458561140E+04  0.29531061947E+04  0.17300000000E+03 0.  1.
</event>
<event>
 4    1  0.1089518E+000  0.1000000E+03  0.7546771E-02  0.1280296E+00
         -2   -1    0    0    0  501 -0.00000000000E+00  0.00000000000E+00  0.28381585919E+02  0.28381585919E+02  0.00000000000E+00 0.  1.
          2   -1    0    0  502    0  0.00000000000E+00 -0.00000000000E+00 -0.12578807282E+04  0.12578807282E+04  0.00000000000E+00 0. -1.
          6    1    1    2  502    0  0.73963233396E+01  0.75338333296E+02 -0.63656562403E+03  0.66398446048E+03  0.17300000000E+03 0. -1.
         -6    1    1    2    0  501 -0.73963233396E+01 -0.75338333296E+02 -0.59293351823E+03  0.62227785362E+03  0.17300000000E+03 0.  1.
</event>
<event>
 4    1  0.1089518E+000  0.1000000E+03  0.7546771E-02  0.1280296E+00
         -1   -1    0    0    0  501 -0.00000000000E+00  0.00000000000E+00  0.52124062162E+03  0.52124062162E+03  0.00000000000E+00 0.  1.
          1   -1    0    0  502    0  0.00000000000E+00 -0.00000000000E+00 -0.35866692640E+03  0.35866692640E+03  0.00000000000E+00 0. -1.
          6    1    1    2  502    0  0.62340648996E+02  0.29572999390E+03  0.34205793711E+03  0.48813442631E+03  0.17300000000E+03 0. -1.
         -6    1    1    2    0  501 -0.62340648996E+02 -0.29572999390E+03 -0.17948424188E+03  0.39177312171E+03  0.17300000000E+03 0.  1.
</event>
<event>
 4    1  0.1089518E+000  0.1000000E+03  0.7546771E-02  0.1280296E+00
         -2   -1    0    0    0  501 -0.00000000000E+00  0.00000000000E+00  0.89543978838E+02  0.89543978838E+02  0.00000000000E+00 0.  1.
          2   -1    0    0  502    0  0.00000000000E+00 -0.00000000000E+00 -0.49436808976E+03  0.49436808976E+03  0.00000000000E+00 0. -1.
          6    1    1    2  502    0  0.76599837056E+02 -0.24465971864E+02 -0.79291028861E+02  0.20659667489E+03  0.17300000000E+03 0. -1.
         -6    1    1    2    0  501 -0.76599837056E+02  0.24465971864E+02 -0.32553308206E+03  0.37731539371E+03  0.17300000000E+03 0.  1.
</event>
<event>
 4    1  0.1089518E+000  0.1000000E+03  0.7546771E-02  0.1280296E+00
         -1   -1    0    0    0  501 -0.00000000000E+00  0.00000000000E+00  0.23120636794E+03  0.23120636794E+03  0.00000000000E+00 0.  1.
          1   -1    0    0  502    0  0.00000000000E+00 -0.00000000000E+00 -0.61517032109E+03  0.61517032109E+03  0.00000000000E+00 0. -1.
          6    1    1    2  502    0 -0.13178063210E+03  0.27543454095E+03 -0.34694709082E+03  0.49348921485E+03  0.17300000000E+03 0. -1.
         -6    1    1    2    0  501  0.13178063210E+03 -0.27543454095E+03 -0.37016862336E+02  0.35288747419E+03  0.17300000000E+03 0.  1.
</event>
<event>
 4    1  0.1089518E+000  0.1000000E+03  0.7546771E-02  0.1280296E+00
         -2   -1    0    0    0  501 -0.00000000000E+00  0.00000000000E+00  0.37618299136E+03  0.37618299136E+03  0.00000000000E+00 0.  1.
          2   -1    0    0  502    0  0.00000000000E+00 -0.00000000000E+00 -0.19312816947E+03  0.19312816947E+03  0.00000000000E+00 0. -1.
          6    1    1    2  502    0 -0.58983792655E+02  0.12899194794E+03  0.25030711091E+03  0.33570918993E+03  0.17300000000E+03 0.  1.
         -6    1    1    2    0  501  0.58983792655E+02 -0.12899194794E+03 -0.67252289017E+02  0.23360197090E+03  0.17300000000E+03 0. -1.
</event>
<event>
 4    1  0.1089518E+000  0.1000000E+03  0.7546771E-02  0.1280296E+00
          1   -1    0    0  502    0  0.00000000000E+00  0.00000000000E+00  0.51603885994E+02  0.51603885994E+02  0.00000000000E+00 0. -1.
         -1   -1    0    0    0  501 -0.00000000000E+00 -0.00000000000E+00 -0.59177896069E+03  0.59177896069E+03  0.00000000000E+00 0.  1.
          6    1    1    2  502    0  0.20458015745E+01 -0.24488047355E+02 -0.27430314672E+03  0.32523078893E+03  0.17300000000E+03 0. -1.
         -6    1    1    2    0  501 -0.20458015745E+01  0.24488047355E+02 -0.26587192798E+03  0.31815205776E+03  0.17300000000E+03 0.  1.
</event>
<event>
 4    1  0.1089518E+000  0.1000000E+03  0.7546771E-02  0.1280296E+00
          2   -1    0    0  502    0  0.00000000000E+00  0.00000000000E+00  0.10036015474E+03  0.10036015474E+03  0.00000000000E+00 0. -1.
         -2   -1    0    0    0  501 -0.00000000000E+00 -0.00000000000E+00 -0.36244359615E+03  0.36244359615E+03  0.00000000000E+00 0.  1.
          6    1    1    2  502    0  0.17074179520E+02  0.53098975488E+01 -0.36077366677E+02  0.17762403836E+03  0.17300000000E+03 0. -1.
         -6    1    1    2    0  501 -0.17074179520E+02 -0.53098975488E+01 -0.22600607473E+03  0.28517971252E+03  0.17300000000E+03 0.  1.
</event>
<event>
 4    1  0.1089518E+000  0.1000000E+03  0.7546771E-02  0.1280296E+00
          2   -1    0    0  502    0  0.00000000000E+00  0.00000000000E+00  0.12631202675E+04  0.12631202675E+04  0.00000000000E+00 0. -1.
         -2   -1    0    0    0  501 -0.00000000000E+00 -0.00000000000E+00 -0.32647757479E+02  0.32647757479E+02  0.00000000000E+00 0.  1.
          6    1    1    2  502    0 -0.53197898807E+02  0.74159143500E+02  0.44108916454E+03  0.48251243101E+03  0.17300000000E+03 0. -1.
         -6    1    1    2    0  501  0.53197898807E+02 -0.74159143500E+02  0.78938334546E+03  0.81325559395E+03  0.17300000000E+03 0.  1.
</event>
<event>
 4    1  0.1089518E+000  0.1000000E+03  0.7546771E-02  0.1280296E+00
          1   -1    0    0  502    0  0.00000000000E+00  0.00000000000E+00  0.10335864463E+04  0.10335864463E+04  0.00000000000E+00 0.  1.
         -1   -1    0    0    0  501 -0.00000000000E+00 -0.00000000000E+00 -0.30964890115E+02  0.30964890115E+02  0.00000000000E+00 0. -1.
          6    1    1    2  502    0 -0.20911735254E+02  0.40010632398E+02  0.48303290331E+03  0.51506110031E+03  0.17300000000E+03 0.  1.
         -6    1    1    2    0  501  0.20911735254E+02 -0.40010632398E+02  0.51958865292E+03  0.54949023615E+03  0.17300000000E+03 0. -1.
</event>
<event>
 4    1  0.1089518E+000  0.1000000E+03  0.7546771E-02  0.1280296E+00
         -3   -1    0    0    0  501 -0.00000000000E+00  0.00000000000E+00  0.64381332564E+03  0.64381332564E+03  0.00000000000E+00 0. -1.
          3   -1    0    0  502    0  0.00000000000E+00 -0.00000000000E+00 -0.80462943399E+02  0.80462943399E+02  0.00000000000E+00 0.  1.
          6    1    1    2  502    0 -0.10543265130E+03 -0.88035633546E+02  0.36893629186E+03  0.43001081869E+03  0.17300000000E+03 0. -1.
         -6    1    1    2    0  501  0.10543265130E+03  0.88035633546E+02  0.19441409038E+03  0.29426545036E+03  0.17300000000E+03 0. -1.
</event>
<event>
 4    1  0.1089518E+000  0.1000000E+03  0.7546771E-02  0.1280296E+00
         -1   -1    0    0    0  501 -0.00000000000E+00  0.00000000000E+00  0.10856581699E+04  0.10856581699E+04  0.00000000000E+00 0. -1.
          1   -1    0    0  502    0  0.00000000000E+00 -0.00000000000E+00 -0.59241369260E+02  0.59241369260E+02  0.00000000000E+00 0.  1.
          6    1    1    2  502    0 -0.80657247460E+02  0.11458311898E+03  0.23904867948E+03  0.32666214027E+03  0.17300000000E+03 0. -1.
         -6    1    1    2    0  501  0.80657247460E+02 -0.11458311898E+03  0.78736812113E+03  0.81823739886E+03  0.17300000000E+03 0. -1.
</event>
<event>
 4    1  0.1089518E+000  0.1000000E+03  0.7546771E-02  0.1280296E+00
          1   -1    0    0  502    0  0.00000000000E+00  0.00000000000E+00  0.15239867684E+04  0.15239867684E+04  0.00000000000E+00 0.  1.
         -1   -1    0    0    0  501 -0.00000000000E+00 -0.00000000000E+00 -0.39214705022E+02  0.39214705022E+02  0.00000000000E+00 0. -1.
          6    1    1    2  502    0  0.10569561219E+03  0.18065246570E+01  0.30565655626E+03  0.36678298263E+03  0.17300000000E+03 0.  1.
         -6    1    1    2    0  501 -0.10569561219E+03 -0.18065246570E+01  0.11791155072E+04  0.11964184908E+04  0.17300000000E+03 0. -1.
</event>
<event>
 4    1  0.1089518E+000  0.1000000E+03  0.7546771E-02  0.1280296E+00
          1   -1    0    0  502    0  0.00000000000E+00  0.00000000000E+00  0.30866381702E+03  0.30866381702E+03  0.00000000000E+00 0. -1.
         -1   -1    0    0    0  501 -0.00000000000E+00 -0.00000000000E+00 -0.14587386116E+03  0.14587386116E+03  0.00000000000E+00 0.  1.
          6    1    1    2  502    0  0.10551614717E+03  0.45174160428E+02  0.12835789885E+03  0.24408832885E+03  0.17300000000E+03 0.  1.
         -6    1    1    2    0  501 -0.10551614717E+03 -0.45174160428E+02  0.34432057018E+02  0.21044934933E+03  0.17300000000E+03 0.  1.
</event>
<event>
 4    1  0.1089518E+000  0.1000000E+03  0.7546771E-02  0.1280296E+00
          2   -1    0    0  502    0  0.00000000000E+00  0.00000000000E+00  0.77514426088E+03  0.77514426088E+03  0.00000000000E+00 0. -1.
         -2   -1    0    0    0  501 -0.00000000000E+00 -0.00000000000E+00 -0.46404650950E+02  0.46404650950E+02  0.00000000000E+00 0.  1.
          6    1    1    2  502    0 -0.33293223182E+02  0.63164553984E+02  0.29785625758E+03  0.35177485665E+03  0.17300000000E+03 0. -1.
         -6    1    1    2    0  501  0.33293223182E+02 -0.63164553984E+02  0.43088335234E+03  0.46977405518E+03  0.17300000000E+03 0.  1.
</event>
<event>
 4    1  0.1089518E+000  0.1000000E+03  0.7546771E-02  0.1280296E+00
          2   -1    0    0  502    0  0.00000000000E+00  0.00000000000E+00  0.18313598531E+04  0.18313598531E+04  0.00000000000E+00 0. -1.
         -2   -1    0    0    0  501 -0.00000000000E+00 -0.00000000000E+00 -0.11041766644E+03  0.11041766644E+03  0.00000000000E+00 0.  1.
          6    1    1    2  502    0  0.23739655749E+03 -0.32975676508E+03  0.67741149455E+03  0.80864824403E+03  0.17300000000E+03 0. -1.
         -6    1    1    2    0  501 -0.23739655749E+03  0.32975676508E+03  0.10435306921E+04  0.11331292755E+04  0.17300000000E+03 0.  1.
</event>
<event>
 4    1  0.1089518E+000  0.1000000E+03  0.7546771E-02  0.1280296E+00
          1   -1    0    0  502    0  0.00000000000E+00  0.00000000000E+00  0.13726849800E+04  0.13726849800E+04  0.00000000000E+00 0. -1.
         -1   -1    0    0    0  501 -0.00000000000E+00 -0.00000000000E+00 -0.48227436528E+02  0.48227436528E+02  0.00000000000E+00 0.  1.
          6    1    1    2  502    0 -0.16749570236E+03 -0.89851308098E+02  0.62909270867E+03  0.67956949901E+03  0.17300000000E+03 0. -1.
         -6    1    1    2    0  501  0.16749570236E+03  0.89851308098E+02  0.69536483477E+03  0.74134291749E+03  0.17300000000E+03 0.  1.
</event>
<event>
 4    1  0.1089518E+000  0.1000000E+03  0.7546771E-02  0.1280296E+00
         -2   -1    0    0    0  501 -0.00000000000E+00  0.00000000000E+00  0.82235324837E+03  0.82235324837E+03  0.00000000000E+00 0. -1.
          2   -1    0    0  502    0  0.00000000000E+00 -0.00000000000E+00 -0.15797124857E+03  0.15797124857E+03  0.00000000000E+00 0.  1.
          6    1    1    2  502    0 -0.14238960558E+03  0.27019157605E+03  0.22086730599E+03  0.41471635415E+03  0.17300000000E+03 0. -1.
         -6    1    1    2    0  501  0.14238960558E+03 -0.27019157605E+03  0.44351469382E+03  0.56560814278E+03  0.17300000000E+03 0.  1.
</event>
<event>
 4    1  0.1089518E+000  0.1000000E+03  0.7546771E-02  0.1280296E+00
          2   -1    0    0  502    0  0.00000000000E+00  0.00000000000E+00  0.42423680558E+02  0.42423680558E+02  0.00000000000E+00 0.  1.
         -2   -1    0    0    0  501 -0.00000000000E+00 -0.00000000000E+00 -0.85785672086E+03  0.85785672086E+03  0.00000000000E+00 0. -1.
          6    1    1    2  502    0  0.76350491065E+02  0.11013016643E+02 -0.35423367801E+03  0.40169787485E+03  0.17300000000E+03 0.  1.
         -6    1    1    2    0  501 -0.76350491065E+02 -0.11013016643E+02 -0.46119936229E+03  0.49858252657E+03  0.17300000000E+03 0. -1.
</event>
<event>
 4    1  0.1089518E+000  0.1000000E+03  0.7546771E-02  0.1280296E+00
          2   -1    0    0  502    0  0.00000000000E+00  0.00000000000E+00  0.17255737127E+03  0.17255737127E+03  0.00000000000E+00 0.  1.
         -2   -1    0    0    0  501 -0.00000000000E+00 -0.00000000000E+00 -0.18127094234E+03  0.18127094234E+03  0.00000000000E+00 0. -1.
          6    1    1    2  502    0 -0.18316450306E+02  0.25641894431E+02  0.14560276142E+02  0.17644829482E+03  0.17300000000E+03 0.  1.
         -6    1    1    2    0  501  0.18316450306E+02 -0.25641894431E+02 -0.23273847209E+02  0.17738001879E+03  0.17300000000E+03 0. -1.
</event>
<event>
 4    1  0.1089518E+000  0.1000000E+03  0.7546771E-02  0.1280296E+00
          4   -1    0    0  502    0  0.00000000000E+00  0.00000000000E+00  0.32975594670E+03  0.32975594670E+03  0.00000000000E+00 0.  1.
         -4   -1    0    0    0  501 -0.00000000000E+00 -0.00000000000E+00 -0.10238078942E+03  0.10238078942E+03  0.00000000000E+00 0. -1.
          6    1    1    2  502    0 -0.14988450498E+02  0.59272427637E+02  0.12507660554E+03  0.22206087359E+03  0.17300000000E+03 0.  1.
         -6    1    1    2    0  501  0.14988450498E+02 -0.59272427637E+02  0.10229855174E+03  0.21007586252E+03  0.17300000000E+03 0. -1.
</event>
<event>
 4    1  0.1089518E+000  0.1000000E+03  0.7546771E-02  0.1280296E+00
          1   -1    0    0  502    0  0.00000000000E+00  0.00000000000E+00  0.12996994789E+04  0.12996994789E+04  0.00000000000E+00 0. -1.
         -1   -1    0    0    0  501 -0.00000000000E+00 -0.00000000000E+00 -0.60900909887E+02  0.60900909887E+02  0.00000000000E+00 0.  1.
          6    1    1    2  502    0 -0.21780691388E+03 -0.41380133767E+02  0.59892220054E+03  0.66165623212E+03  0.17300000000E+03 0. -1.
         -6    1    1    2    0  501  0.21780691388E+03  0.41380133767E+02  0.63987636846E+03  0.69894415665E+03  0.17300000000E+03 0.  1.
</event>
<event>
 4    1  0.1089518E+000  0.1000000E+03  0.7546771E-02  0.1280296E+00
          3   -1    0    0  502    0  0.00000000000E+00  0.00000000000E+00  0.24435921847E+03  0.24435921847E+03  0.00000000000E+00 0. -1.
         -3   -1    0    0    0  501 -0.00000000000E+00 -0.00000000000E+00 -0.25108562256E+03  0.25108562256E+03  0.00000000000E+00 0.  1.
          6    1    1    2  502    0 -0.45531550224E+02  0.56982312216E+02  0.15822514314E+03  0.24552861726E+03  0.17300000000E+03 0. -1.
         -6    1    1    2    0  501  0.45531550224E+02 -0.56982312216E+02 -0.16495154723E+03  0.24991622377E+03  0.17300000000E+03 0.  1.
</event>
<event>
 4    1  0.1089518E+000  0.1000000E+03  0.7546771E-02  0.1280296E+00
         -2   -1    0    0    0  501 -0.00000000000E+00  0.00000000000E+00  0.37761360129E+02  0.37761360129E+02  0.00000000000E+00 0.  1.
          2   -1    0    0  502    0  0.00000000000E+00 -0.00000000000E+00 -0.16272583178E+04  0.16272583178E+04  0.00000000000E+00 0. -1.
          6    1    1    2  502    0  0.11047603344E+03  0.98319367662E+02 -0.11246085461E+04  0.11474079632E+04  0.17300000000E+03 0. -1.
         -6    1    1    2    0  501 -0.11047603344E+03 -0.98319367662E+02 -0.46488841154E+03  0.51761171471E+03  0.17300000000E+03 0.  1.
</event>
<event>
 4    1  0.1089518E+000  0.1000000E+03  0.7546771E-02  0.1280296E+00
         -1   -1    0    0    0  501 -0.00000000000E+00  0.00000000000E+00  0.49712805295E+03  0.49712805295E+03  0.00000000000E+00 0.  1.
          1   -1    0    0  502    0  0.00000000000E+00 -0.00000000000E+00 -0.39826719267E+03  0.39826719267E+03  0.00000000000E+00 0. -1.
          6    1    1    2  502    0  0.31030723142E+03  0.24473090901E+03 -0.60221614601E+02  0.43559090734E+03  0.17300000000E+03 0. -1.
         -6    1    1    2    0  501 -0.31030723142E+03 -0.24473090901E+03  0.15908247488E+03  0.45980433829E+03  0.17300000000E+03 0.  1.
</event>
<event>
 4    1  0.1089518E+000  0.1000000E+03  0.7546771E-02  0.1280296E+00
         -1   -1    0    0    0  501 -0.00000000000E+00  0.00000000000E+00  0.69835269119E+03  0.69835269119E+03  0.00000000000E+00 0. -1.
          1   -1    0    0  502    0  0.00000000000E+00 -0.00000000000E+00 -0.49160373325E+02  0.49160373325E+02  0.00000000000E+00 0.  1.
          6    1    1    2  502    0  0.88315112749E+01 -0.44523371065E+02  0.42221482606E+03  0.45853536997E+03  0.17300000000E+03 0.  1.
         -6    1    1    2    0  501 -0.88315112749E+01  0.44523371065E+02  0.22697749180E+03  0.28897769455E+03  0.17300000000E+03 0. -1.
</event>
<event>
 4    1  0.1089518E+000  0.1000000E+03  0.7546771E-02  0.1280296E+00
         -1   -1    0    0    0  501 -0.00000000000E+00  0.00000000000E+00  0.11912650255E+04  0.11912650255E+04  0.00000000000E+00 0. -1.
          1   -1    0    0  502    0  0.00000000000E+00 -0.00000000000E+00 -0.94375726797E+02  0.94375726797E+02  0.00000000000E+00 0.  1.
          6    1    1    2  502    0 -0.13324013420E+03  0.53118491814E+02  0.71375578788E+02  0.23579224072E+03  0.17300000000E+03 0.  1.
         -6    1    1    2    0  501  0.13324013420E+03 -0.53118491814E+02  0.10255137200E+04  0.10498485116E+04  0.17300000000E+03 0. -1.
</event>
<event>
 4    1  0.1089518E+000  0.1000000E+03  0.7546771E-02  0.1280296E+00
         -2   -1    0    0    0  501 -0.00000000000E+00  0.00000000000E+00  0.20407487971E+03  0.20407487971E+03  0.00000000000E+00 0. -1.
          2   -1    0    0  502    0  0.00000000000E+00 -0.00000000000E+00 -0.13331169549E+04  0.13331169549E+04  0.00000000000E+00 0.  1.
          6    1    1    2  502    0  0.18532629192E+03  0.45449874941E+03 -0.61581578701E+03  0.80627106560E+03  0.17300000000E+03 0.  1.
         -6    1    1    2    0  501 -0.18532629192E+03 -0.45449874941E+03 -0.51322628819E+03  0.73092076901E+03  0.17300000000E+03 0. -1.
</event>
<event>
 4    1  0.1089518E+000  0.1000000E+03  0.7546771E-02  0.1280296E+00
         -2   -1    0    0    0  501 -0.00000000000E+00  0.00000000000E+00  0.13857608584E+03  0.13857608584E+03  0.00000000000E+00 0. -1.
          2   -1    0    0  502    0  0.00000000000E+00 -0.00000000000E+00 -0.22944565761E+03  0.22944565761E+03  0.00000000000E+00 0.  1.
          6    1    1    2  502    0 -0.36896289378E+02  0.17673866480E+02 -0.31099217616E+02  0.18047122503E+03  0.17300000000E+03 0. -1.
         -6    1    1    2    0  501  0.36896289378E+02 -0.17673866480E+02 -0.59770354148E+02  0.18755051842E+03  0.17300000000E+03 0.  1.
</event>
<event>
 4    1  0.1089518E+000  0.1000000E+03  0.7546771E-02  0.1280296E+00
         -1   -1    0    0    0  501 -0.00000000000E+00  0.00000000000E+00  0.10034759671E+03  0.10034759671E+03  0.00000000000E+00 0. -1.
          1   -1    0    0  502    0  0.00000000000E+00 -0.00000000000E+00 -0.15979043012E+04  0.15979043012E+04  0.00000000000E+00 0.  1.
          6    1    1    2  502    0 -0.68934437711E+02  0.20090500202E+03 -0.12944701904E+03  0.30298565523E+03  0.17300000000E+03 0. -1.
         -6    1    1    2    0  501  0.68934437711E+02 -0.20090500202E+03 -0.13681096854E+04  0.13952662426E+04  0.17300000000E+03 0.  1.
</event>
<event>
 4    1  0.1089518E+000  0.1000000E+03  0.7546771E-02  0.1280296E+00
         -2   -1    0    0    0  501 -0.00000000000E+00  0.00000000000E+00  0.17468478309E+02  0.17468478309E+02  0.00000000000E+00 0. -1.
          2   -1    0    0  502    0  0.00000000000E+00 -0.00000000000E+00 -0.40632596541E+04  0.40632596541E+04  0.00000000000E+00 0.  1.
          6    1    1    2  502    0  0.23480206162E+02  0.15859217434E+03 -0.29716568107E+04  0.29810025157E+04  0.17300000000E+03 0. -1.
         -6    1    1    2    0  501 -0.23480206162E+02 -0.15859217434E+03 -0.10741343650E+04  0.10997256167E+04  0.17300000000E+03 0.  1.
</event>
<event>
 4    1  0.1089518E+000  0.1000000E+03  0.7546771E-02  0.1280296E+00
         -2   -1    0    0    0  501 -0.00000000000E+00  0.00000000000E+00  0.49144289156E+02  0.49144289156E+02  0.00000000000E+00 0. -1.
          2   -1    0    0  502    0  0.00000000000E+00 -0.00000000000E+00 -0.11224702948E+04  0.11224702948E+04  0.00000000000E+00 0.  1.
          6    1    1    2  502    0  0.14209820869E+03  0.43280597759E+02 -0.67706867416E+03  0.71443411214E+03  0.17300000000E+03 0. -1.
         -6    1    1    2    0  501 -0.14209820869E+03 -0.43280597759E+02 -0.39625733144E+03  0.45718047178E+03  0.17300000000E+03 0.  1.
</event>
<event>
 4    1  0.1089518E+000  0.1000000E+03  0.7546771E-02  0.1280296E+00
         -2   -1    0    0    0  501 -0.00000000000E+00  0.00000000000E+00  0.47613444910E+02  0.47613444910E+02  0.00000000000E+00 0. -1.
          2   -1    0    0  502    0  0.00000000000E+00 -0.00000000000E+00 -0.84714178069E+03  0.84714178069E+03  0.00000000000E+00 0.  1.
          6    1    1    2  502    0  0.75392793194E+02 -0.30156238693E+02 -0.26221524463E+03  0.32446772800E+03  0.17300000000E+03 0.  1.
         -6    1    1    2    0  501 -0.75392793194E+02  0.30156238693E+02 -0.53731309115E+03  0.57028749760E+03  0.17300000000E+03 0. -1.
</event>
<event>
 4    1  0.1089518E+000  0.1000000E+03  0.7546771E-02  0.1280296E+00
         -2   -1    0    0    0  501 -0.00000000000E+00  0.00000000000E+00  0.33950955518E+02  0.33950955518E+02  0.00000000000E+00 0. -1.
          2   -1    0    0  502    0  0.00000000000E+00 -0.00000000000E+00 -0.20997128327E+04  0.20997128327E+04  0.00000000000E+00 0.  1.
          6    1    1    2  502    0 -0.23664174856E+02  0.19768729569E+03 -0.11984965344E+04  0.12271769241E+04  0.17300000000E+03 0.  1.
         -6    1    1    2    0  501  0.23664174856E+02 -0.19768729569E+03 -0.86726534280E+03  0.90648686414E+03  0.17300000000E+03 0. -1.
</event>
<event>
 4    1  0.1089518E+000  0.1000000E+03  0.7546771E-02  0.1280296E+00
         -2   -1    0    0    0  501 -0.00000000000E+00  0.00000000000E+00  0.58405218206E+02  0.58405218206E+02  0.00000000000E+00 0. -1.
          2   -1    0    0  502    0  0.00000000000E+00 -0.00000000000E+00 -0.14654379908E+04  0.14654379908E+04  0.00000000000E+00 0.  1.
          6    1    1    2  502    0  0.14310954444E+03 -0.16781937570E+03 -0.92166993145E+03  0.96335255598E+03  0.17300000000E+03 0.  1.
         -6    1    1    2    0  501 -0.14310954444E+03  0.16781937570E+03 -0.48536284114E+03  0.56049065302E+03  0.17300000000E+03 0. -1.
</event>
<event>
 4    1  0.1089518E+000  0.1000000E+03  0.7546771E-02  0.1280296E+00
          3   -1    0    0  502    0  0.00000000000E+00  0.00000000000E+00  0.36029092600E+03  0.36029092600E+03  0.00000000000E+00 0.  1.
         -3   -1    0    0    0  501 -0.00000000000E+00 -0.00000000000E+00 -0.10967676597E+03  0.10967676597E+03  0.00000000000E+00 0. -1.
          6    1    1    2  502    0 -0.39530194046E+02 -0.21014830511E+02  0.22823994422E+03  0.28987364744E+03  0.17300000000E+03 0. -1.
         -6    1    1    2    0  501  0.39530194046E+02  0.21014830511E+02  0.22374215816E+02  0.18009404453E+03  0.17300000000E+03 0. -1.
</event>
<event>
 4    1  0.1089518E+000  0.1000000E+03  0.7546771E-02  0.1280296E+00
          1   -1    0    0  502    0  0.00000000000E+00  0.00000000000E+00  0.20942652194E+03  0.20942652194E+03  0.00000000000E+00 0.  1.
         -1   -1    0    0    0  501 -0.00000000000E+00 -0.00000000000E+00 -0.19479916749E+03  0.19479916749E+03  0.00000000000E+00 0. -1.
          6    1    1    2  502    0  0.75057119315E+02  0.48287802656E+02 -0.46590254130E+02  0.20016227123E+03  0.17300000000E+03 0. -1.
         -6    1    1    2    0  501 -0.75057119315E+02 -0.48287802656E+02  0.61217608582E+02  0.20406341820E+03  0.17300000000E+03 0. -1.
</event>
<event>
 4    1  0.1089518E+000  0.1000000E+03  0.7546771E-02  0.1280296E+00
          2   -1    0    0  502    0  0.00000000000E+00  0.00000000000E+00  0.34697393705E+03  0.34697393705E+03  0.00000000000E+00 0.  1.
         -2   -1    0    0    0  501 -0.00000000000E+00 -0.00000000000E+00 -0.99461988070E+02  0.99461988070E+02  0.00000000000E+00 0. -1.
          6    1    1    2  502    0 -0.36931209750E+02 -0.50748257764E+02  0.15421113431E+03  0.24010284019E+03  0.17300000000E+03 0. -1.
         -6    1    1    2    0  501  0.36931209750E+02  0.50748257764E+02  0.93300814665E+02  0.20633308493E+03  0.17300000000E+03 0. -1.
</event>
<event>
 4    1  0.1089518E+000  0.1000000E+03  0.7546771E-02  0.1280296E+00
         -2   -1    0    0    0  501 -0.00000000000E+00  0.00000000000E+00  0.63984036657E+02  0.63984036657E+02  0.00000000000E+00 0.  1.
          2   -1    0    0  502    0  0.00000000000E+00 -0.00000000000E+00 -0.97610634914E+03  0.97610634914E+03  0.00000000000E+00 0. -1.
          6    1    1    2  502    0  0.94005472466E+02  0.13945958729E+03 -0.32055755181E+03  0.40121334644E+03  0.17300000000E+03 0. -1.
         -6    1    1    2    0  501 -0.94005472466E+02 -0.13945958729E+03 -0.59156476068E+03  0.63887703936E+03  0.17300000000E+03 0.  1.
</event>
<event>
 4    1  0.1089518E+000  0.1000000E+03  0.7546771E-02  0.1280296E+00
         -2   -1    0    0    0  501 -0.00000000000E+00  0.00000000000E+00  0.27400370953E+02  0.27400370953E+02  0.00000000000E+00 0.  1.
          2   -1    0    0  502    0  0.00000000000E+00 -0.00000000000E+00 -0.15953021663E+04  0.15953021663E+04  0.00000000000E+00 0. -1.
          6    1    1    2  502    0  0.85810806353E+02  0.25019891283E+02 -0.48857483836E+03  0.52595043695E+03  0.17300000000E+03 0. -1.
         -6    1    1    2    0  501 -0.85810806353E+02 -0.25019891283E+02 -0.10793269570E+04  0.10967521003E+04  0.17300000000E+03 0.  1.
</event>
<event>
 4    1  0.1089518E+000  0.1000000E+03  0.7546771E-02  0.1280296E+00
         -1   -1    0    0    0  501 -0.00000000000E+00  0.00000000000E+00  0.52831989646E+03  0.52831989646E+03  0.00000000000E+00 0.  1.
          1   -1    0    0  502    0  0.00000000000E+00 -0.00000000000E+00 -0.13891804062E+03  0.13891804062E+03  0.00000000000E+00 0. -1.
          6    1    1    2  502    0  0.39260890916E+02 -0.30446839456E+02  0.44404111328E+03  0.47913457178E+03  0.17300000000E+03 0. -1.
         -6    1    1    2    0  501 -0.39260890916E+02  0.30446839456E+02 -0.54639257440E+02  0.18810336531E+03  0.17300000000E+03 0.  1.
</event>
<event>
 4    1  0.1089518E+000  0.1000000E+03  0.7546771E-02  0.1280296E+00
          2   -1    0    0  502    0  0.00000000000E+00  0.00000000000E+00  0.29630202497E+03  0.29630202497E+03  0.00000000000E+00 0.  1.
         -2   -1    0    0    0  501 -0.00000000000E+00 -0.00000000000E+00 -0.12229791623E+03  0.12229791623E+03  0.00000000000E+00 0. -1.
          6    1    1    2  502    0  0.31179421671E+02  0.25188983341E+02  0.11612777150E+02  0.17796206846E+03  0.17300000000E+03 0. -1.
         -6    1    1    2    0  501 -0.31179421671E+02 -0.25188983341E+02  0.16239133159E+03  0.24063787273E+03  0.17300000000E+03 0.  1.
</event>
<event>
 4    1  0.1089518E+000  0.1000000E+03  0.7546771E-02  0.1280296E+00
          1   -1    0    0  502    0  0.00000000000E+00  0.00000000000E+00  0.36208921936E+03  0.36208921936E+03  0.00000000000E+00 0.  1.
         -1   -1    0    0    0  501 -0.00000000000E+00 -0.00000000000E+00 -0.12215655438E+03  0.12215655438E+03  0.00000000000E+00 0. -1.
          6    1    1    2  502    0  0.57157963787E+02  0.10444370365E+03  0.10698978036E+03  0.23569330317E+03  0.17300000000E+03 0. -1.
         -6    1    1    2    0  501 -0.57157963787E+02 -0.10444370365E+03  0.13294288463E+03  0.24855247058E+03  0.17300000000E+03 0.  1.
</event>
<event>
 4    1  0.1089518E+000  0.1000000E+03  0.7546771E-02  0.1280296E+00
         -2   -1    0    0    0  501 -0.00000000000E+00  0.00000000000E+00  0.13799143878E+02  0.13799143878E+02  0.00000000000E+00 0.  1.
          2   -1    0    0  502    0  0.00000000000E+00 -0.00000000000E+00 -0.28019859778E+04  0.28019859778E+04  0.00000000000E+00 0. -1.
          6    1    1    2  502    0  0.27198411958E+02  0.32279489917E+02 -0.19911793201E+04  0.19991262601E+04  0.17300000000E+03 0.  1.
         -6    1    1    2    0  501 -0.27198411958E+02 -0.32279489917E+02 -0.79700751384E+03  0.81665886159E+03  0.17300000000E+03 0. -1.
</event>
<event>
 4    1  0.1089518E+000  0.1000000E+03  0.7546771E-02  0.1280296E+00
         -2   -1    0    0    0  501 -0.00000000000E+00  0.00000000000E+00  0.38424280365E+02  0.38424280365E+02  0.00000000000E+00 0.  1.
          2   -1    0    0  502    0  0.00000000000E+00 -0.00000000000E+00 -0.12145180607E+04  0.12145180607E+04  0.00000000000E+00 0. -1.
          6    1    1    2  502    0  0.37302394625E+02  0.76664480804E+02 -0.87024228449E+03  0.89135825849E+03  0.17300000000E+03 0.  1.
         -6    1    1    2    0  501 -0.37302394625E+02 -0.76664480804E+02 -0.30585149584E+03  0.36158408257E+03  0.17300000000E+03 0. -1.
</event>
<event>
 4    1  0.1089518E+000  0.1000000E+03  0.7546771E-02  0.1280296E+00
          3   -1    0    0  502    0  0.00000000000E+00  0.00000000000E+00  0.10279029256E+03  0.10279029256E+03  0.00000000000E+00 0.  1.
         -3   -1    0    0    0  501 -0.00000000000E+00 -0.00000000000E+00 -0.10277190656E+04  0.10277190656E+04  0.00000000000E+00 0. -1.
          6    1    1    2  502    0  0.76541552625E+02  0.20787087989E+03 -0.17859973416E+03  0.33301017556E+03  0.17300000000E+03 0. -1.
         -6    1    1    2    0  501 -0.76541552625E+02 -0.20787087989E+03 -0.74632903893E+03  0.79749918265E+03  0.17300000000E+03 0. -1.
</event>
<event>
 4    1  0.1089518E+000  0.1000000E+03  0.7546771E-02  0.1280296E+00
         -1   -1    0    0    0  501 -0.00000000000E+00  0.00000000000E+00  0.26730594890E+02  0.26730594890E+02  0.00000000000E+00 0. -1.
          1   -1    0    0  502    0  0.00000000000E+00 -0.00000000000E+00 -0.21660672107E+04  0.21660672107E+04  0.00000000000E+00 0.  1.
          6    1    1    2  502    0  0.65556383211E+02  0.49482291847E+02 -0.17334931189E+04  0.17440394290E+04  0.17300000000E+03 0.  1.
         -6    1    1    2    0  501 -0.65556383211E+02 -0.49482291847E+02 -0.40584349690E+03  0.44875837659E+03  0.17300000000E+03 0. -1.
</event>
<event>
 4    1  0.1089518E+000  0.1000000E+03  0.7546771E-02  0.1280296E+00
         -1   -1    0    0    0  501 -0.00000000000E+00  0.00000000000E+00  0.26372345906E+03  0.26372345906E+03  0.00000000000E+00 0. -1.
          1   -1    0    0  502    0  0.00000000000E+00 -0.00000000000E+00 -0.14200546112E+03  0.14200546112E+03  0.00000000000E+00 0.  1.
          6    1    1    2  502    0  0.66475355589E+02  0.36862631185E+02  0.10462841239E+03  0.21599521096E+03  0.17300000000E+03 0.  1.
         -6    1    1    2    0  501 -0.66475355589E+02 -0.36862631185E+02  0.17089585554E+02  0.18973370922E+03  0.17300000000E+03 0. -1.
</event>
<event>
 4    1  0.1089518E+000  0.1000000E+03  0.7546771E-02  0.1280296E+00
          1   -1    0    0  502    0  0.00000000000E+00  0.00000000000E+00  0.17756269533E+03  0.17756269533E+03  0.00000000000E+00 0. -1.
         -1   -1    0    0    0  501 -0.00000000000E+00 -0.00000000000E+00 -0.43012805886E+03  0.43012805886E+03  0.00000000000E+00 0.  1.
          6    1    1    2  502    0 -0.40712831410E+02  0.44909094213E+02  0.10109837998E+03  0.20934240807E+03  0.17300000000E+03 0.  1.
         -6    1    1    2    0  501  0.40712831410E+02 -0.44909094213E+02 -0.35366374351E+03  0.39834834612E+03  0.17300000000E+03 0. -1.
</event>
<event>
 4    1  0.1089518E+000  0.1000000E+03  0.7546771E-02  0.1280296E+00
          2   -1    0    0  502    0  0.00000000000E+00  0.00000000000E+00  0.10290547854E+04  0.10290547854E+04  0.00000000000E+00 0. -1.
         -2   -1    0    0    0  501 -0.00000000000E+00 -0.00000000000E+00 -0.34371720005E+02  0.34371720005E+02  0.00000000000E+00 0.  1.
          6    1    1    2  502    0  0.13584989783E+02  0.43754264390E+01  0.29273129475E+03  0.34032970372E+03  0.17300000000E+03 0.  1.
         -6    1    1    2    0  501 -0.13584989783E+02 -0.43754264390E+01  0.70195177062E+03  0.72309680166E+03  0.17300000000E+03 0. -1.
</event>
<event>
 4    1  0.1089518E+000  0.1000000E+03  0.7546771E-02  0.1280296E+00
          2   -1    0    0  502    0  0.00000000000E+00  0.00000000000E+00  0.34604447307E+03  0.34604447307E+03  0.00000000000E+00 0. -1.
         -2   -1    0    0    0  501 -0.00000000000E+00 -0.00000000000E+00 -0.12399523969E+03  0.12399523969E+03  0.00000000000E+00 0.  1.
          6    1    1    2  502    0  0.43493357246E+02  0.96122164176E+02  0.62254394197E+02  0.21198054667E+03  0.17300000000E+03 0.  1.
         -6    1    1    2    0  501 -0.43493357246E+02 -0.96122164176E+02  0.15979483918E+03  0.25805916608E+03  0.17300000000E+03 0. -1.
</event>
<event>
 4    1  0.1089518E+000  0.1000000E+03  0.7546771E-02  0.1280296E+00
          1   -1    0    0  502    0  0.00000000000E+00  0.00000000000E+00  0.61045973478E+03  0.61045973478E+03  0.00000000000E+00 0. -1.
         -1   -1    0    0    0  501 -0.00000000000E+00 -0.00000000000E+00 -0.12726483898E+03  0.12726483898E+03  0.00000000000E+00 0.  1.
          6    1    1    2  502    0 -0.13526998928E+03 -0.53197776833E+02  0.45756687457E+03  0.51031795791E+03  0.17300000000E+03 0.  1.
         -6    1    1    2    0  501  0.13526998928E+03  0.53197776833E+02  0.25628021235E+02  0.22740661585E+03  0.17300000000E+03 0. -1.
</event>
<event>
 4    1  0.1089518E+000  0.1000000E+03  0.7546771E-02  0.1280296E+00
         -1   -1    0    0    0  501 -0.00000000000E+00  0.00000000000E+00  0.31194645616E+02  0.31194645616E+02  0.00000000000E+00 0. -1.
          1   -1    0    0  502    0  0.00000000000E+00 -0.00000000000E+00 -0.10979909416E+04  0.10979909416E+04  0.00000000000E+00 0.  1.
          6    1    1    2  502    0  0.35938669247E+02 -0.17213674218E+02 -0.37386973418E+03  0.41387857719E+03  0.17300000000E+03 0.  1.
         -6    1    1    2    0  501 -0.35938669247E+02  0.17213674218E+02 -0.69292656179E+03  0.71530701001E+03  0.17300000000E+03 0. -1.
</event>
<event>
 4    1  0.1089518E+000  0.1000000E+03  0.7546771E-02  0.1280296E+00
          2   -1    0    0  502    0  0.00000000000E+00  0.00000000000E+00  0.14336768536E+04  0.14336768536E+04  0.00000000000E+00 0. -1.
         -2   -1    0    0    0  501 -0.00000000000E+00 -0.00000000000E+00 -0.41292052853E+02  0.41292052853E+02  0.00000000000E+00 0.  1.
          6    1    1    2  502    0 -0.23395039333E+02  0.90902727036E+02  0.26263662938E+03  0.32820364523E+03  0.17300000000E+03 0.  1.
         -6    1    1    2    0  501  0.23395039333E+02 -0.90902727036E+02  0.11297481714E+04  0.11467652612E+04  0.17300000000E+03 0. -1.
</event>
<event>
 4    1  0.1089518E+000  0.1000000E+03  0.7546771E-02  0.1280296E+00
          2   -1    0    0  502    0  0.00000000000E+00  0.00000000000E+00  0.16984574896E+04  0.16984574896E+04  0.00000000000E+00 0. -1.
         -2   -1    0    0    0  501 -0.00000000000E+00 -0.00000000000E+00 -0.29692599719E+02  0.29692599719E+02  0.00000000000E+00 0.  1.
          6    1    1    2  502    0 -0.13040692674E+02  0.43853168440E+02  0.31232232956E+03  0.35995471602E+03  0.17300000000E+03 0.  1.
         -6    1    1    2    0  501  0.13040692674E+02 -0.43853168440E+02  0.13564425603E+04  0.13681953733E+04  0.17300000000E+03 0. -1.
</event>
<event>
 4    1  0.1089518E+000  0.1000000E+03  0.7546771E-02  0.1280296E+00
          2   -1    0    0  502    0  0.00000000000E+00  0.00000000000E+00  0.28725461776E+04  0.28725461776E+04  0.00000000000E+00 0. -1.
         -2   -1    0    0    0  501 -0.00000000000E+00 -0.00000000000E+00 -0.34285674190E+02  0.34285674190E+02  0.00000000000E+00 0.  1.
          6    1    1    2  502    0 -0.16760019702E+03 -0.10507700502E+03  0.22135945328E+04  0.22291390173E+04  0.17300000000E+03 0.  1.
         -6    1    1    2    0  501  0.16760019702E+03  0.10507700502E+03  0.62466597069E+03  0.67769283452E+03  0.17300000000E+03 0. -1.
</event>
<event>
 4    1  0.1089518E+000  0.1000000E+03  0.7546771E-02  0.1280296E+00
          1   -1    0    0  502    0  0.00000000000E+00  0.00000000000E+00  0.15777517328E+04  0.15777517328E+04  0.00000000000E+00 0. -1.
         -1   -1    0    0    0  501 -0.00000000000E+00 -0.00000000000E+00 -0.26126026978E+02  0.26126026978E+02  0.00000000000E+00 0.  1.
          6    1    1    2  502    0  0.30936460737E+02 -0.93406940127E+02  0.61735061468E+03  0.64863911577E+03  0.17300000000E+03 0.  1.
         -6    1    1    2    0  501 -0.30936460737E+02  0.93406940127E+02  0.93427509112E+03  0.95523864398E+03  0.17300000000E+03 0. -1.
</event>
<event>
 4    1  0.1089518E+000  0.1000000E+03  0.7546771E-02  0.1280296E+00
          2   -1    0    0  502    0  0.00000000000E+00  0.00000000000E+00  0.15961105713E+04  0.15961105713E+04  0.00000000000E+00 0.  1.
         -2   -1    0    0    0  501 -0.00000000000E+00 -0.00000000000E+00 -0.67756036468E+02  0.67756036468E+02  0.00000000000E+00 0. -1.
          6    1    1    2  502    0 -0.16643402238E+03 -0.14605944320E+03  0.11963442419E+04  0.12289028399E+04  0.17300000000E+03 0.  1.
         -6    1    1    2    0  501  0.16643402238E+03  0.14605944320E+03  0.33201029292E+03  0.43496376787E+03  0.17300000000E+03 0. -1.
</event>
<event>
 4    1  0.1089518E+000  0.1000000E+03  0.7546771E-02  0.1280296E+00
          3   -1    0    0  502    0  0.00000000000E+00  0.00000000000E+00  0.18413538317E+03  0.18413538317E+03  0.00000000000E+00 0. -1.
         -3   -1    0    0    0  501 -0.00000000000E+00 -0.00000000000E+00 -0.35256370658E+03  0.35256370658E+03  0.00000000000E+00 0.  1.
          6    1    1    2  502    0  0.41616025385E+02 -0.16594425071E+03 -0.16387628697E+03  0.29334932307E+03  0.17300000000E+03 0. -1.
         -6    1    1    2    0  501 -0.41616025385E+02  0.16594425071E+03 -0.45520364398E+01  0.24334976669E+03  0.17300000000E+03 0.  1.
</event>
<event>
 4    1  0.1089518E+000  0.1000000E+03  0.7546771E-02  0.1280296E+00
          2   -1    0    0  502    0  0.00000000000E+00  0.00000000000E+00  0.19417550516E+04  0.19417550516E+04  0.00000000000E+00 0.  1.
         -2   -1    0    0    0  501 -0.00000000000E+00 -0.00000000000E+00 -0.42203310262E+02  0.42203310262E+02  0.00000000000E+00 0. -1.
          6    1    1    2  502    0  0.18869940855E+03  0.58004893755E+02  0.55395835862E+03  0.61300154777E+03  0.17300000000E+03 0. -1.
         -6    1    1    2    0  501 -0.18869940855E+03 -0.58004893755E+02  0.13455933827E+04  0.13709568140E+04  0.17300000000E+03 0.  1.
</event>
<event>
 4    1  0.1089518E+000  0.1000000E+03  0.7546771E-02  0.1280296E+00
         -2   -1    0    0    0  501 -0.00000000000E+00  0.00000000000E+00  0.14273747893E+03  0.14273747893E+03  0.00000000000E+00 0. -1.
          2   -1    0    0  502    0  0.00000000000E+00 -0.00000000000E+00 -0.99534169550E+03  0.99534169550E+03  0.00000000000E+00 0.  1.
          6    1    1    2  502    0  0.16770892709E+03  0.26162208266E+03 -0.23791640649E+03  0.42790841875E+03  0.17300000000E+03 0.  1.
         -6    1    1    2    0  501 -0.16770892709E+03 -0.26162208266E+03 -0.61468781008E+03  0.71017075568E+03  0.17300000000E+03 0. -1.
</event>
<event>
 4    1  0.1089518E+000  0.1000000E+03  0.7546771E-02  0.1280296E+00
          3   -1    0    0  502    0  0.00000000000E+00  0.00000000000E+00  0.15369978010E+04  0.15369978010E+04  0.00000000000E+00 0.  1.
         -3   -1    0    0    0  501 -0.00000000000E+00 -0.00000000000E+00 -0.39494921336E+02  0.39494921336E+02  0.00000000000E+00 0. -1.
          6    1    1    2  502    0 -0.71072295041E+02  0.15873259487E+03  0.67528594928E+03  0.71846184386E+03  0.17300000000E+03 0.  1.
         -6    1    1    2    0  501  0.71072295041E+02 -0.15873259487E+03  0.82221693038E+03  0.85803087846E+03  0.17300000000E+03 0. -1.
</event>
<event>
 4    1  0.1089518E+000  0.1000000E+03  0.7546771E-02  0.1280296E+00
          2   -1    0    0  502    0  0.00000000000E+00  0.00000000000E+00  0.46823735980E+03  0.46823735980E+03  0.00000000000E+00 0.  1.
         -2   -1    0    0    0  501 -0.00000000000E+00 -0.00000000000E+00 -0.67374853108E+02  0.67374853108E+02  0.00000000000E+00 0. -1.
          6    1    1    2  502    0 -0.33623720828E+02  0.20921105270E+02  0.18975086786E+03  0.25981270004E+03  0.17300000000E+03 0.  1.
         -6    1    1    2    0  501  0.33623720828E+02 -0.20921105270E+02  0.21111163883E+03  0.27579951287E+03  0.17300000000E+03 0. -1.
</event>
<event>
 4    1  0.1089518E+000  0.1000000E+03  0.7546771E-02  0.1280296E+00
          1   -1    0    0  502    0  0.00000000000E+00  0.00000000000E+00  0.65702083046E+02  0.65702083046E+02  0.00000000000E+00 0.  1.
         -1   -1    0    0    0  501 -0.00000000000E+00 -0.00000000000E+00 -0.59987863019E+03  0.59987863019E+03  0.00000000000E+00 0. -1.
          6    1    1    2  502    0  0.82674915272E+02 -0.43685989862E+02 -0.22146763782E+03  0.29617650468E+03  0.17300000000E+03 0.  1.
         -6    1    1    2    0  501 -0.82674915272E+02  0.43685989862E+02 -0.31270890933E+03  0.36940420856E+03  0.17300000000E+03 0. -1.
</event>
<event>
 4    1  0.1089518E+000  0.1000000E+03  0.7546771E-02  0.1280296E+00
          2   -1    0    0  502    0  0.00000000000E+00  0.00000000000E+00  0.34752647397E+04  0.34752647397E+04  0.00000000000E+00 0.  1.
         -2   -1    0    0    0  501 -0.00000000000E+00 -0.00000000000E+00 -0.15448835432E+02  0.15448835432E+02  0.00000000000E+00 0. -1.
          6    1    1    2  502    0  0.53891377466E+02  0.80113052974E+02  0.82482775619E+03  0.84828781035E+03  0.17300000000E+03 0.  1.
         -6    1    1    2    0  501 -0.53891377466E+02 -0.80113052974E+02  0.26349881481E+04  0.26424257648E+04  0.17300000000E+03 0. -1.
</event>
<event>
 4    1  0.1089518E+000  0.1000000E+03  0.7546771E-02  0.1280296E+00
          2   -1    0    0  502    0  0.00000000000E+00  0.00000000000E+00  0.32327087683E+04  0.32327087683E+04  0.00000000000E+00 0.  1.
         -2   -1    0    0    0  501 -0.00000000000E+00 -0.00000000000E+00 -0.21567408747E+02  0.21567408747E+02  0.00000000000E+00 0. -1.
          6    1    1    2  502    0 -0.69913080944E+02  0.11090781007E+03  0.25320432745E+04  0.25413304635E+04  0.17300000000E+03 0. -1.
         -6    1    1    2    0  501  0.69913080944E+02 -0.11090781007E+03  0.67909808514E+03  0.71294571355E+03  0.17300000000E+03 0.  1.
</event>
<event>
 4    1  0.1089518E+000  0.1000000E+03  0.7546771E-02  0.1280296E+00
          2   -1    0    0  502    0  0.00000000000E+00  0.00000000000E+00  0.10450278632E+03  0.10450278632E+03  0.00000000000E+00 0.  1.
         -2   -1    0    0    0  501 -0.00000000000E+00 -0.00000000000E+00 -0.33171111800E+03  0.33171111800E+03  0.00000000000E+00 0. -1.
          6    1    1    2  502    0  0.43923493576E+02  0.20235246854E+02 -0.17095759082E+03  0.24798031446E+03  0.17300000000E+03 0. -1.
         -6    1    1    2    0  501 -0.43923493576E+02 -0.20235246854E+02 -0.56250740866E+02  0.18823358986E+03  0.17300000000E+03 0.  1.
</event>
<event>
 4    1  0.1089518E+000  0.1000000E+03  0.7546771E-02  0.1280296E+00
         -2   -1    0    0    0  501 -0.00000000000E+00  0.00000000000E+00  0.59792786566E+02  0.59792786566E+02  0.00000000000E+00 0.  1.
          2   -1    0    0  502    0  0.00000000000E+00 -0.00000000000E+00 -0.79471073158E+03  0.79471073158E+03  0.00000000000E+00 0. -1.
          6    1    1    2  502    0  0.67081997424E+01  0.98776584701E+02 -0.19449950159E+03  0.27849752198E+03  0.17300000000E+03 0. -1.
         -6    1    1    2    0  501 -0.67081997424E+01 -0.98776584701E+02 -0.54041844343E+03  0.57600599618E+03  0.17300000000E+03 0.  1.
</event>
<event>
 4    1  0.1089518E+000  0.1000000E+03  0.7546771E-02  0.1280296E+00
         -2   -1    0    0    0  501 -0.00000000000E+00  0.00000000000E+00  0.45588223167E+03  0.45588223167E+03  0.00000000000E+00 0.  1.
          2   -1    0    0  502    0  0.00000000000E+00 -0.00000000000E+00 -0.96217029921E+03  0.96217029921E+03  0.00000000000E+00 0. -1.
          6    1    1    2  502    0  0.62243061340E+03 -0.14338225878E+03 -0.28204913946E+03  0.71934627107E+03  0.17300000000E+03 0. -1.
         -6    1    1    2    0  501 -0.62243061340E+03  0.14338225878E+03 -0.22423892807E+03  0.69870625981E+03  0.17300000000E+03 0.  1.
</event>
