<event>
 4    1  0.3065897E+000  0.1000000E+03  0.7546771E-02  0.1280296E+00
         21   -1    0    0  503  502  0.00000000000E+00  0.00000000000E+00  0.12701034345E+03  0.12701034345E+03  0.00000000000E+00 0.  1.
         21   -1    0    0  501  503 -0.00000000000E+00 -0.00000000000E+00 -0.41548350538E+03  0.41548350538E+03  0.00000000000E+00 0.  1.
          6    1    1    2  501    0 -0.39999692132E+02  0.10743160531E+03 -0.26053082639E+03  0.33308683056E+03  0.17300000000E+03 0.  1.
         -6    1    1    2    0  502  0.39999692132E+02 -0.10743160531E+03 -0.27942335536E+02  0.20940701828E+03  0.17300000000E+03 0.  1.
</event>
<event>
 4    1  0.3065897E+000  0.1000000E+03  0.7546771E-02  0.1280296E+00
         21   -1    0    0  503  502  0.00000000000E+00  0.00000000000E+00  0.66902094726E+03  0.66902094726E+03  0.00000000000E+00 0.  1.
         21   -1    0    0  501  503 -0.00000000000E+00 -0.00000000000E+00 -0.21459355131E+03  0.21459355131E+03  0.00000000000E+00 0.  1.
          6    1    1    2  501    0  0.20785334721E+03 -0.37064875514E+02 -0.79210793135E+02  0.28421852279E+03  0.17300000000E+03 0.  1.
         -6    1    1    2    0  502 -0.20785334721E+03  0.37064875514E+02  0.53363818908E+03  0.59939597579E+03  0.17300000000E+03 0.  1.
</event>
<event>
 4    1  0.3065897E+000  0.1000000E+03  0.7546771E-02  0.1280296E+00
         21   -1    0    0  503  502  0.00000000000E+00  0.00000000000E+00  0.39092115135E+02  0.39092115135E+02  0.00000000000E+00 0.  1.
         21   -1    0    0  501  503 -0.00000000000E+00 -0.00000000000E+00 -0.20845846541E+04  0.20845846541E+04  0.00000000000E+00 0.  1.
          6    1    1    2  501    0 -0.20207818538E+03  0.17584517797E+02 -0.14023895464E+04  0.14275049031E+04  0.17300000000E+03 0.  1.
         -6    1    1    2    0  502  0.20207818538E+03 -0.17584517797E+02 -0.64310299254E+03  0.69617186620E+03  0.17300000000E+03 0.  1.
</event>
<event>
 4    1  0.3065897E+000  0.1000000E+03  0.7546771E-02  0.1280296E+00
         21   -1    0    0  503  502  0.00000000000E+00  0.00000000000E+00  0.16182403786E+03  0.16182403786E+03  0.00000000000E+00 0.  1.
         21   -1    0    0  501  503 -0.00000000000E+00 -0.00000000000E+00 -0.26617585722E+03  0.26617585722E+03  0.00000000000E+00 0.  1.
          6    1    1    2  501    0 -0.76987808330E+02 -0.84908050242E+02 -0.49231828807E+02  0.21328214317E+03  0.17300000000E+03 0.  1.
         -6    1    1    2    0  502  0.76987808330E+02  0.84908050242E+02 -0.55119990548E+02  0.21471775191E+03  0.17300000000E+03 0.  1.
</event>
<event>
 4    1  0.3065897E+000  0.1000000E+03  0.7546771E-02  0.1280296E+00
         21   -1    0    0  503  502  0.00000000000E+00  0.00000000000E+00  0.12261690079E+04  0.12261690079E+04  0.00000000000E+00 0.  1.
         21   -1    0    0  501  503 -0.00000000000E+00 -0.00000000000E+00 -0.10335528560E+03  0.10335528560E+03  0.00000000000E+00 0.  1.
          6    1    1    2  501    0  0.21989965190E+03 -0.14261586823E+03  0.24834419237E+03  0.40037355140E+03  0.17300000000E+03 0.  1.
         -6    1    1    2    0  502 -0.21989965190E+03  0.14261586823E+03  0.87446952995E+03  0.92915074213E+03  0.17300000000E+03 0.  1.
</event>
<event>
 4    1  0.3065897E+000  0.1000000E+03  0.7546771E-02  0.1280296E+00
         21   -1    0    0  503  502  0.00000000000E+00  0.00000000000E+00  0.29407323168E+03  0.29407323168E+03  0.00000000000E+00 0.  1.
         21   -1    0    0  501  503 -0.00000000000E+00 -0.00000000000E+00 -0.30275379576E+03  0.30275379576E+03  0.00000000000E+00 0.  1.
          6    1    1    2  501    0 -0.13125738296E+02 -0.11326879991E+03 -0.21907368752E+03  0.30153670855E+03  0.17300000000E+03 0.  1.
         -6    1    1    2    0  502  0.13125738296E+02  0.11326879991E+03  0.21039312344E+03  0.29529031889E+03  0.17300000000E+03 0.  1.
</event>
<event>
 4    1  0.3065897E+000  0.1000000E+03  0.7546771E-02  0.1280296E+00
         21   -1    0    0  503  502  0.00000000000E+00  0.00000000000E+00  0.26059924956E+03  0.26059924956E+03  0.00000000000E+00 0.  1.
         21   -1    0    0  501  503 -0.00000000000E+00 -0.00000000000E+00 -0.34325343456E+03  0.34325343456E+03  0.00000000000E+00 0. -1.
          6    1    1    2  501    0 -0.45948291324E+02 -0.23333415053E+03  0.13656148996E+02  0.29440034253E+03  0.17300000000E+03 0. -1.
         -6    1    1    2    0  502  0.45948291324E+02  0.23333415053E+03 -0.96310333998E+02  0.30945234158E+03  0.17300000000E+03 0. -1.
</event>
<event>
 4    1  0.3065897E+000  0.1000000E+03  0.7546771E-02  0.1280296E+00
         21   -1    0    0  503  502  0.00000000000E+00  0.00000000000E+00  0.52813582470E+02  0.52813582470E+02  0.00000000000E+00 0.  1.
         21   -1    0    0  501  503 -0.00000000000E+00 -0.00000000000E+00 -0.10826140340E+04  0.10826140340E+04  0.00000000000E+00 0. -1.
          6    1    1    2  501    0  0.97911568419E+02  0.70473815005E+02 -0.78240249838E+03  0.81033073698E+03  0.17300000000E+03 0. -1.
         -6    1    1    2    0  502 -0.97911568419E+02 -0.70473815005E+02 -0.24739795318E+03  0.32509687951E+03  0.17300000000E+03 0. -1.
</event>
<event>
 4    1  0.3065897E+000  0.1000000E+03  0.7546771E-02  0.1280296E+00
         21   -1    0    0  503  502  0.00000000000E+00  0.00000000000E+00  0.43362586626E+03  0.43362586626E+03  0.00000000000E+00 0. -1.
         21   -1    0    0  501  503 -0.00000000000E+00 -0.00000000000E+00 -0.10822503853E+03  0.10822503853E+03  0.00000000000E+00 0. -1.
          6    1    1    2  501    0  0.66381164984E+02 -0.49714085273E+02  0.36875577788E+02  0.19536314283E+03  0.17300000000E+03 0. -1.
         -6    1    1    2    0  502 -0.66381164984E+02  0.49714085273E+02  0.28852524994E+03  0.34648776197E+03  0.17300000000E+03 0. -1.
</event>
<event>
 4    1  0.3065897E+000  0.1000000E+03  0.7546771E-02  0.1280296E+00
         21   -1    0    0  503  502  0.00000000000E+00  0.00000000000E+00  0.29724332052E+02  0.29724332052E+02  0.00000000000E+00 0. -1.
         21   -1    0    0  501  503 -0.00000000000E+00 -0.00000000000E+00 -0.10658591132E+04  0.10658591132E+04  0.00000000000E+00 0. -1.
          6    1    1    2  501    0 -0.32441471431E+02 -0.21831408745E+02 -0.47201761011E+03  0.50424070019E+03  0.17300000000E+03 0. -1.
         -6    1    1    2    0  502  0.32441471431E+02  0.21831408745E+02 -0.56411717106E+03  0.59134274508E+03  0.17300000000E+03 0. -1.
</event>
<event>
 4    1  0.3065897E+000  0.1000000E+03  0.7546771E-02  0.1280296E+00
         21   -1    0    0  503  502  0.00000000000E+00  0.00000000000E+00  0.75920499953E+03  0.75920499953E+03  0.00000000000E+00 0. -1.
         21   -1    0    0  501  503 -0.00000000000E+00 -0.00000000000E+00 -0.30443116414E+03  0.30443116414E+03  0.00000000000E+00 0. -1.
          6    1    1    2  501    0 -0.76114829398E+02 -0.26225856205E+03  0.62102437189E+03  0.70012376842E+03  0.17300000000E+03 0. -1.
         -6    1    1    2    0  502  0.76114829398E+02  0.26225856205E+03 -0.16625053650E+03  0.36351239526E+03  0.17300000000E+03 0. -1.
</event>
<event>
 4    1  0.3065897E+000  0.1000000E+03  0.7546771E-02  0.1280296E+00
         21   -1    0    0  503  502  0.00000000000E+00  0.00000000000E+00  0.38798561836E+03  0.38798561836E+03  0.00000000000E+00 0. -1.
         21   -1    0    0  501  503 -0.00000000000E+00 -0.00000000000E+00 -0.21716967624E+03  0.21716967624E+03  0.00000000000E+00 0. -1.
          6    1    1    2  501    0 -0.15884360374E+03 -0.13898804054E+03 -0.17681760770E+02  0.27347872042E+03  0.17300000000E+03 0. -1.
         -6    1    1    2    0  502  0.15884360374E+03  0.13898804054E+03  0.18849770289E+03  0.33167657417E+03  0.17300000000E+03 0. -1.
</event>
<event>
 4    1  0.3065897E+000  0.1000000E+03  0.7546771E-02  0.1280296E+00
         21   -1    0    0  503  502  0.00000000000E+00  0.00000000000E+00  0.34381950049E+03  0.34381950049E+03  0.00000000000E+00 0. -1.
         21   -1    0    0  501  503 -0.00000000000E+00 -0.00000000000E+00 -0.26281143175E+03  0.26281143175E+03  0.00000000000E+00 0. -1.
          6    1    1    2  501    0  0.65452031594E+02 -0.18294487717E+03 -0.11144872191E+03  0.28302405223E+03  0.17300000000E+03 0. -1.
         -6    1    1    2    0  502 -0.65452031594E+02  0.18294487717E+03  0.19245679065E+03  0.32360688001E+03  0.17300000000E+03 0. -1.
</event>
<event>
 4    1  0.3065897E+000  0.1000000E+03  0.7546771E-02  0.1280296E+00
         21   -1    0    0  503  502  0.00000000000E+00  0.00000000000E+00  0.14540493323E+04  0.14540493323E+04  0.00000000000E+00 0. -1.
         21   -1    0    0  501  503 -0.00000000000E+00 -0.00000000000E+00 -0.25787582493E+02  0.25787582493E+02  0.00000000000E+00 0. -1.
          6    1    1    2  501    0 -0.42886155344E+02 -0.70001615904E+02  0.82408104273E+03  0.84603665024E+03  0.17300000000E+03 0. -1.
         -6    1    1    2    0  502  0.42886155344E+02  0.70001615904E+02  0.60418070703E+03  0.63380026451E+03  0.17300000000E+03 0. -1.
</event>
<event>
 4    1  0.3065897E+000  0.1000000E+03  0.7546771E-02  0.1280296E+00
         21   -1    0    0  503  502  0.00000000000E+00  0.00000000000E+00  0.47942520473E+02  0.47942520473E+02  0.00000000000E+00 0. -1.
         21   -1    0    0  501  503 -0.00000000000E+00 -0.00000000000E+00 -0.12866514837E+04  0.12866514837E+04  0.00000000000E+00 0. -1.
          6    1    1    2  501    0 -0.12006948833E+03  0.10155930768E+03 -0.84455114758E+03  0.87631422211E+03  0.17300000000E+03 0. -1.
         -6    1    1    2    0  502  0.12006948833E+03 -0.10155930768E+03 -0.39415781564E+03  0.45827978205E+03  0.17300000000E+03 0. -1.
</event>
<event>
 4    1  0.3065897E+000  0.1000000E+03  0.7546771E-02  0.1280296E+00
         21   -1    0    0  503  502  0.00000000000E+00  0.00000000000E+00  0.20325250398E+03  0.20325250398E+03  0.00000000000E+00 0. -1.
         21   -1    0    0  501  503 -0.00000000000E+00 -0.00000000000E+00 -0.76742226067E+03  0.76742226067E+03  0.00000000000E+00 0. -1.
          6    1    1    2  501    0 -0.23537912792E+02  0.45330570551E+02 -0.71384360950E+03  0.73628159884E+03  0.17300000000E+03 0. -1.
         -6    1    1    2    0  502  0.23537912792E+02 -0.45330570551E+02  0.14967385281E+03  0.23439316581E+03  0.17300000000E+03 0. -1.
</event>
<event>
 4    1  0.3065897E+000  0.1000000E+03  0.7546771E-02  0.1280296E+00
         21   -1    0    0  501  502  0.00000000000E+00  0.00000000000E+00  0.74551815688E+02  0.74551815688E+02  0.00000000000E+00 0. -1.
         21   -1    0    0  502  503 -0.00000000000E+00 -0.00000000000E+00 -0.60789924339E+03  0.60789924339E+03  0.00000000000E+00 0. -1.
          6    1    1    2  501    0 -0.40065693184E+02  0.59040246498E+02 -0.10400095481E+03  0.21409392583E+03  0.17300000000E+03 0. -1.
         -6    1    1    2    0  503  0.40065693184E+02 -0.59040246498E+02 -0.42934647290E+03  0.46835713325E+03  0.17300000000E+03 0. -1.
</event>
<event>
 4    1  0.3065897E+000  0.1000000E+03  0.7546771E-02  0.1280296E+00
         21   -1    0    0  501  502  0.00000000000E+00  0.00000000000E+00  0.87769739404E+03  0.87769739404E+03  0.00000000000E+00 0. -1.
         21   -1    0    0  502  503 -0.00000000000E+00 -0.00000000000E+00 -0.87762356087E+02  0.87762356087E+02  0.00000000000E+00 0. -1.
          6    1    1    2  501    0  0.14030174755E+03 -0.14569805181E+03  0.53178066242E+03  0.59466980383E+03  0.17300000000E+03 0. -1.
         -6    1    1    2    0  503 -0.14030174755E+03  0.14569805181E+03  0.25815437553E+03  0.37078994629E+03  0.17300000000E+03 0. -1.
</event>
<event>
 4    1  0.3065897E+000  0.1000000E+03  0.7546771E-02  0.1280296E+00
         21   -1    0    0  501  502  0.00000000000E+00  0.00000000000E+00  0.89944205109E+02  0.89944205109E+02  0.00000000000E+00 0. -1.
         21   -1    0    0  502  503 -0.00000000000E+00 -0.00000000000E+00 -0.57996299465E+03  0.57996299465E+03  0.00000000000E+00 0.  1.
          6    1    1    2  501    0 -0.11972727532E+03 -0.12618449952E+02 -0.11597381251E+03  0.24056760157E+03  0.17300000000E+03 0. -1.
         -6    1    1    2    0  503  0.11972727532E+03  0.12618449952E+02 -0.37404497704E+03  0.42933959820E+03  0.17300000000E+03 0.  1.
</event>
<event>
 4    1  0.3065897E+000  0.1000000E+03  0.7546771E-02  0.1280296E+00
         21   -1    0    0  501  502  0.00000000000E+00  0.00000000000E+00  0.43563830041E+03  0.43563830041E+03  0.00000000000E+00 0. -1.
         21   -1    0    0  502  503 -0.00000000000E+00 -0.00000000000E+00 -0.10030064552E+03  0.10030064552E+03  0.00000000000E+00 0.  1.
          6    1    1    2  501    0  0.55591130361E+02 -0.45485073332E+02  0.28659697449E+03  0.34238296023E+03  0.17300000000E+03 0. -1.
         -6    1    1    2    0  503 -0.55591130361E+02  0.45485073332E+02  0.48740680401E+02  0.19355598569E+03  0.17300000000E+03 0.  1.
</event>
<event>
 4    1  0.3065897E+000  0.1000000E+03  0.7546771E-02  0.1280296E+00
         21   -1    0    0  503  502  0.00000000000E+00  0.00000000000E+00  0.37959156303E+02  0.37959156303E+02  0.00000000000E+00 0.  1.
         21   -1    0    0  501  503 -0.00000000000E+00 -0.00000000000E+00 -0.16866325971E+04  0.16866325971E+04  0.00000000000E+00 0.  1.
          6    1    1    2  501    0  0.33160150461E+02 -0.25003899335E+02 -0.14374699363E+04  0.14484383343E+04  0.17300000000E+03 0.  1.
         -6    1    1    2    0  502 -0.33160150461E+02  0.25003899335E+02 -0.21120350451E+03  0.27615341909E+03  0.17300000000E+03 0.  1.
</event>
<event>
 4    1  0.3065897E+000  0.1000000E+03  0.7546771E-02  0.1280296E+00
         21   -1    0    0  503  502  0.00000000000E+00  0.00000000000E+00  0.88406577623E+03  0.88406577623E+03  0.00000000000E+00 0. -1.
         21   -1    0    0  501  503 -0.00000000000E+00 -0.00000000000E+00 -0.12955845716E+03  0.12955845716E+03  0.00000000000E+00 0. -1.
          6    1    1    2  501    0  0.42612454007E+02 -0.11556552412E+03 -0.17358420048E+02  0.21307633925E+03  0.17300000000E+03 0. -1.
         -6    1    1    2    0  502 -0.42612454007E+02  0.11556552412E+03  0.77186573911E+03  0.80054789414E+03  0.17300000000E+03 0. -1.
</event>
<event>
 4    1  0.3065897E+000  0.1000000E+03  0.7546771E-02  0.1280296E+00
         21   -1    0    0  503  502  0.00000000000E+00  0.00000000000E+00  0.26974255457E+04  0.26974255457E+04  0.00000000000E+00 0.  1.
         21   -1    0    0  501  503 -0.00000000000E+00 -0.00000000000E+00 -0.15097362856E+02  0.15097362856E+02  0.00000000000E+00 0.  1.
          6    1    1    2  501    0 -0.22048758620E+02  0.47490101859E+02  0.73803268183E+03  0.75984386356E+03  0.17300000000E+03 0.  1.
         -6    1    1    2    0  502  0.22048758620E+02 -0.47490101859E+02  0.19442955010E+04  0.19526790450E+04  0.17300000000E+03 0.  1.
</event>
<event>
 4    1  0.3065897E+000  0.1000000E+03  0.7546771E-02  0.1280296E+00
         21   -1    0    0  503  502  0.00000000000E+00  0.00000000000E+00  0.27080364805E+03  0.27080364805E+03  0.00000000000E+00 0.  1.
         21   -1    0    0  501  503 -0.00000000000E+00 -0.00000000000E+00 -0.26128035149E+03  0.26128035149E+03  0.00000000000E+00 0.  1.
          6    1    1    2  501    0  0.15469516121E+02 -0.13546186310E+03 -0.14438450803E+03  0.26337256585E+03  0.17300000000E+03 0.  1.
         -6    1    1    2    0  502 -0.15469516121E+02  0.13546186310E+03  0.15390780460E+03  0.26871143369E+03  0.17300000000E+03 0.  1.
</event>
<event>
 4    1  0.3065897E+000  0.1000000E+03  0.7546771E-02  0.1280296E+00
         21   -1    0    0  501  502  0.00000000000E+00  0.00000000000E+00  0.48928425061E+02  0.48928425061E+02  0.00000000000E+00 0. -1.
         21   -1    0    0  502  503 -0.00000000000E+00 -0.00000000000E+00 -0.15070883367E+04  0.15070883367E+04  0.00000000000E+00 0. -1.
          6    1    1    2  501    0 -0.78472949310E+02 -0.17430604751E+03 -0.48479471429E+03  0.54908607429E+03  0.17300000000E+03 0. -1.
         -6    1    1    2    0  503  0.78472949310E+02  0.17430604751E+03 -0.97336519738E+03  0.10069306875E+04  0.17300000000E+03 0. -1.
</event>
<event>
 4    1  0.3065897E+000  0.1000000E+03  0.7546771E-02  0.1280296E+00
         21   -1    0    0  501  502  0.00000000000E+00  0.00000000000E+00  0.19708599600E+03  0.19708599600E+03  0.00000000000E+00 0. -1.
         21   -1    0    0  502  503 -0.00000000000E+00 -0.00000000000E+00 -0.19189731128E+04  0.19189731128E+04  0.00000000000E+00 0. -1.
          6    1    1    2  501    0  0.55788136049E+03  0.11187989544E+03 -0.59151724217E+03  0.83879101758E+03  0.17300000000E+03 0. -1.
         -6    1    1    2    0  503 -0.55788136049E+03 -0.11187989544E+03 -0.11303698746E+04  0.12772680912E+04  0.17300000000E+03 0. -1.
</event>
<event>
 4    1  0.3065897E+000  0.1000000E+03  0.7546771E-02  0.1280296E+00
         21   -1    0    0  503  502  0.00000000000E+00  0.00000000000E+00  0.94483208309E+03  0.94483208309E+03  0.00000000000E+00 0.  1.
         21   -1    0    0  501  503 -0.00000000000E+00 -0.00000000000E+00 -0.98844126427E+02  0.98844126427E+02  0.00000000000E+00 0.  1.
          6    1    1    2  501    0  0.21771946960E+03 -0.12599902878E+03  0.44619325232E+03  0.54064308107E+03  0.17300000000E+03 0.  1.
         -6    1    1    2    0  502 -0.21771946960E+03  0.12599902878E+03  0.39979470435E+03  0.50303312845E+03  0.17300000000E+03 0.  1.
</event>
<event>
 4    1  0.3065897E+000  0.1000000E+03  0.7546771E-02  0.1280296E+00
         21   -1    0    0  501  502  0.00000000000E+00  0.00000000000E+00  0.68863922193E+03  0.68863922193E+03  0.00000000000E+00 0.  1.
         21   -1    0    0  502  503 -0.00000000000E+00 -0.00000000000E+00 -0.61499739775E+02  0.61499739775E+02  0.00000000000E+00 0.  1.
          6    1    1    2  501    0 -0.20463767322E+02  0.64631283858E+02  0.47480265097E+03  0.50986520375E+03  0.17300000000E+03 0.  1.
         -6    1    1    2    0  503  0.20463767322E+02 -0.64631283858E+02  0.15233683118E+03  0.24027375795E+03  0.17300000000E+03 0.  1.
</event>
<event>
 4    1  0.3065897E+000  0.1000000E+03  0.7546771E-02  0.1280296E+00
         21   -1    0    0  501  502  0.00000000000E+00  0.00000000000E+00  0.55204075423E+02  0.55204075423E+02  0.00000000000E+00 0. -1.
         21   -1    0    0  502  503 -0.00000000000E+00 -0.00000000000E+00 -0.15860575295E+04  0.15860575295E+04  0.00000000000E+00 0. -1.
          6    1    1    2  501    0  0.45139561732E+01  0.24706830799E+02 -0.10331860928E+03  0.20306289250E+03  0.17300000000E+03 0. -1.
         -6    1    1    2    0  503 -0.45139561732E+01 -0.24706830799E+02 -0.14275348448E+04  0.14381987124E+04  0.17300000000E+03 0. -1.
</event>
<event>
 4    1  0.3065897E+000  0.1000000E+03  0.7546771E-02  0.1280296E+00
         21   -1    0    0  501  502  0.00000000000E+00  0.00000000000E+00  0.88753672721E+02  0.88753672721E+02  0.00000000000E+00 0. -1.
         21   -1    0    0  502  503 -0.00000000000E+00 -0.00000000000E+00 -0.87309937401E+03  0.87309937401E+03  0.00000000000E+00 0. -1.
          6    1    1    2  501    0  0.77060403625E+02 -0.32961677724E+02 -0.44332855536E+02  0.19727944669E+03  0.17300000000E+03 0. -1.
         -6    1    1    2    0  503 -0.77060403625E+02  0.32961677724E+02 -0.74001284575E+03  0.76457360004E+03  0.17300000000E+03 0. -1.
</event>
<event>
 4    1  0.3065897E+000  0.1000000E+03  0.7546771E-02  0.1280296E+00
         21   -1    0    0  501  502  0.00000000000E+00  0.00000000000E+00  0.57686830184E+02  0.57686830184E+02  0.00000000000E+00 0. -1.
         21   -1    0    0  502  503 -0.00000000000E+00 -0.00000000000E+00 -0.80502730815E+03  0.80502730815E+03  0.00000000000E+00 0. -1.
          6    1    1    2  501    0 -0.35675937134E+02 -0.26266947061E+02 -0.13224027504E+03  0.22221434549E+03  0.17300000000E+03 0. -1.
         -6    1    1    2    0  503  0.35675937134E+02  0.26266947061E+02 -0.61510020292E+03  0.64049979284E+03  0.17300000000E+03 0. -1.
</event>
<event>
 4    1  0.3065897E+000  0.1000000E+03  0.7546771E-02  0.1280296E+00
         21   -1    0    0  501  502  0.00000000000E+00  0.00000000000E+00  0.22012621082E+03  0.22012621082E+03  0.00000000000E+00 0. -1.
         21   -1    0    0  502  503 -0.00000000000E+00 -0.00000000000E+00 -0.25508794859E+03  0.25508794859E+03  0.00000000000E+00 0.  1.
          6    1    1    2  501    0  0.61353996179E+02 -0.87041153595E+02  0.10484270848E+03  0.22860767438E+03  0.17300000000E+03 0. -1.
         -6    1    1    2    0  503 -0.61353996179E+02  0.87041153595E+02 -0.13980444625E+03  0.24660648503E+03  0.17300000000E+03 0.  1.
</event>
<event>
 4    1  0.3065897E+000  0.1000000E+03  0.7546771E-02  0.1280296E+00
         21   -1    0    0  503  502  0.00000000000E+00  0.00000000000E+00  0.17256248798E+03  0.17256248798E+03  0.00000000000E+00 0.  1.
         21   -1    0    0  501  503 -0.00000000000E+00 -0.00000000000E+00 -0.39790073683E+03  0.39790073683E+03  0.00000000000E+00 0.  1.
          6    1    1    2  501    0  0.50380140740E+02 -0.55968720281E+01 -0.31967223201E+03  0.36699975405E+03  0.17300000000E+03 0.  1.
         -6    1    1    2    0  502 -0.50380140740E+02  0.55968720281E+01  0.94333983148E+02  0.20346347076E+03  0.17300000000E+03 0.  1.
</event>
<event>
 4    1  0.3065897E+000  0.1000000E+03  0.7546771E-02  0.1280296E+00
         21   -1    0    0  503  502  0.00000000000E+00  0.00000000000E+00  0.60977313268E+03  0.60977313268E+03  0.00000000000E+00 0. -1.
         21   -1    0    0  501  503 -0.00000000000E+00 -0.00000000000E+00 -0.81355025571E+02  0.81355025571E+02  0.00000000000E+00 0. -1.
          6    1    1    2  501    0  0.62983537290E+02 -0.84681986759E+02  0.12082188886E+03  0.23593408757E+03  0.17300000000E+03 0. -1.
         -6    1    1    2    0  502 -0.62983537290E+02  0.84681986759E+02  0.40759621825E+03  0.45519407068E+03  0.17300000000E+03 0. -1.
</event>
<event>
 4    1  0.3065897E+000  0.1000000E+03  0.7546771E-02  0.1280296E+00
         21   -1    0    0  503  502  0.00000000000E+00  0.00000000000E+00  0.16538350876E+03  0.16538350876E+03  0.00000000000E+00 0. -1.
         21   -1    0    0  501  503 -0.00000000000E+00 -0.00000000000E+00 -0.30675427011E+03  0.30675427011E+03  0.00000000000E+00 0. -1.
          6    1    1    2  501    0 -0.97058504942E+02 -0.10625941149E+03 -0.80720867693E+02  0.23907378441E+03  0.17300000000E+03 0. -1.
         -6    1    1    2    0  502  0.97058504942E+02  0.10625941149E+03 -0.60649893654E+02  0.23306399446E+03  0.17300000000E+03 0. -1.
</event>
<event>
 4    1  0.3065897E+000  0.1000000E+03  0.7546771E-02  0.1280296E+00
         21   -1    0    0  503  502  0.00000000000E+00  0.00000000000E+00  0.19677314537E+03  0.19677314537E+03  0.00000000000E+00 0. -1.
         21   -1    0    0  501  503 -0.00000000000E+00 -0.00000000000E+00 -0.62717679900E+03  0.62717679900E+03  0.00000000000E+00 0. -1.
          6    1    1    2  501    0  0.87382163996E+02  0.27160665764E+02 -0.55732398213E+03  0.59068804407E+03  0.17300000000E+03 0. -1.
         -6    1    1    2    0  502 -0.87382163996E+02 -0.27160665764E+02  0.12692032850E+03  0.23326190031E+03  0.17300000000E+03 0. -1.
</event>
<event>
 4    1  0.3065897E+000  0.1000000E+03  0.7546771E-02  0.1280296E+00
         21   -1    0    0  503  502  0.00000000000E+00  0.00000000000E+00  0.66803281922E+02  0.66803281922E+02  0.00000000000E+00 0. -1.
         21   -1    0    0  501  503 -0.00000000000E+00 -0.00000000000E+00 -0.67457655313E+03  0.67457655313E+03  0.00000000000E+00 0. -1.
          6    1    1    2  501    0 -0.10040753098E+03  0.11902819632E+02 -0.42626560390E+03  0.47101455865E+03  0.17300000000E+03 0. -1.
         -6    1    1    2    0  502  0.10040753098E+03 -0.11902819632E+02 -0.18150766731E+03  0.27036527640E+03  0.17300000000E+03 0. -1.
</event>
<event>
 4    1  0.3065897E+000  0.1000000E+03  0.7546771E-02  0.1280296E+00
         21   -1    0    0  501  502  0.00000000000E+00  0.00000000000E+00  0.51202849441E+02  0.51202849441E+02  0.00000000000E+00 0.  1.
         21   -1    0    0  502  503 -0.00000000000E+00 -0.00000000000E+00 -0.87383712519E+03  0.87383712519E+03  0.00000000000E+00 0. -1.
          6    1    1    2  501    0 -0.83455406643E+02  0.52877760296E+02 -0.25588291764E+03  0.32429296935E+03  0.17300000000E+03 0.  1.
         -6    1    1    2    0  503  0.83455406643E+02 -0.52877760296E+02 -0.56675135811E+03  0.60074700528E+03  0.17300000000E+03 0. -1.
</event>
<event>
 4    1  0.3065897E+000  0.1000000E+03  0.7546771E-02  0.1280296E+00
         21   -1    0    0  501  502  0.00000000000E+00  0.00000000000E+00  0.72401543747E+03  0.72401543747E+03  0.00000000000E+00 0.  1.
         21   -1    0    0  502  503 -0.00000000000E+00 -0.00000000000E+00 -0.15829892382E+03  0.15829892382E+03  0.00000000000E+00 0. -1.
          6    1    1    2  501    0 -0.65475885013E+02 -0.19552949694E+03  0.55043363827E+03  0.61271940220E+03  0.17300000000E+03 0.  1.
         -6    1    1    2    0  503  0.65475885013E+02  0.19552949694E+03  0.15282875388E+02  0.26959495910E+03  0.17300000000E+03 0. -1.
</event>
<event>
 4    1  0.3065897E+000  0.1000000E+03  0.7546771E-02  0.1280296E+00
         21   -1    0    0  501  502  0.00000000000E+00  0.00000000000E+00  0.29120920048E+03  0.29120920048E+03  0.00000000000E+00 0.  1.
         21   -1    0    0  502  503 -0.00000000000E+00 -0.00000000000E+00 -0.11076870737E+03  0.11076870737E+03  0.00000000000E+00 0. -1.
          6    1    1    2  501    0  0.27836201476E+02 -0.38525443353E+02  0.99502730383E+02  0.20515569027E+03  0.17300000000E+03 0.  1.
         -6    1    1    2    0  503 -0.27836201476E+02  0.38525443353E+02  0.80937762719E+02  0.19682221758E+03  0.17300000000E+03 0. -1.
</event>
<event>
 4    1  0.3065897E+000  0.1000000E+03  0.7546771E-02  0.1280296E+00
         21   -1    0    0  501  502  0.00000000000E+00  0.00000000000E+00  0.57376663162E+02  0.57376663162E+02  0.00000000000E+00 0.  1.
         21   -1    0    0  502  503 -0.00000000000E+00 -0.00000000000E+00 -0.64265487461E+03  0.64265487461E+03  0.00000000000E+00 0.  1.
          6    1    1    2  501    0  0.36748913903E+02 -0.26173953856E+02 -0.16493048186E+03  0.24324190095E+03  0.17300000000E+03 0.  1.
         -6    1    1    2    0  503 -0.36748913903E+02  0.26173953856E+02 -0.42034772959E+03  0.45678963682E+03  0.17300000000E+03 0.  1.
</event>
<event>
 4    1  0.3065897E+000  0.1000000E+03  0.7546771E-02  0.1280296E+00
         21   -1    0    0  503  502  0.00000000000E+00  0.00000000000E+00  0.94337466138E+03  0.94337466138E+03  0.00000000000E+00 0.  1.
         21   -1    0    0  501  503 -0.00000000000E+00 -0.00000000000E+00 -0.39323570312E+02  0.39323570312E+02  0.00000000000E+00 0. -1.
          6    1    1    2  501    0 -0.62208713272E+02  0.55221638286E+02  0.41181032381E+03  0.45435239202E+03  0.17300000000E+03 0. -1.
         -6    1    1    2    0  502  0.62208713272E+02 -0.55221638286E+02  0.49224076726E+03  0.52834583967E+03  0.17300000000E+03 0.  1.
</event>
<event>
 4    1  0.3065897E+000  0.1000000E+03  0.7546771E-02  0.1280296E+00
         21   -1    0    0  503  502  0.00000000000E+00  0.00000000000E+00  0.62195745136E+02  0.62195745136E+02  0.00000000000E+00 0.  1.
         21   -1    0    0  501  503 -0.00000000000E+00 -0.00000000000E+00 -0.10938047769E+04  0.10938047769E+04  0.00000000000E+00 0. -1.
          6    1    1    2  501    0  0.18866344452E+01 -0.14115806292E+03 -0.81453345815E+03  0.84458446147E+03  0.17300000000E+03 0. -1.
         -6    1    1    2    0  502 -0.18866344452E+01  0.14115806292E+03 -0.21707557362E+03  0.31141606057E+03  0.17300000000E+03 0.  1.
</event>
<event>
 4    1  0.3065897E+000  0.1000000E+03  0.7546771E-02  0.1280296E+00
         21   -1    0    0  503  502  0.00000000000E+00  0.00000000000E+00  0.93356965373E+02  0.93356965373E+02  0.00000000000E+00 0.  1.
         21   -1    0    0  501  503 -0.00000000000E+00 -0.00000000000E+00 -0.10902913786E+04  0.10902913786E+04  0.00000000000E+00 0. -1.
          6    1    1    2  501    0  0.11414863615E+03 -0.99783595528E+02 -0.90855038976E+03  0.93721901805E+03  0.17300000000E+03 0. -1.
         -6    1    1    2    0  502 -0.11414863615E+03  0.99783595528E+02 -0.88384023479E+02  0.24642932593E+03  0.17300000000E+03 0.  1.
</event>
<event>
 4    1  0.3065897E+000  0.1000000E+03  0.7546771E-02  0.1280296E+00
         21   -1    0    0  503  502  0.00000000000E+00  0.00000000000E+00  0.11272639017E+03  0.11272639017E+03  0.00000000000E+00 0. -1.
         21   -1    0    0  501  503 -0.00000000000E+00 -0.00000000000E+00 -0.94612306997E+03  0.94612306997E+03  0.00000000000E+00 0.  1.
          6    1    1    2  501    0  0.90074019184E+02  0.25562679164E+03 -0.50933920723E+03  0.60234028054E+03  0.17300000000E+03 0. -1.
         -6    1    1    2    0  502 -0.90074019184E+02 -0.25562679164E+03 -0.32405747258E+03  0.45650917961E+03  0.17300000000E+03 0.  1.
</event>
<event>
 4    1  0.3065897E+000  0.1000000E+03  0.7546771E-02  0.1280296E+00
         21   -1    0    0  503  502  0.00000000000E+00  0.00000000000E+00  0.13671323863E+03  0.13671323863E+03  0.00000000000E+00 0. -1.
         21   -1    0    0  501  503 -0.00000000000E+00 -0.00000000000E+00 -0.28066672655E+03  0.28066672655E+03  0.00000000000E+00 0.  1.
          6    1    1    2  501    0  0.42138568828E+02  0.61549244752E+02 -0.14823900051E+02  0.18897808477E+03  0.17300000000E+03 0.  1.
         -6    1    1    2    0  502 -0.42138568828E+02 -0.61549244752E+02 -0.12912958787E+03  0.22840188041E+03  0.17300000000E+03 0. -1.
</event>
<event>
 4    1  0.3065897E+000  0.1000000E+03  0.7546771E-02  0.1280296E+00
         21   -1    0    0  503  502  0.00000000000E+00  0.00000000000E+00  0.80073422676E+02  0.80073422676E+02  0.00000000000E+00 0. -1.
         21   -1    0    0  501  503 -0.00000000000E+00 -0.00000000000E+00 -0.17672918771E+04  0.17672918771E+04  0.00000000000E+00 0.  1.
          6    1    1    2  501    0  0.13825013646E+03  0.95436897134E+02 -0.15525510808E+04  0.15711668148E+04  0.17300000000E+03 0.  1.
         -6    1    1    2    0  502 -0.13825013646E+03 -0.95436897134E+02 -0.13466737364E+03  0.27619848495E+03  0.17300000000E+03 0. -1.
</event>
<event>
 4    1  0.3065897E+000  0.1000000E+03  0.7546771E-02  0.1280296E+00
         21   -1    0    0  503  502  0.00000000000E+00  0.00000000000E+00  0.44327429749E+03  0.44327429749E+03  0.00000000000E+00 0.  1.
         21   -1    0    0  501  503 -0.00000000000E+00 -0.00000000000E+00 -0.37730336209E+03  0.37730336209E+03  0.00000000000E+00 0.  1.
          6    1    1    2  501    0  0.13812950318E+03  0.15910946812E+03 -0.27283935347E+03  0.38570182174E+03  0.17300000000E+03 0.  1.
         -6    1    1    2    0  502 -0.13812950318E+03 -0.15910946812E+03  0.33881028887E+03  0.43487583784E+03  0.17300000000E+03 0.  1.
</event>
<event>
 4    1  0.3065897E+000  0.1000000E+03  0.7546771E-02  0.1280296E+00
         21   -1    0    0  503  502  0.00000000000E+00  0.00000000000E+00  0.99098755443E+03  0.99098755443E+03  0.00000000000E+00 0.  1.
         21   -1    0    0  501  503 -0.00000000000E+00 -0.00000000000E+00 -0.15949197129E+03  0.15949197129E+03  0.00000000000E+00 0.  1.
          6    1    1    2  501    0 -0.32932654883E+03 -0.93690264357E+02  0.26474201422E+03  0.46610210844E+03  0.17300000000E+03 0.  1.
         -6    1    1    2    0  502  0.32932654883E+03  0.93690264357E+02  0.56675356892E+03  0.68437741728E+03  0.17300000000E+03 0.  1.
</event>
<event>
 4    1  0.3065897E+000  0.1000000E+03  0.7546771E-02  0.1280296E+00
         21   -1    0    0  503  502  0.00000000000E+00  0.00000000000E+00  0.13050505491E+03  0.13050505491E+03  0.00000000000E+00 0.  1.
         21   -1    0    0  501  503 -0.00000000000E+00 -0.00000000000E+00 -0.47366148321E+03  0.47366148321E+03  0.00000000000E+00 0.  1.
          6    1    1    2  501    0 -0.93531660263E+02 -0.14806276782E+03 -0.21393762155E+03  0.32614269975E+03  0.17300000000E+03 0.  1.
         -6    1    1    2    0  502  0.93531660263E+02  0.14806276782E+03 -0.12921880675E+03  0.27802383837E+03  0.17300000000E+03 0.  1.
</event>
<event>
 4    1  0.3065897E+000  0.1000000E+03  0.7546771E-02  0.1280296E+00
         21   -1    0    0  503  502  0.00000000000E+00  0.00000000000E+00  0.33472711347E+03  0.33472711347E+03  0.00000000000E+00 0.  1.
         21   -1    0    0  501  503 -0.00000000000E+00 -0.00000000000E+00 -0.12952710486E+03  0.12952710486E+03  0.00000000000E+00 0.  1.
          6    1    1    2  501    0  0.10954840869E+03 -0.35400426580E+02  0.11727105907E+03  0.23861170412E+03  0.17300000000E+03 0.  1.
         -6    1    1    2    0  502 -0.10954840869E+03  0.35400426580E+02  0.87928949545E+02  0.22564251420E+03  0.17300000000E+03 0.  1.
</event>
<event>
 4    1  0.3065897E+000  0.1000000E+03  0.7546771E-02  0.1280296E+00
         21   -1    0    0  501  502  0.00000000000E+00  0.00000000000E+00  0.71735552717E+03  0.71735552717E+03  0.00000000000E+00 0. -1.
         21   -1    0    0  502  503 -0.00000000000E+00 -0.00000000000E+00 -0.10688993842E+03  0.10688993842E+03  0.00000000000E+00 0.  1.
          6    1    1    2  501    0  0.14266884457E+03  0.74819558088E+02  0.51986178495E+03  0.57108461802E+03  0.17300000000E+03 0. -1.
         -6    1    1    2    0  503 -0.14266884457E+03 -0.74819558088E+02  0.90603803796E+02  0.25316084758E+03  0.17300000000E+03 0.  1.
</event>
<event>
 4    1  0.3065897E+000  0.1000000E+03  0.7546771E-02  0.1280296E+00
         21   -1    0    0  501  502  0.00000000000E+00  0.00000000000E+00  0.89828085483E+02  0.89828085483E+02  0.00000000000E+00 0.  1.
         21   -1    0    0  502  503 -0.00000000000E+00 -0.00000000000E+00 -0.40740454067E+03  0.40740454067E+03  0.00000000000E+00 0. -1.
          6    1    1    2  501    0  0.62552126508E+02 -0.48494789301E+02 -0.13270352084E+03  0.23195632684E+03  0.17300000000E+03 0.  1.
         -6    1    1    2    0  503 -0.62552126508E+02  0.48494789301E+02 -0.18487293435E+03  0.26527629931E+03  0.17300000000E+03 0. -1.
</event>
<event>
 4    1  0.3065897E+000  0.1000000E+03  0.7546771E-02  0.1280296E+00
         21   -1    0    0  501  502  0.00000000000E+00  0.00000000000E+00  0.69649334351E+03  0.69649334351E+03  0.00000000000E+00 0. -1.
         21   -1    0    0  502  503 -0.00000000000E+00 -0.00000000000E+00 -0.64600845184E+02  0.64600845184E+02  0.00000000000E+00 0. -1.
          6    1    1    2  501    0 -0.45273727908E+02  0.11400747561E+03  0.30841050871E+03  0.37429060477E+03  0.17300000000E+03 0. -1.
         -6    1    1    2    0  503  0.45273727908E+02 -0.11400747561E+03  0.32348198961E+03  0.38680358392E+03  0.17300000000E+03 0. -1.
</event>
<event>
 4    1  0.3065897E+000  0.1000000E+03  0.7546771E-02  0.1280296E+00
         21   -1    0    0  501  502  0.00000000000E+00  0.00000000000E+00  0.52642184807E+02  0.52642184807E+02  0.00000000000E+00 0. -1.
         21   -1    0    0  502  503 -0.00000000000E+00 -0.00000000000E+00 -0.16506276431E+04  0.16506276431E+04  0.00000000000E+00 0. -1.
          6    1    1    2  501    0 -0.36485497870E+02 -0.21443732514E+02 -0.12037726393E+03  0.21496676694E+03  0.17300000000E+03 0. -1.
         -6    1    1    2    0  503  0.36485497870E+02  0.21443732514E+02 -0.14776081943E+04  0.14883030609E+04  0.17300000000E+03 0. -1.
</event>
<event>
 4    1  0.3065897E+000  0.1000000E+03  0.7546771E-02  0.1280296E+00
         21   -1    0    0  503  502  0.00000000000E+00  0.00000000000E+00  0.22761917512E+04  0.22761917512E+04  0.00000000000E+00 0.  1.
         21   -1    0    0  501  503 -0.00000000000E+00 -0.00000000000E+00 -0.29952353275E+02  0.29952353275E+02  0.00000000000E+00 0.  1.
          6    1    1    2  501    0  0.93834800326E+02  0.12432906634E+03  0.60087107854E+03  0.64438943156E+03  0.17300000000E+03 0.  1.
         -6    1    1    2    0  502 -0.93834800326E+02 -0.12432906634E+03  0.16453683194E+04  0.16617546729E+04  0.17300000000E+03 0.  1.
</event>
<event>
 4    1  0.3065897E+000  0.1000000E+03  0.7546771E-02  0.1280296E+00
         21   -1    0    0  501  502  0.00000000000E+00  0.00000000000E+00  0.11088309351E+03  0.11088309351E+03  0.00000000000E+00 0. -1.
         21   -1    0    0  502  503 -0.00000000000E+00 -0.00000000000E+00 -0.44206896726E+03  0.44206896726E+03  0.00000000000E+00 0. -1.
          6    1    1    2  501    0  0.33375665854E+02 -0.22548542761E+02 -0.55490882095E+00  0.17762792510E+03  0.17300000000E+03 0. -1.
         -6    1    1    2    0  503 -0.33375665854E+02  0.22548542761E+02 -0.33063096492E+03  0.37532413567E+03  0.17300000000E+03 0. -1.
</event>
<event>
 4    1  0.3065897E+000  0.1000000E+03  0.7546771E-02  0.1280296E+00
         21   -1    0    0  501  502  0.00000000000E+00  0.00000000000E+00  0.29933437269E+03  0.29933437269E+03  0.00000000000E+00 0.  1.
         21   -1    0    0  502  503 -0.00000000000E+00 -0.00000000000E+00 -0.14986115511E+03  0.14986115511E+03  0.00000000000E+00 0. -1.
          6    1    1    2  501    0  0.90597011692E+02 -0.81375990494E+02  0.85326305607E+02  0.22812156580E+03  0.17300000000E+03 0.  1.
         -6    1    1    2    0  503 -0.90597011692E+02  0.81375990494E+02  0.64146911981E+02  0.22107396200E+03  0.17300000000E+03 0. -1.
</event>
<event>
 4    1  0.3065897E+000  0.1000000E+03  0.7546771E-02  0.1280296E+00
         21   -1    0    0  501  502  0.00000000000E+00  0.00000000000E+00  0.11136944435E+03  0.11136944435E+03  0.00000000000E+00 0.  1.
         21   -1    0    0  502  503 -0.00000000000E+00 -0.00000000000E+00 -0.46933242984E+03  0.46933242984E+03  0.00000000000E+00 0. -1.
          6    1    1    2  501    0 -0.39947040208E+02 -0.73227752286E+01  0.36979358753E+01  0.17774156460E+03  0.17300000000E+03 0.  1.
         -6    1    1    2    0  503  0.39947040208E+02  0.73227752286E+01 -0.36166092136E+03  0.40296030958E+03  0.17300000000E+03 0. -1.
</event>
<event>
 4    1  0.3065897E+000  0.1000000E+03  0.7546771E-02  0.1280296E+00
         21   -1    0    0  501  502  0.00000000000E+00  0.00000000000E+00  0.97798696446E+03  0.97798696446E+03  0.00000000000E+00 0.  1.
         21   -1    0    0  502  503 -0.00000000000E+00 -0.00000000000E+00 -0.92511595678E+02  0.92511595678E+02  0.00000000000E+00 0. -1.
          6    1    1    2  501    0 -0.76100881155E+02  0.66069302385E+02  0.84218737688E+03  0.86565875182E+03  0.17300000000E+03 0.  1.
         -6    1    1    2    0  503  0.76100881155E+02 -0.66069302385E+02  0.43287991910E+02  0.20483980832E+03  0.17300000000E+03 0. -1.
</event>
<event>
 4    1  0.3065897E+000  0.1000000E+03  0.7546771E-02  0.1280296E+00
         21   -1    0    0  501  502  0.00000000000E+00  0.00000000000E+00  0.23672644779E+03  0.23672644779E+03  0.00000000000E+00 0. -1.
         21   -1    0    0  502  503 -0.00000000000E+00 -0.00000000000E+00 -0.22244440927E+03  0.22244440927E+03  0.00000000000E+00 0. -1.
          6    1    1    2  501    0  0.45125085261E+02 -0.84574125672E+02  0.12356065354E+03  0.23320654184E+03  0.17300000000E+03 0. -1.
         -6    1    1    2    0  503 -0.45125085261E+02  0.84574125672E+02 -0.10927861502E+03  0.22596431522E+03  0.17300000000E+03 0. -1.
</event>
<event>
 4    1  0.3065897E+000  0.1000000E+03  0.7546771E-02  0.1280296E+00
         21   -1    0    0  501  502  0.00000000000E+00  0.00000000000E+00  0.10078503655E+04  0.10078503655E+04  0.00000000000E+00 0.  1.
         21   -1    0    0  502  503 -0.00000000000E+00 -0.00000000000E+00 -0.71204392806E+02  0.71204392806E+02  0.00000000000E+00 0. -1.
          6    1    1    2  501    0 -0.62943862847E+02  0.59582495581E+02  0.84144485025E+03  0.86340630046E+03  0.17300000000E+03 0.  1.
         -6    1    1    2    0  503  0.62943862847E+02 -0.59582495581E+02  0.95201122401E+02  0.21564845781E+03  0.17300000000E+03 0. -1.
</event>
<event>
 4    1  0.3065897E+000  0.1000000E+03  0.7546771E-02  0.1280296E+00
         21   -1    0    0  501  502  0.00000000000E+00  0.00000000000E+00  0.58814285518E+03  0.58814285518E+03  0.00000000000E+00 0. -1.
         21   -1    0    0  502  503 -0.00000000000E+00 -0.00000000000E+00 -0.11224434426E+03  0.11224434426E+03  0.00000000000E+00 0. -1.
          6    1    1    2  501    0  0.12325913602E+03  0.13701658010E+03  0.30071005474E+03  0.39283825534E+03  0.17300000000E+03 0. -1.
         -6    1    1    2    0  503 -0.12325913602E+03 -0.13701658010E+03  0.17518845617E+03  0.30754894409E+03  0.17300000000E+03 0. -1.
</event>
<event>
 4    1  0.3065897E+000  0.1000000E+03  0.7546771E-02  0.1280296E+00
         21   -1    0    0  501  502  0.00000000000E+00  0.00000000000E+00  0.10382917967E+04  0.10382917967E+04  0.00000000000E+00 0.  1.
         21   -1    0    0  502  503 -0.00000000000E+00 -0.00000000000E+00 -0.31066213753E+02  0.31066213753E+02  0.00000000000E+00 0. -1.
          6    1    1    2  501    0 -0.43454739933E+02  0.18807869423E+02  0.47620682842E+03  0.50886539852E+03  0.17300000000E+03 0.  1.
         -6    1    1    2    0  503  0.43454739933E+02 -0.18807869423E+02  0.53101875452E+03  0.56049261193E+03  0.17300000000E+03 0. -1.
</event>
<event>
 4    1  0.3065897E+000  0.1000000E+03  0.7546771E-02  0.1280296E+00
         21   -1    0    0  501  502  0.00000000000E+00  0.00000000000E+00  0.13251140112E+03  0.13251140112E+03  0.00000000000E+00 0.  1.
         21   -1    0    0  502  503 -0.00000000000E+00 -0.00000000000E+00 -0.33457816238E+03  0.33457816238E+03  0.00000000000E+00 0. -1.
          6    1    1    2  501    0  0.28355646911E+02  0.11594689073E+03 -0.11500603680E+03  0.23958946697E+03  0.17300000000E+03 0.  1.
         -6    1    1    2    0  503 -0.28355646911E+02 -0.11594689073E+03 -0.87060724457E+02  0.22750009654E+03  0.17300000000E+03 0. -1.
</event>
<event>
 4    1  0.3065897E+000  0.1000000E+03  0.7546771E-02  0.1280296E+00
         21   -1    0    0  503  502  0.00000000000E+00  0.00000000000E+00  0.87260112481E+03  0.87260112481E+03  0.00000000000E+00 0.  1.
         21   -1    0    0  501  503 -0.00000000000E+00 -0.00000000000E+00 -0.43685500855E+03  0.43685500855E+03  0.00000000000E+00 0. -1.
          6    1    1    2  501    0  0.17184378176E+03 -0.17396988459E+03 -0.35463992872E+03  0.46421362013E+03  0.17300000000E+03 0. -1.
         -6    1    1    2    0  502 -0.17184378176E+03  0.17396988459E+03  0.79038604498E+03  0.84524251323E+03  0.17300000000E+03 0.  1.
</event>
<event>
 4    1  0.3065897E+000  0.1000000E+03  0.7546771E-02  0.1280296E+00
         21   -1    0    0  503  502  0.00000000000E+00  0.00000000000E+00  0.18147605542E+03  0.18147605542E+03  0.00000000000E+00 0. -1.
         21   -1    0    0  501  503 -0.00000000000E+00 -0.00000000000E+00 -0.36863242603E+03  0.36863242603E+03  0.00000000000E+00 0. -1.
          6    1    1    2  501    0 -0.17765898804E+03  0.20213900884E+02 -0.16875681922E+03  0.30063130551E+03  0.17300000000E+03 0. -1.
         -6    1    1    2    0  502  0.17765898804E+03 -0.20213900884E+02 -0.18399551379E+02  0.24947717593E+03  0.17300000000E+03 0. -1.
</event>
<event>
 4    1  0.3065897E+000  0.1000000E+03  0.7546771E-02  0.1280296E+00
         21   -1    0    0  501  502  0.00000000000E+00  0.00000000000E+00  0.63798859348E+03  0.63798859348E+03  0.00000000000E+00 0.  1.
         21   -1    0    0  502  503 -0.00000000000E+00 -0.00000000000E+00 -0.12543489097E+03  0.12543489097E+03  0.00000000000E+00 0.  1.
          6    1    1    2  501    0  0.12220932013E+03  0.78113275758E+02  0.48629886033E+03  0.53614586013E+03  0.17300000000E+03 0.  1.
         -6    1    1    2    0  503 -0.12220932013E+03 -0.78113275758E+02  0.26254842180E+02  0.22727762431E+03  0.17300000000E+03 0.  1.
</event>
<event>
 4    1  0.3065897E+000  0.1000000E+03  0.7546771E-02  0.1280296E+00
         21   -1    0    0  503  502  0.00000000000E+00  0.00000000000E+00  0.28432728784E+03  0.28432728784E+03  0.00000000000E+00 0. -1.
         21   -1    0    0  501  503 -0.00000000000E+00 -0.00000000000E+00 -0.16425691900E+03  0.16425691900E+03  0.00000000000E+00 0. -1.
          6    1    1    2  501    0  0.99398537734E+00 -0.11509543797E+03  0.12166207591E+03  0.24078747593E+03  0.17300000000E+03 0. -1.
         -6    1    1    2    0  502 -0.99398537734E+00  0.11509543797E+03 -0.15917070596E+01  0.20779673092E+03  0.17300000000E+03 0. -1.
</event>
<event>
 4    1  0.3065897E+000  0.1000000E+03  0.7546771E-02  0.1280296E+00
         21   -1    0    0  503  502  0.00000000000E+00  0.00000000000E+00  0.13477489422E+03  0.13477489422E+03  0.00000000000E+00 0. -1.
         21   -1    0    0  501  503 -0.00000000000E+00 -0.00000000000E+00 -0.61942488961E+03  0.61942488961E+03  0.00000000000E+00 0. -1.
          6    1    1    2  501    0 -0.15909769073E+02 -0.12035143967E+01 -0.54363847529E+03  0.57072441775E+03  0.17300000000E+03 0. -1.
         -6    1    1    2    0  502  0.15909769073E+02  0.12035143967E+01  0.58988479905E+02  0.18347536609E+03  0.17300000000E+03 0. -1.
</event>
<event>
 4    1  0.3065897E+000  0.1000000E+03  0.7546771E-02  0.1280296E+00
         21   -1    0    0  503  502  0.00000000000E+00  0.00000000000E+00  0.23152512766E+02  0.23152512766E+02  0.00000000000E+00 0. -1.
         21   -1    0    0  501  503 -0.00000000000E+00 -0.00000000000E+00 -0.14907879425E+04  0.14907879425E+04  0.00000000000E+00 0. -1.
          6    1    1    2  501    0 -0.85749825246E+00 -0.48193014385E+02 -0.92765254500E+03  0.94487647139E+03  0.17300000000E+03 0. -1.
         -6    1    1    2    0  502  0.85749825246E+00  0.48193014385E+02 -0.53998288469E+03  0.56906398384E+03  0.17300000000E+03 0. -1.
</event>
<event>
 4    1  0.3065897E+000  0.1000000E+03  0.7546771E-02  0.1280296E+00
         21   -1    0    0  503  502  0.00000000000E+00  0.00000000000E+00  0.32067261130E+02  0.32067261130E+02  0.00000000000E+00 0.  1.
         21   -1    0    0  501  503 -0.00000000000E+00 -0.00000000000E+00 -0.12483201783E+04  0.12483201783E+04  0.00000000000E+00 0.  1.
          6    1    1    2  501    0  0.68499319981E+02 -0.41984294558E+02 -0.80134461092E+03  0.82373358757E+03  0.17300000000E+03 0.  1.
         -6    1    1    2    0  502 -0.68499319981E+02  0.41984294558E+02 -0.41490830622E+03  0.45665385184E+03  0.17300000000E+03 0.  1.
</event>
<event>
 4    1  0.3065897E+000  0.1000000E+03  0.7546771E-02  0.1280296E+00
         21   -1    0    0  503  502  0.00000000000E+00  0.00000000000E+00  0.11902132016E+04  0.11902132016E+04  0.00000000000E+00 0.  1.
         21   -1    0    0  501  503 -0.00000000000E+00 -0.00000000000E+00 -0.64328253442E+02  0.64328253442E+02  0.00000000000E+00 0.  1.
          6    1    1    2  501    0 -0.15993743487E+03  0.14485142712E+03  0.54351834826E+03  0.60983859660E+03  0.17300000000E+03 0.  1.
         -6    1    1    2    0  502  0.15993743487E+03 -0.14485142712E+03  0.58236659993E+03  0.64470285848E+03  0.17300000000E+03 0.  1.
</event>
<event>
 4    1  0.3065897E+000  0.1000000E+03  0.7546771E-02  0.1280296E+00
         21   -1    0    0  501  502  0.00000000000E+00  0.00000000000E+00  0.26420910889E+02  0.26420910889E+02  0.00000000000E+00 0. -1.
         21   -1    0    0  502  503 -0.00000000000E+00 -0.00000000000E+00 -0.18332225017E+04  0.18332225017E+04  0.00000000000E+00 0. -1.
          6    1    1    2  501    0  0.18556077547E+02  0.42437835460E+02 -0.36298929075E+03  0.40476601030E+03  0.17300000000E+03 0. -1.
         -6    1    1    2    0  503 -0.18556077547E+02 -0.42437835460E+02 -0.14438123000E+04  0.14548774023E+04  0.17300000000E+03 0. -1.
</event>
<event>
 4    1  0.3065897E+000  0.1000000E+03  0.7546771E-02  0.1280296E+00
         21   -1    0    0  503  502  0.00000000000E+00  0.00000000000E+00  0.25765206349E+03  0.25765206349E+03  0.00000000000E+00 0.  1.
         21   -1    0    0  501  503 -0.00000000000E+00 -0.00000000000E+00 -0.48341183847E+03  0.48341183847E+03  0.00000000000E+00 0. -1.
          6    1    1    2  501    0 -0.25018030237E+03  0.12165323291E+03 -0.25070718860E+03  0.41252004459E+03  0.17300000000E+03 0. -1.
         -6    1    1    2    0  502  0.25018030237E+03 -0.12165323291E+03  0.24947413623E+02  0.32854385738E+03  0.17300000000E+03 0.  1.
</event>
<event>
 4    1  0.3065897E+000  0.1000000E+03  0.7546771E-02  0.1280296E+00
         21   -1    0    0  501  502  0.00000000000E+00  0.00000000000E+00  0.13234488785E+03  0.13234488785E+03  0.00000000000E+00 0.  1.
         21   -1    0    0  502  503 -0.00000000000E+00 -0.00000000000E+00 -0.44643576653E+03  0.44643576653E+03  0.00000000000E+00 0. -1.
          6    1    1    2  501    0  0.41301082842E+02  0.16436419066E+03 -0.18182293915E+03  0.30283650344E+03  0.17300000000E+03 0. -1.
         -6    1    1    2    0  503 -0.41301082842E+02 -0.16436419066E+03 -0.13226793953E+03  0.27594415095E+03  0.17300000000E+03 0.  1.
</event>
<event>
 4    1  0.3065897E+000  0.1000000E+03  0.7546771E-02  0.1280296E+00
         21   -1    0    0  503  502  0.00000000000E+00  0.00000000000E+00  0.38017188335E+03  0.38017188335E+03  0.00000000000E+00 0. -1.
         21   -1    0    0  501  503 -0.00000000000E+00 -0.00000000000E+00 -0.19863544823E+03  0.19863544823E+03  0.00000000000E+00 0.  1.
          6    1    1    2  501    0 -0.19851821296E+03 -0.25076380687E+02  0.12323106210E+02  0.26480023544E+03  0.17300000000E+03 0.  1.
         -6    1    1    2    0  502  0.19851821296E+03  0.25076380687E+02  0.16921332891E+03  0.31400709614E+03  0.17300000000E+03 0. -1.
</event>
<event>
 4    1  0.3065897E+000  0.1000000E+03  0.7546771E-02  0.1280296E+00
         21   -1    0    0  503  502  0.00000000000E+00  0.00000000000E+00  0.67053553225E+03  0.67053553225E+03  0.00000000000E+00 0. -1.
         21   -1    0    0  501  503 -0.00000000000E+00 -0.00000000000E+00 -0.14317491221E+03  0.14317491221E+03  0.00000000000E+00 0.  1.
          6    1    1    2  501    0  0.15221436969E+03 -0.52299255644E+02  0.50276864009E+00  0.23629151330E+03  0.17300000000E+03 0.  1.
         -6    1    1    2    0  502 -0.15221436969E+03  0.52299255644E+02  0.52685785141E+03  0.57741893116E+03  0.17300000000E+03 0. -1.
</event>
<event>
 4    1  0.3065897E+000  0.1000000E+03  0.7546771E-02  0.1280296E+00
         21   -1    0    0  503  502  0.00000000000E+00  0.00000000000E+00  0.24186561465E+03  0.24186561465E+03  0.00000000000E+00 0. -1.
         21   -1    0    0  501  503 -0.00000000000E+00 -0.00000000000E+00 -0.65436413007E+03  0.65436413007E+03  0.00000000000E+00 0. -1.
          6    1    1    2  501    0  0.12016165931E+03 -0.91818083227E+02 -0.57206012817E+03  0.61648290732E+03  0.17300000000E+03 0. -1.
         -6    1    1    2    0  502 -0.12016165931E+03  0.91818083227E+02  0.15956161274E+03  0.27974683740E+03  0.17300000000E+03 0. -1.
</event>
<event>
 4    1  0.3065897E+000  0.1000000E+03  0.7546771E-02  0.1280296E+00
         21   -1    0    0  503  502  0.00000000000E+00  0.00000000000E+00  0.10586322234E+04  0.10586322234E+04  0.00000000000E+00 0. -1.
         21   -1    0    0  501  503 -0.00000000000E+00 -0.00000000000E+00 -0.36603345513E+02  0.36603345513E+02  0.00000000000E+00 0. -1.
          6    1    1    2  501    0  0.86260184774E+02  0.32178624357E+02  0.45940268924E+03  0.49945581809E+03  0.17300000000E+03 0. -1.
         -6    1    1    2    0  502 -0.86260184774E+02 -0.32178624357E+02  0.56262618867E+03  0.59577975085E+03  0.17300000000E+03 0. -1.
</event>
<event>
 4    1  0.3065897E+000  0.1000000E+03  0.7546771E-02  0.1280296E+00
         21   -1    0    0  501  502  0.00000000000E+00  0.00000000000E+00  0.87171524437E+03  0.87171524437E+03  0.00000000000E+00 0. -1.
         21   -1    0    0  502  503 -0.00000000000E+00 -0.00000000000E+00 -0.16744414169E+03  0.16744414169E+03  0.00000000000E+00 0. -1.
          6    1    1    2  501    0 -0.14207465288E+03  0.46396316463E+02  0.76842194486E+03  0.80171011626E+03  0.17300000000E+03 0. -1.
         -6    1    1    2    0  503  0.14207465288E+03 -0.46396316463E+02 -0.64150842183E+02  0.23744926980E+03  0.17300000000E+03 0. -1.
</event>
<event>
 4    1  0.3065897E+000  0.1000000E+03  0.7546771E-02  0.1280296E+00
         21   -1    0    0  501  502  0.00000000000E+00  0.00000000000E+00  0.88898914194E+02  0.88898914194E+02  0.00000000000E+00 0. -1.
         21   -1    0    0  502  503 -0.00000000000E+00 -0.00000000000E+00 -0.51422953766E+03  0.51422953766E+03  0.00000000000E+00 0. -1.
          6    1    1    2  501    0  0.48944098063E+02  0.81058148097E+02 -0.96191220223E+02  0.21942583931E+03  0.17300000000E+03 0. -1.
         -6    1    1    2    0  503 -0.48944098063E+02 -0.81058148097E+02 -0.32913940324E+03  0.38370261254E+03  0.17300000000E+03 0. -1.
</event>
<event>
 4    1  0.3065897E+000  0.1000000E+03  0.7546771E-02  0.1280296E+00
         21   -1    0    0  501  502  0.00000000000E+00  0.00000000000E+00  0.76557758091E+03  0.76557758091E+03  0.00000000000E+00 0. -1.
         21   -1    0    0  502  503 -0.00000000000E+00 -0.00000000000E+00 -0.76648163139E+02  0.76648163139E+02  0.00000000000E+00 0. -1.
          6    1    1    2  501    0  0.67127668488E+01  0.72912127865E+02  0.61033327545E+03  0.63858981103E+03  0.17300000000E+03 0. -1.
         -6    1    1    2    0  503 -0.67127668488E+01 -0.72912127865E+02  0.78596142320E+02  0.20363593302E+03  0.17300000000E+03 0. -1.
</event>
<event>
 4    1  0.3065897E+000  0.1000000E+03  0.7546771E-02  0.1280296E+00
         21   -1    0    0  503  502  0.00000000000E+00  0.00000000000E+00  0.11498301120E+03  0.11498301120E+03  0.00000000000E+00 0.  1.
         21   -1    0    0  501  503 -0.00000000000E+00 -0.00000000000E+00 -0.74023661462E+03  0.74023661462E+03  0.00000000000E+00 0. -1.
          6    1    1    2  501    0 -0.14107474384E+03  0.17281352894E+02 -0.58677531874E+03  0.62804060632E+03  0.17300000000E+03 0. -1.
         -6    1    1    2    0  502  0.14107474384E+03 -0.17281352894E+02 -0.38478284684E+02  0.22717901950E+03  0.17300000000E+03 0. -1.
</event>
<event>
 4    1  0.3065897E+000  0.1000000E+03  0.7546771E-02  0.1280296E+00
         21   -1    0    0  501  502  0.00000000000E+00  0.00000000000E+00  0.70137206876E+03  0.70137206876E+03  0.00000000000E+00 0. -1.
         21   -1    0    0  502  503 -0.00000000000E+00 -0.00000000000E+00 -0.49525729117E+02  0.49525729117E+02  0.00000000000E+00 0. -1.
          6    1    1    2  501    0 -0.94356537823E+01 -0.18611448431E+02  0.45911533069E+03  0.49107158790E+03  0.17300000000E+03 0. -1.
         -6    1    1    2    0  503  0.94356537823E+01  0.18611448431E+02  0.19273100895E+03  0.25982620997E+03  0.17300000000E+03 0. -1.
</event>
<event>
 4    1  0.3065897E+000  0.1000000E+03  0.7546771E-02  0.1280296E+00
         21   -1    0    0  501  502  0.00000000000E+00  0.00000000000E+00  0.65530934393E+03  0.65530934393E+03  0.00000000000E+00 0. -1.
         21   -1    0    0  502  503 -0.00000000000E+00 -0.00000000000E+00 -0.73914972538E+02  0.73914972538E+02  0.00000000000E+00 0. -1.
          6    1    1    2  501    0 -0.11386860887E+03  0.69164441481E+02  0.33632069199E+03  0.40098676775E+03  0.17300000000E+03 0. -1.
         -6    1    1    2    0  503  0.11386860887E+03 -0.69164441481E+02  0.24507367940E+03  0.32823754871E+03  0.17300000000E+03 0. -1.
</event>
<event>
 4    1  0.3065897E+000  0.1000000E+03  0.7546771E-02  0.1280296E+00
         21   -1    0    0  503  502  0.00000000000E+00  0.00000000000E+00  0.16470751821E+04  0.16470751821E+04  0.00000000000E+00 0.  1.
         21   -1    0    0  501  503 -0.00000000000E+00 -0.00000000000E+00 -0.71143110002E+02  0.71143110002E+02  0.00000000000E+00 0.  1.
          6    1    1    2  501    0 -0.18938478676E+03  0.36025351310E+02  0.22630094574E+03  0.34395572598E+03  0.17300000000E+03 0.  1.
         -6    1    1    2    0  502  0.18938478676E+03 -0.36025351310E+02  0.13496311263E+04  0.13742625661E+04  0.17300000000E+03 0.  1.
</event>
<event>
 4    1  0.3065897E+000  0.1000000E+03  0.7546771E-02  0.1280296E+00
         21   -1    0    0  503  502  0.00000000000E+00  0.00000000000E+00  0.17644794847E+03  0.17644794847E+03  0.00000000000E+00 0.  1.
         21   -1    0    0  501  503 -0.00000000000E+00 -0.00000000000E+00 -0.88928197173E+03  0.88928197173E+03  0.00000000000E+00 0.  1.
          6    1    1    2  501    0 -0.34565761153E+03  0.82170719280E+02 -0.31953360450E+03  0.50819478148E+03  0.17300000000E+03 0.  1.
         -6    1    1    2    0  502  0.34565761153E+03 -0.82170719280E+02 -0.39330041875E+03  0.55753513872E+03  0.17300000000E+03 0.  1.
</event>
<event>
 4    1  0.3065897E+000  0.1000000E+03  0.7546771E-02  0.1280296E+00
         21   -1    0    0  503  502  0.00000000000E+00  0.00000000000E+00  0.67729794081E+03  0.67729794081E+03  0.00000000000E+00 0.  1.
         21   -1    0    0  501  503 -0.00000000000E+00 -0.00000000000E+00 -0.41220060001E+03  0.41220060001E+03  0.00000000000E+00 0.  1.
          6    1    1    2  501    0 -0.11678593088E+02  0.17533930505E+00 -0.38203301427E+03  0.41954099236E+03  0.17300000000E+03 0.  1.
         -6    1    1    2    0  502  0.11678593088E+02 -0.17533930505E+00  0.64713035507E+03  0.66995754845E+03  0.17300000000E+03 0.  1.
</event>
<event>
 4    1  0.3065897E+000  0.1000000E+03  0.7546771E-02  0.1280296E+00
         21   -1    0    0  501  502  0.00000000000E+00  0.00000000000E+00  0.11888085715E+03  0.11888085715E+03  0.00000000000E+00 0.  1.
         21   -1    0    0  502  503 -0.00000000000E+00 -0.00000000000E+00 -0.23683065078E+04  0.23683065078E+04  0.00000000000E+00 0.  1.
          6    1    1    2  501    0  0.23147790600E+03 -0.52938232737E+01 -0.81809268945E+02  0.30038608825E+03  0.17300000000E+03 0.  1.
         -6    1    1    2    0  503 -0.23147790600E+03  0.52938232737E+01 -0.21676163817E+04  0.21868012766E+04  0.17300000000E+03 0.  1.
</event>
<event>
 4    1  0.3065897E+000  0.1000000E+03  0.7546771E-02  0.1280296E+00
         21   -1    0    0  501  502  0.00000000000E+00  0.00000000000E+00  0.20387979529E+03  0.20387979529E+03  0.00000000000E+00 0.  1.
         21   -1    0    0  502  503 -0.00000000000E+00 -0.00000000000E+00 -0.54530814196E+03  0.54530814196E+03  0.00000000000E+00 0.  1.
          6    1    1    2  501    0 -0.15161434450E+03  0.23871959256E+03 -0.13060916657E+03  0.35631686421E+03  0.17300000000E+03 0.  1.
         -6    1    1    2    0  503  0.15161434450E+03 -0.23871959256E+03 -0.21081918010E+03  0.39287107304E+03  0.17300000000E+03 0.  1.
</event>
<event>
 4    1  0.3065897E+000  0.1000000E+03  0.7546771E-02  0.1280296E+00
         21   -1    0    0  501  502  0.00000000000E+00  0.00000000000E+00  0.10561868441E+04  0.10561868441E+04  0.00000000000E+00 0. -1.
         21   -1    0    0  502  503 -0.00000000000E+00 -0.00000000000E+00 -0.41819417115E+02  0.41819417115E+02  0.00000000000E+00 0.  1.
          6    1    1    2  501    0 -0.35056438654E+02 -0.77403112482E+02  0.28831604357E+03  0.34680734810E+03  0.17300000000E+03 0.  1.
         -6    1    1    2    0  503  0.35056438654E+02  0.77403112482E+02  0.72605138340E+03  0.75119891311E+03  0.17300000000E+03 0. -1.
</event>
<event>
 4    1  0.3065897E+000  0.1000000E+03  0.7546771E-02  0.1280296E+00
         21   -1    0    0  501  502  0.00000000000E+00  0.00000000000E+00  0.11795083494E+04  0.11795083494E+04  0.00000000000E+00 0. -1.
         21   -1    0    0  502  503 -0.00000000000E+00 -0.00000000000E+00 -0.42400038794E+02  0.42400038794E+02  0.00000000000E+00 0.  1.
          6    1    1    2  501    0 -0.26009443842E+02 -0.48134174062E+02  0.92568792915E+03  0.94330299059E+03  0.17300000000E+03 0.  1.
         -6    1    1    2    0  503  0.26009443842E+02  0.48134174062E+02  0.21142038147E+03  0.27860539762E+03  0.17300000000E+03 0. -1.
</event>
<event>
 4    1  0.3065897E+000  0.1000000E+03  0.7546771E-02  0.1280296E+00
         21   -1    0    0  501  502  0.00000000000E+00  0.00000000000E+00  0.12364833916E+04  0.12364833916E+04  0.00000000000E+00 0.  1.
         21   -1    0    0  502  503 -0.00000000000E+00 -0.00000000000E+00 -0.33583538768E+02  0.33583538768E+02  0.00000000000E+00 0. -1.
          6    1    1    2  501    0 -0.22304160602E+02 -0.34537143954E+02  0.91161489357E+03  0.92879545869E+03  0.17300000000E+03 0.  1.
         -6    1    1    2    0  503  0.22304160602E+02  0.34537143954E+02  0.29128495926E+03  0.34127147168E+03  0.17300000000E+03 0. -1.
</event>
<event>
 4    1  0.3065897E+000  0.1000000E+03  0.7546771E-02  0.1280296E+00
         21   -1    0    0  501  502  0.00000000000E+00  0.00000000000E+00  0.63455829376E+03  0.63455829376E+03  0.00000000000E+00 0.  1.
         21   -1    0    0  502  503 -0.00000000000E+00 -0.00000000000E+00 -0.11871794302E+03  0.11871794302E+03  0.00000000000E+00 0. -1.
          6    1    1    2  501    0 -0.13572321801E+03 -0.13916076361E+03  0.37769050731E+03  0.45865633033E+03  0.17300000000E+03 0.  1.
         -6    1    1    2    0  503  0.13572321801E+03  0.13916076361E+03  0.13814984343E+03  0.29461990645E+03  0.17300000000E+03 0. -1.
</event>
<event>
 4    1  0.3065897E+000  0.1000000E+03  0.7546771E-02  0.1280296E+00
         21   -1    0    0  503  502  0.00000000000E+00  0.00000000000E+00  0.64304875954E+02  0.64304875954E+02  0.00000000000E+00 0. -1.
         21   -1    0    0  501  503 -0.00000000000E+00 -0.00000000000E+00 -0.12986948211E+04  0.12986948211E+04  0.00000000000E+00 0.  1.
          6    1    1    2  501    0 -0.89504331182E+02 -0.16999538802E+02 -0.11190286113E+04  0.11359815327E+04  0.17300000000E+03 0. -1.
         -6    1    1    2    0  502  0.89504331182E+02  0.16999538802E+02 -0.11536133384E+03  0.22701816439E+03  0.17300000000E+03 0.  1.
</event>
<event>
 4    1  0.3065897E+000  0.1000000E+03  0.7546771E-02  0.1280296E+00
         21   -1    0    0  503  502  0.00000000000E+00  0.00000000000E+00  0.49203856503E+02  0.49203856503E+02  0.00000000000E+00 0. -1.
         21   -1    0    0  501  503 -0.00000000000E+00 -0.00000000000E+00 -0.87559519433E+03  0.87559519433E+03  0.00000000000E+00 0.  1.
          6    1    1    2  501    0 -0.34242626074E+02 -0.10018827528E+03 -0.51140406149E+03  0.55015757929E+03  0.17300000000E+03 0. -1.
         -6    1    1    2    0  502  0.34242626074E+02  0.10018827528E+03 -0.31498727634E+03  0.37464147154E+03  0.17300000000E+03 0.  1.
</event>
<event>
 4    1  0.3065897E+000  0.1000000E+03  0.7546771E-02  0.1280296E+00
         21   -1    0    0  503  502  0.00000000000E+00  0.00000000000E+00  0.10521964626E+03  0.10521964626E+03  0.00000000000E+00 0. -1.
         21   -1    0    0  501  503 -0.00000000000E+00 -0.00000000000E+00 -0.66386327912E+03  0.66386327912E+03  0.00000000000E+00 0.  1.
          6    1    1    2  501    0  0.51693457467E+01  0.63252073595E+02 -0.55498062895E+03  0.58477349928E+03  0.17300000000E+03 0. -1.
         -6    1    1    2    0  502 -0.51693457467E+01 -0.63252073595E+02 -0.36630039070E+01  0.18430942609E+03  0.17300000000E+03 0.  1.
</event>
<event>
 4    1  0.3065897E+000  0.1000000E+03  0.7546771E-02  0.1280296E+00
         21   -1    0    0  501  502  0.00000000000E+00  0.00000000000E+00  0.11243110553E+04  0.11243110553E+04  0.00000000000E+00 0.  1.
         21   -1    0    0  502  503 -0.00000000000E+00 -0.00000000000E+00 -0.18936205533E+03  0.18936205533E+03  0.00000000000E+00 0. -1.
          6    1    1    2  501    0 -0.92887588231E+02 -0.27181726308E+03  0.91866967755E+03  0.97795485836E+03  0.17300000000E+03 0.  1.
         -6    1    1    2    0  503  0.92887588231E+02  0.27181726308E+03  0.16279322408E+02  0.33571825225E+03  0.17300000000E+03 0. -1.
</event>
<event>
 4    1  0.3065897E+000  0.1000000E+03  0.7546771E-02  0.1280296E+00
         21   -1    0    0  501  502  0.00000000000E+00  0.00000000000E+00  0.10537977880E+03  0.10537977880E+03  0.00000000000E+00 0.  1.
         21   -1    0    0  502  503 -0.00000000000E+00 -0.00000000000E+00 -0.52017635427E+03  0.52017635427E+03  0.00000000000E+00 0. -1.
          6    1    1    2  501    0 -0.13119418747E+03 -0.87337948921E+02 -0.19821657913E+03  0.30668981787E+03  0.17300000000E+03 0.  1.
         -6    1    1    2    0  503  0.13119418747E+03  0.87337948921E+02 -0.21657999634E+03  0.31886631519E+03  0.17300000000E+03 0. -1.
</event>
<event>
 4    1  0.3065897E+000  0.1000000E+03  0.7546771E-02  0.1280296E+00
         21   -1    0    0  501  502  0.00000000000E+00  0.00000000000E+00  0.10852533857E+04  0.10852533857E+04  0.00000000000E+00 0.  1.
         21   -1    0    0  502  503 -0.00000000000E+00 -0.00000000000E+00 -0.37623977644E+02  0.37623977644E+02  0.00000000000E+00 0.  1.
          6    1    1    2  501    0  0.95335194473E+02 -0.40092237144E+02  0.56372818664E+03  0.59867742165E+03  0.17300000000E+03 0. -1.
         -6    1    1    2    0  503 -0.95335194473E+02  0.40092237144E+02  0.48390122146E+03  0.52419994174E+03  0.17300000000E+03 0. -1.
</event>
<event>
 4    1  0.3065897E+000  0.1000000E+03  0.7546771E-02  0.1280296E+00
         21   -1    0    0  501  502  0.00000000000E+00  0.00000000000E+00  0.79221897728E+03  0.79221897728E+03  0.00000000000E+00 0.  1.
         21   -1    0    0  502  503 -0.00000000000E+00 -0.00000000000E+00 -0.88838760731E+02  0.88838760731E+02  0.00000000000E+00 0.  1.
          6    1    1    2  501    0  0.49350719841E+02  0.93792473817E+02  0.63553263407E+03  0.66713060990E+03  0.17300000000E+03 0. -1.
         -6    1    1    2    0  503 -0.49350719841E+02 -0.93792473817E+02  0.67847582473E+02  0.21392712811E+03  0.17300000000E+03 0. -1.
</event>
<event>
 4    1  0.3065897E+000  0.1000000E+03  0.7546771E-02  0.1280296E+00
         21   -1    0    0  501  502  0.00000000000E+00  0.00000000000E+00  0.88906622347E+03  0.88906622347E+03  0.00000000000E+00 0.  1.
         21   -1    0    0  502  503 -0.00000000000E+00 -0.00000000000E+00 -0.46070424975E+02  0.46070424975E+02  0.00000000000E+00 0.  1.
          6    1    1    2  501    0  0.51768869002E+02  0.17400508282E+02  0.62875397239E+03  0.65440304956E+03  0.17300000000E+03 0.  1.
         -6    1    1    2    0  503 -0.51768869002E+02 -0.17400508282E+02  0.21424182611E+03  0.28073359888E+03  0.17300000000E+03 0.  1.
</event>
<event>
 4    1  0.3065897E+000  0.1000000E+03  0.7546771E-02  0.1280296E+00
         21   -1    0    0  503  502  0.00000000000E+00  0.00000000000E+00  0.37147759603E+03  0.37147759603E+03  0.00000000000E+00 0. -1.
         21   -1    0    0  501  503 -0.00000000000E+00 -0.00000000000E+00 -0.98532147085E+02  0.98532147085E+02  0.00000000000E+00 0.  1.
          6    1    1    2  501    0  0.66395113063E+02  0.37011571117E+02  0.99718254628E+02  0.21366070706E+03  0.17300000000E+03 0.  1.
         -6    1    1    2    0  502 -0.66395113063E+02 -0.37011571117E+02  0.17322719432E+03  0.25634903605E+03  0.17300000000E+03 0. -1.
</event>
<event>
 4    1  0.3065897E+000  0.1000000E+03  0.7546771E-02  0.1280296E+00
         21   -1    0    0  501  502  0.00000000000E+00  0.00000000000E+00  0.36214803284E+03  0.36214803284E+03  0.00000000000E+00 0.  1.
         21   -1    0    0  502  503 -0.00000000000E+00 -0.00000000000E+00 -0.30728793824E+03  0.30728793824E+03  0.00000000000E+00 0.  1.
          6    1    1    2  501    0 -0.11328762542E+02 -0.85585285693E+02  0.30019588239E+03  0.35707107107E+03  0.17300000000E+03 0.  1.
         -6    1    1    2    0  503  0.11328762542E+02  0.85585285693E+02 -0.24533578779E+03  0.31236490001E+03  0.17300000000E+03 0.  1.
</event>
<event>
 4    1  0.3065897E+000  0.1000000E+03  0.7546771E-02  0.1280296E+00
         21   -1    0    0  501  502  0.00000000000E+00  0.00000000000E+00  0.25903895421E+03  0.25903895421E+03  0.00000000000E+00 0.  1.
         21   -1    0    0  502  503 -0.00000000000E+00 -0.00000000000E+00 -0.30553257901E+03  0.30553257901E+03  0.00000000000E+00 0.  1.
          6    1    1    2  501    0  0.13168277805E+03  0.93185464699E+02  0.12956128113E+03  0.26970170640E+03  0.17300000000E+03 0.  1.
         -6    1    1    2    0  503 -0.13168277805E+03 -0.93185464699E+02 -0.17605490594E+03  0.29486982682E+03  0.17300000000E+03 0.  1.
</event>
<event>
 4    1  0.3065897E+000  0.1000000E+03  0.7546771E-02  0.1280296E+00
         21   -1    0    0  501  502  0.00000000000E+00  0.00000000000E+00  0.26619217291E+03  0.26619217291E+03  0.00000000000E+00 0.  1.
         21   -1    0    0  502  503 -0.00000000000E+00 -0.00000000000E+00 -0.14362761240E+03  0.14362761240E+03  0.00000000000E+00 0.  1.
          6    1    1    2  501    0  0.88302932466E+02 -0.18580283051E+02  0.47988767190E+02  0.20093420957E+03  0.17300000000E+03 0.  1.
         -6    1    1    2    0  503 -0.88302932466E+02  0.18580283051E+02  0.74575793320E+02  0.20888557573E+03  0.17300000000E+03 0.  1.
</event>
<event>
 4    1  0.3065897E+000  0.1000000E+03  0.7546771E-02  0.1280296E+00
         21   -1    0    0  501  502  0.00000000000E+00  0.00000000000E+00  0.68820013661E+03  0.68820013661E+03  0.00000000000E+00 0.  1.
         21   -1    0    0  502  503 -0.00000000000E+00 -0.00000000000E+00 -0.95851115170E+02  0.95851115170E+02  0.00000000000E+00 0.  1.
          6    1    1    2  501    0  0.81224709643E+02 -0.52606188397E+02  0.54544864491E+03  0.58035169402E+03  0.17300000000E+03 0.  1.
         -6    1    1    2    0  503 -0.81224709643E+02  0.52606188397E+02  0.46900376530E+02  0.20369955776E+03  0.17300000000E+03 0.  1.
</event>
<event>
 4    1  0.3065897E+000  0.1000000E+03  0.7546771E-02  0.1280296E+00
         21   -1    0    0  501  502  0.00000000000E+00  0.00000000000E+00  0.46617166946E+02  0.46617166946E+02  0.00000000000E+00 0. -1.
         21   -1    0    0  502  503 -0.00000000000E+00 -0.00000000000E+00 -0.89105555513E+03  0.89105555513E+03  0.00000000000E+00 0. -1.
          6    1    1    2  501    0 -0.62512193691E+02  0.85642268113E+02 -0.37814382962E+03  0.42914348222E+03  0.17300000000E+03 0. -1.
         -6    1    1    2    0  503  0.62512193691E+02 -0.85642268113E+02 -0.46629455856E+03  0.50852923986E+03  0.17300000000E+03 0. -1.
</event>
<event>
 4    1  0.3065897E+000  0.1000000E+03  0.7546771E-02  0.1280296E+00
         21   -1    0    0  501  502  0.00000000000E+00  0.00000000000E+00  0.10280471125E+04  0.10280471125E+04  0.00000000000E+00 0. -1.
         21   -1    0    0  502  503 -0.00000000000E+00 -0.00000000000E+00 -0.34208186538E+03  0.34208186538E+03  0.00000000000E+00 0. -1.
          6    1    1    2  501    0 -0.14551892129E+03 -0.20488651776E+03  0.93042913717E+03  0.97917394824E+03  0.17300000000E+03 0. -1.
         -6    1    1    2    0  503  0.14551892129E+03  0.20488651776E+03 -0.24446389009E+03  0.39095502960E+03  0.17300000000E+03 0. -1.
</event>
<event>
 4    1  0.3065897E+000  0.1000000E+03  0.7546771E-02  0.1280296E+00
         21   -1    0    0  503  502  0.00000000000E+00  0.00000000000E+00  0.51436216446E+02  0.51436216446E+02  0.00000000000E+00 0.  1.
         21   -1    0    0  501  503 -0.00000000000E+00 -0.00000000000E+00 -0.28191839040E+04  0.28191839040E+04  0.00000000000E+00 0. -1.
          6    1    1    2  501    0  0.24160803773E+03 -0.23626473581E+03 -0.12718274032E+04  0.13272789506E+04  0.17300000000E+03 0. -1.
         -6    1    1    2    0  502 -0.24160803773E+03  0.23626473581E+03 -0.14959202844E+04  0.15433411699E+04  0.17300000000E+03 0.  1.
</event>
<event>
 4    1  0.3065897E+000  0.1000000E+03  0.7546771E-02  0.1280296E+00
         21   -1    0    0  503  502  0.00000000000E+00  0.00000000000E+00  0.18345676070E+03  0.18345676070E+03  0.00000000000E+00 0.  1.
         21   -1    0    0  501  503 -0.00000000000E+00 -0.00000000000E+00 -0.11662258927E+04  0.11662258927E+04  0.00000000000E+00 0. -1.
          6    1    1    2  501    0 -0.12707749571E+03  0.22887093447E+02 -0.10882232961E+04  0.11094284345E+04  0.17300000000E+03 0. -1.
         -6    1    1    2    0  502  0.12707749571E+03 -0.22887093447E+02  0.10545416416E+03  0.24025421891E+03  0.17300000000E+03 0.  1.
</event>
<event>
 4    1  0.3065897E+000  0.1000000E+03  0.7546771E-02  0.1280296E+00
         21   -1    0    0  503  502  0.00000000000E+00  0.00000000000E+00  0.60319252729E+02  0.60319252729E+02  0.00000000000E+00 0.  1.
         21   -1    0    0  501  503 -0.00000000000E+00 -0.00000000000E+00 -0.12451483888E+04  0.12451483888E+04  0.00000000000E+00 0. -1.
          6    1    1    2  501    0 -0.16488758920E+03 -0.66334674892E+02 -0.87006270004E+03  0.90472443770E+03  0.17300000000E+03 0. -1.
         -6    1    1    2    0  502  0.16488758920E+03  0.66334674892E+02 -0.31476643604E+03  0.40074320384E+03  0.17300000000E+03 0.  1.
</event>
<event>
 4    1  0.3065897E+000  0.1000000E+03  0.7546771E-02  0.1280296E+00
         21   -1    0    0  503  502  0.00000000000E+00  0.00000000000E+00  0.17718220217E+03  0.17718220217E+03  0.00000000000E+00 0.  1.
         21   -1    0    0  501  503 -0.00000000000E+00 -0.00000000000E+00 -0.32551484198E+03  0.32551484198E+03  0.00000000000E+00 0. -1.
          6    1    1    2  501    0  0.16244748855E+03  0.50223931366E+01 -0.11236401623E+03  0.26261965485E+03  0.17300000000E+03 0. -1.
         -6    1    1    2    0  502 -0.16244748855E+03 -0.50223931366E+01 -0.35968623578E+02  0.24007738930E+03  0.17300000000E+03 0.  1.
</event>
<event>
 4    1  0.3065897E+000  0.1000000E+03  0.7546771E-02  0.1280296E+00
         21   -1    0    0  501  502  0.00000000000E+00  0.00000000000E+00  0.25850371238E+03  0.25850371238E+03  0.00000000000E+00 0.  1.
         21   -1    0    0  502  503 -0.00000000000E+00 -0.00000000000E+00 -0.21145231641E+03  0.21145231641E+03  0.00000000000E+00 0.  1.
          6    1    1    2  501    0  0.62006956992E+02 -0.13146787892E+03  0.83858356264E+02  0.24101844290E+03  0.17300000000E+03 0. -1.
         -6    1    1    2    0  503 -0.62006956992E+02  0.13146787892E+03 -0.36806960289E+02  0.22893758588E+03  0.17300000000E+03 0. -1.
</event>
<event>
 4    1  0.3065897E+000  0.1000000E+03  0.7546771E-02  0.1280296E+00
         21   -1    0    0  501  502  0.00000000000E+00  0.00000000000E+00  0.18598325290E+03  0.18598325290E+03  0.00000000000E+00 0. -1.
         21   -1    0    0  502  503 -0.00000000000E+00 -0.00000000000E+00 -0.37653227221E+03  0.37653227221E+03  0.00000000000E+00 0. -1.
          6    1    1    2  501    0  0.18414041234E+03 -0.23533750701E+02 -0.17508050136E+03  0.30829160034E+03  0.17300000000E+03 0. -1.
         -6    1    1    2    0  503 -0.18414041234E+03  0.23533750701E+02 -0.15468517938E+02  0.25422392477E+03  0.17300000000E+03 0. -1.
</event>
<event>
 4    1  0.3065897E+000  0.1000000E+03  0.7546771E-02  0.1280296E+00
         21   -1    0    0  501  502  0.00000000000E+00  0.00000000000E+00  0.17641866101E+03  0.17641866101E+03  0.00000000000E+00 0.  1.
         21   -1    0    0  502  503 -0.00000000000E+00 -0.00000000000E+00 -0.24759016696E+03  0.24759016696E+03  0.00000000000E+00 0.  1.
          6    1    1    2  501    0 -0.88735499230E+02 -0.75687733725E+02 -0.23249146271E+02  0.20993366729E+03  0.17300000000E+03 0.  1.
         -6    1    1    2    0  503  0.88735499230E+02  0.75687733725E+02 -0.47922359677E+02  0.21407516067E+03  0.17300000000E+03 0.  1.
</event>
<event>
 4    1  0.3065897E+000  0.1000000E+03  0.7546771E-02  0.1280296E+00
         21   -1    0    0  501  502  0.00000000000E+00  0.00000000000E+00  0.44330702246E+03  0.44330702246E+03  0.00000000000E+00 0.  1.
         21   -1    0    0  502  503 -0.00000000000E+00 -0.00000000000E+00 -0.19518662960E+03  0.19518662960E+03  0.00000000000E+00 0.  1.
          6    1    1    2  501    0 -0.20380070374E+03  0.11625295645E+03  0.16677640936E+03  0.33584646410E+03  0.17300000000E+03 0.  1.
         -6    1    1    2    0  503  0.20380070374E+03 -0.11625295645E+03  0.81343983503E+02  0.30264718796E+03  0.17300000000E+03 0.  1.
</event>
<event>
 4    1  0.3065897E+000  0.1000000E+03  0.7546771E-02  0.1280296E+00
         21   -1    0    0  501  502  0.00000000000E+00  0.00000000000E+00  0.25638905367E+03  0.25638905367E+03  0.00000000000E+00 0.  1.
         21   -1    0    0  502  503 -0.00000000000E+00 -0.00000000000E+00 -0.26937827543E+03  0.26937827543E+03  0.00000000000E+00 0.  1.
          6    1    1    2  501    0  0.99026902227E+02 -0.10611895690E+03  0.12796771076E+03  0.25956173712E+03  0.17300000000E+03 0.  1.
         -6    1    1    2    0  503 -0.99026902227E+02  0.10611895690E+03 -0.14095693252E+03  0.26620559199E+03  0.17300000000E+03 0.  1.
</event>
<event>
 4    1  0.3065897E+000  0.1000000E+03  0.7546771E-02  0.1280296E+00
         21   -1    0    0  503  502  0.00000000000E+00  0.00000000000E+00  0.11720745140E+03  0.11720745140E+03  0.00000000000E+00 0.  1.
         21   -1    0    0  501  503 -0.00000000000E+00 -0.00000000000E+00 -0.33666986243E+03  0.33666986243E+03  0.00000000000E+00 0.  1.
          6    1    1    2  501    0 -0.15372136070E+02 -0.23641591776E+02 -0.21650994511E+03  0.27856917231E+03  0.17300000000E+03 0.  1.
         -6    1    1    2    0  502  0.15372136070E+02  0.23641591776E+02 -0.29524659206E+01  0.17530814152E+03  0.17300000000E+03 0.  1.
</event>
<event>
 4    1  0.3065897E+000  0.1000000E+03  0.7546771E-02  0.1280296E+00
         21   -1    0    0  503  502  0.00000000000E+00  0.00000000000E+00  0.11909707601E+04  0.11909707601E+04  0.00000000000E+00 0.  1.
         21   -1    0    0  501  503 -0.00000000000E+00 -0.00000000000E+00 -0.26053997710E+02  0.26053997710E+02  0.00000000000E+00 0.  1.
          6    1    1    2  501    0 -0.76641766461E+01 -0.30992539794E+02  0.55131591276E+03  0.57870330291E+03  0.17300000000E+03 0.  1.
         -6    1    1    2    0  502  0.76641766461E+01  0.30992539794E+02  0.61360084958E+03  0.63832145485E+03  0.17300000000E+03 0.  1.
</event>
<event>
 4    1  0.3065897E+000  0.1000000E+03  0.7546771E-02  0.1280296E+00
         21   -1    0    0  503  502  0.00000000000E+00  0.00000000000E+00  0.16567214302E+03  0.16567214302E+03  0.00000000000E+00 0.  1.
         21   -1    0    0  501  503 -0.00000000000E+00 -0.00000000000E+00 -0.31893408526E+03  0.31893408526E+03  0.00000000000E+00 0.  1.
          6    1    1    2  501    0 -0.10642502128E+03  0.10727567973E+03 -0.85768106280E+02  0.24519283160E+03  0.17300000000E+03 0.  1.
         -6    1    1    2    0  502  0.10642502128E+03 -0.10727567973E+03 -0.67493835956E+02  0.23941339668E+03  0.17300000000E+03 0.  1.
</event>
<event>
 4    1  0.3065897E+000  0.1000000E+03  0.7546771E-02  0.1280296E+00
         21   -1    0    0  501  502  0.00000000000E+00  0.00000000000E+00  0.72933398571E+03  0.72933398571E+03  0.00000000000E+00 0.  1.
         21   -1    0    0  502  503 -0.00000000000E+00 -0.00000000000E+00 -0.96825004401E+02  0.96825004401E+02  0.00000000000E+00 0.  1.
          6    1    1    2  501    0  0.10773022675E+03 -0.12023428585E+03  0.50425089626E+03  0.55700992059E+03  0.17300000000E+03 0.  1.
         -6    1    1    2    0  503 -0.10773022675E+03  0.12023428585E+03  0.12825808505E+03  0.26914906953E+03  0.17300000000E+03 0.  1.
</event>
<event>
 4    1  0.3065897E+000  0.1000000E+03  0.7546771E-02  0.1280296E+00
         21   -1    0    0  501  502  0.00000000000E+00  0.00000000000E+00  0.98405437897E+03  0.98405437897E+03  0.00000000000E+00 0.  1.
         21   -1    0    0  502  503 -0.00000000000E+00 -0.00000000000E+00 -0.12003870504E+03  0.12003870504E+03  0.00000000000E+00 0.  1.
          6    1    1    2  501    0  0.30144887788E+02  0.19800973058E+03  0.78420302113E+03  0.82765931760E+03  0.17300000000E+03 0.  1.
         -6    1    1    2    0  503 -0.30144887788E+02 -0.19800973058E+03  0.79812652793E+02  0.27643376641E+03  0.17300000000E+03 0.  1.
</event>
<event>
 4    1  0.3065897E+000  0.1000000E+03  0.7546771E-02  0.1280296E+00
         21   -1    0    0  501  502  0.00000000000E+00  0.00000000000E+00  0.70343036311E+02  0.70343036311E+02  0.00000000000E+00 0.  1.
         21   -1    0    0  502  503 -0.00000000000E+00 -0.00000000000E+00 -0.56889241634E+03  0.56889241634E+03  0.00000000000E+00 0. -1.
          6    1    1    2  501    0  0.63208007156E+01 -0.31627628365E+02 -0.97293381984E+02  0.20108520974E+03  0.17300000000E+03 0. -1.
         -6    1    1    2    0  503 -0.63208007156E+01  0.31627628365E+02 -0.40125599805E+03  0.43815024291E+03  0.17300000000E+03 0. -1.
</event>
<event>
 4    1  0.3065897E+000  0.1000000E+03  0.7546771E-02  0.1280296E+00
         21   -1    0    0  503  502  0.00000000000E+00  0.00000000000E+00  0.79736915722E+02  0.79736915722E+02  0.00000000000E+00 0. -1.
         21   -1    0    0  501  503 -0.00000000000E+00 -0.00000000000E+00 -0.63688868393E+03  0.63688868393E+03  0.00000000000E+00 0. -1.
          6    1    1    2  501    0  0.93310055913E+02  0.33613426058E+02 -0.44547362470E+03  0.48807005567E+03  0.17300000000E+03 0.  1.
         -6    1    1    2    0  502 -0.93310055913E+02 -0.33613426058E+02 -0.11167814352E+03  0.22855554398E+03  0.17300000000E+03 0.  1.
</event>
<event>
 4    1  0.3065897E+000  0.1000000E+03  0.7546771E-02  0.1280296E+00
         21   -1    0    0  503  502  0.00000000000E+00  0.00000000000E+00  0.96938075511E+03  0.96938075511E+03  0.00000000000E+00 0. -1.
         21   -1    0    0  501  503 -0.00000000000E+00 -0.00000000000E+00 -0.69926252309E+02  0.69926252309E+02  0.00000000000E+00 0. -1.
          6    1    1    2  501    0 -0.53237949610E+02 -0.14020307751E+02  0.77254880791E+02  0.19730221721E+03  0.17300000000E+03 0.  1.
         -6    1    1    2    0  502  0.53237949610E+02  0.14020307751E+02  0.82219962201E+03  0.84200479021E+03  0.17300000000E+03 0.  1.
</event>
<event>
 4    1  0.3065897E+000  0.1000000E+03  0.7546771E-02  0.1280296E+00
         21   -1    0    0  503  502  0.00000000000E+00  0.00000000000E+00  0.22339678716E+03  0.22339678716E+03  0.00000000000E+00 0. -1.
         21   -1    0    0  501  503 -0.00000000000E+00 -0.00000000000E+00 -0.18491341192E+03  0.18491341192E+03  0.00000000000E+00 0.  1.
          6    1    1    2  501    0 -0.81342431330E+01  0.68912029467E+02 -0.62145467862E+02  0.19648433243E+03  0.17300000000E+03 0. -1.
         -6    1    1    2    0  502  0.81342431330E+01 -0.68912029467E+02  0.10062884310E+03  0.21182586665E+03  0.17300000000E+03 0. -1.
</event>
<event>
 4    1  0.3065897E+000  0.1000000E+03  0.7546771E-02  0.1280296E+00
         21   -1    0    0  503  502  0.00000000000E+00  0.00000000000E+00  0.11422004080E+04  0.11422004080E+04  0.00000000000E+00 0. -1.
         21   -1    0    0  501  503 -0.00000000000E+00 -0.00000000000E+00 -0.55193140072E+02  0.55193140072E+02  0.00000000000E+00 0.  1.
          6    1    1    2  501    0  0.26495020076E+02 -0.31926588129E+02  0.12103147221E+03  0.21517181596E+03  0.17300000000E+03 0. -1.
         -6    1    1    2    0  502 -0.26495020076E+02  0.31926588129E+02  0.96597579575E+03  0.98222173214E+03  0.17300000000E+03 0. -1.
</event>
<event>
 4    1  0.3065897E+000  0.1000000E+03  0.7546771E-02  0.1280296E+00
         21   -1    0    0  503  502  0.00000000000E+00  0.00000000000E+00  0.11030165994E+03  0.11030165994E+03  0.00000000000E+00 0.  1.
         21   -1    0    0  501  503 -0.00000000000E+00 -0.00000000000E+00 -0.37453571259E+03  0.37453571259E+03  0.00000000000E+00 0.  1.
          6    1    1    2  501    0 -0.10479424065E+03 -0.76178797234E+01 -0.11002657797E+03  0.23037949741E+03  0.17300000000E+03 0.  1.
         -6    1    1    2    0  502  0.10479424065E+03  0.76178797234E+01 -0.15420747468E+03  0.25445787512E+03  0.17300000000E+03 0.  1.
</event>
<event>
 4    1  0.3065897E+000  0.1000000E+03  0.7546771E-02  0.1280296E+00
         21   -1    0    0  503  502  0.00000000000E+00  0.00000000000E+00  0.19074620845E+04  0.19074620845E+04  0.00000000000E+00 0.  1.
         21   -1    0    0  501  503 -0.00000000000E+00 -0.00000000000E+00 -0.34016953405E+02  0.34016953405E+02  0.00000000000E+00 0.  1.
          6    1    1    2  501    0  0.56000599444E+02 -0.32048410155E+02  0.26797954880E+03  0.32543080110E+03  0.17300000000E+03 0.  1.
         -6    1    1    2    0  502 -0.56000599444E+02  0.32048410155E+02  0.16054655823E+04  0.16160482368E+04  0.17300000000E+03 0.  1.
</event>
<event>
 4    1  0.3065897E+000  0.1000000E+03  0.7546771E-02  0.1280296E+00
         21   -1    0    0  503  502  0.00000000000E+00  0.00000000000E+00  0.14954770238E+04  0.14954770238E+04  0.00000000000E+00 0.  1.
         21   -1    0    0  501  503 -0.00000000000E+00 -0.00000000000E+00 -0.57303051354E+02  0.57303051354E+02  0.00000000000E+00 0.  1.
          6    1    1    2  501    0  0.19011171764E+03  0.88319424857E+01  0.10898781346E+04  0.11198141884E+04  0.17300000000E+03 0.  1.
         -6    1    1    2    0  502 -0.19011171764E+03 -0.88319424857E+01  0.34829583792E+03  0.43296588677E+03  0.17300000000E+03 0.  1.
</event>
<event>
 4    1  0.3065897E+000  0.1000000E+03  0.7546771E-02  0.1280296E+00
         21   -1    0    0  503  502  0.00000000000E+00  0.00000000000E+00  0.21455149640E+02  0.21455149640E+02  0.00000000000E+00 0. -1.
         21   -1    0    0  501  503 -0.00000000000E+00 -0.00000000000E+00 -0.21288560509E+04  0.21288560509E+04  0.00000000000E+00 0.  1.
          6    1    1    2  501    0  0.59880870180E+02  0.10838997735E+03 -0.95160984892E+03  0.97510225636E+03  0.17300000000E+03 0.  1.
         -6    1    1    2    0  502 -0.59880870180E+02 -0.10838997735E+03 -0.11557910523E+04  0.11752089441E+04  0.17300000000E+03 0. -1.
</event>
<event>
 4    1  0.3065897E+000  0.1000000E+03  0.7546771E-02  0.1280296E+00
         21   -1    0    0  501  502  0.00000000000E+00  0.00000000000E+00  0.29711496030E+02  0.29711496030E+02  0.00000000000E+00 0. -1.
         21   -1    0    0  502  503 -0.00000000000E+00 -0.00000000000E+00 -0.10960609210E+04  0.10960609210E+04  0.00000000000E+00 0. -1.
          6    1    1    2  501    0 -0.25229065411E+02  0.32123944213E+02 -0.63022877305E+03  0.65481734851E+03  0.17300000000E+03 0. -1.
         -6    1    1    2    0  503  0.25229065411E+02 -0.32123944213E+02 -0.43612065194E+03  0.47095506854E+03  0.17300000000E+03 0. -1.
</event>
<event>
 4    1  0.3065897E+000  0.1000000E+03  0.7546771E-02  0.1280296E+00
         21   -1    0    0  501  502  0.00000000000E+00  0.00000000000E+00  0.16621679209E+03  0.16621679209E+03  0.00000000000E+00 0. -1.
         21   -1    0    0  502  503 -0.00000000000E+00 -0.00000000000E+00 -0.45911452397E+03  0.45911452397E+03  0.00000000000E+00 0. -1.
          6    1    1    2  501    0  0.46292506505E+02 -0.26838729293E+02  0.89668434195E+02  0.20207113015E+03  0.17300000000E+03 0. -1.
         -6    1    1    2    0  503 -0.46292506505E+02  0.26838729293E+02 -0.38256616608E+03  0.42326018591E+03  0.17300000000E+03 0. -1.
</event>
<event>
 4    1  0.3065897E+000  0.1000000E+03  0.7546771E-02  0.1280296E+00
         21   -1    0    0  501  502  0.00000000000E+00  0.00000000000E+00  0.47275054536E+02  0.47275054536E+02  0.00000000000E+00 0. -1.
         21   -1    0    0  502  503 -0.00000000000E+00 -0.00000000000E+00 -0.10905008618E+04  0.10905008618E+04  0.00000000000E+00 0. -1.
          6    1    1    2  501    0 -0.81123927342E+02  0.11914729098E+03 -0.44868038132E+03  0.50201618811E+03  0.17300000000E+03 0. -1.
         -6    1    1    2    0  503  0.81123927342E+02 -0.11914729098E+03 -0.59454542593E+03  0.63575972822E+03  0.17300000000E+03 0. -1.
</event>
<event>
 4    1  0.3065897E+000  0.1000000E+03  0.7546771E-02  0.1280296E+00
         21   -1    0    0  501  502  0.00000000000E+00  0.00000000000E+00  0.13631582046E+03  0.13631582046E+03  0.00000000000E+00 0.  1.
         21   -1    0    0  502  503 -0.00000000000E+00 -0.00000000000E+00 -0.64297447212E+03  0.64297447212E+03  0.00000000000E+00 0. -1.
          6    1    1    2  501    0  0.84877988650E+01  0.11591914811E+03  0.23400582362E+02  0.20972810704E+03  0.17300000000E+03 0.  1.
         -6    1    1    2    0  503 -0.84877988650E+01 -0.11591914811E+03 -0.53005923402E+03  0.56956218554E+03  0.17300000000E+03 0. -1.
</event>
<event>
 4    1  0.3065897E+000  0.1000000E+03  0.7546771E-02  0.1280296E+00
         21   -1    0    0  501  502  0.00000000000E+00  0.00000000000E+00  0.39560683879E+03  0.39560683879E+03  0.00000000000E+00 0.  1.
         21   -1    0    0  502  503 -0.00000000000E+00 -0.00000000000E+00 -0.66519532658E+03  0.66519532658E+03  0.00000000000E+00 0. -1.
          6    1    1    2  501    0  0.91270788399E+02 -0.66593705040E+02  0.35067813905E+03  0.40702485867E+03  0.17300000000E+03 0.  1.
         -6    1    1    2    0  503 -0.91270788399E+02  0.66593705040E+02 -0.62026662685E+03  0.65377730670E+03  0.17300000000E+03 0. -1.
</event>
<event>
 4    1  0.3065897E+000  0.1000000E+03  0.7546771E-02  0.1280296E+00
         21   -1    0    0  501  502  0.00000000000E+00  0.00000000000E+00  0.18460720606E+03  0.18460720606E+03  0.00000000000E+00 0. -1.
         21   -1    0    0  502  503 -0.00000000000E+00 -0.00000000000E+00 -0.21665666267E+03  0.21665666267E+03  0.00000000000E+00 0. -1.
          6    1    1    2  501    0 -0.12273689225E+02 -0.34016146839E+01  0.83818957845E+02  0.19265729190E+03  0.17300000000E+03 0. -1.
         -6    1    1    2    0  503  0.12273689225E+02  0.34016146839E+01 -0.11586841445E+03  0.20860657683E+03  0.17300000000E+03 0. -1.
</event>
<event>
 4    1  0.3065897E+000  0.1000000E+03  0.7546771E-02  0.1280296E+00
         21   -1    0    0  501  502  0.00000000000E+00  0.00000000000E+00  0.32380030085E+03  0.32380030085E+03  0.00000000000E+00 0. -1.
         21   -1    0    0  502  503 -0.00000000000E+00 -0.00000000000E+00 -0.27475855152E+03  0.27475855152E+03  0.00000000000E+00 0. -1.
          6    1    1    2  501    0  0.92076081197E+02  0.13632716949E+03  0.20393909571E+03  0.31397970735E+03  0.17300000000E+03 0. -1.
         -6    1    1    2    0  503 -0.92076081197E+02 -0.13632716949E+03 -0.15489734638E+03  0.28457914502E+03  0.17300000000E+03 0. -1.
</event>
<event>
 4    1  0.3065897E+000  0.1000000E+03  0.7546771E-02  0.1280296E+00
         21   -1    0    0  503  502  0.00000000000E+00  0.00000000000E+00  0.22842139489E+03  0.22842139489E+03  0.00000000000E+00 0. -1.
         21   -1    0    0  501  503 -0.00000000000E+00 -0.00000000000E+00 -0.12456633665E+04  0.12456633665E+04  0.00000000000E+00 0. -1.
          6    1    1    2  501    0  0.13258706083E+03  0.15784621608E+03 -0.11449866830E+04  0.11761880211E+04  0.17300000000E+03 0. -1.
         -6    1    1    2    0  502 -0.13258706083E+03 -0.15784621608E+03  0.12774471137E+03  0.29789674035E+03  0.17300000000E+03 0. -1.
</event>
<event>
 4    1  0.3065897E+000  0.1000000E+03  0.7546771E-02  0.1280296E+00
         21   -1    0    0  503  502  0.00000000000E+00  0.00000000000E+00  0.59723835391E+02  0.59723835391E+02  0.00000000000E+00 0. -1.
         21   -1    0    0  501  503 -0.00000000000E+00 -0.00000000000E+00 -0.13726033889E+04  0.13726033889E+04  0.00000000000E+00 0.  1.
          6    1    1    2  501    0  0.95234273712E+02 -0.10245937157E+03 -0.11072338762E+04  0.11293641337E+04  0.17300000000E+03 0.  1.
         -6    1    1    2    0  502 -0.95234273712E+02  0.10245937157E+03 -0.20564567731E+03  0.30296309067E+03  0.17300000000E+03 0. -1.
</event>
<event>
 4    1  0.3065897E+000  0.1000000E+03  0.7546771E-02  0.1280296E+00
         21   -1    0    0  501  502  0.00000000000E+00  0.00000000000E+00  0.77726567706E+03  0.77726567706E+03  0.00000000000E+00 0.  1.
         21   -1    0    0  502  503 -0.00000000000E+00 -0.00000000000E+00 -0.58709740467E+02  0.58709740467E+02  0.00000000000E+00 0. -1.
          6    1    1    2  501    0  0.10494623174E+03  0.68420571546E+02  0.35341439991E+03  0.41294772578E+03  0.17300000000E+03 0. -1.
         -6    1    1    2    0  503 -0.10494623174E+03 -0.68420571546E+02  0.36514153669E+03  0.42302769174E+03  0.17300000000E+03 0.  1.
</event>
<event>
 4    1  0.3065897E+000  0.1000000E+03  0.7546771E-02  0.1280296E+00
         21   -1    0    0  503  502  0.00000000000E+00  0.00000000000E+00  0.10068648982E+04  0.10068648982E+04  0.00000000000E+00 0.  1.
         21   -1    0    0  501  503 -0.00000000000E+00 -0.00000000000E+00 -0.20894865975E+03  0.20894865975E+03  0.00000000000E+00 0. -1.
          6    1    1    2  501    0  0.42161708752E+03 -0.49236263156E+02  0.37722503931E+03  0.59364375545E+03  0.17300000000E+03 0.  1.
         -6    1    1    2    0  502 -0.42161708752E+03  0.49236263156E+02  0.42069119909E+03  0.62216980246E+03  0.17300000000E+03 0.  1.
</event>
<event>
 4    1  0.3065897E+000  0.1000000E+03  0.7546771E-02  0.1280296E+00
         21   -1    0    0  503  502  0.00000000000E+00  0.00000000000E+00  0.12988545241E+03  0.12988545241E+03  0.00000000000E+00 0.  1.
         21   -1    0    0  501  503 -0.00000000000E+00 -0.00000000000E+00 -0.13495399735E+04  0.13495399735E+04  0.00000000000E+00 0.  1.
          6    1    1    2  501    0  0.19898497870E+02 -0.76593624754E+02 -0.12687648277E+04  0.12829480588E+04  0.17300000000E+03 0.  1.
         -6    1    1    2    0  502 -0.19898497870E+02  0.76593624754E+02  0.49110306618E+02  0.19647736711E+03  0.17300000000E+03 0.  1.
</event>
<event>
 4    1  0.3065897E+000  0.1000000E+03  0.7546771E-02  0.1280296E+00
         21   -1    0    0  503  502  0.00000000000E+00  0.00000000000E+00  0.10946311374E+03  0.10946311374E+03  0.00000000000E+00 0. -1.
         21   -1    0    0  501  503 -0.00000000000E+00 -0.00000000000E+00 -0.83892173747E+03  0.83892173747E+03  0.00000000000E+00 0. -1.
          6    1    1    2  501    0 -0.84195739180E+02 -0.17186765999E+03 -0.61350153213E+03  0.66553778629E+03  0.17300000000E+03 0. -1.
         -6    1    1    2    0  502  0.84195739180E+02  0.17186765999E+03 -0.11595709159E+03  0.28284706493E+03  0.17300000000E+03 0. -1.
</event>
<event>
 4    1  0.3065897E+000  0.1000000E+03  0.7546771E-02  0.1280296E+00
         21   -1    0    0  503  502  0.00000000000E+00  0.00000000000E+00  0.10820771774E+03  0.10820771774E+03  0.00000000000E+00 0.  1.
         21   -1    0    0  501  503 -0.00000000000E+00 -0.00000000000E+00 -0.36677845956E+03  0.36677845956E+03  0.00000000000E+00 0.  1.
          6    1    1    2  501    0  0.42707093849E+02  0.64278439961E+02 -0.20280782747E+03  0.27751689785E+03  0.17300000000E+03 0.  1.
         -6    1    1    2    0  502 -0.42707093849E+02 -0.64278439961E+02 -0.55762914355E+02  0.19746927945E+03  0.17300000000E+03 0.  1.
</event>
<event>
 4    1  0.3065897E+000  0.1000000E+03  0.7546771E-02  0.1280296E+00
         21   -1    0    0  503  502  0.00000000000E+00  0.00000000000E+00  0.85170960696E+03  0.85170960696E+03  0.00000000000E+00 0.  1.
         21   -1    0    0  501  503 -0.00000000000E+00 -0.00000000000E+00 -0.40007829433E+02  0.40007829433E+02  0.00000000000E+00 0.  1.
          6    1    1    2  501    0 -0.44298087949E+02  0.44542075572E+02  0.43998642447E+03  0.47693120134E+03  0.17300000000E+03 0.  1.
         -6    1    1    2    0  502  0.44298087949E+02 -0.44542075572E+02  0.37171535306E+03  0.41478623506E+03  0.17300000000E+03 0.  1.
</event>
<event>
 4    1  0.3065897E+000  0.1000000E+03  0.7546771E-02  0.1280296E+00
         21   -1    0    0  503  502  0.00000000000E+00  0.00000000000E+00  0.18156497788E+03  0.18156497788E+03  0.00000000000E+00 0.  1.
         21   -1    0    0  501  503 -0.00000000000E+00 -0.00000000000E+00 -0.25533324948E+03  0.25533324948E+03  0.00000000000E+00 0.  1.
          6    1    1    2  501    0 -0.10591563077E+03 -0.14730027239E+02  0.34824131212E+02  0.20634150009E+03  0.17300000000E+03 0.  1.
         -6    1    1    2    0  502  0.10591563077E+03  0.14730027239E+02 -0.10859240281E+03  0.23055672728E+03  0.17300000000E+03 0.  1.
</event>
<event>
 4    1  0.3065897E+000  0.1000000E+03  0.7546771E-02  0.1280296E+00
         21   -1    0    0  503  502  0.00000000000E+00  0.00000000000E+00  0.20217012556E+03  0.20217012556E+03  0.00000000000E+00 0.  1.
         21   -1    0    0  501  503 -0.00000000000E+00 -0.00000000000E+00 -0.37357565946E+03  0.37357565946E+03  0.00000000000E+00 0. -1.
          6    1    1    2  501    0 -0.53395516078E+02 -0.19325668033E+03 -0.16266077898E+03  0.31078409652E+03  0.17300000000E+03 0. -1.
         -6    1    1    2    0  502  0.53395516078E+02  0.19325668033E+03 -0.87447549128E+01  0.26496168849E+03  0.17300000000E+03 0.  1.
</event>
<event>
 4    1  0.3065897E+000  0.1000000E+03  0.7546771E-02  0.1280296E+00
         21   -1    0    0  503  502  0.00000000000E+00  0.00000000000E+00  0.16384666010E+03  0.16384666010E+03  0.00000000000E+00 0.  1.
         21   -1    0    0  501  503 -0.00000000000E+00 -0.00000000000E+00 -0.73882108996E+03  0.73882108996E+03  0.00000000000E+00 0. -1.
          6    1    1    2  501    0  0.12626716732E+02 -0.27736876464E+03 -0.44114748078E+03  0.54921122109E+03  0.17300000000E+03 0. -1.
         -6    1    1    2    0  502 -0.12626716732E+02  0.27736876464E+03 -0.13382694908E+03  0.35345652897E+03  0.17300000000E+03 0.  1.
</event>
<event>
 4    1  0.3065897E+000  0.1000000E+03  0.7546771E-02  0.1280296E+00
         21   -1    0    0  503  502  0.00000000000E+00  0.00000000000E+00  0.61328673903E+02  0.61328673903E+02  0.00000000000E+00 0.  1.
         21   -1    0    0  501  503 -0.00000000000E+00 -0.00000000000E+00 -0.10440819029E+04  0.10440819029E+04  0.00000000000E+00 0. -1.
          6    1    1    2  501    0 -0.13672463638E+03  0.13037353351E+02 -0.76101440503E+03  0.79242382816E+03  0.17300000000E+03 0. -1.
         -6    1    1    2    0  502  0.13672463638E+03 -0.13037353351E+02 -0.22173882400E+03  0.31298674867E+03  0.17300000000E+03 0.  1.
</event>
<event>
 4    1  0.3065897E+000  0.1000000E+03  0.7546771E-02  0.1280296E+00
         21   -1    0    0  501  502  0.00000000000E+00  0.00000000000E+00  0.40731362498E+03  0.40731362498E+03  0.00000000000E+00 0.  1.
         21   -1    0    0  502  503 -0.00000000000E+00 -0.00000000000E+00 -0.19158739012E+03  0.19158739012E+03  0.00000000000E+00 0.  1.
          6    1    1    2  501    0 -0.71079592562E+02 -0.42158429077E+02  0.32565108601E+03  0.37789849357E+03  0.17300000000E+03 0.  1.
         -6    1    1    2    0  503  0.71079592562E+02  0.42158429077E+02 -0.10992485116E+03  0.22100252153E+03  0.17300000000E+03 0.  1.
</event>
<event>
 4    1  0.3065897E+000  0.1000000E+03  0.7546771E-02  0.1280296E+00
         21   -1    0    0  501  502  0.00000000000E+00  0.00000000000E+00  0.19967045501E+03  0.19967045501E+03  0.00000000000E+00 0.  1.
         21   -1    0    0  502  503 -0.00000000000E+00 -0.00000000000E+00 -0.32341794999E+03  0.32341794999E+03  0.00000000000E+00 0. -1.
          6    1    1    2  501    0 -0.17078416647E+02 -0.10342054352E+03  0.96439898460E+02  0.22409180072E+03  0.17300000000E+03 0. -1.
         -6    1    1    2    0  503  0.17078416647E+02  0.10342054352E+03 -0.22018739344E+03  0.29899660427E+03  0.17300000000E+03 0.  1.
</event>
<event>
 4    1  0.3065897E+000  0.1000000E+03  0.7546771E-02  0.1280296E+00
         21   -1    0    0  501  502  0.00000000000E+00  0.00000000000E+00  0.10041399764E+04  0.10041399764E+04  0.00000000000E+00 0.  1.
         21   -1    0    0  502  503 -0.00000000000E+00 -0.00000000000E+00 -0.46845126076E+02  0.46845126076E+02  0.00000000000E+00 0. -1.
          6    1    1    2  501    0 -0.20910916665E+02  0.12804877887E+03  0.51892224768E+03  0.56217706761E+03  0.17300000000E+03 0. -1.
         -6    1    1    2    0  503  0.20910916665E+02 -0.12804877887E+03  0.43837260265E+03  0.48880803488E+03  0.17300000000E+03 0.  1.
</event>
<event>
 4    1  0.3065897E+000  0.1000000E+03  0.7546771E-02  0.1280296E+00
         21   -1    0    0  501  502  0.00000000000E+00  0.00000000000E+00  0.31660134751E+03  0.31660134751E+03  0.00000000000E+00 0.  1.
         21   -1    0    0  502  503 -0.00000000000E+00 -0.00000000000E+00 -0.20345458190E+03  0.20345458190E+03  0.00000000000E+00 0. -1.
          6    1    1    2  501    0 -0.12789435838E+03 -0.85395849158E+02  0.16322217899E+03  0.28323117356E+03  0.17300000000E+03 0. -1.
         -6    1    1    2    0  503  0.12789435838E+03  0.85395849158E+02 -0.50075413387E+02  0.23682475585E+03  0.17300000000E+03 0.  1.
</event>
<event>
 4    1  0.3065897E+000  0.1000000E+03  0.7546771E-02  0.1280296E+00
         21   -1    0    0  501  502  0.00000000000E+00  0.00000000000E+00  0.17536127287E+03  0.17536127287E+03  0.00000000000E+00 0.  1.
         21   -1    0    0  502  503 -0.00000000000E+00 -0.00000000000E+00 -0.32620210741E+03  0.32620210741E+03  0.00000000000E+00 0. -1.
          6    1    1    2  501    0 -0.41280487641E+02 -0.10764709391E+03  0.48565967023E+02  0.21349386090E+03  0.17300000000E+03 0. -1.
         -6    1    1    2    0  503  0.41280487641E+02  0.10764709391E+03 -0.19940680156E+03  0.28806951938E+03  0.17300000000E+03 0.  1.
</event>
<event>
 4    1  0.3065897E+000  0.1000000E+03  0.7546771E-02  0.1280296E+00
         21   -1    0    0  501  502  0.00000000000E+00  0.00000000000E+00  0.77177437394E+03  0.77177437394E+03  0.00000000000E+00 0. -1.
         21   -1    0    0  502  503 -0.00000000000E+00 -0.00000000000E+00 -0.57995317603E+02  0.57995317603E+02  0.00000000000E+00 0.  1.
          6    1    1    2  501    0  0.55328966630E+02 -0.10830898649E+03  0.36900500073E+03  0.42530673833E+03  0.17300000000E+03 0. -1.
         -6    1    1    2    0  503 -0.55328966630E+02  0.10830898649E+03  0.34477405561E+03  0.40446295321E+03  0.17300000000E+03 0.  1.
</event>
<event>
 4    1  0.3065897E+000  0.1000000E+03  0.7546771E-02  0.1280296E+00
         21   -1    0    0  501  502  0.00000000000E+00  0.00000000000E+00  0.25757634116E+03  0.25757634116E+03  0.00000000000E+00 0. -1.
         21   -1    0    0  502  503 -0.00000000000E+00 -0.00000000000E+00 -0.40509819967E+03  0.40509819967E+03  0.00000000000E+00 0.  1.
          6    1    1    2  501    0 -0.83829432226E+02  0.14566073814E+02  0.19209204838E+03  0.27215418289E+03  0.17300000000E+03 0. -1.
         -6    1    1    2    0  503  0.83829432226E+02 -0.14566073814E+02 -0.33961390689E+03  0.39052035794E+03  0.17300000000E+03 0.  1.
</event>
<event>
 4    1  0.3065897E+000  0.1000000E+03  0.7546771E-02  0.1280296E+00
         21   -1    0    0  501  502  0.00000000000E+00  0.00000000000E+00  0.20555413042E+03  0.20555413042E+03  0.00000000000E+00 0. -1.
         21   -1    0    0  502  503 -0.00000000000E+00 -0.00000000000E+00 -0.25354282205E+03  0.25354282205E+03  0.00000000000E+00 0. -1.
          6    1    1    2  501    0  0.28828080258E+02  0.14598024088E+03 -0.30849919539E+02  0.23026507871E+03  0.17300000000E+03 0. -1.
         -6    1    1    2    0  503 -0.28828080258E+02 -0.14598024088E+03 -0.17138772083E+02  0.22883187376E+03  0.17300000000E+03 0. -1.
</event>
<event>
 4    1  0.3065897E+000  0.1000000E+03  0.7546771E-02  0.1280296E+00
         21   -1    0    0  501  502  0.00000000000E+00  0.00000000000E+00  0.27377018648E+03  0.27377018648E+03  0.00000000000E+00 0.  1.
         21   -1    0    0  502  503 -0.00000000000E+00 -0.00000000000E+00 -0.52713035561E+03  0.52713035561E+03  0.00000000000E+00 0.  1.
          6    1    1    2  501    0  0.98423275491E+02  0.15158226547E+03  0.17466123978E+03  0.30512271801E+03  0.17300000000E+03 0.  1.
         -6    1    1    2    0  503 -0.98423275491E+02 -0.15158226547E+03 -0.42802140891E+03  0.49577782408E+03  0.17300000000E+03 0.  1.
</event>
<event>
 4    1  0.3065897E+000  0.1000000E+03  0.7546771E-02  0.1280296E+00
         21   -1    0    0  501  502  0.00000000000E+00  0.00000000000E+00  0.18045613713E+03  0.18045613713E+03  0.00000000000E+00 0.  1.
         21   -1    0    0  502  503 -0.00000000000E+00 -0.00000000000E+00 -0.31696530381E+03  0.31696530381E+03  0.00000000000E+00 0.  1.
          6    1    1    2  501    0 -0.28501156754E+02 -0.60083690607E+02  0.88932590741E+02  0.20557327528E+03  0.17300000000E+03 0.  1.
         -6    1    1    2    0  503  0.28501156754E+02  0.60083690607E+02 -0.22544175742E+03  0.29184816566E+03  0.17300000000E+03 0.  1.
</event>
<event>
 4    1  0.3065897E+000  0.1000000E+03  0.7546771E-02  0.1280296E+00
         21   -1    0    0  503  502  0.00000000000E+00  0.00000000000E+00  0.17060965895E+03  0.17060965895E+03  0.00000000000E+00 0.  1.
         21   -1    0    0  501  503 -0.00000000000E+00 -0.00000000000E+00 -0.29677533123E+03  0.29677533123E+03  0.00000000000E+00 0.  1.
          6    1    1    2  501    0 -0.10124255748E+03  0.53787125199E+02 -0.15338704398E+03  0.25806916814E+03  0.17300000000E+03 0. -1.
         -6    1    1    2    0  502  0.10124255748E+03 -0.53787125199E+02  0.27221371693E+02  0.20931582205E+03  0.17300000000E+03 0. -1.
</event>
<event>
 4    1  0.3065897E+000  0.1000000E+03  0.7546771E-02  0.1280296E+00
         21   -1    0    0  503  502  0.00000000000E+00  0.00000000000E+00  0.71048676894E+02  0.71048676894E+02  0.00000000000E+00 0.  1.
         21   -1    0    0  501  503 -0.00000000000E+00 -0.00000000000E+00 -0.55458963989E+03  0.55458963989E+03  0.00000000000E+00 0.  1.
          6    1    1    2  501    0 -0.60768635918E+02  0.71613960573E+02 -0.28202465982E+03  0.34393065465E+03  0.17300000000E+03 0. -1.
         -6    1    1    2    0  502  0.60768635918E+02 -0.71613960573E+02 -0.20151630317E+03  0.28170766213E+03  0.17300000000E+03 0. -1.
</event>
<event>
 4    1  0.3065897E+000  0.1000000E+03  0.7546771E-02  0.1280296E+00
         21   -1    0    0  501  502  0.00000000000E+00  0.00000000000E+00  0.11767561237E+03  0.11767561237E+03  0.00000000000E+00 0. -1.
         21   -1    0    0  502  503 -0.00000000000E+00 -0.00000000000E+00 -0.39388282994E+03  0.39388282994E+03  0.00000000000E+00 0. -1.
          6    1    1    2  501    0  0.23957245299E+02 -0.48952441262E+02 -0.27589357653E+03  0.33017655380E+03  0.17300000000E+03 0. -1.
         -6    1    1    2    0  503 -0.23957245299E+02  0.48952441262E+02 -0.31364103518E+00  0.18138188851E+03  0.17300000000E+03 0. -1.
</event>
<event>
 4    1  0.3065897E+000  0.1000000E+03  0.7546771E-02  0.1280296E+00
         21   -1    0    0  503  502  0.00000000000E+00  0.00000000000E+00  0.42973289032E+03  0.42973289032E+03  0.00000000000E+00 0.  1.
         21   -1    0    0  501  503 -0.00000000000E+00 -0.00000000000E+00 -0.14209604499E+03  0.14209604499E+03  0.00000000000E+00 0.  1.
          6    1    1    2  501    0  0.48742136063E+02  0.10239500387E+03 -0.12590098387E+02  0.20723909675E+03  0.17300000000E+03 0.  1.
         -6    1    1    2    0  502 -0.48742136063E+02 -0.10239500387E+03  0.30022694371E+03  0.36458983856E+03  0.17300000000E+03 0.  1.
</event>
<event>
 4    1  0.3065897E+000  0.1000000E+03  0.7546771E-02  0.1280296E+00
         21   -1    0    0  503  502  0.00000000000E+00  0.00000000000E+00  0.93552161889E+03  0.93552161889E+03  0.00000000000E+00 0.  1.
         21   -1    0    0  501  503 -0.00000000000E+00 -0.00000000000E+00 -0.96145624479E+02  0.96145624479E+02  0.00000000000E+00 0.  1.
          6    1    1    2  501    0  0.18100433541E+03  0.13274484577E+03  0.58850301311E+03  0.65318340453E+03  0.17300000000E+03 0.  1.
         -6    1    1    2    0  502 -0.18100433541E+03 -0.13274484577E+03  0.25087298130E+03  0.37848383883E+03  0.17300000000E+03 0.  1.
</event>
<event>
 4    1  0.3065897E+000  0.1000000E+03  0.7546771E-02  0.1280296E+00
         21   -1    0    0  503  502  0.00000000000E+00  0.00000000000E+00  0.13804882721E+03  0.13804882721E+03  0.00000000000E+00 0. -1.
         21   -1    0    0  501  503 -0.00000000000E+00 -0.00000000000E+00 -0.26790644200E+03  0.26790644200E+03  0.00000000000E+00 0. -1.
          6    1    1    2  501    0  0.32585821305E+02  0.63132299413E+02 -0.11222040007E+03  0.21810534420E+03  0.17300000000E+03 0. -1.
         -6    1    1    2    0  502 -0.32585821305E+02 -0.63132299413E+02 -0.17637214723E+02  0.18784992500E+03  0.17300000000E+03 0. -1.
</event>
<event>
 4    1  0.3065897E+000  0.1000000E+03  0.7546771E-02  0.1280296E+00
         21   -1    0    0  503  502  0.00000000000E+00  0.00000000000E+00  0.17423647166E+03  0.17423647166E+03  0.00000000000E+00 0. -1.
         21   -1    0    0  501  503 -0.00000000000E+00 -0.00000000000E+00 -0.29475697840E+03  0.29475697840E+03  0.00000000000E+00 0. -1.
          6    1    1    2  501    0  0.14259955399E+03  0.18093178965E+02 -0.31613948348E+02  0.22713528491E+03  0.17300000000E+03 0. -1.
         -6    1    1    2    0  502 -0.14259955399E+03 -0.18093178965E+02 -0.88906558396E+02  0.24185816515E+03  0.17300000000E+03 0. -1.
</event>
<event>
 4    1  0.3065897E+000  0.1000000E+03  0.7546771E-02  0.1280296E+00
         21   -1    0    0  503  502  0.00000000000E+00  0.00000000000E+00  0.74323001357E+03  0.74323001357E+03  0.00000000000E+00 0. -1.
         21   -1    0    0  501  503 -0.00000000000E+00 -0.00000000000E+00 -0.62973888023E+02  0.62973888023E+02  0.00000000000E+00 0. -1.
          6    1    1    2  501    0 -0.25933215995E+02 -0.12202052804E+03  0.27259831566E+03  0.34612191877E+03  0.17300000000E+03 0. -1.
         -6    1    1    2    0  502  0.25933215995E+02  0.12202052804E+03  0.40765780989E+03  0.46008198282E+03  0.17300000000E+03 0. -1.
</event>
<event>
 4    1  0.3065897E+000  0.1000000E+03  0.7546771E-02  0.1280296E+00
         21   -1    0    0  503  502  0.00000000000E+00  0.00000000000E+00  0.72746763113E+02  0.72746763113E+02  0.00000000000E+00 0. -1.
         21   -1    0    0  501  503 -0.00000000000E+00 -0.00000000000E+00 -0.11535284223E+04  0.11535284223E+04  0.00000000000E+00 0. -1.
          6    1    1    2  501    0  0.21510355925E+03  0.81653702716E+02 -0.60896284368E+03  0.67357376237E+03  0.17300000000E+03 0. -1.
         -6    1    1    2    0  502 -0.21510355925E+03 -0.81653702716E+02 -0.47181881549E+03  0.55270142303E+03  0.17300000000E+03 0. -1.
</event>
<event>
 4    1  0.3065897E+000  0.1000000E+03  0.7546771E-02  0.1280296E+00
         21   -1    0    0  503  502  0.00000000000E+00  0.00000000000E+00  0.17020218256E+03  0.17020218256E+03  0.00000000000E+00 0. -1.
         21   -1    0    0  501  503 -0.00000000000E+00 -0.00000000000E+00 -0.32205896970E+03  0.32205896970E+03  0.00000000000E+00 0. -1.
          6    1    1    2  501    0  0.12683034711E+03 -0.28697926612E+02 -0.16981963340E+03  0.27509492149E+03  0.17300000000E+03 0. -1.
         -6    1    1    2    0  502 -0.12683034711E+03  0.28697926612E+02  0.17962846255E+02  0.21716623077E+03  0.17300000000E+03 0. -1.
</event>
<event>
 4    1  0.3065897E+000  0.1000000E+03  0.7546771E-02  0.1280296E+00
         21   -1    0    0  501  502  0.00000000000E+00  0.00000000000E+00  0.53464395187E+03  0.53464395187E+03  0.00000000000E+00 0. -1.
         21   -1    0    0  502  503 -0.00000000000E+00 -0.00000000000E+00 -0.11454853306E+03  0.11454853306E+03  0.00000000000E+00 0. -1.
          6    1    1    2  501    0 -0.15128871370E+03 -0.87084034324E+02  0.17199244149E+03  0.29997050498E+03  0.17300000000E+03 0. -1.
         -6    1    1    2    0  503  0.15128871370E+03  0.87084034324E+02  0.24810297732E+03  0.34922197995E+03  0.17300000000E+03 0. -1.
</event>
<event>
 4    1  0.3065897E+000  0.1000000E+03  0.7546771E-02  0.1280296E+00
         21   -1    0    0  501  502  0.00000000000E+00  0.00000000000E+00  0.16925007877E+03  0.16925007877E+03  0.00000000000E+00 0. -1.
         21   -1    0    0  502  503 -0.00000000000E+00 -0.00000000000E+00 -0.30815698874E+03  0.30815698874E+03  0.00000000000E+00 0. -1.
          6    1    1    2  501    0  0.35613218274E+02 -0.95707213006E+02  0.44079089975E+02  0.20566997377E+03  0.17300000000E+03 0. -1.
         -6    1    1    2    0  503 -0.35613218274E+02  0.95707213006E+02 -0.18298599995E+03  0.27173709374E+03  0.17300000000E+03 0. -1.
</event>
<event>
 4    1  0.3065897E+000  0.1000000E+03  0.7546771E-02  0.1280296E+00
         21   -1    0    0  501  502  0.00000000000E+00  0.00000000000E+00  0.27606655082E+03  0.27606655082E+03  0.00000000000E+00 0. -1.
         21   -1    0    0  502  503 -0.00000000000E+00 -0.00000000000E+00 -0.22247273555E+03  0.22247273555E+03  0.00000000000E+00 0. -1.
          6    1    1    2  501    0  0.14045401938E+03 -0.10818174064E+03  0.34434599373E+02  0.25009070795E+03  0.17300000000E+03 0. -1.
         -6    1    1    2    0  503 -0.14045401938E+03  0.10818174064E+03  0.19159215902E+02  0.24844857842E+03  0.17300000000E+03 0. -1.
</event>
<event>
 4    1  0.3065897E+000  0.1000000E+03  0.7546771E-02  0.1280296E+00
         21   -1    0    0  501  502  0.00000000000E+00  0.00000000000E+00  0.11298963584E+04  0.11298963584E+04  0.00000000000E+00 0.  1.
         21   -1    0    0  502  503 -0.00000000000E+00 -0.00000000000E+00 -0.32790540978E+02  0.32790540978E+02  0.00000000000E+00 0.  1.
          6    1    1    2  501    0 -0.83490757728E+02 -0.98062694725E+01  0.52634998853E+03  0.56039288002E+03  0.17300000000E+03 0.  1.
         -6    1    1    2    0  503  0.83490757728E+02  0.98062694725E+01  0.57075582893E+03  0.60229401940E+03  0.17300000000E+03 0.  1.
</event>
<event>
 4    1  0.3065897E+000  0.1000000E+03  0.7546771E-02  0.1280296E+00
         21   -1    0    0  501  502  0.00000000000E+00  0.00000000000E+00  0.10159815426E+04  0.10159815426E+04  0.00000000000E+00 0.  1.
         21   -1    0    0  502  503 -0.00000000000E+00 -0.00000000000E+00 -0.33248773541E+02  0.33248773541E+02  0.00000000000E+00 0.  1.
          6    1    1    2  501    0  0.60608871179E+02  0.13329952686E+02  0.49174210337E+03  0.52496706481E+03  0.17300000000E+03 0.  1.
         -6    1    1    2    0  503 -0.60608871179E+02 -0.13329952686E+02  0.49099066564E+03  0.52426325129E+03  0.17300000000E+03 0.  1.
</event>
<event>
 4    1  0.3065897E+000  0.1000000E+03  0.7546771E-02  0.1280296E+00
         21   -1    0    0  501  502  0.00000000000E+00  0.00000000000E+00  0.24311696192E+02  0.24311696192E+02  0.00000000000E+00 0.  1.
         21   -1    0    0  502  503 -0.00000000000E+00 -0.00000000000E+00 -0.12568159798E+04  0.12568159798E+04  0.00000000000E+00 0.  1.
          6    1    1    2  501    0  0.16506224104E+02 -0.18769079944E+02 -0.62087944334E+03  0.64501551683E+03  0.17300000000E+03 0.  1.
         -6    1    1    2    0  503 -0.16506224104E+02  0.18769079944E+02 -0.61162484031E+03  0.63611215920E+03  0.17300000000E+03 0.  1.
</event>
<event>
 4    1  0.3065897E+000  0.1000000E+03  0.7546771E-02  0.1280296E+00
         21   -1    0    0  503  502  0.00000000000E+00  0.00000000000E+00  0.12161033509E+03  0.12161033509E+03  0.00000000000E+00 0.  1.
         21   -1    0    0  501  503 -0.00000000000E+00 -0.00000000000E+00 -0.66965409514E+03  0.66965409514E+03  0.00000000000E+00 0.  1.
          6    1    1    2  501    0  0.46997103972E+02 -0.13364702197E+03 -0.28208304184E+02  0.22537737839E+03  0.17300000000E+03 0.  1.
         -6    1    1    2    0  502 -0.46997103972E+02  0.13364702197E+03 -0.51983545587E+03  0.56588705184E+03  0.17300000000E+03 0.  1.
</event>
<event>
 4    1  0.3065897E+000  0.1000000E+03  0.7546771E-02  0.1280296E+00
         21   -1    0    0  503  502  0.00000000000E+00  0.00000000000E+00  0.11399926615E+04  0.11399926615E+04  0.00000000000E+00 0.  1.
         21   -1    0    0  501  503 -0.00000000000E+00 -0.00000000000E+00 -0.32519252661E+02  0.32519252661E+02  0.00000000000E+00 0.  1.
          6    1    1    2  501    0  0.71982586377E+02 -0.31199523248E+02  0.45803892060E+03  0.49586646970E+03  0.17300000000E+03 0.  1.
         -6    1    1    2    0  502 -0.71982586377E+02  0.31199523248E+02  0.64943448827E+03  0.67664544449E+03  0.17300000000E+03 0.  1.
</event>
<event>
 4    1  0.3065897E+000  0.1000000E+03  0.7546771E-02  0.1280296E+00
         21   -1    0    0  503  502  0.00000000000E+00  0.00000000000E+00  0.17519075150E+03  0.17519075150E+03  0.00000000000E+00 0.  1.
         21   -1    0    0  501  503 -0.00000000000E+00 -0.00000000000E+00 -0.25109933821E+03  0.25109933821E+03  0.00000000000E+00 0.  1.
          6    1    1    2  501    0 -0.21892173974E+01  0.65526019837E+02 -0.13836608777E+03  0.23102516355E+03  0.17300000000E+03 0.  1.
         -6    1    1    2    0  502  0.21892173974E+01 -0.65526019837E+02  0.62457501063E+02  0.19526492616E+03  0.17300000000E+03 0.  1.
</event>
<event>
 4    1  0.3065897E+000  0.1000000E+03  0.7546771E-02  0.1280296E+00
         21   -1    0    0  503  502  0.00000000000E+00  0.00000000000E+00  0.11440356904E+04  0.11440356904E+04  0.00000000000E+00 0.  1.
         21   -1    0    0  501  503 -0.00000000000E+00 -0.00000000000E+00 -0.30615174439E+02  0.30615174439E+02  0.00000000000E+00 0. -1.
          6    1    1    2  501    0 -0.40009212217E+02  0.58559579856E+02  0.53123591780E+03  0.56317897850E+03  0.17300000000E+03 0.  1.
         -6    1    1    2    0  502  0.40009212217E+02 -0.58559579856E+02  0.58218459815E+03  0.61147188634E+03  0.17300000000E+03 0.  1.
</event>
<event>
 4    1  0.3065897E+000  0.1000000E+03  0.7546771E-02  0.1280296E+00
         21   -1    0    0  503  502  0.00000000000E+00  0.00000000000E+00  0.51702599852E+03  0.51702599852E+03  0.00000000000E+00 0.  1.
         21   -1    0    0  501  503 -0.00000000000E+00 -0.00000000000E+00 -0.24910294107E+03  0.24910294107E+03  0.00000000000E+00 0. -1.
          6    1    1    2  501    0  0.15736614333E+03 -0.90085699767E+02 -0.14022499228E+03  0.28717866360E+03  0.17300000000E+03 0.  1.
         -6    1    1    2    0  502 -0.15736614333E+03  0.90085699767E+02  0.40814804973E+03  0.47895027599E+03  0.17300000000E+03 0.  1.
</event>
<event>
 4    1  0.3065897E+000  0.1000000E+03  0.7546771E-02  0.1280296E+00
         21   -1    0    0  503  502  0.00000000000E+00  0.00000000000E+00  0.11924482116E+03  0.11924482116E+03  0.00000000000E+00 0.  1.
         21   -1    0    0  501  503 -0.00000000000E+00 -0.00000000000E+00 -0.72838789497E+03  0.72838789497E+03  0.00000000000E+00 0. -1.
          6    1    1    2  501    0 -0.61963255019E+01 -0.98725968579E+02 -0.61680672913E+03  0.64820116663E+03  0.17300000000E+03 0.  1.
         -6    1    1    2    0  502  0.61963255019E+01  0.98725968579E+02  0.76636553175E+01  0.19943154950E+03  0.17300000000E+03 0.  1.
</event>
<event>
 4    1  0.3065897E+000  0.1000000E+03  0.7546771E-02  0.1280296E+00
         21   -1    0    0  503  502  0.00000000000E+00  0.00000000000E+00  0.61158299300E+02  0.61158299300E+02  0.00000000000E+00 0.  1.
         21   -1    0    0  501  503 -0.00000000000E+00 -0.00000000000E+00 -0.70070688280E+03  0.70070688280E+03  0.00000000000E+00 0. -1.
          6    1    1    2  501    0  0.10858045690E+03 -0.27823110780E+02 -0.28480183051E+03  0.35157491915E+03  0.17300000000E+03 0.  1.
         -6    1    1    2    0  502 -0.10858045690E+03  0.27823110780E+02 -0.35474675299E+03  0.41029026295E+03  0.17300000000E+03 0. -1.
</event>
<event>
 4    1  0.3065897E+000  0.1000000E+03  0.7546771E-02  0.1280296E+00
         21   -1    0    0  501  502  0.00000000000E+00  0.00000000000E+00  0.64491502012E+02  0.64491502012E+02  0.00000000000E+00 0.  1.
         21   -1    0    0  502  503 -0.00000000000E+00 -0.00000000000E+00 -0.15947824828E+04  0.15947824828E+04  0.00000000000E+00 0.  1.
          6    1    1    2  501    0 -0.90224564922E+02 -0.19642682883E+03 -0.34643728602E+03  0.44347690396E+03  0.17300000000E+03 0.  1.
         -6    1    1    2    0  503  0.90224564922E+02  0.19642682883E+03 -0.11838536948E+04  0.12157970809E+04  0.17300000000E+03 0.  1.
</event>
<event>
 4    1  0.3065897E+000  0.1000000E+03  0.7546771E-02  0.1280296E+00
         21   -1    0    0  501  502  0.00000000000E+00  0.00000000000E+00  0.28425368446E+04  0.28425368446E+04  0.00000000000E+00 0.  1.
         21   -1    0    0  502  503 -0.00000000000E+00 -0.00000000000E+00 -0.19731253604E+02  0.19731253604E+02  0.00000000000E+00 0.  1.
          6    1    1    2  501    0  0.12860691715E+03  0.50999307215E+01  0.20032451258E+04  0.20148165630E+04  0.17300000000E+03 0.  1.
         -6    1    1    2    0  503 -0.12860691715E+03 -0.50999307215E+01  0.81956046512E+03  0.84745153515E+03  0.17300000000E+03 0.  1.
</event>
<event>
 4    1  0.3065897E+000  0.1000000E+03  0.7546771E-02  0.1280296E+00
         21   -1    0    0  501  502  0.00000000000E+00  0.00000000000E+00  0.11285705177E+04  0.11285705177E+04  0.00000000000E+00 0.  1.
         21   -1    0    0  502  503 -0.00000000000E+00 -0.00000000000E+00 -0.28910840451E+02  0.28910840451E+02  0.00000000000E+00 0.  1.
          6    1    1    2  501    0  0.47173110424E+02 -0.20603333931E+02  0.52737399649E+03  0.55740661270E+03  0.17300000000E+03 0.  1.
         -6    1    1    2    0  503 -0.47173110424E+02  0.20603333931E+02  0.57228568073E+03  0.60007474542E+03  0.17300000000E+03 0.  1.
</event>
<event>
 4    1  0.3065897E+000  0.1000000E+03  0.7546771E-02  0.1280296E+00
         21   -1    0    0  503  502  0.00000000000E+00  0.00000000000E+00  0.24350304383E+04  0.24350304383E+04  0.00000000000E+00 0.  1.
         21   -1    0    0  501  503 -0.00000000000E+00 -0.00000000000E+00 -0.56549188995E+02  0.56549188995E+02  0.00000000000E+00 0. -1.
          6    1    1    2  501    0  0.25933993081E+03  0.37552758863E+02  0.52537201541E+03  0.61205568700E+03  0.17300000000E+03 0. -1.
         -6    1    1    2    0  502 -0.25933993081E+03 -0.37552758863E+02  0.18531092339E+04  0.18795239403E+04  0.17300000000E+03 0.  1.
</event>
<event>
 4    1  0.3065897E+000  0.1000000E+03  0.7546771E-02  0.1280296E+00
         21   -1    0    0  503  502  0.00000000000E+00  0.00000000000E+00  0.94621943575E+03  0.94621943575E+03  0.00000000000E+00 0.  1.
         21   -1    0    0  501  503 -0.00000000000E+00 -0.00000000000E+00 -0.86737625138E+02  0.86737625138E+02  0.00000000000E+00 0. -1.
          6    1    1    2  501    0 -0.13608540286E+03 -0.42576255564E+02  0.10819198474E+03  0.24893067302E+03  0.17300000000E+03 0. -1.
         -6    1    1    2    0  502  0.13608540286E+03  0.42576255564E+02  0.75128982587E+03  0.78402638786E+03  0.17300000000E+03 0.  1.
</event>
<event>
 4    1  0.3065897E+000  0.1000000E+03  0.7546771E-02  0.1280296E+00
         21   -1    0    0  503  502  0.00000000000E+00  0.00000000000E+00  0.41935543201E+03  0.41935543201E+03  0.00000000000E+00 0.  1.
         21   -1    0    0  501  503 -0.00000000000E+00 -0.00000000000E+00 -0.41806930697E+03  0.41806930697E+03  0.00000000000E+00 0. -1.
          6    1    1    2  501    0  0.16261198145E+03 -0.45899649739E+02 -0.34117776199E+03  0.41818739775E+03  0.17300000000E+03 0. -1.
         -6    1    1    2    0  502 -0.16261198145E+03  0.45899649739E+02  0.34246388703E+03  0.41923734123E+03  0.17300000000E+03 0.  1.
</event>
<event>
 4    1  0.3065897E+000  0.1000000E+03  0.7546771E-02  0.1280296E+00
         21   -1    0    0  503  502  0.00000000000E+00  0.00000000000E+00  0.98249861976E+03  0.98249861976E+03  0.00000000000E+00 0.  1.
         21   -1    0    0  501  503 -0.00000000000E+00 -0.00000000000E+00 -0.99711566077E+02  0.99711566077E+02  0.00000000000E+00 0. -1.
          6    1    1    2  501    0 -0.33842776150E+02 -0.90723323451E+02  0.22677901021E+02  0.19954784416E+03  0.17300000000E+03 0. -1.
         -6    1    1    2    0  502  0.33842776150E+02  0.90723323451E+02  0.86010915266E+03  0.88266234168E+03  0.17300000000E+03 0.  1.
</event>
<event>
 4    1  0.3065897E+000  0.1000000E+03  0.7546771E-02  0.1280296E+00
         21   -1    0    0  503  502  0.00000000000E+00  0.00000000000E+00  0.36686211473E+02  0.36686211473E+02  0.00000000000E+00 0.  1.
         21   -1    0    0  501  503 -0.00000000000E+00 -0.00000000000E+00 -0.15329859166E+04  0.15329859166E+04  0.00000000000E+00 0. -1.
          6    1    1    2  501    0  0.70123263790E+02 -0.18095670170E+02 -0.12284874605E+04  0.12427208721E+04  0.17300000000E+03 0. -1.
         -6    1    1    2    0  502 -0.70123263790E+02  0.18095670170E+02 -0.26781224470E+03  0.32695125602E+03  0.17300000000E+03 0.  1.
</event>
<event>
 4    1  0.3065897E+000  0.1000000E+03  0.7546771E-02  0.1280296E+00
         21   -1    0    0  503  502  0.00000000000E+00  0.00000000000E+00  0.98148552595E+02  0.98148552595E+02  0.00000000000E+00 0.  1.
         21   -1    0    0  501  503 -0.00000000000E+00 -0.00000000000E+00 -0.70668756643E+03  0.70668756643E+03  0.00000000000E+00 0. -1.
          6    1    1    2  501    0 -0.49543953316E+02 -0.18174625551E+03 -0.40024236612E+03  0.47498342743E+03  0.17300000000E+03 0.  1.
         -6    1    1    2    0  502  0.49543953316E+02  0.18174625551E+03 -0.20829664772E+03  0.32985269160E+03  0.17300000000E+03 0.  1.
</event>
<event>
 4    1  0.3065897E+000  0.1000000E+03  0.7546771E-02  0.1280296E+00
         21   -1    0    0  501  502  0.00000000000E+00  0.00000000000E+00  0.65427556404E+02  0.65427556404E+02  0.00000000000E+00 0.  1.
         21   -1    0    0  502  503 -0.00000000000E+00 -0.00000000000E+00 -0.56519899054E+03  0.56519899054E+03  0.00000000000E+00 0. -1.
          6    1    1    2  501    0 -0.28181660783E+02  0.54296835505E+02 -0.15557533863E+03  0.24057231416E+03  0.17300000000E+03 0.  1.
         -6    1    1    2    0  503  0.28181660783E+02 -0.54296835505E+02 -0.34419609551E+03  0.39005423279E+03  0.17300000000E+03 0. -1.
</event>
<event>
 4    1  0.3065897E+000  0.1000000E+03  0.7546771E-02  0.1280296E+00
         21   -1    0    0  501  502  0.00000000000E+00  0.00000000000E+00  0.55108815764E+02  0.55108815764E+02  0.00000000000E+00 0.  1.
         21   -1    0    0  502  503 -0.00000000000E+00 -0.00000000000E+00 -0.68961099860E+03  0.68961099860E+03  0.00000000000E+00 0. -1.
          6    1    1    2  501    0  0.62419141012E+01 -0.77032996557E+02 -0.22968711789E+03  0.29775529579E+03  0.17300000000E+03 0. -1.
         -6    1    1    2    0  503 -0.62419141012E+01  0.77032996557E+02 -0.40481506495E+03  0.44696451857E+03  0.17300000000E+03 0. -1.
</event>
<event>
 4    1  0.3065897E+000  0.1000000E+03  0.7546771E-02  0.1280296E+00
         21   -1    0    0  503  502  0.00000000000E+00  0.00000000000E+00  0.59371854487E+03  0.59371854487E+03  0.00000000000E+00 0.  1.
         21   -1    0    0  501  503 -0.00000000000E+00 -0.00000000000E+00 -0.58365383022E+02  0.58365383022E+02  0.00000000000E+00 0.  1.
          6    1    1    2  501    0  0.18532830058E+02  0.38376504744E+02  0.17323634834E+03  0.24850765440E+03  0.17300000000E+03 0.  1.
         -6    1    1    2    0  502 -0.18532830058E+02 -0.38376504744E+02  0.36211681350E+03  0.40357627349E+03  0.17300000000E+03 0.  1.
</event>
<event>
 4    1  0.3065897E+000  0.1000000E+03  0.7546771E-02  0.1280296E+00
         21   -1    0    0  503  502  0.00000000000E+00  0.00000000000E+00  0.29922133969E+03  0.29922133969E+03  0.00000000000E+00 0. -1.
         21   -1    0    0  501  503 -0.00000000000E+00 -0.00000000000E+00 -0.11898277777E+03  0.11898277777E+03  0.00000000000E+00 0.  1.
          6    1    1    2  501    0  0.56364354644E+02 -0.42474023646E+02  0.60962691909E+02  0.19653608565E+03  0.17300000000E+03 0.  1.
         -6    1    1    2    0  502 -0.56364354644E+02  0.42474023646E+02  0.11927587001E+03  0.22166803181E+03  0.17300000000E+03 0. -1.
</event>
<event>
 4    1  0.3065897E+000  0.1000000E+03  0.7546771E-02  0.1280296E+00
         21   -1    0    0  503  502  0.00000000000E+00  0.00000000000E+00  0.51252308105E+03  0.51252308105E+03  0.00000000000E+00 0. -1.
         21   -1    0    0  501  503 -0.00000000000E+00 -0.00000000000E+00 -0.12255608218E+03  0.12255608218E+03  0.00000000000E+00 0.  1.
          6    1    1    2  501    0  0.14636322618E+03 -0.84065424247E+02  0.11099207583E+03  0.26596509250E+03  0.17300000000E+03 0.  1.
         -6    1    1    2    0  502 -0.14636322618E+03  0.84065424247E+02  0.27897492303E+03  0.36911407073E+03  0.17300000000E+03 0. -1.
</event>
<event>
 4    1  0.3065897E+000  0.1000000E+03  0.7546771E-02  0.1280296E+00
         21   -1    0    0  503  502  0.00000000000E+00  0.00000000000E+00  0.64326265237E+03  0.64326265237E+03  0.00000000000E+00 0. -1.
         21   -1    0    0  501  503 -0.00000000000E+00 -0.00000000000E+00 -0.88037726140E+02  0.88037726140E+02  0.00000000000E+00 0.  1.
          6    1    1    2  501    0  0.92889213594E+02  0.92765603114E+02  0.12809971214E+03  0.25213567652E+03  0.17300000000E+03 0.  1.
         -6    1    1    2    0  502 -0.92889213594E+02 -0.92765603114E+02  0.42712521409E+03  0.47916470199E+03  0.17300000000E+03 0. -1.
</event>
<event>
 4    1  0.3065897E+000  0.1000000E+03  0.7546771E-02  0.1280296E+00
         21   -1    0    0  503  502  0.00000000000E+00  0.00000000000E+00  0.13038749927E+04  0.13038749927E+04  0.00000000000E+00 0. -1.
         21   -1    0    0  501  503 -0.00000000000E+00 -0.00000000000E+00 -0.32830715703E+02  0.32830715703E+02  0.00000000000E+00 0.  1.
          6    1    1    2  501    0  0.34671494868E+02 -0.38552205350E+02  0.30943796643E+03  0.35828653360E+03  0.17300000000E+03 0.  1.
         -6    1    1    2    0  502 -0.34671494868E+02  0.38552205350E+02  0.96160631059E+03  0.97841917482E+03  0.17300000000E+03 0. -1.
</event>
<event>
 4    1  0.3065897E+000  0.1000000E+03  0.7546771E-02  0.1280296E+00
         21   -1    0    0  503  502  0.00000000000E+00  0.00000000000E+00  0.13432603522E+03  0.13432603522E+03  0.00000000000E+00 0.  1.
         21   -1    0    0  501  503 -0.00000000000E+00 -0.00000000000E+00 -0.39298130233E+03  0.39298130233E+03  0.00000000000E+00 0.  1.
          6    1    1    2  501    0  0.14258140734E+02 -0.26227868906E+02 -0.29940923994E+03  0.34708225055E+03  0.17300000000E+03 0. -1.
         -6    1    1    2    0  502 -0.14258140734E+02  0.26227868906E+02  0.40753972824E+02  0.18022508700E+03  0.17300000000E+03 0. -1.
</event>
<event>
 4    1  0.3065897E+000  0.1000000E+03  0.7546771E-02  0.1280296E+00
         21   -1    0    0  503  502  0.00000000000E+00  0.00000000000E+00  0.10419531954E+03  0.10419531954E+03  0.00000000000E+00 0.  1.
         21   -1    0    0  501  503 -0.00000000000E+00 -0.00000000000E+00 -0.81115621264E+03  0.81115621264E+03  0.00000000000E+00 0.  1.
          6    1    1    2  501    0  0.11853452063E+03  0.37071284990E+02 -0.66503237978E+03  0.69829920443E+03  0.17300000000E+03 0. -1.
         -6    1    1    2    0  502 -0.11853452063E+03 -0.37071284990E+02 -0.41928513328E+02  0.21705232775E+03  0.17300000000E+03 0. -1.
</event>
<event>
 4    1  0.3065897E+000  0.1000000E+03  0.7546771E-02  0.1280296E+00
         21   -1    0    0  501  502  0.00000000000E+00  0.00000000000E+00  0.11540711394E+04  0.11540711394E+04  0.00000000000E+00 0.  1.
         21   -1    0    0  502  503 -0.00000000000E+00 -0.00000000000E+00 -0.10640031574E+03  0.10640031574E+03  0.00000000000E+00 0. -1.
          6    1    1    2  501    0 -0.42142576036E+02 -0.16100312888E+03  0.98295684437E+03  0.10118454240E+04  0.17300000000E+03 0.  1.
         -6    1    1    2    0  503  0.42142576036E+02  0.16100312888E+03  0.64713979272E+02  0.24862603109E+03  0.17300000000E+03 0. -1.
</event>
<event>
 4    1  0.3065897E+000  0.1000000E+03  0.7546771E-02  0.1280296E+00
         21   -1    0    0  501  502  0.00000000000E+00  0.00000000000E+00  0.99509695929E+02  0.99509695929E+02  0.00000000000E+00 0.  1.
         21   -1    0    0  502  503 -0.00000000000E+00 -0.00000000000E+00 -0.45970591238E+03  0.45970591238E+03  0.00000000000E+00 0. -1.
          6    1    1    2  501    0  0.50735382911E+02 -0.10459894993E+03 -0.11738598903E+03  0.23921431777E+03  0.17300000000E+03 0.  1.
         -6    1    1    2    0  503 -0.50735382911E+02  0.10459894993E+03 -0.24281022743E+03  0.32000129055E+03  0.17300000000E+03 0. -1.
</event>
<event>
 4    1  0.3065897E+000  0.1000000E+03  0.7546771E-02  0.1280296E+00
         21   -1    0    0  501  502  0.00000000000E+00  0.00000000000E+00  0.16920462174E+04  0.16920462174E+04  0.00000000000E+00 0.  1.
         21   -1    0    0  502  503 -0.00000000000E+00 -0.00000000000E+00 -0.24919710432E+02  0.24919710432E+02  0.00000000000E+00 0. -1.
          6    1    1    2  501    0 -0.11053186523E+03 -0.13605638573E+01  0.85088054366E+03  0.87529757451E+03  0.17300000000E+03 0.  1.
         -6    1    1    2    0  503  0.11053186523E+03  0.13605638573E+01  0.81624596336E+03  0.84166835337E+03  0.17300000000E+03 0. -1.
</event>
<event>
 4    1  0.3065897E+000  0.1000000E+03  0.7546771E-02  0.1280296E+00
         21   -1    0    0  501  502  0.00000000000E+00  0.00000000000E+00  0.97443938650E+03  0.97443938650E+03  0.00000000000E+00 0.  1.
         21   -1    0    0  502  503 -0.00000000000E+00 -0.00000000000E+00 -0.13608952252E+03  0.13608952252E+03  0.00000000000E+00 0. -1.
          6    1    1    2  501    0  0.29011073443E+03  0.27361210326E+02  0.62243077235E+03  0.70870440978E+03  0.17300000000E+03 0.  1.
         -6    1    1    2    0  503 -0.29011073443E+03 -0.27361210326E+02  0.21591909163E+03  0.40182449925E+03  0.17300000000E+03 0. -1.
</event>
<event>
 4    1  0.3065897E+000  0.1000000E+03  0.7546771E-02  0.1280296E+00
         21   -1    0    0  501  502  0.00000000000E+00  0.00000000000E+00  0.31809851487E+03  0.31809851487E+03  0.00000000000E+00 0.  1.
         21   -1    0    0  502  503 -0.00000000000E+00 -0.00000000000E+00 -0.17995054748E+03  0.17995054748E+03  0.00000000000E+00 0. -1.
          6    1    1    2  501    0 -0.56490806555E+02 -0.50646590494E+02  0.22189250731E+03  0.29141306277E+03  0.17300000000E+03 0.  1.
         -6    1    1    2    0  503  0.56490806555E+02  0.50646590494E+02 -0.83744539916E+02  0.20663599957E+03  0.17300000000E+03 0. -1.
</event>
<event>
 4    1  0.3065897E+000  0.1000000E+03  0.7546771E-02  0.1280296E+00
         21   -1    0    0  503  502  0.00000000000E+00  0.00000000000E+00  0.35803595508E+02  0.35803595508E+02  0.00000000000E+00 0. -1.
         21   -1    0    0  501  503 -0.00000000000E+00 -0.00000000000E+00 -0.13562549875E+04  0.13562549875E+04  0.00000000000E+00 0.  1.
          6    1    1    2  501    0  0.27210980533E+02  0.56325507278E+02 -0.10434034483E+04  0.10594964635E+04  0.17300000000E+03 0. -1.
         -6    1    1    2    0  502 -0.27210980533E+02 -0.56325507278E+02 -0.27704794369E+03  0.33256211952E+03  0.17300000000E+03 0.  1.
</event>
<event>
 4    1  0.3065897E+000  0.1000000E+03  0.7546771E-02  0.1280296E+00
         21   -1    0    0  503  502  0.00000000000E+00  0.00000000000E+00  0.13278027782E+03  0.13278027782E+03  0.00000000000E+00 0. -1.
         21   -1    0    0  501  503 -0.00000000000E+00 -0.00000000000E+00 -0.33819816921E+03  0.33819816921E+03  0.00000000000E+00 0.  1.
          6    1    1    2  501    0 -0.90121739685E+02 -0.24865479141E+01 -0.19467555576E+03  0.27560058580E+03  0.17300000000E+03 0. -1.
         -6    1    1    2    0  502  0.90121739685E+02  0.24865479141E+01 -0.10742335632E+02  0.19537786123E+03  0.17300000000E+03 0.  1.
</event>
<event>
 4    1  0.3065897E+000  0.1000000E+03  0.7546771E-02  0.1280296E+00
         21   -1    0    0  503  502  0.00000000000E+00  0.00000000000E+00  0.45843632863E+02  0.45843632863E+02  0.00000000000E+00 0.  1.
         21   -1    0    0  501  503 -0.00000000000E+00 -0.00000000000E+00 -0.15432619014E+04  0.15432619014E+04  0.00000000000E+00 0. -1.
          6    1    1    2  501    0  0.10305678385E+03 -0.45332584599E+02 -0.12498458625E+04  0.12667752066E+04  0.17300000000E+03 0.  1.
         -6    1    1    2    0  502 -0.10305678385E+03  0.45332584599E+02 -0.24757240598E+03  0.32233032766E+03  0.17300000000E+03 0. -1.
</event>
<event>
 4    1  0.3065897E+000  0.1000000E+03  0.7546771E-02  0.1280296E+00
         21   -1    0    0  503  502  0.00000000000E+00  0.00000000000E+00  0.56203457409E+03  0.56203457409E+03  0.00000000000E+00 0.  1.
         21   -1    0    0  501  503 -0.00000000000E+00 -0.00000000000E+00 -0.16149789191E+03  0.16149789191E+03  0.00000000000E+00 0. -1.
          6    1    1    2  501    0  0.14027940251E+03  0.84945506806E+02  0.42149977010E+03  0.48423662201E+03  0.17300000000E+03 0.  1.
         -6    1    1    2    0  502 -0.14027940251E+03 -0.84945506806E+02 -0.20963087918E+02  0.23929584399E+03  0.17300000000E+03 0. -1.
</event>
<event>
 4    1  0.3065897E+000  0.1000000E+03  0.7546771E-02  0.1280296E+00
         21   -1    0    0  503  502  0.00000000000E+00  0.00000000000E+00  0.27281104951E+04  0.27281104951E+04  0.00000000000E+00 0.  1.
         21   -1    0    0  501  503 -0.00000000000E+00 -0.00000000000E+00 -0.47536008840E+02  0.47536008840E+02  0.00000000000E+00 0. -1.
          6    1    1    2  501    0 -0.24624114897E+03  0.19523161871E+03  0.12181510557E+04  0.12698704985E+04  0.17300000000E+03 0.  1.
         -6    1    1    2    0  502  0.24624114897E+03 -0.19523161871E+03  0.14624234306E+04  0.15057760055E+04  0.17300000000E+03 0. -1.
</event>
<event>
 4    1  0.3065897E+000  0.1000000E+03  0.7546771E-02  0.1280296E+00
         21   -1    0    0  503  502  0.00000000000E+00  0.00000000000E+00  0.16542627438E+04  0.16542627438E+04  0.00000000000E+00 0.  1.
         21   -1    0    0  501  503 -0.00000000000E+00 -0.00000000000E+00 -0.44113228678E+02  0.44113228678E+02  0.00000000000E+00 0. -1.
          6    1    1    2  501    0 -0.43855545972E+02  0.11223725867E+03  0.27415029263E+03  0.34584374231E+03  0.17300000000E+03 0.  1.
         -6    1    1    2    0  502  0.43855545972E+02 -0.11223725867E+03  0.13359992225E+04  0.13525322302E+04  0.17300000000E+03 0. -1.
</event>
<event>
 4    1  0.3065897E+000  0.1000000E+03  0.7546771E-02  0.1280296E+00
         21   -1    0    0  503  502  0.00000000000E+00  0.00000000000E+00  0.61665210596E+03  0.61665210596E+03  0.00000000000E+00 0. -1.
         21   -1    0    0  501  503 -0.00000000000E+00 -0.00000000000E+00 -0.15684848576E+03  0.15684848576E+03  0.00000000000E+00 0.  1.
          6    1    1    2  501    0 -0.20162863558E+03 -0.98751262381E+02  0.70714934039E+02  0.29212244077E+03  0.17300000000E+03 0.  1.
         -6    1    1    2    0  502  0.20162863558E+03  0.98751262381E+02  0.38908868616E+03  0.48137815094E+03  0.17300000000E+03 0. -1.
</event>
<event>
 4    1  0.3065897E+000  0.1000000E+03  0.7546771E-02  0.1280296E+00
         21   -1    0    0  501  502  0.00000000000E+00  0.00000000000E+00  0.56113178410E+03  0.56113178410E+03  0.00000000000E+00 0.  1.
         21   -1    0    0  502  503 -0.00000000000E+00 -0.00000000000E+00 -0.72620338680E+02  0.72620338680E+02  0.00000000000E+00 0. -1.
          6    1    1    2  501    0  0.94701034801E+01  0.25394346214E+02  0.40190350721E+03  0.43839478189E+03  0.17300000000E+03 0. -1.
         -6    1    1    2    0  503 -0.94701034801E+01 -0.25394346214E+02  0.86607938211E+02  0.19535734089E+03  0.17300000000E+03 0.  1.
</event>
<event>
 4    1  0.3065897E+000  0.1000000E+03  0.7546771E-02  0.1280296E+00
         21   -1    0    0  501  502  0.00000000000E+00  0.00000000000E+00  0.11713376319E+03  0.11713376319E+03  0.00000000000E+00 0. -1.
         21   -1    0    0  502  503 -0.00000000000E+00 -0.00000000000E+00 -0.56905285585E+03  0.56905285585E+03  0.00000000000E+00 0. -1.
          6    1    1    2  501    0 -0.15952380955E+03  0.89065964785E+02 -0.14909269684E+03  0.29246918496E+03  0.17300000000E+03 0. -1.
         -6    1    1    2    0  503  0.15952380955E+03 -0.89065964785E+02 -0.30282639582E+03  0.39371743408E+03  0.17300000000E+03 0. -1.
</event>
<event>
 4    1  0.3065897E+000  0.1000000E+03  0.7546771E-02  0.1280296E+00
         21   -1    0    0  503  502  0.00000000000E+00  0.00000000000E+00  0.19008755843E+03  0.19008755843E+03  0.00000000000E+00 0.  1.
         21   -1    0    0  501  503 -0.00000000000E+00 -0.00000000000E+00 -0.20992852793E+03  0.20992852793E+03  0.00000000000E+00 0. -1.
          6    1    1    2  501    0 -0.17275596909E+02  0.86585277864E+02  0.36831221596E+02  0.19768913849E+03  0.17300000000E+03 0. -1.
         -6    1    1    2    0  502  0.17275596909E+02 -0.86585277864E+02 -0.56672191102E+02  0.20232694787E+03  0.17300000000E+03 0.  1.
</event>
<event>
 4    1  0.3065897E+000  0.1000000E+03  0.7546771E-02  0.1280296E+00
         21   -1    0    0  501  502  0.00000000000E+00  0.00000000000E+00  0.77310885485E+02  0.77310885485E+02  0.00000000000E+00 0. -1.
         21   -1    0    0  502  503 -0.00000000000E+00 -0.00000000000E+00 -0.82263185056E+03  0.82263185056E+03  0.00000000000E+00 0.  1.
          6    1    1    2  501    0  0.44722215338E+01 -0.96790274854E+02 -0.94628070747E+02  0.21970851109E+03  0.17300000000E+03 0. -1.
         -6    1    1    2    0  503 -0.44722215338E+01  0.96790274854E+02 -0.65069289433E+03  0.68023422496E+03  0.17300000000E+03 0.  1.
</event>
<event>
 4    1  0.3065897E+000  0.1000000E+03  0.7546771E-02  0.1280296E+00
         21   -1    0    0  501  502  0.00000000000E+00  0.00000000000E+00  0.16281874346E+03  0.16281874346E+03  0.00000000000E+00 0. -1.
         21   -1    0    0  502  503 -0.00000000000E+00 -0.00000000000E+00 -0.98163618446E+03  0.98163618446E+03  0.00000000000E+00 0.  1.
          6    1    1    2  501    0  0.85367547730E+02  0.81684211707E+02  0.77959907527E+02  0.22353227022E+03  0.17300000000E+03 0. -1.
         -6    1    1    2    0  503 -0.85367547730E+02 -0.81684211707E+02 -0.89677734852E+03  0.92092265770E+03  0.17300000000E+03 0.  1.
</event>
<event>
 4    1  0.3065897E+000  0.1000000E+03  0.7546771E-02  0.1280296E+00
         21   -1    0    0  501  502  0.00000000000E+00  0.00000000000E+00  0.69097056331E+02  0.69097056331E+02  0.00000000000E+00 0. -1.
         21   -1    0    0  502  503 -0.00000000000E+00 -0.00000000000E+00 -0.89532540249E+03  0.89532540249E+03  0.00000000000E+00 0.  1.
          6    1    1    2  501    0 -0.10097267135E+03 -0.73852237984E+02 -0.16570230600E+03  0.27025152659E+03  0.17300000000E+03 0. -1.
         -6    1    1    2    0  503  0.10097267135E+03  0.73852237984E+02 -0.66052604016E+03  0.69417093223E+03  0.17300000000E+03 0.  1.
</event>
<event>
 4    1  0.3065897E+000  0.1000000E+03  0.7546771E-02  0.1280296E+00
         21   -1    0    0  501  502  0.00000000000E+00  0.00000000000E+00  0.14158923985E+04  0.14158923985E+04  0.00000000000E+00 0. -1.
         21   -1    0    0  502  503 -0.00000000000E+00 -0.00000000000E+00 -0.30319866904E+02  0.30319866904E+02  0.00000000000E+00 0.  1.
          6    1    1    2  501    0  0.10856949353E+03  0.22616935662E+02  0.78524172217E+03  0.81168492836E+03  0.17300000000E+03 0.  1.
         -6    1    1    2    0  503 -0.10856949353E+03 -0.22616935662E+02  0.60033080947E+03  0.63452733708E+03  0.17300000000E+03 0. -1.
</event>
<event>
 4    1  0.3065897E+000  0.1000000E+03  0.7546771E-02  0.1280296E+00
         21   -1    0    0  501  502  0.00000000000E+00  0.00000000000E+00  0.43107620564E+03  0.43107620564E+03  0.00000000000E+00 0. -1.
         21   -1    0    0  502  503 -0.00000000000E+00 -0.00000000000E+00 -0.74551093238E+02  0.74551093238E+02  0.00000000000E+00 0.  1.
          6    1    1    2  501    0 -0.38625964636E+02  0.26505329521E+02  0.17304181407E+03  0.24913242875E+03  0.17300000000E+03 0.  1.
         -6    1    1    2    0  503  0.38625964636E+02 -0.26505329521E+02  0.18348329833E+03  0.25649487013E+03  0.17300000000E+03 0. -1.
</event>
<event>
 4    1  0.3065897E+000  0.1000000E+03  0.7546771E-02  0.1280296E+00
         21   -1    0    0  503  502  0.00000000000E+00  0.00000000000E+00  0.17306659865E+04  0.17306659865E+04  0.00000000000E+00 0. -1.
         21   -1    0    0  501  503 -0.00000000000E+00 -0.00000000000E+00 -0.25723283853E+02  0.25723283853E+02  0.00000000000E+00 0. -1.
          6    1    1    2  501    0 -0.77221790045E+02  0.77779963693E+02  0.64120285606E+03  0.67311442581E+03  0.17300000000E+03 0. -1.
         -6    1    1    2    0  502  0.77221790045E+02 -0.77779963693E+02  0.10637398466E+04  0.10832748445E+04  0.17300000000E+03 0. -1.
</event>
<event>
 4    1  0.3065897E+000  0.1000000E+03  0.7546771E-02  0.1280296E+00
         21   -1    0    0  503  502  0.00000000000E+00  0.00000000000E+00  0.47093377247E+02  0.47093377247E+02  0.00000000000E+00 0. -1.
         21   -1    0    0  501  503 -0.00000000000E+00 -0.00000000000E+00 -0.14808078368E+04  0.14808078368E+04  0.00000000000E+00 0. -1.
          6    1    1    2  501    0  0.16299547499E+02 -0.60189879691E+02 -0.12651298877E+04  0.12784252538E+04  0.17300000000E+03 0. -1.
         -6    1    1    2    0  502 -0.16299547499E+02  0.60189879691E+02 -0.16858457188E+03  0.24947596025E+03  0.17300000000E+03 0. -1.
</event>
<event>
 4    1  0.3065897E+000  0.1000000E+03  0.7546771E-02  0.1280296E+00
         21   -1    0    0  503  502  0.00000000000E+00  0.00000000000E+00  0.14311467592E+03  0.14311467592E+03  0.00000000000E+00 0. -1.
         21   -1    0    0  501  503 -0.00000000000E+00 -0.00000000000E+00 -0.31089867416E+03  0.31089867416E+03  0.00000000000E+00 0. -1.
          6    1    1    2  501    0  0.44519831841E+02  0.17551091088E+02  0.35341899964E+02  0.18294290399E+03  0.17300000000E+03 0. -1.
         -6    1    1    2    0  502 -0.44519831841E+02 -0.17551091088E+02 -0.20312589821E+03  0.27107044610E+03  0.17300000000E+03 0. -1.
</event>
<event>
 4    1  0.3065897E+000  0.1000000E+03  0.7546771E-02  0.1280296E+00
         21   -1    0    0  503  502  0.00000000000E+00  0.00000000000E+00  0.16782858427E+03  0.16782858427E+03  0.00000000000E+00 0. -1.
         21   -1    0    0  501  503 -0.00000000000E+00 -0.00000000000E+00 -0.26385742058E+03  0.26385742058E+03  0.00000000000E+00 0.  1.
          6    1    1    2  501    0  0.78770503687E+02  0.33915308804E+02 -0.13382313886E+03  0.23493120890E+03  0.17300000000E+03 0.  1.
         -6    1    1    2    0  502 -0.78770503687E+02 -0.33915308804E+02  0.37794302546E+02  0.19675479594E+03  0.17300000000E+03 0. -1.
</event>
<event>
 4    1  0.3065897E+000  0.1000000E+03  0.7546771E-02  0.1280296E+00
         21   -1    0    0  503  502  0.00000000000E+00  0.00000000000E+00  0.16477543379E+03  0.16477543379E+03  0.00000000000E+00 0. -1.
         21   -1    0    0  501  503 -0.00000000000E+00 -0.00000000000E+00 -0.29448002724E+03  0.29448002724E+03  0.00000000000E+00 0.  1.
          6    1    1    2  501    0 -0.55309297149E+01  0.29812129519E+02 -0.20344055937E+03  0.26876833044E+03  0.17300000000E+03 0.  1.
         -6    1    1    2    0  502  0.55309297149E+01 -0.29812129519E+02  0.73735965914E+02  0.19048713059E+03  0.17300000000E+03 0. -1.
</event>
<event>
 4    1  0.3065897E+000  0.1000000E+03  0.7546771E-02  0.1280296E+00
         21   -1    0    0  503  502  0.00000000000E+00  0.00000000000E+00  0.96945326404E+02  0.96945326404E+02  0.00000000000E+00 0. -1.
         21   -1    0    0  501  503 -0.00000000000E+00 -0.00000000000E+00 -0.64553181079E+03  0.64553181079E+03  0.00000000000E+00 0.  1.
          6    1    1    2  501    0 -0.47357859638E+02  0.12012822302E+03 -0.46187993526E+03  0.50983882888E+03  0.17300000000E+03 0.  1.
         -6    1    1    2    0  502  0.47357859638E+02 -0.12012822302E+03 -0.86706549126E+02  0.23263830832E+03  0.17300000000E+03 0. -1.
</event>
<event>
 4    1  0.3065897E+000  0.1000000E+03  0.7546771E-02  0.1280296E+00
         21   -1    0    0  501  502  0.00000000000E+00  0.00000000000E+00  0.39840888074E+03  0.39840888074E+03  0.00000000000E+00 0. -1.
         21   -1    0    0  502  503 -0.00000000000E+00 -0.00000000000E+00 -0.14385217656E+03  0.14385217656E+03  0.00000000000E+00 0. -1.
          6    1    1    2  501    0 -0.14780739066E+03 -0.67060326286E+02  0.90774656475E+02  0.25399439039E+03  0.17300000000E+03 0. -1.
         -6    1    1    2    0  503  0.14780739066E+03  0.67060326286E+02  0.16378204770E+03  0.28826666690E+03  0.17300000000E+03 0. -1.
</event>
<event>
 4    1  0.3065897E+000  0.1000000E+03  0.7546771E-02  0.1280296E+00
         21   -1    0    0  501  502  0.00000000000E+00  0.00000000000E+00  0.72332715375E+02  0.72332715375E+02  0.00000000000E+00 0. -1.
         21   -1    0    0  502  503 -0.00000000000E+00 -0.00000000000E+00 -0.10376247710E+04  0.10376247710E+04  0.00000000000E+00 0. -1.
          6    1    1    2  501    0 -0.82236190703E+00 -0.87199844505E+02 -0.90250157907E+02  0.21372547851E+03  0.17300000000E+03 0. -1.
         -6    1    1    2    0  503  0.82236190703E+00  0.87199844505E+02 -0.87504189767E+03  0.89623200782E+03  0.17300000000E+03 0. -1.
</event>
<event>
 4    1  0.3065897E+000  0.1000000E+03  0.7546771E-02  0.1280296E+00
         21   -1    0    0  501  502  0.00000000000E+00  0.00000000000E+00  0.97980633643E+02  0.97980633643E+02  0.00000000000E+00 0. -1.
         21   -1    0    0  502  503 -0.00000000000E+00 -0.00000000000E+00 -0.34312620007E+03  0.34312620007E+03  0.00000000000E+00 0. -1.
          6    1    1    2  501    0 -0.24668026030E+02 -0.30101985600E+02 -0.66460970075E+02  0.18936922028E+03  0.17300000000E+03 0. -1.
         -6    1    1    2    0  503  0.24668026030E+02  0.30101985600E+02 -0.17868459636E+03  0.25173761344E+03  0.17300000000E+03 0. -1.
</event>
<event>
 4    1  0.3065897E+000  0.1000000E+03  0.7546771E-02  0.1280296E+00
         21   -1    0    0  501  502  0.00000000000E+00  0.00000000000E+00  0.32748848284E+03  0.32748848284E+03  0.00000000000E+00 0. -1.
         21   -1    0    0  502  503 -0.00000000000E+00 -0.00000000000E+00 -0.23473090006E+03  0.23473090006E+03  0.00000000000E+00 0.  1.
          6    1    1    2  501    0 -0.47950629242E+02  0.26453962195E+01  0.26058757611E+03  0.31645085841E+03  0.17300000000E+03 0.  1.
         -6    1    1    2    0  503  0.47950629242E+02 -0.26453962195E+01 -0.16782999334E+03  0.24576852449E+03  0.17300000000E+03 0.  1.
</event>
<event>
 4    1  0.3065897E+000  0.1000000E+03  0.7546771E-02  0.1280296E+00
         21   -1    0    0  501  502  0.00000000000E+00  0.00000000000E+00  0.13158006207E+03  0.13158006207E+03  0.00000000000E+00 0. -1.
         21   -1    0    0  502  503 -0.00000000000E+00 -0.00000000000E+00 -0.73532116549E+03  0.73532116549E+03  0.00000000000E+00 0.  1.
          6    1    1    2  501    0 -0.10472539328E+03 -0.23548262594E+03 -0.32991862088E+03  0.45298429500E+03  0.17300000000E+03 0.  1.
         -6    1    1    2    0  503  0.10472539328E+03  0.23548262594E+03 -0.27382248254E+03  0.41391693256E+03  0.17300000000E+03 0.  1.
</event>
<event>
 4    1  0.3065897E+000  0.1000000E+03  0.7546771E-02  0.1280296E+00
         21   -1    0    0  501  502  0.00000000000E+00  0.00000000000E+00  0.38766857233E+03  0.38766857233E+03  0.00000000000E+00 0. -1.
         21   -1    0    0  502  503 -0.00000000000E+00 -0.00000000000E+00 -0.10337491521E+03  0.10337491521E+03  0.00000000000E+00 0.  1.
          6    1    1    2  501    0 -0.53178870650E+02 -0.42193043465E+02  0.23341660985E+03  0.29836313270E+03  0.17300000000E+03 0.  1.
         -6    1    1    2    0  503  0.53178870650E+02  0.42193043465E+02  0.50877047272E+02  0.19268035484E+03  0.17300000000E+03 0. -1.
</event>
<event>
 4    1  0.3065897E+000  0.1000000E+03  0.7546771E-02  0.1280296E+00
         21   -1    0    0  501  502  0.00000000000E+00  0.00000000000E+00  0.57450581677E+03  0.57450581677E+03  0.00000000000E+00 0.  1.
         21   -1    0    0  502  503 -0.00000000000E+00 -0.00000000000E+00 -0.23956376472E+03  0.23956376472E+03  0.00000000000E+00 0.  1.
          6    1    1    2  501    0 -0.47354630671E+00  0.18686228889E+03  0.46347110169E+03  0.52882152127E+03  0.17300000000E+03 0.  1.
         -6    1    1    2    0  503  0.47354630671E+00 -0.18686228889E+03 -0.12852904965E+03  0.28524806022E+03  0.17300000000E+03 0.  1.
</event>
<event>
 4    1  0.3065897E+000  0.1000000E+03  0.7546771E-02  0.1280296E+00
         21   -1    0    0  501  502  0.00000000000E+00  0.00000000000E+00  0.66769418851E+02  0.66769418851E+02  0.00000000000E+00 0.  1.
         21   -1    0    0  502  503 -0.00000000000E+00 -0.00000000000E+00 -0.71432032554E+03  0.71432032554E+03  0.00000000000E+00 0.  1.
          6    1    1    2  501    0  0.84769409858E+02  0.86223184205E+02 -0.42407013528E+03  0.47369269572E+03  0.17300000000E+03 0.  1.
         -6    1    1    2    0  503 -0.84769409858E+02 -0.86223184205E+02 -0.22348077141E+03  0.30739704867E+03  0.17300000000E+03 0.  1.
</event>
<event>
 4    1  0.3065897E+000  0.1000000E+03  0.7546771E-02  0.1280296E+00
         21   -1    0    0  501  502  0.00000000000E+00  0.00000000000E+00  0.50833052856E+03  0.50833052856E+03  0.00000000000E+00 0.  1.
         21   -1    0    0  502  503 -0.00000000000E+00 -0.00000000000E+00 -0.32774292589E+03  0.32774292589E+03  0.00000000000E+00 0.  1.
          6    1    1    2  501    0 -0.65549414190E+01 -0.64488175562E+02  0.46305882570E+03  0.49855207160E+03  0.17300000000E+03 0.  1.
         -6    1    1    2    0  503  0.65549414190E+01  0.64488175562E+02 -0.28247122302E+03  0.33752138285E+03  0.17300000000E+03 0.  1.
</event>
<event>
 4    1  0.3065897E+000  0.1000000E+03  0.7546771E-02  0.1280296E+00
         21   -1    0    0  503  502  0.00000000000E+00  0.00000000000E+00  0.63455363086E+03  0.63455363086E+03  0.00000000000E+00 0. -1.
         21   -1    0    0  501  503 -0.00000000000E+00 -0.00000000000E+00 -0.75309234202E+02  0.75309234202E+02  0.00000000000E+00 0. -1.
          6    1    1    2  501    0 -0.35785340747E+02 -0.12521585607E+03  0.32830790467E+03  0.39328702177E+03  0.17300000000E+03 0. -1.
         -6    1    1    2    0  502  0.35785340747E+02  0.12521585607E+03  0.23093649199E+03  0.31657584329E+03  0.17300000000E+03 0. -1.
</event>
<event>
 4    1  0.3065897E+000  0.1000000E+03  0.7546771E-02  0.1280296E+00
         21   -1    0    0  501  502  0.00000000000E+00  0.00000000000E+00  0.32159186724E+03  0.32159186724E+03  0.00000000000E+00 0. -1.
         21   -1    0    0  502  503 -0.00000000000E+00 -0.00000000000E+00 -0.19126812799E+03  0.19126812799E+03  0.00000000000E+00 0. -1.
          6    1    1    2  501    0  0.90729124046E+02  0.55801513130E+02 -0.81918266133E+02  0.21905521026E+03  0.17300000000E+03 0. -1.
         -6    1    1    2    0  503 -0.90729124046E+02 -0.55801513130E+02  0.21224200539E+03  0.29380478497E+03  0.17300000000E+03 0. -1.
</event>
<event>
 4    1  0.3065897E+000  0.1000000E+03  0.7546771E-02  0.1280296E+00
         21   -1    0    0  501  502  0.00000000000E+00  0.00000000000E+00  0.35584056685E+03  0.35584056685E+03  0.00000000000E+00 0. -1.
         21   -1    0    0  502  503 -0.00000000000E+00 -0.00000000000E+00 -0.36349750440E+03  0.36349750440E+03  0.00000000000E+00 0. -1.
          6    1    1    2  501    0  0.24176306810E+01  0.20055944513E+02 -0.31850495605E+03  0.36301858476E+03  0.17300000000E+03 0. -1.
         -6    1    1    2    0  503 -0.24176306810E+01 -0.20055944513E+02  0.31084801851E+03  0.35631948650E+03  0.17300000000E+03 0. -1.
</event>
<event>
 4    1  0.3065897E+000  0.1000000E+03  0.7546771E-02  0.1280296E+00
         21   -1    0    0  501  502  0.00000000000E+00  0.00000000000E+00  0.21751486399E+03  0.21751486399E+03  0.00000000000E+00 0.  1.
         21   -1    0    0  502  503 -0.00000000000E+00 -0.00000000000E+00 -0.39673192302E+03  0.39673192302E+03  0.00000000000E+00 0.  1.
          6    1    1    2  501    0  0.73594965273E+02 -0.34319192471E+02  0.14363665232E+03  0.23907010222E+03  0.17300000000E+03 0.  1.
         -6    1    1    2    0  503 -0.73594965273E+02  0.34319192471E+02 -0.32285371135E+03  0.37517668480E+03  0.17300000000E+03 0.  1.
</event>
<event>
 4    1  0.3065897E+000  0.1000000E+03  0.7546771E-02  0.1280296E+00
         21   -1    0    0  501  502  0.00000000000E+00  0.00000000000E+00  0.59469177953E+03  0.59469177953E+03  0.00000000000E+00 0.  1.
         21   -1    0    0  502  503 -0.00000000000E+00 -0.00000000000E+00 -0.15203519218E+03  0.15203519218E+03  0.00000000000E+00 0.  1.
          6    1    1    2  501    0  0.23058288750E+02  0.23942019446E+03  0.28502314692E+03  0.41112152519E+03  0.17300000000E+03 0.  1.
         -6    1    1    2    0  503 -0.23058288750E+02 -0.23942019446E+03  0.15763344043E+03  0.33560544652E+03  0.17300000000E+03 0.  1.
</event>
<event>
 4    1  0.3065897E+000  0.1000000E+03  0.7546771E-02  0.1280296E+00
         21   -1    0    0  501  502  0.00000000000E+00  0.00000000000E+00  0.82939722364E+03  0.82939722364E+03  0.00000000000E+00 0.  1.
         21   -1    0    0  502  503 -0.00000000000E+00 -0.00000000000E+00 -0.25481325623E+03  0.25481325623E+03  0.00000000000E+00 0.  1.
          6    1    1    2  501    0  0.10344941218E+02 -0.12364262806E+02  0.78918770230E+03  0.80808794216E+03  0.17300000000E+03 0.  1.
         -6    1    1    2    0  503 -0.10344941218E+02  0.12364262806E+02 -0.21460373489E+03  0.27612253771E+03  0.17300000000E+03 0.  1.
</event>
<event>
 4    1  0.3065897E+000  0.1000000E+03  0.7546771E-02  0.1280296E+00
         21   -1    0    0  503  502  0.00000000000E+00  0.00000000000E+00  0.18210453775E+03  0.18210453775E+03  0.00000000000E+00 0. -1.
         21   -1    0    0  501  503 -0.00000000000E+00 -0.00000000000E+00 -0.21929147679E+03  0.21929147679E+03  0.00000000000E+00 0. -1.
          6    1    1    2  501    0 -0.31389840230E+02  0.73347914926E+02 -0.79184263313E+02  0.20631138178E+03  0.17300000000E+03 0. -1.
         -6    1    1    2    0  502  0.31389840230E+02 -0.73347914926E+02  0.41997324275E+02  0.19508463276E+03  0.17300000000E+03 0. -1.
</event>
<event>
 4    1  0.3065897E+000  0.1000000E+03  0.7546771E-02  0.1280296E+00
         21   -1    0    0  503  502  0.00000000000E+00  0.00000000000E+00  0.21610880832E+04  0.21610880832E+04  0.00000000000E+00 0. -1.
         21   -1    0    0  501  503 -0.00000000000E+00 -0.00000000000E+00 -0.81078719100E+02  0.81078719100E+02  0.00000000000E+00 0. -1.
          6    1    1    2  501    0 -0.15336864516E+03 -0.22530124516E+03  0.32633410051E+03  0.45902672857E+03  0.17300000000E+03 0. -1.
         -6    1    1    2    0  502  0.15336864516E+03  0.22530124516E+03  0.17536752636E+04  0.17831400737E+04  0.17300000000E+03 0. -1.
</event>
<event>
 4    1  0.3065897E+000  0.1000000E+03  0.7546771E-02  0.1280296E+00
         21   -1    0    0  503  502  0.00000000000E+00  0.00000000000E+00  0.19866032037E+03  0.19866032037E+03  0.00000000000E+00 0. -1.
         21   -1    0    0  501  503 -0.00000000000E+00 -0.00000000000E+00 -0.39853650278E+03  0.39853650278E+03  0.00000000000E+00 0. -1.
          6    1    1    2  501    0  0.73675510565E+02 -0.15454789096E+03 -0.24975651671E+03  0.34874123515E+03  0.17300000000E+03 0. -1.
         -6    1    1    2    0  502 -0.73675510565E+02  0.15454789096E+03  0.49880334290E+02  0.24845558800E+03  0.17300000000E+03 0. -1.
</event>
<event>
 4    1  0.3065897E+000  0.1000000E+03  0.7546771E-02  0.1280296E+00
         21   -1    0    0  503  502  0.00000000000E+00  0.00000000000E+00  0.29093587431E+03  0.29093587431E+03  0.00000000000E+00 0. -1.
         21   -1    0    0  501  503 -0.00000000000E+00 -0.00000000000E+00 -0.23280032378E+03  0.23280032378E+03  0.00000000000E+00 0. -1.
          6    1    1    2  501    0 -0.11717364676E+03  0.26770597076E+02 -0.12470474484E+03  0.24479910488E+03  0.17300000000E+03 0. -1.
         -6    1    1    2    0  502  0.11717364676E+03 -0.26770597076E+02  0.18284029537E+03  0.27893709322E+03  0.17300000000E+03 0. -1.
</event>
<event>
 4    1  0.3065897E+000  0.1000000E+03  0.7546771E-02  0.1280296E+00
         21   -1    0    0  503  502  0.00000000000E+00  0.00000000000E+00  0.19021568171E+03  0.19021568171E+03  0.00000000000E+00 0. -1.
         21   -1    0    0  501  503 -0.00000000000E+00 -0.00000000000E+00 -0.22546287450E+03  0.22546287450E+03  0.00000000000E+00 0. -1.
          6    1    1    2  501    0  0.48457485727E+02 -0.93399560002E+02 -0.61208308327E+02  0.21153501540E+03  0.17300000000E+03 0. -1.
         -6    1    1    2    0  502 -0.48457485727E+02  0.93399560002E+02  0.25961115536E+02  0.20414354080E+03  0.17300000000E+03 0. -1.
</event>
<event>
 4    1  0.3065897E+000  0.1000000E+03  0.7546771E-02  0.1280296E+00
         21   -1    0    0  503  502  0.00000000000E+00  0.00000000000E+00  0.55977750695E+03  0.55977750695E+03  0.00000000000E+00 0. -1.
         21   -1    0    0  501  503 -0.00000000000E+00 -0.00000000000E+00 -0.19249520500E+03  0.19249520500E+03  0.00000000000E+00 0. -1.
          6    1    1    2  501    0 -0.71074488045E+02  0.12641556401E+03 -0.89429527776E+02  0.24281498741E+03  0.17300000000E+03 0. -1.
         -6    1    1    2    0  502  0.71074488045E+02 -0.12641556401E+03  0.45671182973E+03  0.50945772454E+03  0.17300000000E+03 0. -1.
</event>
<event>
 4    1  0.3065897E+000  0.1000000E+03  0.7546771E-02  0.1280296E+00
         21   -1    0    0  503  502  0.00000000000E+00  0.00000000000E+00  0.14180956860E+03  0.14180956860E+03  0.00000000000E+00 0. -1.
         21   -1    0    0  501  503 -0.00000000000E+00 -0.00000000000E+00 -0.38249636603E+03  0.38249636603E+03  0.00000000000E+00 0. -1.
          6    1    1    2  501    0  0.11252842801E+03  0.86084932409E+02 -0.19363253894E+03  0.29579692837E+03  0.17300000000E+03 0. -1.
         -6    1    1    2    0  502 -0.11252842801E+03 -0.86084932409E+02 -0.47054258489E+02  0.22850900626E+03  0.17300000000E+03 0. -1.
</event>
<event>
 4    1  0.3065897E+000  0.1000000E+03  0.7546771E-02  0.1280296E+00
         21   -1    0    0  503  502  0.00000000000E+00  0.00000000000E+00  0.44500274183E+02  0.44500274183E+02  0.00000000000E+00 0.  1.
         21   -1    0    0  501  503 -0.00000000000E+00 -0.00000000000E+00 -0.11992158563E+04  0.11992158563E+04  0.00000000000E+00 0.  1.
          6    1    1    2  501    0  0.10157954049E+03 -0.11258226084E+03 -0.52068254527E+03  0.56923851016E+03  0.17300000000E+03 0.  1.
         -6    1    1    2    0  502 -0.10157954049E+03  0.11258226084E+03 -0.63403303686E+03  0.67447762034E+03  0.17300000000E+03 0.  1.
</event>
<event>
 4    1  0.3065897E+000  0.1000000E+03  0.7546771E-02  0.1280296E+00
         21   -1    0    0  503  502  0.00000000000E+00  0.00000000000E+00  0.21622255523E+02  0.21622255523E+02  0.00000000000E+00 0.  1.
         21   -1    0    0  501  503 -0.00000000000E+00 -0.00000000000E+00 -0.21448061503E+04  0.21448061503E+04  0.00000000000E+00 0.  1.
          6    1    1    2  501    0 -0.99652710108E+02  0.61772188612E+02 -0.13229634280E+04  0.13393683951E+04  0.17300000000E+03 0.  1.
         -6    1    1    2    0  502  0.99652710108E+02 -0.61772188612E+02 -0.80022046678E+03  0.82706001074E+03  0.17300000000E+03 0.  1.
</event>
<event>
 4    1  0.3065897E+000  0.1000000E+03  0.7546771E-02  0.1280296E+00
         21   -1    0    0  501  502  0.00000000000E+00  0.00000000000E+00  0.10811677869E+03  0.10811677869E+03  0.00000000000E+00 0.  1.
         21   -1    0    0  502  503 -0.00000000000E+00 -0.00000000000E+00 -0.70916089278E+03  0.70916089278E+03  0.00000000000E+00 0.  1.
          6    1    1    2  501    0 -0.12664149743E+03  0.13805680983E+03 -0.14126501479E+03  0.29151767702E+03  0.17300000000E+03 0.  1.
         -6    1    1    2    0  503  0.12664149743E+03 -0.13805680983E+03 -0.45977909930E+03  0.52575999445E+03  0.17300000000E+03 0.  1.
</event>
<event>
 4    1  0.3065897E+000  0.1000000E+03  0.7546771E-02  0.1280296E+00
         21   -1    0    0  501  502  0.00000000000E+00  0.00000000000E+00  0.15009081266E+03  0.15009081266E+03  0.00000000000E+00 0.  1.
         21   -1    0    0  502  503 -0.00000000000E+00 -0.00000000000E+00 -0.35523561634E+03  0.35523561634E+03  0.00000000000E+00 0.  1.
          6    1    1    2  501    0 -0.41476092255E+02 -0.17096851328E+02  0.57409286283E+02  0.18771626116E+03  0.17300000000E+03 0.  1.
         -6    1    1    2    0  503  0.41476092255E+02  0.17096851328E+02 -0.26255408996E+03  0.31761016783E+03  0.17300000000E+03 0.  1.
</event>
<event>
 4    1  0.3065897E+000  0.1000000E+03  0.7546771E-02  0.1280296E+00
         21   -1    0    0  501  502  0.00000000000E+00  0.00000000000E+00  0.25318775224E+03  0.25318775224E+03  0.00000000000E+00 0.  1.
         21   -1    0    0  502  503 -0.00000000000E+00 -0.00000000000E+00 -0.33416452517E+03  0.33416452517E+03  0.00000000000E+00 0.  1.
          6    1    1    2  501    0 -0.10315362407E+03 -0.17654264341E+03  0.74048697619E+02  0.27788520062E+03  0.17300000000E+03 0. -1.
         -6    1    1    2    0  503  0.10315362407E+03  0.17654264341E+03 -0.15502547054E+03  0.30946707679E+03  0.17300000000E+03 0. -1.
</event>
<event>
 4    1  0.3065897E+000  0.1000000E+03  0.7546771E-02  0.1280296E+00
         21   -1    0    0  501  502  0.00000000000E+00  0.00000000000E+00  0.75515014244E+03  0.75515014244E+03  0.00000000000E+00 0.  1.
         21   -1    0    0  502  503 -0.00000000000E+00 -0.00000000000E+00 -0.14478396288E+03  0.14478396288E+03  0.00000000000E+00 0.  1.
          6    1    1    2  501    0 -0.20821271761E+03  0.15785043564E+03  0.16158275164E+03  0.35257237758E+03  0.17300000000E+03 0.  1.
         -6    1    1    2    0  503  0.20821271761E+03 -0.15785043564E+03  0.44878342792E+03  0.54736172773E+03  0.17300000000E+03 0.  1.
</event>
<event>
 4    1  0.3065897E+000  0.1000000E+03  0.7546771E-02  0.1280296E+00
         21   -1    0    0  501  502  0.00000000000E+00  0.00000000000E+00  0.70030514610E+03  0.70030514610E+03  0.00000000000E+00 0.  1.
         21   -1    0    0  502  503 -0.00000000000E+00 -0.00000000000E+00 -0.91130490959E+02  0.91130490959E+02  0.00000000000E+00 0. -1.
          6    1    1    2  501    0 -0.11149090417E+03  0.14648844333E+03  0.30297000175E+03  0.39447294926E+03  0.17300000000E+03 0. -1.
         -6    1    1    2    0  503  0.11149090417E+03 -0.14648844333E+03  0.30620465340E+03  0.39696268780E+03  0.17300000000E+03 0.  1.
</event>
<event>
 4    1  0.3065897E+000  0.1000000E+03  0.7546771E-02  0.1280296E+00
         21   -1    0    0  501  502  0.00000000000E+00  0.00000000000E+00  0.12521506567E+02  0.12521506567E+02  0.00000000000E+00 0.  1.
         21   -1    0    0  502  503 -0.00000000000E+00 -0.00000000000E+00 -0.43030268761E+04  0.43030268761E+04  0.00000000000E+00 0. -1.
          6    1    1    2  501    0  0.76571159913E+02 -0.87277073277E+02 -0.11940267136E+04  0.12120681593E+04  0.17300000000E+03 0. -1.
         -6    1    1    2    0  503 -0.76571159913E+02  0.87277073277E+02 -0.30964786560E+04  0.31034802234E+04  0.17300000000E+03 0.  1.
</event>
<event>
 4    1  0.3065897E+000  0.1000000E+03  0.7546771E-02  0.1280296E+00
         21   -1    0    0  503  502  0.00000000000E+00  0.00000000000E+00  0.10136145812E+04  0.10136145812E+04  0.00000000000E+00 0. -1.
         21   -1    0    0  501  503 -0.00000000000E+00 -0.00000000000E+00 -0.58787439837E+02  0.58787439837E+02  0.00000000000E+00 0.  1.
          6    1    1    2  501    0  0.72307693237E+02 -0.13385494660E+03  0.30013834924E+03  0.37836170250E+03  0.17300000000E+03 0.  1.
         -6    1    1    2    0  502 -0.72307693237E+02  0.13385494660E+03  0.65468879213E+03  0.69404031854E+03  0.17300000000E+03 0.  1.
</event>
<event>
 4    1  0.3065897E+000  0.1000000E+03  0.7546771E-02  0.1280296E+00
         21   -1    0    0  501  502  0.00000000000E+00  0.00000000000E+00  0.51088264274E+03  0.51088264274E+03  0.00000000000E+00 0.  1.
         21   -1    0    0  502  503 -0.00000000000E+00 -0.00000000000E+00 -0.81042077902E+02  0.81042077902E+02  0.00000000000E+00 0.  1.
          6    1    1    2  501    0  0.13164626044E+02  0.85032134128E+02  0.30771634550E+03  0.36334848355E+03  0.17300000000E+03 0.  1.
         -6    1    1    2    0  503 -0.13164626044E+02 -0.85032134128E+02  0.12212421934E+03  0.22857623709E+03  0.17300000000E+03 0.  1.
</event>
<event>
 4    1  0.3065897E+000  0.1000000E+03  0.7546771E-02  0.1280296E+00
         21   -1    0    0  501  502  0.00000000000E+00  0.00000000000E+00  0.69982393118E+02  0.69982393118E+02  0.00000000000E+00 0.  1.
         21   -1    0    0  502  503 -0.00000000000E+00 -0.00000000000E+00 -0.91344164567E+03  0.91344164567E+03  0.00000000000E+00 0.  1.
          6    1    1    2  501    0  0.32273998482E+02 -0.14532824561E+02 -0.69816568756E+02  0.18988461560E+03  0.17300000000E+03 0.  1.
         -6    1    1    2    0  503 -0.32273998482E+02  0.14532824561E+02 -0.77364268380E+03  0.79353942319E+03  0.17300000000E+03 0.  1.
</event>
<event>
 4    1  0.3065897E+000  0.1000000E+03  0.7546771E-02  0.1280296E+00
         21   -1    0    0  503  502  0.00000000000E+00  0.00000000000E+00  0.15941895201E+03  0.15941895201E+03  0.00000000000E+00 0. -1.
         21   -1    0    0  501  503 -0.00000000000E+00 -0.00000000000E+00 -0.20782650933E+03  0.20782650933E+03  0.00000000000E+00 0. -1.
          6    1    1    2  501    0  0.30487811260E+01  0.45935866069E+02 -0.57403723155E+02  0.18799889970E+03  0.17300000000E+03 0.  1.
         -6    1    1    2    0  502 -0.30487811260E+01 -0.45935866069E+02  0.89961658357E+01  0.17924656163E+03  0.17300000000E+03 0.  1.
</event>
<event>
 4    1  0.3065897E+000  0.1000000E+03  0.7546771E-02  0.1280296E+00
         21   -1    0    0  503  502  0.00000000000E+00  0.00000000000E+00  0.83470632507E+03  0.83470632507E+03  0.00000000000E+00 0.  1.
         21   -1    0    0  501  503 -0.00000000000E+00 -0.00000000000E+00 -0.40624010568E+02  0.40624010568E+02  0.00000000000E+00 0. -1.
          6    1    1    2  501    0 -0.26317428586E+02  0.52121539370E+02  0.45382794053E+03  0.48918101099E+03  0.17300000000E+03 0. -1.
         -6    1    1    2    0  502  0.26317428586E+02 -0.52121539370E+02  0.34025437397E+03  0.38614932464E+03  0.17300000000E+03 0.  1.
</event>
<event>
 4    1  0.3065897E+000  0.1000000E+03  0.7546771E-02  0.1280296E+00
         21   -1    0    0  501  502  0.00000000000E+00  0.00000000000E+00  0.20427551032E+03  0.20427551032E+03  0.00000000000E+00 0. -1.
         21   -1    0    0  502  503 -0.00000000000E+00 -0.00000000000E+00 -0.89290796176E+03  0.89290796176E+03  0.00000000000E+00 0. -1.
          6    1    1    2  501    0  0.29943018051E+03  0.20358686318E+03 -0.15656579867E+03  0.43075270535E+03  0.17300000000E+03 0. -1.
         -6    1    1    2    0  503 -0.29943018051E+03 -0.20358686318E+03 -0.53206665277E+03  0.66643076673E+03  0.17300000000E+03 0. -1.
</event>
<event>
 4    1  0.3065897E+000  0.1000000E+03  0.7546771E-02  0.1280296E+00
         21   -1    0    0  503  502  0.00000000000E+00  0.00000000000E+00  0.26317761212E+03  0.26317761212E+03  0.00000000000E+00 0.  1.
         21   -1    0    0  501  503 -0.00000000000E+00 -0.00000000000E+00 -0.14532827551E+03  0.14532827551E+03  0.00000000000E+00 0.  1.
          6    1    1    2  501    0 -0.46078632311E+02 -0.37068649324E+02 -0.13590591090E+02  0.18333311017E+03  0.17300000000E+03 0.  1.
         -6    1    1    2    0  502  0.46078632311E+02  0.37068649324E+02  0.13143992769E+03  0.22517277746E+03  0.17300000000E+03 0.  1.
</event>
<event>
 4    1  0.3065897E+000  0.1000000E+03  0.7546771E-02  0.1280296E+00
         21   -1    0    0  503  502  0.00000000000E+00  0.00000000000E+00  0.44060864158E+03  0.44060864158E+03  0.00000000000E+00 0.  1.
         21   -1    0    0  501  503 -0.00000000000E+00 -0.00000000000E+00 -0.98670215523E+02  0.98670215523E+02  0.00000000000E+00 0.  1.
          6    1    1    2  501    0 -0.45335554372E+02 -0.26234109953E+02  0.36561511391E+02  0.18441606527E+03  0.17300000000E+03 0.  1.
         -6    1    1    2    0  502  0.45335554372E+02  0.26234109953E+02  0.30537691466E+03  0.35486279183E+03  0.17300000000E+03 0.  1.
</event>
<event>
 4    1  0.3065897E+000  0.1000000E+03  0.7546771E-02  0.1280296E+00
         21   -1    0    0  503  502  0.00000000000E+00  0.00000000000E+00  0.49936979404E+03  0.49936979404E+03  0.00000000000E+00 0.  1.
         21   -1    0    0  501  503 -0.00000000000E+00 -0.00000000000E+00 -0.17381863149E+03  0.17381863149E+03  0.00000000000E+00 0.  1.
          6    1    1    2  501    0  0.22800315527E+03  0.34486096532E+01  0.83019231492E+02  0.29802436900E+03  0.17300000000E+03 0.  1.
         -6    1    1    2    0  502 -0.22800315527E+03 -0.34486096532E+01  0.24253193106E+03  0.37516405652E+03  0.17300000000E+03 0.  1.
</event>
<event>
 4    1  0.3065897E+000  0.1000000E+03  0.7546771E-02  0.1280296E+00
         21   -1    0    0  503  502  0.00000000000E+00  0.00000000000E+00  0.11224767788E+04  0.11224767788E+04  0.00000000000E+00 0.  1.
         21   -1    0    0  501  503 -0.00000000000E+00 -0.00000000000E+00 -0.19940261586E+03  0.19940261586E+03  0.00000000000E+00 0.  1.
          6    1    1    2  501    0  0.91271064773E+02  0.18866989136E+03 -0.79477012642E+02  0.28314718913E+03  0.17300000000E+03 0.  1.
         -6    1    1    2    0  502 -0.91271064773E+02 -0.18866989136E+03  0.10025511756E+04  0.10387322056E+04  0.17300000000E+03 0.  1.
</event>
<event>
 4    1  0.3065897E+000  0.1000000E+03  0.7546771E-02  0.1280296E+00
         21   -1    0    0  503  502  0.00000000000E+00  0.00000000000E+00  0.10806888730E+04  0.10806888730E+04  0.00000000000E+00 0.  1.
         21   -1    0    0  501  503 -0.00000000000E+00 -0.00000000000E+00 -0.45476824595E+02  0.45476824595E+02  0.00000000000E+00 0.  1.
          6    1    1    2  501    0  0.11084238612E+03  0.38485444932E+02  0.33009340746E+03  0.39071450150E+03  0.17300000000E+03 0.  1.
         -6    1    1    2    0  502 -0.11084238612E+03 -0.38485444932E+02  0.70511864097E+03  0.73545119612E+03  0.17300000000E+03 0.  1.
</event>
<event>
 4    1  0.3065897E+000  0.1000000E+03  0.7546771E-02  0.1280296E+00
         21   -1    0    0  501  502  0.00000000000E+00  0.00000000000E+00  0.39434391831E+03  0.39434391831E+03  0.00000000000E+00 0. -1.
         21   -1    0    0  502  503 -0.00000000000E+00 -0.00000000000E+00 -0.24851544407E+03  0.24851544407E+03  0.00000000000E+00 0. -1.
          6    1    1    2  501    0 -0.67558368646E+02 -0.12468740699E+03  0.29777487249E+03  0.37243785699E+03  0.17300000000E+03 0.  1.
         -6    1    1    2    0  503  0.67558368646E+02  0.12468740699E+03 -0.15194639825E+03  0.27042150539E+03  0.17300000000E+03 0.  1.
</event>
<event>
 4    1  0.3065897E+000  0.1000000E+03  0.7546771E-02  0.1280296E+00
         21   -1    0    0  501  502  0.00000000000E+00  0.00000000000E+00  0.18564417105E+03  0.18564417105E+03  0.00000000000E+00 0. -1.
         21   -1    0    0  502  503 -0.00000000000E+00 -0.00000000000E+00 -0.28952136498E+03  0.28952136498E+03  0.00000000000E+00 0. -1.
          6    1    1    2  501    0 -0.31070631130E+02 -0.39773872766E+02  0.97524555552E+02  0.20490823314E+03  0.17300000000E+03 0.  1.
         -6    1    1    2    0  503  0.31070631130E+02  0.39773872766E+02 -0.20140174948E+03  0.27025730289E+03  0.17300000000E+03 0.  1.
</event>
<event>
 4    1  0.3065897E+000  0.1000000E+03  0.7546771E-02  0.1280296E+00
         21   -1    0    0  501  502  0.00000000000E+00  0.00000000000E+00  0.43663985082E+02  0.43663985082E+02  0.00000000000E+00 0. -1.
         21   -1    0    0  502  503 -0.00000000000E+00 -0.00000000000E+00 -0.13822708822E+04  0.13822708822E+04  0.00000000000E+00 0. -1.
          6    1    1    2  501    0 -0.84588236437E+02  0.33251628054E+01 -0.22669630537E+03  0.29746670624E+03  0.17300000000E+03 0. -1.
         -6    1    1    2    0  503  0.84588236437E+02 -0.33251628054E+01 -0.11119105917E+04  0.11284681610E+04  0.17300000000E+03 0. -1.
</event>
<event>
 4    1  0.3065897E+000  0.1000000E+03  0.7546771E-02  0.1280296E+00
         21   -1    0    0  501  502  0.00000000000E+00  0.00000000000E+00  0.18861765174E+03  0.18861765174E+03  0.00000000000E+00 0. -1.
         21   -1    0    0  502  503 -0.00000000000E+00 -0.00000000000E+00 -0.22633830599E+03  0.22633830599E+03  0.00000000000E+00 0. -1.
          6    1    1    2  501    0 -0.10398208023E+03 -0.44051413390E+02 -0.21971553749E+02  0.20776079804E+03  0.17300000000E+03 0. -1.
         -6    1    1    2    0  503  0.10398208023E+03  0.44051413390E+02 -0.15749100501E+02  0.20719515968E+03  0.17300000000E+03 0. -1.
</event>
<event>
 4    1  0.3065897E+000  0.1000000E+03  0.7546771E-02  0.1280296E+00
         21   -1    0    0  501  502  0.00000000000E+00  0.00000000000E+00  0.10766774720E+03  0.10766774720E+03  0.00000000000E+00 0. -1.
         21   -1    0    0  502  503 -0.00000000000E+00 -0.00000000000E+00 -0.31578498026E+03  0.31578498026E+03  0.00000000000E+00 0. -1.
          6    1    1    2  501    0  0.36040991074E+01  0.98635371778E+01 -0.17632156957E+03  0.24724193575E+03  0.17300000000E+03 0. -1.
         -6    1    1    2    0  503 -0.36040991074E+01 -0.98635371778E+01 -0.31795663488E+02  0.17621079170E+03  0.17300000000E+03 0. -1.
</event>
<event>
 4    1  0.3065897E+000  0.1000000E+03  0.7546771E-02  0.1280296E+00
         21   -1    0    0  503  502  0.00000000000E+00  0.00000000000E+00  0.10539409690E+03  0.10539409690E+03  0.00000000000E+00 0.  1.
         21   -1    0    0  501  503 -0.00000000000E+00 -0.00000000000E+00 -0.42716064682E+03  0.42716064682E+03  0.00000000000E+00 0. -1.
          6    1    1    2  501    0  0.26735703772E+02  0.60230215138E+02 -0.29099281965E+03  0.34488881941E+03  0.17300000000E+03 0. -1.
         -6    1    1    2    0  502 -0.26735703772E+02 -0.60230215138E+02 -0.30773730269E+02  0.18766592431E+03  0.17300000000E+03 0.  1.
</event>
<event>
 4    1  0.3065897E+000  0.1000000E+03  0.7546771E-02  0.1280296E+00
         21   -1    0    0  503  502  0.00000000000E+00  0.00000000000E+00  0.10932611639E+03  0.10932611639E+03  0.00000000000E+00 0.  1.
         21   -1    0    0  501  503 -0.00000000000E+00 -0.00000000000E+00 -0.52072809734E+03  0.52072809734E+03  0.00000000000E+00 0. -1.
          6    1    1    2  501    0 -0.77570137009E+01 -0.59849389870E+02 -0.40749061945E+03  0.44678823359E+03  0.17300000000E+03 0. -1.
         -6    1    1    2    0  502  0.77570137009E+01  0.59849389870E+02 -0.39113614907E+01  0.18326598014E+03  0.17300000000E+03 0.  1.
</event>
<event>
 4    1  0.3065897E+000  0.1000000E+03  0.7546771E-02  0.1280296E+00
         21   -1    0    0  503  502  0.00000000000E+00  0.00000000000E+00  0.38771749599E+03  0.38771749599E+03  0.00000000000E+00 0. -1.
         21   -1    0    0  501  503 -0.00000000000E+00 -0.00000000000E+00 -0.32674007388E+03  0.32674007388E+03  0.00000000000E+00 0. -1.
          6    1    1    2  501    0 -0.18085658501E+01  0.44743035662E+02 -0.27845120346E+03  0.33086142546E+03  0.17300000000E+03 0. -1.
         -6    1    1    2    0  502  0.18085658501E+01 -0.44743035662E+02  0.33942862557E+03  0.38359614441E+03  0.17300000000E+03 0. -1.
</event>
<event>
 4    1  0.3065897E+000  0.1000000E+03  0.7546771E-02  0.1280296E+00
         21   -1    0    0  501  502  0.00000000000E+00  0.00000000000E+00  0.99308322856E+03  0.99308322856E+03  0.00000000000E+00 0.  1.
         21   -1    0    0  502  503 -0.00000000000E+00 -0.00000000000E+00 -0.42303572338E+02  0.42303572338E+02  0.00000000000E+00 0. -1.
          6    1    1    2  501    0  0.84343721780E+02 -0.60658801612E+02  0.56605757089E+03  0.60095218377E+03  0.17300000000E+03 0. -1.
         -6    1    1    2    0  503 -0.84343721780E+02  0.60658801612E+02  0.38472208533E+03  0.43443461712E+03  0.17300000000E+03 0. -1.
</event>
<event>
 4    1  0.3065897E+000  0.1000000E+03  0.7546771E-02  0.1280296E+00
         21   -1    0    0  501  502  0.00000000000E+00  0.00000000000E+00  0.11707940215E+03  0.11707940215E+03  0.00000000000E+00 0.  1.
         21   -1    0    0  502  503 -0.00000000000E+00 -0.00000000000E+00 -0.28810935841E+03  0.28810935841E+03  0.00000000000E+00 0. -1.
          6    1    1    2  501    0 -0.14696765414E+01  0.48253889108E+02 -0.12783766553E+03  0.22045876370E+03  0.17300000000E+03 0. -1.
         -6    1    1    2    0  503  0.14696765414E+01 -0.48253889108E+02 -0.43192290724E+02  0.18472999686E+03  0.17300000000E+03 0. -1.
</event>
<event>
 4    1  0.3065897E+000  0.1000000E+03  0.7546771E-02  0.1280296E+00
         21   -1    0    0  501  502  0.00000000000E+00  0.00000000000E+00  0.69375517954E+03  0.69375517954E+03  0.00000000000E+00 0. -1.
         21   -1    0    0  502  503 -0.00000000000E+00 -0.00000000000E+00 -0.31701324255E+03  0.31701324255E+03  0.00000000000E+00 0. -1.
          6    1    1    2  501    0 -0.22475097459E+03  0.35546897444E+03  0.31185251701E+03  0.55140927154E+03  0.17300000000E+03 0. -1.
         -6    1    1    2    0  503  0.22475097459E+03 -0.35546897444E+03  0.64889419982E+02  0.45935915055E+03  0.17300000000E+03 0. -1.
</event>
<event>
 4    1  0.3065897E+000  0.1000000E+03  0.7546771E-02  0.1280296E+00
         21   -1    0    0  501  502  0.00000000000E+00  0.00000000000E+00  0.18599698092E+03  0.18599698092E+03  0.00000000000E+00 0. -1.
         21   -1    0    0  502  503 -0.00000000000E+00 -0.00000000000E+00 -0.21039990344E+03  0.21039990344E+03  0.00000000000E+00 0. -1.
          6    1    1    2  501    0  0.80266576146E+02  0.14023709893E+02  0.38544163983E+02  0.19507444800E+03  0.17300000000E+03 0. -1.
         -6    1    1    2    0  503 -0.80266576146E+02 -0.14023709893E+02 -0.62947086504E+02  0.20132243637E+03  0.17300000000E+03 0. -1.
</event>
<event>
 4    1  0.3065897E+000  0.1000000E+03  0.7546771E-02  0.1280296E+00
         21   -1    0    0  503  502  0.00000000000E+00  0.00000000000E+00  0.96541764126E+03  0.96541764126E+03  0.00000000000E+00 0. -1.
         21   -1    0    0  501  503 -0.00000000000E+00 -0.00000000000E+00 -0.22874776679E+03  0.22874776679E+03  0.00000000000E+00 0. -1.
          6    1    1    2  501    0  0.70334897522E+01 -0.38623034623E+02 -0.18457004429E+03  0.25600060553E+03  0.17300000000E+03 0. -1.
         -6    1    1    2    0  502 -0.70334897522E+01  0.38623034623E+02  0.92123991876E+03  0.93816480253E+03  0.17300000000E+03 0. -1.
</event>
<event>
 4    1  0.3065897E+000  0.1000000E+03  0.7546771E-02  0.1280296E+00
         21   -1    0    0  503  502  0.00000000000E+00  0.00000000000E+00  0.41851815426E+02  0.41851815426E+02  0.00000000000E+00 0. -1.
         21   -1    0    0  501  503 -0.00000000000E+00 -0.00000000000E+00 -0.27623896496E+04  0.27623896496E+04  0.00000000000E+00 0. -1.
          6    1    1    2  501    0  0.25427886403E+03  0.85609481459E+02 -0.18428513744E+04  0.18702986157E+04  0.17300000000E+03 0. -1.
         -6    1    1    2    0  502 -0.25427886403E+03 -0.85609481459E+02 -0.87768645976E+03  0.93394284925E+03  0.17300000000E+03 0. -1.
</event>
<event>
 4    1  0.3065897E+000  0.1000000E+03  0.7546771E-02  0.1280296E+00
         21   -1    0    0  503  502  0.00000000000E+00  0.00000000000E+00  0.96775913074E+02  0.96775913074E+02  0.00000000000E+00 0. -1.
         21   -1    0    0  501  503 -0.00000000000E+00 -0.00000000000E+00 -0.93411744553E+03  0.93411744553E+03  0.00000000000E+00 0. -1.
          6    1    1    2  501    0 -0.17465715223E+03  0.16178847544E+03 -0.52421730912E+03  0.60117669515E+03  0.17300000000E+03 0. -1.
         -6    1    1    2    0  502  0.17465715223E+03 -0.16178847544E+03 -0.31312422333E+03  0.42971666345E+03  0.17300000000E+03 0. -1.
</event>
<event>
 4    1  0.3065897E+000  0.1000000E+03  0.7546771E-02  0.1280296E+00
         21   -1    0    0  503  502  0.00000000000E+00  0.00000000000E+00  0.73327077338E+03  0.73327077338E+03  0.00000000000E+00 0.  1.
         21   -1    0    0  501  503 -0.00000000000E+00 -0.00000000000E+00 -0.21041495575E+03  0.21041495575E+03  0.00000000000E+00 0. -1.
          6    1    1    2  501    0  0.11802534980E+03  0.12695453213E+03 -0.10747883765E+03  0.26744744711E+03  0.17300000000E+03 0.  1.
         -6    1    1    2    0  502 -0.11802534980E+03 -0.12695453213E+03  0.63033465528E+03  0.67623828202E+03  0.17300000000E+03 0. -1.
</event>
<event>
 4    1  0.3065897E+000  0.1000000E+03  0.7546771E-02  0.1280296E+00
         21   -1    0    0  501  502  0.00000000000E+00  0.00000000000E+00  0.28379960501E+02  0.28379960501E+02  0.00000000000E+00 0.  1.
         21   -1    0    0  502  503 -0.00000000000E+00 -0.00000000000E+00 -0.19157072003E+04  0.19157072003E+04  0.00000000000E+00 0.  1.
          6    1    1    2  501    0  0.14237880489E+03  0.50369266036E+02 -0.77535871441E+03  0.80865253543E+03  0.17300000000E+03 0.  1.
         -6    1    1    2    0  503 -0.14237880489E+03 -0.50369266036E+02 -0.11119685254E+04  0.11354346254E+04  0.17300000000E+03 0.  1.
</event>
<event>
 4    1  0.3065897E+000  0.1000000E+03  0.7546771E-02  0.1280296E+00
         21   -1    0    0  501  502  0.00000000000E+00  0.00000000000E+00  0.45204460106E+02  0.45204460106E+02  0.00000000000E+00 0.  1.
         21   -1    0    0  502  503 -0.00000000000E+00 -0.00000000000E+00 -0.71939311110E+03  0.71939311110E+03  0.00000000000E+00 0.  1.
          6    1    1    2  501    0 -0.37500528367E+02  0.34205215244E+02 -0.34516436246E+03  0.38941459075E+03  0.17300000000E+03 0.  1.
         -6    1    1    2    0  503  0.37500528367E+02 -0.34205215244E+02 -0.32902428854E+03  0.37518298046E+03  0.17300000000E+03 0.  1.
</event>
<event>
 4    1  0.3065897E+000  0.1000000E+03  0.7546771E-02  0.1280296E+00
         21   -1    0    0  501  502  0.00000000000E+00  0.00000000000E+00  0.56785275212E+03  0.56785275212E+03  0.00000000000E+00 0.  1.
         21   -1    0    0  502  503 -0.00000000000E+00 -0.00000000000E+00 -0.10608890687E+03  0.10608890687E+03  0.00000000000E+00 0.  1.
          6    1    1    2  501    0  0.11483537723E+03  0.12828833672E+03  0.26638720353E+03  0.36129794271E+03  0.17300000000E+03 0.  1.
         -6    1    1    2    0  503 -0.11483537723E+03 -0.12828833672E+03  0.19537664172E+03  0.31264371628E+03  0.17300000000E+03 0.  1.
</event>
<event>
 4    1  0.3065897E+000  0.1000000E+03  0.7546771E-02  0.1280296E+00
         21   -1    0    0  501  502  0.00000000000E+00  0.00000000000E+00  0.60871175011E+02  0.60871175011E+02  0.00000000000E+00 0.  1.
         21   -1    0    0  502  503 -0.00000000000E+00 -0.00000000000E+00 -0.78791087252E+03  0.78791087252E+03  0.00000000000E+00 0.  1.
          6    1    1    2  501    0  0.93049366062E+02 -0.57776265458E+02 -0.21296717465E+03  0.29543239304E+03  0.17300000000E+03 0.  1.
         -6    1    1    2    0  503 -0.93049366062E+02  0.57776265458E+02 -0.51407252286E+03  0.55334965450E+03  0.17300000000E+03 0.  1.
</event>
<event>
 4    1  0.3065897E+000  0.1000000E+03  0.7546771E-02  0.1280296E+00
         21   -1    0    0  501  502  0.00000000000E+00  0.00000000000E+00  0.21474557081E+03  0.21474557081E+03  0.00000000000E+00 0.  1.
         21   -1    0    0  502  503 -0.00000000000E+00 -0.00000000000E+00 -0.22570047186E+03  0.22570047186E+03  0.00000000000E+00 0.  1.
          6    1    1    2  501    0  0.71144935811E+02 -0.86698148110E+02  0.71753992734E+02  0.21830209859E+03  0.17300000000E+03 0.  1.
         -6    1    1    2    0  503 -0.71144935811E+02  0.86698148110E+02 -0.82708893787E+02  0.22214394407E+03  0.17300000000E+03 0.  1.
</event>
<event>
 4    1  0.3065897E+000  0.1000000E+03  0.7546771E-02  0.1280296E+00
         21   -1    0    0  501  502  0.00000000000E+00  0.00000000000E+00  0.13373700259E+03  0.13373700259E+03  0.00000000000E+00 0.  1.
         21   -1    0    0  502  503 -0.00000000000E+00 -0.00000000000E+00 -0.48601307509E+03  0.48601307509E+03  0.00000000000E+00 0.  1.
          6    1    1    2  501    0 -0.65396766109E+02 -0.13461405062E+03 -0.39318979136E+02  0.23210485080E+03  0.17300000000E+03 0.  1.
         -6    1    1    2    0  503  0.65396766109E+02  0.13461405062E+03 -0.31295709337E+03  0.38764522689E+03  0.17300000000E+03 0.  1.
</event>
<event>
 4    1  0.3065897E+000  0.1000000E+03  0.7546771E-02  0.1280296E+00
         21   -1    0    0  501  502  0.00000000000E+00  0.00000000000E+00  0.45451570400E+03  0.45451570400E+03  0.00000000000E+00 0.  1.
         21   -1    0    0  502  503 -0.00000000000E+00 -0.00000000000E+00 -0.13846115712E+03  0.13846115712E+03  0.00000000000E+00 0.  1.
          6    1    1    2  501    0 -0.31573529291E+02  0.17017498769E+03  0.92784722834E+02  0.26171438435E+03  0.17300000000E+03 0.  1.
         -6    1    1    2    0  503  0.31573529291E+02 -0.17017498769E+03  0.22326982404E+03  0.33126247677E+03  0.17300000000E+03 0.  1.
</event>
<event>
 4    1  0.3065897E+000  0.1000000E+03  0.7546771E-02  0.1280296E+00
         21   -1    0    0  501  502  0.00000000000E+00  0.00000000000E+00  0.19907709325E+04  0.19907709325E+04  0.00000000000E+00 0. -1.
         21   -1    0    0  502  503 -0.00000000000E+00 -0.00000000000E+00 -0.24736735453E+03  0.24736735453E+03  0.00000000000E+00 0. -1.
          6    1    1    2  501    0 -0.22582089336E+02  0.22729621192E+03  0.18932335863E+04  0.19147939657E+04  0.17300000000E+03 0. -1.
         -6    1    1    2    0  503  0.22582089336E+02 -0.22729621192E+03 -0.14983000837E+03  0.32334432130E+03  0.17300000000E+03 0. -1.
</event>
<event>
 4    1  0.3065897E+000  0.1000000E+03  0.7546771E-02  0.1280296E+00
         21   -1    0    0  501  502  0.00000000000E+00  0.00000000000E+00  0.47921443900E+03  0.47921443900E+03  0.00000000000E+00 0. -1.
         21   -1    0    0  502  503 -0.00000000000E+00 -0.00000000000E+00 -0.11912761050E+03  0.11912761050E+03  0.00000000000E+00 0. -1.
          6    1    1    2  501    0 -0.16215589390E+03 -0.29417687816E+01  0.21666642840E+03  0.32121103519E+03  0.17300000000E+03 0. -1.
         -6    1    1    2    0  503  0.16215589390E+03  0.29417687816E+01  0.14342040010E+03  0.27713101432E+03  0.17300000000E+03 0. -1.
</event>
<event>
 4    1  0.3065897E+000  0.1000000E+03  0.7546771E-02  0.1280296E+00
         21   -1    0    0  503  502  0.00000000000E+00  0.00000000000E+00  0.36167566929E+03  0.36167566929E+03  0.00000000000E+00 0.  1.
         21   -1    0    0  501  503 -0.00000000000E+00 -0.00000000000E+00 -0.15011914648E+03  0.15011914648E+03  0.00000000000E+00 0.  1.
          6    1    1    2  501    0 -0.63585151932E+02  0.10260266543E+03 -0.29123024337E+01  0.21096886027E+03  0.17300000000E+03 0.  1.
         -6    1    1    2    0  502  0.63585151932E+02 -0.10260266543E+03  0.21446882524E+03  0.30082595550E+03  0.17300000000E+03 0.  1.
</event>
<event>
 4    1  0.3065897E+000  0.1000000E+03  0.7546771E-02  0.1280296E+00
         21   -1    0    0  503  502  0.00000000000E+00  0.00000000000E+00  0.37239644391E+03  0.37239644391E+03  0.00000000000E+00 0.  1.
         21   -1    0    0  501  503 -0.00000000000E+00 -0.00000000000E+00 -0.15445222774E+03  0.15445222774E+03  0.00000000000E+00 0.  1.
          6    1    1    2  501    0 -0.15347613212E+03  0.50569629437E+02  0.66769822656E+02  0.24596629803E+03  0.17300000000E+03 0.  1.
         -6    1    1    2    0  502  0.15347613212E+03 -0.50569629437E+02  0.15117439352E+03  0.28088237361E+03  0.17300000000E+03 0.  1.
</event>
<event>
 4    1  0.3065897E+000  0.1000000E+03  0.7546771E-02  0.1280296E+00
         21   -1    0    0  503  502  0.00000000000E+00  0.00000000000E+00  0.11687455384E+03  0.11687455384E+03  0.00000000000E+00 0.  1.
         21   -1    0    0  501  503 -0.00000000000E+00 -0.00000000000E+00 -0.42989435455E+03  0.42989435455E+03  0.00000000000E+00 0.  1.
          6    1    1    2  501    0  0.97533475641E+02  0.10391070384E+03 -0.15909647705E+03  0.27486524381E+03  0.17300000000E+03 0.  1.
         -6    1    1    2    0  502 -0.97533475641E+02 -0.10391070384E+03 -0.15392332366E+03  0.27190366458E+03  0.17300000000E+03 0.  1.
</event>
<event>
 4    1  0.3065897E+000  0.1000000E+03  0.7546771E-02  0.1280296E+00
         21   -1    0    0  503  502  0.00000000000E+00  0.00000000000E+00  0.18815276311E+03  0.18815276311E+03  0.00000000000E+00 0.  1.
         21   -1    0    0  501  503 -0.00000000000E+00 -0.00000000000E+00 -0.17664364952E+03  0.17664364952E+03  0.00000000000E+00 0.  1.
          6    1    1    2  501    0 -0.25317949616E+02  0.48849570509E+02  0.22487468203E+02  0.18292611989E+03  0.17300000000E+03 0.  1.
         -6    1    1    2    0  502  0.25317949616E+02 -0.48849570509E+02 -0.10978354620E+02  0.18187029274E+03  0.17300000000E+03 0.  1.
</event>
<event>
 4    1  0.3065897E+000  0.1000000E+03  0.7546771E-02  0.1280296E+00
         21   -1    0    0  503  502  0.00000000000E+00  0.00000000000E+00  0.24386776583E+02  0.24386776583E+02  0.00000000000E+00 0.  1.
         21   -1    0    0  501  503 -0.00000000000E+00 -0.00000000000E+00 -0.18047782569E+04  0.18047782569E+04  0.00000000000E+00 0.  1.
          6    1    1    2  501    0 -0.54660682830E+02  0.97354563490E+02 -0.10655539471E+04  0.10852649056E+04  0.17300000000E+03 0.  1.
         -6    1    1    2    0  502  0.54660682830E+02 -0.97354563490E+02 -0.71483753326E+03  0.74390012786E+03  0.17300000000E+03 0.  1.
</event>
<event>
 4    1  0.3065897E+000  0.1000000E+03  0.7546771E-02  0.1280296E+00
         21   -1    0    0  501  502  0.00000000000E+00  0.00000000000E+00  0.30752891101E+03  0.30752891101E+03  0.00000000000E+00 0.  1.
         21   -1    0    0  502  503 -0.00000000000E+00 -0.00000000000E+00 -0.16521191614E+03  0.16521191614E+03  0.00000000000E+00 0. -1.
          6    1    1    2  501    0  0.62383525974E+02  0.12779600491E+03  0.97994803979E+02  0.24444939106E+03  0.17300000000E+03 0. -1.
         -6    1    1    2    0  503 -0.62383525974E+02 -0.12779600491E+03  0.44322190891E+02  0.22829143609E+03  0.17300000000E+03 0.  1.
</event>
<event>
 4    1  0.3065897E+000  0.1000000E+03  0.7546771E-02  0.1280296E+00
         21   -1    0    0  501  502  0.00000000000E+00  0.00000000000E+00  0.79673679228E+03  0.79673679228E+03  0.00000000000E+00 0.  1.
         21   -1    0    0  502  503 -0.00000000000E+00 -0.00000000000E+00 -0.54743827299E+02  0.54743827299E+02  0.00000000000E+00 0. -1.
          6    1    1    2  501    0 -0.56127627355E+02  0.41904903718E+02  0.56202313596E+03  0.59220379673E+03  0.17300000000E+03 0. -1.
         -6    1    1    2    0  503  0.56127627355E+02 -0.41904903718E+02  0.17996982902E+03  0.25927682285E+03  0.17300000000E+03 0.  1.
</event>
<event>
 4    1  0.3065897E+000  0.1000000E+03  0.7546771E-02  0.1280296E+00
         21   -1    0    0  501  502  0.00000000000E+00  0.00000000000E+00  0.38539543926E+02  0.38539543926E+02  0.00000000000E+00 0.  1.
         21   -1    0    0  502  503 -0.00000000000E+00 -0.00000000000E+00 -0.14666269291E+04  0.14666269291E+04  0.00000000000E+00 0. -1.
          6    1    1    2  501    0  0.12679958955E+02 -0.13328048670E+03 -0.41930133896E+03  0.47293454341E+03  0.17300000000E+03 0.  1.
         -6    1    1    2    0  503 -0.12679958955E+02  0.13328048670E+03 -0.10087860462E+04  0.10322319296E+04  0.17300000000E+03 0. -1.
</event>
<event>
 4    1  0.3065897E+000  0.1000000E+03  0.7546771E-02  0.1280296E+00
         21   -1    0    0  501  502  0.00000000000E+00  0.00000000000E+00  0.10100888548E+03  0.10100888548E+03  0.00000000000E+00 0.  1.
         21   -1    0    0  502  503 -0.00000000000E+00 -0.00000000000E+00 -0.51225078821E+03  0.51225078821E+03  0.00000000000E+00 0. -1.
          6    1    1    2  501    0  0.53034012368E+02  0.50000342001E+01 -0.19931455548E+02  0.18210949929E+03  0.17300000000E+03 0.  1.
         -6    1    1    2    0  503 -0.53034012368E+02 -0.50000342001E+01 -0.39131044719E+03  0.43115017440E+03  0.17300000000E+03 0. -1.
</event>
<event>
 4    1  0.3065897E+000  0.1000000E+03  0.7546771E-02  0.1280296E+00
         21   -1    0    0  501  502  0.00000000000E+00  0.00000000000E+00  0.60514933066E+03  0.60514933066E+03  0.00000000000E+00 0. -1.
         21   -1    0    0  502  503 -0.00000000000E+00 -0.00000000000E+00 -0.69369434821E+02  0.69369434821E+02  0.00000000000E+00 0. -1.
          6    1    1    2  501    0  0.28601670742E+02  0.14989301691E+02  0.44058733936E+03  0.47443538900E+03  0.17300000000E+03 0. -1.
         -6    1    1    2    0  503 -0.28601670742E+02 -0.14989301691E+02  0.95192556481E+02  0.20008337648E+03  0.17300000000E+03 0. -1.
</event>
<event>
 4    1  0.3065897E+000  0.1000000E+03  0.7546771E-02  0.1280296E+00
         21   -1    0    0  501  502  0.00000000000E+00  0.00000000000E+00  0.46547509639E+03  0.46547509639E+03  0.00000000000E+00 0. -1.
         21   -1    0    0  502  503 -0.00000000000E+00 -0.00000000000E+00 -0.22699626922E+03  0.22699626922E+03  0.00000000000E+00 0. -1.
          6    1    1    2  501    0 -0.12112388104E+03  0.15504356912E+03  0.32418932731E+03  0.41681797326E+03  0.17300000000E+03 0. -1.
         -6    1    1    2    0  503  0.12112388104E+03 -0.15504356912E+03 -0.85710500139E+02  0.27565339236E+03  0.17300000000E+03 0. -1.
</event>
<event>
 4    1  0.3065897E+000  0.1000000E+03  0.7546771E-02  0.1280296E+00
         21   -1    0    0  503  502  0.00000000000E+00  0.00000000000E+00  0.10478479048E+04  0.10478479048E+04  0.00000000000E+00 0.  1.
         21   -1    0    0  501  503 -0.00000000000E+00 -0.00000000000E+00 -0.70850200818E+02  0.70850200818E+02  0.00000000000E+00 0. -1.
          6    1    1    2  501    0  0.16767338211E+03  0.11384986380E+03  0.37173571695E+03  0.45737577309E+03  0.17300000000E+03 0.  1.
         -6    1    1    2    0  502 -0.16767338211E+03 -0.11384986380E+03  0.60526198703E+03  0.66132233252E+03  0.17300000000E+03 0. -1.
</event>
<event>
 4    1  0.3065897E+000  0.1000000E+03  0.7546771E-02  0.1280296E+00
         21   -1    0    0  503  502  0.00000000000E+00  0.00000000000E+00  0.18712673670E+03  0.18712673670E+03  0.00000000000E+00 0.  1.
         21   -1    0    0  501  503 -0.00000000000E+00 -0.00000000000E+00 -0.34904811999E+03  0.34904811999E+03  0.00000000000E+00 0. -1.
          6    1    1    2  501    0  0.14647599594E+03 -0.22954943010E+02 -0.20241158776E+03  0.30476482351E+03  0.17300000000E+03 0.  1.
         -6    1    1    2    0  502 -0.14647599594E+03  0.22954943010E+02  0.40490204471E+02  0.23141003317E+03  0.17300000000E+03 0. -1.
</event>
<event>
 4    1  0.3065897E+000  0.1000000E+03  0.7546771E-02  0.1280296E+00
         21   -1    0    0  501  502  0.00000000000E+00  0.00000000000E+00  0.13125209917E+03  0.13125209917E+03  0.00000000000E+00 0. -1.
         21   -1    0    0  502  503 -0.00000000000E+00 -0.00000000000E+00 -0.13628365453E+04  0.13628365453E+04  0.00000000000E+00 0. -1.
          6    1    1    2  501    0  0.48620899442E+02 -0.16033167903E+03 -0.16891820812E+01  0.24083623585E+03  0.17300000000E+03 0. -1.
         -6    1    1    2    0  503 -0.48620899442E+02  0.16033167903E+03 -0.12298952640E+04  0.12532524086E+04  0.17300000000E+03 0. -1.
</event>
<event>
 4    1  0.3065897E+000  0.1000000E+03  0.7546771E-02  0.1280296E+00
         21   -1    0    0  501  502  0.00000000000E+00  0.00000000000E+00  0.33888178298E+03  0.33888178298E+03  0.00000000000E+00 0. -1.
         21   -1    0    0  502  503 -0.00000000000E+00 -0.00000000000E+00 -0.59703243125E+03  0.59703243125E+03  0.00000000000E+00 0. -1.
          6    1    1    2  501    0  0.12884969661E+03 -0.21885786059E+02  0.28092777006E+03  0.35486707926E+03  0.17300000000E+03 0. -1.
         -6    1    1    2    0  503 -0.12884969661E+03  0.21885786059E+02 -0.53907841834E+03  0.58104713498E+03  0.17300000000E+03 0. -1.
</event>
<event>
 4    1  0.3065897E+000  0.1000000E+03  0.7546771E-02  0.1280296E+00
         21   -1    0    0  501  502  0.00000000000E+00  0.00000000000E+00  0.35515592686E+03  0.35515592686E+03  0.00000000000E+00 0. -1.
         21   -1    0    0  502  503 -0.00000000000E+00 -0.00000000000E+00 -0.19969687307E+03  0.19969687307E+03  0.00000000000E+00 0. -1.
          6    1    1    2  501    0 -0.29193170200E+02 -0.89725151579E+02  0.26434552609E+03  0.32971260391E+03  0.17300000000E+03 0. -1.
         -6    1    1    2    0  503  0.29193170200E+02  0.89725151579E+02 -0.10888647231E+03  0.22514019602E+03  0.17300000000E+03 0. -1.
</event>
<event>
 4    1  0.3065897E+000  0.1000000E+03  0.7546771E-02  0.1280296E+00
         21   -1    0    0  501  502  0.00000000000E+00  0.00000000000E+00  0.28159579487E+04  0.28159579487E+04  0.00000000000E+00 0. -1.
         21   -1    0    0  502  503 -0.00000000000E+00 -0.00000000000E+00 -0.19813959350E+02  0.19813959350E+02  0.00000000000E+00 0. -1.
          6    1    1    2  501    0 -0.97157434494E+02  0.10236031959E+03  0.18610573750E+04  0.18744014392E+04  0.17300000000E+03 0. -1.
         -6    1    1    2    0  503  0.97157434494E+02 -0.10236031959E+03  0.93508661429E+03  0.96137046883E+03  0.17300000000E+03 0. -1.
</event>
<event>
 4    1  0.3065897E+000  0.1000000E+03  0.7546771E-02  0.1280296E+00
         21   -1    0    0  501  502  0.00000000000E+00  0.00000000000E+00  0.60198610273E+03  0.60198610273E+03  0.00000000000E+00 0. -1.
         21   -1    0    0  502  503 -0.00000000000E+00 -0.00000000000E+00 -0.93239586694E+02  0.93239586694E+02  0.00000000000E+00 0. -1.
          6    1    1    2  501    0  0.12229659240E+03  0.18537530433E+02  0.40755692163E+03  0.45970832156E+03  0.17300000000E+03 0. -1.
         -6    1    1    2    0  503 -0.12229659240E+03 -0.18537530433E+02  0.10118959440E+03  0.23551736786E+03  0.17300000000E+03 0. -1.
</event>
<event>
 4    1  0.3065897E+000  0.1000000E+03  0.7546771E-02  0.1280296E+00
         21   -1    0    0  501  502  0.00000000000E+00  0.00000000000E+00  0.13890339213E+04  0.13890339213E+04  0.00000000000E+00 0. -1.
         21   -1    0    0  502  503 -0.00000000000E+00 -0.00000000000E+00 -0.57180055398E+02  0.57180055398E+02  0.00000000000E+00 0. -1.
          6    1    1    2  501    0  0.13416323751E+03  0.73949605098E+02  0.10798712216E+04  0.11043184204E+04  0.17300000000E+03 0. -1.
         -6    1    1    2    0  503 -0.13416323751E+03 -0.73949605098E+02  0.25198264434E+03  0.34189555634E+03  0.17300000000E+03 0. -1.
</event>
<event>
 4    1  0.3065897E+000  0.1000000E+03  0.7546771E-02  0.1280296E+00
         21   -1    0    0  501  502  0.00000000000E+00  0.00000000000E+00  0.26932100335E+02  0.26932100335E+02  0.00000000000E+00 0. -1.
         21   -1    0    0  502  503 -0.00000000000E+00 -0.00000000000E+00 -0.16861934065E+04  0.16861934065E+04  0.00000000000E+00 0. -1.
          6    1    1    2  501    0  0.91915115804E+02 -0.28175490373E+02 -0.51207906817E+03  0.54899564555E+03  0.17300000000E+03 0. -1.
         -6    1    1    2    0  503 -0.91915115804E+02  0.28175490373E+02 -0.11471822380E+04  0.11641298613E+04  0.17300000000E+03 0. -1.
</event>
<event>
 4    1  0.3065897E+000  0.1000000E+03  0.7546771E-02  0.1280296E+00
         21   -1    0    0  501  502  0.00000000000E+00  0.00000000000E+00  0.80161491252E+02  0.80161491252E+02  0.00000000000E+00 0. -1.
         21   -1    0    0  502  503 -0.00000000000E+00 -0.00000000000E+00 -0.46593658989E+03  0.46593658989E+03  0.00000000000E+00 0. -1.
          6    1    1    2  501    0  0.18948859107E+02 -0.43127051643E+02 -0.29479046817E+03  0.34503539235E+03  0.17300000000E+03 0. -1.
         -6    1    1    2    0  503 -0.18948859107E+02  0.43127051643E+02 -0.90984630461E+02  0.20106268879E+03  0.17300000000E+03 0. -1.
</event>
<event>
 4    1  0.3065897E+000  0.1000000E+03  0.7546771E-02  0.1280296E+00
         21   -1    0    0  501  502  0.00000000000E+00  0.00000000000E+00  0.43260082855E+03  0.43260082855E+03  0.00000000000E+00 0. -1.
         21   -1    0    0  502  503 -0.00000000000E+00 -0.00000000000E+00 -0.90990980895E+02  0.90990980895E+02  0.00000000000E+00 0. -1.
          6    1    1    2  501    0  0.58145799982E+02 -0.12999125519E+02  0.69588437760E+02  0.19575868305E+03  0.17300000000E+03 0. -1.
         -6    1    1    2    0  503 -0.58145799982E+02  0.12999125519E+02  0.27202140989E+03  0.32783312639E+03  0.17300000000E+03 0. -1.
</event>
<event>
 4    1  0.3065897E+000  0.1000000E+03  0.7546771E-02  0.1280296E+00
         21   -1    0    0  501  502  0.00000000000E+00  0.00000000000E+00  0.54290231092E+02  0.54290231092E+02  0.00000000000E+00 0. -1.
         21   -1    0    0  502  503 -0.00000000000E+00 -0.00000000000E+00 -0.83019002035E+03  0.83019002035E+03  0.00000000000E+00 0. -1.
          6    1    1    2  501    0  0.90143849885E+02 -0.83223522299E+02 -0.40772717837E+03  0.45958951284E+03  0.17300000000E+03 0. -1.
         -6    1    1    2    0  503 -0.90143849885E+02  0.83223522299E+02 -0.36817261089E+03  0.42489073859E+03  0.17300000000E+03 0. -1.
</event>
<event>
 4    1  0.3065897E+000  0.1000000E+03  0.7546771E-02  0.1280296E+00
         21   -1    0    0  503  502  0.00000000000E+00  0.00000000000E+00  0.92316647202E+03  0.92316647202E+03  0.00000000000E+00 0.  1.
         21   -1    0    0  501  503 -0.00000000000E+00 -0.00000000000E+00 -0.11640067464E+03  0.11640067464E+03  0.00000000000E+00 0.  1.
          6    1    1    2  501    0 -0.25854018561E+03 -0.15336205049E+02  0.24129059958E+03  0.39399033010E+03  0.17300000000E+03 0. -1.
         -6    1    1    2    0  502  0.25854018561E+03  0.15336205049E+02  0.56547519780E+03  0.64557681656E+03  0.17300000000E+03 0. -1.
</event>
<event>
 4    1  0.3065897E+000  0.1000000E+03  0.7546771E-02  0.1280296E+00
         21   -1    0    0  503  502  0.00000000000E+00  0.00000000000E+00  0.18258706527E+03  0.18258706527E+03  0.00000000000E+00 0.  1.
         21   -1    0    0  501  503 -0.00000000000E+00 -0.00000000000E+00 -0.24511026183E+03  0.24511026183E+03  0.00000000000E+00 0.  1.
          6    1    1    2  501    0  0.78735273251E+02 -0.77023502705E+02 -0.83720240023E+02  0.22151736233E+03  0.17300000000E+03 0. -1.
         -6    1    1    2    0  502 -0.78735273251E+02  0.77023502705E+02  0.21197043469E+02  0.20617996478E+03  0.17300000000E+03 0. -1.
</event>
<event>
 4    1  0.3065897E+000  0.1000000E+03  0.7546771E-02  0.1280296E+00
         21   -1    0    0  501  502  0.00000000000E+00  0.00000000000E+00  0.24019562770E+03  0.24019562770E+03  0.00000000000E+00 0. -1.
         21   -1    0    0  502  503 -0.00000000000E+00 -0.00000000000E+00 -0.45805731727E+03  0.45805731727E+03  0.00000000000E+00 0. -1.
          6    1    1    2  501    0  0.41872350172E+02  0.15253510745E+03  0.13807889104E+03  0.27205703973E+03  0.17300000000E+03 0. -1.
         -6    1    1    2    0  503 -0.41872350172E+02 -0.15253510745E+03 -0.35594058061E+03  0.42619590524E+03  0.17300000000E+03 0. -1.
</event>
<event>
 4    1  0.3065897E+000  0.1000000E+03  0.7546771E-02  0.1280296E+00
         21   -1    0    0  503  502  0.00000000000E+00  0.00000000000E+00  0.14517782038E+03  0.14517782038E+03  0.00000000000E+00 0.  1.
         21   -1    0    0  501  503 -0.00000000000E+00 -0.00000000000E+00 -0.36341565885E+03  0.36341565885E+03  0.00000000000E+00 0. -1.
          6    1    1    2  501    0  0.35161137092E+02  0.14187757987E+03 -0.15149863524E+03  0.27248190713E+03  0.17300000000E+03 0. -1.
         -6    1    1    2    0  502 -0.35161137092E+02 -0.14187757987E+03 -0.66739203241E+02  0.23611157210E+03  0.17300000000E+03 0.  1.
</event>
<event>
 4    1  0.3065897E+000  0.1000000E+03  0.7546771E-02  0.1280296E+00
         21   -1    0    0  503  502  0.00000000000E+00  0.00000000000E+00  0.43935301625E+03  0.43935301625E+03  0.00000000000E+00 0.  1.
         21   -1    0    0  501  503 -0.00000000000E+00 -0.00000000000E+00 -0.15301753280E+03  0.15301753280E+03  0.00000000000E+00 0. -1.
          6    1    1    2  501    0 -0.11220264732E+03  0.15622895204E+03  0.16304518159E+03  0.30579347730E+03  0.17300000000E+03 0. -1.
         -6    1    1    2    0  502  0.11220264732E+03 -0.15622895204E+03  0.12329030185E+03  0.28657707175E+03  0.17300000000E+03 0.  1.
</event>
<event>
 4    1  0.3065897E+000  0.1000000E+03  0.7546771E-02  0.1280296E+00
         21   -1    0    0  501  502  0.00000000000E+00  0.00000000000E+00  0.42443808899E+02  0.42443808899E+02  0.00000000000E+00 0.  1.
         21   -1    0    0  502  503 -0.00000000000E+00 -0.00000000000E+00 -0.89331767671E+03  0.89331767671E+03  0.00000000000E+00 0.  1.
          6    1    1    2  501    0  0.75733626583E+02  0.39276686446E+02 -0.36147601197E+03  0.40972203690E+03  0.17300000000E+03 0.  1.
         -6    1    1    2    0  503 -0.75733626583E+02 -0.39276686446E+02 -0.48939785584E+03  0.52603944871E+03  0.17300000000E+03 0.  1.
</event>
<event>
 4    1  0.3065897E+000  0.1000000E+03  0.7546771E-02  0.1280296E+00
         21   -1    0    0  501  502  0.00000000000E+00  0.00000000000E+00  0.16441642319E+03  0.16441642319E+03  0.00000000000E+00 0. -1.
         21   -1    0    0  502  503 -0.00000000000E+00 -0.00000000000E+00 -0.26135061272E+03  0.26135061272E+03  0.00000000000E+00 0.  1.
          6    1    1    2  501    0 -0.71534956327E+02  0.30257172317E+01  0.42898179743E+02  0.19208242701E+03  0.17300000000E+03 0.  1.
         -6    1    1    2    0  503  0.71534956327E+02 -0.30257172317E+01 -0.13983236927E+03  0.23368460890E+03  0.17300000000E+03 0. -1.
</event>
<event>
 4    1  0.3065897E+000  0.1000000E+03  0.7546771E-02  0.1280296E+00
         21   -1    0    0  501  502  0.00000000000E+00  0.00000000000E+00  0.18640003874E+03  0.18640003874E+03  0.00000000000E+00 0. -1.
         21   -1    0    0  502  503 -0.00000000000E+00 -0.00000000000E+00 -0.21965745751E+03  0.21965745751E+03  0.00000000000E+00 0.  1.
          6    1    1    2  501    0 -0.83609999207E+01 -0.47447974344E+02  0.76926921273E+02  0.19536624019E+03  0.17300000000E+03 0.  1.
         -6    1    1    2    0  503  0.83609999207E+01  0.47447974344E+02 -0.11018434004E+03  0.21069125606E+03  0.17300000000E+03 0. -1.
</event>
<event>
 4    1  0.3065897E+000  0.1000000E+03  0.7546771E-02  0.1280296E+00
         21   -1    0    0  501  502  0.00000000000E+00  0.00000000000E+00  0.11931962104E+03  0.11931962104E+03  0.00000000000E+00 0.  1.
         21   -1    0    0  502  503 -0.00000000000E+00 -0.00000000000E+00 -0.57034340667E+03  0.57034340667E+03  0.00000000000E+00 0.  1.
          6    1    1    2  501    0 -0.11804842100E+02  0.85558466899E+02  0.59615263313E+01  0.19345321231E+03  0.17300000000E+03 0.  1.
         -6    1    1    2    0  503  0.11804842100E+02 -0.85558466899E+02 -0.45698531196E+03  0.49620981540E+03  0.17300000000E+03 0.  1.
</event>
<event>
 4    1  0.3065897E+000  0.1000000E+03  0.7546771E-02  0.1280296E+00
         21   -1    0    0  501  502  0.00000000000E+00  0.00000000000E+00  0.83444646969E+02  0.83444646969E+02  0.00000000000E+00 0.  1.
         21   -1    0    0  502  503 -0.00000000000E+00 -0.00000000000E+00 -0.14597695536E+04  0.14597695536E+04  0.00000000000E+00 0.  1.
          6    1    1    2  501    0 -0.11734923427E+03  0.24119870770E+03 -0.10002988254E+04  0.10499878092E+04  0.17300000000E+03 0.  1.
         -6    1    1    2    0  503  0.11734923427E+03 -0.24119870770E+03 -0.37602608124E+03  0.49322639138E+03  0.17300000000E+03 0.  1.
</event>
<event>
 4    1  0.3065897E+000  0.1000000E+03  0.7546771E-02  0.1280296E+00
         21   -1    0    0  503  502  0.00000000000E+00  0.00000000000E+00  0.23249633245E+03  0.23249633245E+03  0.00000000000E+00 0. -1.
         21   -1    0    0  501  503 -0.00000000000E+00 -0.00000000000E+00 -0.31038573949E+03  0.31038573949E+03  0.00000000000E+00 0.  1.
          6    1    1    2  501    0  0.73253656998E+02 -0.12318535877E+03 -0.18777266707E+03  0.29279396404E+03  0.17300000000E+03 0.  1.
         -6    1    1    2    0  502 -0.73253656998E+02  0.12318535877E+03  0.10988326003E+03  0.25008810790E+03  0.17300000000E+03 0. -1.
</event>
<event>
 4    1  0.3065897E+000  0.1000000E+03  0.7546771E-02  0.1280296E+00
         21   -1    0    0  501  502  0.00000000000E+00  0.00000000000E+00  0.46668275152E+03  0.46668275152E+03  0.00000000000E+00 0.  1.
         21   -1    0    0  502  503 -0.00000000000E+00 -0.00000000000E+00 -0.23139912151E+03  0.23139912151E+03  0.00000000000E+00 0. -1.
          6    1    1    2  501    0 -0.14007081694E+03  0.19429088844E+02  0.37358102460E+03  0.43530346334E+03  0.17300000000E+03 0.  1.
         -6    1    1    2    0  503  0.14007081694E+03 -0.19429088844E+02 -0.13829739459E+03  0.26277840970E+03  0.17300000000E+03 0. -1.
</event>
<event>
 4    1  0.3065897E+000  0.1000000E+03  0.7546771E-02  0.1280296E+00
         21   -1    0    0  501  502  0.00000000000E+00  0.00000000000E+00  0.28789249753E+03  0.28789249753E+03  0.00000000000E+00 0. -1.
         21   -1    0    0  502  503 -0.00000000000E+00 -0.00000000000E+00 -0.10668024181E+03  0.10668024181E+03  0.00000000000E+00 0. -1.
          6    1    1    2  501    0  0.10480558826E+02 -0.33844292973E+01  0.11957398638E+03  0.21059020560E+03  0.17300000000E+03 0.  1.
         -6    1    1    2    0  503 -0.10480558826E+02  0.33844292973E+01  0.61638269347E+02  0.18398253374E+03  0.17300000000E+03 0.  1.
</event>
<event>
 4    1  0.3065897E+000  0.1000000E+03  0.7546771E-02  0.1280296E+00
         21   -1    0    0  503  502  0.00000000000E+00  0.00000000000E+00  0.34122070608E+03  0.34122070608E+03  0.00000000000E+00 0. -1.
         21   -1    0    0  501  503 -0.00000000000E+00 -0.00000000000E+00 -0.13117925809E+03  0.13117925809E+03  0.00000000000E+00 0. -1.
          6    1    1    2  501    0  0.11291123427E+03 -0.18311524464E+02  0.15169504172E+03  0.25695261126E+03  0.17300000000E+03 0. -1.
         -6    1    1    2    0  502 -0.11291123427E+03  0.18311524464E+02  0.58346406265E+02  0.21544735291E+03  0.17300000000E+03 0. -1.
</event>
<event>
 4    1  0.3065897E+000  0.1000000E+03  0.7546771E-02  0.1280296E+00
         21   -1    0    0  503  502  0.00000000000E+00  0.00000000000E+00  0.71118450486E+02  0.71118450486E+02  0.00000000000E+00 0. -1.
         21   -1    0    0  501  503 -0.00000000000E+00 -0.00000000000E+00 -0.10942910026E+04  0.10942910026E+04  0.00000000000E+00 0. -1.
          6    1    1    2  501    0 -0.60554977387E+02  0.59168217106E+02 -0.93312244624E+03  0.95279288562E+03  0.17300000000E+03 0. -1.
         -6    1    1    2    0  502  0.60554977387E+02 -0.59168217106E+02 -0.90050105902E+02  0.21261656750E+03  0.17300000000E+03 0. -1.
</event>
<event>
 4    1  0.3065897E+000  0.1000000E+03  0.7546771E-02  0.1280296E+00
         21   -1    0    0  503  502  0.00000000000E+00  0.00000000000E+00  0.92039254572E+03  0.92039254572E+03  0.00000000000E+00 0. -1.
         21   -1    0    0  501  503 -0.00000000000E+00 -0.00000000000E+00 -0.69102481552E+02  0.69102481552E+02  0.00000000000E+00 0.  1.
          6    1    1    2  501    0 -0.23498535811E+01  0.24355309965E+02  0.68872276461E+02  0.18780599937E+03  0.17300000000E+03 0.  1.
         -6    1    1    2    0  502  0.23498535811E+01 -0.24355309965E+02  0.78241778771E+03  0.80168902790E+03  0.17300000000E+03 0. -1.
</event>
<event>
 4    1  0.3065897E+000  0.1000000E+03  0.7546771E-02  0.1280296E+00
         21   -1    0    0  503  502  0.00000000000E+00  0.00000000000E+00  0.33958592549E+03  0.33958592549E+03  0.00000000000E+00 0. -1.
         21   -1    0    0  501  503 -0.00000000000E+00 -0.00000000000E+00 -0.18540428915E+03  0.18540428915E+03  0.00000000000E+00 0.  1.
          6    1    1    2  501    0 -0.88298887093E+02 -0.15882974995E+03  0.80068932067E+02  0.26336973405E+03  0.17300000000E+03 0.  1.
         -6    1    1    2    0  502  0.88298887093E+02  0.15882974995E+03  0.74112704276E+02  0.26162048059E+03  0.17300000000E+03 0. -1.
</event>
<event>
 4    1  0.3065897E+000  0.1000000E+03  0.7546771E-02  0.1280296E+00
         21   -1    0    0  503  502  0.00000000000E+00  0.00000000000E+00  0.16516123732E+03  0.16516123732E+03  0.00000000000E+00 0. -1.
         21   -1    0    0  501  503 -0.00000000000E+00 -0.00000000000E+00 -0.37856173695E+03  0.37856173695E+03  0.00000000000E+00 0.  1.
          6    1    1    2  501    0 -0.92790542451E+02 -0.85639797945E+02 -0.24699404099E+03  0.32692402182E+03  0.17300000000E+03 0.  1.
         -6    1    1    2    0  502  0.92790542451E+02  0.85639797945E+02  0.33593541352E+02  0.21679895244E+03  0.17300000000E+03 0. -1.
</event>
<event>
 4    1  0.3065897E+000  0.1000000E+03  0.7546771E-02  0.1280296E+00
         21   -1    0    0  501  502  0.00000000000E+00  0.00000000000E+00  0.61989081207E+02  0.61989081207E+02  0.00000000000E+00 0.  1.
         21   -1    0    0  502  503 -0.00000000000E+00 -0.00000000000E+00 -0.54868618936E+03  0.54868618936E+03  0.00000000000E+00 0. -1.
          6    1    1    2  501    0  0.43964614387E+02  0.43980211252E+01 -0.16691477314E+03  0.24442129899E+03  0.17300000000E+03 0. -1.
         -6    1    1    2    0  503 -0.43964614387E+02 -0.43980211252E+01 -0.31978233502E+03  0.36625397158E+03  0.17300000000E+03 0.  1.
</event>
<event>
 4    1  0.3065897E+000  0.1000000E+03  0.7546771E-02  0.1280296E+00
         21   -1    0    0  501  502  0.00000000000E+00  0.00000000000E+00  0.61257035498E+02  0.61257035498E+02  0.00000000000E+00 0.  1.
         21   -1    0    0  502  503 -0.00000000000E+00 -0.00000000000E+00 -0.67971739860E+03  0.67971739860E+03  0.00000000000E+00 0.  1.
          6    1    1    2  501    0 -0.51215284313E+02  0.45842577855E+02 -0.46096346179E+03  0.49713263864E+03  0.17300000000E+03 0.  1.
         -6    1    1    2    0  503  0.51215284313E+02 -0.45842577855E+02 -0.15749690131E+03  0.24384179546E+03  0.17300000000E+03 0.  1.
</event>
<event>
 4    1  0.3065897E+000  0.1000000E+03  0.7546771E-02  0.1280296E+00
         21   -1    0    0  503  502  0.00000000000E+00  0.00000000000E+00  0.21180738305E+02  0.21180738305E+02  0.00000000000E+00 0. -1.
         21   -1    0    0  501  503 -0.00000000000E+00 -0.00000000000E+00 -0.19865181820E+04  0.19865181820E+04  0.00000000000E+00 0. -1.
          6    1    1    2  501    0  0.35244710674E+02 -0.16545025232E+02 -0.14872588065E+04  0.14977929379E+04  0.17300000000E+03 0. -1.
         -6    1    1    2    0  502 -0.35244710674E+02  0.16545025232E+02 -0.47807863721E+03  0.50990598236E+03  0.17300000000E+03 0. -1.
</event>
<event>
 4    1  0.3065897E+000  0.1000000E+03  0.7546771E-02  0.1280296E+00
         21   -1    0    0  503  502  0.00000000000E+00  0.00000000000E+00  0.70457933954E+03  0.70457933954E+03  0.00000000000E+00 0. -1.
         21   -1    0    0  501  503 -0.00000000000E+00 -0.00000000000E+00 -0.44524875157E+02  0.44524875157E+02  0.00000000000E+00 0. -1.
          6    1    1    2  501    0 -0.24302160637E+02  0.18706093577E+01  0.26843890838E+03  0.32028509445E+03  0.17300000000E+03 0. -1.
         -6    1    1    2    0  502  0.24302160637E+02 -0.18706093577E+01  0.39161555600E+03  0.42881912025E+03  0.17300000000E+03 0. -1.
</event>
<event>
 4    1  0.3065897E+000  0.1000000E+03  0.7546771E-02  0.1280296E+00
         21   -1    0    0  503  502  0.00000000000E+00  0.00000000000E+00  0.14127161784E+04  0.14127161784E+04  0.00000000000E+00 0. -1.
         21   -1    0    0  501  503 -0.00000000000E+00 -0.00000000000E+00 -0.42399029416E+02  0.42399029416E+02  0.00000000000E+00 0. -1.
          6    1    1    2  501    0 -0.36613825689E+02 -0.65459126391E+02  0.22133596081E+03  0.29076464195E+03  0.17300000000E+03 0. -1.
         -6    1    1    2    0  502  0.36613825689E+02  0.65459126391E+02  0.11489811881E+04  0.11643505658E+04  0.17300000000E+03 0. -1.
</event>
<event>
 4    1  0.3065897E+000  0.1000000E+03  0.7546771E-02  0.1280296E+00
         21   -1    0    0  503  502  0.00000000000E+00  0.00000000000E+00  0.20655682538E+04  0.20655682538E+04  0.00000000000E+00 0. -1.
         21   -1    0    0  501  503 -0.00000000000E+00 -0.00000000000E+00 -0.79797227383E+02  0.79797227383E+02  0.00000000000E+00 0. -1.
          6    1    1    2  501    0 -0.10078437895E+03  0.22140315245E+03  0.26583407910E+03  0.39971690553E+03  0.17300000000E+03 0. -1.
         -6    1    1    2    0  502  0.10078437895E+03 -0.22140315245E+03  0.17199369474E+04  0.17456485757E+04  0.17300000000E+03 0. -1.
</event>
<event>
 4    1  0.3065897E+000  0.1000000E+03  0.7546771E-02  0.1280296E+00
         21   -1    0    0  501  502  0.00000000000E+00  0.00000000000E+00  0.12830759074E+03  0.12830759074E+03  0.00000000000E+00 0.  1.
         21   -1    0    0  502  503 -0.00000000000E+00 -0.00000000000E+00 -0.61560362508E+03  0.61560362508E+03  0.00000000000E+00 0.  1.
          6    1    1    2  501    0 -0.11063347459E+03  0.69781286641E+02 -0.70892362745E+01  0.21699873487E+03  0.17300000000E+03 0.  1.
         -6    1    1    2    0  503  0.11063347459E+03 -0.69781286641E+02 -0.48020679807E+03  0.52691248095E+03  0.17300000000E+03 0.  1.
</event>
<event>
 4    1  0.3065897E+000  0.1000000E+03  0.7546771E-02  0.1280296E+00
         21   -1    0    0  501  502  0.00000000000E+00  0.00000000000E+00  0.26067914021E+03  0.26067914021E+03  0.00000000000E+00 0.  1.
         21   -1    0    0  502  503 -0.00000000000E+00 -0.00000000000E+00 -0.42210439445E+03  0.42210439445E+03  0.00000000000E+00 0. -1.
          6    1    1    2  501    0 -0.27673396871E+03 -0.43618843420E+01 -0.19790099662E+02  0.32698832322E+03  0.17300000000E+03 0. -1.
         -6    1    1    2    0  503  0.27673396871E+03  0.43618843420E+01 -0.14163515457E+03  0.35579521144E+03  0.17300000000E+03 0.  1.
</event>
<event>
 4    1  0.3065897E+000  0.1000000E+03  0.7546771E-02  0.1280296E+00
         21   -1    0    0  501  502  0.00000000000E+00  0.00000000000E+00  0.10041030875E+04  0.10041030875E+04  0.00000000000E+00 0.  1.
         21   -1    0    0  502  503 -0.00000000000E+00 -0.00000000000E+00 -0.60040823172E+02  0.60040823172E+02  0.00000000000E+00 0. -1.
          6    1    1    2  501    0 -0.93656147064E+02 -0.18340007121E+02  0.78792478734E+03  0.81231908770E+03  0.17300000000E+03 0. -1.
         -6    1    1    2    0  503  0.93656147064E+02  0.18340007121E+02  0.15613747699E+03  0.25182482297E+03  0.17300000000E+03 0.  1.
</event>
<event>
 4    1  0.3065897E+000  0.1000000E+03  0.7546771E-02  0.1280296E+00
         21   -1    0    0  501  502  0.00000000000E+00  0.00000000000E+00  0.77935903566E+03  0.77935903566E+03  0.00000000000E+00 0.  1.
         21   -1    0    0  502  503 -0.00000000000E+00 -0.00000000000E+00 -0.30259645831E+03  0.30259645831E+03  0.00000000000E+00 0. -1.
          6    1    1    2  501    0 -0.21031990646E+02 -0.12549015068E+03  0.72358741880E+03  0.75478332996E+03  0.17300000000E+03 0. -1.
         -6    1    1    2    0  503  0.21031990646E+02  0.12549015068E+03 -0.24682484144E+03  0.32717216401E+03  0.17300000000E+03 0.  1.
</event>
<event>
 4    1  0.3065897E+000  0.1000000E+03  0.7546771E-02  0.1280296E+00
         21   -1    0    0  503  502  0.00000000000E+00  0.00000000000E+00  0.16670919994E+03  0.16670919994E+03  0.00000000000E+00 0. -1.
         21   -1    0    0  501  503 -0.00000000000E+00 -0.00000000000E+00 -0.28135385597E+03  0.28135385597E+03  0.00000000000E+00 0.  1.
          6    1    1    2  501    0 -0.31671382317E+02  0.11862102725E+03 -0.12217531770E+02  0.21249068837E+03  0.17300000000E+03 0.  1.
         -6    1    1    2    0  502  0.31671382317E+02 -0.11862102725E+03 -0.10242712425E+03  0.23557236754E+03  0.17300000000E+03 0.  1.
</event>
<event>
 4    1  0.3065897E+000  0.1000000E+03  0.7546771E-02  0.1280296E+00
         21   -1    0    0  501  502  0.00000000000E+00  0.00000000000E+00  0.17956651308E+04  0.17956651308E+04  0.00000000000E+00 0. -1.
         21   -1    0    0  502  503 -0.00000000000E+00 -0.00000000000E+00 -0.78006045470E+02  0.78006045470E+02  0.00000000000E+00 0. -1.
          6    1    1    2  501    0  0.15516184062E+03 -0.84321247539E+02  0.15622029204E+04  0.15816422586E+04  0.17300000000E+03 0. -1.
         -6    1    1    2    0  503 -0.15516184062E+03  0.84321247539E+02  0.15545616496E+03  0.29202891774E+03  0.17300000000E+03 0. -1.
</event>
<event>
 4    1  0.3065897E+000  0.1000000E+03  0.7546771E-02  0.1280296E+00
         21   -1    0    0  501  502  0.00000000000E+00  0.00000000000E+00  0.21422928465E+03  0.21422928465E+03  0.00000000000E+00 0.  1.
         21   -1    0    0  502  503 -0.00000000000E+00 -0.00000000000E+00 -0.32495985707E+03  0.32495985707E+03  0.00000000000E+00 0.  1.
          6    1    1    2  501    0 -0.12848075099E+02 -0.26035873952E+02  0.14601581678E+03  0.22823794276E+03  0.17300000000E+03 0.  1.
         -6    1    1    2    0  503  0.12848075099E+02  0.26035873952E+02 -0.25674638921E+03  0.31095119896E+03  0.17300000000E+03 0.  1.
</event>
<event>
 4    1  0.3065897E+000  0.1000000E+03  0.7546771E-02  0.1280296E+00
         21   -1    0    0  501  502  0.00000000000E+00  0.00000000000E+00  0.27821438228E+02  0.27821438228E+02  0.00000000000E+00 0.  1.
         21   -1    0    0  502  503 -0.00000000000E+00 -0.00000000000E+00 -0.17003062697E+04  0.17003062697E+04  0.00000000000E+00 0.  1.
          6    1    1    2  501    0  0.15583228870E+02  0.13533132412E+02 -0.31902027592E+03  0.36349541833E+03  0.17300000000E+03 0.  1.
         -6    1    1    2    0  503 -0.15583228870E+02 -0.13533132412E+02 -0.13534645556E+04  0.13646322896E+04  0.17300000000E+03 0.  1.
</event>
<event>
 4    1  0.3065897E+000  0.1000000E+03  0.7546771E-02  0.1280296E+00
         21   -1    0    0  501  502  0.00000000000E+00  0.00000000000E+00  0.14607033938E+04  0.14607033938E+04  0.00000000000E+00 0.  1.
         21   -1    0    0  502  503 -0.00000000000E+00 -0.00000000000E+00 -0.24914277896E+02  0.24914277896E+02  0.00000000000E+00 0.  1.
          6    1    1    2  501    0  0.62501044840E+02  0.46798948986E+02  0.79247328961E+03  0.81488614970E+03  0.17300000000E+03 0.  1.
         -6    1    1    2    0  503 -0.62501044840E+02 -0.46798948986E+02  0.64331582625E+03  0.67073152195E+03  0.17300000000E+03 0.  1.
</event>
<event>
 4    1  0.3065897E+000  0.1000000E+03  0.7546771E-02  0.1280296E+00
         21   -1    0    0  501  502  0.00000000000E+00  0.00000000000E+00  0.62704125797E+03  0.62704125797E+03  0.00000000000E+00 0. -1.
         21   -1    0    0  502  503 -0.00000000000E+00 -0.00000000000E+00 -0.15544915149E+03  0.15544915149E+03  0.00000000000E+00 0.  1.
          6    1    1    2  501    0  0.17357979321E+03 -0.26248523901E+02  0.47594920778E+03  0.53598094929E+03  0.17300000000E+03 0.  1.
         -6    1    1    2    0  503 -0.17357979321E+03  0.26248523901E+02 -0.43571013031E+01  0.24650946016E+03  0.17300000000E+03 0. -1.
</event>
<event>
 4    1  0.3065897E+000  0.1000000E+03  0.7546771E-02  0.1280296E+00
         21   -1    0    0  503  502  0.00000000000E+00  0.00000000000E+00  0.13247447022E+04  0.13247447022E+04  0.00000000000E+00 0. -1.
         21   -1    0    0  501  503 -0.00000000000E+00 -0.00000000000E+00 -0.33828657527E+02  0.33828657527E+02  0.00000000000E+00 0. -1.
          6    1    1    2  501    0 -0.34922369256E+02 -0.64724297394E+02  0.33308806877E+03  0.38247283316E+03  0.17300000000E+03 0. -1.
         -6    1    1    2    0  502  0.34922369256E+02  0.64724297394E+02  0.95782797595E+03  0.97610052661E+03  0.17300000000E+03 0. -1.
</event>
<event>
 4    1  0.3065897E+000  0.1000000E+03  0.7546771E-02  0.1280296E+00
         21   -1    0    0  503  502  0.00000000000E+00  0.00000000000E+00  0.21394498345E+03  0.21394498345E+03  0.00000000000E+00 0. -1.
         21   -1    0    0  501  503 -0.00000000000E+00 -0.00000000000E+00 -0.21893833123E+03  0.21893833123E+03  0.00000000000E+00 0. -1.
          6    1    1    2  501    0  0.87426791335E+02 -0.65899113093E+02 -0.72684109977E+02  0.21725127570E+03  0.17300000000E+03 0. -1.
         -6    1    1    2    0  502 -0.87426791335E+02  0.65899113093E+02  0.67690762192E+02  0.21563203898E+03  0.17300000000E+03 0. -1.
</event>
<event>
 4    1  0.3065897E+000  0.1000000E+03  0.7546771E-02  0.1280296E+00
         21   -1    0    0  503  502  0.00000000000E+00  0.00000000000E+00  0.36515113926E+03  0.36515113926E+03  0.00000000000E+00 0. -1.
         21   -1    0    0  501  503 -0.00000000000E+00 -0.00000000000E+00 -0.90232741632E+02  0.90232741632E+02  0.00000000000E+00 0. -1.
          6    1    1    2  501    0 -0.35158565749E+02 -0.12867268636E+02  0.87004142606E+02  0.19723187414E+03  0.17300000000E+03 0. -1.
         -6    1    1    2    0  502  0.35158565749E+02  0.12867268636E+02  0.18791425502E+03  0.25815200675E+03  0.17300000000E+03 0. -1.
</event>
<event>
 4    1  0.3065897E+000  0.1000000E+03  0.7546771E-02  0.1280296E+00
         21   -1    0    0  503  502  0.00000000000E+00  0.00000000000E+00  0.40214932914E+02  0.40214932914E+02  0.00000000000E+00 0. -1.
         21   -1    0    0  501  503 -0.00000000000E+00 -0.00000000000E+00 -0.86890728969E+03  0.86890728969E+03  0.00000000000E+00 0. -1.
          6    1    1    2  501    0 -0.27664272579E+02  0.25799969922E+02 -0.55990590225E+03  0.58724319477E+03  0.17300000000E+03 0. -1.
         -6    1    1    2    0  502  0.27664272579E+02 -0.25799969922E+02 -0.26878645452E+03  0.32187902784E+03  0.17300000000E+03 0. -1.
</event>
<event>
 4    1  0.3065897E+000  0.1000000E+03  0.7546771E-02  0.1280296E+00
         21   -1    0    0  503  502  0.00000000000E+00  0.00000000000E+00  0.30691536801E+03  0.30691536801E+03  0.00000000000E+00 0.  1.
         21   -1    0    0  501  503 -0.00000000000E+00 -0.00000000000E+00 -0.35667891547E+03  0.35667891547E+03  0.00000000000E+00 0.  1.
          6    1    1    2  501    0  0.10450789558E+03  0.10450546150E+03 -0.26576401948E+03  0.34986112355E+03  0.17300000000E+03 0.  1.
         -6    1    1    2    0  502 -0.10450789558E+03 -0.10450546150E+03  0.21600047203E+03  0.31373315993E+03  0.17300000000E+03 0.  1.
</event>
<event>
 4    1  0.3065897E+000  0.1000000E+03  0.7546771E-02  0.1280296E+00
         21   -1    0    0  503  502  0.00000000000E+00  0.00000000000E+00  0.47733007129E+02  0.47733007129E+02  0.00000000000E+00 0.  1.
         21   -1    0    0  501  503 -0.00000000000E+00 -0.00000000000E+00 -0.66708536315E+03  0.66708536315E+03  0.00000000000E+00 0.  1.
          6    1    1    2  501    0 -0.31380259088E+02 -0.30434831581E+02 -0.30685015817E+03  0.35496058824E+03  0.17300000000E+03 0.  1.
         -6    1    1    2    0  502  0.31380259088E+02  0.30434831581E+02 -0.31250219785E+03  0.35985778204E+03  0.17300000000E+03 0.  1.
</event>
<event>
 4    1  0.3065897E+000  0.1000000E+03  0.7546771E-02  0.1280296E+00
         21   -1    0    0  503  502  0.00000000000E+00  0.00000000000E+00  0.13521813915E+04  0.13521813915E+04  0.00000000000E+00 0.  1.
         21   -1    0    0  501  503 -0.00000000000E+00 -0.00000000000E+00 -0.45801895158E+02  0.45801895158E+02  0.00000000000E+00 0.  1.
          6    1    1    2  501    0  0.61262198051E+02 -0.16045083016E+03  0.79379401751E+03  0.83038272383E+03  0.17300000000E+03 0.  1.
         -6    1    1    2    0  502 -0.61262198051E+02  0.16045083016E+03  0.51258547882E+03  0.56760056281E+03  0.17300000000E+03 0.  1.
</event>
<event>
 4    1  0.3065897E+000  0.1000000E+03  0.7546771E-02  0.1280296E+00
         21   -1    0    0  501  502  0.00000000000E+00  0.00000000000E+00  0.79517627400E+03  0.79517627400E+03  0.00000000000E+00 0.  1.
         21   -1    0    0  502  503 -0.00000000000E+00 -0.00000000000E+00 -0.72058690347E+02  0.72058690347E+02  0.00000000000E+00 0.  1.
          6    1    1    2  501    0 -0.81877348290E+02  0.14341593256E+03  0.34359586191E+03  0.41863963763E+03  0.17300000000E+03 0.  1.
         -6    1    1    2    0  503  0.81877348290E+02 -0.14341593256E+03  0.37952172174E+03  0.44859532671E+03  0.17300000000E+03 0.  1.
</event>
<event>
 4    1  0.3065897E+000  0.1000000E+03  0.7546771E-02  0.1280296E+00
         21   -1    0    0  501  502  0.00000000000E+00  0.00000000000E+00  0.18448953608E+04  0.18448953608E+04  0.00000000000E+00 0.  1.
         21   -1    0    0  502  503 -0.00000000000E+00 -0.00000000000E+00 -0.43095412071E+02  0.43095412071E+02  0.00000000000E+00 0.  1.
          6    1    1    2  501    0 -0.10191688539E+03 -0.19790730855E+03  0.88478441028E+03  0.92861553238E+03  0.17300000000E+03 0.  1.
         -6    1    1    2    0  503  0.10191688539E+03  0.19790730855E+03  0.91701553843E+03  0.95937524047E+03  0.17300000000E+03 0.  1.
</event>
<event>
 4    1  0.3065897E+000  0.1000000E+03  0.7546771E-02  0.1280296E+00
         21   -1    0    0  501  502  0.00000000000E+00  0.00000000000E+00  0.10315836793E+03  0.10315836793E+03  0.00000000000E+00 0.  1.
         21   -1    0    0  502  503 -0.00000000000E+00 -0.00000000000E+00 -0.40779214113E+03  0.40779214113E+03  0.00000000000E+00 0.  1.
          6    1    1    2  501    0 -0.77876972149E+02 -0.56064601041E+02 -0.84892173819E+02  0.21527597046E+03  0.17300000000E+03 0.  1.
         -6    1    1    2    0  503  0.77876972149E+02  0.56064601041E+02 -0.21974159937E+03  0.29567453860E+03  0.17300000000E+03 0.  1.
</event>
<event>
 4    1  0.3065897E+000  0.1000000E+03  0.7546771E-02  0.1280296E+00
         21   -1    0    0  501  502  0.00000000000E+00  0.00000000000E+00  0.77040455153E+03  0.77040455153E+03  0.00000000000E+00 0.  1.
         21   -1    0    0  502  503 -0.00000000000E+00 -0.00000000000E+00 -0.69118268943E+02  0.69118268943E+02  0.00000000000E+00 0.  1.
          6    1    1    2  501    0  0.12483950437E+02  0.11526043285E+03  0.53144705598E+03  0.57079399936E+03  0.17300000000E+03 0.  1.
         -6    1    1    2    0  503 -0.12483950437E+02 -0.11526043285E+03  0.16983922661E+03  0.26872882111E+03  0.17300000000E+03 0.  1.
</event>
<event>
 4    1  0.3065897E+000  0.1000000E+03  0.7546771E-02  0.1280296E+00
         21   -1    0    0  501  502  0.00000000000E+00  0.00000000000E+00  0.31922235434E+03  0.31922235434E+03  0.00000000000E+00 0.  1.
         21   -1    0    0  502  503 -0.00000000000E+00 -0.00000000000E+00 -0.23196564618E+03  0.23196564618E+03  0.00000000000E+00 0. -1.
          6    1    1    2  501    0  0.16209362491E+03 -0.54611574465E+02  0.16709861256E+03  0.29514015928E+03  0.17300000000E+03 0. -1.
         -6    1    1    2    0  503 -0.16209362491E+03  0.54611574465E+02 -0.79841904408E+02  0.25604784124E+03  0.17300000000E+03 0. -1.
</event>
<event>
 4    1  0.3065897E+000  0.1000000E+03  0.7546771E-02  0.1280296E+00
         21   -1    0    0  501  502  0.00000000000E+00  0.00000000000E+00  0.15509555102E+03  0.15509555102E+03  0.00000000000E+00 0. -1.
         21   -1    0    0  502  503 -0.00000000000E+00 -0.00000000000E+00 -0.23509694434E+04  0.23509694434E+04  0.00000000000E+00 0.  1.
          6    1    1    2  501    0 -0.18184222802E+03 -0.14168187538E+02  0.41345424898E+02  0.25476612332E+03  0.17300000000E+03 0. -1.
         -6    1    1    2    0  503  0.18184222802E+03  0.14168187538E+02 -0.22372193173E+04  0.22512988711E+04  0.17300000000E+03 0.  1.
</event>
<event>
 4    1  0.3065897E+000  0.1000000E+03  0.7546771E-02  0.1280296E+00
         21   -1    0    0  501  502  0.00000000000E+00  0.00000000000E+00  0.27586260429E+03  0.27586260429E+03  0.00000000000E+00 0. -1.
         21   -1    0    0  502  503 -0.00000000000E+00 -0.00000000000E+00 -0.29616270181E+03  0.29616270181E+03  0.00000000000E+00 0.  1.
          6    1    1    2  501    0  0.13661958143E+03 -0.15115338964E+03  0.91200301354E+02  0.28241592058E+03  0.17300000000E+03 0. -1.
         -6    1    1    2    0  503 -0.13661958143E+03  0.15115338964E+03 -0.11150039887E+03  0.28960938552E+03  0.17300000000E+03 0.  1.
</event>
<event>
 4    1  0.3065897E+000  0.1000000E+03  0.7546771E-02  0.1280296E+00
         21   -1    0    0  501  502  0.00000000000E+00  0.00000000000E+00  0.33833496523E+03  0.33833496523E+03  0.00000000000E+00 0. -1.
         21   -1    0    0  502  503 -0.00000000000E+00 -0.00000000000E+00 -0.54014979400E+03  0.54014979400E+03  0.00000000000E+00 0.  1.
          6    1    1    2  501    0 -0.35996389354E+03 -0.30242058511E+01 -0.25754148996E+03  0.47522601941E+03  0.17300000000E+03 0. -1.
         -6    1    1    2    0  503  0.35996389354E+03  0.30242058511E+01  0.55726661191E+02  0.40325873982E+03  0.17300000000E+03 0.  1.
</event>
<event>
 4    1  0.3065897E+000  0.1000000E+03  0.7546771E-02  0.1280296E+00
         21   -1    0    0  501  502  0.00000000000E+00  0.00000000000E+00  0.67117399741E+03  0.67117399741E+03  0.00000000000E+00 0. -1.
         21   -1    0    0  502  503 -0.00000000000E+00 -0.00000000000E+00 -0.81360275265E+02  0.81360275265E+02  0.00000000000E+00 0.  1.
          6    1    1    2  501    0 -0.13886220527E+01 -0.91665943074E+02  0.50031171790E+03  0.53725728330E+03  0.17300000000E+03 0. -1.
         -6    1    1    2    0  503  0.13886220527E+01  0.91665943074E+02  0.89502004245E+02  0.21527698938E+03  0.17300000000E+03 0.  1.
</event>
<event>
 4    1  0.3065897E+000  0.1000000E+03  0.7546771E-02  0.1280296E+00
         21   -1    0    0  501  502  0.00000000000E+00  0.00000000000E+00  0.10175039143E+03  0.10175039143E+03  0.00000000000E+00 0. -1.
         21   -1    0    0  502  503 -0.00000000000E+00 -0.00000000000E+00 -0.95507772445E+03  0.95507772445E+03  0.00000000000E+00 0. -1.
          6    1    1    2  501    0 -0.99338793542E+02 -0.14169052431E+02 -0.21327818094E+02  0.20112889841E+03  0.17300000000E+03 0. -1.
         -6    1    1    2    0  503  0.99338793542E+02  0.14169052431E+02 -0.83199951493E+03  0.85569921748E+03  0.17300000000E+03 0. -1.
</event>
<event>
 4    1  0.3065897E+000  0.1000000E+03  0.7546771E-02  0.1280296E+00
         21   -1    0    0  501  502  0.00000000000E+00  0.00000000000E+00  0.72622049406E+03  0.72622049406E+03  0.00000000000E+00 0. -1.
         21   -1    0    0  502  503 -0.00000000000E+00 -0.00000000000E+00 -0.40513515140E+03  0.40513515140E+03  0.00000000000E+00 0. -1.
          6    1    1    2  501    0 -0.32978374445E+01 -0.10726497861E+03  0.68486608123E+03  0.71448387006E+03  0.17300000000E+03 0. -1.
         -6    1    1    2    0  503  0.32978374445E+01  0.10726497861E+03 -0.36378073857E+03  0.41687177540E+03  0.17300000000E+03 0. -1.
</event>
<event>
 4    1  0.3065897E+000  0.1000000E+03  0.7546771E-02  0.1280296E+00
         21   -1    0    0  503  502  0.00000000000E+00  0.00000000000E+00  0.10379954120E+03  0.10379954120E+03  0.00000000000E+00 0. -1.
         21   -1    0    0  501  503 -0.00000000000E+00 -0.00000000000E+00 -0.50138512233E+03  0.50138512233E+03  0.00000000000E+00 0. -1.
          6    1    1    2  501    0 -0.13621359366E+03 -0.53644607016E+02 -0.16413696131E+03  0.27982463978E+03  0.17300000000E+03 0. -1.
         -6    1    1    2    0  502  0.13621359366E+03  0.53644607016E+02 -0.23344861982E+03  0.32536002375E+03  0.17300000000E+03 0. -1.
</event>
<event>
 4    1  0.3065897E+000  0.1000000E+03  0.7546771E-02  0.1280296E+00
         21   -1    0    0  503  502  0.00000000000E+00  0.00000000000E+00  0.63919837627E+02  0.63919837627E+02  0.00000000000E+00 0. -1.
         21   -1    0    0  501  503 -0.00000000000E+00 -0.00000000000E+00 -0.99580539009E+03  0.99580539009E+03  0.00000000000E+00 0. -1.
          6    1    1    2  501    0  0.71037545102E+02 -0.91203924083E+02 -0.76560239367E+03  0.79337287184E+03  0.17300000000E+03 0. -1.
         -6    1    1    2    0  502 -0.71037545102E+02  0.91203924083E+02 -0.16628315880E+03  0.26635235588E+03  0.17300000000E+03 0. -1.
</event>
<event>
 4    1  0.3065897E+000  0.1000000E+03  0.7546771E-02  0.1280296E+00
         21   -1    0    0  503  502  0.00000000000E+00  0.00000000000E+00  0.14643514572E+03  0.14643514572E+03  0.00000000000E+00 0. -1.
         21   -1    0    0  501  503 -0.00000000000E+00 -0.00000000000E+00 -0.49737084328E+03  0.49737084328E+03  0.00000000000E+00 0. -1.
          6    1    1    2  501    0  0.14549233757E+03 -0.98985407121E+02 -0.30578987059E+03  0.39294093204E+03  0.17300000000E+03 0. -1.
         -6    1    1    2    0  502 -0.14549233757E+03  0.98985407121E+02 -0.45145826967E+02  0.25086505697E+03  0.17300000000E+03 0. -1.
</event>
<event>
 4    1  0.3065897E+000  0.1000000E+03  0.7546771E-02  0.1280296E+00
         21   -1    0    0  503  502  0.00000000000E+00  0.00000000000E+00  0.35194891942E+02  0.35194891942E+02  0.00000000000E+00 0.  1.
         21   -1    0    0  501  503 -0.00000000000E+00 -0.00000000000E+00 -0.26603445069E+04  0.26603445069E+04  0.00000000000E+00 0. -1.
          6    1    1    2  501    0  0.20936698767E+01 -0.92755937330E+02 -0.23464237140E+04  0.23546212631E+04  0.17300000000E+03 0. -1.
         -6    1    1    2    0  502 -0.20936698767E+01  0.92755937330E+02 -0.27872590096E+03  0.34091813567E+03  0.17300000000E+03 0.  1.
</event>
<event>
 4    1  0.3065897E+000  0.1000000E+03  0.7546771E-02  0.1280296E+00
         21   -1    0    0  503  502  0.00000000000E+00  0.00000000000E+00  0.19191982210E+04  0.19191982210E+04  0.00000000000E+00 0.  1.
         21   -1    0    0  501  503 -0.00000000000E+00 -0.00000000000E+00 -0.24481254874E+02  0.24481254874E+02  0.00000000000E+00 0. -1.
          6    1    1    2  501    0 -0.42627037710E+02  0.47551811389E+02  0.14581073625E+04  0.14697225315E+04  0.17300000000E+03 0. -1.
         -6    1    1    2    0  502  0.42627037710E+02 -0.47551811389E+02  0.43660960359E+03  0.47395694431E+03  0.17300000000E+03 0.  1.
</event>
<event>
 4    1  0.3065897E+000  0.1000000E+03  0.7546771E-02  0.1280296E+00
         21   -1    0    0  503  502  0.00000000000E+00  0.00000000000E+00  0.24407736960E+03  0.24407736960E+03  0.00000000000E+00 0.  1.
         21   -1    0    0  501  503 -0.00000000000E+00 -0.00000000000E+00 -0.15432337740E+03  0.15432337740E+03  0.00000000000E+00 0. -1.
          6    1    1    2  501    0 -0.27957387461E+02 -0.77750491670E+02  0.13896307568E+02  0.19222086732E+03  0.17300000000E+03 0. -1.
         -6    1    1    2    0  502  0.27957387461E+02  0.77750491670E+02  0.75857684631E+02  0.20617987968E+03  0.17300000000E+03 0.  1.
</event>
<event>
 4    1  0.3065897E+000  0.1000000E+03  0.7546771E-02  0.1280296E+00
         21   -1    0    0  501  502  0.00000000000E+00  0.00000000000E+00  0.52903269896E+03  0.52903269896E+03  0.00000000000E+00 0. -1.
         21   -1    0    0  502  503 -0.00000000000E+00 -0.00000000000E+00 -0.81153247303E+02  0.81153247303E+02  0.00000000000E+00 0. -1.
          6    1    1    2  501    0 -0.69942621209E+02 -0.82629941247E+02  0.27670253965E+03  0.34382113504E+03  0.17300000000E+03 0. -1.
         -6    1    1    2    0  503  0.69942621209E+02  0.82629941247E+02  0.17117691200E+03  0.26636481122E+03  0.17300000000E+03 0. -1.
</event>
<event>
 4    1  0.3065897E+000  0.1000000E+03  0.7546771E-02  0.1280296E+00
         21   -1    0    0  501  502  0.00000000000E+00  0.00000000000E+00  0.38362226587E+03  0.38362226587E+03  0.00000000000E+00 0. -1.
         21   -1    0    0  502  503 -0.00000000000E+00 -0.00000000000E+00 -0.68046642110E+03  0.68046642110E+03  0.00000000000E+00 0. -1.
          6    1    1    2  501    0 -0.22714813916E+03  0.41514578312E+03 -0.60240973371E+02  0.50744484748E+03  0.17300000000E+03 0. -1.
         -6    1    1    2    0  503  0.22714813916E+03 -0.41514578312E+03 -0.23660318186E+03  0.55664383948E+03  0.17300000000E+03 0. -1.
</event>
<event>
 4    1  0.3065897E+000  0.1000000E+03  0.7546771E-02  0.1280296E+00
         21   -1    0    0  503  502  0.00000000000E+00  0.00000000000E+00  0.27004454621E+04  0.27004454621E+04  0.00000000000E+00 0.  1.
         21   -1    0    0  501  503 -0.00000000000E+00 -0.00000000000E+00 -0.24746704118E+02  0.24746704118E+02  0.00000000000E+00 0. -1.
          6    1    1    2  501    0  0.71007094868E+02  0.23475642993E+02  0.40524450295E+03  0.44692865259E+03  0.17300000000E+03 0. -1.
         -6    1    1    2    0  502 -0.71007094868E+02 -0.23475642993E+02  0.22704542550E+04  0.22782635136E+04  0.17300000000E+03 0.  1.
</event>
<event>
 4    1  0.3065897E+000  0.1000000E+03  0.7546771E-02  0.1280296E+00
         21   -1    0    0  503  502  0.00000000000E+00  0.00000000000E+00  0.41412835345E+03  0.41412835345E+03  0.00000000000E+00 0.  1.
         21   -1    0    0  501  503 -0.00000000000E+00 -0.00000000000E+00 -0.88414716136E+02  0.88414716136E+02  0.00000000000E+00 0. -1.
          6    1    1    2  501    0  0.22447301255E+02  0.32607099818E+02  0.68905386819E+02  0.19037871894E+03  0.17300000000E+03 0. -1.
         -6    1    1    2    0  502 -0.22447301255E+02 -0.32607099818E+02  0.25680825050E+03  0.31216435065E+03  0.17300000000E+03 0.  1.
</event>
<event>
 4    1  0.3065897E+000  0.1000000E+03  0.7546771E-02  0.1280296E+00
         21   -1    0    0  503  502  0.00000000000E+00  0.00000000000E+00  0.67824474569E+02  0.67824474569E+02  0.00000000000E+00 0.  1.
         21   -1    0    0  501  503 -0.00000000000E+00 -0.00000000000E+00 -0.80804341556E+03  0.80804341556E+03  0.00000000000E+00 0. -1.
          6    1    1    2  501    0 -0.14439183112E+02 -0.62392371453E+02 -0.63973853132E+03  0.66580454075E+03  0.17300000000E+03 0. -1.
         -6    1    1    2    0  502  0.14439183112E+02  0.62392371453E+02 -0.10048040967E+03  0.21006334938E+03  0.17300000000E+03 0.  1.
</event>
<event>
 4    1  0.3065897E+000  0.1000000E+03  0.7546771E-02  0.1280296E+00
         21   -1    0    0  503  502  0.00000000000E+00  0.00000000000E+00  0.62573988460E+03  0.62573988460E+03  0.00000000000E+00 0.  1.
         21   -1    0    0  501  503 -0.00000000000E+00 -0.00000000000E+00 -0.87929284179E+02  0.87929284179E+02  0.00000000000E+00 0. -1.
          6    1    1    2  501    0 -0.94306400501E+02  0.90061691601E+02  0.13210141192E+03  0.25374118408E+03  0.17300000000E+03 0. -1.
         -6    1    1    2    0  502  0.94306400501E+02 -0.90061691601E+02  0.40570918851E+03  0.45992798470E+03  0.17300000000E+03 0.  1.
</event>
<event>
 4    1  0.3065897E+000  0.1000000E+03  0.7546771E-02  0.1280296E+00
         21   -1    0    0  501  502  0.00000000000E+00  0.00000000000E+00  0.87764314943E+02  0.87764314943E+02  0.00000000000E+00 0.  1.
         21   -1    0    0  502  503 -0.00000000000E+00 -0.00000000000E+00 -0.16610428644E+04  0.16610428644E+04  0.00000000000E+00 0. -1.
          6    1    1    2  501    0 -0.15531791419E+03  0.38511912502E+01 -0.93089697058E+02  0.25046592151E+03  0.17300000000E+03 0.  1.
         -6    1    1    2    0  503  0.15531791419E+03 -0.38511912502E+01 -0.14801888524E+04  0.14983412578E+04  0.17300000000E+03 0.  1.
</event>
<event>
 4    1  0.3065897E+000  0.1000000E+03  0.7546771E-02  0.1280296E+00
         21   -1    0    0  501  502  0.00000000000E+00  0.00000000000E+00  0.23911091933E+03  0.23911091933E+03  0.00000000000E+00 0.  1.
         21   -1    0    0  502  503 -0.00000000000E+00 -0.00000000000E+00 -0.18500418000E+03  0.18500418000E+03  0.00000000000E+00 0. -1.
          6    1    1    2  501    0  0.11419031156E+03  0.17552001772E+02 -0.41860746472E+01  0.20807215873E+03  0.17300000000E+03 0.  1.
         -6    1    1    2    0  503 -0.11419031156E+03 -0.17552001772E+02  0.58292813975E+02  0.21604294059E+03  0.17300000000E+03 0.  1.
</event>
<event>
 4    1  0.3065897E+000  0.1000000E+03  0.7546771E-02  0.1280296E+00
         21   -1    0    0  503  502  0.00000000000E+00  0.00000000000E+00  0.98036237376E+03  0.98036237376E+03  0.00000000000E+00 0. -1.
         21   -1    0    0  501  503 -0.00000000000E+00 -0.00000000000E+00 -0.19316947503E+03  0.19316947503E+03  0.00000000000E+00 0. -1.
          6    1    1    2  501    0 -0.23158976901E+03  0.14325551582E+03 -0.18407174714E+00  0.32262206652E+03  0.17300000000E+03 0. -1.
         -6    1    1    2    0  502  0.23158976901E+03 -0.14325551582E+03  0.78737697048E+03  0.85090978227E+03  0.17300000000E+03 0. -1.
</event>
<event>
 4    1  0.3065897E+000  0.1000000E+03  0.7546771E-02  0.1280296E+00
         21   -1    0    0  503  502  0.00000000000E+00  0.00000000000E+00  0.40737164863E+03  0.40737164863E+03  0.00000000000E+00 0. -1.
         21   -1    0    0  501  503 -0.00000000000E+00 -0.00000000000E+00 -0.12006164007E+03  0.12006164007E+03  0.00000000000E+00 0. -1.
          6    1    1    2  501    0  0.94270022955E+02 -0.91677895079E+02  0.19266213489E+03  0.29041241691E+03  0.17300000000E+03 0. -1.
         -6    1    1    2    0  502 -0.94270022955E+02  0.91677895079E+02  0.94647873675E+02  0.23702087179E+03  0.17300000000E+03 0. -1.
</event>
<event>
 4    1  0.3065897E+000  0.1000000E+03  0.7546771E-02  0.1280296E+00
         21   -1    0    0  501  502  0.00000000000E+00  0.00000000000E+00  0.12425834426E+04  0.12425834426E+04  0.00000000000E+00 0.  1.
         21   -1    0    0  502  503 -0.00000000000E+00 -0.00000000000E+00 -0.40716155994E+02  0.40716155994E+02  0.00000000000E+00 0.  1.
          6    1    1    2  501    0 -0.31666687705E+02  0.30150449953E+02  0.99157681694E+03  0.10075045472E+04  0.17300000000E+03 0.  1.
         -6    1    1    2    0  503  0.31666687705E+02 -0.30150449953E+02  0.21029046969E+03  0.27579505142E+03  0.17300000000E+03 0.  1.
</event>
<event>
 4    1  0.3065897E+000  0.1000000E+03  0.7546771E-02  0.1280296E+00
         21   -1    0    0  501  502  0.00000000000E+00  0.00000000000E+00  0.13147419640E+03  0.13147419640E+03  0.00000000000E+00 0.  1.
         21   -1    0    0  502  503 -0.00000000000E+00 -0.00000000000E+00 -0.52986887359E+03  0.52986887359E+03  0.00000000000E+00 0.  1.
          6    1    1    2  501    0  0.34640767743E+02  0.30640435692E+02  0.43723458416E+02  0.18433545482E+03  0.17300000000E+03 0.  1.
         -6    1    1    2    0  503 -0.34640767743E+02 -0.30640435692E+02 -0.44211813560E+03  0.47700761516E+03  0.17300000000E+03 0.  1.
</event>
<event>
 4    1  0.3065897E+000  0.1000000E+03  0.7546771E-02  0.1280296E+00
         21   -1    0    0  503  502  0.00000000000E+00  0.00000000000E+00  0.43061176739E+03  0.43061176739E+03  0.00000000000E+00 0. -1.
         21   -1    0    0  501  503 -0.00000000000E+00 -0.00000000000E+00 -0.24560714624E+03  0.24560714624E+03  0.00000000000E+00 0. -1.
          6    1    1    2  501    0 -0.78704565997E+02  0.23438737045E+03 -0.33552556129E+02  0.30362249943E+03  0.17300000000E+03 0. -1.
         -6    1    1    2    0  502  0.78704565997E+02 -0.23438737045E+03  0.21855717728E+03  0.37259641420E+03  0.17300000000E+03 0. -1.
</event>
<event>
 4    1  0.3065897E+000  0.1000000E+03  0.7546771E-02  0.1280296E+00
         21   -1    0    0  503  502  0.00000000000E+00  0.00000000000E+00  0.86053566455E+02  0.86053566455E+02  0.00000000000E+00 0. -1.
         21   -1    0    0  501  503 -0.00000000000E+00 -0.00000000000E+00 -0.18100505611E+04  0.18100505611E+04  0.00000000000E+00 0. -1.
          6    1    1    2  501    0  0.12257163590E+03 -0.11183881512E+03 -0.16151466883E+04  0.16328378827E+04  0.17300000000E+03 0. -1.
         -6    1    1    2    0  502 -0.12257163590E+03  0.11183881512E+03 -0.10885030639E+03  0.26326624488E+03  0.17300000000E+03 0. -1.
</event>
<event>
 4    1  0.3065897E+000  0.1000000E+03  0.7546771E-02  0.1280296E+00
         21   -1    0    0  503  502  0.00000000000E+00  0.00000000000E+00  0.34512103909E+03  0.34512103909E+03  0.00000000000E+00 0. -1.
         21   -1    0    0  501  503 -0.00000000000E+00 -0.00000000000E+00 -0.15215647069E+03  0.15215647069E+03  0.00000000000E+00 0. -1.
          6    1    1    2  501    0 -0.56258235780E+02 -0.72953211808E+01 -0.54507914115E+02  0.19004821363E+03  0.17300000000E+03 0. -1.
         -6    1    1    2    0  502  0.56258235780E+02  0.72953211808E+01  0.24747248252E+03  0.30722929614E+03  0.17300000000E+03 0. -1.
</event>
<event>
 4    1  0.3065897E+000  0.1000000E+03  0.7546771E-02  0.1280296E+00
         21   -1    0    0  501  502  0.00000000000E+00  0.00000000000E+00  0.20607943690E+04  0.20607943690E+04  0.00000000000E+00 0. -1.
         21   -1    0    0  502  503 -0.00000000000E+00 -0.00000000000E+00 -0.27656505871E+02  0.27656505871E+02  0.00000000000E+00 0.  1.
          6    1    1    2  501    0 -0.35615276025E+02  0.20864034291E+02  0.17131421020E+04  0.17223497373E+04  0.17300000000E+03 0.  1.
         -6    1    1    2    0  503  0.35615276025E+02 -0.20864034291E+02  0.31999576110E+03  0.36610113757E+03  0.17300000000E+03 0. -1.
</event>
<event>
 4    1  0.3065897E+000  0.1000000E+03  0.7546771E-02  0.1280296E+00
         21   -1    0    0  501  502  0.00000000000E+00  0.00000000000E+00  0.20110636845E+03  0.20110636845E+03  0.00000000000E+00 0. -1.
         21   -1    0    0  502  503 -0.00000000000E+00 -0.00000000000E+00 -0.36203682282E+03  0.36203682282E+03  0.00000000000E+00 0.  1.
          6    1    1    2  501    0 -0.19216606063E+03 -0.43180817259E+02 -0.13757360105E+02  0.26250836709E+03  0.17300000000E+03 0.  1.
         -6    1    1    2    0  503  0.19216606063E+03  0.43180817259E+02 -0.14717309426E+03  0.30063482418E+03  0.17300000000E+03 0. -1.
</event>
<event>
 4    1  0.3065897E+000  0.1000000E+03  0.7546771E-02  0.1280296E+00
         21   -1    0    0  503  502  0.00000000000E+00  0.00000000000E+00  0.30637761115E+02  0.30637761115E+02  0.00000000000E+00 0. -1.
         21   -1    0    0  501  503 -0.00000000000E+00 -0.00000000000E+00 -0.13960298832E+04  0.13960298832E+04  0.00000000000E+00 0.  1.
          6    1    1    2  501    0 -0.46377416025E+02  0.29571592993E+02 -0.34094975794E+03  0.38626555796E+03  0.17300000000E+03 0. -1.
         -6    1    1    2    0  502  0.46377416025E+02 -0.29571592993E+02 -0.10244423641E+04  0.10404020863E+04  0.17300000000E+03 0.  1.
</event>
<event>
 4    1  0.3065897E+000  0.1000000E+03  0.7546771E-02  0.1280296E+00
         21   -1    0    0  503  502  0.00000000000E+00  0.00000000000E+00  0.75599441485E+03  0.75599441485E+03  0.00000000000E+00 0.  1.
         21   -1    0    0  501  503 -0.00000000000E+00 -0.00000000000E+00 -0.47657312995E+02  0.47657312995E+02  0.00000000000E+00 0.  1.
          6    1    1    2  501    0  0.17945223105E+02  0.58487713747E+02  0.25139605343E+03  0.31124238043E+03  0.17300000000E+03 0.  1.
         -6    1    1    2    0  502 -0.17945223105E+02 -0.58487713747E+02  0.45694104842E+03  0.49240934742E+03  0.17300000000E+03 0.  1.
</event>
<event>
 4    1  0.3065897E+000  0.1000000E+03  0.7546771E-02  0.1280296E+00
         21   -1    0    0  503  502  0.00000000000E+00  0.00000000000E+00  0.93543398745E+02  0.93543398745E+02  0.00000000000E+00 0.  1.
         21   -1    0    0  501  503 -0.00000000000E+00 -0.00000000000E+00 -0.66353580525E+03  0.66353580525E+03  0.00000000000E+00 0.  1.
          6    1    1    2  501    0 -0.63127220113E+02  0.99274560523E+02 -0.49053653138E+03  0.53328751430E+03  0.17300000000E+03 0.  1.
         -6    1    1    2    0  502  0.63127220113E+02 -0.99274560523E+02 -0.79455875126E+02  0.22379168970E+03  0.17300000000E+03 0.  1.
</event>
<event>
 4    1  0.3065897E+000  0.1000000E+03  0.7546771E-02  0.1280296E+00
         21   -1    0    0  503  502  0.00000000000E+00  0.00000000000E+00  0.19459287083E+03  0.19459287083E+03  0.00000000000E+00 0.  1.
         21   -1    0    0  501  503 -0.00000000000E+00 -0.00000000000E+00 -0.54504820193E+03  0.54504820193E+03  0.00000000000E+00 0.  1.
          6    1    1    2  501    0  0.81064074499E+02  0.26224415830E+03 -0.20714703689E+03  0.38494451240E+03  0.17300000000E+03 0.  1.
         -6    1    1    2    0  502 -0.81064074499E+02 -0.26224415830E+03 -0.14330829421E+03  0.35469656035E+03  0.17300000000E+03 0.  1.
</event>
<event>
 4    1  0.3065897E+000  0.1000000E+03  0.7546771E-02  0.1280296E+00
         21   -1    0    0  501  502  0.00000000000E+00  0.00000000000E+00  0.55245699172E+03  0.55245699172E+03  0.00000000000E+00 0. -1.
         21   -1    0    0  502  503 -0.00000000000E+00 -0.00000000000E+00 -0.11682693561E+03  0.11682693561E+03  0.00000000000E+00 0. -1.
          6    1    1    2  501    0  0.34056374490E+02  0.18050375746E+03  0.25669912454E+03  0.35995122397E+03  0.17300000000E+03 0. -1.
         -6    1    1    2    0  503 -0.34056374490E+02 -0.18050375746E+03  0.17893093156E+03  0.30933270336E+03  0.17300000000E+03 0. -1.
</event>
<event>
 4    1  0.3065897E+000  0.1000000E+03  0.7546771E-02  0.1280296E+00
         21   -1    0    0  501  502  0.00000000000E+00  0.00000000000E+00  0.70076437512E+03  0.70076437512E+03  0.00000000000E+00 0.  1.
         21   -1    0    0  502  503 -0.00000000000E+00 -0.00000000000E+00 -0.51774972151E+02  0.51774972151E+02  0.00000000000E+00 0.  1.
          6    1    1    2  501    0 -0.12702287128E+02 -0.35395834526E+02  0.46331912345E+03  0.49599175735E+03  0.17300000000E+03 0.  1.
         -6    1    1    2    0  503  0.12702287128E+02  0.35395834526E+02  0.18567027952E+03  0.25654758992E+03  0.17300000000E+03 0.  1.
</event>
<event>
 4    1  0.3065897E+000  0.1000000E+03  0.7546771E-02  0.1280296E+00
         21   -1    0    0  501  502  0.00000000000E+00  0.00000000000E+00  0.26677539091E+02  0.26677539091E+02  0.00000000000E+00 0.  1.
         21   -1    0    0  502  503 -0.00000000000E+00 -0.00000000000E+00 -0.12645699221E+04  0.12645699221E+04  0.00000000000E+00 0.  1.
          6    1    1    2  501    0  0.58381448639E+02 -0.16953211617E+02 -0.65594791188E+03  0.68109651888E+03  0.17300000000E+03 0.  1.
         -6    1    1    2    0  503 -0.58381448639E+02  0.16953211617E+02 -0.58194447117E+03  0.61015094235E+03  0.17300000000E+03 0.  1.
</event>
<event>
 4    1  0.3065897E+000  0.1000000E+03  0.7546771E-02  0.1280296E+00
         21   -1    0    0  503  502  0.00000000000E+00  0.00000000000E+00  0.12325431832E+03  0.12325431832E+03  0.00000000000E+00 0.  1.
         21   -1    0    0  501  503 -0.00000000000E+00 -0.00000000000E+00 -0.75852965605E+03  0.75852965605E+03  0.00000000000E+00 0. -1.
          6    1    1    2  501    0 -0.80628745346E+02  0.11170305463E+02 -0.66170483472E+03  0.68877286430E+03  0.17300000000E+03 0. -1.
         -6    1    1    2    0  502  0.80628745346E+02 -0.11170305463E+02  0.26429496990E+02  0.19301111007E+03  0.17300000000E+03 0.  1.
</event>
<event>
 4    1  0.3065897E+000  0.1000000E+03  0.7546771E-02  0.1280296E+00
         21   -1    0    0  503  502  0.00000000000E+00  0.00000000000E+00  0.49012390874E+03  0.49012390874E+03  0.00000000000E+00 0.  1.
         21   -1    0    0  501  503 -0.00000000000E+00 -0.00000000000E+00 -0.13875413365E+03  0.13875413365E+03  0.00000000000E+00 0. -1.
          6    1    1    2  501    0 -0.15695342782E+03 -0.63450494154E+02  0.58674221879E+02  0.24906225733E+03  0.17300000000E+03 0. -1.
         -6    1    1    2    0  502  0.15695342782E+03  0.63450494154E+02  0.29269555321E+03  0.37981578506E+03  0.17300000000E+03 0.  1.
</event>
<event>
 4    1  0.3065897E+000  0.1000000E+03  0.7546771E-02  0.1280296E+00
         21   -1    0    0  503  502  0.00000000000E+00  0.00000000000E+00  0.87574259365E+03  0.87574259365E+03  0.00000000000E+00 0.  1.
         21   -1    0    0  501  503 -0.00000000000E+00 -0.00000000000E+00 -0.18252877306E+03  0.18252877306E+03  0.00000000000E+00 0. -1.
          6    1    1    2  501    0 -0.22207988498E+03 -0.15195885030E+03  0.29227874777E+02  0.32123859693E+03  0.17300000000E+03 0. -1.
         -6    1    1    2    0  502  0.22207988498E+03  0.15195885030E+03  0.66398594581E+03  0.73703276978E+03  0.17300000000E+03 0.  1.
</event>
<event>
 4    1  0.3065897E+000  0.1000000E+03  0.7546771E-02  0.1280296E+00
         21   -1    0    0  501  502  0.00000000000E+00  0.00000000000E+00  0.13915763992E+03  0.13915763992E+03  0.00000000000E+00 0.  1.
         21   -1    0    0  502  503 -0.00000000000E+00 -0.00000000000E+00 -0.46770382058E+03  0.46770382058E+03  0.00000000000E+00 0.  1.
          6    1    1    2  501    0  0.61078070670E+02 -0.20157459796E+02  0.45202013380E+02  0.19002388249E+03  0.17300000000E+03 0. -1.
         -6    1    1    2    0  503 -0.61078070670E+02  0.20157459796E+02 -0.37374819404E+03  0.41683757802E+03  0.17300000000E+03 0. -1.
</event>
<event>
 4    1  0.3065897E+000  0.1000000E+03  0.7546771E-02  0.1280296E+00
         21   -1    0    0  501  502  0.00000000000E+00  0.00000000000E+00  0.62878004551E+03  0.62878004551E+03  0.00000000000E+00 0.  1.
         21   -1    0    0  502  503 -0.00000000000E+00 -0.00000000000E+00 -0.55515286499E+02  0.55515286499E+02  0.00000000000E+00 0.  1.
          6    1    1    2  501    0 -0.18521793475E+02  0.48524730420E+02  0.37407923577E+03  0.41540580271E+03  0.17300000000E+03 0. -1.
         -6    1    1    2    0  503  0.18521793475E+02 -0.48524730420E+02  0.19918552325E+03  0.26888952930E+03  0.17300000000E+03 0. -1.
</event>
<event>
 4    1  0.3065897E+000  0.1000000E+03  0.7546771E-02  0.1280296E+00
         21   -1    0    0  503  502  0.00000000000E+00  0.00000000000E+00  0.22951014080E+03  0.22951014080E+03  0.00000000000E+00 0.  1.
         21   -1    0    0  501  503 -0.00000000000E+00 -0.00000000000E+00 -0.55006741947E+03  0.55006741947E+03  0.00000000000E+00 0.  1.
          6    1    1    2  501    0  0.28415692881E+02 -0.43919879197E+02 -0.49587206687E+03  0.52778263906E+03  0.17300000000E+03 0.  1.
         -6    1    1    2    0  502 -0.28415692881E+02  0.43919879197E+02  0.17531478819E+03  0.25179492121E+03  0.17300000000E+03 0.  1.
</event>
<event>
 4    1  0.3065897E+000  0.1000000E+03  0.7546771E-02  0.1280296E+00
         21   -1    0    0  501  502  0.00000000000E+00  0.00000000000E+00  0.75265206214E+03  0.75265206214E+03  0.00000000000E+00 0. -1.
         21   -1    0    0  502  503 -0.00000000000E+00 -0.00000000000E+00 -0.64639670212E+02  0.64639670212E+02  0.00000000000E+00 0.  1.
          6    1    1    2  501    0 -0.97529975323E+02  0.92272692139E+02  0.39287746746E+03  0.44978667193E+03  0.17300000000E+03 0. -1.
         -6    1    1    2    0  503  0.97529975323E+02 -0.92272692139E+02  0.29513492446E+03  0.36750506043E+03  0.17300000000E+03 0.  1.
</event>
<event>
 4    1  0.3065897E+000  0.1000000E+03  0.7546771E-02  0.1280296E+00
         21   -1    0    0  501  502  0.00000000000E+00  0.00000000000E+00  0.34437272584E+03  0.34437272584E+03  0.00000000000E+00 0.  1.
         21   -1    0    0  502  503 -0.00000000000E+00 -0.00000000000E+00 -0.11487625663E+03  0.11487625663E+03  0.00000000000E+00 0.  1.
          6    1    1    2  501    0  0.58534789072E+02  0.64645250054E+02  0.16671190433E+03  0.25559184050E+03  0.17300000000E+03 0.  1.
         -6    1    1    2    0  503 -0.58534789072E+02 -0.64645250054E+02  0.62784564882E+02  0.20365714197E+03  0.17300000000E+03 0.  1.
</event>
<event>
 4    1  0.3065897E+000  0.1000000E+03  0.7546771E-02  0.1280296E+00
         21   -1    0    0  503  502  0.00000000000E+00  0.00000000000E+00  0.12805438609E+03  0.12805438609E+03  0.00000000000E+00 0.  1.
         21   -1    0    0  501  503 -0.00000000000E+00 -0.00000000000E+00 -0.70439934074E+03  0.70439934074E+03  0.00000000000E+00 0. -1.
          6    1    1    2  501    0 -0.80149699994E+02 -0.10419343602E+03 -0.57552706386E+03  0.61517529839E+03  0.17300000000E+03 0. -1.
         -6    1    1    2    0  502  0.80149699994E+02  0.10419343602E+03 -0.81789079027E+00  0.21727842843E+03  0.17300000000E+03 0.  1.
</event>
<event>
 4    1  0.3065897E+000  0.1000000E+03  0.7546771E-02  0.1280296E+00
         21   -1    0    0  503  502  0.00000000000E+00  0.00000000000E+00  0.58954378630E+03  0.58954378630E+03  0.00000000000E+00 0.  1.
         21   -1    0    0  501  503 -0.00000000000E+00 -0.00000000000E+00 -0.29869814158E+03  0.29869814158E+03  0.00000000000E+00 0. -1.
          6    1    1    2  501    0  0.26583418606E+03 -0.40081139109E+02 -0.14226841550E+03  0.34991943964E+03  0.17300000000E+03 0. -1.
         -6    1    1    2    0  502 -0.26583418606E+03  0.40081139109E+02  0.43311406022E+03  0.53832248824E+03  0.17300000000E+03 0.  1.
</event>
<event>
 4    1  0.3065897E+000  0.1000000E+03  0.7546771E-02  0.1280296E+00
         21   -1    0    0  503  502  0.00000000000E+00  0.00000000000E+00  0.18999348678E+04  0.18999348678E+04  0.00000000000E+00 0.  1.
         21   -1    0    0  501  503 -0.00000000000E+00 -0.00000000000E+00 -0.10391009997E+03  0.10391009997E+03  0.00000000000E+00 0. -1.
          6    1    1    2  501    0  0.26706730487E+03  0.17750121767E+02  0.19987697072E+03  0.37619119551E+03  0.17300000000E+03 0. -1.
         -6    1    1    2    0  502 -0.26706730487E+03 -0.17750121767E+02  0.15961477971E+04  0.16276537722E+04  0.17300000000E+03 0.  1.
</event>
<event>
 4    1  0.3065897E+000  0.1000000E+03  0.7546771E-02  0.1280296E+00
         21   -1    0    0  503  502  0.00000000000E+00  0.00000000000E+00  0.12821810131E+03  0.12821810131E+03  0.00000000000E+00 0.  1.
         21   -1    0    0  501  503 -0.00000000000E+00 -0.00000000000E+00 -0.25650229582E+03  0.25650229582E+03  0.00000000000E+00 0. -1.
          6    1    1    2  501    0 -0.38648162622E+02  0.38020362455E+02 -0.68886774834E+02  0.19394230117E+03  0.17300000000E+03 0. -1.
         -6    1    1    2    0  502  0.38648162622E+02 -0.38020362455E+02 -0.59397419681E+02  0.19077809597E+03  0.17300000000E+03 0.  1.
</event>
<event>
 4    1  0.3065897E+000  0.1000000E+03  0.7546771E-02  0.1280296E+00
         21   -1    0    0  501  502  0.00000000000E+00  0.00000000000E+00  0.43219297301E+02  0.43219297301E+02  0.00000000000E+00 0. -1.
         21   -1    0    0  502  503 -0.00000000000E+00 -0.00000000000E+00 -0.12145715605E+04  0.12145715605E+04  0.00000000000E+00 0. -1.
          6    1    1    2  501    0  0.77017262147E+02 -0.63962042666E+02 -0.27828146351E+03  0.34262570614E+03  0.17300000000E+03 0. -1.
         -6    1    1    2    0  503 -0.77017262147E+02  0.63962042666E+02 -0.89307079973E+03  0.91516515171E+03  0.17300000000E+03 0. -1.
</event>
<event>
 4    1  0.3065897E+000  0.1000000E+03  0.7546771E-02  0.1280296E+00
         21   -1    0    0  501  502  0.00000000000E+00  0.00000000000E+00  0.39033846414E+03  0.39033846414E+03  0.00000000000E+00 0. -1.
         21   -1    0    0  502  503 -0.00000000000E+00 -0.00000000000E+00 -0.12712561627E+03  0.12712561627E+03  0.00000000000E+00 0. -1.
          6    1    1    2  501    0 -0.10660356997E+03 -0.75915634833E+02  0.19043659598E+03  0.28865654649E+03  0.17300000000E+03 0. -1.
         -6    1    1    2    0  503  0.10660356997E+03  0.75915634833E+02  0.72776251884E+02  0.22880753392E+03  0.17300000000E+03 0. -1.
</event>
<event>
 4    1  0.3065897E+000  0.1000000E+03  0.7546771E-02  0.1280296E+00
         21   -1    0    0  501  502  0.00000000000E+00  0.00000000000E+00  0.14477045038E+03  0.14477045038E+03  0.00000000000E+00 0. -1.
         21   -1    0    0  502  503 -0.00000000000E+00 -0.00000000000E+00 -0.59867150906E+03  0.59867150906E+03  0.00000000000E+00 0. -1.
          6    1    1    2  501    0  0.10678491956E+03  0.60873898379E+02  0.30680389944E+02  0.21442699661E+03  0.17300000000E+03 0. -1.
         -6    1    1    2    0  503 -0.10678491956E+03 -0.60873898379E+02 -0.48458144863E+03  0.52901496283E+03  0.17300000000E+03 0. -1.
</event>
<event>
 4    1  0.3065897E+000  0.1000000E+03  0.7546771E-02  0.1280296E+00
         21   -1    0    0  501  502  0.00000000000E+00  0.00000000000E+00  0.22339213604E+03  0.22339213604E+03  0.00000000000E+00 0. -1.
         21   -1    0    0  502  503 -0.00000000000E+00 -0.00000000000E+00 -0.32530561745E+03  0.32530561745E+03  0.00000000000E+00 0.  1.
          6    1    1    2  501    0  0.13232824113E+02  0.18973986024E+03  0.31505262319E+02  0.25903263067E+03  0.17300000000E+03 0. -1.
         -6    1    1    2    0  503 -0.13232824113E+02 -0.18973986024E+03 -0.13341874373E+03  0.28966512282E+03  0.17300000000E+03 0.  1.
</event>
<event>
 4    1  0.3065897E+000  0.1000000E+03  0.7546771E-02  0.1280296E+00
         21   -1    0    0  501  502  0.00000000000E+00  0.00000000000E+00  0.31628983526E+02  0.31628983526E+02  0.00000000000E+00 0. -1.
         21   -1    0    0  502  503 -0.00000000000E+00 -0.00000000000E+00 -0.99392104302E+03  0.99392104302E+03  0.00000000000E+00 0.  1.
          6    1    1    2  501    0  0.24290363383E+01  0.37081445635E+02 -0.44858253231E+03  0.48222009718E+03  0.17300000000E+03 0. -1.
         -6    1    1    2    0  503 -0.24290363383E+01 -0.37081445635E+02 -0.51370952718E+03  0.54332992936E+03  0.17300000000E+03 0.  1.
</event>
<event>
 4    1  0.3065897E+000  0.1000000E+03  0.7546771E-02  0.1280296E+00
         21   -1    0    0  501  502  0.00000000000E+00  0.00000000000E+00  0.21580145425E+03  0.21580145425E+03  0.00000000000E+00 0. -1.
         21   -1    0    0  502  503 -0.00000000000E+00 -0.00000000000E+00 -0.24380257945E+03  0.24380257945E+03  0.00000000000E+00 0.  1.
          6    1    1    2  501    0 -0.27544424746E+02 -0.83708165431E+02  0.10836682852E+03  0.22234685025E+03  0.17300000000E+03 0. -1.
         -6    1    1    2    0  503  0.27544424746E+02  0.83708165431E+02 -0.13636795372E+03  0.23725718345E+03  0.17300000000E+03 0.  1.
</event>
<event>
 4    1  0.3065897E+000  0.1000000E+03  0.7546771E-02  0.1280296E+00
         21   -1    0    0  501  502  0.00000000000E+00  0.00000000000E+00  0.18071105898E+03  0.18071105898E+03  0.00000000000E+00 0. -1.
         21   -1    0    0  502  503 -0.00000000000E+00 -0.00000000000E+00 -0.31301289014E+03  0.31301289014E+03  0.00000000000E+00 0. -1.
          6    1    1    2  501    0  0.25257679915E+02 -0.38017885196E+02 -0.22879163876E+03  0.29044435604E+03  0.17300000000E+03 0. -1.
         -6    1    1    2    0  503 -0.25257679915E+02  0.38017885196E+02  0.96489807599E+02  0.20327959307E+03  0.17300000000E+03 0. -1.
</event>
<event>
 4    1  0.3065897E+000  0.1000000E+03  0.7546771E-02  0.1280296E+00
         21   -1    0    0  501  502  0.00000000000E+00  0.00000000000E+00  0.35972120465E+03  0.35972120465E+03  0.00000000000E+00 0. -1.
         21   -1    0    0  502  503 -0.00000000000E+00 -0.00000000000E+00 -0.41746053583E+03  0.41746053583E+03  0.00000000000E+00 0. -1.
          6    1    1    2  501    0  0.14866153292E+03 -0.86816871668E+02  0.27296777962E+03  0.36616639563E+03  0.17300000000E+03 0. -1.
         -6    1    1    2    0  503 -0.14866153292E+03  0.86816871668E+02 -0.33070711080E+03  0.41101534486E+03  0.17300000000E+03 0. -1.
</event>
<event>
 4    1  0.3065897E+000  0.1000000E+03  0.7546771E-02  0.1280296E+00
         21   -1    0    0  503  502  0.00000000000E+00  0.00000000000E+00  0.88333894068E+02  0.88333894068E+02  0.00000000000E+00 0.  1.
         21   -1    0    0  501  503 -0.00000000000E+00 -0.00000000000E+00 -0.20790060412E+04  0.20790060412E+04  0.00000000000E+00 0.  1.
          6    1    1    2  501    0 -0.15711999354E+03  0.20030184617E+03 -0.17493532038E+04  0.17762244097E+04  0.17300000000E+03 0.  1.
         -6    1    1    2    0  502  0.15711999354E+03 -0.20030184617E+03 -0.24131894337E+03  0.39111552562E+03  0.17300000000E+03 0.  1.
</event>
<event>
 4    1  0.3065897E+000  0.1000000E+03  0.7546771E-02  0.1280296E+00
         21   -1    0    0  503  502  0.00000000000E+00  0.00000000000E+00  0.11886500732E+03  0.11886500732E+03  0.00000000000E+00 0. -1.
         21   -1    0    0  501  503 -0.00000000000E+00 -0.00000000000E+00 -0.58254766285E+03  0.58254766285E+03  0.00000000000E+00 0. -1.
          6    1    1    2  501    0 -0.28169642756E+02  0.13151319103E+03 -0.37668769009E+02  0.22234474211E+03  0.17300000000E+03 0. -1.
         -6    1    1    2    0  502  0.28169642756E+02 -0.13151319103E+03 -0.42601388652E+03  0.47906792806E+03  0.17300000000E+03 0. -1.
</event>
<event>
 4    1  0.3065897E+000  0.1000000E+03  0.7546771E-02  0.1280296E+00
         21   -1    0    0  503  502  0.00000000000E+00  0.00000000000E+00  0.41367273264E+03  0.41367273264E+03  0.00000000000E+00 0. -1.
         21   -1    0    0  501  503 -0.00000000000E+00 -0.00000000000E+00 -0.18310590577E+03  0.18310590577E+03  0.00000000000E+00 0. -1.
          6    1    1    2  501    0 -0.52587182169E+02 -0.67009545606E+02 -0.97618265451E+02  0.21613425615E+03  0.17300000000E+03 0. -1.
         -6    1    1    2    0  502  0.52587182169E+02  0.67009545606E+02  0.32818509232E+03  0.38064438227E+03  0.17300000000E+03 0. -1.
</event>
<event>
 4    1  0.3065897E+000  0.1000000E+03  0.7546771E-02  0.1280296E+00
         21   -1    0    0  503  502  0.00000000000E+00  0.00000000000E+00  0.38449337238E+03  0.38449337238E+03  0.00000000000E+00 0. -1.
         21   -1    0    0  501  503 -0.00000000000E+00 -0.00000000000E+00 -0.48850727400E+03  0.48850727400E+03  0.00000000000E+00 0. -1.
          6    1    1    2  501    0 -0.20758764648E+03  0.31496959423E+03 -0.17780431942E+03  0.45148848520E+03  0.17300000000E+03 0. -1.
         -6    1    1    2    0  502  0.20758764648E+03 -0.31496959423E+03  0.73790417796E+02  0.42151216118E+03  0.17300000000E+03 0. -1.
</event>
<event>
 4    1  0.3065897E+000  0.1000000E+03  0.7546771E-02  0.1280296E+00
         21   -1    0    0  503  502  0.00000000000E+00  0.00000000000E+00  0.15324729997E+03  0.15324729997E+03  0.00000000000E+00 0. -1.
         21   -1    0    0  501  503 -0.00000000000E+00 -0.00000000000E+00 -0.42581471672E+03  0.42581471672E+03  0.00000000000E+00 0. -1.
          6    1    1    2  501    0  0.15175984323E+03 -0.10170308043E+03 -0.18635171076E+03  0.31309827002E+03  0.17300000000E+03 0. -1.
         -6    1    1    2    0  502 -0.15175984323E+03  0.10170308043E+03 -0.86215705994E+02  0.26596374668E+03  0.17300000000E+03 0. -1.
</event>
<event>
 4    1  0.3065897E+000  0.1000000E+03  0.7546771E-02  0.1280296E+00
         21   -1    0    0  503  502  0.00000000000E+00  0.00000000000E+00  0.15973895126E+03  0.15973895126E+03  0.00000000000E+00 0.  1.
         21   -1    0    0  501  503 -0.00000000000E+00 -0.00000000000E+00 -0.35718914185E+03  0.35718914185E+03  0.00000000000E+00 0. -1.
          6    1    1    2  501    0 -0.70402420910E+02  0.25614816331E+02 -0.25744094753E+03  0.31908848483E+03  0.17300000000E+03 0. -1.
         -6    1    1    2    0  502  0.70402420910E+02 -0.25614816331E+02  0.59990756937E+02  0.19783960828E+03  0.17300000000E+03 0.  1.
</event>
<event>
 4    1  0.3065897E+000  0.1000000E+03  0.7546771E-02  0.1280296E+00
         21   -1    0    0  503  502  0.00000000000E+00  0.00000000000E+00  0.68954646493E+02  0.68954646493E+02  0.00000000000E+00 0.  1.
         21   -1    0    0  501  503 -0.00000000000E+00 -0.00000000000E+00 -0.77822512897E+03  0.77822512897E+03  0.00000000000E+00 0. -1.
          6    1    1    2  501    0 -0.78415856370E+02  0.69219539018E+02 -0.56145632177E+03  0.59674332201E+03  0.17300000000E+03 0. -1.
         -6    1    1    2    0  502  0.78415856370E+02 -0.69219539018E+02 -0.14781416072E+03  0.25043645346E+03  0.17300000000E+03 0.  1.
</event>
<event>
 4    1  0.3065897E+000  0.1000000E+03  0.7546771E-02  0.1280296E+00
         21   -1    0    0  503  502  0.00000000000E+00  0.00000000000E+00  0.11600859858E+04  0.11600859858E+04  0.00000000000E+00 0.  1.
         21   -1    0    0  501  503 -0.00000000000E+00 -0.00000000000E+00 -0.60624160953E+03  0.60624160953E+03  0.00000000000E+00 0. -1.
          6    1    1    2  501    0 -0.55665584849E+03 -0.86109801598E+02 -0.35149603961E+03  0.68611886539E+03  0.17300000000E+03 0. -1.
         -6    1    1    2    0  502  0.55665584849E+03  0.86109801598E+02  0.90534041584E+03  0.10802087299E+04  0.17300000000E+03 0.  1.
</event>
<event>
 4    1  0.3065897E+000  0.1000000E+03  0.7546771E-02  0.1280296E+00
         21   -1    0    0  501  502  0.00000000000E+00  0.00000000000E+00  0.88501028139E+02  0.88501028139E+02  0.00000000000E+00 0. -1.
         21   -1    0    0  502  503 -0.00000000000E+00 -0.00000000000E+00 -0.84116122803E+03  0.84116122803E+03  0.00000000000E+00 0. -1.
          6    1    1    2  501    0  0.20214077602E+02 -0.23812040525E+02 -0.20845571703E+02  0.17702869843E+03  0.17300000000E+03 0. -1.
         -6    1    1    2    0  503 -0.20214077602E+02  0.23812040525E+02 -0.73181462819E+03  0.75263355774E+03  0.17300000000E+03 0. -1.
</event>
<event>
 4    1  0.3065897E+000  0.1000000E+03  0.7546771E-02  0.1280296E+00
         21   -1    0    0  501  502  0.00000000000E+00  0.00000000000E+00  0.21754414959E+02  0.21754414959E+02  0.00000000000E+00 0.  1.
         21   -1    0    0  502  503 -0.00000000000E+00 -0.00000000000E+00 -0.16142953150E+04  0.16142953150E+04  0.00000000000E+00 0.  1.
          6    1    1    2  501    0 -0.15483690991E+01 -0.70604845412E+02 -0.85825104403E+03  0.87835715755E+03  0.17300000000E+03 0.  1.
         -6    1    1    2    0  503  0.15483690991E+01  0.70604845412E+02 -0.73428985605E+03  0.75769257245E+03  0.17300000000E+03 0.  1.
</event>
<event>
 4    1  0.3065897E+000  0.1000000E+03  0.7546771E-02  0.1280296E+00
         21   -1    0    0  501  502  0.00000000000E+00  0.00000000000E+00  0.14401868725E+03  0.14401868725E+03  0.00000000000E+00 0.  1.
         21   -1    0    0  502  503 -0.00000000000E+00 -0.00000000000E+00 -0.43597280542E+03  0.43597280542E+03  0.00000000000E+00 0.  1.
          6    1    1    2  501    0  0.10216573761E+03  0.86809535461E+02 -0.47772258028E+01  0.21891906101E+03  0.17300000000E+03 0.  1.
         -6    1    1    2    0  503 -0.10216573761E+03 -0.86809535461E+02 -0.28717689237E+03  0.36107243165E+03  0.17300000000E+03 0.  1.
</event>
<event>
 4    1  0.3065897E+000  0.1000000E+03  0.7546771E-02  0.1280296E+00
         21   -1    0    0  501  502  0.00000000000E+00  0.00000000000E+00  0.84422975614E+02  0.84422975614E+02  0.00000000000E+00 0.  1.
         21   -1    0    0  502  503 -0.00000000000E+00 -0.00000000000E+00 -0.12088707823E+04  0.12088707823E+04  0.00000000000E+00 0.  1.
          6    1    1    2  501    0  0.81500292365E+02 -0.37238375871E+02 -0.49751169507E+02  0.20108001681E+03  0.17300000000E+03 0.  1.
         -6    1    1    2    0  503 -0.81500292365E+02  0.37238375871E+02 -0.10746966372E+04  0.10922137411E+04  0.17300000000E+03 0.  1.
</event>
<event>
 4    1  0.3065897E+000  0.1000000E+03  0.7546771E-02  0.1280296E+00
         21   -1    0    0  501  502  0.00000000000E+00  0.00000000000E+00  0.83667876770E+02  0.83667876770E+02  0.00000000000E+00 0. -1.
         21   -1    0    0  502  503 -0.00000000000E+00 -0.00000000000E+00 -0.53527566755E+03  0.53527566755E+03  0.00000000000E+00 0.  1.
          6    1    1    2  501    0  0.11809493905E+03 -0.28529932709E+02 -0.24013250810E+03  0.31992654334E+03  0.17300000000E+03 0. -1.
         -6    1    1    2    0  503 -0.11809493905E+03  0.28529932709E+02 -0.21147528269E+03  0.29901700098E+03  0.17300000000E+03 0.  1.
</event>
<event>
 4    1  0.3065897E+000  0.1000000E+03  0.7546771E-02  0.1280296E+00
         21   -1    0    0  501  502  0.00000000000E+00  0.00000000000E+00  0.31574678811E+03  0.31574678811E+03  0.00000000000E+00 0.  1.
         21   -1    0    0  502  503 -0.00000000000E+00 -0.00000000000E+00 -0.15035175038E+03  0.15035175038E+03  0.00000000000E+00 0. -1.
          6    1    1    2  501    0 -0.23676129425E+02 -0.18184728521E+01  0.22207597186E+03  0.28250770472E+03  0.17300000000E+03 0.  1.
         -6    1    1    2    0  503  0.23676129425E+02  0.18184728521E+01 -0.56680934129E+02  0.18359083376E+03  0.17300000000E+03 0. -1.
</event>
<event>
 4    1  0.3065897E+000  0.1000000E+03  0.7546771E-02  0.1280296E+00
         21   -1    0    0  501  502  0.00000000000E+00  0.00000000000E+00  0.95799416064E+03  0.95799416064E+03  0.00000000000E+00 0.  1.
         21   -1    0    0  502  503 -0.00000000000E+00 -0.00000000000E+00 -0.10036940329E+03  0.10036940329E+03  0.00000000000E+00 0. -1.
          6    1    1    2  501    0  0.21864717639E+03  0.46302122639E+02  0.64651699722E+03  0.70559457339E+03  0.17300000000E+03 0.  1.
         -6    1    1    2    0  503 -0.21864717639E+03 -0.46302122639E+02  0.21110776013E+03  0.35276899055E+03  0.17300000000E+03 0. -1.
</event>
<event>
 4    1  0.3065897E+000  0.1000000E+03  0.7546771E-02  0.1280296E+00
         21   -1    0    0  503  502  0.00000000000E+00  0.00000000000E+00  0.25272503400E+03  0.25272503400E+03  0.00000000000E+00 0. -1.
         21   -1    0    0  501  503 -0.00000000000E+00 -0.00000000000E+00 -0.21425417931E+03  0.21425417931E+03  0.00000000000E+00 0.  1.
          6    1    1    2  501    0 -0.10587708107E+03 -0.23546217660E+02 -0.92742763600E+02  0.22426457781E+03  0.17300000000E+03 0. -1.
         -6    1    1    2    0  502  0.10587708107E+03  0.23546217660E+02  0.13121361828E+03  0.24271463550E+03  0.17300000000E+03 0.  1.
</event>
<event>
 4    1  0.3065897E+000  0.1000000E+03  0.7546771E-02  0.1280296E+00
         21   -1    0    0  503  502  0.00000000000E+00  0.00000000000E+00  0.48663835376E+03  0.48663835376E+03  0.00000000000E+00 0. -1.
         21   -1    0    0  501  503 -0.00000000000E+00 -0.00000000000E+00 -0.27707243633E+03  0.27707243633E+03  0.00000000000E+00 0.  1.
          6    1    1    2  501    0 -0.18156258166E+03 -0.20128733355E+03  0.28912588058E+03  0.43243998026E+03  0.17300000000E+03 0. -1.
         -6    1    1    2    0  502  0.18156258166E+03  0.20128733355E+03 -0.79559963149E+02  0.33127080983E+03  0.17300000000E+03 0.  1.
</event>
<event>
 4    1  0.3065897E+000  0.1000000E+03  0.7546771E-02  0.1280296E+00
         21   -1    0    0  503  502  0.00000000000E+00  0.00000000000E+00  0.31344637713E+02  0.31344637713E+02  0.00000000000E+00 0. -1.
         21   -1    0    0  501  503 -0.00000000000E+00 -0.00000000000E+00 -0.21865905578E+04  0.21865905578E+04  0.00000000000E+00 0.  1.
          6    1    1    2  501    0 -0.84136680916E+02  0.24249204752E+02 -0.18227440764E+04  0.18330280885E+04  0.17300000000E+03 0. -1.
         -6    1    1    2    0  502  0.84136680916E+02 -0.24249204752E+02 -0.33250184365E+03  0.38490710703E+03  0.17300000000E+03 0.  1.
</event>
<event>
 4    1  0.3065897E+000  0.1000000E+03  0.7546771E-02  0.1280296E+00
         21   -1    0    0  503  502  0.00000000000E+00  0.00000000000E+00  0.86756296838E+03  0.86756296838E+03  0.00000000000E+00 0. -1.
         21   -1    0    0  501  503 -0.00000000000E+00 -0.00000000000E+00 -0.51240772509E+02  0.51240772509E+02  0.00000000000E+00 0.  1.
          6    1    1    2  501    0 -0.58087227423E+02 -0.34415445456E+02  0.19063183273E+03  0.26613538759E+03  0.17300000000E+03 0.  1.
         -6    1    1    2    0  502  0.58087227423E+02  0.34415445456E+02  0.62569036315E+03  0.65266835331E+03  0.17300000000E+03 0. -1.
</event>
<event>
 4    1  0.3065897E+000  0.1000000E+03  0.7546771E-02  0.1280296E+00
         21   -1    0    0  503  502  0.00000000000E+00  0.00000000000E+00  0.24653403484E+03  0.24653403484E+03  0.00000000000E+00 0. -1.
         21   -1    0    0  501  503 -0.00000000000E+00 -0.00000000000E+00 -0.29999245584E+03  0.29999245584E+03  0.00000000000E+00 0.  1.
          6    1    1    2  501    0 -0.78018519765E+02  0.12448613742E+03 -0.17726987537E+03  0.28798836183E+03  0.17300000000E+03 0.  1.
         -6    1    1    2    0  502  0.78018519765E+02 -0.12448613742E+03  0.12381145437E+03  0.25853812885E+03  0.17300000000E+03 0. -1.
</event>
<event>
 4    1  0.3065897E+000  0.1000000E+03  0.7546771E-02  0.1280296E+00
         21   -1    0    0  501  502  0.00000000000E+00  0.00000000000E+00  0.27276360590E+03  0.27276360590E+03  0.00000000000E+00 0.  1.
         21   -1    0    0  502  503 -0.00000000000E+00 -0.00000000000E+00 -0.18864590484E+03  0.18864590484E+03  0.00000000000E+00 0. -1.
          6    1    1    2  501    0  0.36501381419E+02  0.90261741245E+02  0.15368932857E+03  0.25105565617E+03  0.17300000000E+03 0.  1.
         -6    1    1    2    0  503 -0.36501381419E+02 -0.90261741245E+02 -0.69571627505E+02  0.21035385457E+03  0.17300000000E+03 0. -1.
</event>
<event>
 4    1  0.3065897E+000  0.1000000E+03  0.7546771E-02  0.1280296E+00
         21   -1    0    0  501  502  0.00000000000E+00  0.00000000000E+00  0.56014994295E+03  0.56014994295E+03  0.00000000000E+00 0.  1.
         21   -1    0    0  502  503 -0.00000000000E+00 -0.00000000000E+00 -0.33820096486E+03  0.33820096486E+03  0.00000000000E+00 0. -1.
          6    1    1    2  501    0  0.35473849504E+03  0.24270531667E+00  0.30035222042E+03  0.49596362274E+03  0.17300000000E+03 0.  1.
         -6    1    1    2    0  503 -0.35473849504E+03 -0.24270531667E+00 -0.78403242331E+02  0.40238728506E+03  0.17300000000E+03 0. -1.
</event>
<event>
 4    1  0.3065897E+000  0.1000000E+03  0.7546771E-02  0.1280296E+00
         21   -1    0    0  503  502  0.00000000000E+00  0.00000000000E+00  0.18679156683E+03  0.18679156683E+03  0.00000000000E+00 0. -1.
         21   -1    0    0  501  503 -0.00000000000E+00 -0.00000000000E+00 -0.54994573140E+03  0.54994573140E+03  0.00000000000E+00 0. -1.
          6    1    1    2  501    0  0.10407930468E+03  0.22025556205E+03 -0.31487543937E+03  0.43407436759E+03  0.17300000000E+03 0. -1.
         -6    1    1    2    0  502 -0.10407930468E+03 -0.22025556205E+03 -0.48278725191E+02  0.30266293064E+03  0.17300000000E+03 0. -1.
</event>
<event>
 4    1  0.3065897E+000  0.1000000E+03  0.7546771E-02  0.1280296E+00
         21   -1    0    0  503  502  0.00000000000E+00  0.00000000000E+00  0.93380398659E+03  0.93380398659E+03  0.00000000000E+00 0. -1.
         21   -1    0    0  501  503 -0.00000000000E+00 -0.00000000000E+00 -0.36576641688E+02  0.36576641688E+02  0.00000000000E+00 0. -1.
          6    1    1    2  501    0 -0.33439913831E+02  0.32102950087E+02  0.32895011420E+03  0.37454773378E+03  0.17300000000E+03 0. -1.
         -6    1    1    2    0  502  0.33439913831E+02 -0.32102950087E+02  0.56827723070E+03  0.59583289450E+03  0.17300000000E+03 0. -1.
</event>
<event>
 4    1  0.3065897E+000  0.1000000E+03  0.7546771E-02  0.1280296E+00
         21   -1    0    0  503  502  0.00000000000E+00  0.00000000000E+00  0.62661242582E+03  0.62661242582E+03  0.00000000000E+00 0. -1.
         21   -1    0    0  501  503 -0.00000000000E+00 -0.00000000000E+00 -0.14804025432E+03  0.14804025432E+03  0.00000000000E+00 0. -1.
          6    1    1    2  501    0  0.80273187015E+02 -0.84444496876E+02  0.52153724097E+03  0.56169809624E+03  0.17300000000E+03 0. -1.
         -6    1    1    2    0  502 -0.80273187015E+02  0.84444496876E+02 -0.42965069466E+02  0.21295458389E+03  0.17300000000E+03 0. -1.
</event>
<event>
 4    1  0.3065897E+000  0.1000000E+03  0.7546771E-02  0.1280296E+00
         21   -1    0    0  503  502  0.00000000000E+00  0.00000000000E+00  0.93585913951E+03  0.93585913951E+03  0.00000000000E+00 0.  1.
         21   -1    0    0  501  503 -0.00000000000E+00 -0.00000000000E+00 -0.36011148626E+02  0.36011148626E+02  0.00000000000E+00 0. -1.
          6    1    1    2  501    0  0.25902426221E+00 -0.73850936834E+01  0.61132083013E+03  0.63537135917E+03  0.17300000000E+03 0.  1.
         -6    1    1    2    0  502 -0.25902426221E+00  0.73850936834E+01  0.28852716076E+03  0.33649892897E+03  0.17300000000E+03 0. -1.
</event>
<event>
 4    1  0.3065897E+000  0.1000000E+03  0.7546771E-02  0.1280296E+00
         21   -1    0    0  503  502  0.00000000000E+00  0.00000000000E+00  0.39159348052E+03  0.39159348052E+03  0.00000000000E+00 0.  1.
         21   -1    0    0  501  503 -0.00000000000E+00 -0.00000000000E+00 -0.25487548534E+03  0.25487548534E+03  0.00000000000E+00 0. -1.
          6    1    1    2  501    0  0.16580819198E+03 -0.34535522838E+02 -0.13929981953E+03  0.27931791669E+03  0.17300000000E+03 0.  1.
         -6    1    1    2    0  502 -0.16580819198E+03  0.34535522838E+02  0.27601781471E+03  0.36715104917E+03  0.17300000000E+03 0. -1.
</event>
<event>
 4    1  0.3065897E+000  0.1000000E+03  0.7546771E-02  0.1280296E+00
         21   -1    0    0  503  502  0.00000000000E+00  0.00000000000E+00  0.50641483913E+03  0.50641483913E+03  0.00000000000E+00 0.  1.
         21   -1    0    0  501  503 -0.00000000000E+00 -0.00000000000E+00 -0.93927865484E+02  0.93927865484E+02  0.00000000000E+00 0. -1.
          6    1    1    2  501    0 -0.13816223084E+02  0.93168717390E+02  0.77381841283E+02  0.21163233987E+03  0.17300000000E+03 0.  1.
         -6    1    1    2    0  502  0.13816223084E+02 -0.93168717390E+02  0.33510513237E+03  0.38871036474E+03  0.17300000000E+03 0. -1.
</event>
<event>
 4    1  0.3065897E+000  0.1000000E+03  0.7546771E-02  0.1280296E+00
         21   -1    0    0  503  502  0.00000000000E+00  0.00000000000E+00  0.53501617069E+03  0.53501617069E+03  0.00000000000E+00 0.  1.
         21   -1    0    0  501  503 -0.00000000000E+00 -0.00000000000E+00 -0.16418636248E+03  0.16418636248E+03  0.00000000000E+00 0.  1.
          6    1    1    2  501    0  0.14851775783E+03  0.71979007229E+02 -0.21176513775E+02  0.24003321980E+03  0.17300000000E+03 0.  1.
         -6    1    1    2    0  502 -0.14851775783E+03 -0.71979007229E+02  0.39200632198E+03  0.45916931337E+03  0.17300000000E+03 0.  1.
</event>
<event>
 4    1  0.3065897E+000  0.1000000E+03  0.7546771E-02  0.1280296E+00
         21   -1    0    0  503  502  0.00000000000E+00  0.00000000000E+00  0.33652288540E+02  0.33652288540E+02  0.00000000000E+00 0.  1.
         21   -1    0    0  501  503 -0.00000000000E+00 -0.00000000000E+00 -0.98369530963E+03  0.98369530963E+03  0.00000000000E+00 0.  1.
          6    1    1    2  501    0 -0.99541179398E+00 -0.53955343911E+02 -0.52031201875E+03  0.55096802705E+03  0.17300000000E+03 0.  1.
         -6    1    1    2    0  502  0.99541179398E+00  0.53955343911E+02 -0.42973100234E+03  0.46637957111E+03  0.17300000000E+03 0.  1.
</event>
<event>
 4    1  0.3065897E+000  0.1000000E+03  0.7546771E-02  0.1280296E+00
         21   -1    0    0  503  502  0.00000000000E+00  0.00000000000E+00  0.66171267739E+03  0.66171267739E+03  0.00000000000E+00 0.  1.
         21   -1    0    0  501  503 -0.00000000000E+00 -0.00000000000E+00 -0.63533644246E+02  0.63533644246E+02  0.00000000000E+00 0.  1.
          6    1    1    2  501    0  0.79759974215E+01 -0.10965106907E+03  0.30794013976E+03  0.36992310439E+03  0.17300000000E+03 0.  1.
         -6    1    1    2    0  502 -0.79759974215E+01  0.10965106907E+03  0.29023889338E+03  0.35532321724E+03  0.17300000000E+03 0.  1.
</event>
<event>
 4    1  0.3065897E+000  0.1000000E+03  0.7546771E-02  0.1280296E+00
         21   -1    0    0  503  502  0.00000000000E+00  0.00000000000E+00  0.13513474221E+04  0.13513474221E+04  0.00000000000E+00 0.  1.
         21   -1    0    0  501  503 -0.00000000000E+00 -0.00000000000E+00 -0.37970003515E+02  0.37970003515E+02  0.00000000000E+00 0. -1.
          6    1    1    2  501    0  0.32188213693E+02  0.14261312489E+03  0.66484967876E+03  0.70237360418E+03  0.17300000000E+03 0. -1.
         -6    1    1    2    0  502 -0.32188213693E+02 -0.14261312489E+03  0.64852773981E+03  0.68694382143E+03  0.17300000000E+03 0. -1.
</event>
<event>
 4    1  0.3065897E+000  0.1000000E+03  0.7546771E-02  0.1280296E+00
         21   -1    0    0  503  502  0.00000000000E+00  0.00000000000E+00  0.44707209766E+03  0.44707209766E+03  0.00000000000E+00 0.  1.
         21   -1    0    0  501  503 -0.00000000000E+00 -0.00000000000E+00 -0.11467982890E+03  0.11467982890E+03  0.00000000000E+00 0. -1.
          6    1    1    2  501    0 -0.13802908222E+03 -0.29165056816E+02  0.21324409113E+03  0.30871454530E+03  0.17300000000E+03 0. -1.
         -6    1    1    2    0  502  0.13802908222E+03  0.29165056816E+02  0.11914817763E+03  0.25303738125E+03  0.17300000000E+03 0. -1.
</event>
<event>
 4    1  0.3065897E+000  0.1000000E+03  0.7546771E-02  0.1280296E+00
         21   -1    0    0  501  502  0.00000000000E+00  0.00000000000E+00  0.99460394679E+02  0.99460394679E+02  0.00000000000E+00 0. -1.
         21   -1    0    0  502  503 -0.00000000000E+00 -0.00000000000E+00 -0.47898993758E+03  0.47898993758E+03  0.00000000000E+00 0.  1.
          6    1    1    2  501    0  0.48912753271E+02 -0.41376633197E+02 -0.35193170144E+02  0.18780852598E+03  0.17300000000E+03 0.  1.
         -6    1    1    2    0  503 -0.48912753271E+02  0.41376633197E+02 -0.34433637276E+03  0.39064180628E+03  0.17300000000E+03 0. -1.
</event>
<event>
 4    1  0.3065897E+000  0.1000000E+03  0.7546771E-02  0.1280296E+00
         21   -1    0    0  501  502  0.00000000000E+00  0.00000000000E+00  0.13800042815E+03  0.13800042815E+03  0.00000000000E+00 0. -1.
         21   -1    0    0  502  503 -0.00000000000E+00 -0.00000000000E+00 -0.29169899673E+03  0.29169899673E+03  0.00000000000E+00 0.  1.
          6    1    1    2  501    0 -0.92002637937E+02  0.24137630431E+02 -0.11513822546E+03  0.22854522868E+03  0.17300000000E+03 0.  1.
         -6    1    1    2    0  503  0.92002637937E+02 -0.24137630431E+02 -0.38560343124E+02  0.20115419621E+03  0.17300000000E+03 0. -1.
</event>
<event>
 4    1  0.3065897E+000  0.1000000E+03  0.7546771E-02  0.1280296E+00
         21   -1    0    0  501  502  0.00000000000E+00  0.00000000000E+00  0.26111376942E+03  0.26111376942E+03  0.00000000000E+00 0. -1.
         21   -1    0    0  502  503 -0.00000000000E+00 -0.00000000000E+00 -0.12210388606E+03  0.12210388606E+03  0.00000000000E+00 0.  1.
          6    1    1    2  501    0  0.88175303122E+01  0.43259385039E+02  0.71876132522E+02  0.19246896285E+03  0.17300000000E+03 0.  1.
         -6    1    1    2    0  503 -0.88175303122E+01 -0.43259385039E+02  0.67133750840E+02  0.19074869262E+03  0.17300000000E+03 0. -1.
</event>
<event>
 4    1  0.3065897E+000  0.1000000E+03  0.7546771E-02  0.1280296E+00
         21   -1    0    0  501  502  0.00000000000E+00  0.00000000000E+00  0.26369545492E+03  0.26369545492E+03  0.00000000000E+00 0. -1.
         21   -1    0    0  502  503 -0.00000000000E+00 -0.00000000000E+00 -0.71904920398E+03  0.71904920398E+03  0.00000000000E+00 0.  1.
          6    1    1    2  501    0 -0.47286859764E+02  0.96324799031E+02  0.20668837194E+03  0.29010962947E+03  0.17300000000E+03 0.  1.
         -6    1    1    2    0  503  0.47286859764E+02 -0.96324799031E+02 -0.66204212100E+03  0.69263502943E+03  0.17300000000E+03 0. -1.
</event>
<event>
 4    1  0.3065897E+000  0.1000000E+03  0.7546771E-02  0.1280296E+00
         21   -1    0    0  501  502  0.00000000000E+00  0.00000000000E+00  0.15169671506E+03  0.15169671506E+03  0.00000000000E+00 0. -1.
         21   -1    0    0  502  503 -0.00000000000E+00 -0.00000000000E+00 -0.26391274753E+03  0.26391274753E+03  0.00000000000E+00 0. -1.
          6    1    1    2  501    0  0.41302954790E+02  0.74493044398E+02 -0.65803239111E+00  0.19283303852E+03  0.17300000000E+03 0. -1.
         -6    1    1    2    0  503 -0.41302954790E+02 -0.74493044398E+02 -0.11155800008E+03  0.22277642407E+03  0.17300000000E+03 0. -1.
</event>
<event>
 4    1  0.3065897E+000  0.1000000E+03  0.7546771E-02  0.1280296E+00
         21   -1    0    0  501  502  0.00000000000E+00  0.00000000000E+00  0.50012125165E+02  0.50012125165E+02  0.00000000000E+00 0. -1.
         21   -1    0    0  502  503 -0.00000000000E+00 -0.00000000000E+00 -0.16573337552E+04  0.16573337552E+04  0.00000000000E+00 0. -1.
          6    1    1    2  501    0  0.20375305585E+03  0.62221695412E+02 -0.54565846500E+03  0.61078556595E+03  0.17300000000E+03 0. -1.
         -6    1    1    2    0  503 -0.20375305585E+03 -0.62221695412E+02 -0.10616631650E+04  0.10965603144E+04  0.17300000000E+03 0. -1.
</event>
<event>
 4    1  0.3065897E+000  0.1000000E+03  0.7546771E-02  0.1280296E+00
         21   -1    0    0  501  502  0.00000000000E+00  0.00000000000E+00  0.96685325271E+03  0.96685325271E+03  0.00000000000E+00 0. -1.
         21   -1    0    0  502  503 -0.00000000000E+00 -0.00000000000E+00 -0.73832772515E+02  0.73832772515E+02  0.00000000000E+00 0. -1.
          6    1    1    2  501    0  0.11184258612E+03  0.48738501390E+01  0.77772796254E+03  0.80456342336E+03  0.17300000000E+03 0. -1.
         -6    1    1    2    0  503 -0.11184258612E+03 -0.48738501390E+01  0.11529251765E+03  0.23612260187E+03  0.17300000000E+03 0. -1.
</event>
<event>
 4    1  0.3065897E+000  0.1000000E+03  0.7546771E-02  0.1280296E+00
         21   -1    0    0  501  502  0.00000000000E+00  0.00000000000E+00  0.38329293493E+03  0.38329293493E+03  0.00000000000E+00 0. -1.
         21   -1    0    0  502  503 -0.00000000000E+00 -0.00000000000E+00 -0.10988039353E+03  0.10988039353E+03  0.00000000000E+00 0. -1.
          6    1    1    2  501    0 -0.71078615021E+02 -0.77970766449E+02  0.17574794598E+03  0.26823115116E+03  0.17300000000E+03 0. -1.
         -6    1    1    2    0  503  0.71078615021E+02  0.77970766449E+02  0.97664595419E+02  0.22494217731E+03  0.17300000000E+03 0. -1.
</event>
<event>
 4    1  0.3065897E+000  0.1000000E+03  0.7546771E-02  0.1280296E+00
         21   -1    0    0  501  502  0.00000000000E+00  0.00000000000E+00  0.71616324147E+02  0.71616324147E+02  0.00000000000E+00 0.  1.
         21   -1    0    0  502  503 -0.00000000000E+00 -0.00000000000E+00 -0.73866939358E+03  0.73866939358E+03  0.00000000000E+00 0. -1.
          6    1    1    2  501    0  0.22397872673E+02 -0.64823948422E+02 -0.95446838459E+02  0.20914805273E+03  0.17300000000E+03 0.  1.
         -6    1    1    2    0  503 -0.22397872673E+02  0.64823948422E+02 -0.57160623097E+03  0.60113766499E+03  0.17300000000E+03 0. -1.
</event>
<event>
 4    1  0.3065897E+000  0.1000000E+03  0.7546771E-02  0.1280296E+00
         21   -1    0    0  501  502  0.00000000000E+00  0.00000000000E+00  0.11436612487E+03  0.11436612487E+03  0.00000000000E+00 0.  1.
         21   -1    0    0  502  503 -0.00000000000E+00 -0.00000000000E+00 -0.33091446259E+03  0.33091446259E+03  0.00000000000E+00 0. -1.
          6    1    1    2  501    0  0.84475628545E+02 -0.79610619415E+01 -0.77631626821E+02  0.20773824830E+03  0.17300000000E+03 0.  1.
         -6    1    1    2    0  503 -0.84475628545E+02  0.79610619415E+01 -0.13891671090E+03  0.23754233916E+03  0.17300000000E+03 0. -1.
</event>
<event>
 4    1  0.3065897E+000  0.1000000E+03  0.7546771E-02  0.1280296E+00
         21   -1    0    0  501  502  0.00000000000E+00  0.00000000000E+00  0.33230634012E+02  0.33230634012E+02  0.00000000000E+00 0.  1.
         21   -1    0    0  502  503 -0.00000000000E+00 -0.00000000000E+00 -0.27661038411E+04  0.27661038411E+04  0.00000000000E+00 0. -1.
          6    1    1    2  501    0  0.12115207988E+03  0.25646604357E+02 -0.23636071776E+04  0.23731631771E+04  0.17300000000E+03 0.  1.
         -6    1    1    2    0  503 -0.12115207988E+03 -0.25646604357E+02 -0.36926602944E+03  0.42617129804E+03  0.17300000000E+03 0. -1.
</event>
<event>
 4    1  0.3065897E+000  0.1000000E+03  0.7546771E-02  0.1280296E+00
         21   -1    0    0  501  502  0.00000000000E+00  0.00000000000E+00  0.42706225297E+03  0.42706225297E+03  0.00000000000E+00 0.  1.
         21   -1    0    0  502  503 -0.00000000000E+00 -0.00000000000E+00 -0.91694254514E+02  0.91694254514E+02  0.00000000000E+00 0. -1.
          6    1    1    2  501    0  0.47095337036E+02 -0.63353811611E+02  0.23945803896E+03  0.30577905200E+03  0.17300000000E+03 0.  1.
         -6    1    1    2    0  503 -0.47095337036E+02  0.63353811611E+02  0.95909959494E+02  0.21297745549E+03  0.17300000000E+03 0. -1.
</event>
<event>
 4    1  0.3065897E+000  0.1000000E+03  0.7546771E-02  0.1280296E+00
         21   -1    0    0  501  502  0.00000000000E+00  0.00000000000E+00  0.25663782333E+03  0.25663782333E+03  0.00000000000E+00 0.  1.
         21   -1    0    0  502  503 -0.00000000000E+00 -0.00000000000E+00 -0.41362468126E+03  0.41362468126E+03  0.00000000000E+00 0. -1.
          6    1    1    2  501    0  0.11077171590E+03 -0.19765710814E+02  0.18083436401E+03  0.27439228046E+03  0.17300000000E+03 0.  1.
         -6    1    1    2    0  503 -0.11077171590E+03  0.19765710814E+02 -0.33782122193E+03  0.39587022413E+03  0.17300000000E+03 0. -1.
</event>
<event>
 4    1  0.3065897E+000  0.1000000E+03  0.7546771E-02  0.1280296E+00
         21   -1    0    0  501  502  0.00000000000E+00  0.00000000000E+00  0.33809566082E+03  0.33809566082E+03  0.00000000000E+00 0. -1.
         21   -1    0    0  502  503 -0.00000000000E+00 -0.00000000000E+00 -0.98833464920E+02  0.98833464920E+02  0.00000000000E+00 0. -1.
          6    1    1    2  501    0 -0.18869161187E+02 -0.29405362976E+02  0.17651455130E+03  0.24961391675E+03  0.17300000000E+03 0. -1.
         -6    1    1    2    0  503  0.18869161187E+02  0.29405362976E+02  0.62747644602E+02  0.18731520899E+03  0.17300000000E+03 0. -1.
</event>
<event>
 4    1  0.3065897E+000  0.1000000E+03  0.7546771E-02  0.1280296E+00
         21   -1    0    0  501  502  0.00000000000E+00  0.00000000000E+00  0.53409374591E+03  0.53409374591E+03  0.00000000000E+00 0. -1.
         21   -1    0    0  502  503 -0.00000000000E+00 -0.00000000000E+00 -0.24036645953E+03  0.24036645953E+03  0.00000000000E+00 0. -1.
          6    1    1    2  501    0  0.24427131624E+03 -0.26161431770E+02  0.35780657648E+03  0.46723382007E+03  0.17300000000E+03 0. -1.
         -6    1    1    2    0  503 -0.24427131624E+03  0.26161431770E+02 -0.64079290104E+02  0.30722638537E+03  0.17300000000E+03 0. -1.
</event>
<event>
 4    1  0.3065897E+000  0.1000000E+03  0.7546771E-02  0.1280296E+00
         21   -1    0    0  501  502  0.00000000000E+00  0.00000000000E+00  0.28281265279E+03  0.28281265279E+03  0.00000000000E+00 0. -1.
         21   -1    0    0  502  503 -0.00000000000E+00 -0.00000000000E+00 -0.24976632358E+03  0.24976632358E+03  0.00000000000E+00 0. -1.
          6    1    1    2  501    0  0.10111877553E+03  0.80628863835E+02  0.17168355792E+03  0.27591713341E+03  0.17300000000E+03 0. -1.
         -6    1    1    2    0  503 -0.10111877553E+03 -0.80628863835E+02 -0.13863722871E+03  0.25666184296E+03  0.17300000000E+03 0. -1.
</event>
<event>
 4    1  0.3065897E+000  0.1000000E+03  0.7546771E-02  0.1280296E+00
         21   -1    0    0  501  502  0.00000000000E+00  0.00000000000E+00  0.28150067957E+03  0.28150067957E+03  0.00000000000E+00 0. -1.
         21   -1    0    0  502  503 -0.00000000000E+00 -0.00000000000E+00 -0.24355791230E+03  0.24355791230E+03  0.00000000000E+00 0. -1.
          6    1    1    2  501    0  0.82662156963E+02  0.16547059553E+03 -0.47679692745E+02  0.25771283103E+03  0.17300000000E+03 0. -1.
         -6    1    1    2    0  503 -0.82662156963E+02 -0.16547059553E+03  0.85622460022E+02  0.26734576084E+03  0.17300000000E+03 0. -1.
</event>
<event>
 4    1  0.3065897E+000  0.1000000E+03  0.7546771E-02  0.1280296E+00
         21   -1    0    0  501  502  0.00000000000E+00  0.00000000000E+00  0.13836132274E+03  0.13836132274E+03  0.00000000000E+00 0.  1.
         21   -1    0    0  502  503 -0.00000000000E+00 -0.00000000000E+00 -0.83542236289E+03  0.83542236289E+03  0.00000000000E+00 0.  1.
          6    1    1    2  501    0  0.18635479138E+03 -0.12977486699E+03 -0.84109928393E+02  0.29761233917E+03  0.17300000000E+03 0.  1.
         -6    1    1    2    0  503 -0.18635479138E+03  0.12977486699E+03 -0.61295111175E+03  0.67617134646E+03  0.17300000000E+03 0.  1.
</event>
<event>
 4    1  0.3065897E+000  0.1000000E+03  0.7546771E-02  0.1280296E+00
         21   -1    0    0  501  502  0.00000000000E+00  0.00000000000E+00  0.29619454084E+03  0.29619454084E+03  0.00000000000E+00 0.  1.
         21   -1    0    0  502  503 -0.00000000000E+00 -0.00000000000E+00 -0.62951314902E+03  0.62951314902E+03  0.00000000000E+00 0.  1.
          6    1    1    2  501    0  0.57041805269E+02  0.20984865613E+02  0.25238957148E+03  0.31196735074E+03  0.17300000000E+03 0.  1.
         -6    1    1    2    0  503 -0.57041805269E+02 -0.20984865613E+02 -0.58570817966E+03  0.61374033912E+03  0.17300000000E+03 0.  1.
</event>
<event>
 4    1  0.3065897E+000  0.1000000E+03  0.7546771E-02  0.1280296E+00
         21   -1    0    0  501  502  0.00000000000E+00  0.00000000000E+00  0.40171685403E+02  0.40171685403E+02  0.00000000000E+00 0.  1.
         21   -1    0    0  502  503 -0.00000000000E+00 -0.00000000000E+00 -0.13938128606E+04  0.13938128606E+04  0.00000000000E+00 0.  1.
          6    1    1    2  501    0 -0.11388935041E+03  0.10603115491E+03 -0.80712832421E+03  0.83999912005E+03  0.17300000000E+03 0.  1.
         -6    1    1    2    0  503  0.11388935041E+03 -0.10603115491E+03 -0.54651285098E+03  0.59398542595E+03  0.17300000000E+03 0.  1.
</event>
<event>
 4    1  0.3065897E+000  0.1000000E+03  0.7546771E-02  0.1280296E+00
         21   -1    0    0  501  502  0.00000000000E+00  0.00000000000E+00  0.21025369097E+03  0.21025369097E+03  0.00000000000E+00 0.  1.
         21   -1    0    0  502  503 -0.00000000000E+00 -0.00000000000E+00 -0.20554138480E+03  0.20554138480E+03  0.00000000000E+00 0.  1.
          6    1    1    2  501    0 -0.97612712289E+02  0.46794859464E+02  0.41967210369E+02  0.20834645958E+03  0.17300000000E+03 0.  1.
         -6    1    1    2    0  503  0.97612712289E+02 -0.46794859464E+02 -0.37254904199E+02  0.20744861619E+03  0.17300000000E+03 0.  1.
</event>
<event>
 4    1  0.3065897E+000  0.1000000E+03  0.7546771E-02  0.1280296E+00
         21   -1    0    0  501  502  0.00000000000E+00  0.00000000000E+00  0.41273205506E+03  0.41273205506E+03  0.00000000000E+00 0. -1.
         21   -1    0    0  502  503 -0.00000000000E+00 -0.00000000000E+00 -0.17407730826E+03  0.17407730826E+03  0.00000000000E+00 0. -1.
          6    1    1    2  501    0  0.17732385311E+03  0.69054119104E+02  0.20201303632E+03  0.32703285323E+03  0.17300000000E+03 0. -1.
         -6    1    1    2    0  503 -0.17732385311E+03 -0.69054119104E+02  0.36641710473E+02  0.25977651009E+03  0.17300000000E+03 0. -1.
</event>
<event>
 4    1  0.3065897E+000  0.1000000E+03  0.7546771E-02  0.1280296E+00
         21   -1    0    0  501  502  0.00000000000E+00  0.00000000000E+00  0.52401212873E+02  0.52401212873E+02  0.00000000000E+00 0. -1.
         21   -1    0    0  502  503 -0.00000000000E+00 -0.00000000000E+00 -0.63978248702E+03  0.63978248702E+03  0.00000000000E+00 0. -1.
          6    1    1    2  501    0 -0.38444496695E+02 -0.40640982543E+02 -0.25285607969E+03  0.31143998752E+03  0.17300000000E+03 0. -1.
         -6    1    1    2    0  503  0.38444496695E+02  0.40640982543E+02 -0.33452519446E+03  0.38074371238E+03  0.17300000000E+03 0. -1.
</event>
<event>
 4    1  0.3065897E+000  0.1000000E+03  0.7546771E-02  0.1280296E+00
         21   -1    0    0  501  502  0.00000000000E+00  0.00000000000E+00  0.20585078039E+03  0.20585078039E+03  0.00000000000E+00 0. -1.
         21   -1    0    0  502  503 -0.00000000000E+00 -0.00000000000E+00 -0.14722732468E+04  0.14722732468E+04  0.00000000000E+00 0. -1.
          6    1    1    2  501    0  0.53742510774E+02  0.82001379880E+01  0.15902277675E+03  0.24119026359E+03  0.17300000000E+03 0. -1.
         -6    1    1    2    0  503 -0.53742510774E+02 -0.82001379880E+01 -0.14254452432E+04  0.14369337636E+04  0.17300000000E+03 0. -1.
</event>
<event>
 4    1  0.3065897E+000  0.1000000E+03  0.7546771E-02  0.1280296E+00
         21   -1    0    0  501  502  0.00000000000E+00  0.00000000000E+00  0.45743409220E+02  0.45743409220E+02  0.00000000000E+00 0. -1.
         21   -1    0    0  502  503 -0.00000000000E+00 -0.00000000000E+00 -0.10886220786E+04  0.10886220786E+04  0.00000000000E+00 0. -1.
          6    1    1    2  501    0 -0.52716697662E+02 -0.12439313043E+03 -0.41927837529E+03  0.47326108767E+03  0.17300000000E+03 0. -1.
         -6    1    1    2    0  503  0.52716697662E+02  0.12439313043E+03 -0.62360029404E+03  0.66110440011E+03  0.17300000000E+03 0. -1.
</event>
<event>
 4    1  0.3065897E+000  0.1000000E+03  0.7546771E-02  0.1280296E+00
         21   -1    0    0  503  502  0.00000000000E+00  0.00000000000E+00  0.54587912754E+03  0.54587912754E+03  0.00000000000E+00 0. -1.
         21   -1    0    0  501  503 -0.00000000000E+00 -0.00000000000E+00 -0.10048415449E+03  0.10048415449E+03  0.00000000000E+00 0. -1.
          6    1    1    2  501    0  0.33717028216E+02 -0.14875218270E+03  0.27890480029E+03  0.36191288658E+03  0.17300000000E+03 0. -1.
         -6    1    1    2    0  502 -0.33717028216E+02  0.14875218270E+03  0.16649017276E+03  0.28445039546E+03  0.17300000000E+03 0. -1.
</event>
<event>
 4    1  0.3065897E+000  0.1000000E+03  0.7546771E-02  0.1280296E+00
         21   -1    0    0  503  502  0.00000000000E+00  0.00000000000E+00  0.96210716186E+03  0.96210716186E+03  0.00000000000E+00 0. -1.
         21   -1    0    0  501  503 -0.00000000000E+00 -0.00000000000E+00 -0.71479308147E+02  0.71479308147E+02  0.00000000000E+00 0. -1.
          6    1    1    2  501    0  0.74627023973E+02 -0.33584227801E+00  0.85848349212E+02  0.20704647923E+03  0.17300000000E+03 0. -1.
         -6    1    1    2    0  502 -0.74627023973E+02  0.33584227801E+00  0.80477950450E+03  0.82653999078E+03  0.17300000000E+03 0. -1.
</event>
<event>
 4    1  0.3065897E+000  0.1000000E+03  0.7546771E-02  0.1280296E+00
         21   -1    0    0  503  502  0.00000000000E+00  0.00000000000E+00  0.46149447717E+02  0.46149447717E+02  0.00000000000E+00 0.  1.
         21   -1    0    0  501  503 -0.00000000000E+00 -0.00000000000E+00 -0.79434280202E+03  0.79434280202E+03  0.00000000000E+00 0.  1.
          6    1    1    2  501    0 -0.75625859401E+02  0.89173248600E+01 -0.44105730943E+03  0.47985345627E+03  0.17300000000E+03 0.  1.
         -6    1    1    2    0  502  0.75625859401E+02 -0.89173248600E+01 -0.30713604487E+03  0.36063879347E+03  0.17300000000E+03 0.  1.
</event>
<event>
 4    1  0.3065897E+000  0.1000000E+03  0.7546771E-02  0.1280296E+00
         21   -1    0    0  503  502  0.00000000000E+00  0.00000000000E+00  0.23359245296E+03  0.23359245296E+03  0.00000000000E+00 0.  1.
         21   -1    0    0  501  503 -0.00000000000E+00 -0.00000000000E+00 -0.23710312914E+03  0.23710312914E+03  0.00000000000E+00 0.  1.
          6    1    1    2  501    0 -0.43927732090E+01 -0.58157413060E+02 -0.15026845990E+03  0.23645547402E+03  0.17300000000E+03 0.  1.
         -6    1    1    2    0  502  0.43927732090E+01  0.58157413060E+02  0.14675778372E+03  0.23424010808E+03  0.17300000000E+03 0.  1.
</event>
<event>
 4    1  0.3065897E+000  0.1000000E+03  0.7546771E-02  0.1280296E+00
         21   -1    0    0  503  502  0.00000000000E+00  0.00000000000E+00  0.87320837898E+03  0.87320837898E+03  0.00000000000E+00 0.  1.
         21   -1    0    0  501  503 -0.00000000000E+00 -0.00000000000E+00 -0.51508827765E+02  0.51508827765E+02  0.00000000000E+00 0.  1.
          6    1    1    2  501    0  0.92757622346E+02  0.17335855787E+02  0.23995844956E+03  0.31050533959E+03  0.17300000000E+03 0.  1.
         -6    1    1    2    0  502 -0.92757622346E+02 -0.17335855787E+02  0.58174110166E+03  0.61421186716E+03  0.17300000000E+03 0.  1.
</event>
<event>
 4    1  0.3065897E+000  0.1000000E+03  0.7546771E-02  0.1280296E+00
         21   -1    0    0  503  502  0.00000000000E+00  0.00000000000E+00  0.50984151668E+02  0.50984151668E+02  0.00000000000E+00 0.  1.
         21   -1    0    0  501  503 -0.00000000000E+00 -0.00000000000E+00 -0.13684654399E+04  0.13684654399E+04  0.00000000000E+00 0.  1.
          6    1    1    2  501    0 -0.87328519367E+02  0.16406170708E+02 -0.11389837088E+04  0.11554688752E+04  0.17300000000E+03 0. -1.
         -6    1    1    2    0  502  0.87328519367E+02 -0.16406170708E+02 -0.17849757944E+03  0.26398071634E+03  0.17300000000E+03 0. -1.
</event>
<event>
 4    1  0.3065897E+000  0.1000000E+03  0.7546771E-02  0.1280296E+00
         21   -1    0    0  503  502  0.00000000000E+00  0.00000000000E+00  0.70259822708E+03  0.70259822708E+03  0.00000000000E+00 0.  1.
         21   -1    0    0  501  503 -0.00000000000E+00 -0.00000000000E+00 -0.51466238245E+02  0.51466238245E+02  0.00000000000E+00 0.  1.
          6    1    1    2  501    0 -0.27214402279E+01  0.71648259281E+02  0.39103240260E+03  0.43356224372E+03  0.17300000000E+03 0. -1.
         -6    1    1    2    0  502  0.27214402279E+01 -0.71648259281E+02  0.26009958624E+03  0.32050222161E+03  0.17300000000E+03 0. -1.
</event>
<event>
 4    1  0.3065897E+000  0.1000000E+03  0.7546771E-02  0.1280296E+00
         21   -1    0    0  503  502  0.00000000000E+00  0.00000000000E+00  0.61557928646E+03  0.61557928646E+03  0.00000000000E+00 0.  1.
         21   -1    0    0  501  503 -0.00000000000E+00 -0.00000000000E+00 -0.89254454924E+02  0.89254454924E+02  0.00000000000E+00 0. -1.
          6    1    1    2  501    0  0.14600512313E+03  0.49426588668E+02  0.20992728926E+03  0.31266427750E+03  0.17300000000E+03 0. -1.
         -6    1    1    2    0  502 -0.14600512313E+03 -0.49426588668E+02  0.31639754227E+03  0.39216946388E+03  0.17300000000E+03 0. -1.
</event>
<event>
 4    1  0.3065897E+000  0.1000000E+03  0.7546771E-02  0.1280296E+00
         21   -1    0    0  503  502  0.00000000000E+00  0.00000000000E+00  0.37035585962E+03  0.37035585962E+03  0.00000000000E+00 0.  1.
         21   -1    0    0  501  503 -0.00000000000E+00 -0.00000000000E+00 -0.31533330348E+03  0.31533330348E+03  0.00000000000E+00 0. -1.
          6    1    1    2  501    0  0.19943293363E+02  0.20272726076E+03 -0.18615770457E+03  0.32569889189E+03  0.17300000000E+03 0. -1.
         -6    1    1    2    0  502 -0.19943293363E+02 -0.20272726076E+03  0.24118026071E+03  0.35999027121E+03  0.17300000000E+03 0. -1.
</event>
<event>
 4    1  0.3065897E+000  0.1000000E+03  0.7546771E-02  0.1280296E+00
         21   -1    0    0  501  502  0.00000000000E+00  0.00000000000E+00  0.71619686759E+03  0.71619686759E+03  0.00000000000E+00 0. -1.
         21   -1    0    0  502  503 -0.00000000000E+00 -0.00000000000E+00 -0.12433667785E+03  0.12433667785E+03  0.00000000000E+00 0. -1.
          6    1    1    2  501    0 -0.18023545837E+01 -0.16058383402E+03  0.55304524927E+03  0.60131394793E+03  0.17300000000E+03 0. -1.
         -6    1    1    2    0  503  0.18023545837E+01  0.16058383402E+03  0.38814940470E+02  0.23921959751E+03  0.17300000000E+03 0. -1.
</event>
<event>
 4    1  0.3065897E+000  0.1000000E+03  0.7546771E-02  0.1280296E+00
         21   -1    0    0  503  502  0.00000000000E+00  0.00000000000E+00  0.49446281563E+03  0.49446281563E+03  0.00000000000E+00 0.  1.
         21   -1    0    0  501  503 -0.00000000000E+00 -0.00000000000E+00 -0.17711320259E+03  0.17711320259E+03  0.00000000000E+00 0.  1.
          6    1    1    2  501    0 -0.16886879017E+03  0.72146139056E+01 -0.34814274252E+02  0.24435579109E+03  0.17300000000E+03 0.  1.
         -6    1    1    2    0  502  0.16886879017E+03 -0.72146139056E+01  0.35216388730E+03  0.42722022713E+03  0.17300000000E+03 0.  1.
</event>
<event>
 4    1  0.3065897E+000  0.1000000E+03  0.7546771E-02  0.1280296E+00
         21   -1    0    0  503  502  0.00000000000E+00  0.00000000000E+00  0.13033894235E+03  0.13033894235E+03  0.00000000000E+00 0.  1.
         21   -1    0    0  501  503 -0.00000000000E+00 -0.00000000000E+00 -0.47665143211E+03  0.47665143211E+03  0.00000000000E+00 0.  1.
          6    1    1    2  501    0  0.15653580713E+03  0.44010434639E+02 -0.80769996549E+02  0.25078510644E+03  0.17300000000E+03 0.  1.
         -6    1    1    2    0  502 -0.15653580713E+03 -0.44010434639E+02 -0.26554249321E+03  0.35620526803E+03  0.17300000000E+03 0.  1.
</event>
<event>
 4    1  0.3065897E+000  0.1000000E+03  0.7546771E-02  0.1280296E+00
         21   -1    0    0  503  502  0.00000000000E+00  0.00000000000E+00  0.81848528118E+02  0.81848528118E+02  0.00000000000E+00 0.  1.
         21   -1    0    0  501  503 -0.00000000000E+00 -0.00000000000E+00 -0.55408638310E+03  0.55408638310E+03  0.00000000000E+00 0.  1.
          6    1    1    2  501    0 -0.10899002037E+03  0.66403207945E+01 -0.32444219845E+03  0.38355528746E+03  0.17300000000E+03 0.  1.
         -6    1    1    2    0  502  0.10899002037E+03 -0.66403207945E+01 -0.14779565653E+03  0.25237962376E+03  0.17300000000E+03 0.  1.
</event>
<event>
 4    1  0.3065897E+000  0.1000000E+03  0.7546771E-02  0.1280296E+00
         21   -1    0    0  501  502  0.00000000000E+00  0.00000000000E+00  0.20562926621E+02  0.20562926621E+02  0.00000000000E+00 0.  1.
         21   -1    0    0  502  503 -0.00000000000E+00 -0.00000000000E+00 -0.18774997708E+04  0.18774997708E+04  0.00000000000E+00 0.  1.
          6    1    1    2  501    0 -0.11658503240E+02  0.62519553992E+02 -0.59969842827E+03  0.62738490594E+03  0.17300000000E+03 0.  1.
         -6    1    1    2    0  503  0.11658503240E+02 -0.62519553992E+02 -0.12572384159E+04  0.12706777915E+04  0.17300000000E+03 0.  1.
</event>
<event>
 4    1  0.3065897E+000  0.1000000E+03  0.7546771E-02  0.1280296E+00
         21   -1    0    0  501  502  0.00000000000E+00  0.00000000000E+00  0.10629964847E+03  0.10629964847E+03  0.00000000000E+00 0.  1.
         21   -1    0    0  502  503 -0.00000000000E+00 -0.00000000000E+00 -0.34229490651E+03  0.34229490651E+03  0.00000000000E+00 0.  1.
          6    1    1    2  501    0 -0.42552591741E+02  0.54900519254E+02 -0.70494411818E+02  0.19930692957E+03  0.17300000000E+03 0.  1.
         -6    1    1    2    0  503  0.42552591741E+02 -0.54900519254E+02 -0.16550084623E+03  0.24928762540E+03  0.17300000000E+03 0.  1.
</event>
<event>
 4    1  0.3065897E+000  0.1000000E+03  0.7546771E-02  0.1280296E+00
         21   -1    0    0  501  502  0.00000000000E+00  0.00000000000E+00  0.73164862740E+02  0.73164862740E+02  0.00000000000E+00 0.  1.
         21   -1    0    0  502  503 -0.00000000000E+00 -0.00000000000E+00 -0.92394398875E+03  0.92394398875E+03  0.00000000000E+00 0.  1.
          6    1    1    2  501    0 -0.85465871854E+02  0.39173845188E+01 -0.91326571393E+02  0.21351651879E+03  0.17300000000E+03 0.  1.
         -6    1    1    2    0  503  0.85465871854E+02 -0.39173845188E+01 -0.75945255462E+03  0.78359233271E+03  0.17300000000E+03 0.  1.
</event>
<event>
 4    1  0.3065897E+000  0.1000000E+03  0.7546771E-02  0.1280296E+00
         21   -1    0    0  501  502  0.00000000000E+00  0.00000000000E+00  0.15500882973E+03  0.15500882973E+03  0.00000000000E+00 0. -1.
         21   -1    0    0  502  503 -0.00000000000E+00 -0.00000000000E+00 -0.26756710249E+03  0.26756710249E+03  0.00000000000E+00 0. -1.
          6    1    1    2  501    0 -0.40281900614E+02 -0.26487854090E+02  0.43351601169E+02  0.18475009947E+03  0.17300000000E+03 0. -1.
         -6    1    1    2    0  503  0.40281900614E+02  0.26487854090E+02 -0.15590987393E+03  0.23782583274E+03  0.17300000000E+03 0. -1.
</event>
<event>
 4    1  0.3065897E+000  0.1000000E+03  0.7546771E-02  0.1280296E+00
         21   -1    0    0  501  502  0.00000000000E+00  0.00000000000E+00  0.59783707475E+03  0.59783707475E+03  0.00000000000E+00 0.  1.
         21   -1    0    0  502  503 -0.00000000000E+00 -0.00000000000E+00 -0.10504209493E+03  0.10504209493E+03  0.00000000000E+00 0.  1.
          6    1    1    2  501    0  0.12494146605E+03  0.12239854392E+03  0.31332216729E+03  0.39836108495E+03  0.17300000000E+03 0.  1.
         -6    1    1    2    0  503 -0.12494146605E+03 -0.12239854392E+03  0.17947281253E+03  0.30451808473E+03  0.17300000000E+03 0.  1.
</event>
<event>
 4    1  0.3065897E+000  0.1000000E+03  0.7546771E-02  0.1280296E+00
         21   -1    0    0  503  502  0.00000000000E+00  0.00000000000E+00  0.40068911862E+03  0.40068911862E+03  0.00000000000E+00 0.  1.
         21   -1    0    0  501  503 -0.00000000000E+00 -0.00000000000E+00 -0.12135408118E+03  0.12135408118E+03  0.00000000000E+00 0. -1.
          6    1    1    2  501    0 -0.13670089243E+03 -0.25542488406E+01  0.14157680003E+03  0.26204321874E+03  0.17300000000E+03 0. -1.
         -6    1    1    2    0  502  0.13670089243E+03  0.25542488406E+01  0.13775823741E+03  0.25999998107E+03  0.17300000000E+03 0.  1.
</event>
<event>
 4    1  0.3065897E+000  0.1000000E+03  0.7546771E-02  0.1280296E+00
         21   -1    0    0  503  502  0.00000000000E+00  0.00000000000E+00  0.24390849960E+03  0.24390849960E+03  0.00000000000E+00 0.  1.
         21   -1    0    0  501  503 -0.00000000000E+00 -0.00000000000E+00 -0.15784183533E+03  0.15784183533E+03  0.00000000000E+00 0. -1.
          6    1    1    2  501    0 -0.14570436815E+02 -0.87368029567E+02  0.15477126118E+02  0.19497182271E+03  0.17300000000E+03 0. -1.
         -6    1    1    2    0  502  0.14570436815E+02  0.87368029567E+02  0.70589538150E+02  0.20677851222E+03  0.17300000000E+03 0.  1.
</event>
<event>
 4    1  0.3065897E+000  0.1000000E+03  0.7546771E-02  0.1280296E+00
         21   -1    0    0  501  502  0.00000000000E+00  0.00000000000E+00  0.54550011500E+03  0.54550011500E+03  0.00000000000E+00 0.  1.
         21   -1    0    0  502  503 -0.00000000000E+00 -0.00000000000E+00 -0.23268942672E+03  0.23268942672E+03  0.00000000000E+00 0. -1.
          6    1    1    2  501    0  0.17720082862E+03  0.43058898738E+02  0.43214930928E+03  0.49993622387E+03  0.17300000000E+03 0.  1.
         -6    1    1    2    0  503 -0.17720082862E+03 -0.43058898738E+02 -0.11933862100E+03  0.27825331784E+03  0.17300000000E+03 0.  1.
</event>
<event>
 4    1  0.3065897E+000  0.1000000E+03  0.7546771E-02  0.1280296E+00
         21   -1    0    0  503  502  0.00000000000E+00  0.00000000000E+00  0.12680007361E+03  0.12680007361E+03  0.00000000000E+00 0.  1.
         21   -1    0    0  501  503 -0.00000000000E+00 -0.00000000000E+00 -0.46236281280E+03  0.46236281280E+03  0.00000000000E+00 0.  1.
          6    1    1    2  501    0  0.15030655991E+03 -0.77282900334E+02 -0.15370167539E+03  0.28656223347E+03  0.17300000000E+03 0.  1.
         -6    1    1    2    0  502 -0.15030655991E+03  0.77282900334E+02 -0.18186106379E+03  0.30260065294E+03  0.17300000000E+03 0.  1.
</event>
<event>
 4    1  0.3065897E+000  0.1000000E+03  0.7546771E-02  0.1280296E+00
         21   -1    0    0  503  502  0.00000000000E+00  0.00000000000E+00  0.19420153695E+04  0.19420153695E+04  0.00000000000E+00 0.  1.
         21   -1    0    0  501  503 -0.00000000000E+00 -0.00000000000E+00 -0.52542090739E+02  0.52542090739E+02  0.00000000000E+00 0.  1.
          6    1    1    2  501    0 -0.17159931174E+03  0.95095043444E+02  0.37229665952E+03  0.45499801512E+03  0.17300000000E+03 0.  1.
         -6    1    1    2    0  502  0.17159931174E+03 -0.95095043444E+02  0.15171766193E+04  0.15395594451E+04  0.17300000000E+03 0.  1.
</event>
<event>
 4    1  0.3065897E+000  0.1000000E+03  0.7546771E-02  0.1280296E+00
         21   -1    0    0  501  502  0.00000000000E+00  0.00000000000E+00  0.13538303786E+04  0.13538303786E+04  0.00000000000E+00 0. -1.
         21   -1    0    0  502  503 -0.00000000000E+00 -0.00000000000E+00 -0.27572232555E+02  0.27572232555E+02  0.00000000000E+00 0.  1.
          6    1    1    2  501    0 -0.29123087948E+02  0.77103520476E+02  0.57512246687E+03  0.60620785133E+03  0.17300000000E+03 0.  1.
         -6    1    1    2    0  503  0.29123087948E+02 -0.77103520476E+02  0.75113567914E+03  0.77519475978E+03  0.17300000000E+03 0. -1.
</event>
<event>
 4    1  0.3065897E+000  0.1000000E+03  0.7546771E-02  0.1280296E+00
         21   -1    0    0  501  502  0.00000000000E+00  0.00000000000E+00  0.10713121928E+04  0.10713121928E+04  0.00000000000E+00 0. -1.
         21   -1    0    0  502  503 -0.00000000000E+00 -0.00000000000E+00 -0.58165770954E+02  0.58165770954E+02  0.00000000000E+00 0.  1.
          6    1    1    2  501    0  0.16229111763E+03  0.16614022927E+02  0.67842495860E+03  0.71889071288E+03  0.17300000000E+03 0.  1.
         -6    1    1    2    0  503 -0.16229111763E+03 -0.16614022927E+02  0.33472146324E+03  0.41058725086E+03  0.17300000000E+03 0. -1.
</event>
<event>
 4    1  0.3065897E+000  0.1000000E+03  0.7546771E-02  0.1280296E+00
         21   -1    0    0  503  502  0.00000000000E+00  0.00000000000E+00  0.94661123789E+02  0.94661123789E+02  0.00000000000E+00 0.  1.
         21   -1    0    0  501  503 -0.00000000000E+00 -0.00000000000E+00 -0.79048889467E+03  0.79048889467E+03  0.00000000000E+00 0. -1.
          6    1    1    2  501    0  0.80082760329E+02 -0.11033382912E+01 -0.66530845309E+03  0.69208294562E+03  0.17300000000E+03 0.  1.
         -6    1    1    2    0  502 -0.80082760329E+02  0.11033382912E+01 -0.30519317788E+02  0.19306707284E+03  0.17300000000E+03 0.  1.
</event>
<event>
 4    1  0.3065897E+000  0.1000000E+03  0.7546771E-02  0.1280296E+00
         21   -1    0    0  503  502  0.00000000000E+00  0.00000000000E+00  0.51027722006E+02  0.51027722006E+02  0.00000000000E+00 0.  1.
         21   -1    0    0  501  503 -0.00000000000E+00 -0.00000000000E+00 -0.17328553863E+04  0.17328553863E+04  0.00000000000E+00 0. -1.
          6    1    1    2  501    0 -0.53618360953E+02  0.97827959564E+02 -0.14845852887E+04  0.14987887502E+04  0.17300000000E+03 0.  1.
         -6    1    1    2    0  502  0.53618360953E+02 -0.97827959564E+02 -0.19724237565E+03  0.28509435817E+03  0.17300000000E+03 0.  1.
</event>
<event>
 4    1  0.3065897E+000  0.1000000E+03  0.7546771E-02  0.1280296E+00
         21   -1    0    0  503  502  0.00000000000E+00  0.00000000000E+00  0.47559298900E+03  0.47559298900E+03  0.00000000000E+00 0.  1.
         21   -1    0    0  501  503 -0.00000000000E+00 -0.00000000000E+00 -0.29614543582E+03  0.29614543582E+03  0.00000000000E+00 0. -1.
          6    1    1    2  501    0  0.80552698482E+01  0.15306134065E+03 -0.21428268619E+03  0.31518047366E+03  0.17300000000E+03 0. -1.
         -6    1    1    2    0  502 -0.80552698482E+01 -0.15306134065E+03  0.39373023937E+03  0.45655795116E+03  0.17300000000E+03 0.  1.
</event>
<event>
 4    1  0.3065897E+000  0.1000000E+03  0.7546771E-02  0.1280296E+00
         21   -1    0    0  503  502  0.00000000000E+00  0.00000000000E+00  0.17082555864E+02  0.17082555864E+02  0.00000000000E+00 0.  1.
         21   -1    0    0  501  503 -0.00000000000E+00 -0.00000000000E+00 -0.25317171504E+04  0.25317171504E+04  0.00000000000E+00 0. -1.
          6    1    1    2  501    0  0.45579311298E+02  0.10527560557E+03 -0.11801008366E+04  0.11982184322E+04  0.17300000000E+03 0. -1.
         -6    1    1    2    0  502 -0.45579311298E+02 -0.10527560557E+03 -0.13345337580E+04  0.13505812741E+04  0.17300000000E+03 0.  1.
</event>
<event>
 4    1  0.3065897E+000  0.1000000E+03  0.7546771E-02  0.1280296E+00
         21   -1    0    0  503  502  0.00000000000E+00  0.00000000000E+00  0.22195307286E+03  0.22195307286E+03  0.00000000000E+00 0.  1.
         21   -1    0    0  501  503 -0.00000000000E+00 -0.00000000000E+00 -0.35943160969E+03  0.35943160969E+03  0.00000000000E+00 0. -1.
          6    1    1    2  501    0  0.99884573872E+02 -0.10653460981E+03 -0.24255148076E+03  0.33179326696E+03  0.17300000000E+03 0. -1.
         -6    1    1    2    0  502 -0.99884573872E+02  0.10653460981E+03  0.10507294393E+03  0.24959141558E+03  0.17300000000E+03 0.  1.
</event>
<event>
 4    1  0.3065897E+000  0.1000000E+03  0.7546771E-02  0.1280296E+00
         21   -1    0    0  503  502  0.00000000000E+00  0.00000000000E+00  0.47862153050E+03  0.47862153050E+03  0.00000000000E+00 0.  1.
         21   -1    0    0  501  503 -0.00000000000E+00 -0.00000000000E+00 -0.66118583474E+02  0.66118583474E+02  0.00000000000E+00 0. -1.
          6    1    1    2  501    0  0.78551860343E+01 -0.37441803991E+02  0.18188905233E+03  0.25392168082E+03  0.17300000000E+03 0. -1.
         -6    1    1    2    0  502 -0.78551860343E+01  0.37441803991E+02  0.23061389470E+03  0.29081843315E+03  0.17300000000E+03 0.  1.
</event>
<event>
 4    1  0.3065897E+000  0.1000000E+03  0.7546771E-02  0.1280296E+00
         21   -1    0    0  503  502  0.00000000000E+00  0.00000000000E+00  0.59573390312E+02  0.59573390312E+02  0.00000000000E+00 0.  1.
         21   -1    0    0  501  503 -0.00000000000E+00 -0.00000000000E+00 -0.93831949592E+03  0.93831949592E+03  0.00000000000E+00 0. -1.
          6    1    1    2  501    0  0.46573964982E+02 -0.10404350107E+03 -0.67976372989E+03  0.71063486602E+03  0.17300000000E+03 0. -1.
         -6    1    1    2    0  502 -0.46573964982E+02  0.10404350107E+03 -0.19898237571E+03  0.28725802020E+03  0.17300000000E+03 0.  1.
</event>
<event>
 4    1  0.3065897E+000  0.1000000E+03  0.7546771E-02  0.1280296E+00
         21   -1    0    0  503  502  0.00000000000E+00  0.00000000000E+00  0.83065891357E+02  0.83065891357E+02  0.00000000000E+00 0.  1.
         21   -1    0    0  501  503 -0.00000000000E+00 -0.00000000000E+00 -0.52897606534E+03  0.52897606534E+03  0.00000000000E+00 0. -1.
          6    1    1    2  501    0 -0.24964330735E+02  0.15103770970E+02 -0.39042699092E+03  0.42803455111E+03  0.17300000000E+03 0. -1.
         -6    1    1    2    0  502  0.24964330735E+02 -0.15103770970E+02 -0.55483183061E+02  0.18400740558E+03  0.17300000000E+03 0.  1.
</event>
<event>
 4    1  0.3065897E+000  0.1000000E+03  0.7546771E-02  0.1280296E+00
         21   -1    0    0  503  502  0.00000000000E+00  0.00000000000E+00  0.67147919014E+03  0.67147919014E+03  0.00000000000E+00 0.  1.
         21   -1    0    0  501  503 -0.00000000000E+00 -0.00000000000E+00 -0.18683454508E+03  0.18683454508E+03  0.00000000000E+00 0. -1.
          6    1    1    2  501    0  0.27766780036E+03  0.12595073062E+03  0.18097591432E+03  0.39451777586E+03  0.17300000000E+03 0. -1.
         -6    1    1    2    0  502 -0.27766780036E+03 -0.12595073062E+03  0.30366873073E+03  0.46379595937E+03  0.17300000000E+03 0.  1.
</event>
<event>
 4    1  0.3065897E+000  0.1000000E+03  0.7546771E-02  0.1280296E+00
         21   -1    0    0  503  502  0.00000000000E+00  0.00000000000E+00  0.29139802664E+04  0.29139802664E+04  0.00000000000E+00 0.  1.
         21   -1    0    0  501  503 -0.00000000000E+00 -0.00000000000E+00 -0.19456608277E+02  0.19456608277E+02  0.00000000000E+00 0.  1.
          6    1    1    2  501    0  0.18815632998E+02  0.91180938393E+02  0.61855800661E+03  0.64900770343E+03  0.17300000000E+03 0.  1.
         -6    1    1    2    0  502 -0.18815632998E+02 -0.91180938393E+02  0.22759656516E+04  0.22844291713E+04  0.17300000000E+03 0.  1.
</event>
<event>
 4    1  0.3065897E+000  0.1000000E+03  0.7546771E-02  0.1280296E+00
         21   -1    0    0  503  502  0.00000000000E+00  0.00000000000E+00  0.63200621049E+02  0.63200621049E+02  0.00000000000E+00 0.  1.
         21   -1    0    0  501  503 -0.00000000000E+00 -0.00000000000E+00 -0.10709122912E+04  0.10709122912E+04  0.00000000000E+00 0.  1.
          6    1    1    2  501    0 -0.57631102758E+01 -0.58018249524E+01 -0.92699309942E+03  0.94303344637E+03  0.17300000000E+03 0.  1.
         -6    1    1    2    0  502  0.57631102758E+01  0.58018249524E+01 -0.80718570712E+02  0.19107946585E+03  0.17300000000E+03 0.  1.
</event>
<event>
 4    1  0.3065897E+000  0.1000000E+03  0.7546771E-02  0.1280296E+00
         21   -1    0    0  501  502  0.00000000000E+00  0.00000000000E+00  0.14272943211E+03  0.14272943211E+03  0.00000000000E+00 0. -1.
         21   -1    0    0  502  503 -0.00000000000E+00 -0.00000000000E+00 -0.26911472869E+03  0.26911472869E+03  0.00000000000E+00 0. -1.
          6    1    1    2  501    0 -0.16766737663E+02 -0.89329151778E+02 -0.47580992531E+02  0.20113123005E+03  0.17300000000E+03 0. -1.
         -6    1    1    2    0  503  0.16766737663E+02  0.89329151778E+02 -0.78804304056E+02  0.21071293075E+03  0.17300000000E+03 0. -1.
</event>
<event>
 4    1  0.3065897E+000  0.1000000E+03  0.7546771E-02  0.1280296E+00
         21   -1    0    0  501  502  0.00000000000E+00  0.00000000000E+00  0.10303176703E+04  0.10303176703E+04  0.00000000000E+00 0. -1.
         21   -1    0    0  502  503 -0.00000000000E+00 -0.00000000000E+00 -0.95889570744E+02  0.95889570744E+02  0.00000000000E+00 0. -1.
          6    1    1    2  501    0  0.82321268876E+02 -0.36975239481E+02  0.90867915784E+03  0.92939268963E+03  0.17300000000E+03 0. -1.
         -6    1    1    2    0  503 -0.82321268876E+02  0.36975239481E+02  0.25748941701E+02  0.19681455140E+03  0.17300000000E+03 0. -1.
</event>
<event>
 4    1  0.3065897E+000  0.1000000E+03  0.7546771E-02  0.1280296E+00
         21   -1    0    0  501  502  0.00000000000E+00  0.00000000000E+00  0.69745271338E+02  0.69745271338E+02  0.00000000000E+00 0. -1.
         21   -1    0    0  502  503 -0.00000000000E+00 -0.00000000000E+00 -0.47305603372E+03  0.47305603372E+03  0.00000000000E+00 0. -1.
          6    1    1    2  501    0 -0.65941120569E+01 -0.19818821889E+02 -0.12505647523E+03  0.21448633992E+03  0.17300000000E+03 0. -1.
         -6    1    1    2    0  503  0.65941120569E+01  0.19818821889E+02 -0.27825428716E+03  0.32831496514E+03  0.17300000000E+03 0. -1.
</event>
<event>
 4    1  0.3065897E+000  0.1000000E+03  0.7546771E-02  0.1280296E+00
         21   -1    0    0  501  502  0.00000000000E+00  0.00000000000E+00  0.69716869582E+02  0.69716869582E+02  0.00000000000E+00 0.  1.
         21   -1    0    0  502  503 -0.00000000000E+00 -0.00000000000E+00 -0.12840110719E+04  0.12840110719E+04  0.00000000000E+00 0.  1.
          6    1    1    2  501    0 -0.40671168560E+02  0.67500965544E+02 -0.84476545249E+02  0.20802838989E+03  0.17300000000E+03 0.  1.
         -6    1    1    2    0  503  0.40671168560E+02 -0.67500965544E+02 -0.11298176571E+04  0.11456995516E+04  0.17300000000E+03 0.  1.
</event>
<event>
 4    1  0.3065897E+000  0.1000000E+03  0.7546771E-02  0.1280296E+00
         21   -1    0    0  503  502  0.00000000000E+00  0.00000000000E+00  0.40537361678E+03  0.40537361678E+03  0.00000000000E+00 0. -1.
         21   -1    0    0  501  503 -0.00000000000E+00 -0.00000000000E+00 -0.25889283250E+03  0.25889283250E+03  0.00000000000E+00 0. -1.
          6    1    1    2  501    0 -0.18865410329E+03 -0.13686288199E+03 -0.74256735746E+02  0.29960788033E+03  0.17300000000E+03 0. -1.
         -6    1    1    2    0  502  0.18865410329E+03  0.13686288199E+03  0.22073752003E+03  0.36465856895E+03  0.17300000000E+03 0. -1.
</event>
<event>
 4    1  0.3065897E+000  0.1000000E+03  0.7546771E-02  0.1280296E+00
         21   -1    0    0  503  502  0.00000000000E+00  0.00000000000E+00  0.42037860816E+02  0.42037860816E+02  0.00000000000E+00 0. -1.
         21   -1    0    0  501  503 -0.00000000000E+00 -0.00000000000E+00 -0.90203678993E+03  0.90203678993E+03  0.00000000000E+00 0. -1.
          6    1    1    2  501    0 -0.27108645890E+02 -0.77996720965E+02 -0.34700123558E+03  0.39643060510E+03  0.17300000000E+03 0. -1.
         -6    1    1    2    0  502  0.27108645890E+02  0.77996720965E+02 -0.51299769353E+03  0.54764404565E+03  0.17300000000E+03 0. -1.
</event>
<event>
 4    1  0.3065897E+000  0.1000000E+03  0.7546771E-02  0.1280296E+00
         21   -1    0    0  503  502  0.00000000000E+00  0.00000000000E+00  0.28895192058E+03  0.28895192058E+03  0.00000000000E+00 0. -1.
         21   -1    0    0  501  503 -0.00000000000E+00 -0.00000000000E+00 -0.46210706176E+03  0.46210706176E+03  0.00000000000E+00 0. -1.
          6    1    1    2  501    0 -0.27410592283E+03 -0.16742850517E+03 -0.65233327238E+02  0.37060861870E+03  0.17300000000E+03 0. -1.
         -6    1    1    2    0  502  0.27410592283E+03  0.16742850517E+03 -0.10792181394E+03  0.38045036364E+03  0.17300000000E+03 0. -1.
</event>
<event>
 4    1  0.3065897E+000  0.1000000E+03  0.7546771E-02  0.1280296E+00
         21   -1    0    0  503  502  0.00000000000E+00  0.00000000000E+00  0.19830305026E+02  0.19830305026E+02  0.00000000000E+00 0.  1.
         21   -1    0    0  501  503 -0.00000000000E+00 -0.00000000000E+00 -0.17855922533E+04  0.17855922533E+04  0.00000000000E+00 0. -1.
          6    1    1    2  501    0 -0.68444586568E+02 -0.26322656404E+02 -0.83436095080E+03  0.85525711917E+03  0.17300000000E+03 0. -1.
         -6    1    1    2    0  502  0.68444586568E+02  0.26322656404E+02 -0.93140099749E+03  0.95016543917E+03  0.17300000000E+03 0.  1.
</event>
<event>
 4    1  0.3065897E+000  0.1000000E+03  0.7546771E-02  0.1280296E+00
         21   -1    0    0  501  502  0.00000000000E+00  0.00000000000E+00  0.11545757122E+03  0.11545757122E+03  0.00000000000E+00 0. -1.
         21   -1    0    0  502  503 -0.00000000000E+00 -0.00000000000E+00 -0.64548518954E+03  0.64548518954E+03  0.00000000000E+00 0.  1.
          6    1    1    2  501    0 -0.11154375461E+03  0.98847609950E+02 -0.56497832816E+02  0.23523151213E+03  0.17300000000E+03 0.  1.
         -6    1    1    2    0  503  0.11154375461E+03 -0.98847609950E+02 -0.47352978551E+03  0.52571124864E+03  0.17300000000E+03 0. -1.
</event>
<event>
 4    1  0.3065897E+000  0.1000000E+03  0.7546771E-02  0.1280296E+00
         21   -1    0    0  501  502  0.00000000000E+00  0.00000000000E+00  0.33425703318E+03  0.33425703318E+03  0.00000000000E+00 0. -1.
         21   -1    0    0  502  503 -0.00000000000E+00 -0.00000000000E+00 -0.15922392483E+03  0.15922392483E+03  0.00000000000E+00 0.  1.
          6    1    1    2  501    0  0.38966600129E+02  0.97349020357E+02  0.20612187865E+03  0.28880868503E+03  0.17300000000E+03 0.  1.
         -6    1    1    2    0  503 -0.38966600129E+02 -0.97349020357E+02 -0.31088770298E+02  0.20467227298E+03  0.17300000000E+03 0. -1.
</event>
<event>
 4    1  0.3065897E+000  0.1000000E+03  0.7546771E-02  0.1280296E+00
         21   -1    0    0  501  502  0.00000000000E+00  0.00000000000E+00  0.63974727861E+03  0.63974727861E+03  0.00000000000E+00 0. -1.
         21   -1    0    0  502  503 -0.00000000000E+00 -0.00000000000E+00 -0.69519194192E+02  0.69519194192E+02  0.00000000000E+00 0.  1.
          6    1    1    2  501    0  0.24509513165E+02 -0.87866067945E+02  0.41778532779E+03  0.46129680494E+03  0.17300000000E+03 0.  1.
         -6    1    1    2    0  503 -0.24509513165E+02  0.87866067945E+02  0.15244275663E+03  0.24796966786E+03  0.17300000000E+03 0. -1.
</event>
<event>
 4    1  0.3065897E+000  0.1000000E+03  0.7546771E-02  0.1280296E+00
         21   -1    0    0  501  502  0.00000000000E+00  0.00000000000E+00  0.25196225617E+03  0.25196225617E+03  0.00000000000E+00 0. -1.
         21   -1    0    0  502  503 -0.00000000000E+00 -0.00000000000E+00 -0.62068548578E+03  0.62068548578E+03  0.00000000000E+00 0.  1.
          6    1    1    2  501    0  0.11185779392E+03 -0.33723436527E+03 -0.20076869948E+03  0.44325642000E+03  0.17300000000E+03 0.  1.
         -6    1    1    2    0  503 -0.11185779392E+03  0.33723436527E+03 -0.16795453013E+03  0.42939132195E+03  0.17300000000E+03 0. -1.
</event>
<event>
 4    1  0.3065897E+000  0.1000000E+03  0.7546771E-02  0.1280296E+00
         21   -1    0    0  503  502  0.00000000000E+00  0.00000000000E+00  0.39309457836E+03  0.39309457836E+03  0.00000000000E+00 0.  1.
         21   -1    0    0  501  503 -0.00000000000E+00 -0.00000000000E+00 -0.20749451755E+03  0.20749451755E+03  0.00000000000E+00 0.  1.
          6    1    1    2  501    0  0.75052898969E+02 -0.52003391784E+02 -0.12599272266E+03  0.23268101892E+03  0.17300000000E+03 0.  1.
         -6    1    1    2    0  502 -0.75052898969E+02  0.52003391784E+02  0.31159278348E+03  0.36790807699E+03  0.17300000000E+03 0.  1.
</event>
<event>
 4    1  0.3065897E+000  0.1000000E+03  0.7546771E-02  0.1280296E+00
         21   -1    0    0  503  502  0.00000000000E+00  0.00000000000E+00  0.10828459135E+03  0.10828459135E+03  0.00000000000E+00 0.  1.
         21   -1    0    0  501  503 -0.00000000000E+00 -0.00000000000E+00 -0.31192397506E+03  0.31192397506E+03  0.00000000000E+00 0.  1.
          6    1    1    2  501    0  0.59946916354E+02  0.15339838922E+02 -0.10675232638E+03  0.21249471200E+03  0.17300000000E+03 0.  1.
         -6    1    1    2    0  502 -0.59946916354E+02 -0.15339838922E+02 -0.96887057323E+02  0.20771385441E+03  0.17300000000E+03 0.  1.
</event>
<event>
 4    1  0.3065897E+000  0.1000000E+03  0.7546771E-02  0.1280296E+00
         21   -1    0    0  503  502  0.00000000000E+00  0.00000000000E+00  0.35264589701E+02  0.35264589701E+02  0.00000000000E+00 0.  1.
         21   -1    0    0  501  503 -0.00000000000E+00 -0.00000000000E+00 -0.11741205077E+04  0.11741205077E+04  0.00000000000E+00 0.  1.
          6    1    1    2  501    0 -0.84094532194E+02 -0.54109852283E+02 -0.68360228193E+03  0.71220842898E+03  0.17300000000E+03 0.  1.
         -6    1    1    2    0  502  0.84094532194E+02  0.54109852283E+02 -0.45525363603E+03  0.49717666837E+03  0.17300000000E+03 0.  1.
</event>
<event>
 4    1  0.3065897E+000  0.1000000E+03  0.7546771E-02  0.1280296E+00
         21   -1    0    0  503  502  0.00000000000E+00  0.00000000000E+00  0.50355704089E+03  0.50355704089E+03  0.00000000000E+00 0.  1.
         21   -1    0    0  501  503 -0.00000000000E+00 -0.00000000000E+00 -0.82475209866E+02  0.82475209866E+02  0.00000000000E+00 0.  1.
          6    1    1    2  501    0 -0.35378472089E+02  0.13485438200E+02  0.65552442971E+02  0.18883753893E+03  0.17300000000E+03 0.  1.
         -6    1    1    2    0  502  0.35378472089E+02 -0.13485438200E+02  0.35552938806E+03  0.39719471183E+03  0.17300000000E+03 0.  1.
</event>
<event>
 4    1  0.3065897E+000  0.1000000E+03  0.7546771E-02  0.1280296E+00
         21   -1    0    0  503  502  0.00000000000E+00  0.00000000000E+00  0.31056297620E+03  0.31056297620E+03  0.00000000000E+00 0.  1.
         21   -1    0    0  501  503 -0.00000000000E+00 -0.00000000000E+00 -0.24691796723E+03  0.24691796723E+03  0.00000000000E+00 0.  1.
          6    1    1    2  501    0 -0.13397544306E+02  0.44944914038E+01 -0.18536331670E+03  0.25394537567E+03  0.17300000000E+03 0.  1.
         -6    1    1    2    0  502  0.13397544306E+02 -0.44944914038E+01  0.24900832567E+03  0.30353556776E+03  0.17300000000E+03 0.  1.
</event>
<event>
 4    1  0.3065897E+000  0.1000000E+03  0.7546771E-02  0.1280296E+00
         21   -1    0    0  503  502  0.00000000000E+00  0.00000000000E+00  0.38157864645E+03  0.38157864645E+03  0.00000000000E+00 0.  1.
         21   -1    0    0  501  503 -0.00000000000E+00 -0.00000000000E+00 -0.17622854389E+03  0.17622854389E+03  0.00000000000E+00 0.  1.
          6    1    1    2  501    0 -0.77424795433E+01 -0.44586283897E+02 -0.99308217371E+02  0.20454584997E+03  0.17300000000E+03 0.  1.
         -6    1    1    2    0  502  0.77424795433E+01  0.44586283897E+02  0.30465831993E+03  0.35326134038E+03  0.17300000000E+03 0.  1.
</event>
<event>
 4    1  0.3065897E+000  0.1000000E+03  0.7546771E-02  0.1280296E+00
         21   -1    0    0  503  502  0.00000000000E+00  0.00000000000E+00  0.59389162392E+02  0.59389162392E+02  0.00000000000E+00 0.  1.
         21   -1    0    0  501  503 -0.00000000000E+00 -0.00000000000E+00 -0.58903882265E+03  0.58903882265E+03  0.00000000000E+00 0.  1.
          6    1    1    2  501    0  0.95389606107E+01 -0.56923199443E+02 -0.19288687979E+03  0.26545355677E+03  0.17300000000E+03 0.  1.
         -6    1    1    2    0  502 -0.95389606107E+01  0.56923199443E+02 -0.33676278046E+03  0.38297442827E+03  0.17300000000E+03 0.  1.
</event>
<event>
 4    1  0.3065897E+000  0.1000000E+03  0.7546771E-02  0.1280296E+00
         21   -1    0    0  503  502  0.00000000000E+00  0.00000000000E+00  0.89820568753E+02  0.89820568753E+02  0.00000000000E+00 0.  1.
         21   -1    0    0  501  503 -0.00000000000E+00 -0.00000000000E+00 -0.73465384148E+03  0.73465384148E+03  0.00000000000E+00 0.  1.
          6    1    1    2  501    0 -0.15379716117E+03 -0.97192078566E+02 -0.40969943469E+03  0.48050233476E+03  0.17300000000E+03 0.  1.
         -6    1    1    2    0  502  0.15379716117E+03  0.97192078566E+02 -0.23513383803E+03  0.34397207548E+03  0.17300000000E+03 0.  1.
</event>
<event>
 4    1  0.3065897E+000  0.1000000E+03  0.7546771E-02  0.1280296E+00
         21   -1    0    0  503  502  0.00000000000E+00  0.00000000000E+00  0.10707207218E+04  0.10707207218E+04  0.00000000000E+00 0.  1.
         21   -1    0    0  501  503 -0.00000000000E+00 -0.00000000000E+00 -0.71085644432E+02  0.71085644432E+02  0.00000000000E+00 0.  1.
          6    1    1    2  501    0 -0.26493731979E+02  0.14921512560E+02  0.59579728479E+02  0.18548130207E+03  0.17300000000E+03 0.  1.
         -6    1    1    2    0  502  0.26493731979E+02 -0.14921512560E+02  0.94005534886E+03  0.95632506413E+03  0.17300000000E+03 0.  1.
</event>
<event>
 4    1  0.3065897E+000  0.1000000E+03  0.7546771E-02  0.1280296E+00
         21   -1    0    0  503  502  0.00000000000E+00  0.00000000000E+00  0.17181896684E+04  0.17181896684E+04  0.00000000000E+00 0.  1.
         21   -1    0    0  501  503 -0.00000000000E+00 -0.00000000000E+00 -0.12817673335E+03  0.12817673335E+03  0.00000000000E+00 0.  1.
          6    1    1    2  501    0  0.11284826636E+03  0.70097073812E+02 -0.22397664394E+02  0.21926920976E+03  0.17300000000E+03 0.  1.
         -6    1    1    2    0  502 -0.11284826636E+03 -0.70097073812E+02  0.16124105994E+04  0.16270971920E+04  0.17300000000E+03 0.  1.
</event>
<event>
 4    1  0.3065897E+000  0.1000000E+03  0.7546771E-02  0.1280296E+00
         21   -1    0    0  503  502  0.00000000000E+00  0.00000000000E+00  0.22926681667E+03  0.22926681667E+03  0.00000000000E+00 0. -1.
         21   -1    0    0  501  503 -0.00000000000E+00 -0.00000000000E+00 -0.15030292694E+03  0.15030292694E+03  0.00000000000E+00 0. -1.
          6    1    1    2  501    0  0.18162932404E+02  0.40019003998E+02 -0.12639385358E+02  0.17894179740E+03  0.17300000000E+03 0. -1.
         -6    1    1    2    0  502 -0.18162932404E+02 -0.40019003998E+02  0.91603275085E+02  0.20062794621E+03  0.17300000000E+03 0. -1.
</event>
<event>
 4    1  0.3065897E+000  0.1000000E+03  0.7546771E-02  0.1280296E+00
         21   -1    0    0  503  502  0.00000000000E+00  0.00000000000E+00  0.32931261239E+03  0.32931261239E+03  0.00000000000E+00 0. -1.
         21   -1    0    0  501  503 -0.00000000000E+00 -0.00000000000E+00 -0.33992483457E+03  0.33992483457E+03  0.00000000000E+00 0. -1.
          6    1    1    2  501    0 -0.62363581414E+02  0.74231696486E+02 -0.27480794297E+03  0.33889226396E+03  0.17300000000E+03 0. -1.
         -6    1    1    2    0  502  0.62363581414E+02 -0.74231696486E+02  0.26419572079E+03  0.33034518300E+03  0.17300000000E+03 0. -1.
</event>
<event>
 4    1  0.3065897E+000  0.1000000E+03  0.7546771E-02  0.1280296E+00
         21   -1    0    0  503  502  0.00000000000E+00  0.00000000000E+00  0.49118915078E+02  0.49118915078E+02  0.00000000000E+00 0. -1.
         21   -1    0    0  501  503 -0.00000000000E+00 -0.00000000000E+00 -0.10583625844E+04  0.10583625844E+04  0.00000000000E+00 0. -1.
          6    1    1    2  501    0  0.62958979699E+02 -0.61613755636E+02 -0.79501088850E+03  0.81837118769E+03  0.17300000000E+03 0. -1.
         -6    1    1    2    0  502 -0.62958979699E+02  0.61613755636E+02 -0.21423278086E+03  0.28911031182E+03  0.17300000000E+03 0. -1.
</event>
<event>
 4    1  0.3065897E+000  0.1000000E+03  0.7546771E-02  0.1280296E+00
         21   -1    0    0  503  502  0.00000000000E+00  0.00000000000E+00  0.12496279736E+04  0.12496279736E+04  0.00000000000E+00 0. -1.
         21   -1    0    0  501  503 -0.00000000000E+00 -0.00000000000E+00 -0.58245201229E+02  0.58245201229E+02  0.00000000000E+00 0. -1.
          6    1    1    2  501    0  0.68317922366E+02 -0.18133185320E+03  0.41910789478E+03  0.49308113629E+03  0.17300000000E+03 0. -1.
         -6    1    1    2    0  502 -0.68317922366E+02  0.18133185320E+03  0.77227487757E+03  0.81479203851E+03  0.17300000000E+03 0. -1.
</event>
<event>
 4    1  0.3065897E+000  0.1000000E+03  0.7546771E-02  0.1280296E+00
         21   -1    0    0  501  502  0.00000000000E+00  0.00000000000E+00  0.23750830929E+03  0.23750830929E+03  0.00000000000E+00 0.  1.
         21   -1    0    0  502  503 -0.00000000000E+00 -0.00000000000E+00 -0.25416351174E+03  0.25416351174E+03  0.00000000000E+00 0.  1.
          6    1    1    2  501    0 -0.86633422483E+01 -0.32299927127E+02  0.16299749514E+03  0.24003233577E+03  0.17300000000E+03 0.  1.
         -6    1    1    2    0  503  0.86633422483E+01  0.32299927127E+02 -0.17965269759E+03  0.25163948526E+03  0.17300000000E+03 0.  1.
</event>
<event>
 4    1  0.3065897E+000  0.1000000E+03  0.7546771E-02  0.1280296E+00
         21   -1    0    0  503  502  0.00000000000E+00  0.00000000000E+00  0.29099014484E+03  0.29099014484E+03  0.00000000000E+00 0.  1.
         21   -1    0    0  501  503 -0.00000000000E+00 -0.00000000000E+00 -0.25044902138E+03  0.25044902138E+03  0.00000000000E+00 0.  1.
          6    1    1    2  501    0 -0.15356540436E+02  0.12305883589E+03 -0.14623871379E+03  0.25825193482E+03  0.17300000000E+03 0.  1.
         -6    1    1    2    0  502  0.15356540436E+02 -0.12305883589E+03  0.18677983725E+03  0.28318723140E+03  0.17300000000E+03 0.  1.
</event>
<event>
 4    1  0.3065897E+000  0.1000000E+03  0.7546771E-02  0.1280296E+00
         21   -1    0    0  503  502  0.00000000000E+00  0.00000000000E+00  0.22074184707E+03  0.22074184707E+03  0.00000000000E+00 0. -1.
         21   -1    0    0  501  503 -0.00000000000E+00 -0.00000000000E+00 -0.42582576318E+03  0.42582576318E+03  0.00000000000E+00 0.  1.
          6    1    1    2  501    0 -0.21704841802E+03 -0.12778609892E+03 -0.12899292937E+03  0.33167375336E+03  0.17300000000E+03 0.  1.
         -6    1    1    2    0  502  0.21704841802E+03  0.12778609892E+03 -0.76090986739E+02  0.31489385689E+03  0.17300000000E+03 0. -1.
</event>
<event>
 4    1  0.3065897E+000  0.1000000E+03  0.7546771E-02  0.1280296E+00
         21   -1    0    0  503  502  0.00000000000E+00  0.00000000000E+00  0.15267306080E+04  0.15267306080E+04  0.00000000000E+00 0. -1.
         21   -1    0    0  501  503 -0.00000000000E+00 -0.00000000000E+00 -0.40741015124E+02  0.40741015124E+02  0.00000000000E+00 0.  1.
          6    1    1    2  501    0 -0.37541815749E+02 -0.13294127240E+03  0.38210470692E+03  0.44160590677E+03  0.17300000000E+03 0.  1.
         -6    1    1    2    0  502  0.37541815749E+02  0.13294127240E+03  0.11038848859E+04  0.11258657163E+04  0.17300000000E+03 0. -1.
</event>
<event>
 4    1  0.3065897E+000  0.1000000E+03  0.7546771E-02  0.1280296E+00
         21   -1    0    0  503  502  0.00000000000E+00  0.00000000000E+00  0.11624144288E+03  0.11624144288E+03  0.00000000000E+00 0. -1.
         21   -1    0    0  501  503 -0.00000000000E+00 -0.00000000000E+00 -0.60290426781E+03  0.60290426781E+03  0.00000000000E+00 0.  1.
          6    1    1    2  501    0  0.11933441287E+03 -0.13163528583E+03 -0.36918051804E+03  0.44473790649E+03  0.17300000000E+03 0.  1.
         -6    1    1    2    0  502 -0.11933441287E+03  0.13163528583E+03 -0.11748230690E+03  0.27440780420E+03  0.17300000000E+03 0. -1.
</event>
<event>
 4    1  0.3065897E+000  0.1000000E+03  0.7546771E-02  0.1280296E+00
         21   -1    0    0  503  502  0.00000000000E+00  0.00000000000E+00  0.22001680426E+03  0.22001680426E+03  0.00000000000E+00 0. -1.
         21   -1    0    0  501  503 -0.00000000000E+00 -0.00000000000E+00 -0.23245466071E+03  0.23245466071E+03  0.00000000000E+00 0.  1.
          6    1    1    2  501    0 -0.46126860073E+02  0.13702767764E+03  0.11413282195E+02  0.22575104578E+03  0.17300000000E+03 0.  1.
         -6    1    1    2    0  502  0.46126860073E+02 -0.13702767764E+03 -0.23851138648E+02  0.22672041918E+03  0.17300000000E+03 0. -1.
</event>
<event>
 4    1  0.3065897E+000  0.1000000E+03  0.7546771E-02  0.1280296E+00
         21   -1    0    0  501  502  0.00000000000E+00  0.00000000000E+00  0.61617387478E+03  0.61617387478E+03  0.00000000000E+00 0. -1.
         21   -1    0    0  502  503 -0.00000000000E+00 -0.00000000000E+00 -0.13252555140E+03  0.13252555140E+03  0.00000000000E+00 0.  1.
          6    1    1    2  501    0  0.21651038020E+03  0.69505521512E+02  0.24797150217E+03  0.37832080057E+03  0.17300000000E+03 0. -1.
         -6    1    1    2    0  503 -0.21651038020E+03 -0.69505521512E+02  0.23567682121E+03  0.37037862561E+03  0.17300000000E+03 0. -1.
</event>
<event>
 4    1  0.3065897E+000  0.1000000E+03  0.7546771E-02  0.1280296E+00
         21   -1    0    0  503  502  0.00000000000E+00  0.00000000000E+00  0.24356952771E+03  0.24356952771E+03  0.00000000000E+00 0. -1.
         21   -1    0    0  501  503 -0.00000000000E+00 -0.00000000000E+00 -0.20324103620E+03  0.20324103620E+03  0.00000000000E+00 0. -1.
          6    1    1    2  501    0 -0.21161677696E+02 -0.64446061498E+02 -0.10270232664E+03  0.21231551837E+03  0.17300000000E+03 0. -1.
         -6    1    1    2    0  502  0.21161677696E+02  0.64446061498E+02  0.14303081815E+03  0.23449504555E+03  0.17300000000E+03 0. -1.
</event>
<event>
 4    1  0.3065897E+000  0.1000000E+03  0.7546771E-02  0.1280296E+00
         21   -1    0    0  501  502  0.00000000000E+00  0.00000000000E+00  0.19755815954E+03  0.19755815954E+03  0.00000000000E+00 0.  1.
         21   -1    0    0  502  503 -0.00000000000E+00 -0.00000000000E+00 -0.56333938217E+03  0.56333938217E+03  0.00000000000E+00 0.  1.
          6    1    1    2  501    0  0.26415486504E+03 -0.68908287386E+02 -0.27718830990E+03  0.42577987733E+03  0.17300000000E+03 0.  1.
         -6    1    1    2    0  503 -0.26415486504E+03  0.68908287386E+02 -0.88592912731E+02  0.33511766438E+03  0.17300000000E+03 0.  1.
</event>
<event>
 4    1  0.3065897E+000  0.1000000E+03  0.7546771E-02  0.1280296E+00
         21   -1    0    0  501  502  0.00000000000E+00  0.00000000000E+00  0.48809937440E+02  0.48809937440E+02  0.00000000000E+00 0. -1.
         21   -1    0    0  502  503 -0.00000000000E+00 -0.00000000000E+00 -0.71915658950E+03  0.71915658950E+03  0.00000000000E+00 0.  1.
          6    1    1    2  501    0 -0.54815605797E+02  0.37995206954E+02 -0.28000419698E+03  0.33582694460E+03  0.17300000000E+03 0. -1.
         -6    1    1    2    0  503  0.54815605797E+02 -0.37995206954E+02 -0.39034245508E+03  0.43213958234E+03  0.17300000000E+03 0.  1.
</event>
<event>
 4    1  0.3065897E+000  0.1000000E+03  0.7546771E-02  0.1280296E+00
         21   -1    0    0  503  502  0.00000000000E+00  0.00000000000E+00  0.62746990983E+03  0.62746990983E+03  0.00000000000E+00 0.  1.
         21   -1    0    0  501  503 -0.00000000000E+00 -0.00000000000E+00 -0.57575610997E+02  0.57575610997E+02  0.00000000000E+00 0. -1.
          6    1    1    2  501    0 -0.14300684389E+02  0.14589899573E+02  0.14793479154E+03  0.22854119386E+03  0.17300000000E+03 0.  1.
         -6    1    1    2    0  502  0.14300684389E+02 -0.14589899573E+02  0.42195950729E+03  0.45650432697E+03  0.17300000000E+03 0.  1.
</event>
<event>
 4    1  0.3065897E+000  0.1000000E+03  0.7546771E-02  0.1280296E+00
         21   -1    0    0  501  502  0.00000000000E+00  0.00000000000E+00  0.97087909987E+03  0.97087909987E+03  0.00000000000E+00 0.  1.
         21   -1    0    0  502  503 -0.00000000000E+00 -0.00000000000E+00 -0.56017634093E+02  0.56017634093E+02  0.00000000000E+00 0.  1.
          6    1    1    2  501    0  0.99960703352E+02  0.11950879668E+03  0.48720258099E+03  0.53997208226E+03  0.17300000000E+03 0.  1.
         -6    1    1    2    0  503 -0.99960703352E+02 -0.11950879668E+03  0.42765888479E+03  0.48692465170E+03  0.17300000000E+03 0.  1.
</event>
<event>
 4    1  0.3065897E+000  0.1000000E+03  0.7546771E-02  0.1280296E+00
         21   -1    0    0  501  502  0.00000000000E+00  0.00000000000E+00  0.10785960013E+03  0.10785960013E+03  0.00000000000E+00 0.  1.
         21   -1    0    0  502  503 -0.00000000000E+00 -0.00000000000E+00 -0.62742018708E+03  0.62742018708E+03  0.00000000000E+00 0.  1.
          6    1    1    2  501    0  0.58472318152E+02 -0.44840004370E+01  0.19739837055E+01  0.18268008885E+03  0.17300000000E+03 0.  1.
         -6    1    1    2    0  503 -0.58472318152E+02  0.44840004370E+01 -0.52153457065E+03  0.55259969836E+03  0.17300000000E+03 0.  1.
</event>
<event>
 4    1  0.3065897E+000  0.1000000E+03  0.7546771E-02  0.1280296E+00
         21   -1    0    0  503  502  0.00000000000E+00  0.00000000000E+00  0.36229939677E+03  0.36229939677E+03  0.00000000000E+00 0.  1.
         21   -1    0    0  501  503 -0.00000000000E+00 -0.00000000000E+00 -0.23792650580E+03  0.23792650580E+03  0.00000000000E+00 0.  1.
          6    1    1    2  501    0  0.39451103588E+02 -0.86668459564E+02 -0.15989796966E+03  0.25409480939E+03  0.17300000000E+03 0.  1.
         -6    1    1    2    0  502 -0.39451103588E+02  0.86668459564E+02  0.28427086063E+03  0.34613109317E+03  0.17300000000E+03 0.  1.
</event>
<event>
 4    1  0.3065897E+000  0.1000000E+03  0.7546771E-02  0.1280296E+00
         21   -1    0    0  501  502  0.00000000000E+00  0.00000000000E+00  0.20484237041E+03  0.20484237041E+03  0.00000000000E+00 0.  1.
         21   -1    0    0  502  503 -0.00000000000E+00 -0.00000000000E+00 -0.26511906445E+03  0.26511906445E+03  0.00000000000E+00 0. -1.
          6    1    1    2  501    0  0.85240293605E+02 -0.13067950486E+03 -0.36152663265E+02  0.23575210647E+03  0.17300000000E+03 0.  1.
         -6    1    1    2    0  503 -0.85240293605E+02  0.13067950486E+03 -0.24124030771E+02  0.23420932839E+03  0.17300000000E+03 0. -1.
</event>
<event>
 4    1  0.3065897E+000  0.1000000E+03  0.7546771E-02  0.1280296E+00
         21   -1    0    0  501  502  0.00000000000E+00  0.00000000000E+00  0.20375734788E+03  0.20375734788E+03  0.00000000000E+00 0.  1.
         21   -1    0    0  502  503 -0.00000000000E+00 -0.00000000000E+00 -0.18388089698E+03  0.18388089698E+03  0.00000000000E+00 0. -1.
          6    1    1    2  501    0 -0.27767830440E+02  0.39106750977E+02 -0.62529013963E+02  0.19010330867E+03  0.17300000000E+03 0.  1.
         -6    1    1    2    0  503  0.27767830440E+02 -0.39106750977E+02  0.82405464859E+02  0.19753493620E+03  0.17300000000E+03 0. -1.
</event>
<event>
 4    1  0.3065897E+000  0.1000000E+03  0.7546771E-02  0.1280296E+00
         21   -1    0    0  501  502  0.00000000000E+00  0.00000000000E+00  0.16928183773E+03  0.16928183773E+03  0.00000000000E+00 0.  1.
         21   -1    0    0  502  503 -0.00000000000E+00 -0.00000000000E+00 -0.22404688565E+03  0.22404688565E+03  0.00000000000E+00 0. -1.
          6    1    1    2  501    0  0.54526729665E+02  0.21404199509E+02  0.40860040479E+02  0.18716262157E+03  0.17300000000E+03 0.  1.
         -6    1    1    2    0  503 -0.54526729665E+02 -0.21404199509E+02 -0.95625088405E+02  0.20616610181E+03  0.17300000000E+03 0. -1.
</event>
<event>
 4    1  0.3065897E+000  0.1000000E+03  0.7546771E-02  0.1280296E+00
         21   -1    0    0  503  502  0.00000000000E+00  0.00000000000E+00  0.49550629558E+03  0.49550629558E+03  0.00000000000E+00 0. -1.
         21   -1    0    0  501  503 -0.00000000000E+00 -0.00000000000E+00 -0.67639781359E+02  0.67639781359E+02  0.00000000000E+00 0. -1.
          6    1    1    2  501    0  0.83590687179E+01  0.16876461784E+02  0.12649172612E+03  0.21513680710E+03  0.17300000000E+03 0. -1.
         -6    1    1    2    0  502 -0.83590687179E+01 -0.16876461784E+02  0.30137478810E+03  0.34800926984E+03  0.17300000000E+03 0. -1.
</event>
<event>
 4    1  0.3065897E+000  0.1000000E+03  0.7546771E-02  0.1280296E+00
         21   -1    0    0  503  502  0.00000000000E+00  0.00000000000E+00  0.24889944235E+03  0.24889944235E+03  0.00000000000E+00 0.  1.
         21   -1    0    0  501  503 -0.00000000000E+00 -0.00000000000E+00 -0.20455448928E+03  0.20455448928E+03  0.00000000000E+00 0.  1.
          6    1    1    2  501    0 -0.10255429061E+03  0.32766953483E+02 -0.75214099838E+02  0.21720316890E+03  0.17300000000E+03 0.  1.
         -6    1    1    2    0  502  0.10255429061E+03 -0.32766953483E+02  0.11955905291E+03  0.23625076274E+03  0.17300000000E+03 0.  1.
</event>
<event>
 4    1  0.3065897E+000  0.1000000E+03  0.7546771E-02  0.1280296E+00
         21   -1    0    0  503  502  0.00000000000E+00  0.00000000000E+00  0.54911844315E+02  0.54911844315E+02  0.00000000000E+00 0.  1.
         21   -1    0    0  501  503 -0.00000000000E+00 -0.00000000000E+00 -0.97075658608E+03  0.97075658608E+03  0.00000000000E+00 0.  1.
          6    1    1    2  501    0  0.30183867682E+02  0.10491067064E+03 -0.69570263481E+03  0.72515410139E+03  0.17300000000E+03 0.  1.
         -6    1    1    2    0  502 -0.30183867682E+02 -0.10491067064E+03 -0.22014210696E+03  0.30051432901E+03  0.17300000000E+03 0.  1.
</event>
<event>
 4    1  0.3065897E+000  0.1000000E+03  0.7546771E-02  0.1280296E+00
         21   -1    0    0  503  502  0.00000000000E+00  0.00000000000E+00  0.39010207148E+03  0.39010207148E+03  0.00000000000E+00 0.  1.
         21   -1    0    0  501  503 -0.00000000000E+00 -0.00000000000E+00 -0.13027708436E+03  0.13027708436E+03  0.00000000000E+00 0.  1.
          6    1    1    2  501    0 -0.54280208900E+02  0.64502763179E+02 -0.55991594911E+01  0.19252869428E+03  0.17300000000E+03 0.  1.
         -6    1    1    2    0  502  0.54280208900E+02 -0.64502763179E+02  0.26542414661E+03  0.32785046155E+03  0.17300000000E+03 0.  1.
</event>
<event>
 4    1  0.3065897E+000  0.1000000E+03  0.7546771E-02  0.1280296E+00
         21   -1    0    0  503  502  0.00000000000E+00  0.00000000000E+00  0.13588441453E+03  0.13588441453E+03  0.00000000000E+00 0.  1.
         21   -1    0    0  501  503 -0.00000000000E+00 -0.00000000000E+00 -0.37749843210E+03  0.37749843210E+03  0.00000000000E+00 0.  1.
          6    1    1    2  501    0 -0.11759564095E+03 -0.81627294263E+02 -0.15434006184E+03  0.27247312643E+03  0.17300000000E+03 0.  1.
         -6    1    1    2    0  502  0.11759564095E+03  0.81627294263E+02 -0.87273955730E+02  0.24090972020E+03  0.17300000000E+03 0.  1.
</event>
<event>
 4    1  0.3065897E+000  0.1000000E+03  0.7546771E-02  0.1280296E+00
         21   -1    0    0  501  502  0.00000000000E+00  0.00000000000E+00  0.52861768860E+03  0.52861768860E+03  0.00000000000E+00 0. -1.
         21   -1    0    0  502  503 -0.00000000000E+00 -0.00000000000E+00 -0.74694519507E+03  0.74694519507E+03  0.00000000000E+00 0. -1.
          6    1    1    2  501    0 -0.33456329158E+02 -0.64213508244E+02  0.49954961716E+03  0.53359302901E+03  0.17300000000E+03 0. -1.
         -6    1    1    2    0  503  0.33456329158E+02  0.64213508244E+02 -0.71787712363E+03  0.74196985467E+03  0.17300000000E+03 0. -1.
</event>
<event>
 4    1  0.3065897E+000  0.1000000E+03  0.7546771E-02  0.1280296E+00
         21   -1    0    0  501  502  0.00000000000E+00  0.00000000000E+00  0.11148530739E+04  0.11148530739E+04  0.00000000000E+00 0. -1.
         21   -1    0    0  502  503 -0.00000000000E+00 -0.00000000000E+00 -0.36620239914E+02  0.36620239914E+02  0.00000000000E+00 0. -1.
          6    1    1    2  501    0 -0.13125895823E+02 -0.62135979172E+02  0.77518798118E+03  0.79679268020E+03  0.17300000000E+03 0. -1.
         -6    1    1    2    0  503  0.13125895823E+02  0.62135979172E+02  0.30304485278E+03  0.35468063359E+03  0.17300000000E+03 0. -1.
</event>
<event>
 4    1  0.3065897E+000  0.1000000E+03  0.7546771E-02  0.1280296E+00
         21   -1    0    0  503  502  0.00000000000E+00  0.00000000000E+00  0.13654903879E+03  0.13654903879E+03  0.00000000000E+00 0.  1.
         21   -1    0    0  501  503 -0.00000000000E+00 -0.00000000000E+00 -0.27296379976E+03  0.27296379976E+03  0.00000000000E+00 0. -1.
          6    1    1    2  501    0 -0.17117044199E+02 -0.58920017973E+02 -0.13165929726E+03  0.22589318776E+03  0.17300000000E+03 0.  1.
         -6    1    1    2    0  502  0.17117044199E+02  0.58920017973E+02 -0.47554637110E+01  0.18361965079E+03  0.17300000000E+03 0. -1.
</event>
<event>
 4    1  0.3065897E+000  0.1000000E+03  0.7546771E-02  0.1280296E+00
         21   -1    0    0  503  502  0.00000000000E+00  0.00000000000E+00  0.11698748649E+03  0.11698748649E+03  0.00000000000E+00 0.  1.
         21   -1    0    0  501  503 -0.00000000000E+00 -0.00000000000E+00 -0.52436483774E+03  0.52436483774E+03  0.00000000000E+00 0. -1.
          6    1    1    2  501    0  0.14462486894E+02 -0.15563950733E+03 -0.31187679882E+03  0.38939563096E+03  0.17300000000E+03 0.  1.
         -6    1    1    2    0  502 -0.14462486894E+02  0.15563950733E+03 -0.95500552426E+02  0.25195669327E+03  0.17300000000E+03 0. -1.
</event>
<event>
 4    1  0.3065897E+000  0.1000000E+03  0.7546771E-02  0.1280296E+00
         21   -1    0    0  503  502  0.00000000000E+00  0.00000000000E+00  0.72680193332E+03  0.72680193332E+03  0.00000000000E+00 0.  1.
         21   -1    0    0  501  503 -0.00000000000E+00 -0.00000000000E+00 -0.42826209744E+03  0.42826209744E+03  0.00000000000E+00 0. -1.
          6    1    1    2  501    0 -0.25932971139E+03 -0.10506347102E+03 -0.31718177214E+03  0.45697210935E+03  0.17300000000E+03 0.  1.
         -6    1    1    2    0  502  0.25932971139E+03  0.10506347102E+03  0.61572160802E+03  0.69809192141E+03  0.17300000000E+03 0. -1.
</event>
<event>
 4    1  0.3065897E+000  0.1000000E+03  0.7546771E-02  0.1280296E+00
         21   -1    0    0  503  502  0.00000000000E+00  0.00000000000E+00  0.84477331765E+03  0.84477331765E+03  0.00000000000E+00 0. -1.
         21   -1    0    0  501  503 -0.00000000000E+00 -0.00000000000E+00 -0.58791957364E+02  0.58791957364E+02  0.00000000000E+00 0. -1.
          6    1    1    2  501    0  0.11831740616E+02 -0.88298943000E+02  0.17277671223E+03  0.26022583598E+03  0.17300000000E+03 0. -1.
         -6    1    1    2    0  502 -0.11831740616E+02  0.88298943000E+02  0.61320464806E+03  0.64333943904E+03  0.17300000000E+03 0. -1.
</event>
<event>
 4    1  0.3065897E+000  0.1000000E+03  0.7546771E-02  0.1280296E+00
         21   -1    0    0  501  502  0.00000000000E+00  0.00000000000E+00  0.52293345761E+03  0.52293345761E+03  0.00000000000E+00 0.  1.
         21   -1    0    0  502  503 -0.00000000000E+00 -0.00000000000E+00 -0.13810605132E+03  0.13810605132E+03  0.00000000000E+00 0.  1.
          6    1    1    2  501    0 -0.19758995542E+03 -0.56327078864E+02  0.18163933353E+03  0.32424740212E+03  0.17300000000E+03 0.  1.
         -6    1    1    2    0  503  0.19758995542E+03  0.56327078864E+02  0.20318807276E+03  0.33679210681E+03  0.17300000000E+03 0.  1.
</event>
<event>
 4    1  0.3065897E+000  0.1000000E+03  0.7546771E-02  0.1280296E+00
         21   -1    0    0  503  502  0.00000000000E+00  0.00000000000E+00  0.17037105306E+03  0.17037105306E+03  0.00000000000E+00 0. -1.
         21   -1    0    0  501  503 -0.00000000000E+00 -0.00000000000E+00 -0.27034234210E+03  0.27034234210E+03  0.00000000000E+00 0.  1.
          6    1    1    2  501    0  0.51042313525E+02  0.17920949126E+02 -0.16796557666E+03  0.24711922857E+03  0.17300000000E+03 0.  1.
         -6    1    1    2    0  502 -0.51042313525E+02 -0.17920949126E+02  0.67994287621E+02  0.19359416659E+03  0.17300000000E+03 0. -1.
</event>
<event>
 4    1  0.3065897E+000  0.1000000E+03  0.7546771E-02  0.1280296E+00
         21   -1    0    0  503  502  0.00000000000E+00  0.00000000000E+00  0.61795761648E+02  0.61795761648E+02  0.00000000000E+00 0. -1.
         21   -1    0    0  501  503 -0.00000000000E+00 -0.00000000000E+00 -0.12446522548E+04  0.12446522548E+04  0.00000000000E+00 0.  1.
          6    1    1    2  501    0  0.46151831033E+02  0.43804609965E+02 -0.10794864152E+04  0.10951112985E+04  0.17300000000E+03 0.  1.
         -6    1    1    2    0  502 -0.46151831033E+02 -0.43804609965E+02 -0.10337007794E+03  0.21133671800E+03  0.17300000000E+03 0. -1.
</event>
<event>
 4    1  0.3065897E+000  0.1000000E+03  0.7546771E-02  0.1280296E+00
         21   -1    0    0  503  502  0.00000000000E+00  0.00000000000E+00  0.12741399665E+04  0.12741399665E+04  0.00000000000E+00 0. -1.
         21   -1    0    0  501  503 -0.00000000000E+00 -0.00000000000E+00 -0.42390699602E+02  0.42390699602E+02  0.00000000000E+00 0.  1.
          6    1    1    2  501    0  0.18520212430E+02  0.40065995607E+02  0.19447803836E+03  0.26400566220E+03  0.17300000000E+03 0.  1.
         -6    1    1    2    0  502 -0.18520212430E+02 -0.40065995607E+02  0.10372712285E+04  0.10525250039E+04  0.17300000000E+03 0. -1.
</event>
<event>
 4    1  0.3065897E+000  0.1000000E+03  0.7546771E-02  0.1280296E+00
         21   -1    0    0  501  502  0.00000000000E+00  0.00000000000E+00  0.14697234314E+03  0.14697234314E+03  0.00000000000E+00 0.  1.
         21   -1    0    0  502  503 -0.00000000000E+00 -0.00000000000E+00 -0.63223036330E+03  0.63223036330E+03  0.00000000000E+00 0.  1.
          6    1    1    2  501    0  0.49093967771E+02  0.13757945898E+03  0.18219518249E+02  0.22715474032E+03  0.17300000000E+03 0.  1.
         -6    1    1    2    0  503 -0.49093967771E+02 -0.13757945898E+03 -0.50347753841E+03  0.55204796611E+03  0.17300000000E+03 0.  1.
</event>
<event>
 4    1  0.3065897E+000  0.1000000E+03  0.7546771E-02  0.1280296E+00
         21   -1    0    0  501  502  0.00000000000E+00  0.00000000000E+00  0.21537147172E+04  0.21537147172E+04  0.00000000000E+00 0. -1.
         21   -1    0    0  502  503 -0.00000000000E+00 -0.00000000000E+00 -0.82436861315E+02  0.82436861315E+02  0.00000000000E+00 0. -1.
          6    1    1    2  501    0 -0.97817220642E+01  0.31295594322E+02  0.20514117239E+04  0.20589546273E+04  0.17300000000E+03 0. -1.
         -6    1    1    2    0  503  0.97817220642E+01 -0.31295594322E+02  0.19866131952E+02  0.17719695118E+03  0.17300000000E+03 0. -1.
</event>
<event>
 4    1  0.3065897E+000  0.1000000E+03  0.7546771E-02  0.1280296E+00
         21   -1    0    0  501  502  0.00000000000E+00  0.00000000000E+00  0.15760757762E+03  0.15760757762E+03  0.00000000000E+00 0. -1.
         21   -1    0    0  502  503 -0.00000000000E+00 -0.00000000000E+00 -0.75858532413E+03  0.75858532413E+03  0.00000000000E+00 0. -1.
          6    1    1    2  501    0  0.72488653775E+02  0.95966841043E+02  0.62736014737E+02  0.21983868415E+03  0.17300000000E+03 0. -1.
         -6    1    1    2    0  503 -0.72488653775E+02 -0.95966841043E+02 -0.66371376124E+03  0.69635421760E+03  0.17300000000E+03 0. -1.
</event>
<event>
 4    1  0.3065897E+000  0.1000000E+03  0.7546771E-02  0.1280296E+00
         21   -1    0    0  501  502  0.00000000000E+00  0.00000000000E+00  0.19730043259E+03  0.19730043259E+03  0.00000000000E+00 0.  1.
         21   -1    0    0  502  503 -0.00000000000E+00 -0.00000000000E+00 -0.47077063001E+03  0.47077063001E+03  0.00000000000E+00 0.  1.
          6    1    1    2  501    0 -0.47614507397E+02  0.56739552600E+02  0.12601082705E+03  0.22648233193E+03  0.17300000000E+03 0.  1.
         -6    1    1    2    0  503  0.47614507397E+02 -0.56739552600E+02 -0.39948102446E+03  0.44158873067E+03  0.17300000000E+03 0.  1.
</event>
<event>
 4    1  0.3065897E+000  0.1000000E+03  0.7546771E-02  0.1280296E+00
         21   -1    0    0  501  502  0.00000000000E+00  0.00000000000E+00  0.10802914794E+03  0.10802914794E+03  0.00000000000E+00 0.  1.
         21   -1    0    0  502  503 -0.00000000000E+00 -0.00000000000E+00 -0.22726380089E+04  0.22726380089E+04  0.00000000000E+00 0.  1.
          6    1    1    2  501    0 -0.11980726607E+03 -0.33153362999E+03 -0.35636342338E+03  0.53027560602E+03  0.17300000000E+03 0.  1.
         -6    1    1    2    0  503  0.11980726607E+03  0.33153362999E+03 -0.18082454376E+04  0.18503915508E+04  0.17300000000E+03 0.  1.
</event>
<event>
 4    1  0.3065897E+000  0.1000000E+03  0.7546771E-02  0.1280296E+00
         21   -1    0    0  503  502  0.00000000000E+00  0.00000000000E+00  0.18808162484E+03  0.18808162484E+03  0.00000000000E+00 0.  1.
         21   -1    0    0  501  503 -0.00000000000E+00 -0.00000000000E+00 -0.42955013971E+03  0.42955013971E+03  0.00000000000E+00 0. -1.
          6    1    1    2  501    0  0.18941569456E+03 -0.58000780266E+02 -0.23784739431E+03  0.35460228261E+03  0.17300000000E+03 0. -1.
         -6    1    1    2    0  502 -0.18941569456E+03  0.58000780266E+02 -0.36211205634E+01  0.26302948194E+03  0.17300000000E+03 0.  1.
</event>
<event>
 4    1  0.3065897E+000  0.1000000E+03  0.7546771E-02  0.1280296E+00
         21   -1    0    0  501  502  0.00000000000E+00  0.00000000000E+00  0.31471234648E+03  0.31471234648E+03  0.00000000000E+00 0. -1.
         21   -1    0    0  502  503 -0.00000000000E+00 -0.00000000000E+00 -0.39463619829E+03  0.39463619829E+03  0.00000000000E+00 0.  1.
          6    1    1    2  501    0 -0.23601320692E+03  0.16020981523E+03  0.74337317404E+02  0.34179592668E+03  0.17300000000E+03 0. -1.
         -6    1    1    2    0  503  0.23601320692E+03 -0.16020981523E+03 -0.15426116922E+03  0.36755261809E+03  0.17300000000E+03 0. -1.
</event>
<event>
 4    1  0.3065897E+000  0.1000000E+03  0.7546771E-02  0.1280296E+00
         21   -1    0    0  501  502  0.00000000000E+00  0.00000000000E+00  0.18057511767E+04  0.18057511767E+04  0.00000000000E+00 0. -1.
         21   -1    0    0  502  503 -0.00000000000E+00 -0.00000000000E+00 -0.60299699751E+02  0.60299699751E+02  0.00000000000E+00 0.  1.
          6    1    1    2  501    0  0.26636964504E+03 -0.67183836404E+02  0.10397845250E+04  0.10892875259E+04  0.17300000000E+03 0. -1.
         -6    1    1    2    0  503 -0.26636964504E+03  0.67183836404E+02  0.70566695199E+03  0.77676335058E+03  0.17300000000E+03 0. -1.
</event>
<event>
 4    1  0.3065897E+000  0.1000000E+03  0.7546771E-02  0.1280296E+00
         21   -1    0    0  503  502  0.00000000000E+00  0.00000000000E+00  0.16955705569E+03  0.16955705569E+03  0.00000000000E+00 0. -1.
         21   -1    0    0  501  503 -0.00000000000E+00 -0.00000000000E+00 -0.58597895761E+03  0.58597895761E+03  0.00000000000E+00 0. -1.
          6    1    1    2  501    0  0.15979768229E+03 -0.12652674612E+02 -0.45883819041E+03  0.51590393914E+03  0.17300000000E+03 0. -1.
         -6    1    1    2    0  502 -0.15979768229E+03  0.12652674612E+02  0.42416288484E+02  0.23963207416E+03  0.17300000000E+03 0. -1.
</event>
<event>
 4    1  0.3065897E+000  0.1000000E+03  0.7546771E-02  0.1280296E+00
         21   -1    0    0  503  502  0.00000000000E+00  0.00000000000E+00  0.61793274196E+03  0.61793274196E+03  0.00000000000E+00 0.  1.
         21   -1    0    0  501  503 -0.00000000000E+00 -0.00000000000E+00 -0.69193214820E+02  0.69193214820E+02  0.00000000000E+00 0.  1.
          6    1    1    2  501    0  0.49673130140E+02 -0.14623679713E+02  0.44173363988E+03  0.47721994978E+03  0.17300000000E+03 0. -1.
         -6    1    1    2    0  502 -0.49673130140E+02  0.14623679713E+02  0.10700588726E+03  0.20990600700E+03  0.17300000000E+03 0. -1.
</event>
<event>
 4    1  0.3065897E+000  0.1000000E+03  0.7546771E-02  0.1280296E+00
         21   -1    0    0  503  502  0.00000000000E+00  0.00000000000E+00  0.86501019806E+03  0.86501019806E+03  0.00000000000E+00 0.  1.
         21   -1    0    0  501  503 -0.00000000000E+00 -0.00000000000E+00 -0.44120070508E+02  0.44120070508E+02  0.00000000000E+00 0.  1.
          6    1    1    2  501    0  0.77485759992E+01 -0.57559848494E+02  0.24819649066E+03  0.30806440003E+03  0.17300000000E+03 0. -1.
         -6    1    1    2    0  502 -0.77485759992E+01  0.57559848494E+02  0.57269363689E+03  0.60106586854E+03  0.17300000000E+03 0. -1.
</event>
<event>
 4    1  0.3065897E+000  0.1000000E+03  0.7546771E-02  0.1280296E+00
         21   -1    0    0  503  502  0.00000000000E+00  0.00000000000E+00  0.38877821049E+02  0.38877821049E+02  0.00000000000E+00 0.  1.
         21   -1    0    0  501  503 -0.00000000000E+00 -0.00000000000E+00 -0.10373765381E+04  0.10373765381E+04  0.00000000000E+00 0.  1.
          6    1    1    2  501    0 -0.54558237607E+02 -0.86077837838E+02 -0.48854985268E+03  0.52820067589E+03  0.17300000000E+03 0. -1.
         -6    1    1    2    0  502  0.54558237607E+02  0.86077837838E+02 -0.50994886433E+03  0.54805368322E+03  0.17300000000E+03 0. -1.
</event>
<event>
 4    1  0.3065897E+000  0.1000000E+03  0.7546771E-02  0.1280296E+00
         21   -1    0    0  501  502  0.00000000000E+00  0.00000000000E+00  0.80737054792E+03  0.80737054792E+03  0.00000000000E+00 0. -1.
         21   -1    0    0  502  503 -0.00000000000E+00 -0.00000000000E+00 -0.99145652497E+02  0.99145652497E+02  0.00000000000E+00 0.  1.
          6    1    1    2  501    0 -0.37523212091E+02  0.31642879485E+02  0.70403547033E+03  0.72663897965E+03  0.17300000000E+03 0.  1.
         -6    1    1    2    0  503  0.37523212091E+02 -0.31642879485E+02  0.41894250951E+01  0.17987722077E+03  0.17300000000E+03 0. -1.
</event>
<event>
 4    1  0.3065897E+000  0.1000000E+03  0.7546771E-02  0.1280296E+00
         21   -1    0    0  501  502  0.00000000000E+00  0.00000000000E+00  0.16570562697E+03  0.16570562697E+03  0.00000000000E+00 0. -1.
         21   -1    0    0  502  503 -0.00000000000E+00 -0.00000000000E+00 -0.41650900243E+03  0.41650900243E+03  0.00000000000E+00 0.  1.
          6    1    1    2  501    0  0.56824692329E+02 -0.18734158884E+02  0.83403231452E+02  0.20115942281E+03  0.17300000000E+03 0.  1.
         -6    1    1    2    0  503 -0.56824692329E+02  0.18734158884E+02 -0.33420660691E+03  0.38105520659E+03  0.17300000000E+03 0. -1.
</event>
<event>
 4    1  0.3065897E+000  0.1000000E+03  0.7546771E-02  0.1280296E+00
         21   -1    0    0  503  502  0.00000000000E+00  0.00000000000E+00  0.60768624908E+02  0.60768624908E+02  0.00000000000E+00 0.  1.
         21   -1    0    0  501  503 -0.00000000000E+00 -0.00000000000E+00 -0.13863096852E+04  0.13863096852E+04  0.00000000000E+00 0. -1.
          6    1    1    2  501    0 -0.40399212000E+02 -0.38924326769E+02 -0.12266563129E+04  0.12400652844E+04  0.17300000000E+03 0.  1.
         -6    1    1    2    0  502  0.40399212000E+02  0.38924326769E+02 -0.98884747344E+02  0.20701302568E+03  0.17300000000E+03 0.  1.
</event>
<event>
 4    1  0.3065897E+000  0.1000000E+03  0.7546771E-02  0.1280296E+00
         21   -1    0    0  501  502  0.00000000000E+00  0.00000000000E+00  0.89437117666E+03  0.89437117666E+03  0.00000000000E+00 0. -1.
         21   -1    0    0  502  503 -0.00000000000E+00 -0.00000000000E+00 -0.10042921439E+03  0.10042921439E+03  0.00000000000E+00 0.  1.
          6    1    1    2  501    0 -0.16897962373E+02  0.23130721810E+03  0.26731164150E+03  0.39392014922E+03  0.17300000000E+03 0.  1.
         -6    1    1    2    0  503  0.16897962373E+02 -0.23130721810E+03  0.52663032076E+03  0.60088024183E+03  0.17300000000E+03 0. -1.
</event>
<event>
 4    1  0.3065897E+000  0.1000000E+03  0.7546771E-02  0.1280296E+00
         21   -1    0    0  503  502  0.00000000000E+00  0.00000000000E+00  0.22661800175E+02  0.22661800175E+02  0.00000000000E+00 0.  1.
         21   -1    0    0  501  503 -0.00000000000E+00 -0.00000000000E+00 -0.19446165770E+04  0.19446165770E+04  0.00000000000E+00 0.  1.
          6    1    1    2  501    0  0.92826976386E+02 -0.36863014707E+02 -0.12633313519E+04  0.12790273000E+04  0.17300000000E+03 0. -1.
         -6    1    1    2    0  502 -0.92826976386E+02  0.36863014707E+02 -0.65862342488E+03  0.68825107715E+03  0.17300000000E+03 0. -1.
</event>
<event>
 4    1  0.3065897E+000  0.1000000E+03  0.7546771E-02  0.1280296E+00
         21   -1    0    0  503  502  0.00000000000E+00  0.00000000000E+00  0.18951553547E+03  0.18951553547E+03  0.00000000000E+00 0.  1.
         21   -1    0    0  501  503 -0.00000000000E+00 -0.00000000000E+00 -0.24486123035E+03  0.24486123035E+03  0.00000000000E+00 0.  1.
          6    1    1    2  501    0 -0.29735193490E+02 -0.12230547502E+03 -0.53043014724E+02  0.22042089820E+03  0.17300000000E+03 0. -1.
         -6    1    1    2    0  502  0.29735193490E+02  0.12230547502E+03 -0.23026801541E+01  0.21395586762E+03  0.17300000000E+03 0. -1.
</event>
<event>
 4    1  0.3065897E+000  0.1000000E+03  0.7546771E-02  0.1280296E+00
         21   -1    0    0  501  502  0.00000000000E+00  0.00000000000E+00  0.40151799104E+02  0.40151799104E+02  0.00000000000E+00 0. -1.
         21   -1    0    0  502  503 -0.00000000000E+00 -0.00000000000E+00 -0.13221919980E+04  0.13221919980E+04  0.00000000000E+00 0. -1.
          6    1    1    2  501    0  0.33398835215E+02 -0.72544790172E+02 -0.25804730098E+03  0.32077350002E+03  0.17300000000E+03 0. -1.
         -6    1    1    2    0  503 -0.33398835215E+02  0.72544790172E+02 -0.10239928979E+04  0.10415702971E+04  0.17300000000E+03 0. -1.
</event>
<event>
 4    1  0.3065897E+000  0.1000000E+03  0.7546771E-02  0.1280296E+00
         21   -1    0    0  501  502  0.00000000000E+00  0.00000000000E+00  0.16328530248E+03  0.16328530248E+03  0.00000000000E+00 0. -1.
         21   -1    0    0  502  503 -0.00000000000E+00 -0.00000000000E+00 -0.39041981798E+03  0.39041981798E+03  0.00000000000E+00 0. -1.
          6    1    1    2  501    0 -0.47990157619E+02  0.16273226148E+03 -0.35754500393E+02  0.24493311016E+03  0.17300000000E+03 0. -1.
         -6    1    1    2    0  503  0.47990157619E+02 -0.16273226148E+03 -0.19138001511E+03  0.30877201029E+03  0.17300000000E+03 0. -1.
</event>
<event>
 4    1  0.3065897E+000  0.1000000E+03  0.7546771E-02  0.1280296E+00
         21   -1    0    0  501  502  0.00000000000E+00  0.00000000000E+00  0.72928299004E+02  0.72928299004E+02  0.00000000000E+00 0. -1.
         21   -1    0    0  502  503 -0.00000000000E+00 -0.00000000000E+00 -0.12139780095E+04  0.12139780095E+04  0.00000000000E+00 0. -1.
          6    1    1    2  501    0  0.11541410553E+03 -0.22471157385E+02 -0.11290949537E+03  0.23770343459E+03  0.17300000000E+03 0. -1.
         -6    1    1    2    0  503 -0.11541410553E+03  0.22471157385E+02 -0.10281402152E+04  0.10492028740E+04  0.17300000000E+03 0. -1.
</event>
<event>
 4    1  0.3065897E+000  0.1000000E+03  0.7546771E-02  0.1280296E+00
         21   -1    0    0  503  502  0.00000000000E+00  0.00000000000E+00  0.67594202260E+02  0.67594202260E+02  0.00000000000E+00 0. -1.
         21   -1    0    0  501  503 -0.00000000000E+00 -0.00000000000E+00 -0.53915246852E+03  0.53915246852E+03  0.00000000000E+00 0. -1.
          6    1    1    2  501    0  0.53484952806E+02  0.59480006518E+02 -0.25290001886E+03  0.31667953974E+03  0.17300000000E+03 0. -1.
         -6    1    1    2    0  502 -0.53484952806E+02 -0.59480006518E+02 -0.21865824740E+03  0.29006713103E+03  0.17300000000E+03 0. -1.
</event>
<event>
 4    1  0.3065897E+000  0.1000000E+03  0.7546771E-02  0.1280296E+00
         21   -1    0    0  503  502  0.00000000000E+00  0.00000000000E+00  0.25547043622E+03  0.25547043622E+03  0.00000000000E+00 0. -1.
         21   -1    0    0  501  503 -0.00000000000E+00 -0.00000000000E+00 -0.28994135263E+03  0.28994135263E+03  0.00000000000E+00 0. -1.
          6    1    1    2  501    0 -0.45787296990E+02 -0.12895373856E+03 -0.17698161371E+03  0.28280211252E+03  0.17300000000E+03 0. -1.
         -6    1    1    2    0  502  0.45787296990E+02  0.12895373856E+03  0.14251069730E+03  0.26260967632E+03  0.17300000000E+03 0. -1.
</event>
<event>
 4    1  0.3065897E+000  0.1000000E+03  0.7546771E-02  0.1280296E+00
         21   -1    0    0  503  502  0.00000000000E+00  0.00000000000E+00  0.12309492735E+03  0.12309492735E+03  0.00000000000E+00 0. -1.
         21   -1    0    0  501  503 -0.00000000000E+00 -0.00000000000E+00 -0.55370776234E+03  0.55370776234E+03  0.00000000000E+00 0. -1.
          6    1    1    2  501    0 -0.17647725009E+03 -0.20318931147E+02 -0.32118722007E+03  0.40576755550E+03  0.17300000000E+03 0. -1.
         -6    1    1    2    0  502  0.17647725009E+03  0.20318931147E+02 -0.10942561492E+03  0.27103513418E+03  0.17300000000E+03 0. -1.
</event>
<event>
 4    1  0.3065897E+000  0.1000000E+03  0.7546771E-02  0.1280296E+00
         21   -1    0    0  503  502  0.00000000000E+00  0.00000000000E+00  0.13987665838E+03  0.13987665838E+03  0.00000000000E+00 0. -1.
         21   -1    0    0  501  503 -0.00000000000E+00 -0.00000000000E+00 -0.42564037103E+03  0.42564037103E+03  0.00000000000E+00 0. -1.
          6    1    1    2  501    0 -0.41707404750E+02 -0.10316364708E+03 -0.29497607668E+03  0.35961386445E+03  0.17300000000E+03 0. -1.
         -6    1    1    2    0  502  0.41707404750E+02  0.10316364708E+03  0.92123640264E+01  0.20590316496E+03  0.17300000000E+03 0. -1.
</event>
<event>
 4    1  0.3065897E+000  0.1000000E+03  0.7546771E-02  0.1280296E+00
         21   -1    0    0  503  502  0.00000000000E+00  0.00000000000E+00  0.27824825730E+03  0.27824825730E+03  0.00000000000E+00 0. -1.
         21   -1    0    0  501  503 -0.00000000000E+00 -0.00000000000E+00 -0.17937081627E+03  0.17937081627E+03  0.00000000000E+00 0. -1.
          6    1    1    2  501    0  0.68151911709E+02  0.11901548388E+03  0.14387226071E+02  0.22123598429E+03  0.17300000000E+03 0. -1.
         -6    1    1    2    0  502 -0.68151911709E+02 -0.11901548388E+03  0.84490214955E+02  0.23638308928E+03  0.17300000000E+03 0. -1.
</event>
<event>
 4    1  0.3065897E+000  0.1000000E+03  0.7546771E-02  0.1280296E+00
         21   -1    0    0  501  502  0.00000000000E+00  0.00000000000E+00  0.25468143802E+03  0.25468143802E+03  0.00000000000E+00 0.  1.
         21   -1    0    0  502  503 -0.00000000000E+00 -0.00000000000E+00 -0.24123440343E+03  0.24123440343E+03  0.00000000000E+00 0.  1.
          6    1    1    2  501    0  0.14154441252E+03 -0.59621588873E+02  0.95747094067E+02  0.25037184466E+03  0.17300000000E+03 0.  1.
         -6    1    1    2    0  503 -0.14154441252E+03  0.59621588873E+02 -0.82300059475E+02  0.24554399680E+03  0.17300000000E+03 0.  1.
</event>
<event>
 4    1  0.3065897E+000  0.1000000E+03  0.7546771E-02  0.1280296E+00
         21   -1    0    0  503  502  0.00000000000E+00  0.00000000000E+00  0.25527916664E+03  0.25527916664E+03  0.00000000000E+00 0. -1.
         21   -1    0    0  501  503 -0.00000000000E+00 -0.00000000000E+00 -0.13727190446E+03  0.13727190446E+03  0.00000000000E+00 0. -1.
          6    1    1    2  501    0 -0.18774635780E+02 -0.46745216099E+01 -0.13177824929E+02  0.17457661118E+03  0.17300000000E+03 0. -1.
         -6    1    1    2    0  502  0.18774635780E+02  0.46745216099E+01  0.13118508711E+03  0.21797445993E+03  0.17300000000E+03 0. -1.
</event>
<event>
 4    1  0.3065897E+000  0.1000000E+03  0.7546771E-02  0.1280296E+00
         21   -1    0    0  503  502  0.00000000000E+00  0.00000000000E+00  0.13911240581E+03  0.13911240581E+03  0.00000000000E+00 0. -1.
         21   -1    0    0  501  503 -0.00000000000E+00 -0.00000000000E+00 -0.33912301676E+03  0.33912301676E+03  0.00000000000E+00 0. -1.
          6    1    1    2  501    0 -0.94213433460E+02  0.58985500303E+02 -0.17700387951E+03  0.27132053673E+03  0.17300000000E+03 0. -1.
         -6    1    1    2    0  502  0.94213433460E+02 -0.58985500303E+02 -0.23006731445E+02  0.20691488584E+03  0.17300000000E+03 0. -1.
</event>
<event>
 4    1  0.3065897E+000  0.1000000E+03  0.7546771E-02  0.1280296E+00
         21   -1    0    0  503  502  0.00000000000E+00  0.00000000000E+00  0.31904572571E+03  0.31904572571E+03  0.00000000000E+00 0. -1.
         21   -1    0    0  501  503 -0.00000000000E+00 -0.00000000000E+00 -0.12437444389E+03  0.12437444389E+03  0.00000000000E+00 0. -1.
          6    1    1    2  501    0 -0.26242702875E+01  0.77559792860E+02  0.29363351673E+02  0.19186874338E+03  0.17300000000E+03 0. -1.
         -6    1    1    2    0  502  0.26242702875E+01 -0.77559792860E+02  0.16530793015E+03  0.25155142622E+03  0.17300000000E+03 0. -1.
</event>
<event>
 4    1  0.3065897E+000  0.1000000E+03  0.7546771E-02  0.1280296E+00
         21   -1    0    0  501  502  0.00000000000E+00  0.00000000000E+00  0.43818208363E+03  0.43818208363E+03  0.00000000000E+00 0. -1.
         21   -1    0    0  502  503 -0.00000000000E+00 -0.00000000000E+00 -0.81639482856E+02  0.81639482856E+02  0.00000000000E+00 0. -1.
          6    1    1    2  501    0  0.37817178920E+02  0.25772860623E+02  0.94124396508E+02  0.20219490939E+03  0.17300000000E+03 0. -1.
         -6    1    1    2    0  503 -0.37817178920E+02 -0.25772860623E+02  0.26241820426E+03  0.31762665709E+03  0.17300000000E+03 0. -1.
</event>
<event>
 4    1  0.3065897E+000  0.1000000E+03  0.7546771E-02  0.1280296E+00
         21   -1    0    0  501  502  0.00000000000E+00  0.00000000000E+00  0.22003596271E+02  0.22003596271E+02  0.00000000000E+00 0. -1.
         21   -1    0    0  502  503 -0.00000000000E+00 -0.00000000000E+00 -0.23244660017E+04  0.23244660017E+04  0.00000000000E+00 0. -1.
          6    1    1    2  501    0  0.11451844571E+03  0.46109884910E+02 -0.75016257149E+03  0.77968806555E+03  0.17300000000E+03 0. -1.
         -6    1    1    2    0  503 -0.11451844571E+03 -0.46109884910E+02 -0.15522998339E+04  0.15667815324E+04  0.17300000000E+03 0. -1.
</event>
<event>
 4    1  0.3065897E+000  0.1000000E+03  0.7546771E-02  0.1280296E+00
         21   -1    0    0  503  502  0.00000000000E+00  0.00000000000E+00  0.73074322260E+02  0.73074322260E+02  0.00000000000E+00 0.  1.
         21   -1    0    0  501  503 -0.00000000000E+00 -0.00000000000E+00 -0.90815851972E+03  0.90815851972E+03  0.00000000000E+00 0.  1.
          6    1    1    2  501    0  0.76929695431E+02 -0.16441349357E+03 -0.52995696475E+03  0.58628777865E+03  0.17300000000E+03 0.  1.
         -6    1    1    2    0  502 -0.76929695431E+02  0.16441349357E+03 -0.30512723271E+03  0.39494506333E+03  0.17300000000E+03 0.  1.
</event>
<event>
 4    1  0.3065897E+000  0.1000000E+03  0.7546771E-02  0.1280296E+00
         21   -1    0    0  503  502  0.00000000000E+00  0.00000000000E+00  0.23323093509E+04  0.23323093509E+04  0.00000000000E+00 0.  1.
         21   -1    0    0  501  503 -0.00000000000E+00 -0.00000000000E+00 -0.26567091056E+02  0.26567091056E+02  0.00000000000E+00 0.  1.
          6    1    1    2  501    0  0.94162145529E+02 -0.12622217020E+03  0.74984495026E+03  0.78549028978E+03  0.17300000000E+03 0.  1.
         -6    1    1    2    0  502 -0.94162145529E+02  0.12622217020E+03  0.15558973096E+04  0.15733861522E+04  0.17300000000E+03 0.  1.
</event>
<event>
 4    1  0.3065897E+000  0.1000000E+03  0.7546771E-02  0.1280296E+00
         21   -1    0    0  501  502  0.00000000000E+00  0.00000000000E+00  0.18834768280E+03  0.18834768280E+03  0.00000000000E+00 0. -1.
         21   -1    0    0  502  503 -0.00000000000E+00 -0.00000000000E+00 -0.35788540181E+03  0.35788540181E+03  0.00000000000E+00 0. -1.
          6    1    1    2  501    0 -0.32926271730E+02 -0.17902584694E+01  0.11590469038E+03  0.21083225951E+03  0.17300000000E+03 0. -1.
         -6    1    1    2    0  503  0.32926271730E+02  0.17902584694E+01 -0.28544240939E+03  0.33540082510E+03  0.17300000000E+03 0. -1.
</event>
<event>
 4    1  0.3065897E+000  0.1000000E+03  0.7546771E-02  0.1280296E+00
         21   -1    0    0  501  502  0.00000000000E+00  0.00000000000E+00  0.92059284082E+02  0.92059284082E+02  0.00000000000E+00 0. -1.
         21   -1    0    0  502  503 -0.00000000000E+00 -0.00000000000E+00 -0.76063354498E+03  0.76063354498E+03  0.00000000000E+00 0.  1.
          6    1    1    2  501    0  0.58154583668E+02 -0.53600197949E+01 -0.25700139712E+02  0.18439138428E+03  0.17300000000E+03 0.  1.
         -6    1    1    2    0  503 -0.58154583668E+02  0.53600197949E+01 -0.64287412119E+03  0.66830144479E+03  0.17300000000E+03 0. -1.
</event>
<event>
 4    1  0.3065897E+000  0.1000000E+03  0.7546771E-02  0.1280296E+00
         21   -1    0    0  503  502  0.00000000000E+00  0.00000000000E+00  0.14220973177E+04  0.14220973177E+04  0.00000000000E+00 0. -1.
         21   -1    0    0  501  503 -0.00000000000E+00 -0.00000000000E+00 -0.31027089713E+02  0.31027089713E+02  0.00000000000E+00 0.  1.
          6    1    1    2  501    0 -0.10665939901E+03 -0.42086021178E+02  0.58360997190E+03  0.61941670940E+03  0.17300000000E+03 0.  1.
         -6    1    1    2    0  502  0.10665939901E+03  0.42086021178E+02  0.80746025611E+03  0.83370769804E+03  0.17300000000E+03 0.  1.
</event>
<event>
 4    1  0.3065897E+000  0.1000000E+03  0.7546771E-02  0.1280296E+00
         21   -1    0    0  503  502  0.00000000000E+00  0.00000000000E+00  0.64600356305E+02  0.64600356305E+02  0.00000000000E+00 0. -1.
         21   -1    0    0  501  503 -0.00000000000E+00 -0.00000000000E+00 -0.13792077574E+04  0.13792077574E+04  0.00000000000E+00 0.  1.
          6    1    1    2  501    0  0.42627773840E+02  0.13451004294E+03 -0.11364990103E+04  0.11582180620E+04  0.17300000000E+03 0.  1.
         -6    1    1    2    0  502 -0.42627773840E+02 -0.13451004294E+03 -0.17810839079E+03  0.28559005169E+03  0.17300000000E+03 0.  1.
</event>
<event>
 4    1  0.3065897E+000  0.1000000E+03  0.7546771E-02  0.1280296E+00
         21   -1    0    0  501  502  0.00000000000E+00  0.00000000000E+00  0.66683576879E+02  0.66683576879E+02  0.00000000000E+00 0. -1.
         21   -1    0    0  502  503 -0.00000000000E+00 -0.00000000000E+00 -0.63023359835E+03  0.63023359835E+03  0.00000000000E+00 0. -1.
          6    1    1    2  501    0 -0.32584278151E+02 -0.51341109394E+02 -0.12599207260E+03  0.22248740876E+03  0.17300000000E+03 0. -1.
         -6    1    1    2    0  503  0.32584278151E+02  0.51341109394E+02 -0.43755794887E+03  0.47442976648E+03  0.17300000000E+03 0. -1.
</event>
<event>
 4    1  0.3065897E+000  0.1000000E+03  0.7546771E-02  0.1280296E+00
         21   -1    0    0  503  502  0.00000000000E+00  0.00000000000E+00  0.96701479087E+02  0.96701479087E+02  0.00000000000E+00 0.  1.
         21   -1    0    0  501  503 -0.00000000000E+00 -0.00000000000E+00 -0.52708261177E+03  0.52708261177E+03  0.00000000000E+00 0.  1.
          6    1    1    2  501    0 -0.61486119387E+02  0.26417540557E+02 -0.39298080668E+03  0.43455879204E+03  0.17300000000E+03 0.  1.
         -6    1    1    2    0  502  0.61486119387E+02 -0.26417540557E+02 -0.37400326010E+02  0.18922529882E+03  0.17300000000E+03 0.  1.
</event>
<event>
 4    1  0.3065897E+000  0.1000000E+03  0.7546771E-02  0.1280296E+00
         21   -1    0    0  503  502  0.00000000000E+00  0.00000000000E+00  0.41736225213E+02  0.41736225213E+02  0.00000000000E+00 0.  1.
         21   -1    0    0  501  503 -0.00000000000E+00 -0.00000000000E+00 -0.13236222094E+04  0.13236222094E+04  0.00000000000E+00 0.  1.
          6    1    1    2  501    0  0.56332399406E+02  0.11306715645E+03 -0.92189631461E+03  0.94645619866E+03  0.17300000000E+03 0.  1.
         -6    1    1    2    0  502 -0.56332399406E+02 -0.11306715645E+03 -0.35998966963E+03  0.41890223600E+03  0.17300000000E+03 0.  1.
</event>
<event>
 4    1  0.3065897E+000  0.1000000E+03  0.7546771E-02  0.1280296E+00
         21   -1    0    0  501  502  0.00000000000E+00  0.00000000000E+00  0.12817188947E+03  0.12817188947E+03  0.00000000000E+00 0. -1.
         21   -1    0    0  502  503 -0.00000000000E+00 -0.00000000000E+00 -0.33856771331E+03  0.33856771331E+03  0.00000000000E+00 0. -1.
          6    1    1    2  501    0  0.96621688167E+02  0.64141863649E+02 -0.10072602259E+03  0.23135397322E+03  0.17300000000E+03 0. -1.
         -6    1    1    2    0  503 -0.96621688167E+02 -0.64141863649E+02 -0.10966980125E+03  0.23538562956E+03  0.17300000000E+03 0. -1.
</event>
<event>
 4    1  0.3065897E+000  0.1000000E+03  0.7546771E-02  0.1280296E+00
         21   -1    0    0  501  502  0.00000000000E+00  0.00000000000E+00  0.48605882405E+03  0.48605882405E+03  0.00000000000E+00 0. -1.
         21   -1    0    0  502  503 -0.00000000000E+00 -0.00000000000E+00 -0.94598977386E+02  0.94598977386E+02  0.00000000000E+00 0. -1.
          6    1    1    2  501    0  0.99827024913E+02 -0.61058712332E+02  0.26147763661E+03  0.33465378483E+03  0.17300000000E+03 0. -1.
         -6    1    1    2    0  503 -0.99827024913E+02  0.61058712332E+02  0.12998221005E+03  0.24600401660E+03  0.17300000000E+03 0. -1.
</event>
<event>
 4    1  0.3065897E+000  0.1000000E+03  0.7546771E-02  0.1280296E+00
         21   -1    0    0  501  502  0.00000000000E+00  0.00000000000E+00  0.84750998100E+03  0.84750998100E+03  0.00000000000E+00 0. -1.
         21   -1    0    0  502  503 -0.00000000000E+00 -0.00000000000E+00 -0.39775784317E+02  0.39775784317E+02  0.00000000000E+00 0. -1.
          6    1    1    2  501    0 -0.19204176690E+02 -0.57834110754E+02  0.42376158599E+03  0.46175368600E+03  0.17300000000E+03 0. -1.
         -6    1    1    2    0  503  0.19204176690E+02  0.57834110754E+02  0.38397261069E+03  0.42553207932E+03  0.17300000000E+03 0. -1.
</event>
<event>
 4    1  0.3065897E+000  0.1000000E+03  0.7546771E-02  0.1280296E+00
         21   -1    0    0  501  502  0.00000000000E+00  0.00000000000E+00  0.35024563727E+02  0.35024563727E+02  0.00000000000E+00 0.  1.
         21   -1    0    0  502  503 -0.00000000000E+00 -0.00000000000E+00 -0.17038547743E+04  0.17038547743E+04  0.00000000000E+00 0.  1.
          6    1    1    2  501    0  0.11277096602E+03  0.42788605331E+02 -0.39562877981E+03  0.44832944019E+03  0.17300000000E+03 0.  1.
         -6    1    1    2    0  503 -0.11277096602E+03 -0.42788605331E+02 -0.12732014307E+04  0.12905498978E+04  0.17300000000E+03 0.  1.
</event>
<event>
 4    1  0.3065897E+000  0.1000000E+03  0.7546771E-02  0.1280296E+00
         21   -1    0    0  503  502  0.00000000000E+00  0.00000000000E+00  0.19060136255E+03  0.19060136255E+03  0.00000000000E+00 0.  1.
         21   -1    0    0  501  503 -0.00000000000E+00 -0.00000000000E+00 -0.37876409006E+03  0.37876409006E+03  0.00000000000E+00 0.  1.
          6    1    1    2  501    0 -0.51215410717E+02 -0.13182008252E+03 -0.25217675407E+03  0.33692976678E+03  0.17300000000E+03 0.  1.
         -6    1    1    2    0  502  0.51215410717E+02  0.13182008252E+03  0.64014026555E+02  0.23243568583E+03  0.17300000000E+03 0.  1.
</event>
<event>
 4    1  0.3065897E+000  0.1000000E+03  0.7546771E-02  0.1280296E+00
         21   -1    0    0  503  502  0.00000000000E+00  0.00000000000E+00  0.43886827924E+03  0.43886827924E+03  0.00000000000E+00 0. -1.
         21   -1    0    0  501  503 -0.00000000000E+00 -0.00000000000E+00 -0.15349758125E+03  0.15349758125E+03  0.00000000000E+00 0. -1.
          6    1    1    2  501    0  0.14609812838E+03 -0.48296611751E+02  0.88300728042E+01  0.23169850239E+03  0.17300000000E+03 0. -1.
         -6    1    1    2    0  502 -0.14609812838E+03  0.48296611751E+02  0.27654062519E+03  0.36066735810E+03  0.17300000000E+03 0. -1.
</event>
<event>
 4    1  0.3065897E+000  0.1000000E+03  0.7546771E-02  0.1280296E+00
         21   -1    0    0  501  502  0.00000000000E+00  0.00000000000E+00  0.48844974725E+02  0.48844974725E+02  0.00000000000E+00 0.  1.
         21   -1    0    0  502  503 -0.00000000000E+00 -0.00000000000E+00 -0.78119875648E+03  0.78119875648E+03  0.00000000000E+00 0. -1.
          6    1    1    2  501    0  0.20906878363E+02  0.84682148684E+02 -0.31325436882E+03  0.36832792924E+03  0.17300000000E+03 0.  1.
         -6    1    1    2    0  503 -0.20906878363E+02 -0.84682148684E+02 -0.41909941293E+03  0.46171580197E+03  0.17300000000E+03 0.  1.
</event>
<event>
 4    1  0.3065897E+000  0.1000000E+03  0.7546771E-02  0.1280296E+00
         21   -1    0    0  501  502  0.00000000000E+00  0.00000000000E+00  0.71494989037E+02  0.71494989037E+02  0.00000000000E+00 0.  1.
         21   -1    0    0  502  503 -0.00000000000E+00 -0.00000000000E+00 -0.77258163281E+03  0.77258163281E+03  0.00000000000E+00 0. -1.
          6    1    1    2  501    0 -0.21350756937E+02  0.14891831500E+03 -0.25768122149E+03  0.34490742421E+03  0.17300000000E+03 0.  1.
         -6    1    1    2    0  503  0.21350756937E+02 -0.14891831500E+03 -0.44340542229E+03  0.49916919764E+03  0.17300000000E+03 0.  1.
</event>
<event>
 4    1  0.3065897E+000  0.1000000E+03  0.7546771E-02  0.1280296E+00
         21   -1    0    0  501  502  0.00000000000E+00  0.00000000000E+00  0.81815329363E+03  0.81815329363E+03  0.00000000000E+00 0.  1.
         21   -1    0    0  502  503 -0.00000000000E+00 -0.00000000000E+00 -0.13388948331E+03  0.13388948331E+03  0.00000000000E+00 0. -1.
          6    1    1    2  501    0  0.76300190732E+02 -0.21502577600E+03  0.58087928193E+03  0.64761681852E+03  0.17300000000E+03 0.  1.
         -6    1    1    2    0  503 -0.76300190732E+02  0.21502577600E+03  0.10338452840E+03  0.30442595843E+03  0.17300000000E+03 0.  1.
</event>
<event>
 4    1  0.3065897E+000  0.1000000E+03  0.7546771E-02  0.1280296E+00
         21   -1    0    0  503  502  0.00000000000E+00  0.00000000000E+00  0.41784385313E+03  0.41784385313E+03  0.00000000000E+00 0.  1.
         21   -1    0    0  501  503 -0.00000000000E+00 -0.00000000000E+00 -0.25847123945E+03  0.25847123945E+03  0.00000000000E+00 0.  1.
          6    1    1    2  501    0  0.44033893010E+02  0.51618571464E+02 -0.19921820348E+03  0.27243412645E+03  0.17300000000E+03 0.  1.
         -6    1    1    2    0  502 -0.44033893010E+02 -0.51618571464E+02  0.35859081716E+03  0.40388096614E+03  0.17300000000E+03 0.  1.
</event>
<event>
 4    1  0.3065897E+000  0.1000000E+03  0.7546771E-02  0.1280296E+00
         21   -1    0    0  503  502  0.00000000000E+00  0.00000000000E+00  0.11315406540E+04  0.11315406540E+04  0.00000000000E+00 0.  1.
         21   -1    0    0  501  503 -0.00000000000E+00 -0.00000000000E+00 -0.30985924898E+02  0.30985924898E+02  0.00000000000E+00 0. -1.
          6    1    1    2  501    0 -0.62288175742E+02  0.38937105503E+01  0.44106026753E+03  0.47786832644E+03  0.17300000000E+03 0.  1.
         -6    1    1    2    0  502  0.62288175742E+02 -0.38937105503E+01  0.65949446162E+03  0.68465825251E+03  0.17300000000E+03 0. -1.
</event>
<event>
 4    1  0.3065897E+000  0.1000000E+03  0.7546771E-02  0.1280296E+00
         21   -1    0    0  503  502  0.00000000000E+00  0.00000000000E+00  0.12567902737E+03  0.12567902737E+03  0.00000000000E+00 0.  1.
         21   -1    0    0  501  503 -0.00000000000E+00 -0.00000000000E+00 -0.40604631148E+03  0.40604631148E+03  0.00000000000E+00 0. -1.
          6    1    1    2  501    0 -0.25515412656E+02 -0.13923810158E+03 -0.10179047520E+03  0.24561878197E+03  0.17300000000E+03 0.  1.
         -6    1    1    2    0  502  0.25515412656E+02  0.13923810158E+03 -0.17857680891E+03  0.28610655689E+03  0.17300000000E+03 0. -1.
</event>
<event>
 4    1  0.3065897E+000  0.1000000E+03  0.7546771E-02  0.1280296E+00
         21   -1    0    0  501  502  0.00000000000E+00  0.00000000000E+00  0.12576140637E+03  0.12576140637E+03  0.00000000000E+00 0. -1.
         21   -1    0    0  502  503 -0.00000000000E+00 -0.00000000000E+00 -0.29033833862E+03  0.29033833862E+03  0.00000000000E+00 0.  1.
          6    1    1    2  501    0  0.76698116135E+02  0.14629083782E+02 -0.58242693964E+02  0.19853922159E+03  0.17300000000E+03 0. -1.
         -6    1    1    2    0  503 -0.76698116135E+02 -0.14629083782E+02 -0.10633423829E+03  0.21756052340E+03  0.17300000000E+03 0.  1.
</event>
<event>
 4    1  0.3065897E+000  0.1000000E+03  0.7546771E-02  0.1280296E+00
         21   -1    0    0  503  502  0.00000000000E+00  0.00000000000E+00  0.16520752281E+03  0.16520752281E+03  0.00000000000E+00 0.  1.
         21   -1    0    0  501  503 -0.00000000000E+00 -0.00000000000E+00 -0.84835093769E+03  0.84835093769E+03  0.00000000000E+00 0.  1.
          6    1    1    2  501    0  0.26555672183E+03  0.62045797372E+02 -0.59789637585E+03  0.67954332440E+03  0.17300000000E+03 0.  1.
         -6    1    1    2    0  502 -0.26555672183E+03 -0.62045797372E+02 -0.85247039027E+02  0.33401513610E+03  0.17300000000E+03 0.  1.
</event>
<event>
 4    1  0.3065897E+000  0.1000000E+03  0.7546771E-02  0.1280296E+00
         21   -1    0    0  503  502  0.00000000000E+00  0.00000000000E+00  0.19155636227E+03  0.19155636227E+03  0.00000000000E+00 0.  1.
         21   -1    0    0  501  503 -0.00000000000E+00 -0.00000000000E+00 -0.22312170784E+03  0.22312170784E+03  0.00000000000E+00 0.  1.
          6    1    1    2  501    0  0.71369835502E+02 -0.65628899251E+02 -0.74352749165E+02  0.21179739645E+03  0.17300000000E+03 0.  1.
         -6    1    1    2    0  502 -0.71369835502E+02  0.65628899251E+02  0.42787403593E+02  0.20288067365E+03  0.17300000000E+03 0.  1.
</event>
<event>
 4    1  0.3065897E+000  0.1000000E+03  0.7546771E-02  0.1280296E+00
         21   -1    0    0  503  502  0.00000000000E+00  0.00000000000E+00  0.33347155488E+03  0.33347155488E+03  0.00000000000E+00 0.  1.
         21   -1    0    0  501  503 -0.00000000000E+00 -0.00000000000E+00 -0.47267588087E+03  0.47267588087E+03  0.00000000000E+00 0.  1.
          6    1    1    2  501    0  0.21829518708E+01 -0.14343266224E+03 -0.40188132366E+03  0.46045118328E+03  0.17300000000E+03 0.  1.
         -6    1    1    2    0  502 -0.21829518708E+01  0.14343266224E+03  0.26267699767E+03  0.34569625248E+03  0.17300000000E+03 0.  1.
</event>
<event>
 4    1  0.3065897E+000  0.1000000E+03  0.7546771E-02  0.1280296E+00
         21   -1    0    0  501  502  0.00000000000E+00  0.00000000000E+00  0.29185809754E+03  0.29185809754E+03  0.00000000000E+00 0. -1.
         21   -1    0    0  502  503 -0.00000000000E+00 -0.00000000000E+00 -0.32473267999E+03  0.32473267999E+03  0.00000000000E+00 0.  1.
          6    1    1    2  501    0 -0.73673247088E+02 -0.18294425211E+03  0.14488380016E+03  0.29969428134E+03  0.17300000000E+03 0. -1.
         -6    1    1    2    0  503  0.73673247088E+02  0.18294425211E+03 -0.17775838261E+03  0.31689649620E+03  0.17300000000E+03 0. -1.
</event>
<event>
 4    1  0.3065897E+000  0.1000000E+03  0.7546771E-02  0.1280296E+00
         21   -1    0    0  501  502  0.00000000000E+00  0.00000000000E+00  0.37605453681E+02  0.37605453681E+02  0.00000000000E+00 0. -1.
         21   -1    0    0  502  503 -0.00000000000E+00 -0.00000000000E+00 -0.13158943183E+04  0.13158943183E+04  0.00000000000E+00 0.  1.
          6    1    1    2  501    0  0.10856022984E+03  0.88100365182E+02 -0.63011715780E+03  0.66822423662E+03  0.17300000000E+03 0. -1.
         -6    1    1    2    0  503 -0.10856022984E+03 -0.88100365182E+02 -0.64817170678E+03  0.68527553533E+03  0.17300000000E+03 0. -1.
</event>
<event>
 4    1  0.3065897E+000  0.1000000E+03  0.7546771E-02  0.1280296E+00
         21   -1    0    0  501  502  0.00000000000E+00  0.00000000000E+00  0.31857346411E+03  0.31857346411E+03  0.00000000000E+00 0. -1.
         21   -1    0    0  502  503 -0.00000000000E+00 -0.00000000000E+00 -0.16595912937E+03  0.16595912937E+03  0.00000000000E+00 0.  1.
          6    1    1    2  501    0  0.69753794163E+02 -0.27709587053E+02  0.21492148193E+03  0.28592596316E+03  0.17300000000E+03 0. -1.
         -6    1    1    2    0  503 -0.69753794163E+02  0.27709587053E+02 -0.62307147192E+02  0.19860663032E+03  0.17300000000E+03 0. -1.
</event>
<event>
 4    1  0.3065897E+000  0.1000000E+03  0.7546771E-02  0.1280296E+00
         21   -1    0    0  501  502  0.00000000000E+00  0.00000000000E+00  0.76999378510E+02  0.76999378510E+02  0.00000000000E+00 0. -1.
         21   -1    0    0  502  503 -0.00000000000E+00 -0.00000000000E+00 -0.57776678048E+03  0.57776678048E+03  0.00000000000E+00 0. -1.
          6    1    1    2  501    0 -0.29138112999E+02 -0.11626469551E+03 -0.27190079492E+03  0.34383942667E+03  0.17300000000E+03 0. -1.
         -6    1    1    2    0  503  0.29138112999E+02  0.11626469551E+03 -0.22886660705E+03  0.31092673232E+03  0.17300000000E+03 0. -1.
</event>
<event>
 4    1  0.3065897E+000  0.1000000E+03  0.7546771E-02  0.1280296E+00
         21   -1    0    0  501  502  0.00000000000E+00  0.00000000000E+00  0.33387838473E+02  0.33387838473E+02  0.00000000000E+00 0. -1.
         21   -1    0    0  502  503 -0.00000000000E+00 -0.00000000000E+00 -0.95658509974E+03  0.95658509974E+03  0.00000000000E+00 0. -1.
          6    1    1    2  501    0  0.35568333543E+02 -0.14387286276E+01 -0.38614535537E+03  0.42462266987E+03  0.17300000000E+03 0. -1.
         -6    1    1    2    0  503 -0.35568333543E+02  0.14387286276E+01 -0.53705190590E+03  0.56535026835E+03  0.17300000000E+03 0. -1.
</event>
<event>
 4    1  0.3065897E+000  0.1000000E+03  0.7546771E-02  0.1280296E+00
         21   -1    0    0  503  502  0.00000000000E+00  0.00000000000E+00  0.13306831908E+03  0.13306831908E+03  0.00000000000E+00 0. -1.
         21   -1    0    0  501  503 -0.00000000000E+00 -0.00000000000E+00 -0.57158784135E+03  0.57158784135E+03  0.00000000000E+00 0.  1.
          6    1    1    2  501    0  0.89601670352E+01  0.15121945216E+02 -0.49272791368E+03  0.52251196612E+03  0.17300000000E+03 0.  1.
         -6    1    1    2    0  502 -0.89601670352E+01 -0.15121945216E+02  0.54208391415E+02  0.18214419431E+03  0.17300000000E+03 0. -1.
</event>
<event>
 4    1  0.3065897E+000  0.1000000E+03  0.7546771E-02  0.1280296E+00
         21   -1    0    0  503  502  0.00000000000E+00  0.00000000000E+00  0.14458282507E+03  0.14458282507E+03  0.00000000000E+00 0. -1.
         21   -1    0    0  501  503 -0.00000000000E+00 -0.00000000000E+00 -0.91717399225E+03  0.91717399225E+03  0.00000000000E+00 0.  1.
          6    1    1    2  501    0  0.75543204877E+02 -0.10802640897E+03 -0.81208098938E+03  0.84070269070E+03  0.17300000000E+03 0.  1.
         -6    1    1    2    0  502 -0.75543204877E+02  0.10802640897E+03  0.39489822205E+02  0.22105412662E+03  0.17300000000E+03 0. -1.
</event>
<event>
 4    1  0.3065897E+000  0.1000000E+03  0.7546771E-02  0.1280296E+00
         21   -1    0    0  501  502  0.00000000000E+00  0.00000000000E+00  0.92050544246E+03  0.92050544246E+03  0.00000000000E+00 0. -1.
         21   -1    0    0  502  503 -0.00000000000E+00 -0.00000000000E+00 -0.24749461246E+03  0.24749461246E+03  0.00000000000E+00 0. -1.
          6    1    1    2  501    0 -0.42730796891E+02  0.19894559956E+03  0.82051545462E+03  0.86289042401E+03  0.17300000000E+03 0. -1.
         -6    1    1    2    0  503  0.42730796891E+02 -0.19894559956E+03 -0.14750462462E+03  0.30510963091E+03  0.17300000000E+03 0. -1.
</event>
<event>
 4    1  0.3065897E+000  0.1000000E+03  0.7546771E-02  0.1280296E+00
         21   -1    0    0  503  502  0.00000000000E+00  0.00000000000E+00  0.56811871041E+03  0.56811871041E+03  0.00000000000E+00 0. -1.
         21   -1    0    0  501  503 -0.00000000000E+00 -0.00000000000E+00 -0.10048966601E+03  0.10048966601E+03  0.00000000000E+00 0. -1.
          6    1    1    2  501    0 -0.12479523117E+03 -0.60012364796E+02  0.10878321632E+03  0.24685648018E+03  0.17300000000E+03 0.  1.
         -6    1    1    2    0  502  0.12479523117E+03  0.60012364796E+02  0.35884582808E+03  0.42175189624E+03  0.17300000000E+03 0.  1.
</event>
<event>
 4    1  0.3065897E+000  0.1000000E+03  0.7546771E-02  0.1280296E+00
         21   -1    0    0  503  502  0.00000000000E+00  0.00000000000E+00  0.33948687486E+02  0.33948687486E+02  0.00000000000E+00 0. -1.
         21   -1    0    0  501  503 -0.00000000000E+00 -0.00000000000E+00 -0.12477382839E+04  0.12477382839E+04  0.00000000000E+00 0. -1.
          6    1    1    2  501    0  0.60542514364E+02 -0.84228049832E+02 -0.47963883767E+03  0.52032891043E+03  0.17300000000E+03 0.  1.
         -6    1    1    2    0  502 -0.60542514364E+02  0.84228049832E+02 -0.73415075875E+03  0.76135806097E+03  0.17300000000E+03 0.  1.
</event>
<event>
 4    1  0.3065897E+000  0.1000000E+03  0.7546771E-02  0.1280296E+00
         21   -1    0    0  503  502  0.00000000000E+00  0.00000000000E+00  0.12098134654E+03  0.12098134654E+03  0.00000000000E+00 0. -1.
         21   -1    0    0  501  503 -0.00000000000E+00 -0.00000000000E+00 -0.31702382687E+03  0.31702382687E+03  0.00000000000E+00 0. -1.
          6    1    1    2  501    0 -0.15181329813E+02 -0.26218187235E+02 -0.11309441905E+01  0.17563640042E+03  0.17300000000E+03 0.  1.
         -6    1    1    2    0  502  0.15181329813E+02  0.26218187235E+02 -0.19491153614E+03  0.26236877299E+03  0.17300000000E+03 0.  1.
</event>
<event>
 4    1  0.3065897E+000  0.1000000E+03  0.7546771E-02  0.1280296E+00
         21   -1    0    0  503  502  0.00000000000E+00  0.00000000000E+00  0.12067541521E+04  0.12067541521E+04  0.00000000000E+00 0. -1.
         21   -1    0    0  501  503 -0.00000000000E+00 -0.00000000000E+00 -0.19921751027E+03  0.19921751027E+03  0.00000000000E+00 0. -1.
          6    1    1    2  501    0 -0.64768339960E+02  0.98358277919E+02 -0.13196402180E+03  0.24741218997E+03  0.17300000000E+03 0.  1.
         -6    1    1    2    0  502  0.64768339960E+02 -0.98358277919E+02  0.11395006637E+04  0.11585594724E+04  0.17300000000E+03 0.  1.
</event>
<event>
 4    1  0.3065897E+000  0.1000000E+03  0.7546771E-02  0.1280296E+00
         21   -1    0    0  503  502  0.00000000000E+00  0.00000000000E+00  0.83924248383E+02  0.83924248383E+02  0.00000000000E+00 0. -1.
         21   -1    0    0  501  503 -0.00000000000E+00 -0.00000000000E+00 -0.54887561154E+03  0.54887561154E+03  0.00000000000E+00 0. -1.
          6    1    1    2  501    0  0.10555180633E+03 -0.35227471962E+02 -0.32278534706E+03  0.38275519445E+03  0.17300000000E+03 0.  1.
         -6    1    1    2    0  502 -0.10555180633E+03  0.35227471962E+02 -0.14216601610E+03  0.25004466548E+03  0.17300000000E+03 0.  1.
</event>
<event>
 4    1  0.3065897E+000  0.1000000E+03  0.7546771E-02  0.1280296E+00
         21   -1    0    0  501  502  0.00000000000E+00  0.00000000000E+00  0.57563930643E+03  0.57563930643E+03  0.00000000000E+00 0. -1.
         21   -1    0    0  502  503 -0.00000000000E+00 -0.00000000000E+00 -0.14604676940E+03  0.14604676940E+03  0.00000000000E+00 0.  1.
          6    1    1    2  501    0 -0.18652565946E+03  0.74847278489E+02  0.36071337918E+03  0.44770199760E+03  0.17300000000E+03 0. -1.
         -6    1    1    2    0  503  0.18652565946E+03 -0.74847278489E+02  0.68879157847E+02  0.27398407823E+03  0.17300000000E+03 0.  1.
</event>
<event>
 4    1  0.3065897E+000  0.1000000E+03  0.7546771E-02  0.1280296E+00
         21   -1    0    0  501  502  0.00000000000E+00  0.00000000000E+00  0.77090121894E+02  0.77090121894E+02  0.00000000000E+00 0.  1.
         21   -1    0    0  502  503 -0.00000000000E+00 -0.00000000000E+00 -0.56791494642E+03  0.56791494642E+03  0.00000000000E+00 0.  1.
          6    1    1    2  501    0 -0.10118921410E+03  0.58527579489E+02 -0.22434097067E+03  0.30646795221E+03  0.17300000000E+03 0.  1.
         -6    1    1    2    0  503  0.10118921410E+03 -0.58527579489E+02 -0.26648385385E+03  0.33853711609E+03  0.17300000000E+03 0.  1.
</event>
<event>
 4    1  0.3065897E+000  0.1000000E+03  0.7546771E-02  0.1280296E+00
         21   -1    0    0  503  502  0.00000000000E+00  0.00000000000E+00  0.50876677903E+03  0.50876677903E+03  0.00000000000E+00 0. -1.
         21   -1    0    0  501  503 -0.00000000000E+00 -0.00000000000E+00 -0.10059434254E+03  0.10059434254E+03  0.00000000000E+00 0. -1.
          6    1    1    2  501    0  0.14049617872E+03 -0.13589355549E+02  0.15504003609E+03  0.27182762849E+03  0.17300000000E+03 0. -1.
         -6    1    1    2    0  502 -0.14049617872E+03  0.13589355549E+02  0.25313240040E+03  0.33753349308E+03  0.17300000000E+03 0. -1.
</event>
<event>
 4    1  0.3065897E+000  0.1000000E+03  0.7546771E-02  0.1280296E+00
         21   -1    0    0  501  502  0.00000000000E+00  0.00000000000E+00  0.66548814733E+03  0.66548814733E+03  0.00000000000E+00 0. -1.
         21   -1    0    0  502  503 -0.00000000000E+00 -0.00000000000E+00 -0.14323903080E+03  0.14323903080E+03  0.00000000000E+00 0. -1.
          6    1    1    2  501    0 -0.17209367637E+03 -0.12899744797E+03  0.44230983234E+03  0.52136701354E+03  0.17300000000E+03 0. -1.
         -6    1    1    2    0  503  0.17209367637E+03  0.12899744797E+03  0.79939284198E+02  0.28736016458E+03  0.17300000000E+03 0. -1.
</event>
<event>
 4    1  0.3065897E+000  0.1000000E+03  0.7546771E-02  0.1280296E+00
         21   -1    0    0  501  502  0.00000000000E+00  0.00000000000E+00  0.13878253663E+03  0.13878253663E+03  0.00000000000E+00 0. -1.
         21   -1    0    0  502  503 -0.00000000000E+00 -0.00000000000E+00 -0.39595048314E+03  0.39595048314E+03  0.00000000000E+00 0. -1.
          6    1    1    2  501    0  0.99230562706E+02 -0.49310642127E+02  0.17220969615E+00  0.20544408889E+03  0.17300000000E+03 0. -1.
         -6    1    1    2    0  503 -0.99230562706E+02  0.49310642127E+02 -0.25734015621E+03  0.32928893088E+03  0.17300000000E+03 0. -1.
</event>
<event>
 4    1  0.3065897E+000  0.1000000E+03  0.7546771E-02  0.1280296E+00
         21   -1    0    0  503  502  0.00000000000E+00  0.00000000000E+00  0.39779864680E+03  0.39779864680E+03  0.00000000000E+00 0. -1.
         21   -1    0    0  501  503 -0.00000000000E+00 -0.00000000000E+00 -0.46785235041E+03  0.46785235041E+03  0.00000000000E+00 0. -1.
          6    1    1    2  501    0 -0.23932300735E+03  0.19542314013E+03 -0.28224452969E+03  0.45283184526E+03  0.17300000000E+03 0. -1.
         -6    1    1    2    0  502  0.23932300735E+03 -0.19542314013E+03  0.21219082608E+03  0.41281915195E+03  0.17300000000E+03 0. -1.
</event>
<event>
 4    1  0.3065897E+000  0.1000000E+03  0.7546771E-02  0.1280296E+00
         21   -1    0    0  503  502  0.00000000000E+00  0.00000000000E+00  0.33381985861E+02  0.33381985861E+02  0.00000000000E+00 0. -1.
         21   -1    0    0  501  503 -0.00000000000E+00 -0.00000000000E+00 -0.14714520774E+04  0.14714520774E+04  0.00000000000E+00 0. -1.
          6    1    1    2  501    0 -0.12763369398E+03  0.17815401963E+02 -0.89158394442E+03  0.91731056809E+03  0.17300000000E+03 0. -1.
         -6    1    1    2    0  502  0.12763369398E+03 -0.17815401963E+02 -0.54648614714E+03  0.58752349519E+03  0.17300000000E+03 0. -1.
</event>
<event>
 4    1  0.3065897E+000  0.1000000E+03  0.7546771E-02  0.1280296E+00
         21   -1    0    0  503  502  0.00000000000E+00  0.00000000000E+00  0.57911609497E+02  0.57911609497E+02  0.00000000000E+00 0. -1.
         21   -1    0    0  501  503 -0.00000000000E+00 -0.00000000000E+00 -0.60135938438E+03  0.60135938438E+03  0.00000000000E+00 0. -1.
          6    1    1    2  501    0  0.24900267425E+02  0.20801534081E+02 -0.38123890852E+03  0.41991050535E+03  0.17300000000E+03 0. -1.
         -6    1    1    2    0  502 -0.24900267425E+02 -0.20801534081E+02 -0.16220886636E+03  0.23936048852E+03  0.17300000000E+03 0. -1.
</event>
<event>
 4    1  0.3065897E+000  0.1000000E+03  0.7546771E-02  0.1280296E+00
         21   -1    0    0  503  502  0.00000000000E+00  0.00000000000E+00  0.78905165324E+02  0.78905165324E+02  0.00000000000E+00 0. -1.
         21   -1    0    0  501  503 -0.00000000000E+00 -0.00000000000E+00 -0.87802854289E+03  0.87802854289E+03  0.00000000000E+00 0. -1.
          6    1    1    2  501    0  0.22442107899E+01 -0.15894323723E+03 -0.61529032776E+03  0.65861914380E+03  0.17300000000E+03 0. -1.
         -6    1    1    2    0  502 -0.22442107899E+01  0.15894323723E+03 -0.18383304981E+03  0.29831456442E+03  0.17300000000E+03 0. -1.
</event>
<event>
 4    1  0.3065897E+000  0.1000000E+03  0.7546771E-02  0.1280296E+00
         21   -1    0    0  503  502  0.00000000000E+00  0.00000000000E+00  0.19618625919E+03  0.19618625919E+03  0.00000000000E+00 0. -1.
         21   -1    0    0  501  503 -0.00000000000E+00 -0.00000000000E+00 -0.52445883296E+03  0.52445883296E+03  0.00000000000E+00 0. -1.
          6    1    1    2  501    0  0.24195894373E+03 -0.10561739891E+03 -0.99965110686E+02  0.33109090709E+03  0.17300000000E+03 0. -1.
         -6    1    1    2    0  502 -0.24195894373E+03  0.10561739891E+03 -0.22830746308E+03  0.38955418506E+03  0.17300000000E+03 0. -1.
</event>
<event>
 4    1  0.3065897E+000  0.1000000E+03  0.7546771E-02  0.1280296E+00
         21   -1    0    0  503  502  0.00000000000E+00  0.00000000000E+00  0.11896748120E+03  0.11896748120E+03  0.00000000000E+00 0. -1.
         21   -1    0    0  501  503 -0.00000000000E+00 -0.00000000000E+00 -0.69724958562E+03  0.69724958562E+03  0.00000000000E+00 0. -1.
          6    1    1    2  501    0 -0.34312319241E+02 -0.79974913139E+02 -0.59122203712E+03  0.62213006611E+03  0.17300000000E+03 0. -1.
         -6    1    1    2    0  502  0.34312319241E+02  0.79974913139E+02  0.12939932698E+02  0.19408700070E+03  0.17300000000E+03 0. -1.
</event>
<event>
 4    1  0.3065897E+000  0.1000000E+03  0.7546771E-02  0.1280296E+00
         21   -1    0    0  503  502  0.00000000000E+00  0.00000000000E+00  0.36308336854E+03  0.36308336854E+03  0.00000000000E+00 0.  1.
         21   -1    0    0  501  503 -0.00000000000E+00 -0.00000000000E+00 -0.35779560114E+03  0.35779560114E+03  0.00000000000E+00 0. -1.
          6    1    1    2  501    0  0.26013197044E+03  0.48754464477E+02 -0.17037808886E+03  0.35917033983E+03  0.17300000000E+03 0. -1.
         -6    1    1    2    0  502 -0.26013197044E+03 -0.48754464477E+02  0.17566585625E+03  0.36170862985E+03  0.17300000000E+03 0.  1.
</event>
<event>
 4    1  0.3065897E+000  0.1000000E+03  0.7546771E-02  0.1280296E+00
         21   -1    0    0  503  502  0.00000000000E+00  0.00000000000E+00  0.46362857922E+02  0.46362857922E+02  0.00000000000E+00 0.  1.
         21   -1    0    0  501  503 -0.00000000000E+00 -0.00000000000E+00 -0.88977748043E+03  0.88977748043E+03  0.00000000000E+00 0. -1.
          6    1    1    2  501    0 -0.10084545496E+03  0.30628007093E+02 -0.45555716848E+03  0.49856716133E+03  0.17300000000E+03 0. -1.
         -6    1    1    2    0  502  0.10084545496E+03 -0.30628007093E+02 -0.38785745403E+03  0.43757317702E+03  0.17300000000E+03 0.  1.
</event>
<event>
 4    1  0.3065897E+000  0.1000000E+03  0.7546771E-02  0.1280296E+00
         21   -1    0    0  503  502  0.00000000000E+00  0.00000000000E+00  0.76881180330E+03  0.76881180330E+03  0.00000000000E+00 0.  1.
         21   -1    0    0  501  503 -0.00000000000E+00 -0.00000000000E+00 -0.52976456621E+02  0.52976456621E+02  0.00000000000E+00 0.  1.
          6    1    1    2  501    0 -0.92611218149E+02  0.55845333257E+01  0.26259661160E+03  0.32786278404E+03  0.17300000000E+03 0.  1.
         -6    1    1    2    0  502  0.92611218149E+02 -0.55845333257E+01  0.45323873508E+03  0.49392547587E+03  0.17300000000E+03 0.  1.
</event>
<event>
 4    1  0.3065897E+000  0.1000000E+03  0.7546771E-02  0.1280296E+00
         21   -1    0    0  503  502  0.00000000000E+00  0.00000000000E+00  0.79761850154E+03  0.79761850154E+03  0.00000000000E+00 0.  1.
         21   -1    0    0  501  503 -0.00000000000E+00 -0.00000000000E+00 -0.88605209515E+02  0.88605209515E+02  0.00000000000E+00 0.  1.
          6    1    1    2  501    0  0.99247521995E+02 -0.17396291860E+03  0.31263729217E+03  0.40961475086E+03  0.17300000000E+03 0.  1.
         -6    1    1    2    0  502 -0.99247521995E+02  0.17396291860E+03  0.39637599986E+03  0.47660896019E+03  0.17300000000E+03 0.  1.
</event>
<event>
 4    1  0.3065897E+000  0.1000000E+03  0.7546771E-02  0.1280296E+00
         21   -1    0    0  503  502  0.00000000000E+00  0.00000000000E+00  0.12172867561E+03  0.12172867561E+03  0.00000000000E+00 0.  1.
         21   -1    0    0  501  503 -0.00000000000E+00 -0.00000000000E+00 -0.17322721431E+04  0.17322721431E+04  0.00000000000E+00 0.  1.
          6    1    1    2  501    0  0.49300502487E+02 -0.39211192076E+03 -0.11228967790E+04  0.12029166530E+04  0.17300000000E+03 0.  1.
         -6    1    1    2    0  502 -0.49300502487E+02  0.39211192076E+03 -0.48764668848E+03  0.65108416563E+03  0.17300000000E+03 0.  1.
</event>
<event>
 4    1  0.3065897E+000  0.1000000E+03  0.7546771E-02  0.1280296E+00
         21   -1    0    0  503  502  0.00000000000E+00  0.00000000000E+00  0.56617574198E+03  0.56617574198E+03  0.00000000000E+00 0.  1.
         21   -1    0    0  501  503 -0.00000000000E+00 -0.00000000000E+00 -0.10717557194E+03  0.10717557194E+03  0.00000000000E+00 0.  1.
          6    1    1    2  501    0  0.10077640712E+02 -0.48774811927E+02 -0.30319143213E+00  0.18002675647E+03  0.17300000000E+03 0.  1.
         -6    1    1    2    0  502 -0.10077640712E+02  0.48774811927E+02  0.45930336147E+03  0.49332455745E+03  0.17300000000E+03 0.  1.
</event>
<event>
 4    1  0.3065897E+000  0.1000000E+03  0.7546771E-02  0.1280296E+00
         21   -1    0    0  503  502  0.00000000000E+00  0.00000000000E+00  0.44625626611E+03  0.44625626611E+03  0.00000000000E+00 0. -1.
         21   -1    0    0  501  503 -0.00000000000E+00 -0.00000000000E+00 -0.10298134753E+03  0.10298134753E+03  0.00000000000E+00 0.  1.
          6    1    1    2  501    0  0.39326051552E+02 -0.11469980801E+03  0.12501633608E+03  0.24548048512E+03  0.17300000000E+03 0.  1.
         -6    1    1    2    0  502 -0.39326051552E+02  0.11469980801E+03  0.21825858250E+03  0.30375712851E+03  0.17300000000E+03 0.  1.
</event>
<event>
 4    1  0.3065897E+000  0.1000000E+03  0.7546771E-02  0.1280296E+00
         21   -1    0    0  503  502  0.00000000000E+00  0.00000000000E+00  0.13937041411E+04  0.13937041411E+04  0.00000000000E+00 0.  1.
         21   -1    0    0  501  503 -0.00000000000E+00 -0.00000000000E+00 -0.16940233116E+03  0.16940233116E+03  0.00000000000E+00 0.  1.
          6    1    1    2  501    0  0.25240747540E+03 -0.19246287840E+03  0.89914269915E+02  0.37251183757E+03  0.17300000000E+03 0.  1.
         -6    1    1    2    0  502 -0.25240747540E+03  0.19246287840E+03  0.11343875400E+04  0.11905946347E+04  0.17300000000E+03 0.  1.
</event>
<event>
 4    1  0.3065897E+000  0.1000000E+03  0.7546771E-02  0.1280296E+00
         21   -1    0    0  501  502  0.00000000000E+00  0.00000000000E+00  0.12017366396E+03  0.12017366396E+03  0.00000000000E+00 0. -1.
         21   -1    0    0  502  503 -0.00000000000E+00 -0.00000000000E+00 -0.11168409823E+04  0.11168409823E+04  0.00000000000E+00 0. -1.
          6    1    1    2  501    0 -0.23733920069E+02  0.84380898537E+02  0.26399569990E+02  0.19572780154E+03  0.17300000000E+03 0. -1.
         -6    1    1    2    0  503  0.23733920069E+02 -0.84380898537E+02 -0.10230668883E+04  0.10412868447E+04  0.17300000000E+03 0. -1.
</event>
<event>
 4    1  0.3065897E+000  0.1000000E+03  0.7546771E-02  0.1280296E+00
         21   -1    0    0  501  502  0.00000000000E+00  0.00000000000E+00  0.10408658686E+04  0.10408658686E+04  0.00000000000E+00 0. -1.
         21   -1    0    0  502  503 -0.00000000000E+00 -0.00000000000E+00 -0.28145711516E+03  0.28145711516E+03  0.00000000000E+00 0. -1.
          6    1    1    2  501    0 -0.10893650887E+02 -0.10069312070E+02  0.10059216300E+04  0.10207974277E+04  0.17300000000E+03 0. -1.
         -6    1    1    2    0  503  0.10893650887E+02  0.10069312070E+02 -0.24651287654E+03  0.30152555609E+03  0.17300000000E+03 0. -1.
</event>
<event>
 4    1  0.3065897E+000  0.1000000E+03  0.7546771E-02  0.1280296E+00
         21   -1    0    0  503  502  0.00000000000E+00  0.00000000000E+00  0.97527463364E+02  0.97527463364E+02  0.00000000000E+00 0.  1.
         21   -1    0    0  501  503 -0.00000000000E+00 -0.00000000000E+00 -0.40258809797E+03  0.40258809797E+03  0.00000000000E+00 0.  1.
          6    1    1    2  501    0 -0.22882019878E+02  0.24019525054E+02 -0.26704165458E+03  0.31990743926E+03  0.17300000000E+03 0.  1.
         -6    1    1    2    0  502  0.22882019878E+02 -0.24019525054E+02 -0.38018980031E+02  0.18020812207E+03  0.17300000000E+03 0.  1.
</event>
<event>
 4    1  0.3065897E+000  0.1000000E+03  0.7546771E-02  0.1280296E+00
         21   -1    0    0  503  502  0.00000000000E+00  0.00000000000E+00  0.70709540507E+03  0.70709540507E+03  0.00000000000E+00 0.  1.
         21   -1    0    0  501  503 -0.00000000000E+00 -0.00000000000E+00 -0.16035398947E+03  0.16035398947E+03  0.00000000000E+00 0.  1.
          6    1    1    2  501    0  0.51096274588E+02 -0.17253830474E+03  0.56447248798E+03  0.61720214320E+03  0.17300000000E+03 0.  1.
         -6    1    1    2    0  502 -0.51096274588E+02  0.17253830474E+03 -0.17731072390E+02  0.25024725135E+03  0.17300000000E+03 0.  1.
</event>
<event>
 4    1  0.3065897E+000  0.1000000E+03  0.7546771E-02  0.1280296E+00
         21   -1    0    0  503  502  0.00000000000E+00  0.00000000000E+00  0.29648633807E+03  0.29648633807E+03  0.00000000000E+00 0.  1.
         21   -1    0    0  501  503 -0.00000000000E+00 -0.00000000000E+00 -0.26714625800E+03  0.26714625800E+03  0.00000000000E+00 0.  1.
          6    1    1    2  501    0  0.37612428489E+02 -0.19030753885E+02 -0.20356930754E+03  0.27045577706E+03  0.17300000000E+03 0.  1.
         -6    1    1    2    0  502 -0.37612428489E+02  0.19030753885E+02  0.23290938761E+03  0.29317681901E+03  0.17300000000E+03 0.  1.
</event>
<event>
 4    1  0.3065897E+000  0.1000000E+03  0.7546771E-02  0.1280296E+00
         21   -1    0    0  503  502  0.00000000000E+00  0.00000000000E+00  0.23756148883E+02  0.23756148883E+02  0.00000000000E+00 0.  1.
         21   -1    0    0  501  503 -0.00000000000E+00 -0.00000000000E+00 -0.20003781111E+04  0.20003781111E+04  0.00000000000E+00 0.  1.
          6    1    1    2  501    0 -0.11031454720E+03  0.56540320257E+01 -0.13291901298E+04  0.13449448571E+04  0.17300000000E+03 0.  1.
         -6    1    1    2    0  502  0.11031454720E+03 -0.56540320257E+01 -0.64743183244E+03  0.67918940293E+03  0.17300000000E+03 0.  1.
</event>
<event>
 4    1  0.3065897E+000  0.1000000E+03  0.7546771E-02  0.1280296E+00
         21   -1    0    0  503  502  0.00000000000E+00  0.00000000000E+00  0.54299370161E+03  0.54299370161E+03  0.00000000000E+00 0.  1.
         21   -1    0    0  501  503 -0.00000000000E+00 -0.00000000000E+00 -0.62099811454E+02  0.62099811454E+02  0.00000000000E+00 0. -1.
          6    1    1    2  501    0 -0.24194016924E+02 -0.12300794559E+02  0.14939381153E+03  0.23018290754E+03  0.17300000000E+03 0.  1.
         -6    1    1    2    0  502  0.24194016924E+02  0.12300794559E+02  0.33150007863E+03  0.37491060552E+03  0.17300000000E+03 0.  1.
</event>
<event>
 4    1  0.3065897E+000  0.1000000E+03  0.7546771E-02  0.1280296E+00
         21   -1    0    0  503  502  0.00000000000E+00  0.00000000000E+00  0.27901044566E+03  0.27901044566E+03  0.00000000000E+00 0.  1.
         21   -1    0    0  501  503 -0.00000000000E+00 -0.00000000000E+00 -0.75099474086E+03  0.75099474086E+03  0.00000000000E+00 0. -1.
          6    1    1    2  501    0  0.11383329906E+03 -0.27124754351E+03 -0.57922819368E+03  0.67228531903E+03  0.17300000000E+03 0. -1.
         -6    1    1    2    0  502 -0.11383329906E+03  0.27124754351E+03  0.10724389848E+03  0.35771986749E+03  0.17300000000E+03 0.  1.
</event>
<event>
 4    1  0.3065897E+000  0.1000000E+03  0.7546771E-02  0.1280296E+00
         21   -1    0    0  503  502  0.00000000000E+00  0.00000000000E+00  0.30476970835E+03  0.30476970835E+03  0.00000000000E+00 0.  1.
         21   -1    0    0  501  503 -0.00000000000E+00 -0.00000000000E+00 -0.14073586490E+03  0.14073586490E+03  0.00000000000E+00 0. -1.
          6    1    1    2  501    0  0.29592792203E+02  0.26800759048E+02 -0.32665343407E+02  0.18052711346E+03  0.17300000000E+03 0. -1.
         -6    1    1    2    0  502 -0.29592792203E+02 -0.26800759048E+02  0.19669918686E+03  0.26497845978E+03  0.17300000000E+03 0.  1.
</event>
<event>
 4    1  0.3065897E+000  0.1000000E+03  0.7546771E-02  0.1280296E+00
         21   -1    0    0  503  502  0.00000000000E+00  0.00000000000E+00  0.43455261141E+03  0.43455261141E+03  0.00000000000E+00 0.  1.
         21   -1    0    0  501  503 -0.00000000000E+00 -0.00000000000E+00 -0.84511275734E+02  0.84511275734E+02  0.00000000000E+00 0. -1.
          6    1    1    2  501    0  0.16771161402E+02  0.42208076459E+02  0.81851658926E+02  0.19670151917E+03  0.17300000000E+03 0. -1.
         -6    1    1    2    0  502 -0.16771161402E+02 -0.42208076459E+02  0.26818967675E+03  0.32236236798E+03  0.17300000000E+03 0.  1.
</event>
<event>
 4    1  0.3065897E+000  0.1000000E+03  0.7546771E-02  0.1280296E+00
         21   -1    0    0  501  502  0.00000000000E+00  0.00000000000E+00  0.38761024143E+02  0.38761024143E+02  0.00000000000E+00 0.  1.
         21   -1    0    0  502  503 -0.00000000000E+00 -0.00000000000E+00 -0.11398180240E+04  0.11398180240E+04  0.00000000000E+00 0.  1.
          6    1    1    2  501    0  0.53591387403E+02 -0.40935992184E+02 -0.27435468139E+03  0.33128127544E+03  0.17300000000E+03 0.  1.
         -6    1    1    2    0  503 -0.53591387403E+02  0.40935992184E+02 -0.82670231845E+03  0.84729777268E+03  0.17300000000E+03 0.  1.
</event>
<event>
 4    1  0.3065897E+000  0.1000000E+03  0.7546771E-02  0.1280296E+00
         21   -1    0    0  501  502  0.00000000000E+00  0.00000000000E+00  0.34142363661E+02  0.34142363661E+02  0.00000000000E+00 0.  1.
         21   -1    0    0  502  503 -0.00000000000E+00 -0.00000000000E+00 -0.11396517505E+04  0.11396517505E+04  0.00000000000E+00 0.  1.
          6    1    1    2  501    0  0.28790164812E+02 -0.86919296185E+02 -0.48002323172E+03  0.51839670198E+03  0.17300000000E+03 0.  1.
         -6    1    1    2    0  503 -0.28790164812E+02  0.86919296185E+02 -0.62548615510E+03  0.65539741216E+03  0.17300000000E+03 0.  1.
</event>
<event>
 4    1  0.3065897E+000  0.1000000E+03  0.7546771E-02  0.1280296E+00
         21   -1    0    0  501  502  0.00000000000E+00  0.00000000000E+00  0.19768568684E+03  0.19768568684E+03  0.00000000000E+00 0. -1.
         21   -1    0    0  502  503 -0.00000000000E+00 -0.00000000000E+00 -0.20334548549E+03  0.20334548549E+03  0.00000000000E+00 0. -1.
          6    1    1    2  501    0  0.30006293228E+02  0.21610969653E+02  0.91530334840E+02  0.19918386942E+03  0.17300000000E+03 0. -1.
         -6    1    1    2    0  503 -0.30006293228E+02 -0.21610969653E+02 -0.97190133486E+02  0.20184730290E+03  0.17300000000E+03 0. -1.
</event>
<event>
 4    1  0.3065897E+000  0.1000000E+03  0.7546771E-02  0.1280296E+00
         21   -1    0    0  501  502  0.00000000000E+00  0.00000000000E+00  0.49287172879E+03  0.49287172879E+03  0.00000000000E+00 0. -1.
         21   -1    0    0  502  503 -0.00000000000E+00 -0.00000000000E+00 -0.73234905312E+02  0.73234905312E+02  0.00000000000E+00 0. -1.
          6    1    1    2  501    0 -0.57409814097E+02  0.24078780243E+02  0.28112507756E+03  0.33591067808E+03  0.17300000000E+03 0. -1.
         -6    1    1    2    0  503  0.57409814097E+02 -0.24078780243E+02  0.13851174591E+03  0.23019595602E+03  0.17300000000E+03 0. -1.
</event>
<event>
 4    1  0.3065897E+000  0.1000000E+03  0.7546771E-02  0.1280296E+00
         21   -1    0    0  501  502  0.00000000000E+00  0.00000000000E+00  0.96819541404E+03  0.96819541404E+03  0.00000000000E+00 0. -1.
         21   -1    0    0  502  503 -0.00000000000E+00 -0.00000000000E+00 -0.47753981027E+02  0.47753981027E+02  0.00000000000E+00 0. -1.
          6    1    1    2  501    0  0.83976588393E+01  0.95606629269E+02  0.65921157098E+03  0.68825870394E+03  0.17300000000E+03 0. -1.
         -6    1    1    2    0  503 -0.83976588393E+01 -0.95606629269E+02  0.26122986204E+03  0.32769069113E+03  0.17300000000E+03 0. -1.
</event>
<event>
 4    1  0.3065897E+000  0.1000000E+03  0.7546771E-02  0.1280296E+00
         21   -1    0    0  501  502  0.00000000000E+00  0.00000000000E+00  0.22593096758E+03  0.22593096758E+03  0.00000000000E+00 0. -1.
         21   -1    0    0  502  503 -0.00000000000E+00 -0.00000000000E+00 -0.25365479586E+03  0.25365479586E+03  0.00000000000E+00 0. -1.
          6    1    1    2  501    0 -0.10660714521E+03 -0.74102181625E+02  0.88892845961E+02  0.23385284859E+03  0.17300000000E+03 0. -1.
         -6    1    1    2    0  503  0.10660714521E+03  0.74102181625E+02 -0.11661667424E+03  0.24573291485E+03  0.17300000000E+03 0. -1.
</event>
<event>
 4    1  0.3065897E+000  0.1000000E+03  0.7546771E-02  0.1280296E+00
         21   -1    0    0  503  502  0.00000000000E+00  0.00000000000E+00  0.31139060277E+03  0.31139060277E+03  0.00000000000E+00 0.  1.
         21   -1    0    0  501  503 -0.00000000000E+00 -0.00000000000E+00 -0.23123987720E+03  0.23123987720E+03  0.00000000000E+00 0.  1.
          6    1    1    2  501    0 -0.18698354311E+03 -0.25981158223E+02 -0.41058334527E+02  0.25933116436E+03  0.17300000000E+03 0.  1.
         -6    1    1    2    0  502  0.18698354311E+03  0.25981158223E+02  0.12120906009E+03  0.28329931561E+03  0.17300000000E+03 0.  1.
</event>
<event>
 4    1  0.3065897E+000  0.1000000E+03  0.7546771E-02  0.1280296E+00
         21   -1    0    0  503  502  0.00000000000E+00  0.00000000000E+00  0.88398050964E+02  0.88398050964E+02  0.00000000000E+00 0.  1.
         21   -1    0    0  501  503 -0.00000000000E+00 -0.00000000000E+00 -0.65862727449E+03  0.65862727449E+03  0.00000000000E+00 0.  1.
          6    1    1    2  501    0  0.94405377543E+02  0.10096547352E+03 -0.43347792648E+03  0.48676330480E+03  0.17300000000E+03 0.  1.
         -6    1    1    2    0  502 -0.94405377543E+02 -0.10096547352E+03 -0.13675129704E+03  0.26026202065E+03  0.17300000000E+03 0.  1.
</event>
<event>
 4    1  0.3065897E+000  0.1000000E+03  0.7546771E-02  0.1280296E+00
         21   -1    0    0  503  502  0.00000000000E+00  0.00000000000E+00  0.50198684676E+03  0.50198684676E+03  0.00000000000E+00 0.  1.
         21   -1    0    0  501  503 -0.00000000000E+00 -0.00000000000E+00 -0.76497183418E+03  0.76497183418E+03  0.00000000000E+00 0.  1.
          6    1    1    2  501    0 -0.84095030706E+02 -0.38107241516E+03 -0.59070311049E+03  0.72879854866E+03  0.17300000000E+03 0.  1.
         -6    1    1    2    0  502  0.84095030706E+02  0.38107241516E+03  0.32771812307E+03  0.53816013228E+03  0.17300000000E+03 0.  1.
</event>
<event>
 4    1  0.3065897E+000  0.1000000E+03  0.7546771E-02  0.1280296E+00
         21   -1    0    0  503  502  0.00000000000E+00  0.00000000000E+00  0.39701791065E+02  0.39701791065E+02  0.00000000000E+00 0.  1.
         21   -1    0    0  501  503 -0.00000000000E+00 -0.00000000000E+00 -0.98962504902E+03  0.98962504902E+03  0.00000000000E+00 0.  1.
          6    1    1    2  501    0  0.45622920356E+02  0.77699724269E+02 -0.56647335295E+03  0.59911581319E+03  0.17300000000E+03 0.  1.
         -6    1    1    2    0  502 -0.45622920356E+02 -0.77699724269E+02 -0.38344990500E+03  0.43021102689E+03  0.17300000000E+03 0.  1.
</event>
<event>
 4    1  0.3065897E+000  0.1000000E+03  0.7546771E-02  0.1280296E+00
         21   -1    0    0  503  502  0.00000000000E+00  0.00000000000E+00  0.51157094529E+03  0.51157094529E+03  0.00000000000E+00 0.  1.
         21   -1    0    0  501  503 -0.00000000000E+00 -0.00000000000E+00 -0.14756744681E+03  0.14756744681E+03  0.00000000000E+00 0.  1.
          6    1    1    2  501    0 -0.20912039343E+01 -0.17878275059E+02 -0.73122132014E+02  0.18867923056E+03  0.17300000000E+03 0.  1.
         -6    1    1    2    0  502  0.20912039343E+01  0.17878275059E+02  0.43712563049E+03  0.47045916155E+03  0.17300000000E+03 0.  1.
</event>
<event>
 4    1  0.3065897E+000  0.1000000E+03  0.7546771E-02  0.1280296E+00
         21   -1    0    0  503  502  0.00000000000E+00  0.00000000000E+00  0.14329718118E+03  0.14329718118E+03  0.00000000000E+00 0. -1.
         21   -1    0    0  501  503 -0.00000000000E+00 -0.00000000000E+00 -0.10517041990E+04  0.10517041990E+04  0.00000000000E+00 0.  1.
          6    1    1    2  501    0 -0.11882894411E+03 -0.11647881044E+03 -0.92379844259E+03  0.95447377846E+03  0.17300000000E+03 0.  1.
         -6    1    1    2    0  502  0.11882894411E+03  0.11647881044E+03  0.15391424749E+02  0.24052760173E+03  0.17300000000E+03 0. -1.
</event>
<event>
 4    1  0.3065897E+000  0.1000000E+03  0.7546771E-02  0.1280296E+00
         21   -1    0    0  503  502  0.00000000000E+00  0.00000000000E+00  0.26149869578E+03  0.26149869578E+03  0.00000000000E+00 0. -1.
         21   -1    0    0  501  503 -0.00000000000E+00 -0.00000000000E+00 -0.12986490528E+03  0.12986490528E+03  0.00000000000E+00 0.  1.
          6    1    1    2  501    0  0.90795628815E+01 -0.57310548367E+00 -0.90123182772E+00  0.17324138977E+03  0.17300000000E+03 0.  1.
         -6    1    1    2    0  502 -0.90795628815E+01  0.57310548367E+00  0.13253502233E+03  0.21812221129E+03  0.17300000000E+03 0. -1.
</event>
<event>
 4    1  0.3065897E+000  0.1000000E+03  0.7546771E-02  0.1280296E+00
         21   -1    0    0  503  502  0.00000000000E+00  0.00000000000E+00  0.68818812486E+03  0.68818812486E+03  0.00000000000E+00 0. -1.
         21   -1    0    0  501  503 -0.00000000000E+00 -0.00000000000E+00 -0.10062635433E+03  0.10062635433E+03  0.00000000000E+00 0.  1.
          6    1    1    2  501    0  0.12139878448E+03 -0.10653477285E+03  0.12136652740E+03  0.26598149686E+03  0.17300000000E+03 0.  1.
         -6    1    1    2    0  502 -0.12139878448E+03  0.10653477285E+03  0.46619524313E+03  0.52283298233E+03  0.17300000000E+03 0. -1.
</event>
<event>
 4    1  0.3065897E+000  0.1000000E+03  0.7546771E-02  0.1280296E+00
         21   -1    0    0  501  502  0.00000000000E+00  0.00000000000E+00  0.67765976397E+03  0.67765976397E+03  0.00000000000E+00 0.  1.
         21   -1    0    0  502  503 -0.00000000000E+00 -0.00000000000E+00 -0.29454658162E+03  0.29454658162E+03  0.00000000000E+00 0. -1.
          6    1    1    2  501    0 -0.14238054350E+03 -0.55252084468E+02  0.60779249091E+03  0.65012746751E+03  0.17300000000E+03 0. -1.
         -6    1    1    2    0  503  0.14238054350E+03  0.55252084468E+02 -0.22467930857E+03  0.32207887808E+03  0.17300000000E+03 0.  1.
</event>
<event>
 4    1  0.3065897E+000  0.1000000E+03  0.7546771E-02  0.1280296E+00
         21   -1    0    0  503  502  0.00000000000E+00  0.00000000000E+00  0.24675326564E+03  0.24675326564E+03  0.00000000000E+00 0. -1.
         21   -1    0    0  501  503 -0.00000000000E+00 -0.00000000000E+00 -0.38811005825E+03  0.38811005825E+03  0.00000000000E+00 0. -1.
          6    1    1    2  501    0 -0.11010934684E+03  0.16298654483E+03 -0.23969298573E+03  0.35506395123E+03  0.17300000000E+03 0. -1.
         -6    1    1    2    0  502  0.11010934684E+03 -0.16298654483E+03  0.98336193125E+02  0.27979937265E+03  0.17300000000E+03 0. -1.
</event>
<event>
 4    1  0.3065897E+000  0.1000000E+03  0.7546771E-02  0.1280296E+00
         21   -1    0    0  503  502  0.00000000000E+00  0.00000000000E+00  0.17567686862E+03  0.17567686862E+03  0.00000000000E+00 0.  1.
         21   -1    0    0  501  503 -0.00000000000E+00 -0.00000000000E+00 -0.18782684436E+03  0.18782684436E+03  0.00000000000E+00 0. -1.
          6    1    1    2  501    0 -0.26601607546E+02 -0.42521597343E+02 -0.29584934593E+02  0.18253766767E+03  0.17300000000E+03 0. -1.
         -6    1    1    2    0  502  0.26601607546E+02  0.42521597343E+02  0.17434958851E+02  0.18096604531E+03  0.17300000000E+03 0.  1.
</event>
<event>
 4    1  0.3065897E+000  0.1000000E+03  0.7546771E-02  0.1280296E+00
         21   -1    0    0  501  502  0.00000000000E+00  0.00000000000E+00  0.33099876518E+02  0.33099876518E+02  0.00000000000E+00 0.  1.
         21   -1    0    0  502  503 -0.00000000000E+00 -0.00000000000E+00 -0.24629124356E+04  0.24629124356E+04  0.00000000000E+00 0. -1.
          6    1    1    2  501    0 -0.28042415972E+02 -0.38760531621E+02 -0.24434795969E+03  0.30318918403E+03  0.17300000000E+03 0. -1.
         -6    1    1    2    0  503  0.28042415972E+02  0.38760531621E+02 -0.21854645994E+04  0.21928231281E+04  0.17300000000E+03 0.  1.
</event>
<event>
 4    1  0.3065897E+000  0.1000000E+03  0.7546771E-02  0.1280296E+00
         21   -1    0    0  501  502  0.00000000000E+00  0.00000000000E+00  0.22010873546E+03  0.22010873546E+03  0.00000000000E+00 0.  1.
         21   -1    0    0  502  503 -0.00000000000E+00 -0.00000000000E+00 -0.31004264825E+03  0.31004264825E+03  0.00000000000E+00 0. -1.
          6    1    1    2  501    0 -0.13108176177E+03  0.10998851522E+03  0.51479269902E+02  0.24871473012E+03  0.17300000000E+03 0. -1.
         -6    1    1    2    0  503  0.13108176177E+03 -0.10998851522E+03 -0.14141318269E+03  0.28143665360E+03  0.17300000000E+03 0.  1.
</event>
<event>
 4    1  0.3065897E+000  0.1000000E+03  0.7546771E-02  0.1280296E+00
         21   -1    0    0  501  502  0.00000000000E+00  0.00000000000E+00  0.19798829670E+03  0.19798829670E+03  0.00000000000E+00 0. -1.
         21   -1    0    0  502  503 -0.00000000000E+00 -0.00000000000E+00 -0.43615236895E+03  0.43615236895E+03  0.00000000000E+00 0.  1.
          6    1    1    2  501    0 -0.57497698262E+02  0.98167263620E+02  0.10591035415E+03  0.23256998961E+03  0.17300000000E+03 0. -1.
         -6    1    1    2    0  503  0.57497698262E+02 -0.98167263620E+02 -0.34407442640E+03  0.40157067604E+03  0.17300000000E+03 0.  1.
</event>
<event>
 4    1  0.3065897E+000  0.1000000E+03  0.7546771E-02  0.1280296E+00
         21   -1    0    0  501  502  0.00000000000E+00  0.00000000000E+00  0.82845397532E+03  0.82845397532E+03  0.00000000000E+00 0. -1.
         21   -1    0    0  502  503 -0.00000000000E+00 -0.00000000000E+00 -0.17004936931E+03  0.17004936931E+03  0.00000000000E+00 0.  1.
          6    1    1    2  501    0  0.23223908046E+03  0.10920711959E+03  0.61164332933E+03  0.68549088089E+03  0.17300000000E+03 0. -1.
         -6    1    1    2    0  503 -0.23223908046E+03 -0.10920711959E+03  0.46761276680E+02  0.31301246374E+03  0.17300000000E+03 0.  1.
</event>
<event>
 4    1  0.3065897E+000  0.1000000E+03  0.7546771E-02  0.1280296E+00
         21   -1    0    0  501  502  0.00000000000E+00  0.00000000000E+00  0.18004180874E+03  0.18004180874E+03  0.00000000000E+00 0. -1.
         21   -1    0    0  502  503 -0.00000000000E+00 -0.00000000000E+00 -0.24795924782E+03  0.24795924782E+03  0.00000000000E+00 0.  1.
          6    1    1    2  501    0 -0.10516774095E+03  0.59531582498E+02 -0.23347221121E+02  0.21231664039E+03  0.17300000000E+03 0. -1.
         -6    1    1    2    0  503  0.10516774095E+03 -0.59531582498E+02 -0.44570217962E+02  0.21568441618E+03  0.17300000000E+03 0.  1.
</event>
<event>
 4    1  0.3065897E+000  0.1000000E+03  0.7546771E-02  0.1280296E+00
         21   -1    0    0  501  502  0.00000000000E+00  0.00000000000E+00  0.41230188329E+03  0.41230188329E+03  0.00000000000E+00 0. -1.
         21   -1    0    0  502  503 -0.00000000000E+00 -0.00000000000E+00 -0.44215428020E+03  0.44215428020E+03  0.00000000000E+00 0. -1.
          6    1    1    2  501    0 -0.16137455743E+03  0.30206380739E+03  0.17250547417E+03  0.42067972395E+03  0.17300000000E+03 0. -1.
         -6    1    1    2    0  503  0.16137455743E+03 -0.30206380739E+03 -0.20235787108E+03  0.43377643955E+03  0.17300000000E+03 0. -1.
</event>
<event>
 4    1  0.3065897E+000  0.1000000E+03  0.7546771E-02  0.1280296E+00
         21   -1    0    0  503  502  0.00000000000E+00  0.00000000000E+00  0.13965816819E+03  0.13965816819E+03  0.00000000000E+00 0.  1.
         21   -1    0    0  501  503 -0.00000000000E+00 -0.00000000000E+00 -0.10907992804E+04  0.10907992804E+04  0.00000000000E+00 0.  1.
          6    1    1    2  501    0 -0.22258762439E+02  0.62815219904E+02 -0.10169660525E+04  0.10337263449E+04  0.17300000000E+03 0.  1.
         -6    1    1    2    0  502  0.22258762439E+02 -0.62815219904E+02  0.65824940311E+02  0.19673110360E+03  0.17300000000E+03 0.  1.
</event>
<event>
 4    1  0.3065897E+000  0.1000000E+03  0.7546771E-02  0.1280296E+00
         21   -1    0    0  503  502  0.00000000000E+00  0.00000000000E+00  0.91654443347E+03  0.91654443347E+03  0.00000000000E+00 0.  1.
         21   -1    0    0  501  503 -0.00000000000E+00 -0.00000000000E+00 -0.68862449002E+02  0.68862449002E+02  0.00000000000E+00 0.  1.
          6    1    1    2  501    0 -0.61826887876E+02 -0.18989128191E+02  0.89844709816E+02  0.20538798148E+03  0.17300000000E+03 0.  1.
         -6    1    1    2    0  502  0.61826887876E+02  0.18989128191E+02  0.75783727465E+03  0.78001890099E+03  0.17300000000E+03 0.  1.
</event>
<event>
 4    1  0.3065897E+000  0.1000000E+03  0.7546771E-02  0.1280296E+00
         21   -1    0    0  503  502  0.00000000000E+00  0.00000000000E+00  0.40275863260E+02  0.40275863260E+02  0.00000000000E+00 0.  1.
         21   -1    0    0  501  503 -0.00000000000E+00 -0.00000000000E+00 -0.14598627090E+04  0.14598627090E+04  0.00000000000E+00 0.  1.
          6    1    1    2  501    0 -0.10944868657E+03 -0.31944323663E+02 -0.10994613501E+04  0.11188135301E+04  0.17300000000E+03 0.  1.
         -6    1    1    2    0  502  0.10944868657E+03  0.31944323663E+02 -0.32012549563E+03  0.38132504214E+03  0.17300000000E+03 0.  1.
</event>
<event>
 4    1  0.3065897E+000  0.1000000E+03  0.7546771E-02  0.1280296E+00
         21   -1    0    0  503  502  0.00000000000E+00  0.00000000000E+00  0.41894904688E+03  0.41894904688E+03  0.00000000000E+00 0.  1.
         21   -1    0    0  501  503 -0.00000000000E+00 -0.00000000000E+00 -0.13486150129E+03  0.13486150129E+03  0.00000000000E+00 0.  1.
          6    1    1    2  501    0  0.46610029949E+02  0.99960852926E+02  0.22187746462E+01  0.20517940923E+03  0.17300000000E+03 0.  1.
         -6    1    1    2    0  502 -0.46610029949E+02 -0.99960852926E+02  0.28186877094E+03  0.34863113894E+03  0.17300000000E+03 0.  1.
</event>
<event>
 4    1  0.3065897E+000  0.1000000E+03  0.7546771E-02  0.1280296E+00
         21   -1    0    0  503  502  0.00000000000E+00  0.00000000000E+00  0.15830223344E+03  0.15830223344E+03  0.00000000000E+00 0.  1.
         21   -1    0    0  501  503 -0.00000000000E+00 -0.00000000000E+00 -0.12618497464E+04  0.12618497464E+04  0.00000000000E+00 0.  1.
          6    1    1    2  501    0  0.75989435222E+02  0.16252008236E+03 -0.11411950373E+04  0.11680934400E+04  0.17300000000E+03 0.  1.
         -6    1    1    2    0  502 -0.75989435222E+02 -0.16252008236E+03  0.37647524307E+02  0.25205853987E+03  0.17300000000E+03 0.  1.
</event>
<event>
 4    1  0.3065897E+000  0.1000000E+03  0.7546771E-02  0.1280296E+00
         21   -1    0    0  503  502  0.00000000000E+00  0.00000000000E+00  0.72864781572E+03  0.72864781572E+03  0.00000000000E+00 0.  1.
         21   -1    0    0  501  503 -0.00000000000E+00 -0.00000000000E+00 -0.52205809614E+02  0.52205809614E+02  0.00000000000E+00 0.  1.
          6    1    1    2  501    0 -0.51842348958E+02  0.43779764280E+02  0.21968530682E+03  0.28774108316E+03  0.17300000000E+03 0.  1.
         -6    1    1    2    0  502  0.51842348958E+02 -0.43779764280E+02  0.45675669928E+03  0.49311254217E+03  0.17300000000E+03 0.  1.
</event>
<event>
 4    1  0.3065897E+000  0.1000000E+03  0.7546771E-02  0.1280296E+00
         21   -1    0    0  503  502  0.00000000000E+00  0.00000000000E+00  0.11935688182E+04  0.11935688182E+04  0.00000000000E+00 0.  1.
         21   -1    0    0  501  503 -0.00000000000E+00 -0.00000000000E+00 -0.14264398347E+03  0.14264398347E+03  0.00000000000E+00 0.  1.
          6    1    1    2  501    0 -0.16662154066E+03  0.32656907058E+03  0.40091898819E+03  0.57015360278E+03  0.17300000000E+03 0.  1.
         -6    1    1    2    0  502  0.16662154066E+03 -0.32656907058E+03  0.65000584657E+03  0.76605919892E+03  0.17300000000E+03 0.  1.
</event>
<event>
 4    1  0.3065897E+000  0.1000000E+03  0.7546771E-02  0.1280296E+00
         21   -1    0    0  501  502  0.00000000000E+00  0.00000000000E+00  0.93787775191E+02  0.93787775191E+02  0.00000000000E+00 0. -1.
         21   -1    0    0  502  503 -0.00000000000E+00 -0.00000000000E+00 -0.95635540619E+03  0.95635540619E+03  0.00000000000E+00 0. -1.
          6    1    1    2  501    0 -0.74181534109E+02 -0.10996444927E+03 -0.71253202890E+02  0.22934929481E+03  0.17300000000E+03 0.  1.
         -6    1    1    2    0  503  0.74181534109E+02  0.10996444927E+03 -0.79131442811E+03  0.82079388657E+03  0.17300000000E+03 0.  1.
</event>
<event>
 4    1  0.3065897E+000  0.1000000E+03  0.7546771E-02  0.1280296E+00
         21   -1    0    0  501  502  0.00000000000E+00  0.00000000000E+00  0.28883682727E+03  0.28883682727E+03  0.00000000000E+00 0. -1.
         21   -1    0    0  502  503 -0.00000000000E+00 -0.00000000000E+00 -0.15423116720E+03  0.15423116720E+03  0.00000000000E+00 0. -1.
          6    1    1    2  501    0 -0.68331544970E+02 -0.85810464415E+02  0.13927235978E+02  0.20531829861E+03  0.17300000000E+03 0.  1.
         -6    1    1    2    0  503  0.68331544970E+02  0.85810464415E+02  0.12067842409E+03  0.23774969586E+03  0.17300000000E+03 0.  1.
</event>
<event>
 4    1  0.3065897E+000  0.1000000E+03  0.7546771E-02  0.1280296E+00
         21   -1    0    0  503  502  0.00000000000E+00  0.00000000000E+00  0.53224799231E+03  0.53224799231E+03  0.00000000000E+00 0.  1.
         21   -1    0    0  501  503 -0.00000000000E+00 -0.00000000000E+00 -0.61361728633E+02  0.61361728633E+02  0.00000000000E+00 0. -1.
          6    1    1    2  501    0 -0.44173041159E+02 -0.27916676089E+02  0.23504589912E+03  0.29648975203E+03  0.17300000000E+03 0. -1.
         -6    1    1    2    0  502  0.44173041159E+02  0.27916676089E+02  0.23584036456E+03  0.29711996891E+03  0.17300000000E+03 0.  1.
</event>
<event>
 4    1  0.3065897E+000  0.1000000E+03  0.7546771E-02  0.1280296E+00
         21   -1    0    0  503  502  0.00000000000E+00  0.00000000000E+00  0.15445991761E+03  0.15445991761E+03  0.00000000000E+00 0.  1.
         21   -1    0    0  501  503 -0.00000000000E+00 -0.00000000000E+00 -0.63277194063E+03  0.63277194063E+03  0.00000000000E+00 0. -1.
          6    1    1    2  501    0 -0.10064403199E+03  0.17055113669E+03 -0.45204997845E+03  0.52296758448E+03  0.17300000000E+03 0. -1.
         -6    1    1    2    0  502  0.10064403199E+03 -0.17055113669E+03 -0.26262044573E+02  0.26426427376E+03  0.17300000000E+03 0.  1.
</event>
<event>
 4    1  0.3065897E+000  0.1000000E+03  0.7546771E-02  0.1280296E+00
         21   -1    0    0  503  502  0.00000000000E+00  0.00000000000E+00  0.15193777760E+03  0.15193777760E+03  0.00000000000E+00 0. -1.
         21   -1    0    0  501  503 -0.00000000000E+00 -0.00000000000E+00 -0.29473571628E+03  0.29473571628E+03  0.00000000000E+00 0.  1.
          6    1    1    2  501    0  0.92073827763E+01 -0.76389106045E+02 -0.17114495901E+03  0.25522474100E+03  0.17300000000E+03 0.  1.
         -6    1    1    2    0  502 -0.92073827763E+01  0.76389106045E+02  0.28347020340E+02  0.19144875289E+03  0.17300000000E+03 0. -1.
</event>
<event>
 4    1  0.3065897E+000  0.1000000E+03  0.7546771E-02  0.1280296E+00
         21   -1    0    0  503  502  0.00000000000E+00  0.00000000000E+00  0.29506649478E+02  0.29506649478E+02  0.00000000000E+00 0. -1.
         21   -1    0    0  501  503 -0.00000000000E+00 -0.00000000000E+00 -0.23797491132E+04  0.23797491132E+04  0.00000000000E+00 0.  1.
          6    1    1    2  501    0  0.14630848882E+03 -0.11961836736E+03 -0.14825952744E+04  0.15045705285E+04  0.17300000000E+03 0.  1.
         -6    1    1    2    0  502 -0.14630848882E+03  0.11961836736E+03 -0.86764718930E+03  0.90468523411E+03  0.17300000000E+03 0. -1.
</event>
<event>
 4    1  0.3065897E+000  0.1000000E+03  0.7546771E-02  0.1280296E+00
         21   -1    0    0  503  502  0.00000000000E+00  0.00000000000E+00  0.19860783907E+03  0.19860783907E+03  0.00000000000E+00 0. -1.
         21   -1    0    0  501  503 -0.00000000000E+00 -0.00000000000E+00 -0.24306578589E+03  0.24306578589E+03  0.00000000000E+00 0.  1.
          6    1    1    2  501    0  0.14243835573E+02  0.12172901929E+03  0.35727584116E+02  0.21500302616E+03  0.17300000000E+03 0.  1.
         -6    1    1    2    0  502 -0.14243835573E+02 -0.12172901929E+03 -0.80185530942E+02  0.22667059880E+03  0.17300000000E+03 0. -1.
</event>
<event>
 4    1  0.3065897E+000  0.1000000E+03  0.7546771E-02  0.1280296E+00
         21   -1    0    0  501  502  0.00000000000E+00  0.00000000000E+00  0.82320294840E+03  0.82320294840E+03  0.00000000000E+00 0. -1.
         21   -1    0    0  502  503 -0.00000000000E+00 -0.00000000000E+00 -0.51266955558E+02  0.51266955558E+02  0.00000000000E+00 0.  1.
          6    1    1    2  501    0  0.98692375720E+02  0.50896886964E+01  0.49255593459E+03  0.53132517224E+03  0.17300000000E+03 0. -1.
         -6    1    1    2    0  503 -0.98692375720E+02 -0.50896886964E+01  0.27938005825E+03  0.34314473172E+03  0.17300000000E+03 0.  1.
</event>
<event>
 4    1  0.3065897E+000  0.1000000E+03  0.7546771E-02  0.1280296E+00
         21   -1    0    0  501  502  0.00000000000E+00  0.00000000000E+00  0.12352215289E+04  0.12352215289E+04  0.00000000000E+00 0. -1.
         21   -1    0    0  502  503 -0.00000000000E+00 -0.00000000000E+00 -0.10163321931E+03  0.10163321931E+03  0.00000000000E+00 0.  1.
          6    1    1    2  501    0  0.62606196480E+02  0.65777573502E+01  0.11379108220E+04  0.11527067457E+04  0.17300000000E+03 0. -1.
         -6    1    1    2    0  503 -0.62606196480E+02 -0.65777573502E+01 -0.43225123897E+01  0.18414800255E+03  0.17300000000E+03 0.  1.
</event>
<event>
 4    1  0.3065897E+000  0.1000000E+03  0.7546771E-02  0.1280296E+00
         21   -1    0    0  501  502  0.00000000000E+00  0.00000000000E+00  0.35694297748E+03  0.35694297748E+03  0.00000000000E+00 0. -1.
         21   -1    0    0  502  503 -0.00000000000E+00 -0.00000000000E+00 -0.19740196745E+03  0.19740196745E+03  0.00000000000E+00 0.  1.
          6    1    1    2  501    0  0.11664918362E+03 -0.66661278457E+02  0.23633290217E+03  0.32223128143E+03  0.17300000000E+03 0. -1.
         -6    1    1    2    0  503 -0.11664918362E+03  0.66661278457E+02 -0.76791892143E+02  0.23211366350E+03  0.17300000000E+03 0.  1.
</event>
<event>
 4    1  0.3065897E+000  0.1000000E+03  0.7546771E-02  0.1280296E+00
         21   -1    0    0  503  502  0.00000000000E+00  0.00000000000E+00  0.62216188606E+03  0.62216188606E+03  0.00000000000E+00 0.  1.
         21   -1    0    0  501  503 -0.00000000000E+00 -0.00000000000E+00 -0.22685813169E+03  0.22685813169E+03  0.00000000000E+00 0. -1.
          6    1    1    2  501    0 -0.14741639846E+03  0.12962109587E+02 -0.14003836918E+03  0.26728141661E+03  0.17300000000E+03 0. -1.
         -6    1    1    2    0  502  0.14741639846E+03 -0.12962109587E+02  0.53534212355E+03  0.58173860115E+03  0.17300000000E+03 0.  1.
</event>
<event>
 4    1  0.3065897E+000  0.1000000E+03  0.7546771E-02  0.1280296E+00
         21   -1    0    0  501  502  0.00000000000E+00  0.00000000000E+00  0.66189039918E+03  0.66189039918E+03  0.00000000000E+00 0.  1.
         21   -1    0    0  502  503 -0.00000000000E+00 -0.00000000000E+00 -0.65595190459E+02  0.65595190459E+02  0.00000000000E+00 0.  1.
          6    1    1    2  501    0  0.16916585399E+01 -0.92491191710E+02  0.17557201366E+03  0.26327174978E+03  0.17300000000E+03 0.  1.
         -6    1    1    2    0  503 -0.16916585399E+01  0.92491191710E+02  0.42072319506E+03  0.46421383985E+03  0.17300000000E+03 0.  1.
</event>
<event>
 4    1  0.3065897E+000  0.1000000E+03  0.7546771E-02  0.1280296E+00
         21   -1    0    0  501  502  0.00000000000E+00  0.00000000000E+00  0.13975298236E+04  0.13975298236E+04  0.00000000000E+00 0.  1.
         21   -1    0    0  502  503 -0.00000000000E+00 -0.00000000000E+00 -0.26098042624E+02  0.26098042624E+02  0.00000000000E+00 0.  1.
          6    1    1    2  501    0  0.14716136287E+02  0.77809880139E+02  0.74728240704E+03  0.77112316655E+03  0.17300000000E+03 0.  1.
         -6    1    1    2    0  503 -0.14716136287E+02 -0.77809880139E+02  0.62414937394E+03  0.65250469968E+03  0.17300000000E+03 0.  1.
</event>
<event>
 4    1  0.3065897E+000  0.1000000E+03  0.7546771E-02  0.1280296E+00
         21   -1    0    0  501  502  0.00000000000E+00  0.00000000000E+00  0.10866556576E+04  0.10866556576E+04  0.00000000000E+00 0. -1.
         21   -1    0    0  502  503 -0.00000000000E+00 -0.00000000000E+00 -0.29757578515E+02  0.29757578515E+02  0.00000000000E+00 0.  1.
          6    1    1    2  501    0 -0.47809622687E+02  0.10873161409E+02  0.52284821838E+03  0.55290437249E+03  0.17300000000E+03 0. -1.
         -6    1    1    2    0  503  0.47809622687E+02 -0.10873161409E+02  0.53404986071E+03  0.56350886363E+03  0.17300000000E+03 0.  1.
</event>
<event>
 4    1  0.3065897E+000  0.1000000E+03  0.7546771E-02  0.1280296E+00
         21   -1    0    0  501  502  0.00000000000E+00  0.00000000000E+00  0.28659091856E+03  0.28659091856E+03  0.00000000000E+00 0. -1.
         21   -1    0    0  502  503 -0.00000000000E+00 -0.00000000000E+00 -0.16657696014E+03  0.16657696014E+03  0.00000000000E+00 0.  1.
          6    1    1    2  501    0  0.32059147214E+02  0.11515434504E+03  0.12155204687E+03  0.24288312457E+03  0.17300000000E+03 0. -1.
         -6    1    1    2    0  503 -0.32059147214E+02 -0.11515434504E+03 -0.15380884527E+01  0.21028475413E+03  0.17300000000E+03 0.  1.
</event>
<event>
 4    1  0.3065897E+000  0.1000000E+03  0.7546771E-02  0.1280296E+00
         21   -1    0    0  501  502  0.00000000000E+00  0.00000000000E+00  0.30523889274E+03  0.30523889274E+03  0.00000000000E+00 0.  1.
         21   -1    0    0  502  503 -0.00000000000E+00 -0.00000000000E+00 -0.15958799632E+03  0.15958799632E+03  0.00000000000E+00 0.  1.
          6    1    1    2  501    0 -0.57952518295E+02  0.33505337180E+02  0.19876005016E+03  0.27187434513E+03  0.17300000000E+03 0.  1.
         -6    1    1    2    0  503  0.57952518295E+02 -0.33505337180E+02 -0.53109153745E+02  0.19295254393E+03  0.17300000000E+03 0.  1.
</event>
<event>
 4    1  0.3065897E+000  0.1000000E+03  0.7546771E-02  0.1280296E+00
         21   -1    0    0  501  502  0.00000000000E+00  0.00000000000E+00  0.15226192845E+03  0.15226192845E+03  0.00000000000E+00 0.  1.
         21   -1    0    0  502  503 -0.00000000000E+00 -0.00000000000E+00 -0.39777523037E+03  0.39777523037E+03  0.00000000000E+00 0.  1.
          6    1    1    2  501    0 -0.26832492115E+02 -0.12634795644E+03  0.92467002278E+01  0.21609787180E+03  0.17300000000E+03 0.  1.
         -6    1    1    2    0  503  0.26832492115E+02  0.12634795644E+03 -0.25476000214E+03  0.33393928703E+03  0.17300000000E+03 0.  1.
</event>
<event>
 4    1  0.3065897E+000  0.1000000E+03  0.7546771E-02  0.1280296E+00
         21   -1    0    0  503  502  0.00000000000E+00  0.00000000000E+00  0.10188703917E+04  0.10188703917E+04  0.00000000000E+00 0.  1.
         21   -1    0    0  501  503 -0.00000000000E+00 -0.00000000000E+00 -0.81885110900E+02  0.81885110900E+02  0.00000000000E+00 0.  1.
          6    1    1    2  501    0 -0.20513090932E+03  0.23455538522E+02  0.26980864151E+03  0.38125392494E+03  0.17300000000E+03 0.  1.
         -6    1    1    2    0  502  0.20513090932E+03 -0.23455538522E+02  0.66717663928E+03  0.71950157766E+03  0.17300000000E+03 0.  1.
</event>
<event>
 4    1  0.3065897E+000  0.1000000E+03  0.7546771E-02  0.1280296E+00
         21   -1    0    0  503  502  0.00000000000E+00  0.00000000000E+00  0.10023775031E+04  0.10023775031E+04  0.00000000000E+00 0.  1.
         21   -1    0    0  501  503 -0.00000000000E+00 -0.00000000000E+00 -0.48305772613E+02  0.48305772613E+02  0.00000000000E+00 0.  1.
          6    1    1    2  501    0  0.72390729762E+02 -0.65109753644E+02  0.25039649066E+03  0.31954201650E+03  0.17300000000E+03 0.  1.
         -6    1    1    2    0  502 -0.72390729762E+02  0.65109753644E+02  0.70367523984E+03  0.73114125922E+03  0.17300000000E+03 0.  1.
</event>
<event>
 4    1  0.3065897E+000  0.1000000E+03  0.7546771E-02  0.1280296E+00
         21   -1    0    0  503  502  0.00000000000E+00  0.00000000000E+00  0.13007496797E+04  0.13007496797E+04  0.00000000000E+00 0.  1.
         21   -1    0    0  501  503 -0.00000000000E+00 -0.00000000000E+00 -0.12771087967E+03  0.12771087967E+03  0.00000000000E+00 0.  1.
          6    1    1    2  501    0  0.19274468822E+03 -0.38661497708E+02  0.39211872995E+02  0.26478632372E+03  0.17300000000E+03 0.  1.
         -6    1    1    2    0  502 -0.19274468822E+03  0.38661497708E+02  0.11338269271E+04  0.11636742357E+04  0.17300000000E+03 0.  1.
</event>
<event>
 4    1  0.3065897E+000  0.1000000E+03  0.7546771E-02  0.1280296E+00
         21   -1    0    0  503  502  0.00000000000E+00  0.00000000000E+00  0.12291480134E+03  0.12291480134E+03  0.00000000000E+00 0.  1.
         21   -1    0    0  501  503 -0.00000000000E+00 -0.00000000000E+00 -0.43666389974E+03  0.43666389974E+03  0.00000000000E+00 0.  1.
          6    1    1    2  501    0  0.36356660684E+02  0.13368794344E+03 -0.23833037878E+03  0.32546066190E+03  0.17300000000E+03 0.  1.
         -6    1    1    2    0  502 -0.36356660684E+02 -0.13368794344E+03 -0.75418719622E+02  0.23411803917E+03  0.17300000000E+03 0.  1.
</event>
<event>
 4    1  0.3065897E+000  0.1000000E+03  0.7546771E-02  0.1280296E+00
         21   -1    0    0  501  502  0.00000000000E+00  0.00000000000E+00  0.20329600208E+03  0.20329600208E+03  0.00000000000E+00 0.  1.
         21   -1    0    0  502  503 -0.00000000000E+00 -0.00000000000E+00 -0.15025559606E+03  0.15025559606E+03  0.00000000000E+00 0.  1.
          6    1    1    2  501    0  0.87917567769E+01  0.16994683404E+01  0.30777804333E+01  0.17325892737E+03  0.17300000000E+03 0.  1.
         -6    1    1    2    0  503 -0.87917567769E+01 -0.16994683404E+01  0.49962625584E+02  0.18029267077E+03  0.17300000000E+03 0.  1.
</event>
<event>
 4    1  0.3065897E+000  0.1000000E+03  0.7546771E-02  0.1280296E+00
         21   -1    0    0  501  502  0.00000000000E+00  0.00000000000E+00  0.53795015474E+02  0.53795015474E+02  0.00000000000E+00 0.  1.
         21   -1    0    0  502  503 -0.00000000000E+00 -0.00000000000E+00 -0.56838247811E+03  0.56838247811E+03  0.00000000000E+00 0.  1.
          6    1    1    2  501    0 -0.24580770094E+02 -0.85571364562E+00 -0.24573693831E+03  0.30153041199E+03  0.17300000000E+03 0.  1.
         -6    1    1    2    0  503  0.24580770094E+02  0.85571364562E+00 -0.26885052432E+03  0.32064708159E+03  0.17300000000E+03 0.  1.
</event>
<event>
 4    1  0.3065897E+000  0.1000000E+03  0.7546771E-02  0.1280296E+00
         21   -1    0    0  501  502  0.00000000000E+00  0.00000000000E+00  0.10817569761E+04  0.10817569761E+04  0.00000000000E+00 0.  1.
         21   -1    0    0  502  503 -0.00000000000E+00 -0.00000000000E+00 -0.11900310275E+03  0.11900310275E+03  0.00000000000E+00 0.  1.
          6    1    1    2  501    0  0.20615226783E+03  0.83827358228E+02  0.85283283438E+03  0.89820856537E+03  0.17300000000E+03 0.  1.
         -6    1    1    2    0  503 -0.20615226783E+03 -0.83827358228E+02  0.10992103902E+03  0.30255151353E+03  0.17300000000E+03 0.  1.
</event>
<event>
 4    1  0.3065897E+000  0.1000000E+03  0.7546771E-02  0.1280296E+00
         21   -1    0    0  503  502  0.00000000000E+00  0.00000000000E+00  0.21343520024E+03  0.21343520024E+03  0.00000000000E+00 0. -1.
         21   -1    0    0  501  503 -0.00000000000E+00 -0.00000000000E+00 -0.55190115875E+03  0.55190115875E+03  0.00000000000E+00 0.  1.
          6    1    1    2  501    0  0.64358483050E+02 -0.10563138391E+03 -0.46958161097E+03  0.51549577396E+03  0.17300000000E+03 0.  1.
         -6    1    1    2    0  502 -0.64358483050E+02  0.10563138391E+03  0.13111565246E+03  0.24984058503E+03  0.17300000000E+03 0. -1.
</event>
<event>
 4    1  0.3065897E+000  0.1000000E+03  0.7546771E-02  0.1280296E+00
         21   -1    0    0  503  502  0.00000000000E+00  0.00000000000E+00  0.28889308182E+04  0.28889308182E+04  0.00000000000E+00 0. -1.
         21   -1    0    0  501  503 -0.00000000000E+00 -0.00000000000E+00 -0.40608347936E+02  0.40608347936E+02  0.00000000000E+00 0.  1.
          6    1    1    2  501    0  0.10654023075E+03  0.11255591246E+02  0.24591130074E+03  0.31918470661E+03  0.17300000000E+03 0.  1.
         -6    1    1    2    0  502 -0.10654023075E+03 -0.11255591246E+02  0.26024111695E+04  0.26103544595E+04  0.17300000000E+03 0. -1.
</event>
<event>
 4    1  0.3065897E+000  0.1000000E+03  0.7546771E-02  0.1280296E+00
         21   -1    0    0  503  502  0.00000000000E+00  0.00000000000E+00  0.13759298007E+04  0.13759298007E+04  0.00000000000E+00 0. -1.
         21   -1    0    0  501  503 -0.00000000000E+00 -0.00000000000E+00 -0.35215904807E+02  0.35215904807E+02  0.00000000000E+00 0.  1.
          6    1    1    2  501    0 -0.58649199698E+02 -0.43205114644E+02  0.30182348885E+03  0.35543329751E+03  0.17300000000E+03 0.  1.
         -6    1    1    2    0  502  0.58649199698E+02  0.43205114644E+02  0.10388904071E+04  0.10557124080E+04  0.17300000000E+03 0. -1.
</event>
<event>
 4    1  0.3065897E+000  0.1000000E+03  0.7546771E-02  0.1280296E+00
         21   -1    0    0  503  502  0.00000000000E+00  0.00000000000E+00  0.29694571091E+03  0.29694571091E+03  0.00000000000E+00 0. -1.
         21   -1    0    0  501  503 -0.00000000000E+00 -0.00000000000E+00 -0.30020934984E+04  0.30020934984E+04  0.00000000000E+00 0.  1.
          6    1    1    2  501    0 -0.84912076844E+02 -0.55109952033E+03 -0.26489425358E+04  0.27125165990E+04  0.17300000000E+03 0.  1.
         -6    1    1    2    0  502  0.84912076844E+02  0.55109952033E+03 -0.56205251760E+02  0.58652261033E+03  0.17300000000E+03 0. -1.
</event>
<event>
 4    1  0.3065897E+000  0.1000000E+03  0.7546771E-02  0.1280296E+00
         21   -1    0    0  501  502  0.00000000000E+00  0.00000000000E+00  0.11714668684E+03  0.11714668684E+03  0.00000000000E+00 0. -1.
         21   -1    0    0  502  503 -0.00000000000E+00 -0.00000000000E+00 -0.38974344466E+03  0.38974344466E+03  0.00000000000E+00 0. -1.
          6    1    1    2  501    0 -0.11425515111E+03 -0.36525190685E+02 -0.92882027208E+02  0.23009650169E+03  0.17300000000E+03 0. -1.
         -6    1    1    2    0  503  0.11425515111E+03  0.36525190685E+02 -0.17971473061E+03  0.27679362982E+03  0.17300000000E+03 0. -1.
</event>
<event>
 4    1  0.3065897E+000  0.1000000E+03  0.7546771E-02  0.1280296E+00
         21   -1    0    0  501  502  0.00000000000E+00  0.00000000000E+00  0.83300050957E+02  0.83300050957E+02  0.00000000000E+00 0. -1.
         21   -1    0    0  502  503 -0.00000000000E+00 -0.00000000000E+00 -0.49048380231E+03  0.49048380231E+03  0.00000000000E+00 0. -1.
          6    1    1    2  501    0 -0.37517128399E+02  0.55878365151E+02 -0.31712406736E+03  0.36745965863E+03  0.17300000000E+03 0. -1.
         -6    1    1    2    0  503  0.37517128399E+02 -0.55878365151E+02 -0.90059683993E+02  0.20632419465E+03  0.17300000000E+03 0. -1.
</event>
<event>
 4    1  0.3065897E+000  0.1000000E+03  0.7546771E-02  0.1280296E+00
         21   -1    0    0  501  502  0.00000000000E+00  0.00000000000E+00  0.54941834564E+02  0.54941834564E+02  0.00000000000E+00 0. -1.
         21   -1    0    0  502  503 -0.00000000000E+00 -0.00000000000E+00 -0.88124777081E+03  0.88124777081E+03  0.00000000000E+00 0. -1.
          6    1    1    2  501    0  0.20097451167E+02 -0.11973576439E+03 -0.54338622938E+03  0.58304215550E+03  0.17300000000E+03 0. -1.
         -6    1    1    2    0  503 -0.20097451167E+02  0.11973576439E+03 -0.28291970687E+03  0.35314744988E+03  0.17300000000E+03 0. -1.
</event>
<event>
 4    1  0.3065897E+000  0.1000000E+03  0.7546771E-02  0.1280296E+00
         21   -1    0    0  501  502  0.00000000000E+00  0.00000000000E+00  0.98679700060E+02  0.98679700060E+02  0.00000000000E+00 0. -1.
         21   -1    0    0  502  503 -0.00000000000E+00 -0.00000000000E+00 -0.54981060687E+03  0.54981060687E+03  0.00000000000E+00 0. -1.
          6    1    1    2  501    0 -0.47225665307E+02  0.84551132787E+02 -0.55377085817E+02  0.20585135208E+03  0.17300000000E+03 0. -1.
         -6    1    1    2    0  503  0.47225665307E+02 -0.84551132787E+02 -0.39575382099E+03  0.44263895485E+03  0.17300000000E+03 0. -1.
</event>
<event>
 4    1  0.3065897E+000  0.1000000E+03  0.7546771E-02  0.1280296E+00
         21   -1    0    0  501  502  0.00000000000E+00  0.00000000000E+00  0.16609881381E+03  0.16609881381E+03  0.00000000000E+00 0. -1.
         21   -1    0    0  502  503 -0.00000000000E+00 -0.00000000000E+00 -0.47929990832E+03  0.47929990832E+03  0.00000000000E+00 0. -1.
          6    1    1    2  501    0  0.11701911711E+03 -0.23484455312E+02  0.58697741429E+02  0.21821873948E+03  0.17300000000E+03 0. -1.
         -6    1    1    2    0  503 -0.11701911711E+03  0.23484455312E+02 -0.37189883594E+03  0.42717998266E+03  0.17300000000E+03 0. -1.
</event>
<event>
 4    1  0.3065897E+000  0.1000000E+03  0.7546771E-02  0.1280296E+00
         21   -1    0    0  501  502  0.00000000000E+00  0.00000000000E+00  0.50787927453E+03  0.50787927453E+03  0.00000000000E+00 0. -1.
         21   -1    0    0  502  503 -0.00000000000E+00 -0.00000000000E+00 -0.75540924943E+02  0.75540924943E+02  0.00000000000E+00 0. -1.
          6    1    1    2  501    0 -0.18496043158E+02 -0.89962490768E+02  0.21787816622E+03  0.29297653263E+03  0.17300000000E+03 0. -1.
         -6    1    1    2    0  503  0.18496043158E+02  0.89962490768E+02  0.21446018337E+03  0.29044366684E+03  0.17300000000E+03 0. -1.
</event>
<event>
 4    1  0.3065897E+000  0.1000000E+03  0.7546771E-02  0.1280296E+00
         21   -1    0    0  503  502  0.00000000000E+00  0.00000000000E+00  0.14168082856E+04  0.14168082856E+04  0.00000000000E+00 0. -1.
         21   -1    0    0  501  503 -0.00000000000E+00 -0.00000000000E+00 -0.28915288849E+02  0.28915288849E+02  0.00000000000E+00 0. -1.
          6    1    1    2  501    0 -0.10157170798E+03 -0.19664436922E+02  0.75930555453E+03  0.78560640723E+03  0.17300000000E+03 0. -1.
         -6    1    1    2    0  502  0.10157170798E+03  0.19664436922E+02  0.62858744226E+03  0.66011716725E+03  0.17300000000E+03 0. -1.
</event>
<event>
 4    1  0.3065897E+000  0.1000000E+03  0.7546771E-02  0.1280296E+00
         21   -1    0    0  503  502  0.00000000000E+00  0.00000000000E+00  0.32322787224E+03  0.32322787224E+03  0.00000000000E+00 0.  1.
         21   -1    0    0  501  503 -0.00000000000E+00 -0.00000000000E+00 -0.29298042332E+03  0.29298042332E+03  0.00000000000E+00 0.  1.
          6    1    1    2  501    0 -0.28271068954E+02 -0.12892025659E+03 -0.20274118542E+03  0.29740994295E+03  0.17300000000E+03 0.  1.
         -6    1    1    2    0  502  0.28271068954E+02  0.12892025659E+03  0.23298863434E+03  0.31879835261E+03  0.17300000000E+03 0.  1.
</event>
<event>
 4    1  0.3065897E+000  0.1000000E+03  0.7546771E-02  0.1280296E+00
         21   -1    0    0  503  502  0.00000000000E+00  0.00000000000E+00  0.85795721036E+03  0.85795721036E+03  0.00000000000E+00 0.  1.
         21   -1    0    0  501  503 -0.00000000000E+00 -0.00000000000E+00 -0.81488175556E+02  0.81488175556E+02  0.00000000000E+00 0.  1.
          6    1    1    2  501    0  0.71426092844E+02  0.18238552690E+03  0.31677211508E+03  0.41065769207E+03  0.17300000000E+03 0.  1.
         -6    1    1    2    0  502 -0.71426092844E+02 -0.18238552690E+03  0.45969691973E+03  0.52878769385E+03  0.17300000000E+03 0.  1.
</event>
<event>
 4    1  0.3065897E+000  0.1000000E+03  0.7546771E-02  0.1280296E+00
         21   -1    0    0  501  502  0.00000000000E+00  0.00000000000E+00  0.25039654556E+02  0.25039654556E+02  0.00000000000E+00 0.  1.
         21   -1    0    0  502  503 -0.00000000000E+00 -0.00000000000E+00 -0.15980240946E+04  0.15980240946E+04  0.00000000000E+00 0. -1.
          6    1    1    2  501    0 -0.65368613408E+02  0.12085798968E+02 -0.48111807946E+03  0.51557999238E+03  0.17300000000E+03 0.  1.
         -6    1    1    2    0  503  0.65368613408E+02 -0.12085798968E+02 -0.10918663606E+04  0.11074837568E+04  0.17300000000E+03 0. -1.
</event>
<event>
 4    1  0.3065897E+000  0.1000000E+03  0.7546771E-02  0.1280296E+00
         21   -1    0    0  501  502  0.00000000000E+00  0.00000000000E+00  0.27048183400E+03  0.27048183400E+03  0.00000000000E+00 0.  1.
         21   -1    0    0  502  503 -0.00000000000E+00 -0.00000000000E+00 -0.26090328918E+03  0.26090328918E+03  0.00000000000E+00 0. -1.
          6    1    1    2  501    0 -0.87168895891E+02 -0.12999475054E+03  0.13186718430E+03  0.26798321939E+03  0.17300000000E+03 0.  1.
         -6    1    1    2    0  503  0.87168895891E+02  0.12999475054E+03 -0.12228863947E+03  0.26340190379E+03  0.17300000000E+03 0. -1.
</event>
<event>
 4    1  0.3065897E+000  0.1000000E+03  0.7546771E-02  0.1280296E+00
         21   -1    0    0  503  502  0.00000000000E+00  0.00000000000E+00  0.92558928177E+03  0.92558928177E+03  0.00000000000E+00 0. -1.
         21   -1    0    0  501  503 -0.00000000000E+00 -0.00000000000E+00 -0.95583128361E+02  0.95583128361E+02  0.00000000000E+00 0. -1.
          6    1    1    2  501    0  0.17448032902E+03 -0.67785898999E+02  0.15183409634E+03  0.29668317467E+03  0.17300000000E+03 0. -1.
         -6    1    1    2    0  502 -0.17448032902E+03  0.67785898999E+02  0.67817205707E+03  0.72448923547E+03  0.17300000000E+03 0. -1.
</event>
<event>
 4    1  0.3065897E+000  0.1000000E+03  0.7546771E-02  0.1280296E+00
         21   -1    0    0  503  502  0.00000000000E+00  0.00000000000E+00  0.30884950598E+02  0.30884950598E+02  0.00000000000E+00 0. -1.
         21   -1    0    0  501  503 -0.00000000000E+00 -0.00000000000E+00 -0.15858385565E+04  0.15858385565E+04  0.00000000000E+00 0. -1.
          6    1    1    2  501    0  0.11168878152E+03  0.43426179499E+02 -0.10276024032E+04  0.10489308442E+04  0.17300000000E+03 0. -1.
         -6    1    1    2    0  502 -0.11168878152E+03 -0.43426179499E+02 -0.52735120275E+03  0.56779266288E+03  0.17300000000E+03 0. -1.
</event>
<event>
 4    1  0.3065897E+000  0.1000000E+03  0.7546771E-02  0.1280296E+00
         21   -1    0    0  503  502  0.00000000000E+00  0.00000000000E+00  0.24558835876E+03  0.24558835876E+03  0.00000000000E+00 0. -1.
         21   -1    0    0  501  503 -0.00000000000E+00 -0.00000000000E+00 -0.28986243989E+03  0.28986243989E+03  0.00000000000E+00 0. -1.
          6    1    1    2  501    0 -0.49598896422E+02 -0.33640151058E+02 -0.21688154848E+03  0.28382796966E+03  0.17300000000E+03 0. -1.
         -6    1    1    2    0  502  0.49598896422E+02  0.33640151058E+02  0.17260746735E+03  0.25162282900E+03  0.17300000000E+03 0. -1.
</event>
<event>
 4    1  0.3065897E+000  0.1000000E+03  0.7546771E-02  0.1280296E+00
         21   -1    0    0  501  502  0.00000000000E+00  0.00000000000E+00  0.48656272780E+03  0.48656272780E+03  0.00000000000E+00 0.  1.
         21   -1    0    0  502  503 -0.00000000000E+00 -0.00000000000E+00 -0.90402917395E+02  0.90402917395E+02  0.00000000000E+00 0.  1.
          6    1    1    2  501    0 -0.97978159059E+02  0.32949077843E+02  0.27795736891E+03  0.34332879331E+03  0.17300000000E+03 0. -1.
         -6    1    1    2    0  503  0.97978159059E+02 -0.32949077843E+02  0.11820244149E+03  0.23363685188E+03  0.17300000000E+03 0. -1.
</event>
<event>
 4    1  0.3065897E+000  0.1000000E+03  0.7546771E-02  0.1280296E+00
         21   -1    0    0  501  502  0.00000000000E+00  0.00000000000E+00  0.19773272174E+03  0.19773272174E+03  0.00000000000E+00 0.  1.
         21   -1    0    0  502  503 -0.00000000000E+00 -0.00000000000E+00 -0.77517682704E+03  0.77517682704E+03  0.00000000000E+00 0.  1.
          6    1    1    2  501    0  0.11757661399E+03 -0.10136527793E+02  0.12229019486E+03  0.24250958973E+03  0.17300000000E+03 0. -1.
         -6    1    1    2    0  503 -0.11757661399E+03  0.10136527793E+02 -0.69973430017E+03  0.73039995905E+03  0.17300000000E+03 0. -1.
</event>
<event>
 4    1  0.3065897E+000  0.1000000E+03  0.7546771E-02  0.1280296E+00
         21   -1    0    0  501  502  0.00000000000E+00  0.00000000000E+00  0.18302987786E+03  0.18302987786E+03  0.00000000000E+00 0. -1.
         21   -1    0    0  502  503 -0.00000000000E+00 -0.00000000000E+00 -0.19240772458E+04  0.19240772458E+04  0.00000000000E+00 0. -1.
          6    1    1    2  501    0 -0.46501722519E+02  0.11707430023E+02  0.13366506415E+03  0.22381872909E+03  0.17300000000E+03 0. -1.
         -6    1    1    2    0  503  0.46501722519E+02 -0.11707430023E+02 -0.18747124321E+04  0.18832883946E+04  0.17300000000E+03 0. -1.
</event>
<event>
 4    1  0.3065897E+000  0.1000000E+03  0.7546771E-02  0.1280296E+00
         21   -1    0    0  503  502  0.00000000000E+00  0.00000000000E+00  0.23135429338E+03  0.23135429338E+03  0.00000000000E+00 0.  1.
         21   -1    0    0  501  503 -0.00000000000E+00 -0.00000000000E+00 -0.26776154317E+03  0.26776154317E+03  0.00000000000E+00 0. -1.
          6    1    1    2  501    0  0.24446127112E+02  0.22690823857E+02 -0.19447506442E+03  0.26241577182E+03  0.17300000000E+03 0. -1.
         -6    1    1    2    0  502 -0.24446127112E+02 -0.22690823857E+02  0.15806781464E+03  0.23670006473E+03  0.17300000000E+03 0.  1.
</event>
<event>
 4    1  0.3065897E+000  0.1000000E+03  0.7546771E-02  0.1280296E+00
         21   -1    0    0  501  502  0.00000000000E+00  0.00000000000E+00  0.17382074007E+03  0.17382074007E+03  0.00000000000E+00 0.  1.
         21   -1    0    0  502  503 -0.00000000000E+00 -0.00000000000E+00 -0.21330687153E+03  0.21330687153E+03  0.00000000000E+00 0.  1.
          6    1    1    2  501    0 -0.33553499466E+02 -0.47608317853E+02 -0.81348690950E+02  0.19984743875E+03  0.17300000000E+03 0.  1.
         -6    1    1    2    0  503  0.33553499466E+02  0.47608317853E+02  0.41862559494E+02  0.18728017285E+03  0.17300000000E+03 0.  1.
</event>
<event>
 4    1  0.3065897E+000  0.1000000E+03  0.7546771E-02  0.1280296E+00
         21   -1    0    0  501  502  0.00000000000E+00  0.00000000000E+00  0.79511696438E+02  0.79511696438E+02  0.00000000000E+00 0.  1.
         21   -1    0    0  502  503 -0.00000000000E+00 -0.00000000000E+00 -0.71267619068E+03  0.71267619068E+03  0.00000000000E+00 0.  1.
          6    1    1    2  501    0 -0.65894770913E+02  0.11184522346E+03 -0.15114302428E+03  0.26386490603E+03  0.17300000000E+03 0.  1.
         -6    1    1    2    0  503  0.65894770913E+02 -0.11184522346E+03 -0.48202146996E+03  0.52832298109E+03  0.17300000000E+03 0.  1.
</event>
<event>
 4    1  0.3065897E+000  0.1000000E+03  0.7546771E-02  0.1280296E+00
         21   -1    0    0  501  502  0.00000000000E+00  0.00000000000E+00  0.10166927398E+03  0.10166927398E+03  0.00000000000E+00 0.  1.
         21   -1    0    0  502  503 -0.00000000000E+00 -0.00000000000E+00 -0.50278793055E+03  0.50278793055E+03  0.00000000000E+00 0.  1.
          6    1    1    2  501    0 -0.87229525225E+01 -0.38066818405E+02 -0.13110282984E+02  0.17783715046E+03  0.17300000000E+03 0.  1.
         -6    1    1    2    0  503  0.87229525225E+01  0.38066818405E+02 -0.38800837358E+03  0.42662005407E+03  0.17300000000E+03 0.  1.
</event>
<event>
 4    1  0.3065897E+000  0.1000000E+03  0.7546771E-02  0.1280296E+00
         21   -1    0    0  501  502  0.00000000000E+00  0.00000000000E+00  0.81004059800E+03  0.81004059800E+03  0.00000000000E+00 0.  1.
         21   -1    0    0  502  503 -0.00000000000E+00 -0.00000000000E+00 -0.54387994098E+02  0.54387994098E+02  0.00000000000E+00 0.  1.
          6    1    1    2  501    0 -0.11308049495E+03 -0.15911463204E+02  0.44572024191E+03  0.49156475367E+03  0.17300000000E+03 0.  1.
         -6    1    1    2    0  503  0.11308049495E+03  0.15911463204E+02  0.30993236200E+03  0.37286383844E+03  0.17300000000E+03 0.  1.
</event>
<event>
 4    1  0.3065897E+000  0.1000000E+03  0.7546771E-02  0.1280296E+00
         21   -1    0    0  501  502  0.00000000000E+00  0.00000000000E+00  0.29325614007E+03  0.29325614007E+03  0.00000000000E+00 0.  1.
         21   -1    0    0  502  503 -0.00000000000E+00 -0.00000000000E+00 -0.75130561500E+03  0.75130561500E+03  0.00000000000E+00 0.  1.
          6    1    1    2  501    0  0.13581892125E+03  0.30988690137E+03  0.77558486931E+02  0.38784144945E+03  0.17300000000E+03 0.  1.
         -6    1    1    2    0  503 -0.13581892125E+03 -0.30988690137E+03 -0.53560796186E+03  0.65672030562E+03  0.17300000000E+03 0.  1.
</event>
<event>
 4    1  0.3065897E+000  0.1000000E+03  0.7546771E-02  0.1280296E+00
         21   -1    0    0  501  502  0.00000000000E+00  0.00000000000E+00  0.54270641239E+03  0.54270641239E+03  0.00000000000E+00 0.  1.
         21   -1    0    0  502  503 -0.00000000000E+00 -0.00000000000E+00 -0.26432661867E+03  0.26432661867E+03  0.00000000000E+00 0.  1.
          6    1    1    2  501    0 -0.20761712743E+03 -0.26504972609E+03  0.12544174851E+03  0.39877419823E+03  0.17300000000E+03 0.  1.
         -6    1    1    2    0  503  0.20761712743E+03  0.26504972609E+03  0.15293804522E+03  0.40825883282E+03  0.17300000000E+03 0.  1.
</event>
<event>
 4    1  0.3065897E+000  0.1000000E+03  0.7546771E-02  0.1280296E+00
         21   -1    0    0  503  502  0.00000000000E+00  0.00000000000E+00  0.10496280390E+04  0.10496280390E+04  0.00000000000E+00 0.  1.
         21   -1    0    0  501  503 -0.00000000000E+00 -0.00000000000E+00 -0.88222154466E+02  0.88222154466E+02  0.00000000000E+00 0.  1.
          6    1    1    2  501    0  0.14412633797E+03  0.24103384996E+01  0.98036389186E+02  0.24559793288E+03  0.17300000000E+03 0.  1.
         -6    1    1    2    0  502 -0.14412633797E+03 -0.24103384996E+01  0.86336949530E+03  0.89225226055E+03  0.17300000000E+03 0.  1.
</event>
<event>
 4    1  0.3065897E+000  0.1000000E+03  0.7546771E-02  0.1280296E+00
         21   -1    0    0  503  502  0.00000000000E+00  0.00000000000E+00  0.19971103538E+04  0.19971103538E+04  0.00000000000E+00 0.  1.
         21   -1    0    0  501  503 -0.00000000000E+00 -0.00000000000E+00 -0.32940415387E+02  0.32940415387E+02  0.00000000000E+00 0.  1.
          6    1    1    2  501    0 -0.89066407202E+02 -0.87092121781E+02  0.41770212014E+03  0.46895833902E+03  0.17300000000E+03 0.  1.
         -6    1    1    2    0  502  0.89066407202E+02  0.87092121781E+02  0.15464678182E+04  0.15610924301E+04  0.17300000000E+03 0.  1.
</event>
<event>
 4    1  0.3065897E+000  0.1000000E+03  0.7546771E-02  0.1280296E+00
         21   -1    0    0  503  502  0.00000000000E+00  0.00000000000E+00  0.35763813078E+03  0.35763813078E+03  0.00000000000E+00 0.  1.
         21   -1    0    0  501  503 -0.00000000000E+00 -0.00000000000E+00 -0.14494462803E+03  0.14494462803E+03  0.00000000000E+00 0.  1.
          6    1    1    2  501    0  0.30361917326E+02  0.11530037983E+03  0.95425779694E+01  0.21032376092E+03  0.17300000000E+03 0.  1.
         -6    1    1    2    0  502 -0.30361917326E+02 -0.11530037983E+03  0.20315092478E+03  0.29225899790E+03  0.17300000000E+03 0.  1.
</event>
<event>
 4    1  0.3065897E+000  0.1000000E+03  0.7546771E-02  0.1280296E+00
         21   -1    0    0  503  502  0.00000000000E+00  0.00000000000E+00  0.61103733698E+02  0.61103733698E+02  0.00000000000E+00 0.  1.
         21   -1    0    0  501  503 -0.00000000000E+00 -0.00000000000E+00 -0.95897580457E+03  0.95897580457E+03  0.00000000000E+00 0.  1.
          6    1    1    2  501    0  0.82825667153E+02  0.14038289023E+03 -0.54550406910E+03  0.59503876883E+03  0.17300000000E+03 0.  1.
         -6    1    1    2    0  502 -0.82825667153E+02 -0.14038289023E+03 -0.35236800178E+03  0.42504076944E+03  0.17300000000E+03 0.  1.
</event>
<event>
 4    1  0.3065897E+000  0.1000000E+03  0.7546771E-02  0.1280296E+00
         21   -1    0    0  503  502  0.00000000000E+00  0.00000000000E+00  0.72348076060E+03  0.72348076060E+03  0.00000000000E+00 0.  1.
         21   -1    0    0  501  503 -0.00000000000E+00 -0.00000000000E+00 -0.17185657986E+03  0.17185657986E+03  0.00000000000E+00 0.  1.
          6    1    1    2  501    0  0.14394934100E+02 -0.16161281376E+03 -0.55448630369E+02  0.24357640754E+03  0.17300000000E+03 0.  1.
         -6    1    1    2    0  502 -0.14394934100E+02  0.16161281376E+03  0.60707281110E+03  0.65176093292E+03  0.17300000000E+03 0.  1.
</event>
<event>
 4    1  0.3065897E+000  0.1000000E+03  0.7546771E-02  0.1280296E+00
         21   -1    0    0  503  502  0.00000000000E+00  0.00000000000E+00  0.86352543615E+03  0.86352543615E+03  0.00000000000E+00 0.  1.
         21   -1    0    0  501  503 -0.00000000000E+00 -0.00000000000E+00 -0.96747600878E+02  0.96747600878E+02  0.00000000000E+00 0.  1.
          6    1    1    2  501    0  0.55064827771E+00  0.43901744478E+02  0.57304785277E+01  0.17857632756E+03  0.17300000000E+03 0.  1.
         -6    1    1    2    0  502 -0.55064827771E+00 -0.43901744478E+02  0.76104735675E+03  0.78169670947E+03  0.17300000000E+03 0.  1.
</event>
<event>
 4    1  0.3065897E+000  0.1000000E+03  0.7546771E-02  0.1280296E+00
         21   -1    0    0  503  502  0.00000000000E+00  0.00000000000E+00  0.44712560255E+03  0.44712560255E+03  0.00000000000E+00 0.  1.
         21   -1    0    0  501  503 -0.00000000000E+00 -0.00000000000E+00 -0.13546716983E+03  0.13546716983E+03  0.00000000000E+00 0.  1.
          6    1    1    2  501    0  0.37670575176E+02 -0.57281290457E+02 -0.34805440819E+02  0.18931623592E+03  0.17300000000E+03 0.  1.
         -6    1    1    2    0  502 -0.37670575176E+02  0.57281290457E+02  0.34646387353E+03  0.39327653647E+03  0.17300000000E+03 0.  1.
</event>
<event>
 4    1  0.3065897E+000  0.1000000E+03  0.7546771E-02  0.1280296E+00
         21   -1    0    0  503  502  0.00000000000E+00  0.00000000000E+00  0.36153965019E+03  0.36153965019E+03  0.00000000000E+00 0.  1.
         21   -1    0    0  501  503 -0.00000000000E+00 -0.00000000000E+00 -0.36820831239E+03  0.36820831239E+03  0.00000000000E+00 0.  1.
          6    1    1    2  501    0  0.65840555815E+02 -0.34120210147E+02 -0.31590735598E+03  0.36773037010E+03  0.17300000000E+03 0.  1.
         -6    1    1    2    0  502 -0.65840555815E+02  0.34120210147E+02  0.30923869379E+03  0.36201759248E+03  0.17300000000E+03 0.  1.
</event>
<event>
 4    1  0.3065897E+000  0.1000000E+03  0.7546771E-02  0.1280296E+00
         21   -1    0    0  503  502  0.00000000000E+00  0.00000000000E+00  0.86719482809E+03  0.86719482809E+03  0.00000000000E+00 0.  1.
         21   -1    0    0  501  503 -0.00000000000E+00 -0.00000000000E+00 -0.67093188895E+02  0.67093188895E+02  0.00000000000E+00 0.  1.
          6    1    1    2  501    0 -0.15253443570E+03 -0.42358606996E+02  0.29061910210E+03  0.37342933491E+03  0.17300000000E+03 0.  1.
         -6    1    1    2    0  502  0.15253443570E+03  0.42358606996E+02  0.50948253709E+03  0.56085868208E+03  0.17300000000E+03 0.  1.
</event>
<event>
 4    1  0.3065897E+000  0.1000000E+03  0.7546771E-02  0.1280296E+00
         21   -1    0    0  503  502  0.00000000000E+00  0.00000000000E+00  0.52504576394E+03  0.52504576394E+03  0.00000000000E+00 0.  1.
         21   -1    0    0  501  503 -0.00000000000E+00 -0.00000000000E+00 -0.22319192151E+03  0.22319192151E+03  0.00000000000E+00 0.  1.
          6    1    1    2  501    0  0.10887851872E+03  0.96884045227E+02 -0.12987244077E+03  0.26083884091E+03  0.17300000000E+03 0.  1.
         -6    1    1    2    0  502 -0.10887851872E+03 -0.96884045227E+02  0.43172628320E+03  0.48739884454E+03  0.17300000000E+03 0.  1.
</event>
<event>
 4    1  0.3065897E+000  0.1000000E+03  0.7546771E-02  0.1280296E+00
         21   -1    0    0  503  502  0.00000000000E+00  0.00000000000E+00  0.36495320671E+03  0.36495320671E+03  0.00000000000E+00 0. -1.
         21   -1    0    0  501  503 -0.00000000000E+00 -0.00000000000E+00 -0.12788043414E+03  0.12788043414E+03  0.00000000000E+00 0. -1.
          6    1    1    2  501    0 -0.17815338043E+01  0.40214990866E+02 -0.21725385073E+02  0.17894527574E+03  0.17300000000E+03 0. -1.
         -6    1    1    2    0  502  0.17815338043E+01 -0.40214990866E+02  0.25879815764E+03  0.31388836511E+03  0.17300000000E+03 0. -1.
</event>
<event>
 4    1  0.3065897E+000  0.1000000E+03  0.7546771E-02  0.1280296E+00
         21   -1    0    0  503  502  0.00000000000E+00  0.00000000000E+00  0.86266567957E+02  0.86266567957E+02  0.00000000000E+00 0. -1.
         21   -1    0    0  501  503 -0.00000000000E+00 -0.00000000000E+00 -0.71854142027E+03  0.71854142027E+03  0.00000000000E+00 0. -1.
          6    1    1    2  501    0 -0.17514940493E+03 -0.37142037873E+02 -0.31695717900E+03  0.40304800997E+03  0.17300000000E+03 0. -1.
         -6    1    1    2    0  502  0.17514940493E+03  0.37142037873E+02 -0.31531767331E+03  0.40175997825E+03  0.17300000000E+03 0. -1.
</event>
<event>
 4    1  0.3065897E+000  0.1000000E+03  0.7546771E-02  0.1280296E+00
         21   -1    0    0  501  502  0.00000000000E+00  0.00000000000E+00  0.25426415906E+02  0.25426415906E+02  0.00000000000E+00 0.  1.
         21   -1    0    0  502  503 -0.00000000000E+00 -0.00000000000E+00 -0.17397342263E+04  0.17397342263E+04  0.00000000000E+00 0.  1.
          6    1    1    2  501    0 -0.87403442550E+02  0.76653350779E+02 -0.97518273838E+03  0.99720884031E+03  0.17300000000E+03 0.  1.
         -6    1    1    2    0  503  0.87403442550E+02 -0.76653350779E+02 -0.73912507197E+03  0.76795180186E+03  0.17300000000E+03 0.  1.
</event>
<event>
 4    1  0.3065897E+000  0.1000000E+03  0.7546771E-02  0.1280296E+00
         21   -1    0    0  503  502  0.00000000000E+00  0.00000000000E+00  0.24689467869E+02  0.24689467869E+02  0.00000000000E+00 0.  1.
         21   -1    0    0  501  503 -0.00000000000E+00 -0.00000000000E+00 -0.26451228069E+04  0.26451228069E+04  0.00000000000E+00 0.  1.
          6    1    1    2  501    0 -0.31070536058E+02  0.50207141527E+02 -0.22430620938E+04  0.22504983208E+04  0.17300000000E+03 0.  1.
         -6    1    1    2    0  502  0.31070536058E+02 -0.50207141527E+02 -0.37737124528E+03  0.41931395402E+03  0.17300000000E+03 0.  1.
</event>
<event>
 4    1  0.3065897E+000  0.1000000E+03  0.7546771E-02  0.1280296E+00
         21   -1    0    0  503  502  0.00000000000E+00  0.00000000000E+00  0.68521169724E+03  0.68521169724E+03  0.00000000000E+00 0.  1.
         21   -1    0    0  501  503 -0.00000000000E+00 -0.00000000000E+00 -0.24719984437E+03  0.24719984437E+03  0.00000000000E+00 0.  1.
          6    1    1    2  501    0  0.17567750056E+03 -0.10985192228E+03 -0.13292830420E+03  0.30088031356E+03  0.17300000000E+03 0. -1.
         -6    1    1    2    0  502 -0.17567750056E+03  0.10985192228E+03  0.57094015707E+03  0.63153122804E+03  0.17300000000E+03 0. -1.
</event>
<event>
 4    1  0.3065897E+000  0.1000000E+03  0.7546771E-02  0.1280296E+00
         21   -1    0    0  503  502  0.00000000000E+00  0.00000000000E+00  0.11483278822E+03  0.11483278822E+03  0.00000000000E+00 0.  1.
         21   -1    0    0  501  503 -0.00000000000E+00 -0.00000000000E+00 -0.18626627267E+04  0.18626627267E+04  0.00000000000E+00 0.  1.
          6    1    1    2  501    0  0.13273151527E+02  0.88170665316E+02 -0.17708498544E+04  0.17815129664E+04  0.17300000000E+03 0. -1.
         -6    1    1    2    0  502 -0.13273151527E+02 -0.88170665316E+02  0.23019915926E+02  0.19598254847E+03  0.17300000000E+03 0. -1.
</event>
<event>
 4    1  0.3065897E+000  0.1000000E+03  0.7546771E-02  0.1280296E+00
         21   -1    0    0  503  502  0.00000000000E+00  0.00000000000E+00  0.24034202977E+03  0.24034202977E+03  0.00000000000E+00 0.  1.
         21   -1    0    0  501  503 -0.00000000000E+00 -0.00000000000E+00 -0.88833488429E+03  0.88833488429E+03  0.00000000000E+00 0.  1.
          6    1    1    2  501    0 -0.98501722475E+02 -0.15904682695E+02 -0.83290044261E+03  0.85650901662E+03  0.17300000000E+03 0. -1.
         -6    1    1    2    0  502  0.98501722475E+02  0.15904682695E+02  0.18490758808E+03  0.27216789743E+03  0.17300000000E+03 0. -1.
</event>
<event>
 4    1  0.3065897E+000  0.1000000E+03  0.7546771E-02  0.1280296E+00
         21   -1    0    0  503  502  0.00000000000E+00  0.00000000000E+00  0.40420947544E+03  0.40420947544E+03  0.00000000000E+00 0.  1.
         21   -1    0    0  501  503 -0.00000000000E+00 -0.00000000000E+00 -0.16394538696E+03  0.16394538696E+03  0.00000000000E+00 0.  1.
          6    1    1    2  501    0 -0.83212916330E+02 -0.94196096549E+02 -0.38031026606E+02  0.21719266340E+03  0.17300000000E+03 0. -1.
         -6    1    1    2    0  502  0.83212916330E+02  0.94196096549E+02  0.27829511509E+03  0.35096219900E+03  0.17300000000E+03 0. -1.
</event>
<event>
 4    1  0.3065897E+000  0.1000000E+03  0.7546771E-02  0.1280296E+00
         21   -1    0    0  503  502  0.00000000000E+00  0.00000000000E+00  0.12530965740E+04  0.12530965740E+04  0.00000000000E+00 0. -1.
         21   -1    0    0  501  503 -0.00000000000E+00 -0.00000000000E+00 -0.40160351008E+03  0.40160351008E+03  0.00000000000E+00 0. -1.
          6    1    1    2  501    0  0.35277973294E+02 -0.19477993681E+01 -0.37556570226E+03  0.41500232052E+03  0.17300000000E+03 0. -1.
         -6    1    1    2    0  502 -0.35277973294E+02  0.19477993681E+01  0.12270587662E+04  0.12396977636E+04  0.17300000000E+03 0. -1.
</event>
<event>
 4    1  0.3065897E+000  0.1000000E+03  0.7546771E-02  0.1280296E+00
         21   -1    0    0  503  502  0.00000000000E+00  0.00000000000E+00  0.10751508895E+03  0.10751508895E+03  0.00000000000E+00 0. -1.
         21   -1    0    0  501  503 -0.00000000000E+00 -0.00000000000E+00 -0.60560436205E+03  0.60560436205E+03  0.00000000000E+00 0. -1.
          6    1    1    2  501    0 -0.89821662231E+02  0.42837200712E+02 -0.47121627061E+03  0.51173892802E+03  0.17300000000E+03 0. -1.
         -6    1    1    2    0  502  0.89821662231E+02 -0.42837200712E+02 -0.26873002494E+02  0.20138052298E+03  0.17300000000E+03 0. -1.
</event>
<event>
 4    1  0.3065897E+000  0.1000000E+03  0.7546771E-02  0.1280296E+00
         21   -1    0    0  503  502  0.00000000000E+00  0.00000000000E+00  0.84993382707E+02  0.84993382707E+02  0.00000000000E+00 0. -1.
         21   -1    0    0  501  503 -0.00000000000E+00 -0.00000000000E+00 -0.10316327975E+04  0.10316327975E+04  0.00000000000E+00 0. -1.
          6    1    1    2  501    0 -0.41683845597E+02  0.23514561301E+03 -0.52398130859E+03  0.60126235044E+03  0.17300000000E+03 0. -1.
         -6    1    1    2    0  502  0.41683845597E+02 -0.23514561301E+03 -0.42265810622E+03  0.51536382979E+03  0.17300000000E+03 0. -1.
</event>
<event>
 4    1  0.3065897E+000  0.1000000E+03  0.7546771E-02  0.1280296E+00
         21   -1    0    0  501  502  0.00000000000E+00  0.00000000000E+00  0.15930828661E+03  0.15930828661E+03  0.00000000000E+00 0.  1.
         21   -1    0    0  502  503 -0.00000000000E+00 -0.00000000000E+00 -0.80079207770E+03  0.80079207770E+03  0.00000000000E+00 0.  1.
          6    1    1    2  501    0 -0.50464276408E+02 -0.10587599934E+03  0.68532689882E+02  0.21995931445E+03  0.17300000000E+03 0.  1.
         -6    1    1    2    0  503  0.50464276408E+02  0.10587599934E+03 -0.71001648098E+03  0.74014104986E+03  0.17300000000E+03 0.  1.
</event>
<event>
 4    1  0.3065897E+000  0.1000000E+03  0.7546771E-02  0.1280296E+00
         21   -1    0    0  501  502  0.00000000000E+00  0.00000000000E+00  0.57484182785E+02  0.57484182785E+02  0.00000000000E+00 0.  1.
         21   -1    0    0  502  503 -0.00000000000E+00 -0.00000000000E+00 -0.11384508148E+04  0.11384508148E+04  0.00000000000E+00 0.  1.
          6    1    1    2  501    0 -0.73872723510E+02 -0.71890168965E+00 -0.94572436714E+03  0.96425166565E+03  0.17300000000E+03 0.  1.
         -6    1    1    2    0  503  0.73872723510E+02  0.71890168965E+00 -0.13524226492E+03  0.23168333198E+03  0.17300000000E+03 0.  1.
</event>
<event>
 4    1  0.3065897E+000  0.1000000E+03  0.7546771E-02  0.1280296E+00
         21   -1    0    0  501  502  0.00000000000E+00  0.00000000000E+00  0.15113076349E+03  0.15113076349E+03  0.00000000000E+00 0.  1.
         21   -1    0    0  502  503 -0.00000000000E+00 -0.00000000000E+00 -0.75649947268E+03  0.75649947268E+03  0.00000000000E+00 0.  1.
          6    1    1    2  501    0 -0.25964781913E+03  0.12813390024E+03 -0.27075220876E+03  0.43251710361E+03  0.17300000000E+03 0.  1.
         -6    1    1    2    0  503  0.25964781913E+03 -0.12813390024E+03 -0.33461650043E+03  0.47511313256E+03  0.17300000000E+03 0.  1.
</event>
<event>
 4    1  0.3065897E+000  0.1000000E+03  0.7546771E-02  0.1280296E+00
         21   -1    0    0  501  502  0.00000000000E+00  0.00000000000E+00  0.40783764927E+03  0.40783764927E+03  0.00000000000E+00 0.  1.
         21   -1    0    0  502  503 -0.00000000000E+00 -0.00000000000E+00 -0.13199377045E+03  0.13199377045E+03  0.00000000000E+00 0.  1.
          6    1    1    2  501    0  0.43381959216E+01  0.18962378862E+02  0.31635250649E+03  0.36109043205E+03  0.17300000000E+03 0.  1.
         -6    1    1    2    0  503 -0.43381959216E+01 -0.18962378862E+02 -0.40508627677E+02  0.17874098767E+03  0.17300000000E+03 0.  1.
</event>
<event>
 4    1  0.3065897E+000  0.1000000E+03  0.7546771E-02  0.1280296E+00
         21   -1    0    0  503  502  0.00000000000E+00  0.00000000000E+00  0.35102708357E+03  0.35102708357E+03  0.00000000000E+00 0.  1.
         21   -1    0    0  501  503 -0.00000000000E+00 -0.00000000000E+00 -0.10035987633E+03  0.10035987633E+03  0.00000000000E+00 0.  1.
          6    1    1    2  501    0 -0.20768795259E+02 -0.41048889045E+02  0.57486176491E+02  0.18801599569E+03  0.17300000000E+03 0.  1.
         -6    1    1    2    0  502  0.20768795259E+02  0.41048889045E+02  0.19318103075E+03  0.26337096421E+03  0.17300000000E+03 0.  1.
</event>
<event>
 4    1  0.3065897E+000  0.1000000E+03  0.7546771E-02  0.1280296E+00
         21   -1    0    0  503  502  0.00000000000E+00  0.00000000000E+00  0.13865655178E+04  0.13865655178E+04  0.00000000000E+00 0.  1.
         21   -1    0    0  501  503 -0.00000000000E+00 -0.00000000000E+00 -0.84404187975E+02  0.84404187975E+02  0.00000000000E+00 0.  1.
          6    1    1    2  501    0 -0.21946619766E+03 -0.46498351155E+01  0.22696423471E+03  0.36003999322E+03  0.17300000000E+03 0.  1.
         -6    1    1    2    0  502  0.21946619766E+03  0.46498351155E+01  0.10751970951E+04  0.11109297125E+04  0.17300000000E+03 0.  1.
</event>
<event>
 4    1  0.3065897E+000  0.1000000E+03  0.7546771E-02  0.1280296E+00
         21   -1    0    0  503  502  0.00000000000E+00  0.00000000000E+00  0.21428819326E+04  0.21428819326E+04  0.00000000000E+00 0.  1.
         21   -1    0    0  501  503 -0.00000000000E+00 -0.00000000000E+00 -0.71385792120E+02  0.71385792120E+02  0.00000000000E+00 0.  1.
          6    1    1    2  501    0 -0.92110149680E+02 -0.59174426937E+01  0.77800957209E+02  0.21095327621E+03  0.17300000000E+03 0.  1.
         -6    1    1    2    0  502  0.92110149680E+02  0.59174426937E+01  0.19936951833E+04  0.20033144486E+04  0.17300000000E+03 0.  1.
</event>
<event>
 4    1  0.3065897E+000  0.1000000E+03  0.7546771E-02  0.1280296E+00
         21   -1    0    0  503  502  0.00000000000E+00  0.00000000000E+00  0.32486046515E+02  0.32486046515E+02  0.00000000000E+00 0.  1.
         21   -1    0    0  501  503 -0.00000000000E+00 -0.00000000000E+00 -0.11441740643E+04  0.11441740643E+04  0.00000000000E+00 0.  1.
          6    1    1    2  501    0 -0.70274744064E+02  0.47525409218E+02 -0.57596779842E+03  0.60734266192E+03  0.17300000000E+03 0.  1.
         -6    1    1    2    0  502  0.70274744064E+02 -0.47525409218E+02 -0.53572021934E+03  0.56931744886E+03  0.17300000000E+03 0.  1.
</event>
<event>
 4    1  0.3065897E+000  0.1000000E+03  0.7546771E-02  0.1280296E+00
         21   -1    0    0  501  502  0.00000000000E+00  0.00000000000E+00  0.23116178321E+03  0.23116178321E+03  0.00000000000E+00 0. -1.
         21   -1    0    0  502  503 -0.00000000000E+00 -0.00000000000E+00 -0.12750618902E+04  0.12750618902E+04  0.00000000000E+00 0. -1.
          6    1    1    2  501    0  0.81686961416E+01 -0.27480129221E+03  0.81491933944E+02  0.33489164381E+03  0.17300000000E+03 0. -1.
         -6    1    1    2    0  503 -0.81686961416E+01  0.27480129221E+03 -0.11253920409E+04  0.11713320296E+04  0.17300000000E+03 0. -1.
</event>
<event>
 4    1  0.3065897E+000  0.1000000E+03  0.7546771E-02  0.1280296E+00
         21   -1    0    0  501  502  0.00000000000E+00  0.00000000000E+00  0.26184925766E+03  0.26184925766E+03  0.00000000000E+00 0. -1.
         21   -1    0    0  502  503 -0.00000000000E+00 -0.00000000000E+00 -0.12599757778E+03  0.12599757778E+03  0.00000000000E+00 0. -1.
          6    1    1    2  501    0 -0.39699453488E+02  0.21194810738E+02  0.33526963967E+02  0.18187447298E+03  0.17300000000E+03 0. -1.
         -6    1    1    2    0  503  0.39699453488E+02 -0.21194810738E+02  0.10232471591E+03  0.20597236246E+03  0.17300000000E+03 0. -1.
</event>
<event>
 4    1  0.3065897E+000  0.1000000E+03  0.7546771E-02  0.1280296E+00
         21   -1    0    0  503  502  0.00000000000E+00  0.00000000000E+00  0.61495575214E+02  0.61495575214E+02  0.00000000000E+00 0. -1.
         21   -1    0    0  501  503 -0.00000000000E+00 -0.00000000000E+00 -0.91498283591E+03  0.91498283591E+03  0.00000000000E+00 0. -1.
          6    1    1    2  501    0 -0.60399322514E+02  0.21387783859E+02 -0.73364731881E+03  0.75648721328E+03  0.17300000000E+03 0. -1.
         -6    1    1    2    0  502  0.60399322514E+02 -0.21387783859E+02 -0.11983994189E+03  0.21999119785E+03  0.17300000000E+03 0. -1.
</event>
<event>
 4    1  0.3065897E+000  0.1000000E+03  0.7546771E-02  0.1280296E+00
         21   -1    0    0  503  502  0.00000000000E+00  0.00000000000E+00  0.32161911763E+03  0.32161911763E+03  0.00000000000E+00 0.  1.
         21   -1    0    0  501  503 -0.00000000000E+00 -0.00000000000E+00 -0.16295702249E+03  0.16295702249E+03  0.00000000000E+00 0.  1.
          6    1    1    2  501    0 -0.93885961658E+02 -0.24913416096E+02 -0.41550667788E+02  0.20270843616E+03  0.17300000000E+03 0.  1.
         -6    1    1    2    0  502  0.93885961658E+02  0.24913416096E+02  0.20021276292E+03  0.28186770396E+03  0.17300000000E+03 0.  1.
</event>
<event>
 4    1  0.3065897E+000  0.1000000E+03  0.7546771E-02  0.1280296E+00
         21   -1    0    0  501  502  0.00000000000E+00  0.00000000000E+00  0.22131317947E+02  0.22131317947E+02  0.00000000000E+00 0.  1.
         21   -1    0    0  502  503 -0.00000000000E+00 -0.00000000000E+00 -0.17827800122E+04  0.17827800122E+04  0.00000000000E+00 0.  1.
          6    1    1    2  501    0  0.10838856374E+02 -0.75564548524E+02 -0.60401017178E+03  0.63291766401E+03  0.17300000000E+03 0.  1.
         -6    1    1    2    0  503 -0.10838856374E+02  0.75564548524E+02 -0.11566385225E+04  0.11719936662E+04  0.17300000000E+03 0.  1.
</event>
<event>
 4    1  0.3065897E+000  0.1000000E+03  0.7546771E-02  0.1280296E+00
         21   -1    0    0  501  502  0.00000000000E+00  0.00000000000E+00  0.41220691506E+03  0.41220691506E+03  0.00000000000E+00 0.  1.
         21   -1    0    0  502  503 -0.00000000000E+00 -0.00000000000E+00 -0.61359993710E+03  0.61359993710E+03  0.00000000000E+00 0.  1.
          6    1    1    2  501    0 -0.41982894420E+03  0.15834956234E+03  0.49433279641E+02  0.48342897660E+03  0.17300000000E+03 0.  1.
         -6    1    1    2    0  503  0.41982894420E+03 -0.15834956234E+03 -0.25082630168E+03  0.54237787556E+03  0.17300000000E+03 0.  1.
</event>
<event>
 4    1  0.3065897E+000  0.1000000E+03  0.7546771E-02  0.1280296E+00
         21   -1    0    0  503  502  0.00000000000E+00  0.00000000000E+00  0.18712744048E+04  0.18712744048E+04  0.00000000000E+00 0. -1.
         21   -1    0    0  501  503 -0.00000000000E+00 -0.00000000000E+00 -0.76059588554E+02  0.76059588554E+02  0.00000000000E+00 0. -1.
          6    1    1    2  501    0 -0.11895291330E+03  0.40670583934E+02  0.95480466893E+02  0.23419951225E+03  0.17300000000E+03 0. -1.
         -6    1    1    2    0  502  0.11895291330E+03 -0.40670583934E+02  0.16997343494E+04  0.17131344811E+04  0.17300000000E+03 0. -1.
</event>
<event>
 4    1  0.3065897E+000  0.1000000E+03  0.7546771E-02  0.1280296E+00
         21   -1    0    0  501  502  0.00000000000E+00  0.00000000000E+00  0.17542350767E+03  0.17542350767E+03  0.00000000000E+00 0. -1.
         21   -1    0    0  502  503 -0.00000000000E+00 -0.00000000000E+00 -0.38619541222E+03  0.38619541222E+03  0.00000000000E+00 0. -1.
          6    1    1    2  501    0  0.79364458192E+02 -0.84499483432E+02  0.63067537139E+02  0.21758996798E+03  0.17300000000E+03 0. -1.
         -6    1    1    2    0  503 -0.79364458192E+02  0.84499483432E+02 -0.27383944170E+03  0.34402895191E+03  0.17300000000E+03 0. -1.
</event>
<event>
 4    1  0.3065897E+000  0.1000000E+03  0.7546771E-02  0.1280296E+00
         21   -1    0    0  503  502  0.00000000000E+00  0.00000000000E+00  0.18229669582E+03  0.18229669582E+03  0.00000000000E+00 0. -1.
         21   -1    0    0  501  503 -0.00000000000E+00 -0.00000000000E+00 -0.28970164806E+03  0.28970164806E+03  0.00000000000E+00 0. -1.
          6    1    1    2  501    0  0.74103166941E+02  0.10041273659E+02 -0.18873859901E+03  0.26672713638E+03  0.17300000000E+03 0. -1.
         -6    1    1    2    0  502 -0.74103166941E+02 -0.10041273659E+02  0.81333646771E+02  0.20527120749E+03  0.17300000000E+03 0. -1.
</event>
<event>
 4    1  0.3065897E+000  0.1000000E+03  0.7546771E-02  0.1280296E+00
         21   -1    0    0  501  502  0.00000000000E+00  0.00000000000E+00  0.74259181950E+02  0.74259181950E+02  0.00000000000E+00 0.  1.
         21   -1    0    0  502  503 -0.00000000000E+00 -0.00000000000E+00 -0.12611200856E+04  0.12611200856E+04  0.00000000000E+00 0.  1.
          6    1    1    2  501    0  0.18025738164E+03 -0.70353091572E+02 -0.23974163625E+03  0.35333742129E+03  0.17300000000E+03 0. -1.
         -6    1    1    2    0  503 -0.18025738164E+03  0.70353091572E+02 -0.94711926741E+03  0.98204184627E+03  0.17300000000E+03 0. -1.
</event>
<event>
 4    1  0.3065897E+000  0.1000000E+03  0.7546771E-02  0.1280296E+00
         21   -1    0    0  501  502  0.00000000000E+00  0.00000000000E+00  0.12584389267E+04  0.12584389267E+04  0.00000000000E+00 0.  1.
         21   -1    0    0  502  503 -0.00000000000E+00 -0.00000000000E+00 -0.36613833093E+02  0.36613833093E+02  0.00000000000E+00 0.  1.
          6    1    1    2  501    0 -0.41907635685E+02  0.11033554692E+03  0.46887261514E+03  0.51351797638E+03  0.17300000000E+03 0. -1.
         -6    1    1    2    0  503  0.41907635685E+02 -0.11033554692E+03  0.75295247847E+03  0.78153478341E+03  0.17300000000E+03 0. -1.
</event>
<event>
 4    1  0.3065897E+000  0.1000000E+03  0.7546771E-02  0.1280296E+00
         21   -1    0    0  501  502  0.00000000000E+00  0.00000000000E+00  0.73293620062E+03  0.73293620062E+03  0.00000000000E+00 0.  1.
         21   -1    0    0  502  503 -0.00000000000E+00 -0.00000000000E+00 -0.57069730092E+02  0.57069730092E+02  0.00000000000E+00 0.  1.
          6    1    1    2  501    0 -0.62540518517E+02 -0.48530351671E+02  0.48288806185E+03  0.51901482808E+03  0.17300000000E+03 0. -1.
         -6    1    1    2    0  503  0.62540518517E+02  0.48530351671E+02  0.19297840867E+03  0.27099110263E+03  0.17300000000E+03 0. -1.
</event>
<event>
 4    1  0.3065897E+000  0.1000000E+03  0.7546771E-02  0.1280296E+00
         21   -1    0    0  501  502  0.00000000000E+00  0.00000000000E+00  0.48104044631E+02  0.48104044631E+02  0.00000000000E+00 0. -1.
         21   -1    0    0  502  503 -0.00000000000E+00 -0.00000000000E+00 -0.16311464191E+04  0.16311464191E+04  0.00000000000E+00 0. -1.
          6    1    1    2  501    0 -0.14368030204E+03  0.14096700926E+03 -0.52308828077E+03  0.58657145888E+03  0.17300000000E+03 0. -1.
         -6    1    1    2    0  503  0.14368030204E+03 -0.14096700926E+03 -0.10599540937E+04  0.10926790049E+04  0.17300000000E+03 0. -1.
</event>
<event>
 4    1  0.3065897E+000  0.1000000E+03  0.7546771E-02  0.1280296E+00
         21   -1    0    0  501  502  0.00000000000E+00  0.00000000000E+00  0.17422860280E+03  0.17422860280E+03  0.00000000000E+00 0. -1.
         21   -1    0    0  502  503 -0.00000000000E+00 -0.00000000000E+00 -0.27843690854E+03  0.27843690854E+03  0.00000000000E+00 0. -1.
          6    1    1    2  501    0  0.91768542531E+00 -0.85267771957E+02  0.57185579315E+02  0.20117312336E+03  0.17300000000E+03 0. -1.
         -6    1    1    2    0  503 -0.91768542531E+00  0.85267771957E+02 -0.16139388505E+03  0.25149238798E+03  0.17300000000E+03 0. -1.
</event>
<event>
 4    1  0.3065897E+000  0.1000000E+03  0.7546771E-02  0.1280296E+00
         21   -1    0    0  501  502  0.00000000000E+00  0.00000000000E+00  0.40718689905E+02  0.40718689905E+02  0.00000000000E+00 0. -1.
         21   -1    0    0  502  503 -0.00000000000E+00 -0.00000000000E+00 -0.17190815099E+04  0.17190815099E+04  0.00000000000E+00 0. -1.
          6    1    1    2  501    0 -0.76703977154E+02  0.14076839248E+03 -0.44050157319E+03  0.49966976736E+03  0.17300000000E+03 0. -1.
         -6    1    1    2    0  503  0.76703977154E+02 -0.14076839248E+03 -0.12378612468E+04  0.12601304325E+04  0.17300000000E+03 0. -1.
</event>
<event>
 4    1  0.3065897E+000  0.1000000E+03  0.7546771E-02  0.1280296E+00
         21   -1    0    0  501  502  0.00000000000E+00  0.00000000000E+00  0.97088708999E+02  0.97088708999E+02  0.00000000000E+00 0. -1.
         21   -1    0    0  502  503 -0.00000000000E+00 -0.00000000000E+00 -0.11572505735E+04  0.11572505735E+04  0.00000000000E+00 0. -1.
          6    1    1    2  501    0 -0.15221057659E+03  0.11082023777E+03 -0.12454139191E+03  0.28440946367E+03  0.17300000000E+03 0. -1.
         -6    1    1    2    0  503  0.15221057659E+03 -0.11082023777E+03 -0.93562047262E+03  0.96992981886E+03  0.17300000000E+03 0. -1.
</event>
<event>
 4    1  0.3065897E+000  0.1000000E+03  0.7546771E-02  0.1280296E+00
         21   -1    0    0  503  502  0.00000000000E+00  0.00000000000E+00  0.13400293198E+03  0.13400293198E+03  0.00000000000E+00 0.  1.
         21   -1    0    0  501  503 -0.00000000000E+00 -0.00000000000E+00 -0.24144131293E+03  0.24144131293E+03  0.00000000000E+00 0.  1.
          6    1    1    2  501    0 -0.36452708217E+02  0.18505743982E+02 -0.82368725703E+02  0.19592056929E+03  0.17300000000E+03 0.  1.
         -6    1    1    2    0  502  0.36452708217E+02 -0.18505743982E+02 -0.25069655249E+02  0.17952367563E+03  0.17300000000E+03 0.  1.
</event>
<event>
 4    1  0.3065897E+000  0.1000000E+03  0.7546771E-02  0.1280296E+00
         21   -1    0    0  503  502  0.00000000000E+00  0.00000000000E+00  0.59906996603E+03  0.59906996603E+03  0.00000000000E+00 0.  1.
         21   -1    0    0  501  503 -0.00000000000E+00 -0.00000000000E+00 -0.15633072672E+03  0.15633072672E+03  0.00000000000E+00 0.  1.
          6    1    1    2  501    0  0.18776650221E+03  0.13009820499E+02  0.13750014056E+02  0.25601479971E+03  0.17300000000E+03 0.  1.
         -6    1    1    2    0  502 -0.18776650221E+03 -0.13009820499E+02  0.42898922526E+03  0.49938589304E+03  0.17300000000E+03 0.  1.
</event>
<event>
 4    1  0.3065897E+000  0.1000000E+03  0.7546771E-02  0.1280296E+00
         21   -1    0    0  503  502  0.00000000000E+00  0.00000000000E+00  0.13637262077E+03  0.13637262077E+03  0.00000000000E+00 0.  1.
         21   -1    0    0  501  503 -0.00000000000E+00 -0.00000000000E+00 -0.19903569037E+04  0.19903569037E+04  0.00000000000E+00 0.  1.
          6    1    1    2  501    0 -0.22421078863E+03 -0.50876370890E+01 -0.18194806144E+04  0.18413948702E+04  0.17300000000E+03 0.  1.
         -6    1    1    2    0  502  0.22421078863E+03  0.50876370890E+01 -0.34503668538E+02  0.28533465428E+03  0.17300000000E+03 0.  1.
</event>
<event>
 4    1  0.3065897E+000  0.1000000E+03  0.7546771E-02  0.1280296E+00
         21   -1    0    0  501  502  0.00000000000E+00  0.00000000000E+00  0.18890108423E+04  0.18890108423E+04  0.00000000000E+00 0. -1.
         21   -1    0    0  502  503 -0.00000000000E+00 -0.00000000000E+00 -0.29766875085E+02  0.29766875085E+02  0.00000000000E+00 0. -1.
          6    1    1    2  501    0  0.64936956519E+02  0.36141176106E+02  0.15128149035E+04  0.15244871023E+04  0.17300000000E+03 0. -1.
         -6    1    1    2    0  503 -0.64936956519E+02 -0.36141176106E+02  0.34642906373E+03  0.39429061507E+03  0.17300000000E+03 0. -1.
</event>
<event>
 4    1  0.3065897E+000  0.1000000E+03  0.7546771E-02  0.1280296E+00
         21   -1    0    0  501  502  0.00000000000E+00  0.00000000000E+00  0.21936389637E+03  0.21936389637E+03  0.00000000000E+00 0. -1.
         21   -1    0    0  502  503 -0.00000000000E+00 -0.00000000000E+00 -0.65812845901E+03  0.65812845901E+03  0.00000000000E+00 0. -1.
          6    1    1    2  501    0 -0.14402978752E+02  0.32897665125E+03 -0.12988212827E+03  0.39399422598E+03  0.17300000000E+03 0. -1.
         -6    1    1    2    0  503  0.14402978752E+02 -0.32897665125E+03 -0.30888243437E+03  0.48349812940E+03  0.17300000000E+03 0. -1.
</event>
<event>
 4    1  0.3065897E+000  0.1000000E+03  0.7546771E-02  0.1280296E+00
         21   -1    0    0  501  502  0.00000000000E+00  0.00000000000E+00  0.66656675879E+03  0.66656675879E+03  0.00000000000E+00 0.  1.
         21   -1    0    0  502  503 -0.00000000000E+00 -0.00000000000E+00 -0.74685496141E+02  0.74685496141E+02  0.00000000000E+00 0.  1.
          6    1    1    2  501    0 -0.12265047576E+03 -0.31724730840E+01  0.41103306802E+03  0.46252609310E+03  0.17300000000E+03 0.  1.
         -6    1    1    2    0  503  0.12265047576E+03  0.31724730840E+01  0.18084819463E+03  0.27872616183E+03  0.17300000000E+03 0.  1.
</event>
<event>
 4    1  0.3065897E+000  0.1000000E+03  0.7546771E-02  0.1280296E+00
         21   -1    0    0  501  502  0.00000000000E+00  0.00000000000E+00  0.10469269027E+04  0.10469269027E+04  0.00000000000E+00 0.  1.
         21   -1    0    0  502  503 -0.00000000000E+00 -0.00000000000E+00 -0.56755754303E+02  0.56755754303E+02  0.00000000000E+00 0.  1.
          6    1    1    2  501    0 -0.11687804131E+03  0.27380932413E+01  0.77984878024E+03  0.80731722002E+03  0.17300000000E+03 0.  1.
         -6    1    1    2    0  503  0.11687804131E+03 -0.27380932413E+01  0.21032236817E+03  0.29636543700E+03  0.17300000000E+03 0.  1.
</event>
<event>
 4    1  0.3065897E+000  0.1000000E+03  0.7546771E-02  0.1280296E+00
         21   -1    0    0  503  502  0.00000000000E+00  0.00000000000E+00  0.53510081506E+02  0.53510081506E+02  0.00000000000E+00 0. -1.
         21   -1    0    0  501  503 -0.00000000000E+00 -0.00000000000E+00 -0.86579331357E+03  0.86579331357E+03  0.00000000000E+00 0.  1.
          6    1    1    2  501    0 -0.25361488517E+02  0.10824252174E+01 -0.67419247586E+03  0.69649757448E+03  0.17300000000E+03 0.  1.
         -6    1    1    2    0  502  0.25361488517E+02 -0.10824252174E+01 -0.13809075620E+03  0.22280582060E+03  0.17300000000E+03 0. -1.
</event>
<event>
 4    1  0.3065897E+000  0.1000000E+03  0.7546771E-02  0.1280296E+00
         21   -1    0    0  503  502  0.00000000000E+00  0.00000000000E+00  0.44273523024E+03  0.44273523024E+03  0.00000000000E+00 0. -1.
         21   -1    0    0  501  503 -0.00000000000E+00 -0.00000000000E+00 -0.12916998755E+03  0.12916998755E+03  0.00000000000E+00 0. -1.
          6    1    1    2  501    0 -0.13629592093E+03 -0.78153150860E+02  0.96109402686E+02  0.25268658519E+03  0.17300000000E+03 0. -1.
         -6    1    1    2    0  502  0.13629592093E+03  0.78153150860E+02  0.21745584000E+03  0.31921863260E+03  0.17300000000E+03 0. -1.
</event>
<event>
 4    1  0.3065897E+000  0.1000000E+03  0.7546771E-02  0.1280296E+00
         21   -1    0    0  503  502  0.00000000000E+00  0.00000000000E+00  0.11234978532E+03  0.11234978532E+03  0.00000000000E+00 0. -1.
         21   -1    0    0  501  503 -0.00000000000E+00 -0.00000000000E+00 -0.87607282427E+03  0.87607282427E+03  0.00000000000E+00 0. -1.
          6    1    1    2  501    0 -0.11160094205E+03 -0.23514689010E+03 -0.33875640613E+03  0.46090534048E+03  0.17300000000E+03 0. -1.
         -6    1    1    2    0  502  0.11160094205E+03  0.23514689010E+03 -0.42496663283E+03  0.52751726911E+03  0.17300000000E+03 0. -1.
</event>
<event>
 4    1  0.3065897E+000  0.1000000E+03  0.7546771E-02  0.1280296E+00
         21   -1    0    0  503  502  0.00000000000E+00  0.00000000000E+00  0.10226033767E+03  0.10226033767E+03  0.00000000000E+00 0. -1.
         21   -1    0    0  501  503 -0.00000000000E+00 -0.00000000000E+00 -0.16188388768E+04  0.16188388768E+04  0.00000000000E+00 0. -1.
          6    1    1    2  501    0 -0.14757045641E+02 -0.13402510924E+03 -0.14830864704E+04  0.14992181225E+04  0.17300000000E+03 0. -1.
         -6    1    1    2    0  502  0.14757045641E+02  0.13402510924E+03 -0.33492068788E+02  0.22188109197E+03  0.17300000000E+03 0. -1.
</event>
<event>
 4    1  0.3065897E+000  0.1000000E+03  0.7546771E-02  0.1280296E+00
         21   -1    0    0  501  502  0.00000000000E+00  0.00000000000E+00  0.57482632958E+03  0.57482632958E+03  0.00000000000E+00 0. -1.
         21   -1    0    0  502  503 -0.00000000000E+00 -0.00000000000E+00 -0.69400965916E+02  0.69400965916E+02  0.00000000000E+00 0. -1.
          6    1    1    2  501    0 -0.81889158794E+02  0.51538171871E+02  0.29229772917E+03  0.35316990240E+03  0.17300000000E+03 0.  1.
         -6    1    1    2    0  503  0.81889158794E+02 -0.51538171871E+02  0.21312763450E+03  0.29105739309E+03  0.17300000000E+03 0.  1.
</event>
<event>
 4    1  0.3065897E+000  0.1000000E+03  0.7546771E-02  0.1280296E+00
         21   -1    0    0  501  502  0.00000000000E+00  0.00000000000E+00  0.31805970162E+03  0.31805970162E+03  0.00000000000E+00 0. -1.
         21   -1    0    0  502  503 -0.00000000000E+00 -0.00000000000E+00 -0.15682877674E+03  0.15682877674E+03  0.00000000000E+00 0. -1.
          6    1    1    2  501    0 -0.11131126409E+02 -0.98518594411E+02  0.18757751202E+03  0.27375927096E+03  0.17300000000E+03 0.  1.
         -6    1    1    2    0  503  0.11131126409E+02  0.98518594411E+02 -0.26346587138E+02  0.20112920741E+03  0.17300000000E+03 0.  1.
</event>
<event>
 4    1  0.3065897E+000  0.1000000E+03  0.7546771E-02  0.1280296E+00
         21   -1    0    0  503  502  0.00000000000E+00  0.00000000000E+00  0.35576137202E+03  0.35576137202E+03  0.00000000000E+00 0. -1.
         21   -1    0    0  501  503 -0.00000000000E+00 -0.00000000000E+00 -0.21313547755E+03  0.21313547755E+03  0.00000000000E+00 0.  1.
          6    1    1    2  501    0 -0.16512575439E+03 -0.53965814505E+02  0.20081857295E+03  0.31691627150E+03  0.17300000000E+03 0.  1.
         -6    1    1    2    0  502  0.16512575439E+03  0.53965814505E+02 -0.58192678483E+02  0.25198057808E+03  0.17300000000E+03 0.  1.
</event>
<event>
 4    1  0.3065897E+000  0.1000000E+03  0.7546771E-02  0.1280296E+00
         21   -1    0    0  503  502  0.00000000000E+00  0.00000000000E+00  0.39930082040E+03  0.39930082040E+03  0.00000000000E+00 0. -1.
         21   -1    0    0  501  503 -0.00000000000E+00 -0.00000000000E+00 -0.10565419107E+03  0.10565419107E+03  0.00000000000E+00 0.  1.
          6    1    1    2  501    0 -0.45979471014E+02  0.61290333618E+02  0.48576589315E+02  0.19534406000E+03  0.17300000000E+03 0.  1.
         -6    1    1    2    0  502  0.45979471014E+02 -0.61290333618E+02  0.24507004002E+03  0.30961095146E+03  0.17300000000E+03 0.  1.
</event>
<event>
 4    1  0.3065897E+000  0.1000000E+03  0.7546771E-02  0.1280296E+00
         21   -1    0    0  503  502  0.00000000000E+00  0.00000000000E+00  0.54522976635E+03  0.54522976635E+03  0.00000000000E+00 0. -1.
         21   -1    0    0  501  503 -0.00000000000E+00 -0.00000000000E+00 -0.30557826044E+03  0.30557826044E+03  0.00000000000E+00 0.  1.
          6    1    1    2  501    0 -0.65364104707E+02  0.45126784249E+02 -0.25648231088E+03  0.31940737098E+03  0.17300000000E+03 0.  1.
         -6    1    1    2    0  502  0.65364104707E+02 -0.45126784249E+02  0.49613381679E+03  0.53140065581E+03  0.17300000000E+03 0.  1.
</event>
<event>
 4    1  0.3065897E+000  0.1000000E+03  0.7546771E-02  0.1280296E+00
         21   -1    0    0  501  502  0.00000000000E+00  0.00000000000E+00  0.28532676003E+03  0.28532676003E+03  0.00000000000E+00 0.  1.
         21   -1    0    0  502  503 -0.00000000000E+00 -0.00000000000E+00 -0.34572144046E+03  0.34572144046E+03  0.00000000000E+00 0. -1.
          6    1    1    2  501    0  0.24553233653E+03 -0.91554968146E+02 -0.23373520723E+02  0.31487102431E+03  0.17300000000E+03 0.  1.
         -6    1    1    2    0  503 -0.24553233653E+03  0.91554968146E+02 -0.37021159702E+02  0.31617717619E+03  0.17300000000E+03 0. -1.
</event>
<event>
 4    1  0.3065897E+000  0.1000000E+03  0.7546771E-02  0.1280296E+00
         21   -1    0    0  501  502  0.00000000000E+00  0.00000000000E+00  0.85656649093E+02  0.85656649093E+02  0.00000000000E+00 0.  1.
         21   -1    0    0  502  503 -0.00000000000E+00 -0.00000000000E+00 -0.42457548823E+03  0.42457548823E+03  0.00000000000E+00 0. -1.
          6    1    1    2  501    0 -0.53143809042E+02  0.32512970646E+01 -0.89150299179E+02  0.20177118530E+03  0.17300000000E+03 0.  1.
         -6    1    1    2    0  503  0.53143809042E+02 -0.32512970646E+01 -0.24976853996E+03  0.30846095202E+03  0.17300000000E+03 0. -1.
</event>
<event>
 4    1  0.3065897E+000  0.1000000E+03  0.7546771E-02  0.1280296E+00
         21   -1    0    0  501  502  0.00000000000E+00  0.00000000000E+00  0.52744391359E+03  0.52744391359E+03  0.00000000000E+00 0.  1.
         21   -1    0    0  502  503 -0.00000000000E+00 -0.00000000000E+00 -0.11174205624E+03  0.11174205624E+03  0.00000000000E+00 0. -1.
          6    1    1    2  501    0 -0.67875245704E+02  0.14789668075E+03  0.27404295041E+03  0.36264171826E+03  0.17300000000E+03 0.  1.
         -6    1    1    2    0  503  0.67875245704E+02 -0.14789668075E+03  0.14165890694E+03  0.27654425156E+03  0.17300000000E+03 0. -1.
</event>
<event>
 4    1  0.3065897E+000  0.1000000E+03  0.7546771E-02  0.1280296E+00
         21   -1    0    0  503  502  0.00000000000E+00  0.00000000000E+00  0.14864976564E+04  0.14864976564E+04  0.00000000000E+00 0.  1.
         21   -1    0    0  501  503 -0.00000000000E+00 -0.00000000000E+00 -0.24451453004E+02  0.24451453004E+02  0.00000000000E+00 0. -1.
          6    1    1    2  501    0 -0.73105321400E+02 -0.29455673783E+02  0.67414802345E+03  0.70044027744E+03  0.17300000000E+03 0. -1.
         -6    1    1    2    0  502  0.73105321400E+02  0.29455673783E+02  0.78789817999E+03  0.81050883201E+03  0.17300000000E+03 0.  1.
</event>
<event>
 4    1  0.3065897E+000  0.1000000E+03  0.7546771E-02  0.1280296E+00
         21   -1    0    0  501  502  0.00000000000E+00  0.00000000000E+00  0.36689615417E+03  0.36689615417E+03  0.00000000000E+00 0. -1.
         21   -1    0    0  502  503 -0.00000000000E+00 -0.00000000000E+00 -0.17334210341E+03  0.17334210341E+03  0.00000000000E+00 0. -1.
          6    1    1    2  501    0  0.13934133492E+03  0.63806820662E+02 -0.11304943493E+02  0.23139602358E+03  0.17300000000E+03 0. -1.
         -6    1    1    2    0  503 -0.13934133492E+03 -0.63806820662E+02  0.20485899425E+03  0.30884223401E+03  0.17300000000E+03 0. -1.
</event>
<event>
 4    1  0.3065897E+000  0.1000000E+03  0.7546771E-02  0.1280296E+00
         21   -1    0    0  501  502  0.00000000000E+00  0.00000000000E+00  0.18159995530E+03  0.18159995530E+03  0.00000000000E+00 0. -1.
         21   -1    0    0  502  503 -0.00000000000E+00 -0.00000000000E+00 -0.21076990424E+03  0.21076990424E+03  0.00000000000E+00 0. -1.
          6    1    1    2  501    0  0.13816648666E+02 -0.70238361970E+02  0.42339424062E+02  0.19195299972E+03  0.17300000000E+03 0. -1.
         -6    1    1    2    0  503 -0.13816648666E+02  0.70238361970E+02 -0.71509373007E+02  0.20041685982E+03  0.17300000000E+03 0. -1.
</event>
<event>
 4    1  0.3065897E+000  0.1000000E+03  0.7546771E-02  0.1280296E+00
         21   -1    0    0  501  502  0.00000000000E+00  0.00000000000E+00  0.13811670609E+03  0.13811670609E+03  0.00000000000E+00 0. -1.
         21   -1    0    0  502  503 -0.00000000000E+00 -0.00000000000E+00 -0.54934650856E+03  0.54934650856E+03  0.00000000000E+00 0.  1.
          6    1    1    2  501    0  0.24262853215E+02 -0.14357847572E+03 -0.93304542245E+01  0.22631730405E+03  0.17300000000E+03 0. -1.
         -6    1    1    2    0  503 -0.24262853215E+02  0.14357847572E+03 -0.40189934825E+03  0.46114591060E+03  0.17300000000E+03 0.  1.
</event>
<event>
 4    1  0.3065897E+000  0.1000000E+03  0.7546771E-02  0.1280296E+00
         21   -1    0    0  501  502  0.00000000000E+00  0.00000000000E+00  0.16980736564E+04  0.16980736564E+04  0.00000000000E+00 0. -1.
         21   -1    0    0  502  503 -0.00000000000E+00 -0.00000000000E+00 -0.61413049866E+03  0.61413049866E+03  0.00000000000E+00 0.  1.
          6    1    1    2  501    0  0.39923181596E+03 -0.13500429021E+03  0.15766567110E+04  0.16411543455E+04  0.17300000000E+03 0. -1.
         -6    1    1    2    0  503 -0.39923181596E+03  0.13500429021E+03 -0.49271355333E+03  0.67104980954E+03  0.17300000000E+03 0.  1.
</event>
<event>
 4    1  0.3065897E+000  0.1000000E+03  0.7546771E-02  0.1280296E+00
         21   -1    0    0  501  502  0.00000000000E+00  0.00000000000E+00  0.31705984639E+02  0.31705984639E+02  0.00000000000E+00 0. -1.
         21   -1    0    0  502  503 -0.00000000000E+00 -0.00000000000E+00 -0.21395822104E+04  0.21395822104E+04  0.00000000000E+00 0.  1.
          6    1    1    2  501    0 -0.89861584736E+02  0.30426488704E+02 -0.34524367983E+03  0.39764692138E+03  0.17300000000E+03 0. -1.
         -6    1    1    2    0  503  0.89861584736E+02 -0.30426488704E+02 -0.17626325460E+04  0.17736412737E+04  0.17300000000E+03 0.  1.
</event>
<event>
 4    1  0.3065897E+000  0.1000000E+03  0.7546771E-02  0.1280296E+00
         21   -1    0    0  503  502  0.00000000000E+00  0.00000000000E+00  0.57918661720E+02  0.57918661720E+02  0.00000000000E+00 0. -1.
         21   -1    0    0  501  503 -0.00000000000E+00 -0.00000000000E+00 -0.19241231546E+04  0.19241231546E+04  0.00000000000E+00 0. -1.
          6    1    1    2  501    0 -0.32315376317E+02 -0.18618118777E+03 -0.15684594080E+04  0.15892456175E+04  0.17300000000E+03 0. -1.
         -6    1    1    2    0  502  0.32315376317E+02  0.18618118777E+03 -0.29774508484E+03  0.39279619878E+03  0.17300000000E+03 0. -1.
</event>
<event>
 4    1  0.3065897E+000  0.1000000E+03  0.7546771E-02  0.1280296E+00
         21   -1    0    0  501  502  0.00000000000E+00  0.00000000000E+00  0.36641624977E+02  0.36641624977E+02  0.00000000000E+00 0. -1.
         21   -1    0    0  502  503 -0.00000000000E+00 -0.00000000000E+00 -0.16269944232E+04  0.16269944232E+04  0.00000000000E+00 0. -1.
          6    1    1    2  501    0  0.72546981833E+02  0.49979808037E+02 -0.29071910610E+03  0.34958209970E+03  0.17300000000E+03 0. -1.
         -6    1    1    2    0  503 -0.72546981833E+02 -0.49979808037E+02 -0.12996336921E+04  0.13140539485E+04  0.17300000000E+03 0. -1.
</event>
<event>
 4    1  0.3065897E+000  0.1000000E+03  0.7546771E-02  0.1280296E+00
         21   -1    0    0  501  502  0.00000000000E+00  0.00000000000E+00  0.78100652369E+03  0.78100652369E+03  0.00000000000E+00 0. -1.
         21   -1    0    0  502  503 -0.00000000000E+00 -0.00000000000E+00 -0.47714457995E+02  0.47714457995E+02  0.00000000000E+00 0. -1.
          6    1    1    2  501    0 -0.40703648129E+02 -0.72624086060E+02  0.40985678980E+03  0.45259544075E+03  0.17300000000E+03 0. -1.
         -6    1    1    2    0  503  0.40703648129E+02  0.72624086060E+02  0.32343527590E+03  0.37612554093E+03  0.17300000000E+03 0. -1.
</event>
<event>
 4    1  0.3065897E+000  0.1000000E+03  0.7546771E-02  0.1280296E+00
         21   -1    0    0  503  502  0.00000000000E+00  0.00000000000E+00  0.17382287886E+03  0.17382287886E+03  0.00000000000E+00 0. -1.
         21   -1    0    0  501  503 -0.00000000000E+00 -0.00000000000E+00 -0.82248357847E+03  0.82248357847E+03  0.00000000000E+00 0. -1.
          6    1    1    2  501    0  0.10324268344E+01  0.11787951597E+03 -0.73916221542E+03  0.76823591878E+03  0.17300000000E+03 0. -1.
         -6    1    1    2    0  502 -0.10324268344E+01 -0.11787951597E+03  0.90501515818E+02  0.22807053855E+03  0.17300000000E+03 0. -1.
</event>
<event>
 4    1  0.3065897E+000  0.1000000E+03  0.7546771E-02  0.1280296E+00
         21   -1    0    0  503  502  0.00000000000E+00  0.00000000000E+00  0.19857490614E+04  0.19857490614E+04  0.00000000000E+00 0.  1.
         21   -1    0    0  501  503 -0.00000000000E+00 -0.00000000000E+00 -0.41344923327E+02  0.41344923327E+02  0.00000000000E+00 0. -1.
          6    1    1    2  501    0  0.52091411085E+02  0.13392765619E+02  0.18696552565E+03  0.26034206165E+03  0.17300000000E+03 0.  1.
         -6    1    1    2    0  502 -0.52091411085E+02 -0.13392765619E+02  0.17574386124E+04  0.17667519231E+04  0.17300000000E+03 0. -1.
</event>
<event>
 4    1  0.3065897E+000  0.1000000E+03  0.7546771E-02  0.1280296E+00
         21   -1    0    0  501  502  0.00000000000E+00  0.00000000000E+00  0.86390150711E+03  0.86390150711E+03  0.00000000000E+00 0. -1.
         21   -1    0    0  502  503 -0.00000000000E+00 -0.00000000000E+00 -0.15445181793E+03  0.15445181793E+03  0.00000000000E+00 0.  1.
          6    1    1    2  501    0  0.20382517263E+03 -0.57386276003E+02  0.69234371083E+03  0.74438343587E+03  0.17300000000E+03 0.  1.
         -6    1    1    2    0  503 -0.20382517263E+03  0.57386276003E+02  0.17105978347E+02  0.27396988916E+03  0.17300000000E+03 0. -1.
</event>
<event>
 4    1  0.3065897E+000  0.1000000E+03  0.7546771E-02  0.1280296E+00
         21   -1    0    0  501  502  0.00000000000E+00  0.00000000000E+00  0.10527647868E+04  0.10527647868E+04  0.00000000000E+00 0. -1.
         21   -1    0    0  502  503 -0.00000000000E+00 -0.00000000000E+00 -0.15120416452E+03  0.15120416452E+03  0.00000000000E+00 0.  1.
          6    1    1    2  501    0 -0.21143906313E+03  0.22751191197E+03  0.72397807421E+03  0.80656146662E+03  0.17300000000E+03 0.  1.
         -6    1    1    2    0  503  0.21143906313E+03 -0.22751191197E+03  0.17758254805E+03  0.39740748468E+03  0.17300000000E+03 0. -1.
</event>
<event>
 4    1  0.3065897E+000  0.1000000E+03  0.7546771E-02  0.1280296E+00
         21   -1    0    0  501  502  0.00000000000E+00  0.00000000000E+00  0.27033707096E+03  0.27033707096E+03  0.00000000000E+00 0. -1.
         21   -1    0    0  502  503 -0.00000000000E+00 -0.00000000000E+00 -0.17381259397E+03  0.17381259397E+03  0.00000000000E+00 0.  1.
          6    1    1    2  501    0  0.57865729111E+02  0.82744677952E+02  0.13313927951E+03  0.24052066872E+03  0.17300000000E+03 0.  1.
         -6    1    1    2    0  503 -0.57865729111E+02 -0.82744677952E+02 -0.36614802522E+02  0.20362899621E+03  0.17300000000E+03 0. -1.
</event>
<event>
 4    1  0.3065897E+000  0.1000000E+03  0.7546771E-02  0.1280296E+00
         21   -1    0    0  503  502  0.00000000000E+00  0.00000000000E+00  0.27511255107E+03  0.27511255107E+03  0.00000000000E+00 0. -1.
         21   -1    0    0  501  503 -0.00000000000E+00 -0.00000000000E+00 -0.16010697025E+03  0.16010697025E+03  0.00000000000E+00 0. -1.
          6    1    1    2  501    0 -0.21357842636E+02 -0.79250466200E+02 -0.31580156249E+02  0.19406983306E+03  0.17300000000E+03 0. -1.
         -6    1    1    2    0  502  0.21357842636E+02  0.79250466200E+02  0.14658573707E+03  0.24114968826E+03  0.17300000000E+03 0. -1.
</event>
<event>
 4    1  0.3065897E+000  0.1000000E+03  0.7546771E-02  0.1280296E+00
         21   -1    0    0  501  502  0.00000000000E+00  0.00000000000E+00  0.11577162601E+03  0.11577162601E+03  0.00000000000E+00 0.  1.
         21   -1    0    0  502  503 -0.00000000000E+00 -0.00000000000E+00 -0.65938840741E+03  0.65938840741E+03  0.00000000000E+00 0. -1.
          6    1    1    2  501    0  0.19634029989E+03 -0.73386470791E+02 -0.34158709666E+03  0.43651555764E+03  0.17300000000E+03 0. -1.
         -6    1    1    2    0  503 -0.19634029989E+03  0.73386470791E+02 -0.20202968475E+03  0.33864447578E+03  0.17300000000E+03 0.  1.
</event>
<event>
 4    1  0.3065897E+000  0.1000000E+03  0.7546771E-02  0.1280296E+00
         21   -1    0    0  503  502  0.00000000000E+00  0.00000000000E+00  0.23766827331E+03  0.23766827331E+03  0.00000000000E+00 0. -1.
         21   -1    0    0  501  503 -0.00000000000E+00 -0.00000000000E+00 -0.25077354982E+03  0.25077354982E+03  0.00000000000E+00 0. -1.
          6    1    1    2  501    0 -0.66643621454E+02 -0.15503235315E+03  0.28036016418E+02  0.24329287088E+03  0.17300000000E+03 0.  1.
         -6    1    1    2    0  502  0.66643621454E+02  0.15503235315E+03 -0.41141292930E+02  0.24514895225E+03  0.17300000000E+03 0.  1.
</event>
<event>
 4    1  0.3065897E+000  0.1000000E+03  0.7546771E-02  0.1280296E+00
         21   -1    0    0  503  502  0.00000000000E+00  0.00000000000E+00  0.98735565388E+03  0.98735565388E+03  0.00000000000E+00 0. -1.
         21   -1    0    0  501  503 -0.00000000000E+00 -0.00000000000E+00 -0.39069474105E+02  0.39069474105E+02  0.00000000000E+00 0. -1.
          6    1    1    2  501    0  0.37080768946E+02 -0.68911889087E+02  0.34290230050E+03  0.39196277830E+03  0.17300000000E+03 0.  1.
         -6    1    1    2    0  502 -0.37080768946E+02  0.68911889087E+02  0.60538387928E+03  0.63446234969E+03  0.17300000000E+03 0.  1.
</event>
<event>
 4    1  0.3065897E+000  0.1000000E+03  0.7546771E-02  0.1280296E+00
         21   -1    0    0  503  502  0.00000000000E+00  0.00000000000E+00  0.23678632087E+03  0.23678632087E+03  0.00000000000E+00 0.  1.
         21   -1    0    0  501  503 -0.00000000000E+00 -0.00000000000E+00 -0.32242698943E+03  0.32242698943E+03  0.00000000000E+00 0.  1.
          6    1    1    2  501    0  0.16201931804E+03 -0.10981179691E+03  0.48301271975E+02  0.26565184553E+03  0.17300000000E+03 0.  1.
         -6    1    1    2    0  502 -0.16201931804E+03  0.10981179691E+03 -0.13394194053E+03  0.29356146476E+03  0.17300000000E+03 0.  1.
</event>
<event>
 4    1  0.3065897E+000  0.1000000E+03  0.7546771E-02  0.1280296E+00
         21   -1    0    0  503  502  0.00000000000E+00  0.00000000000E+00  0.19051941396E+02  0.19051941396E+02  0.00000000000E+00 0.  1.
         21   -1    0    0  501  503 -0.00000000000E+00 -0.00000000000E+00 -0.19578553078E+04  0.19578553078E+04  0.00000000000E+00 0.  1.
          6    1    1    2  501    0  0.43445644953E+02  0.67894110425E+02 -0.11207763933E+04  0.11369106641E+04  0.17300000000E+03 0.  1.
         -6    1    1    2    0  502 -0.43445644953E+02 -0.67894110425E+02 -0.81802697308E+03  0.83999658510E+03  0.17300000000E+03 0.  1.
</event>
<event>
 4    1  0.3065897E+000  0.1000000E+03  0.7546771E-02  0.1280296E+00
         21   -1    0    0  501  502  0.00000000000E+00  0.00000000000E+00  0.64702535500E+03  0.64702535500E+03  0.00000000000E+00 0. -1.
         21   -1    0    0  502  503 -0.00000000000E+00 -0.00000000000E+00 -0.11231400845E+03  0.11231400845E+03  0.00000000000E+00 0.  1.
          6    1    1    2  501    0 -0.18604249808E+03 -0.17058780564E+02  0.39204705069E+03  0.46747481541E+03  0.17300000000E+03 0.  1.
         -6    1    1    2    0  503  0.18604249808E+03  0.17058780564E+02  0.14266429586E+03  0.29186454803E+03  0.17300000000E+03 0.  1.
</event>
<event>
 4    1  0.3065897E+000  0.1000000E+03  0.7546771E-02  0.1280296E+00
         21   -1    0    0  501  502  0.00000000000E+00  0.00000000000E+00  0.33298993389E+04  0.33298993389E+04  0.00000000000E+00 0. -1.
         21   -1    0    0  502  503 -0.00000000000E+00 -0.00000000000E+00 -0.12766247984E+02  0.12766247984E+02  0.00000000000E+00 0.  1.
          6    1    1    2  501    0 -0.15209943103E+02 -0.10021115089E+03  0.20479753411E+04  0.20577671430E+04  0.17300000000E+03 0.  1.
         -6    1    1    2    0  503  0.15209943103E+02  0.10021115089E+03  0.12691577498E+04  0.12848984439E+04  0.17300000000E+03 0.  1.
</event>
<event>
 4    1  0.3065897E+000  0.1000000E+03  0.7546771E-02  0.1280296E+00
         21   -1    0    0  501  502  0.00000000000E+00  0.00000000000E+00  0.44967997825E+03  0.44967997825E+03  0.00000000000E+00 0. -1.
         21   -1    0    0  502  503 -0.00000000000E+00 -0.00000000000E+00 -0.13369632566E+03  0.13369632566E+03  0.00000000000E+00 0.  1.
          6    1    1    2  501    0 -0.65282789387E+02  0.15723281363E+01  0.34954328855E+03  0.39544130459E+03  0.17300000000E+03 0.  1.
         -6    1    1    2    0  503  0.65282789387E+02 -0.15723281363E+01 -0.33559635959E+02  0.18793499933E+03  0.17300000000E+03 0.  1.
</event>
<event>
 4    1  0.3065897E+000  0.1000000E+03  0.7546771E-02  0.1280296E+00
         21   -1    0    0  501  502  0.00000000000E+00  0.00000000000E+00  0.21009293371E+03  0.21009293371E+03  0.00000000000E+00 0. -1.
         21   -1    0    0  502  503 -0.00000000000E+00 -0.00000000000E+00 -0.30070056281E+03  0.30070056281E+03  0.00000000000E+00 0.  1.
          6    1    1    2  501    0  0.63014400070E+02  0.19770805133E+02  0.12738886386E+03  0.22476348010E+03  0.17300000000E+03 0.  1.
         -6    1    1    2    0  503 -0.63014400070E+02 -0.19770805133E+02 -0.21799649296E+03  0.28603001642E+03  0.17300000000E+03 0.  1.
</event>
<event>
 4    1  0.3065897E+000  0.1000000E+03  0.7546771E-02  0.1280296E+00
         21   -1    0    0  501  502  0.00000000000E+00  0.00000000000E+00  0.12362567735E+04  0.12362567735E+04  0.00000000000E+00 0. -1.
         21   -1    0    0  502  503 -0.00000000000E+00 -0.00000000000E+00 -0.45259500746E+02  0.45259500746E+02  0.00000000000E+00 0. -1.
          6    1    1    2  501    0  0.58445248197E+02  0.93139145423E+02  0.91524179180E+03  0.93791645945E+03  0.17300000000E+03 0. -1.
         -6    1    1    2    0  503 -0.58445248197E+02 -0.93139145423E+02  0.27575548091E+03  0.34359981475E+03  0.17300000000E+03 0. -1.
</event>
<event>
 4    1  0.3065897E+000  0.1000000E+03  0.7546771E-02  0.1280296E+00
         21   -1    0    0  501  502  0.00000000000E+00  0.00000000000E+00  0.98219516251E+02  0.98219516251E+02  0.00000000000E+00 0. -1.
         21   -1    0    0  502  503 -0.00000000000E+00 -0.00000000000E+00 -0.68146825181E+03  0.68146825181E+03  0.00000000000E+00 0. -1.
          6    1    1    2  501    0 -0.10717806197E+03 -0.28661923786E+02 -0.54824797328E+02  0.21270496291E+03  0.17300000000E+03 0. -1.
         -6    1    1    2    0  503  0.10717806197E+03  0.28661923786E+02 -0.52842393823E+03  0.56698280515E+03  0.17300000000E+03 0. -1.
</event>
<event>
 4    1  0.3065897E+000  0.1000000E+03  0.7546771E-02  0.1280296E+00
         21   -1    0    0  501  502  0.00000000000E+00  0.00000000000E+00  0.76194711509E+03  0.76194711509E+03  0.00000000000E+00 0.  1.
         21   -1    0    0  502  503 -0.00000000000E+00 -0.00000000000E+00 -0.61190092507E+02  0.61190092507E+02  0.00000000000E+00 0. -1.
          6    1    1    2  501    0 -0.47428591016E+01  0.55377760592E+02  0.57270709352E+03  0.60084241366E+03  0.17300000000E+03 0.  1.
         -6    1    1    2    0  503  0.47428591016E+01 -0.55377760592E+02  0.12804992907E+03  0.22229479394E+03  0.17300000000E+03 0. -1.
</event>
<event>
 4    1  0.3065897E+000  0.1000000E+03  0.7546771E-02  0.1280296E+00
         21   -1    0    0  501  502  0.00000000000E+00  0.00000000000E+00  0.73326275869E+03  0.73326275869E+03  0.00000000000E+00 0.  1.
         21   -1    0    0  502  503 -0.00000000000E+00 -0.00000000000E+00 -0.24469812297E+03  0.24469812297E+03  0.00000000000E+00 0. -1.
          6    1    1    2  501    0  0.24379684964E+03 -0.23248240455E+03  0.46335202434E+03  0.59842215097E+03  0.17300000000E+03 0.  1.
         -6    1    1    2    0  503 -0.24379684964E+03  0.23248240455E+03  0.25212611384E+02  0.37953873068E+03  0.17300000000E+03 0. -1.
</event>
<event>
 4    1  0.3065897E+000  0.1000000E+03  0.7546771E-02  0.1280296E+00
         21   -1    0    0  503  502  0.00000000000E+00  0.00000000000E+00  0.57791926288E+02  0.57791926288E+02  0.00000000000E+00 0.  1.
         21   -1    0    0  501  503 -0.00000000000E+00 -0.00000000000E+00 -0.74624355730E+03  0.74624355730E+03  0.00000000000E+00 0.  1.
          6    1    1    2  501    0 -0.57508970334E+02 -0.76792302336E+02 -0.46656030224E+03  0.50676607522E+03  0.17300000000E+03 0.  1.
         -6    1    1    2    0  502  0.57508970334E+02  0.76792302336E+02 -0.22189132877E+03  0.29726940837E+03  0.17300000000E+03 0.  1.
</event>
<event>
 4    1  0.3065897E+000  0.1000000E+03  0.7546771E-02  0.1280296E+00
         21   -1    0    0  501  502  0.00000000000E+00  0.00000000000E+00  0.12849940306E+04  0.12849940306E+04  0.00000000000E+00 0. -1.
         21   -1    0    0  502  503 -0.00000000000E+00 -0.00000000000E+00 -0.41622538432E+02  0.41622538432E+02  0.00000000000E+00 0. -1.
          6    1    1    2  501    0  0.96788270293E+02 -0.85410346776E+02  0.85980743465E+03  0.88648785738E+03  0.17300000000E+03 0. -1.
         -6    1    1    2    0  503 -0.96788270293E+02  0.85410346776E+02  0.38356405753E+03  0.44012871166E+03  0.17300000000E+03 0. -1.
</event>
<event>
 4    1  0.3065897E+000  0.1000000E+03  0.7546771E-02  0.1280296E+00
         21   -1    0    0  501  502  0.00000000000E+00  0.00000000000E+00  0.26312965485E+03  0.26312965485E+03  0.00000000000E+00 0.  1.
         21   -1    0    0  502  503 -0.00000000000E+00 -0.00000000000E+00 -0.14621427424E+03  0.14621427424E+03  0.00000000000E+00 0. -1.
          6    1    1    2  501    0  0.82825635387E+02  0.32903352109E+02  0.84051250548E+02  0.21198190766E+03  0.17300000000E+03 0.  1.
         -6    1    1    2    0  503 -0.82825635387E+02 -0.32903352109E+02  0.32864130060E+02  0.19736202143E+03  0.17300000000E+03 0. -1.
</event>
<event>
 4    1  0.3065897E+000  0.1000000E+03  0.7546771E-02  0.1280296E+00
         21   -1    0    0  501  502  0.00000000000E+00  0.00000000000E+00  0.16183508590E+03  0.16183508590E+03  0.00000000000E+00 0.  1.
         21   -1    0    0  502  503 -0.00000000000E+00 -0.00000000000E+00 -0.39470064130E+03  0.39470064130E+03  0.00000000000E+00 0. -1.
          6    1    1    2  501    0  0.38519726164E+02  0.12596368240E+03  0.25409237552E+02  0.21891835908E+03  0.17300000000E+03 0.  1.
         -6    1    1    2    0  503 -0.38519726164E+02 -0.12596368240E+03 -0.25827479295E+03  0.33761736812E+03  0.17300000000E+03 0. -1.
</event>
<event>
 4    1  0.3065897E+000  0.1000000E+03  0.7546771E-02  0.1280296E+00
         21   -1    0    0  501  502  0.00000000000E+00  0.00000000000E+00  0.73016790006E+03  0.73016790006E+03  0.00000000000E+00 0. -1.
         21   -1    0    0  502  503 -0.00000000000E+00 -0.00000000000E+00 -0.12919129969E+03  0.12919129969E+03  0.00000000000E+00 0. -1.
          6    1    1    2  501    0 -0.17271777901E+03 -0.51808820212E+02  0.55030524645E+03  0.60438435561E+03  0.17300000000E+03 0. -1.
         -6    1    1    2    0  503  0.17271777901E+03  0.51808820212E+02  0.50671353920E+02  0.25497484414E+03  0.17300000000E+03 0. -1.
</event>
<event>
 4    1  0.3065897E+000  0.1000000E+03  0.7546771E-02  0.1280296E+00
         21   -1    0    0  503  502  0.00000000000E+00  0.00000000000E+00  0.41424959334E+03  0.41424959334E+03  0.00000000000E+00 0.  1.
         21   -1    0    0  501  503 -0.00000000000E+00 -0.00000000000E+00 -0.18138899445E+03  0.18138899445E+03  0.00000000000E+00 0.  1.
          6    1    1    2  501    0 -0.11970140463E+03 -0.16590793383E+03  0.53476638353E+02  0.27320801530E+03  0.17300000000E+03 0.  1.
         -6    1    1    2    0  502  0.11970140463E+03  0.16590793383E+03  0.17938396054E+03  0.32243057249E+03  0.17300000000E+03 0.  1.
</event>
<event>
 4    1  0.3065897E+000  0.1000000E+03  0.7546771E-02  0.1280296E+00
         21   -1    0    0  503  502  0.00000000000E+00  0.00000000000E+00  0.54180281170E+02  0.54180281170E+02  0.00000000000E+00 0. -1.
         21   -1    0    0  501  503 -0.00000000000E+00 -0.00000000000E+00 -0.66303752686E+03  0.66303752686E+03  0.00000000000E+00 0. -1.
          6    1    1    2  501    0 -0.38137028127E+02 -0.72509889345E+00 -0.43190808593E+03  0.46682818400E+03  0.17300000000E+03 0. -1.
         -6    1    1    2    0  502  0.38137028127E+02  0.72509889345E+00 -0.17694915976E+03  0.25038962403E+03  0.17300000000E+03 0. -1.
</event>
<event>
 4    1  0.3065897E+000  0.1000000E+03  0.7546771E-02  0.1280296E+00
         21   -1    0    0  503  502  0.00000000000E+00  0.00000000000E+00  0.55988117915E+02  0.55988117915E+02  0.00000000000E+00 0. -1.
         21   -1    0    0  501  503 -0.00000000000E+00 -0.00000000000E+00 -0.75628216055E+03  0.75628216055E+03  0.00000000000E+00 0. -1.
          6    1    1    2  501    0 -0.35362151135E+01 -0.68938411721E+02 -0.52276161444E+03  0.55495379534E+03  0.17300000000E+03 0. -1.
         -6    1    1    2    0  502  0.35362151135E+01  0.68938411721E+02 -0.17753242819E+03  0.25731648313E+03  0.17300000000E+03 0. -1.
</event>
<event>
 4    1  0.3065897E+000  0.1000000E+03  0.7546771E-02  0.1280296E+00
         21   -1    0    0  503  502  0.00000000000E+00  0.00000000000E+00  0.50248059059E+02  0.50248059059E+02  0.00000000000E+00 0. -1.
         21   -1    0    0  501  503 -0.00000000000E+00 -0.00000000000E+00 -0.15442294700E+04  0.15442294700E+04  0.00000000000E+00 0. -1.
          6    1    1    2  501    0 -0.64650468619E+02  0.20827101207E+03 -0.71710538680E+03  0.76923704626E+03  0.17300000000E+03 0. -1.
         -6    1    1    2    0  502  0.64650468619E+02 -0.20827101207E+03 -0.77687602414E+03  0.82524048280E+03  0.17300000000E+03 0. -1.
</event>
<event>
 4    1  0.3065897E+000  0.1000000E+03  0.7546771E-02  0.1280296E+00
         21   -1    0    0  501  502  0.00000000000E+00  0.00000000000E+00  0.22562632481E+03  0.22562632481E+03  0.00000000000E+00 0.  1.
         21   -1    0    0  502  503 -0.00000000000E+00 -0.00000000000E+00 -0.26126071855E+03  0.26126071855E+03  0.00000000000E+00 0. -1.
          6    1    1    2  501    0  0.96625636580E+02 -0.85783555870E+02  0.93490158042E+02  0.23529713503E+03  0.17300000000E+03 0.  1.
         -6    1    1    2    0  503 -0.96625636580E+02  0.85783555870E+02 -0.12912455177E+03  0.25158990833E+03  0.17300000000E+03 0. -1.
</event>
<event>
 4    1  0.3065897E+000  0.1000000E+03  0.7546771E-02  0.1280296E+00
         21   -1    0    0  501  502  0.00000000000E+00  0.00000000000E+00  0.19519759858E+03  0.19519759858E+03  0.00000000000E+00 0.  1.
         21   -1    0    0  502  503 -0.00000000000E+00 -0.00000000000E+00 -0.19524755041E+03  0.19524755041E+03  0.00000000000E+00 0. -1.
          6    1    1    2  501    0  0.46386442378E+02 -0.61595099037E+02  0.47274017129E+02  0.19521652327E+03  0.17300000000E+03 0.  1.
         -6    1    1    2    0  503 -0.46386442378E+02  0.61595099037E+02 -0.47323968964E+02  0.19522862572E+03  0.17300000000E+03 0. -1.
</event>
<event>
 4    1  0.3065897E+000  0.1000000E+03  0.7546771E-02  0.1280296E+00
         21   -1    0    0  501  502  0.00000000000E+00  0.00000000000E+00  0.13103651887E+04  0.13103651887E+04  0.00000000000E+00 0.  1.
         21   -1    0    0  502  503 -0.00000000000E+00 -0.00000000000E+00 -0.61464926708E+02  0.61464926708E+02  0.00000000000E+00 0. -1.
          6    1    1    2  501    0  0.11885995968E+03 -0.16940198903E+03  0.83773852086E+03  0.88009065058E+03  0.17300000000E+03 0.  1.
         -6    1    1    2    0  503 -0.11885995968E+03  0.16940198903E+03  0.41116174114E+03  0.49173946484E+03  0.17300000000E+03 0. -1.
</event>
<event>
 4    1  0.3065897E+000  0.1000000E+03  0.7546771E-02  0.1280296E+00
         21   -1    0    0  503  502  0.00000000000E+00  0.00000000000E+00  0.59909391963E+02  0.59909391963E+02  0.00000000000E+00 0.  1.
         21   -1    0    0  501  503 -0.00000000000E+00 -0.00000000000E+00 -0.58362511531E+03  0.58362511531E+03  0.00000000000E+00 0.  1.
          6    1    1    2  501    0  0.37013724011E+02  0.33606799134E+02 -0.34851783639E+03  0.39229212966E+03  0.17300000000E+03 0.  1.
         -6    1    1    2    0  502 -0.37013724011E+02 -0.33606799134E+02 -0.17519788696E+03  0.25124237761E+03  0.17300000000E+03 0.  1.
</event>
<event>
 4    1  0.3065897E+000  0.1000000E+03  0.7546771E-02  0.1280296E+00
         21   -1    0    0  503  502  0.00000000000E+00  0.00000000000E+00  0.36714555419E+03  0.36714555419E+03  0.00000000000E+00 0. -1.
         21   -1    0    0  501  503 -0.00000000000E+00 -0.00000000000E+00 -0.15477791848E+03  0.15477791848E+03  0.00000000000E+00 0.  1.
          6    1    1    2  501    0 -0.15348999936E+03  0.17302117622E+00  0.42937635674E+02  0.23522723141E+03  0.17300000000E+03 0.  1.
         -6    1    1    2    0  502  0.15348999936E+03 -0.17302117622E+00  0.16943000004E+03  0.28669624126E+03  0.17300000000E+03 0. -1.
</event>
<event>
 4    1  0.3065897E+000  0.1000000E+03  0.7546771E-02  0.1280296E+00
         21   -1    0    0  503  502  0.00000000000E+00  0.00000000000E+00  0.13712456900E+03  0.13712456900E+03  0.00000000000E+00 0.  1.
         21   -1    0    0  501  503 -0.00000000000E+00 -0.00000000000E+00 -0.62474063547E+03  0.62474063547E+03  0.00000000000E+00 0.  1.
          6    1    1    2  501    0  0.43482522135E+02 -0.33636817199E+02 -0.54262989585E+03  0.57218735487E+03  0.17300000000E+03 0.  1.
         -6    1    1    2    0  502 -0.43482522135E+02  0.33636817199E+02  0.55013829390E+02  0.18967784959E+03  0.17300000000E+03 0.  1.
</event>
<event>
 4    1  0.3065897E+000  0.1000000E+03  0.7546771E-02  0.1280296E+00
         21   -1    0    0  503  502  0.00000000000E+00  0.00000000000E+00  0.84884369421E+03  0.84884369421E+03  0.00000000000E+00 0.  1.
         21   -1    0    0  501  503 -0.00000000000E+00 -0.00000000000E+00 -0.69461812981E+02  0.69461812981E+02  0.00000000000E+00 0.  1.
          6    1    1    2  501    0 -0.17545156013E+02  0.44076725659E+01  0.69317633491E+02  0.18724634680E+03  0.17300000000E+03 0.  1.
         -6    1    1    2    0  502  0.17545156013E+02 -0.44076725659E+01  0.71006424774E+03  0.73105916040E+03  0.17300000000E+03 0.  1.
</event>
<event>
 4    1  0.3065897E+000  0.1000000E+03  0.7546771E-02  0.1280296E+00
         21   -1    0    0  503  502  0.00000000000E+00  0.00000000000E+00  0.12241746128E+03  0.12241746128E+03  0.00000000000E+00 0.  1.
         21   -1    0    0  501  503 -0.00000000000E+00 -0.00000000000E+00 -0.51331126054E+03  0.51331126054E+03  0.00000000000E+00 0.  1.
          6    1    1    2  501    0 -0.36149171548E+02 -0.39679862124E+02 -0.41517875034E+03  0.45297201767E+03  0.17300000000E+03 0.  1.
         -6    1    1    2    0  502  0.36149171548E+02  0.39679862124E+02  0.24284951073E+02  0.18275670415E+03  0.17300000000E+03 0.  1.
</event>
<event>
 4    1  0.3065897E+000  0.1000000E+03  0.7546771E-02  0.1280296E+00
         21   -1    0    0  503  502  0.00000000000E+00  0.00000000000E+00  0.60566652615E+03  0.60566652615E+03  0.00000000000E+00 0.  1.
         21   -1    0    0  501  503 -0.00000000000E+00 -0.00000000000E+00 -0.20814201715E+03  0.20814201715E+03  0.00000000000E+00 0.  1.
          6    1    1    2  501    0 -0.17142725676E+02  0.27758443319E+03  0.41674074118E+02  0.33017074226E+03  0.17300000000E+03 0.  1.
         -6    1    1    2    0  502  0.17142725676E+02 -0.27758443319E+03  0.35585043487E+03  0.48363780104E+03  0.17300000000E+03 0.  1.
</event>
<event>
 4    1  0.3065897E+000  0.1000000E+03  0.7546771E-02  0.1280296E+00
         21   -1    0    0  503  502  0.00000000000E+00  0.00000000000E+00  0.13030683999E+04  0.13030683999E+04  0.00000000000E+00 0. -1.
         21   -1    0    0  501  503 -0.00000000000E+00 -0.00000000000E+00 -0.61532190465E+02  0.61532190465E+02  0.00000000000E+00 0. -1.
          6    1    1    2  501    0  0.18765981821E+03 -0.12194673647E+03  0.65166702193E+03  0.71041264162E+03  0.17300000000E+03 0. -1.
         -6    1    1    2    0  502 -0.18765981821E+03  0.12194673647E+03  0.58986918747E+03  0.65418794870E+03  0.17300000000E+03 0. -1.
</event>
<event>
 4    1  0.3065897E+000  0.1000000E+03  0.7546771E-02  0.1280296E+00
         21   -1    0    0  503  502  0.00000000000E+00  0.00000000000E+00  0.70902031556E+02  0.70902031556E+02  0.00000000000E+00 0. -1.
         21   -1    0    0  501  503 -0.00000000000E+00 -0.00000000000E+00 -0.59588847248E+03  0.59588847248E+03  0.00000000000E+00 0. -1.
          6    1    1    2  501    0 -0.10469405019E+03  0.18707666707E+02 -0.31403779603E+03  0.37397801844E+03  0.17300000000E+03 0. -1.
         -6    1    1    2    0  502  0.10469405019E+03 -0.18707666707E+02 -0.21094864490E+03  0.29281248560E+03  0.17300000000E+03 0. -1.
</event>
<event>
 4    1  0.3065897E+000  0.1000000E+03  0.7546771E-02  0.1280296E+00
         21   -1    0    0  501  502  0.00000000000E+00  0.00000000000E+00  0.34418259181E+02  0.34418259181E+02  0.00000000000E+00 0. -1.
         21   -1    0    0  502  503 -0.00000000000E+00 -0.00000000000E+00 -0.11238850586E+04  0.11238850586E+04  0.00000000000E+00 0.  1.
          6    1    1    2  501    0  0.52527624402E+02  0.52363507217E+01 -0.31727591013E+03  0.36521168361E+03  0.17300000000E+03 0. -1.
         -6    1    1    2    0  503 -0.52527624402E+02 -0.52363507217E+01 -0.77219088924E+03  0.79309163412E+03  0.17300000000E+03 0.  1.
</event>
<event>
 4    1  0.3065897E+000  0.1000000E+03  0.7546771E-02  0.1280296E+00
         21   -1    0    0  501  502  0.00000000000E+00  0.00000000000E+00  0.25526112202E+03  0.25526112202E+03  0.00000000000E+00 0.  1.
         21   -1    0    0  502  503 -0.00000000000E+00 -0.00000000000E+00 -0.29245714257E+03  0.29245714257E+03  0.00000000000E+00 0.  1.
          6    1    1    2  501    0  0.10892695955E+03  0.24113060601E+01  0.16307548231E+03  0.26152152845E+03  0.17300000000E+03 0.  1.
         -6    1    1    2    0  503 -0.10892695955E+03 -0.24113060601E+01 -0.20027150286E+03  0.28619673613E+03  0.17300000000E+03 0.  1.
</event>
<event>
 4    1  0.3065897E+000  0.1000000E+03  0.7546771E-02  0.1280296E+00
         21   -1    0    0  501  502  0.00000000000E+00  0.00000000000E+00  0.73540824358E+03  0.73540824358E+03  0.00000000000E+00 0.  1.
         21   -1    0    0  502  503 -0.00000000000E+00 -0.00000000000E+00 -0.64986738896E+02  0.64986738896E+02  0.00000000000E+00 0.  1.
          6    1    1    2  501    0  0.91216471398E+02  0.97441599119E+02  0.34782391193E+03  0.41076244182E+03  0.17300000000E+03 0.  1.
         -6    1    1    2    0  503 -0.91216471398E+02 -0.97441599119E+02  0.32259759275E+03  0.38963254066E+03  0.17300000000E+03 0.  1.
</event>
<event>
 4    1  0.3065897E+000  0.1000000E+03  0.7546771E-02  0.1280296E+00
         21   -1    0    0  501  502  0.00000000000E+00  0.00000000000E+00  0.30733856013E+03  0.30733856013E+03  0.00000000000E+00 0.  1.
         21   -1    0    0  502  503 -0.00000000000E+00 -0.00000000000E+00 -0.26797744960E+03  0.26797744960E+03  0.00000000000E+00 0.  1.
          6    1    1    2  501    0 -0.13136809514E+03 -0.16175087198E+03 -0.75462781104E+02  0.28114863034E+03  0.17300000000E+03 0.  1.
         -6    1    1    2    0  503  0.13136809514E+03  0.16175087198E+03  0.11482389163E+03  0.29416737939E+03  0.17300000000E+03 0.  1.
</event>
<event>
 4    1  0.3065897E+000  0.1000000E+03  0.7546771E-02  0.1280296E+00
         21   -1    0    0  501  502  0.00000000000E+00  0.00000000000E+00  0.32051802682E+03  0.32051802682E+03  0.00000000000E+00 0.  1.
         21   -1    0    0  502  503 -0.00000000000E+00 -0.00000000000E+00 -0.31721514595E+03  0.31721514595E+03  0.00000000000E+00 0.  1.
          6    1    1    2  501    0 -0.17739504811E+03 -0.41922500593E+02  0.19791327242E+03  0.31988304511E+03  0.17300000000E+03 0.  1.
         -6    1    1    2    0  503  0.17739504811E+03  0.41922500593E+02 -0.19461039155E+03  0.31785012765E+03  0.17300000000E+03 0.  1.
</event>
<event>
 4    1  0.3065897E+000  0.1000000E+03  0.7546771E-02  0.1280296E+00
         21   -1    0    0  501  502  0.00000000000E+00  0.00000000000E+00  0.24465179952E+03  0.24465179952E+03  0.00000000000E+00 0. -1.
         21   -1    0    0  502  503 -0.00000000000E+00 -0.00000000000E+00 -0.15638537951E+03  0.15638537951E+03  0.00000000000E+00 0.  1.
          6    1    1    2  501    0  0.79113790071E+02  0.12034690722E+02  0.89135941515E+02  0.21042348165E+03  0.17300000000E+03 0. -1.
         -6    1    1    2    0  503 -0.79113790071E+02 -0.12034690722E+02 -0.86952150494E+00  0.19061369738E+03  0.17300000000E+03 0.  1.
</event>
<event>
 4    1  0.3065897E+000  0.1000000E+03  0.7546771E-02  0.1280296E+00
         21   -1    0    0  503  502  0.00000000000E+00  0.00000000000E+00  0.13468244162E+04  0.13468244162E+04  0.00000000000E+00 0.  1.
         21   -1    0    0  501  503 -0.00000000000E+00 -0.00000000000E+00 -0.76155441471E+02  0.76155441471E+02  0.00000000000E+00 0. -1.
          6    1    1    2  501    0  0.18563738589E+03  0.10209517662E+03  0.26522665245E+03  0.38099716705E+03  0.17300000000E+03 0.  1.
         -6    1    1    2    0  502 -0.18563738589E+03 -0.10209517662E+03  0.10054423223E+04  0.10419826906E+04  0.17300000000E+03 0.  1.
</event>
<event>
 4    1  0.3065897E+000  0.1000000E+03  0.7546771E-02  0.1280296E+00
         21   -1    0    0  503  502  0.00000000000E+00  0.00000000000E+00  0.16997955812E+04  0.16997955812E+04  0.00000000000E+00 0.  1.
         21   -1    0    0  501  503 -0.00000000000E+00 -0.00000000000E+00 -0.23742139065E+02  0.23742139065E+02  0.00000000000E+00 0. -1.
          6    1    1    2  501    0 -0.15290260074E+02 -0.91324959196E+02  0.65333081437E+03  0.68216141289E+03  0.17300000000E+03 0.  1.
         -6    1    1    2    0  502  0.15290260074E+02  0.91324959196E+02  0.10227226277E+04  0.10413763073E+04  0.17300000000E+03 0.  1.
</event>
<event>
 4    1  0.3065897E+000  0.1000000E+03  0.7546771E-02  0.1280296E+00
         21   -1    0    0  503  502  0.00000000000E+00  0.00000000000E+00  0.18142943440E+03  0.18142943440E+03  0.00000000000E+00 0.  1.
         21   -1    0    0  501  503 -0.00000000000E+00 -0.00000000000E+00 -0.18483157556E+03  0.18483157556E+03  0.00000000000E+00 0. -1.
          6    1    1    2  501    0  0.29195562811E+02  0.48355283807E+02 -0.22055667166E+02  0.18331957564E+03  0.17300000000E+03 0.  1.
         -6    1    1    2    0  502 -0.29195562811E+02 -0.48355283807E+02  0.18653526008E+02  0.18294143432E+03  0.17300000000E+03 0.  1.
</event>
<event>
 4    1  0.3065897E+000  0.1000000E+03  0.7546771E-02  0.1280296E+00
         21   -1    0    0  503  502  0.00000000000E+00  0.00000000000E+00  0.50683946145E+02  0.50683946145E+02  0.00000000000E+00 0.  1.
         21   -1    0    0  501  503 -0.00000000000E+00 -0.00000000000E+00 -0.80395680767E+03  0.80395680767E+03  0.00000000000E+00 0. -1.
          6    1    1    2  501    0 -0.59018242445E+02  0.64454665732E+02 -0.49603355874E+03  0.53255595788E+03  0.17300000000E+03 0. -1.
         -6    1    1    2    0  502  0.59018242445E+02 -0.64454665732E+02 -0.25723930279E+03  0.32208479594E+03  0.17300000000E+03 0.  1.
</event>
<event>
 4    1  0.3065897E+000  0.1000000E+03  0.7546771E-02  0.1280296E+00
         21   -1    0    0  503  502  0.00000000000E+00  0.00000000000E+00  0.14742790079E+03  0.14742790079E+03  0.00000000000E+00 0.  1.
         21   -1    0    0  501  503 -0.00000000000E+00 -0.00000000000E+00 -0.20058786788E+04  0.20058786788E+04  0.00000000000E+00 0. -1.
          6    1    1    2  501    0  0.22582785173E+02 -0.10727884124E+00 -0.19489638750E+04  0.19567573124E+04  0.17300000000E+03 0. -1.
         -6    1    1    2    0  502 -0.22582785173E+02  0.10727884124E+00  0.90513096986E+02  0.19654926716E+03  0.17300000000E+03 0.  1.
</event>
<event>
 4    1  0.3065897E+000  0.1000000E+03  0.7546771E-02  0.1280296E+00
         21   -1    0    0  503  502  0.00000000000E+00  0.00000000000E+00  0.17519619184E+04  0.17519619184E+04  0.00000000000E+00 0.  1.
         21   -1    0    0  501  503 -0.00000000000E+00 -0.00000000000E+00 -0.21562799061E+02  0.21562799061E+02  0.00000000000E+00 0.  1.
          6    1    1    2  501    0 -0.51507523284E+02  0.34105754975E+02  0.57549769922E+03  0.60410498200E+03  0.17300000000E+03 0.  1.
         -6    1    1    2    0  502  0.51507523284E+02 -0.34105754975E+02  0.11549014201E+04  0.11694197354E+04  0.17300000000E+03 0.  1.
</event>
<event>
 4    1  0.3065897E+000  0.1000000E+03  0.7546771E-02  0.1280296E+00
         21   -1    0    0  503  502  0.00000000000E+00  0.00000000000E+00  0.90909508116E+03  0.90909508116E+03  0.00000000000E+00 0.  1.
         21   -1    0    0  501  503 -0.00000000000E+00 -0.00000000000E+00 -0.48004922368E+02  0.48004922368E+02  0.00000000000E+00 0.  1.
          6    1    1    2  501    0  0.94306222476E+01 -0.64592573781E+02  0.20784703546E+03  0.27819153002E+03  0.17300000000E+03 0.  1.
         -6    1    1    2    0  502 -0.94306222476E+01  0.64592573781E+02  0.65324312334E+03  0.67890847352E+03  0.17300000000E+03 0.  1.
</event>
<event>
 4    1  0.3065897E+000  0.1000000E+03  0.7546771E-02  0.1280296E+00
         21   -1    0    0  503  502  0.00000000000E+00  0.00000000000E+00  0.19862003541E+03  0.19862003541E+03  0.00000000000E+00 0. -1.
         21   -1    0    0  501  503 -0.00000000000E+00 -0.00000000000E+00 -0.19269820541E+03  0.19269820541E+03  0.00000000000E+00 0.  1.
          6    1    1    2  501    0  0.85073707773E+02  0.88755634178E+01  0.35033466670E+02  0.19614447524E+03  0.17300000000E+03 0. -1.
         -6    1    1    2    0  502 -0.85073707773E+02 -0.88755634178E+01 -0.29111636671E+02  0.19517376558E+03  0.17300000000E+03 0.  1.
</event>
<event>
 4    1  0.3065897E+000  0.1000000E+03  0.7546771E-02  0.1280296E+00
         21   -1    0    0  503  502  0.00000000000E+00  0.00000000000E+00  0.12349002932E+04  0.12349002932E+04  0.00000000000E+00 0. -1.
         21   -1    0    0  501  503 -0.00000000000E+00 -0.00000000000E+00 -0.32187143807E+03  0.32187143807E+03  0.00000000000E+00 0.  1.
          6    1    1    2  501    0  0.45371656019E+03  0.39771457729E+03  0.38332110209E+03  0.73545881550E+03  0.17300000000E+03 0. -1.
         -6    1    1    2    0  502 -0.45371656019E+03 -0.39771457729E+03  0.52970775305E+03  0.82131291578E+03  0.17300000000E+03 0.  1.
</event>
<event>
 4    1  0.3065897E+000  0.1000000E+03  0.7546771E-02  0.1280296E+00
         21   -1    0    0  501  502  0.00000000000E+00  0.00000000000E+00  0.32317509250E+02  0.32317509250E+02  0.00000000000E+00 0. -1.
         21   -1    0    0  502  503 -0.00000000000E+00 -0.00000000000E+00 -0.25810204372E+04  0.25810204372E+04  0.00000000000E+00 0.  1.
          6    1    1    2  501    0 -0.11671763523E+03  0.76796756892E+01 -0.37174419819E+03  0.42638566190E+03  0.17300000000E+03 0. -1.
         -6    1    1    2    0  503  0.11671763523E+03 -0.76796756892E+01 -0.21769587298E+04  0.21869522846E+04  0.17300000000E+03 0.  1.
</event>
<event>
 4    1  0.3065897E+000  0.1000000E+03  0.7546771E-02  0.1280296E+00
         21   -1    0    0  501  502  0.00000000000E+00  0.00000000000E+00  0.41299499478E+03  0.41299499478E+03  0.00000000000E+00 0.  1.
         21   -1    0    0  502  503 -0.00000000000E+00 -0.00000000000E+00 -0.14596423752E+03  0.14596423752E+03  0.00000000000E+00 0.  1.
          6    1    1    2  501    0  0.14677216544E+03  0.79737421835E+02  0.77133903007E+02  0.25254457821E+03  0.17300000000E+03 0.  1.
         -6    1    1    2    0  503 -0.14677216544E+03 -0.79737421835E+02  0.18989685425E+03  0.30641465410E+03  0.17300000000E+03 0.  1.
</event>
<event>
 4    1  0.3065897E+000  0.1000000E+03  0.7546771E-02  0.1280296E+00
         21   -1    0    0  501  502  0.00000000000E+00  0.00000000000E+00  0.51760933066E+03  0.51760933066E+03  0.00000000000E+00 0.  1.
         21   -1    0    0  502  503 -0.00000000000E+00 -0.00000000000E+00 -0.85466980613E+02  0.85466980613E+02  0.00000000000E+00 0.  1.
          6    1    1    2  501    0 -0.40461554436E+02 -0.23738044219E+02  0.37383009853E+03  0.41458241002E+03  0.17300000000E+03 0.  1.
         -6    1    1    2    0  503  0.40461554436E+02  0.23738044219E+02  0.58312251509E+02  0.18849390125E+03  0.17300000000E+03 0.  1.
</event>
<event>
 4    1  0.3065897E+000  0.1000000E+03  0.7546771E-02  0.1280296E+00
         21   -1    0    0  501  502  0.00000000000E+00  0.00000000000E+00  0.12058142748E+04  0.12058142748E+04  0.00000000000E+00 0. -1.
         21   -1    0    0  502  503 -0.00000000000E+00 -0.00000000000E+00 -0.15318200446E+03  0.15318200446E+03  0.00000000000E+00 0.  1.
          6    1    1    2  501    0 -0.18902990875E+03 -0.83876786158E+02  0.10554642938E+04  0.10893582960E+04  0.17300000000E+03 0. -1.
         -6    1    1    2    0  503  0.18902990875E+03  0.83876786158E+02 -0.28320234137E+01  0.26963798326E+03  0.17300000000E+03 0.  1.
</event>
<event>
 4    1  0.3065897E+000  0.1000000E+03  0.7546771E-02  0.1280296E+00
         21   -1    0    0  501  502  0.00000000000E+00  0.00000000000E+00  0.42228496256E+03  0.42228496256E+03  0.00000000000E+00 0. -1.
         21   -1    0    0  502  503 -0.00000000000E+00 -0.00000000000E+00 -0.11857838194E+03  0.11857838194E+03  0.00000000000E+00 0.  1.
          6    1    1    2  501    0 -0.22941895286E+02 -0.79219091780E+02  0.29145047305E+03  0.34881853922E+03  0.17300000000E+03 0. -1.
         -6    1    1    2    0  503  0.22941895286E+02  0.79219091780E+02  0.12256107575E+02  0.19204480528E+03  0.17300000000E+03 0.  1.
</event>
<event>
 4    1  0.3065897E+000  0.1000000E+03  0.7546771E-02  0.1280296E+00
         21   -1    0    0  501  502  0.00000000000E+00  0.00000000000E+00  0.62765027191E+02  0.62765027191E+02  0.00000000000E+00 0. -1.
         21   -1    0    0  502  503 -0.00000000000E+00 -0.00000000000E+00 -0.67616717951E+03  0.67616717951E+03  0.00000000000E+00 0.  1.
          6    1    1    2  501    0 -0.47491024045E+02 -0.46357301085E+02 -0.14522848359E+03  0.23542452968E+03  0.17300000000E+03 0. -1.
         -6    1    1    2    0  503  0.47491024045E+02  0.46357301085E+02 -0.46817366873E+03  0.50350767702E+03  0.17300000000E+03 0.  1.
</event>
<event>
 4    1  0.3065897E+000  0.1000000E+03  0.7546771E-02  0.1280296E+00
         21   -1    0    0  501  502  0.00000000000E+00  0.00000000000E+00  0.26427582261E+03  0.26427582261E+03  0.00000000000E+00 0. -1.
         21   -1    0    0  502  503 -0.00000000000E+00 -0.00000000000E+00 -0.89416215128E+03  0.89416215128E+03  0.00000000000E+00 0.  1.
          6    1    1    2  501    0  0.27018074291E+03 -0.35638863495E+03 -0.41001182529E+03  0.63091139618E+03  0.17300000000E+03 0. -1.
         -6    1    1    2    0  503 -0.27018074291E+03  0.35638863495E+03 -0.21987450338E+03  0.52752657771E+03  0.17300000000E+03 0.  1.
</event>
<event>
 4    1  0.3065897E+000  0.1000000E+03  0.7546771E-02  0.1280296E+00
         21   -1    0    0  501  502  0.00000000000E+00  0.00000000000E+00  0.98545201919E+03  0.98545201919E+03  0.00000000000E+00 0. -1.
         21   -1    0    0  502  503 -0.00000000000E+00 -0.00000000000E+00 -0.10655279527E+03  0.10655279527E+03  0.00000000000E+00 0.  1.
          6    1    1    2  501    0 -0.28269643954E+02 -0.81740907614E+02  0.87752110332E+03  0.89858390566E+03  0.17300000000E+03 0.  1.
         -6    1    1    2    0  503  0.28269643954E+02  0.81740907614E+02  0.13781206011E+01  0.19342090881E+03  0.17300000000E+03 0. -1.
</event>
<event>
 4    1  0.3065897E+000  0.1000000E+03  0.7546771E-02  0.1280296E+00
         21   -1    0    0  501  502  0.00000000000E+00  0.00000000000E+00  0.98232191184E+03  0.98232191184E+03  0.00000000000E+00 0. -1.
         21   -1    0    0  502  503 -0.00000000000E+00 -0.00000000000E+00 -0.67472118046E+02  0.67472118046E+02  0.00000000000E+00 0.  1.
          6    1    1    2  501    0  0.10182058242E+03 -0.84762763152E+02  0.73696424735E+03  0.76850338899E+03  0.17300000000E+03 0.  1.
         -6    1    1    2    0  503 -0.10182058242E+03  0.84762763152E+02  0.17788554644E+03  0.28129064089E+03  0.17300000000E+03 0. -1.
</event>
<event>
 4    1  0.3065897E+000  0.1000000E+03  0.7546771E-02  0.1280296E+00
         21   -1    0    0  503  502  0.00000000000E+00  0.00000000000E+00  0.12778798995E+02  0.12778798995E+02  0.00000000000E+00 0. -1.
         21   -1    0    0  501  503 -0.00000000000E+00 -0.00000000000E+00 -0.27150164717E+04  0.27150164717E+04  0.00000000000E+00 0. -1.
          6    1    1    2  501    0 -0.26170326437E+02 -0.57274848821E+02 -0.15582721956E+04  0.15691101077E+04  0.17300000000E+03 0. -1.
         -6    1    1    2    0  502  0.26170326437E+02  0.57274848821E+02 -0.11439654771E+04  0.11586851630E+04  0.17300000000E+03 0. -1.
</event>
<event>
 4    1  0.3065897E+000  0.1000000E+03  0.7546771E-02  0.1280296E+00
         21   -1    0    0  501  502  0.00000000000E+00  0.00000000000E+00  0.83515647093E+03  0.83515647093E+03  0.00000000000E+00 0.  1.
         21   -1    0    0  502  503 -0.00000000000E+00 -0.00000000000E+00 -0.54075137889E+02  0.54075137889E+02  0.00000000000E+00 0.  1.
          6    1    1    2  501    0  0.52090716011E+02  0.77511311375E+02  0.55935831157E+03  0.59290148153E+03  0.17300000000E+03 0.  1.
         -6    1    1    2    0  503 -0.52090716011E+02 -0.77511311375E+02  0.22172302147E+03  0.29633012728E+03  0.17300000000E+03 0.  1.
</event>
<event>
 4    1  0.3065897E+000  0.1000000E+03  0.7546771E-02  0.1280296E+00
         21   -1    0    0  503  502  0.00000000000E+00  0.00000000000E+00  0.11867293987E+03  0.11867293987E+03  0.00000000000E+00 0.  1.
         21   -1    0    0  501  503 -0.00000000000E+00 -0.00000000000E+00 -0.13739183359E+04  0.13739183359E+04  0.00000000000E+00 0.  1.
          6    1    1    2  501    0  0.77998352631E+02 -0.14958831106E+03 -0.12255382051E+04  0.12491330185E+04  0.17300000000E+03 0.  1.
         -6    1    1    2    0  502 -0.77998352631E+02  0.14958831106E+03 -0.29707190903E+02  0.24345825722E+03  0.17300000000E+03 0.  1.
</event>
<event>
 4    1  0.3065897E+000  0.1000000E+03  0.7546771E-02  0.1280296E+00
         21   -1    0    0  503  502  0.00000000000E+00  0.00000000000E+00  0.21118841480E+03  0.21118841480E+03  0.00000000000E+00 0.  1.
         21   -1    0    0  501  503 -0.00000000000E+00 -0.00000000000E+00 -0.14912468770E+03  0.14912468770E+03  0.00000000000E+00 0.  1.
          6    1    1    2  501    0  0.23631607293E+02 -0.36938248747E+01  0.63010780357E+02  0.18566490149E+03  0.17300000000E+03 0.  1.
         -6    1    1    2    0  502 -0.23631607293E+02  0.36938248747E+01 -0.94705325426E+00  0.17464820101E+03  0.17300000000E+03 0.  1.
</event>
<event>
 4    1  0.3065897E+000  0.1000000E+03  0.7546771E-02  0.1280296E+00
         21   -1    0    0  503  502  0.00000000000E+00  0.00000000000E+00  0.31278871987E+02  0.31278871987E+02  0.00000000000E+00 0.  1.
         21   -1    0    0  501  503 -0.00000000000E+00 -0.00000000000E+00 -0.12032898886E+04  0.12032898886E+04  0.00000000000E+00 0.  1.
          6    1    1    2  501    0 -0.50689786229E+02 -0.64069909559E+02 -0.68832652294E+03  0.71442061135E+03  0.17300000000E+03 0.  1.
         -6    1    1    2    0  502  0.50689786229E+02  0.64069909559E+02 -0.48368449371E+03  0.52014814928E+03  0.17300000000E+03 0.  1.
</event>
<event>
 4    1  0.3065897E+000  0.1000000E+03  0.7546771E-02  0.1280296E+00
         21   -1    0    0  503  502  0.00000000000E+00  0.00000000000E+00  0.55043728326E+03  0.55043728326E+03  0.00000000000E+00 0.  1.
         21   -1    0    0  501  503 -0.00000000000E+00 -0.00000000000E+00 -0.66184242454E+02  0.66184242454E+02  0.00000000000E+00 0. -1.
          6    1    1    2  501    0 -0.14148270882E+02  0.77593543943E+02  0.26917247448E+03  0.32955083469E+03  0.17300000000E+03 0. -1.
         -6    1    1    2    0  502  0.14148270882E+02 -0.77593543943E+02  0.21508056633E+03  0.28707069102E+03  0.17300000000E+03 0.  1.
</event>
<event>
 4    1  0.3065897E+000  0.1000000E+03  0.7546771E-02  0.1280296E+00
         21   -1    0    0  503  502  0.00000000000E+00  0.00000000000E+00  0.58415339550E+02  0.58415339550E+02  0.00000000000E+00 0.  1.
         21   -1    0    0  501  503 -0.00000000000E+00 -0.00000000000E+00 -0.12955212175E+04  0.12955212175E+04  0.00000000000E+00 0. -1.
          6    1    1    2  501    0 -0.32485053644E+02  0.15269695304E+02 -0.11374384896E+04  0.11510793891E+04  0.17300000000E+03 0. -1.
         -6    1    1    2    0  502  0.32485053644E+02 -0.15269695304E+02 -0.99667388362E+02  0.20285716800E+03  0.17300000000E+03 0.  1.
</event>
<event>
 4    1  0.3065897E+000  0.1000000E+03  0.7546771E-02  0.1280296E+00
         21   -1    0    0  503  502  0.00000000000E+00  0.00000000000E+00  0.11451114451E+03  0.11451114451E+03  0.00000000000E+00 0.  1.
         21   -1    0    0  501  503 -0.00000000000E+00 -0.00000000000E+00 -0.35537805459E+03  0.35537805459E+03  0.00000000000E+00 0. -1.
          6    1    1    2  501    0  0.59414827003E+02  0.39782519187E+02 -0.32867577219E+02  0.19005801255E+03  0.17300000000E+03 0. -1.
         -6    1    1    2    0  502 -0.59414827003E+02 -0.39782519187E+02 -0.20799933285E+03  0.27983118655E+03  0.17300000000E+03 0.  1.
</event>
<event>
 4    1  0.3065897E+000  0.1000000E+03  0.7546771E-02  0.1280296E+00
         21   -1    0    0  501  502  0.00000000000E+00  0.00000000000E+00  0.27227270648E+03  0.27227270648E+03  0.00000000000E+00 0.  1.
         21   -1    0    0  502  503 -0.00000000000E+00 -0.00000000000E+00 -0.19093276854E+03  0.19093276854E+03  0.00000000000E+00 0.  1.
          6    1    1    2  501    0  0.69722580951E+02 -0.38965381299E+02  0.16785506906E+03  0.25393673118E+03  0.17300000000E+03 0. -1.
         -6    1    1    2    0  503 -0.69722580951E+02  0.38965381299E+02 -0.86515131119E+02  0.20926874384E+03  0.17300000000E+03 0. -1.
</event>
<event>
 4    1  0.3065897E+000  0.1000000E+03  0.7546771E-02  0.1280296E+00
         21   -1    0    0  501  502  0.00000000000E+00  0.00000000000E+00  0.15097179528E+03  0.15097179528E+03  0.00000000000E+00 0.  1.
         21   -1    0    0  502  503 -0.00000000000E+00 -0.00000000000E+00 -0.39557180546E+03  0.39557180546E+03  0.00000000000E+00 0.  1.
          6    1    1    2  501    0  0.66929661300E+02 -0.11015184412E+03  0.60695147664E+01  0.21582133197E+03  0.17300000000E+03 0. -1.
         -6    1    1    2    0  503 -0.66929661300E+02  0.11015184412E+03 -0.25066952494E+03  0.33072226877E+03  0.17300000000E+03 0. -1.
</event>
<event>
 4    1  0.3065897E+000  0.1000000E+03  0.7546771E-02  0.1280296E+00
         21   -1    0    0  501  502  0.00000000000E+00  0.00000000000E+00  0.88519473858E+03  0.88519473858E+03  0.00000000000E+00 0.  1.
         21   -1    0    0  502  503 -0.00000000000E+00 -0.00000000000E+00 -0.13360811703E+03  0.13360811703E+03  0.00000000000E+00 0.  1.
          6    1    1    2  501    0  0.24601011755E+03  0.10009731469E+03  0.17817312716E+03  0.36361396231E+03  0.17300000000E+03 0. -1.
         -6    1    1    2    0  503 -0.24601011755E+03 -0.10009731469E+03  0.57341349440E+03  0.65518889330E+03  0.17300000000E+03 0. -1.
</event>
<event>
 4    1  0.3065897E+000  0.1000000E+03  0.7546771E-02  0.1280296E+00
         21   -1    0    0  503  502  0.00000000000E+00  0.00000000000E+00  0.78201364221E+03  0.78201364221E+03  0.00000000000E+00 0. -1.
         21   -1    0    0  501  503 -0.00000000000E+00 -0.00000000000E+00 -0.12103622867E+03  0.12103622867E+03  0.00000000000E+00 0. -1.
          6    1    1    2  501    0  0.22124059910E+03  0.12492145566E+03  0.31134136652E+03  0.43751025049E+03  0.17300000000E+03 0.  1.
         -6    1    1    2    0  502 -0.22124059910E+03 -0.12492145566E+03  0.34963604703E+03  0.46553962039E+03  0.17300000000E+03 0.  1.
</event>
<event>
 4    1  0.3065897E+000  0.1000000E+03  0.7546771E-02  0.1280296E+00
         21   -1    0    0  503  502  0.00000000000E+00  0.00000000000E+00  0.53485389591E+03  0.53485389591E+03  0.00000000000E+00 0. -1.
         21   -1    0    0  501  503 -0.00000000000E+00 -0.00000000000E+00 -0.23084847151E+03  0.23084847151E+03  0.00000000000E+00 0. -1.
          6    1    1    2  501    0  0.62387141631E+02  0.58062559441E+02 -0.16803297706E+03  0.25578799352E+03  0.17300000000E+03 0.  1.
         -6    1    1    2    0  502 -0.62387141631E+02 -0.58062559441E+02  0.47203840146E+03  0.50991437389E+03  0.17300000000E+03 0.  1.
</event>
<event>
 4    1  0.3065897E+000  0.1000000E+03  0.7546771E-02  0.1280296E+00
         21   -1    0    0  503  502  0.00000000000E+00  0.00000000000E+00  0.19811217925E+03  0.19811217925E+03  0.00000000000E+00 0. -1.
         21   -1    0    0  501  503 -0.00000000000E+00 -0.00000000000E+00 -0.19272242480E+03  0.19272242480E+03  0.00000000000E+00 0. -1.
          6    1    1    2  501    0 -0.46252842947E+02 -0.57360870719E+02 -0.50433282750E+02  0.19468464495E+03  0.17300000000E+03 0. -1.
         -6    1    1    2    0  502  0.46252842947E+02  0.57360870719E+02  0.55823037203E+02  0.19614995909E+03  0.17300000000E+03 0. -1.
</event>
<event>
 4    1  0.3065897E+000  0.1000000E+03  0.7546771E-02  0.1280296E+00
         21   -1    0    0  503  502  0.00000000000E+00  0.00000000000E+00  0.90999516961E+02  0.90999516961E+02  0.00000000000E+00 0. -1.
         21   -1    0    0  501  503 -0.00000000000E+00 -0.00000000000E+00 -0.70790558881E+03  0.70790558881E+03  0.00000000000E+00 0. -1.
          6    1    1    2  501    0  0.75677340950E+02 -0.15537372770E+03 -0.20145556925E+03  0.31683024094E+03  0.17300000000E+03 0. -1.
         -6    1    1    2    0  502 -0.75677340950E+02  0.15537372770E+03 -0.41545050260E+03  0.48207486483E+03  0.17300000000E+03 0. -1.
</event>
<event>
 4    1  0.3065897E+000  0.1000000E+03  0.7546771E-02  0.1280296E+00
         21   -1    0    0  503  502  0.00000000000E+00  0.00000000000E+00  0.28343955758E+03  0.28343955758E+03  0.00000000000E+00 0. -1.
         21   -1    0    0  501  503 -0.00000000000E+00 -0.00000000000E+00 -0.19585830905E+03  0.19585830905E+03  0.00000000000E+00 0. -1.
          6    1    1    2  501    0 -0.80857518841E+02 -0.11633256926E+03 -0.31735861770E+02  0.22584811256E+03  0.17300000000E+03 0. -1.
         -6    1    1    2    0  502  0.80857518841E+02  0.11633256926E+03  0.11931711030E+03  0.25344975407E+03  0.17300000000E+03 0. -1.
</event>
<event>
 4    1  0.3065897E+000  0.1000000E+03  0.7546771E-02  0.1280296E+00
         21   -1    0    0  503  502  0.00000000000E+00  0.00000000000E+00  0.40241770609E+03  0.40241770609E+03  0.00000000000E+00 0.  1.
         21   -1    0    0  501  503 -0.00000000000E+00 -0.00000000000E+00 -0.12712418816E+03  0.12712418816E+03  0.00000000000E+00 0.  1.
          6    1    1    2  501    0 -0.82817270579E+02 -0.67527790469E+02  0.21705723622E+02  0.20449655555E+03  0.17300000000E+03 0.  1.
         -6    1    1    2    0  502  0.82817270579E+02  0.67527790469E+02  0.25358779431E+03  0.32504533871E+03  0.17300000000E+03 0.  1.
</event>
<event>
 4    1  0.3065897E+000  0.1000000E+03  0.7546771E-02  0.1280296E+00
         21   -1    0    0  503  502  0.00000000000E+00  0.00000000000E+00  0.25275648394E+03  0.25275648394E+03  0.00000000000E+00 0.  1.
         21   -1    0    0  501  503 -0.00000000000E+00 -0.00000000000E+00 -0.25704414203E+03  0.25704414203E+03  0.00000000000E+00 0.  1.
          6    1    1    2  501    0  0.68481407003E+02  0.26287397004E+02 -0.17437025377E+03  0.25634881655E+03  0.17300000000E+03 0.  1.
         -6    1    1    2    0  502 -0.68481407003E+02 -0.26287397004E+02  0.17008259568E+03  0.25345180942E+03  0.17300000000E+03 0.  1.
</event>
<event>
 4    1  0.3065897E+000  0.1000000E+03  0.7546771E-02  0.1280296E+00
         21   -1    0    0  503  502  0.00000000000E+00  0.00000000000E+00  0.40341365197E+02  0.40341365197E+02  0.00000000000E+00 0.  1.
         21   -1    0    0  501  503 -0.00000000000E+00 -0.00000000000E+00 -0.86515963658E+03  0.86515963658E+03  0.00000000000E+00 0.  1.
          6    1    1    2  501    0 -0.46075649551E+02  0.35711738037E+02 -0.50856965557E+03  0.54034284328E+03  0.17300000000E+03 0.  1.
         -6    1    1    2    0  502  0.46075649551E+02 -0.35711738037E+02 -0.31624861581E+03  0.36515815850E+03  0.17300000000E+03 0.  1.
</event>
<event>
 4    1  0.3065897E+000  0.1000000E+03  0.7546771E-02  0.1280296E+00
         21   -1    0    0  503  502  0.00000000000E+00  0.00000000000E+00  0.83300571415E+02  0.83300571415E+02  0.00000000000E+00 0.  1.
         21   -1    0    0  501  503 -0.00000000000E+00 -0.00000000000E+00 -0.72762059280E+03  0.72762059280E+03  0.00000000000E+00 0.  1.
          6    1    1    2  501    0  0.17150032854E+03 -0.15835174686E+02 -0.37473505463E+03  0.44723425251E+03  0.17300000000E+03 0.  1.
         -6    1    1    2    0  502 -0.17150032854E+03  0.15835174686E+02 -0.26958496675E+03  0.36368691171E+03  0.17300000000E+03 0.  1.
</event>
<event>
 4    1  0.3065897E+000  0.1000000E+03  0.7546771E-02  0.1280296E+00
         21   -1    0    0  503  502  0.00000000000E+00  0.00000000000E+00  0.14447265528E+03  0.14447265528E+03  0.00000000000E+00 0.  1.
         21   -1    0    0  501  503 -0.00000000000E+00 -0.00000000000E+00 -0.49832424594E+03  0.49832424594E+03  0.00000000000E+00 0.  1.
          6    1    1    2  501    0  0.46817703105E+02  0.31066511259E+02 -0.41319957064E+03  0.45146418532E+03  0.17300000000E+03 0.  1.
         -6    1    1    2    0  502 -0.46817703105E+02 -0.31066511259E+02  0.59347979983E+02  0.19133271590E+03  0.17300000000E+03 0.  1.
</event>
<event>
 4    1  0.3065897E+000  0.1000000E+03  0.7546771E-02  0.1280296E+00
         21   -1    0    0  503  502  0.00000000000E+00  0.00000000000E+00  0.76278091430E+03  0.76278091430E+03  0.00000000000E+00 0.  1.
         21   -1    0    0  501  503 -0.00000000000E+00 -0.00000000000E+00 -0.48824549525E+02  0.48824549525E+02  0.00000000000E+00 0.  1.
          6    1    1    2  501    0  0.68107577218E+02 -0.51685249332E+02  0.36087115860E+03  0.40922732091E+03  0.17300000000E+03 0.  1.
         -6    1    1    2    0  502 -0.68107577218E+02  0.51685249332E+02  0.35308520617E+03  0.40237814291E+03  0.17300000000E+03 0.  1.
</event>
<event>
 4    1  0.3065897E+000  0.1000000E+03  0.7546771E-02  0.1280296E+00
         21   -1    0    0  503  502  0.00000000000E+00  0.00000000000E+00  0.28821288424E+02  0.28821288424E+02  0.00000000000E+00 0.  1.
         21   -1    0    0  501  503 -0.00000000000E+00 -0.00000000000E+00 -0.12240360049E+04  0.12240360049E+04  0.00000000000E+00 0.  1.
          6    1    1    2  501    0 -0.69311971322E+02  0.15839048836E+02 -0.54039488271E+03  0.57184845378E+03  0.17300000000E+03 0.  1.
         -6    1    1    2    0  502  0.69311971322E+02 -0.15839048836E+02 -0.65481983376E+03  0.68100883953E+03  0.17300000000E+03 0.  1.
</event>
<event>
 4    1  0.3065897E+000  0.1000000E+03  0.7546771E-02  0.1280296E+00
         21   -1    0    0  501  502  0.00000000000E+00  0.00000000000E+00  0.29436475843E+03  0.29436475843E+03  0.00000000000E+00 0.  1.
         21   -1    0    0  502  503 -0.00000000000E+00 -0.00000000000E+00 -0.19106628629E+03  0.19106628629E+03  0.00000000000E+00 0.  1.
          6    1    1    2  501    0  0.48239529752E+02 -0.14949497024E+03  0.93074979369E+02  0.25153081350E+03  0.17300000000E+03 0.  1.
         -6    1    1    2    0  503 -0.48239529752E+02  0.14949497024E+03  0.10223492766E+02  0.23390023121E+03  0.17300000000E+03 0.  1.
</event>
<event>
 4    1  0.3065897E+000  0.1000000E+03  0.7546771E-02  0.1280296E+00
         21   -1    0    0  501  502  0.00000000000E+00  0.00000000000E+00  0.28897315576E+02  0.28897315576E+02  0.00000000000E+00 0. -1.
         21   -1    0    0  502  503 -0.00000000000E+00 -0.00000000000E+00 -0.13088016154E+04  0.13088016154E+04  0.00000000000E+00 0. -1.
          6    1    1    2  501    0  0.46290761668E+02  0.75704289230E+02 -0.62540969304E+03  0.65493530839E+03  0.17300000000E+03 0. -1.
         -6    1    1    2    0  503 -0.46290761668E+02 -0.75704289230E+02 -0.65449460680E+03  0.68276362261E+03  0.17300000000E+03 0. -1.
</event>
<event>
 4    1  0.3065897E+000  0.1000000E+03  0.7546771E-02  0.1280296E+00
         21   -1    0    0  503  502  0.00000000000E+00  0.00000000000E+00  0.33937385664E+03  0.33937385664E+03  0.00000000000E+00 0. -1.
         21   -1    0    0  501  503 -0.00000000000E+00 -0.00000000000E+00 -0.12461110807E+03  0.12461110807E+03  0.00000000000E+00 0. -1.
          6    1    1    2  501    0  0.72712334985E+02 -0.45165282548E+02  0.27342154019E+02  0.19494506866E+03  0.17300000000E+03 0. -1.
         -6    1    1    2    0  502 -0.72712334985E+02  0.45165282548E+02  0.18742059456E+03  0.26903989606E+03  0.17300000000E+03 0. -1.
</event>
<event>
 4    1  0.3065897E+000  0.1000000E+03  0.7546771E-02  0.1280296E+00
         21   -1    0    0  503  502  0.00000000000E+00  0.00000000000E+00  0.18668583678E+03  0.18668583678E+03  0.00000000000E+00 0. -1.
         21   -1    0    0  501  503 -0.00000000000E+00 -0.00000000000E+00 -0.33601702658E+03  0.33601702658E+03  0.00000000000E+00 0. -1.
          6    1    1    2  501    0 -0.41970135590E+02  0.10718533989E+03 -0.22056943332E+03  0.30303475755E+03  0.17300000000E+03 0. -1.
         -6    1    1    2    0  502  0.41970135590E+02 -0.10718533989E+03  0.71238243526E+02  0.21966810581E+03  0.17300000000E+03 0. -1.
</event>
<event>
 4    1  0.3065897E+000  0.1000000E+03  0.7546771E-02  0.1280296E+00
         21   -1    0    0  503  502  0.00000000000E+00  0.00000000000E+00  0.11767539017E+04  0.11767539017E+04  0.00000000000E+00 0. -1.
         21   -1    0    0  501  503 -0.00000000000E+00 -0.00000000000E+00 -0.10640429267E+03  0.10640429267E+03  0.00000000000E+00 0. -1.
          6    1    1    2  501    0  0.15561060812E+03  0.26617489332E+03  0.50834720643E+03  0.61920078931E+03  0.17300000000E+03 0. -1.
         -6    1    1    2    0  502 -0.15561060812E+03 -0.26617489332E+03  0.56200240261E+03  0.66395740506E+03  0.17300000000E+03 0. -1.
</event>
<event>
 4    1  0.3065897E+000  0.1000000E+03  0.7546771E-02  0.1280296E+00
         21   -1    0    0  503  502  0.00000000000E+00  0.00000000000E+00  0.77407611499E+03  0.77407611499E+03  0.00000000000E+00 0.  1.
         21   -1    0    0  501  503 -0.00000000000E+00 -0.00000000000E+00 -0.46935930584E+02  0.46935930584E+02  0.00000000000E+00 0.  1.
          6    1    1    2  501    0 -0.33710795100E+02  0.26865472376E+02  0.21838135753E+03  0.28191769833E+03  0.17300000000E+03 0.  1.
         -6    1    1    2    0  502  0.33710795100E+02 -0.26865472376E+02  0.50875882688E+03  0.53909434725E+03  0.17300000000E+03 0.  1.
</event>
<event>
 4    1  0.3065897E+000  0.1000000E+03  0.7546771E-02  0.1280296E+00
         21   -1    0    0  503  502  0.00000000000E+00  0.00000000000E+00  0.63151093609E+03  0.63151093609E+03  0.00000000000E+00 0.  1.
         21   -1    0    0  501  503 -0.00000000000E+00 -0.00000000000E+00 -0.84274916980E+02  0.84274916980E+02  0.00000000000E+00 0.  1.
          6    1    1    2  501    0 -0.58901501316E+02 -0.13161038146E+03  0.19603662320E+03  0.29858003450E+03  0.17300000000E+03 0.  1.
         -6    1    1    2    0  502  0.58901501316E+02  0.13161038146E+03  0.35119939591E+03  0.41720581857E+03  0.17300000000E+03 0.  1.
</event>
<event>
 4    1  0.3065897E+000  0.1000000E+03  0.7546771E-02  0.1280296E+00
         21   -1    0    0  503  502  0.00000000000E+00  0.00000000000E+00  0.50719271536E+02  0.50719271536E+02  0.00000000000E+00 0.  1.
         21   -1    0    0  501  503 -0.00000000000E+00 -0.00000000000E+00 -0.10261122896E+04  0.10261122896E+04  0.00000000000E+00 0.  1.
          6    1    1    2  501    0 -0.10076716064E+03  0.21388277991E+02 -0.74082612187E+03  0.76770034645E+03  0.17300000000E+03 0.  1.
         -6    1    1    2    0  502  0.10076716064E+03 -0.21388277991E+02 -0.23456689618E+03  0.30913121467E+03  0.17300000000E+03 0.  1.
</event>
<event>
 4    1  0.3065897E+000  0.1000000E+03  0.7546771E-02  0.1280296E+00
         21   -1    0    0  503  502  0.00000000000E+00  0.00000000000E+00  0.14392467718E+04  0.14392467718E+04  0.00000000000E+00 0.  1.
         21   -1    0    0  501  503 -0.00000000000E+00 -0.00000000000E+00 -0.29876657588E+02  0.29876657588E+02  0.00000000000E+00 0.  1.
          6    1    1    2  501    0  0.52687865781E+02 -0.95413532983E+02  0.58242794177E+03  0.61727713454E+03  0.17300000000E+03 0.  1.
         -6    1    1    2    0  502 -0.52687865781E+02  0.95413532983E+02  0.82694217248E+03  0.85184629488E+03  0.17300000000E+03 0.  1.
</event>
<event>
 4    1  0.3065897E+000  0.1000000E+03  0.7546771E-02  0.1280296E+00
         21   -1    0    0  501  502  0.00000000000E+00  0.00000000000E+00  0.60874335195E+03  0.60874335195E+03  0.00000000000E+00 0.  1.
         21   -1    0    0  502  503 -0.00000000000E+00 -0.00000000000E+00 -0.51132190017E+03  0.51132190017E+03  0.00000000000E+00 0.  1.
          6    1    1    2  501    0  0.24710652185E+03  0.31286870366E+02  0.51878089721E+03  0.60091856413E+03  0.17300000000E+03 0.  1.
         -6    1    1    2    0  503 -0.24710652185E+03 -0.31286870366E+02 -0.42135944544E+03  0.51914668799E+03  0.17300000000E+03 0.  1.
</event>
<event>
 4    1  0.3065897E+000  0.1000000E+03  0.7546771E-02  0.1280296E+00
         21   -1    0    0  501  502  0.00000000000E+00  0.00000000000E+00  0.10185193778E+03  0.10185193778E+03  0.00000000000E+00 0.  1.
         21   -1    0    0  502  503 -0.00000000000E+00 -0.00000000000E+00 -0.32697008075E+03  0.32697008075E+03  0.00000000000E+00 0.  1.
          6    1    1    2  501    0 -0.48023133032E+02 -0.28189720148E+02 -0.93158482513E+02  0.20422630705E+03  0.17300000000E+03 0.  1.
         -6    1    1    2    0  503  0.48023133032E+02  0.28189720148E+02 -0.13195966045E+03  0.22459571148E+03  0.17300000000E+03 0.  1.
</event>
<event>
 4    1  0.3065897E+000  0.1000000E+03  0.7546771E-02  0.1280296E+00
         21   -1    0    0  501  502  0.00000000000E+00  0.00000000000E+00  0.19589159242E+03  0.19589159242E+03  0.00000000000E+00 0.  1.
         21   -1    0    0  502  503 -0.00000000000E+00 -0.00000000000E+00 -0.34936225172E+03  0.34936225172E+03  0.00000000000E+00 0.  1.
          6    1    1    2  501    0  0.15912199826E+03 -0.33825432022E+02  0.37634393188E+02  0.24043568315E+03  0.17300000000E+03 0.  1.
         -6    1    1    2    0  503 -0.15912199826E+03  0.33825432022E+02 -0.19110505248E+03  0.30481816098E+03  0.17300000000E+03 0.  1.
</event>
<event>
 4    1  0.3065897E+000  0.1000000E+03  0.7546771E-02  0.1280296E+00
         21   -1    0    0  503  502  0.00000000000E+00  0.00000000000E+00  0.11826043944E+03  0.11826043944E+03  0.00000000000E+00 0.  1.
         21   -1    0    0  501  503 -0.00000000000E+00 -0.00000000000E+00 -0.89355181650E+03  0.89355181650E+03  0.00000000000E+00 0. -1.
          6    1    1    2  501    0 -0.11606645119E+03  0.64761693272E+02 -0.76269956200E+03  0.79328753923E+03  0.17300000000E+03 0. -1.
         -6    1    1    2    0  502  0.11606645119E+03 -0.64761693272E+02 -0.12591815055E+02  0.21852471671E+03  0.17300000000E+03 0.  1.
</event>
<event>
 4    1  0.3065897E+000  0.1000000E+03  0.7546771E-02  0.1280296E+00
         21   -1    0    0  501  502  0.00000000000E+00  0.00000000000E+00  0.13560303816E+04  0.13560303816E+04  0.00000000000E+00 0. -1.
         21   -1    0    0  502  503 -0.00000000000E+00 -0.00000000000E+00 -0.41490098696E+02  0.41490098696E+02  0.00000000000E+00 0.  1.
          6    1    1    2  501    0  0.22989956425E+02  0.85236451150E+02  0.10583814490E+04  0.10760548696E+04  0.17300000000E+03 0.  1.
         -6    1    1    2    0  503 -0.22989956425E+02 -0.85236451150E+02  0.25615883388E+03  0.32146561072E+03  0.17300000000E+03 0. -1.
</event>
<event>
 4    1  0.3065897E+000  0.1000000E+03  0.7546771E-02  0.1280296E+00
         21   -1    0    0  501  502  0.00000000000E+00  0.00000000000E+00  0.48238782771E+03  0.48238782771E+03  0.00000000000E+00 0. -1.
         21   -1    0    0  502  503 -0.00000000000E+00 -0.00000000000E+00 -0.14109286109E+03  0.14109286109E+03  0.00000000000E+00 0.  1.
          6    1    1    2  501    0 -0.12904562080E+03 -0.53171507947E+02  0.33384397299E+03  0.40107453148E+03  0.17300000000E+03 0.  1.
         -6    1    1    2    0  503  0.12904562080E+03  0.53171507947E+02  0.74509936294E+01  0.22240615731E+03  0.17300000000E+03 0. -1.
</event>
<event>
 4    1  0.3065897E+000  0.1000000E+03  0.7546771E-02  0.1280296E+00
         21   -1    0    0  501  502  0.00000000000E+00  0.00000000000E+00  0.19244111544E+04  0.19244111544E+04  0.00000000000E+00 0.  1.
         21   -1    0    0  502  503 -0.00000000000E+00 -0.00000000000E+00 -0.20864933068E+02  0.20864933068E+02  0.00000000000E+00 0. -1.
          6    1    1    2  501    0 -0.95690646473E+02  0.13704836064E+02  0.80784865573E+03  0.83180104167E+03  0.17300000000E+03 0. -1.
         -6    1    1    2    0  503  0.95690646473E+02 -0.13704836064E+02  0.10956975656E+04  0.11134750458E+04  0.17300000000E+03 0.  1.
</event>
<event>
 4    1  0.3065897E+000  0.1000000E+03  0.7546771E-02  0.1280296E+00
         21   -1    0    0  501  502  0.00000000000E+00  0.00000000000E+00  0.14093727497E+03  0.14093727497E+03  0.00000000000E+00 0.  1.
         21   -1    0    0  502  503 -0.00000000000E+00 -0.00000000000E+00 -0.24499525413E+03  0.24499525413E+03  0.00000000000E+00 0. -1.
          6    1    1    2  501    0  0.30511921987E+02 -0.59589832120E+02 -0.63311365900E+02  0.19600830219E+03  0.17300000000E+03 0. -1.
         -6    1    1    2    0  503 -0.30511921987E+02  0.59589832120E+02 -0.40746613265E+02  0.18992422691E+03  0.17300000000E+03 0.  1.
</event>
<event>
 4    1  0.3065897E+000  0.1000000E+03  0.7546771E-02  0.1280296E+00
         21   -1    0    0  501  502  0.00000000000E+00  0.00000000000E+00  0.80370363719E+02  0.80370363719E+02  0.00000000000E+00 0.  1.
         21   -1    0    0  502  503 -0.00000000000E+00 -0.00000000000E+00 -0.46575761355E+03  0.46575761355E+03  0.00000000000E+00 0. -1.
          6    1    1    2  501    0  0.62376428779E+01 -0.63519117980E+02 -0.11002958944E+03  0.21473028918E+03  0.17300000000E+03 0.  1.
         -6    1    1    2    0  503 -0.62376428779E+01  0.63519117980E+02 -0.27535766039E+03  0.33139768810E+03  0.17300000000E+03 0. -1.
</event>
<event>
 4    1  0.3065897E+000  0.1000000E+03  0.7546771E-02  0.1280296E+00
         21   -1    0    0  501  502  0.00000000000E+00  0.00000000000E+00  0.11431774244E+03  0.11431774244E+03  0.00000000000E+00 0.  1.
         21   -1    0    0  502  503 -0.00000000000E+00 -0.00000000000E+00 -0.39257169765E+03  0.39257169765E+03  0.00000000000E+00 0. -1.
          6    1    1    2  501    0 -0.51244621077E+02 -0.11073664943E+03 -0.12983726666E+03  0.24834518826E+03  0.17300000000E+03 0.  1.
         -6    1    1    2    0  503  0.51244621077E+02  0.11073664943E+03 -0.14841668855E+03  0.25854425184E+03  0.17300000000E+03 0. -1.
</event>
<event>
 4    1  0.3065897E+000  0.1000000E+03  0.7546771E-02  0.1280296E+00
         21   -1    0    0  501  502  0.00000000000E+00  0.00000000000E+00  0.22516346442E+03  0.22516346442E+03  0.00000000000E+00 0.  1.
         21   -1    0    0  502  503 -0.00000000000E+00 -0.00000000000E+00 -0.38603016433E+03  0.38603016433E+03  0.00000000000E+00 0. -1.
          6    1    1    2  501    0 -0.12754318853E+03  0.95414896869E+02  0.10388457628E+03  0.25708417430E+03  0.17300000000E+03 0.  1.
         -6    1    1    2    0  503  0.12754318853E+03 -0.95414896869E+02 -0.26475127619E+03  0.35410945445E+03  0.17300000000E+03 0. -1.
</event>
<event>
 4    1  0.3065897E+000  0.1000000E+03  0.7546771E-02  0.1280296E+00
         21   -1    0    0  503  502  0.00000000000E+00  0.00000000000E+00  0.16805087405E+04  0.16805087405E+04  0.00000000000E+00 0.  1.
         21   -1    0    0  501  503 -0.00000000000E+00 -0.00000000000E+00 -0.58578296655E+02  0.58578296655E+02  0.00000000000E+00 0. -1.
          6    1    1    2  501    0 -0.23056074719E+03  0.12391048825E+03  0.80951906366E+03  0.86819478325E+03  0.17300000000E+03 0. -1.
         -6    1    1    2    0  502  0.23056074719E+03 -0.12391048825E+03  0.81241138018E+03  0.87089225389E+03  0.17300000000E+03 0.  1.
</event>
<event>
 4    1  0.3065897E+000  0.1000000E+03  0.7546771E-02  0.1280296E+00
         21   -1    0    0  503  502  0.00000000000E+00  0.00000000000E+00  0.54133778304E+03  0.54133778304E+03  0.00000000000E+00 0.  1.
         21   -1    0    0  501  503 -0.00000000000E+00 -0.00000000000E+00 -0.20624030228E+03  0.20624030228E+03  0.00000000000E+00 0. -1.
          6    1    1    2  501    0  0.23535730764E+02 -0.40520056228E+02 -0.14791261772E+03  0.23238534390E+03  0.17300000000E+03 0. -1.
         -6    1    1    2    0  502 -0.23535730764E+02  0.40520056228E+02  0.48301009848E+03  0.51519274142E+03  0.17300000000E+03 0.  1.
</event>
<event>
 4    1  0.3065897E+000  0.1000000E+03  0.7546771E-02  0.1280296E+00
         21   -1    0    0  501  502  0.00000000000E+00  0.00000000000E+00  0.42130747607E+03  0.42130747607E+03  0.00000000000E+00 0.  1.
         21   -1    0    0  502  503 -0.00000000000E+00 -0.00000000000E+00 -0.15483916969E+03  0.15483916969E+03  0.00000000000E+00 0.  1.
          6    1    1    2  501    0  0.15894598759E+03  0.51890360173E+02  0.22992622279E+03  0.33279348608E+03  0.17300000000E+03 0.  1.
         -6    1    1    2    0  503 -0.15894598759E+03 -0.51890360173E+02  0.36542083587E+02  0.24335315967E+03  0.17300000000E+03 0.  1.
</event>
<event>
 4    1  0.3065897E+000  0.1000000E+03  0.7546771E-02  0.1280296E+00
         21   -1    0    0  501  502  0.00000000000E+00  0.00000000000E+00  0.14457963610E+04  0.14457963610E+04  0.00000000000E+00 0.  1.
         21   -1    0    0  502  503 -0.00000000000E+00 -0.00000000000E+00 -0.38577655081E+02  0.38577655081E+02  0.00000000000E+00 0.  1.
          6    1    1    2  501    0  0.10231223943E+03  0.10345186547E+03  0.91851379873E+03  0.94592107560E+03  0.17300000000E+03 0.  1.
         -6    1    1    2    0  503 -0.10231223943E+03 -0.10345186547E+03  0.48870490723E+03  0.53845294052E+03  0.17300000000E+03 0.  1.
</event>
<event>
 4    1  0.3065897E+000  0.1000000E+03  0.7546771E-02  0.1280296E+00
         21   -1    0    0  501  502  0.00000000000E+00  0.00000000000E+00  0.20279188840E+03  0.20279188840E+03  0.00000000000E+00 0.  1.
         21   -1    0    0  502  503 -0.00000000000E+00 -0.00000000000E+00 -0.19604166033E+03  0.19604166033E+03  0.00000000000E+00 0.  1.
          6    1    1    2  501    0  0.16431243746E+01 -0.96095714072E+02  0.27659704130E+02  0.19982778924E+03  0.17300000000E+03 0.  1.
         -6    1    1    2    0  503 -0.16431243746E+01  0.96095714072E+02 -0.20909476063E+02  0.19900575949E+03  0.17300000000E+03 0.  1.
</event>
<event>
 4    1  0.3065897E+000  0.1000000E+03  0.7546771E-02  0.1280296E+00
         21   -1    0    0  501  502  0.00000000000E+00  0.00000000000E+00  0.10494944764E+03  0.10494944764E+03  0.00000000000E+00 0.  1.
         21   -1    0    0  502  503 -0.00000000000E+00 -0.00000000000E+00 -0.12309697385E+04  0.12309697385E+04  0.00000000000E+00 0.  1.
          6    1    1    2  501    0  0.59192721532E+02  0.21754917568E+03 -0.15404156266E+03  0.32324793139E+03  0.17300000000E+03 0.  1.
         -6    1    1    2    0  503 -0.59192721532E+02 -0.21754917568E+03 -0.97197872818E+03  0.10126712547E+04  0.17300000000E+03 0.  1.
</event>
<event>
 4    1  0.3065897E+000  0.1000000E+03  0.7546771E-02  0.1280296E+00
         21   -1    0    0  501  502  0.00000000000E+00  0.00000000000E+00  0.44487799772E+02  0.44487799772E+02  0.00000000000E+00 0. -1.
         21   -1    0    0  502  503 -0.00000000000E+00 -0.00000000000E+00 -0.10093868094E+04  0.10093868094E+04  0.00000000000E+00 0.  1.
          6    1    1    2  501    0 -0.44842872297E+02 -0.34429458776E+02 -0.21256082823E+03  0.27983455206E+03  0.17300000000E+03 0. -1.
         -6    1    1    2    0  503  0.44842872297E+02  0.34429458776E+02 -0.75233818136E+03  0.77404005708E+03  0.17300000000E+03 0.  1.
</event>
<event>
 4    1  0.3065897E+000  0.1000000E+03  0.7546771E-02  0.1280296E+00
         21   -1    0    0  503  502  0.00000000000E+00  0.00000000000E+00  0.46483338483E+03  0.46483338483E+03  0.00000000000E+00 0.  1.
         21   -1    0    0  501  503 -0.00000000000E+00 -0.00000000000E+00 -0.24117664411E+03  0.24117664411E+03  0.00000000000E+00 0.  1.
          6    1    1    2  501    0 -0.15704352614E+03  0.23526098908E+03  0.62743287156E+02  0.33745536323E+03  0.17300000000E+03 0.  1.
         -6    1    1    2    0  502  0.15704352614E+03 -0.23526098908E+03  0.16091345357E+03  0.36855466572E+03  0.17300000000E+03 0.  1.
</event>
<event>
 4    1  0.3065897E+000  0.1000000E+03  0.7546771E-02  0.1280296E+00
         21   -1    0    0  503  502  0.00000000000E+00  0.00000000000E+00  0.67280161038E+03  0.67280161038E+03  0.00000000000E+00 0.  1.
         21   -1    0    0  501  503 -0.00000000000E+00 -0.00000000000E+00 -0.12942485268E+03  0.12942485268E+03  0.00000000000E+00 0.  1.
          6    1    1    2  501    0 -0.44460319365E+02  0.69749933735E+02 -0.33189971330E+02  0.19460818958E+03  0.17300000000E+03 0.  1.
         -6    1    1    2    0  502  0.44460319365E+02 -0.69749933735E+02  0.57656672903E+03  0.60761827349E+03  0.17300000000E+03 0.  1.
</event>
<event>
 4    1  0.3065897E+000  0.1000000E+03  0.7546771E-02  0.1280296E+00
         21   -1    0    0  503  502  0.00000000000E+00  0.00000000000E+00  0.13652801259E+03  0.13652801259E+03  0.00000000000E+00 0.  1.
         21   -1    0    0  501  503 -0.00000000000E+00 -0.00000000000E+00 -0.25294767936E+03  0.25294767936E+03  0.00000000000E+00 0.  1.
          6    1    1    2  501    0  0.41892084339E+02  0.42064755423E+02 -0.92664474956E+02  0.20503681449E+03  0.17300000000E+03 0.  1.
         -6    1    1    2    0  502 -0.41892084339E+02 -0.42064755423E+02 -0.23755191816E+02  0.18443887746E+03  0.17300000000E+03 0.  1.
</event>
<event>
 4    1  0.3065897E+000  0.1000000E+03  0.7546771E-02  0.1280296E+00
         21   -1    0    0  501  502  0.00000000000E+00  0.00000000000E+00  0.73089392600E+03  0.73089392600E+03  0.00000000000E+00 0.  1.
         21   -1    0    0  502  503 -0.00000000000E+00 -0.00000000000E+00 -0.11185278199E+03  0.11185278199E+03  0.00000000000E+00 0.  1.
          6    1    1    2  501    0  0.44833549146E+02  0.69892087715E+02  0.62189666261E+03  0.65082978575E+03  0.17300000000E+03 0.  1.
         -6    1    1    2    0  503 -0.44833549146E+02 -0.69892087715E+02 -0.28555186096E+01  0.19191692224E+03  0.17300000000E+03 0.  1.
</event>
<event>
 4    1  0.3065897E+000  0.1000000E+03  0.7546771E-02  0.1280296E+00
         21   -1    0    0  501  502  0.00000000000E+00  0.00000000000E+00  0.44957514933E+03  0.44957514933E+03  0.00000000000E+00 0.  1.
         21   -1    0    0  502  503 -0.00000000000E+00 -0.00000000000E+00 -0.10048655317E+03  0.10048655317E+03  0.00000000000E+00 0.  1.
          6    1    1    2  501    0  0.71591320605E+02 -0.37322269542E+02  0.29543927086E+03  0.35175507353E+03  0.17300000000E+03 0.  1.
         -6    1    1    2    0  503 -0.71591320605E+02  0.37322269542E+02  0.53649325304E+02  0.19830662897E+03  0.17300000000E+03 0.  1.
</event>
<event>
 4    1  0.3065897E+000  0.1000000E+03  0.7546771E-02  0.1280296E+00
         21   -1    0    0  501  502  0.00000000000E+00  0.00000000000E+00  0.16733975805E+04  0.16733975805E+04  0.00000000000E+00 0.  1.
         21   -1    0    0  502  503 -0.00000000000E+00 -0.00000000000E+00 -0.20467608507E+02  0.20467608507E+02  0.00000000000E+00 0.  1.
          6    1    1    2  501    0 -0.16841383073E+02  0.67241334125E+01  0.11156286047E+04  0.11291080683E+04  0.17300000000E+03 0.  1.
         -6    1    1    2    0  503  0.16841383073E+02 -0.67241334125E+01  0.53730136725E+03  0.56475712072E+03  0.17300000000E+03 0.  1.
</event>
<event>
 4    1  0.3065897E+000  0.1000000E+03  0.7546771E-02  0.1280296E+00
         21   -1    0    0  501  502  0.00000000000E+00  0.00000000000E+00  0.11614417135E+03  0.11614417135E+03  0.00000000000E+00 0.  1.
         21   -1    0    0  502  503 -0.00000000000E+00 -0.00000000000E+00 -0.61075679306E+03  0.61075679306E+03  0.00000000000E+00 0.  1.
          6    1    1    2  501    0 -0.10390904039E+03  0.17032463839E+03 -0.20004878677E+03  0.33129456410E+03  0.17300000000E+03 0.  1.
         -6    1    1    2    0  503  0.10390904039E+03 -0.17032463839E+03 -0.29456383493E+03  0.39560640031E+03  0.17300000000E+03 0.  1.
</event>
<event>
 4    1  0.3065897E+000  0.1000000E+03  0.7546771E-02  0.1280296E+00
         21   -1    0    0  501  502  0.00000000000E+00  0.00000000000E+00  0.17006978676E+03  0.17006978676E+03  0.00000000000E+00 0.  1.
         21   -1    0    0  502  503 -0.00000000000E+00 -0.00000000000E+00 -0.15595075946E+04  0.15595075946E+04  0.00000000000E+00 0. -1.
          6    1    1    2  501    0  0.60800670606E+02 -0.45635674846E+03 -0.95124629860E+03  0.10708672766E+04  0.17300000000E+03 0.  1.
         -6    1    1    2    0  503 -0.60800670606E+02  0.45635674846E+03 -0.43819150927E+03  0.65871010483E+03  0.17300000000E+03 0. -1.
</event>
<event>
 4    1  0.3065897E+000  0.1000000E+03  0.7546771E-02  0.1280296E+00
         21   -1    0    0  501  502  0.00000000000E+00  0.00000000000E+00  0.61534954309E+03  0.61534954309E+03  0.00000000000E+00 0. -1.
         21   -1    0    0  502  503 -0.00000000000E+00 -0.00000000000E+00 -0.28052467562E+03  0.28052467562E+03  0.00000000000E+00 0. -1.
          6    1    1    2  501    0 -0.25674303812E+03  0.27659741188E+03  0.18508240200E+03  0.45454109980E+03  0.17300000000E+03 0. -1.
         -6    1    1    2    0  503  0.25674303812E+03 -0.27659741188E+03  0.14974246548E+03  0.44133311891E+03  0.17300000000E+03 0. -1.
</event>
<event>
 4    1  0.3065897E+000  0.1000000E+03  0.7546771E-02  0.1280296E+00
         21   -1    0    0  501  502  0.00000000000E+00  0.00000000000E+00  0.58692371244E+02  0.58692371244E+02  0.00000000000E+00 0.  1.
         21   -1    0    0  502  503 -0.00000000000E+00 -0.00000000000E+00 -0.60685602486E+03  0.60685602486E+03  0.00000000000E+00 0.  1.
          6    1    1    2  501    0  0.57033137667E+02  0.37403167243E+02 -0.21729933491E+03  0.28600660248E+03  0.17300000000E+03 0.  1.
         -6    1    1    2    0  503 -0.57033137667E+02 -0.37403167243E+02 -0.33086431871E+03  0.37954179362E+03  0.17300000000E+03 0.  1.
</event>
<event>
 4    1  0.3065897E+000  0.1000000E+03  0.7546771E-02  0.1280296E+00
         21   -1    0    0  501  502  0.00000000000E+00  0.00000000000E+00  0.35641346186E+03  0.35641346186E+03  0.00000000000E+00 0.  1.
         21   -1    0    0  502  503 -0.00000000000E+00 -0.00000000000E+00 -0.12639847354E+03  0.12639847354E+03  0.00000000000E+00 0.  1.
          6    1    1    2  501    0 -0.19571793573E+02 -0.63724891619E+02  0.23253208263E+03  0.29739550496E+03  0.17300000000E+03 0.  1.
         -6    1    1    2    0  503  0.19571793573E+02  0.63724891619E+02 -0.25170943155E+01  0.18541643045E+03  0.17300000000E+03 0.  1.
</event>
<event>
 4    1  0.3065897E+000  0.1000000E+03  0.7546771E-02  0.1280296E+00
         21   -1    0    0  503  502  0.00000000000E+00  0.00000000000E+00  0.21202910220E+03  0.21202910220E+03  0.00000000000E+00 0. -1.
         21   -1    0    0  501  503 -0.00000000000E+00 -0.00000000000E+00 -0.18676374388E+03  0.18676374388E+03  0.00000000000E+00 0. -1.
          6    1    1    2  501    0  0.16314194709E+02  0.28722208072E+02 -0.80177906879E+02  0.19351644617E+03  0.17300000000E+03 0. -1.
         -6    1    1    2    0  502 -0.16314194709E+02 -0.28722208072E+02  0.10544326520E+03  0.20527639992E+03  0.17300000000E+03 0. -1.
</event>
<event>
 4    1  0.3065897E+000  0.1000000E+03  0.7546771E-02  0.1280296E+00
         21   -1    0    0  503  502  0.00000000000E+00  0.00000000000E+00  0.16621175524E+03  0.16621175524E+03  0.00000000000E+00 0. -1.
         21   -1    0    0  501  503 -0.00000000000E+00 -0.00000000000E+00 -0.28207134677E+03  0.28207134677E+03  0.00000000000E+00 0. -1.
          6    1    1    2  501    0  0.22064382313E+02 -0.13413916475E+02 -0.19004210380E+03  0.25828621980E+03  0.17300000000E+03 0. -1.
         -6    1    1    2    0  502 -0.22064382313E+02  0.13413916475E+02  0.74182512268E+02  0.18999688221E+03  0.17300000000E+03 0. -1.
</event>
<event>
 4    1  0.3065897E+000  0.1000000E+03  0.7546771E-02  0.1280296E+00
         21   -1    0    0  503  502  0.00000000000E+00  0.00000000000E+00  0.19519589826E+03  0.19519589826E+03  0.00000000000E+00 0.  1.
         21   -1    0    0  501  503 -0.00000000000E+00 -0.00000000000E+00 -0.27937710965E+03  0.27937710965E+03  0.00000000000E+00 0.  1.
          6    1    1    2  501    0  0.14394624776E+01  0.60021733360E+02 -0.18933800863E+03  0.26340569857E+03  0.17300000000E+03 0.  1.
         -6    1    1    2    0  502 -0.14394624776E+01 -0.60021733360E+02  0.10515679725E+03  0.21116730934E+03  0.17300000000E+03 0.  1.
</event>
<event>
 4    1  0.3065897E+000  0.1000000E+03  0.7546771E-02  0.1280296E+00
         21   -1    0    0  501  502  0.00000000000E+00  0.00000000000E+00  0.18580287705E+03  0.18580287705E+03  0.00000000000E+00 0.  1.
         21   -1    0    0  502  503 -0.00000000000E+00 -0.00000000000E+00 -0.16168745374E+03  0.16168745374E+03  0.00000000000E+00 0.  1.
          6    1    1    2  501    0  0.40170671744E+01 -0.18492584706E+01  0.23680421879E+01  0.17307271365E+03  0.17300000000E+03 0. -1.
         -6    1    1    2    0  503 -0.40170671744E+01  0.18492584706E+01  0.21747381120E+02  0.17441761715E+03  0.17300000000E+03 0. -1.
</event>
<event>
 4    1  0.3065897E+000  0.1000000E+03  0.7546771E-02  0.1280296E+00
         21   -1    0    0  501  502  0.00000000000E+00  0.00000000000E+00  0.27719401635E+02  0.27719401635E+02  0.00000000000E+00 0.  1.
         21   -1    0    0  502  503 -0.00000000000E+00 -0.00000000000E+00 -0.12323537535E+04  0.12323537535E+04  0.00000000000E+00 0.  1.
          6    1    1    2  501    0 -0.41272967663E+01  0.15280122023E+02 -0.38724710826E+03  0.42442883923E+03  0.17300000000E+03 0. -1.
         -6    1    1    2    0  503  0.41272967663E+01 -0.15280122023E+02 -0.81738724358E+03  0.83564431588E+03  0.17300000000E+03 0. -1.
</event>
<event>
 4    1  0.3065897E+000  0.1000000E+03  0.7546771E-02  0.1280296E+00
         21   -1    0    0  503  502  0.00000000000E+00  0.00000000000E+00  0.30118774409E+03  0.30118774409E+03  0.00000000000E+00 0. -1.
         21   -1    0    0  501  503 -0.00000000000E+00 -0.00000000000E+00 -0.13069041706E+03  0.13069041706E+03  0.00000000000E+00 0.  1.
          6    1    1    2  501    0  0.38399843778E+02  0.43015235696E+02  0.18231675255E+00  0.18235649630E+03  0.17300000000E+03 0.  1.
         -6    1    1    2    0  502 -0.38399843778E+02 -0.43015235696E+02  0.17031501027E+03  0.24952166485E+03  0.17300000000E+03 0. -1.
</event>
<event>
 4    1  0.3065897E+000  0.1000000E+03  0.7546771E-02  0.1280296E+00
         21   -1    0    0  503  502  0.00000000000E+00  0.00000000000E+00  0.26521484539E+03  0.26521484539E+03  0.00000000000E+00 0. -1.
         21   -1    0    0  501  503 -0.00000000000E+00 -0.00000000000E+00 -0.17508639055E+03  0.17508639055E+03  0.00000000000E+00 0.  1.
          6    1    1    2  501    0  0.26778762139E+02  0.11963141906E+03  0.57913646030E+01  0.21211157071E+03  0.17300000000E+03 0.  1.
         -6    1    1    2    0  502 -0.26778762139E+02 -0.11963141906E+03  0.84337090231E+02  0.22818966523E+03  0.17300000000E+03 0. -1.
</event>
<event>
 4    1  0.3065897E+000  0.1000000E+03  0.7546771E-02  0.1280296E+00
         21   -1    0    0  503  502  0.00000000000E+00  0.00000000000E+00  0.78141127286E+03  0.78141127286E+03  0.00000000000E+00 0. -1.
         21   -1    0    0  501  503 -0.00000000000E+00 -0.00000000000E+00 -0.48473645811E+02  0.48473645811E+02  0.00000000000E+00 0.  1.
          6    1    1    2  501    0 -0.26123734874E+02  0.77670954624E+02  0.29158515520E+03  0.34880672220E+03  0.17300000000E+03 0.  1.
         -6    1    1    2    0  502  0.26123734874E+02 -0.77670954624E+02  0.44135247184E+03  0.48107819647E+03  0.17300000000E+03 0. -1.
</event>
<event>
 4    1  0.3065897E+000  0.1000000E+03  0.7546771E-02  0.1280296E+00
         21   -1    0    0  503  502  0.00000000000E+00  0.00000000000E+00  0.31324197624E+03  0.31324197624E+03  0.00000000000E+00 0. -1.
         21   -1    0    0  501  503 -0.00000000000E+00 -0.00000000000E+00 -0.10832318977E+03  0.10832318977E+03  0.00000000000E+00 0.  1.
          6    1    1    2  501    0 -0.27449395789E+02 -0.56753677893E+02  0.96412983326E+02  0.20784348110E+03  0.17300000000E+03 0.  1.
         -6    1    1    2    0  502  0.27449395789E+02  0.56753677893E+02  0.10850580314E+03  0.21372168491E+03  0.17300000000E+03 0. -1.
</event>
<event>
 4    1  0.3065897E+000  0.1000000E+03  0.7546771E-02  0.1280296E+00
         21   -1    0    0  503  502  0.00000000000E+00  0.00000000000E+00  0.16596902724E+03  0.16596902724E+03  0.00000000000E+00 0. -1.
         21   -1    0    0  501  503 -0.00000000000E+00 -0.00000000000E+00 -0.48068459765E+03  0.48068459765E+03  0.00000000000E+00 0. -1.
          6    1    1    2  501    0  0.45374013237E+02  0.11306925006E+03 -0.37153397605E+03  0.42756280445E+03  0.17300000000E+03 0. -1.
         -6    1    1    2    0  502 -0.45374013237E+02 -0.11306925006E+03  0.56818405640E+02  0.21909082045E+03  0.17300000000E+03 0. -1.
</event>
<event>
 4    1  0.3065897E+000  0.1000000E+03  0.7546771E-02  0.1280296E+00
         21   -1    0    0  503  502  0.00000000000E+00  0.00000000000E+00  0.71737041774E+02  0.71737041774E+02  0.00000000000E+00 0. -1.
         21   -1    0    0  501  503 -0.00000000000E+00 -0.00000000000E+00 -0.75257476447E+03  0.75257476447E+03  0.00000000000E+00 0. -1.
          6    1    1    2  501    0  0.16149807820E+02  0.52316206759E+02 -0.59784415611E+03  0.62477550910E+03  0.17300000000E+03 0. -1.
         -6    1    1    2    0  502 -0.16149807820E+02 -0.52316206759E+02 -0.82993566591E+02  0.19953629714E+03  0.17300000000E+03 0. -1.
</event>
<event>
 4    1  0.3065897E+000  0.1000000E+03  0.7546771E-02  0.1280296E+00
         21   -1    0    0  501  502  0.00000000000E+00  0.00000000000E+00  0.20377049575E+04  0.20377049575E+04  0.00000000000E+00 0.  1.
         21   -1    0    0  502  503 -0.00000000000E+00 -0.00000000000E+00 -0.55201100387E+02  0.55201100387E+02  0.00000000000E+00 0.  1.
          6    1    1    2  501    0  0.18890082230E+02 -0.18294192077E+02  0.18839799431E+04  0.18920890409E+04  0.17300000000E+03 0.  1.
         -6    1    1    2    0  503 -0.18890082230E+02  0.18294192077E+02  0.98523913958E+02  0.20081701694E+03  0.17300000000E+03 0.  1.
</event>
<event>
 4    1  0.3065897E+000  0.1000000E+03  0.7546771E-02  0.1280296E+00
         21   -1    0    0  501  502  0.00000000000E+00  0.00000000000E+00  0.12196384458E+03  0.12196384458E+03  0.00000000000E+00 0.  1.
         21   -1    0    0  502  503 -0.00000000000E+00 -0.00000000000E+00 -0.46384718897E+03  0.46384718897E+03  0.00000000000E+00 0.  1.
          6    1    1    2  501    0  0.26587778734E+02  0.10301614044E+03 -0.18495830069E+02  0.20393707583E+03  0.17300000000E+03 0.  1.
         -6    1    1    2    0  503 -0.26587778734E+02 -0.10301614044E+03 -0.32338751432E+03  0.38187395772E+03  0.17300000000E+03 0.  1.
</event>
<event>
 4    1  0.3065897E+000  0.1000000E+03  0.7546771E-02  0.1280296E+00
         21   -1    0    0  501  502  0.00000000000E+00  0.00000000000E+00  0.19563472625E+03  0.19563472625E+03  0.00000000000E+00 0. -1.
         21   -1    0    0  502  503 -0.00000000000E+00 -0.00000000000E+00 -0.21817159557E+03  0.21817159557E+03  0.00000000000E+00 0. -1.
          6    1    1    2  501    0 -0.36348777240E+02  0.90826394442E+02 -0.67763921362E+02  0.20998003851E+03  0.17300000000E+03 0. -1.
         -6    1    1    2    0  503  0.36348777240E+02 -0.90826394442E+02  0.45227052037E+02  0.20382628332E+03  0.17300000000E+03 0. -1.
</event>
<event>
 4    1  0.3065897E+000  0.1000000E+03  0.7546771E-02  0.1280296E+00
         21   -1    0    0  501  502  0.00000000000E+00  0.00000000000E+00  0.11746900783E+04  0.11746900783E+04  0.00000000000E+00 0. -1.
         21   -1    0    0  502  503 -0.00000000000E+00 -0.00000000000E+00 -0.37713046151E+02  0.37713046151E+02  0.00000000000E+00 0. -1.
          6    1    1    2  501    0 -0.41927151224E+02 -0.81095736750E+02  0.79228160784E+03  0.81607202541E+03  0.17300000000E+03 0. -1.
         -6    1    1    2    0  503  0.41927151224E+02  0.81095736750E+02  0.34469542429E+03  0.39633109902E+03  0.17300000000E+03 0. -1.
</event>
<event>
 4    1  0.3065897E+000  0.1000000E+03  0.7546771E-02  0.1280296E+00
         21   -1    0    0  501  502  0.00000000000E+00  0.00000000000E+00  0.16536725920E+03  0.16536725920E+03  0.00000000000E+00 0.  1.
         21   -1    0    0  502  503 -0.00000000000E+00 -0.00000000000E+00 -0.36600183104E+03  0.36600183104E+03  0.00000000000E+00 0.  1.
          6    1    1    2  501    0 -0.11035623679E+03  0.83612548953E+02  0.15121059559E+02  0.22209728450E+03  0.17300000000E+03 0.  1.
         -6    1    1    2    0  503  0.11035623679E+03 -0.83612548953E+02 -0.21575563139E+03  0.30927180573E+03  0.17300000000E+03 0.  1.
</event>
<event>
 4    1  0.3065897E+000  0.1000000E+03  0.7546771E-02  0.1280296E+00
         21   -1    0    0  501  502  0.00000000000E+00  0.00000000000E+00  0.71830690393E+03  0.71830690393E+03  0.00000000000E+00 0.  1.
         21   -1    0    0  502  503 -0.00000000000E+00 -0.00000000000E+00 -0.95655109405E+02  0.95655109405E+02  0.00000000000E+00 0.  1.
          6    1    1    2  501    0  0.75170052156E+02  0.12065409011E+03  0.99731831400E+02  0.24511912287E+03  0.17300000000E+03 0.  1.
         -6    1    1    2    0  503 -0.75170052156E+02 -0.12065409011E+03  0.52291996312E+03  0.56884289046E+03  0.17300000000E+03 0.  1.
</event>
<event>
 4    1  0.3065897E+000  0.1000000E+03  0.7546771E-02  0.1280296E+00
         21   -1    0    0  501  502  0.00000000000E+00  0.00000000000E+00  0.34303301552E+03  0.34303301552E+03  0.00000000000E+00 0.  1.
         21   -1    0    0  502  503 -0.00000000000E+00 -0.00000000000E+00 -0.13773764269E+04  0.13773764269E+04  0.00000000000E+00 0.  1.
          6    1    1    2  501    0 -0.19848159114E+03 -0.70586591551E+02  0.27250042744E+03  0.38543857083E+03  0.17300000000E+03 0.  1.
         -6    1    1    2    0  503  0.19848159114E+03  0.70586591551E+02 -0.13068438389E+04  0.13349708716E+04  0.17300000000E+03 0.  1.
</event>
<event>
 4    1  0.3065897E+000  0.1000000E+03  0.7546771E-02  0.1280296E+00
         21   -1    0    0  503  502  0.00000000000E+00  0.00000000000E+00  0.23420450137E+03  0.23420450137E+03  0.00000000000E+00 0.  1.
         21   -1    0    0  501  503 -0.00000000000E+00 -0.00000000000E+00 -0.48748355396E+03  0.48748355396E+03  0.00000000000E+00 0. -1.
          6    1    1    2  501    0  0.13671977619E+03 -0.22578653062E+03 -0.25554504670E+03  0.40608388973E+03  0.17300000000E+03 0. -1.
         -6    1    1    2    0  502 -0.13671977619E+03  0.22578653062E+03  0.22659941090E+01  0.31560416559E+03  0.17300000000E+03 0.  1.
</event>
<event>
 4    1  0.3065897E+000  0.1000000E+03  0.7546771E-02  0.1280296E+00
         21   -1    0    0  503  502  0.00000000000E+00  0.00000000000E+00  0.16694094352E+03  0.16694094352E+03  0.00000000000E+00 0.  1.
         21   -1    0    0  501  503 -0.00000000000E+00 -0.00000000000E+00 -0.33362073213E+03  0.33362073213E+03  0.00000000000E+00 0. -1.
          6    1    1    2  501    0 -0.14775549623E+03 -0.55287576965E+02 -0.11475635899E+03  0.26074206557E+03  0.17300000000E+03 0. -1.
         -6    1    1    2    0  502  0.14775549623E+03  0.55287576965E+02 -0.51923429627E+02  0.23981961007E+03  0.17300000000E+03 0. -1.
</event>
<event>
 4    1  0.3065897E+000  0.1000000E+03  0.7546771E-02  0.1280296E+00
         21   -1    0    0  503  502  0.00000000000E+00  0.00000000000E+00  0.51678280293E+02  0.51678280293E+02  0.00000000000E+00 0. -1.
         21   -1    0    0  501  503 -0.00000000000E+00 -0.00000000000E+00 -0.64849962013E+03  0.64849962013E+03  0.00000000000E+00 0. -1.
          6    1    1    2  501    0 -0.79088769984E+01 -0.58904958072E+02 -0.28462035500E+03  0.33833428868E+03  0.17300000000E+03 0. -1.
         -6    1    1    2    0  502  0.79088769984E+01  0.58904958072E+02 -0.31220098484E+03  0.36184361174E+03  0.17300000000E+03 0. -1.
</event>
<event>
 4    1  0.3065897E+000  0.1000000E+03  0.7546771E-02  0.1280296E+00
         21   -1    0    0  503  502  0.00000000000E+00  0.00000000000E+00  0.20955537183E+03  0.20955537183E+03  0.00000000000E+00 0. -1.
         21   -1    0    0  501  503 -0.00000000000E+00 -0.00000000000E+00 -0.20688762147E+03  0.20688762147E+03  0.00000000000E+00 0. -1.
          6    1    1    2  501    0 -0.30711327361E+02  0.10841502618E+03 -0.25655730360E+02  0.20804860017E+03  0.17300000000E+03 0. -1.
         -6    1    1    2    0  502  0.30711327361E+02 -0.10841502618E+03  0.28323480717E+02  0.20839439314E+03  0.17300000000E+03 0. -1.
</event>
<event>
 4    1  0.3065897E+000  0.1000000E+03  0.7546771E-02  0.1280296E+00
         21   -1    0    0  503  502  0.00000000000E+00  0.00000000000E+00  0.29984893057E+02  0.29984893057E+02  0.00000000000E+00 0. -1.
         21   -1    0    0  501  503 -0.00000000000E+00 -0.00000000000E+00 -0.18649300751E+04  0.18649300751E+04  0.00000000000E+00 0. -1.
          6    1    1    2  501    0 -0.15561754158E+03 -0.77622609573E+00 -0.10861936051E+04  0.11108388585E+04  0.17300000000E+03 0. -1.
         -6    1    1    2    0  502  0.15561754158E+03  0.77622609573E+00 -0.74875157694E+03  0.78407610967E+03  0.17300000000E+03 0. -1.
</event>
<event>
 4    1  0.3065897E+000  0.1000000E+03  0.7546771E-02  0.1280296E+00
         21   -1    0    0  503  502  0.00000000000E+00  0.00000000000E+00  0.28336026335E+02  0.28336026335E+02  0.00000000000E+00 0. -1.
         21   -1    0    0  501  503 -0.00000000000E+00 -0.00000000000E+00 -0.15538460411E+04  0.15538460411E+04  0.00000000000E+00 0. -1.
          6    1    1    2  501    0  0.10596697847E+03 -0.14970352987E+02 -0.95674897787E+03  0.97813634972E+03  0.17300000000E+03 0. -1.
         -6    1    1    2    0  502 -0.10596697847E+03  0.14970352987E+02 -0.56876103688E+03  0.60404571770E+03  0.17300000000E+03 0. -1.
</event>
<event>
 4    1  0.3065897E+000  0.1000000E+03  0.7546771E-02  0.1280296E+00
         21   -1    0    0  501  502  0.00000000000E+00  0.00000000000E+00  0.12754570338E+04  0.12754570338E+04  0.00000000000E+00 0. -1.
         21   -1    0    0  502  503 -0.00000000000E+00 -0.00000000000E+00 -0.50317569652E+02  0.50317569652E+02  0.00000000000E+00 0. -1.
          6    1    1    2  501    0 -0.86511914511E+02 -0.73935365295E+02  0.99444178928E+03  0.10157727216E+04  0.17300000000E+03 0.  1.
         -6    1    1    2    0  503  0.86511914511E+02  0.73935365295E+02  0.23069767490E+03  0.31000188193E+03  0.17300000000E+03 0.  1.
</event>
<event>
 4    1  0.3065897E+000  0.1000000E+03  0.7546771E-02  0.1280296E+00
         21   -1    0    0  501  502  0.00000000000E+00  0.00000000000E+00  0.16332178996E+04  0.16332178996E+04  0.00000000000E+00 0. -1.
         21   -1    0    0  502  503 -0.00000000000E+00 -0.00000000000E+00 -0.23741995863E+02  0.23741995863E+02  0.00000000000E+00 0. -1.
          6    1    1    2  501    0  0.26999071913E+02 -0.49969206346E+02  0.11201711417E+04  0.11348736749E+04  0.17300000000E+03 0.  1.
         -6    1    1    2    0  503 -0.26999071913E+02  0.49969206346E+02  0.48930476207E+03  0.52208622052E+03  0.17300000000E+03 0.  1.
</event>
<event>
 4    1  0.3065897E+000  0.1000000E+03  0.7546771E-02  0.1280296E+00
         21   -1    0    0  503  502  0.00000000000E+00  0.00000000000E+00  0.40248766297E+03  0.40248766297E+03  0.00000000000E+00 0.  1.
         21   -1    0    0  501  503 -0.00000000000E+00 -0.00000000000E+00 -0.22820122568E+03  0.22820122568E+03  0.00000000000E+00 0.  1.
          6    1    1    2  501    0 -0.24389452473E+03 -0.43214725569E+02  0.62363874370E+02  0.30849684686E+03  0.17300000000E+03 0.  1.
         -6    1    1    2    0  502  0.24389452473E+03  0.43214725569E+02  0.11192256292E+03  0.32219204178E+03  0.17300000000E+03 0.  1.
</event>
<event>
 4    1  0.3065897E+000  0.1000000E+03  0.7546771E-02  0.1280296E+00
         21   -1    0    0  503  502  0.00000000000E+00  0.00000000000E+00  0.10165596137E+04  0.10165596137E+04  0.00000000000E+00 0.  1.
         21   -1    0    0  501  503 -0.00000000000E+00 -0.00000000000E+00 -0.14324831394E+03  0.14324831394E+03  0.00000000000E+00 0.  1.
          6    1    1    2  501    0  0.49114736556E+02  0.85516117346E+02 -0.58029126656E+02  0.20741659339E+03  0.17300000000E+03 0.  1.
         -6    1    1    2    0  502 -0.49114736556E+02 -0.85516117346E+02  0.93134042645E+03  0.95239133428E+03  0.17300000000E+03 0.  1.
</event>
<event>
 4    1  0.3065897E+000  0.1000000E+03  0.7546771E-02  0.1280296E+00
         21   -1    0    0  503  502  0.00000000000E+00  0.00000000000E+00  0.73816755891E+03  0.73816755891E+03  0.00000000000E+00 0.  1.
         21   -1    0    0  501  503 -0.00000000000E+00 -0.00000000000E+00 -0.13006800227E+04  0.13006800227E+04  0.00000000000E+00 0.  1.
          6    1    1    2  501    0  0.39932092019E+03  0.52674767428E+03 -0.10119486795E+04  0.12210198359E+04  0.17300000000E+03 0.  1.
         -6    1    1    2    0  502 -0.39932092019E+03 -0.52674767428E+03  0.44943621573E+03  0.81782774572E+03  0.17300000000E+03 0.  1.
</event>
<event>
 4    1  0.3065897E+000  0.1000000E+03  0.7546771E-02  0.1280296E+00
         21   -1    0    0  501  502  0.00000000000E+00  0.00000000000E+00  0.78731309438E+03  0.78731309438E+03  0.00000000000E+00 0. -1.
         21   -1    0    0  502  503 -0.00000000000E+00 -0.00000000000E+00 -0.51646435358E+02  0.51646435358E+02  0.00000000000E+00 0.  1.
          6    1    1    2  501    0 -0.73288617198E+02 -0.45419534080E+02  0.48731256079E+03  0.52424868849E+03  0.17300000000E+03 0.  1.
         -6    1    1    2    0  503  0.73288617198E+02  0.45419534080E+02  0.24835409824E+03  0.31471084125E+03  0.17300000000E+03 0. -1.
</event>
<event>
 4    1  0.3065897E+000  0.1000000E+03  0.7546771E-02  0.1280296E+00
         21   -1    0    0  501  502  0.00000000000E+00  0.00000000000E+00  0.74089508262E+02  0.74089508262E+02  0.00000000000E+00 0. -1.
         21   -1    0    0  502  503 -0.00000000000E+00 -0.00000000000E+00 -0.10546472126E+04  0.10546472126E+04  0.00000000000E+00 0.  1.
          6    1    1    2  501    0  0.15691606250E+02 -0.20652886712E+03 -0.34317206141E+03  0.43657354844E+03  0.17300000000E+03 0.  1.
         -6    1    1    2    0  503 -0.15691606250E+02  0.20652886712E+03 -0.63738564294E+03  0.69216317244E+03  0.17300000000E+03 0. -1.
</event>
<event>
 4    1  0.3065897E+000  0.1000000E+03  0.7546771E-02  0.1280296E+00
         21   -1    0    0  501  502  0.00000000000E+00  0.00000000000E+00  0.19683694274E+03  0.19683694274E+03  0.00000000000E+00 0. -1.
         21   -1    0    0  502  503 -0.00000000000E+00 -0.00000000000E+00 -0.33815777610E+03  0.33815777610E+03  0.00000000000E+00 0. -1.
          6    1    1    2  501    0  0.30368602365E+02  0.59256066675E+02  0.11538991868E+03  0.21835147533E+03  0.17300000000E+03 0. -1.
         -6    1    1    2    0  503 -0.30368602365E+02 -0.59256066675E+02 -0.25671075204E+03  0.31664324351E+03  0.17300000000E+03 0. -1.
</event>
<event>
 4    1  0.3065897E+000  0.1000000E+03  0.7546771E-02  0.1280296E+00
         21   -1    0    0  503  502  0.00000000000E+00  0.00000000000E+00  0.68580372604E+03  0.68580372604E+03  0.00000000000E+00 0. -1.
         21   -1    0    0  501  503 -0.00000000000E+00 -0.00000000000E+00 -0.54837945848E+02  0.54837945848E+02  0.00000000000E+00 0. -1.
          6    1    1    2  501    0  0.72986195314E+02 -0.45079232865E+02  0.28132620287E+03  0.34122214812E+03  0.17300000000E+03 0.  1.
         -6    1    1    2    0  502 -0.72986195314E+02  0.45079232865E+02  0.34963957732E+03  0.39941952377E+03  0.17300000000E+03 0.  1.
</event>
<event>
 4    1  0.3065897E+000  0.1000000E+03  0.7546771E-02  0.1280296E+00
         21   -1    0    0  503  502  0.00000000000E+00  0.00000000000E+00  0.18501310854E+04  0.18501310854E+04  0.00000000000E+00 0. -1.
         21   -1    0    0  501  503 -0.00000000000E+00 -0.00000000000E+00 -0.10625347167E+03  0.10625347167E+03  0.00000000000E+00 0.  1.
          6    1    1    2  501    0  0.16050437556E+03 -0.31937718371E+03  0.43685523892E+03  0.59036847801E+03  0.17300000000E+03 0.  1.
         -6    1    1    2    0  502 -0.16050437556E+03  0.31937718371E+03  0.13070223748E+04  0.13660160791E+04  0.17300000000E+03 0. -1.
</event>
<event>
 4    1  0.3065897E+000  0.1000000E+03  0.7546771E-02  0.1280296E+00
         21   -1    0    0  503  502  0.00000000000E+00  0.00000000000E+00  0.22860079510E+03  0.22860079510E+03  0.00000000000E+00 0. -1.
         21   -1    0    0  501  503 -0.00000000000E+00 -0.00000000000E+00 -0.31109643793E+03  0.31109643793E+03  0.00000000000E+00 0.  1.
          6    1    1    2  501    0 -0.82819599668E+02 -0.22158496189E+02 -0.22738576832E+03  0.29830080905E+03  0.17300000000E+03 0.  1.
         -6    1    1    2    0  502  0.82819599668E+02  0.22158496189E+02  0.14489012550E+03  0.24139642398E+03  0.17300000000E+03 0. -1.
</event>
<event>
 4    1  0.3065897E+000  0.1000000E+03  0.7546771E-02  0.1280296E+00
         21   -1    0    0  501  502  0.00000000000E+00  0.00000000000E+00  0.76435896399E+03  0.76435896399E+03  0.00000000000E+00 0.  1.
         21   -1    0    0  502  503 -0.00000000000E+00 -0.00000000000E+00 -0.49215379532E+02  0.49215379532E+02  0.00000000000E+00 0. -1.
          6    1    1    2  501    0  0.69168954004E+02  0.10359615862E+02  0.46850386523E+03  0.50429806422E+03  0.17300000000E+03 0.  1.
         -6    1    1    2    0  503 -0.69168954004E+02 -0.10359615862E+02  0.24663971923E+03  0.30927627930E+03  0.17300000000E+03 0. -1.
</event>
<event>
 4    1  0.3065897E+000  0.1000000E+03  0.7546771E-02  0.1280296E+00
         21   -1    0    0  503  502  0.00000000000E+00  0.00000000000E+00  0.57717751172E+03  0.57717751172E+03  0.00000000000E+00 0. -1.
         21   -1    0    0  501  503 -0.00000000000E+00 -0.00000000000E+00 -0.10323682058E+03  0.10323682058E+03  0.00000000000E+00 0. -1.
          6    1    1    2  501    0 -0.10834351407E+02  0.13691577158E+03  0.92174599249E+02  0.23935009594E+03  0.17300000000E+03 0. -1.
         -6    1    1    2    0  502  0.10834351407E+02 -0.13691577158E+03  0.38176609190E+03  0.44106423636E+03  0.17300000000E+03 0. -1.
</event>
<event>
 4    1  0.3065897E+000  0.1000000E+03  0.7546771E-02  0.1280296E+00
         21   -1    0    0  501  502  0.00000000000E+00  0.00000000000E+00  0.71373575344E+03  0.71373575344E+03  0.00000000000E+00 0. -1.
         21   -1    0    0  502  503 -0.00000000000E+00 -0.00000000000E+00 -0.78307291954E+02  0.78307291954E+02  0.00000000000E+00 0. -1.
          6    1    1    2  501    0 -0.15527964614E+03  0.42999473244E+02  0.31938165335E+03  0.39735923760E+03  0.17300000000E+03 0. -1.
         -6    1    1    2    0  503  0.15527964614E+03 -0.42999473244E+02  0.31604680814E+03  0.39468380780E+03  0.17300000000E+03 0. -1.
</event>
<event>
 4    1  0.3065897E+000  0.1000000E+03  0.7546771E-02  0.1280296E+00
         21   -1    0    0  501  502  0.00000000000E+00  0.00000000000E+00  0.69095377739E+03  0.69095377739E+03  0.00000000000E+00 0. -1.
         21   -1    0    0  502  503 -0.00000000000E+00 -0.00000000000E+00 -0.21965998208E+03  0.21965998208E+03  0.00000000000E+00 0. -1.
          6    1    1    2  501    0  0.26337968870E+03 -0.70827574897E+02  0.49025390095E+03  0.58708031238E+03  0.17300000000E+03 0. -1.
         -6    1    1    2    0  503 -0.26337968870E+03  0.70827574897E+02 -0.18960105645E+02  0.32353344710E+03  0.17300000000E+03 0. -1.
</event>
<event>
 4    1  0.3065897E+000  0.1000000E+03  0.7546771E-02  0.1280296E+00
         21   -1    0    0  503  502  0.00000000000E+00  0.00000000000E+00  0.13157479921E+04  0.13157479921E+04  0.00000000000E+00 0. -1.
         21   -1    0    0  501  503 -0.00000000000E+00 -0.00000000000E+00 -0.41376624734E+02  0.41376624734E+02  0.00000000000E+00 0. -1.
          6    1    1    2  501    0  0.54141757346E+02  0.14216049607E+03  0.52949254718E+03  0.57743596533E+03  0.17300000000E+03 0. -1.
         -6    1    1    2    0  502 -0.54141757346E+02 -0.14216049607E+03  0.74487882017E+03  0.77968865149E+03  0.17300000000E+03 0. -1.
</event>
<event>
 4    1  0.3065897E+000  0.1000000E+03  0.7546771E-02  0.1280296E+00
         21   -1    0    0  501  502  0.00000000000E+00  0.00000000000E+00  0.73677270667E+02  0.73677270667E+02  0.00000000000E+00 0.  1.
         21   -1    0    0  502  503 -0.00000000000E+00 -0.00000000000E+00 -0.73513509186E+03  0.73513509186E+03  0.00000000000E+00 0. -1.
          6    1    1    2  501    0 -0.24139417707E+02 -0.87942117380E+02 -0.11149837352E+03  0.22511644718E+03  0.17300000000E+03 0.  1.
         -6    1    1    2    0  503  0.24139417707E+02  0.87942117380E+02 -0.54995944768E+03  0.58369591534E+03  0.17300000000E+03 0. -1.
</event>
<event>
 4    1  0.3065897E+000  0.1000000E+03  0.7546771E-02  0.1280296E+00
         21   -1    0    0  503  502  0.00000000000E+00  0.00000000000E+00  0.41620016975E+02  0.41620016975E+02  0.00000000000E+00 0.  1.
         21   -1    0    0  501  503 -0.00000000000E+00 -0.00000000000E+00 -0.11055947868E+04  0.11055947868E+04  0.00000000000E+00 0.  1.
          6    1    1    2  501    0 -0.66908462349E+02 -0.10470470359E+03 -0.46401994985E+03  0.51057157299E+03  0.17300000000E+03 0.  1.
         -6    1    1    2    0  502  0.66908462349E+02  0.10470470359E+03 -0.59995481995E+03  0.63664323076E+03  0.17300000000E+03 0.  1.
</event>
<event>
 4    1  0.3065897E+000  0.1000000E+03  0.7546771E-02  0.1280296E+00
         21   -1    0    0  503  502  0.00000000000E+00  0.00000000000E+00  0.36893194452E+03  0.36893194452E+03  0.00000000000E+00 0. -1.
         21   -1    0    0  501  503 -0.00000000000E+00 -0.00000000000E+00 -0.35525873531E+03  0.35525873531E+03  0.00000000000E+00 0.  1.
          6    1    1    2  501    0  0.10389738552E+03  0.65379480295E+02 -0.28658944293E+03  0.35655525793E+03  0.17300000000E+03 0.  1.
         -6    1    1    2    0  502 -0.10389738552E+03 -0.65379480295E+02  0.30026265214E+03  0.36763542190E+03  0.17300000000E+03 0. -1.
</event>
<event>
 4    1  0.3065897E+000  0.1000000E+03  0.7546771E-02  0.1280296E+00
         21   -1    0    0  501  502  0.00000000000E+00  0.00000000000E+00  0.54632568681E+03  0.54632568681E+03  0.00000000000E+00 0.  1.
         21   -1    0    0  502  503 -0.00000000000E+00 -0.00000000000E+00 -0.53591397993E+03  0.53591397993E+03  0.00000000000E+00 0.  1.
          6    1    1    2  501    0  0.68136828684E+02 -0.32190935266E+03  0.39839871117E+03  0.54490255259E+03  0.17300000000E+03 0.  1.
         -6    1    1    2    0  503 -0.68136828684E+02  0.32190935266E+03 -0.38798700429E+03  0.53733711416E+03  0.17300000000E+03 0.  1.
</event>
<event>
 4    1  0.3065897E+000  0.1000000E+03  0.7546771E-02  0.1280296E+00
         21   -1    0    0  501  502  0.00000000000E+00  0.00000000000E+00  0.30729905132E+02  0.30729905132E+02  0.00000000000E+00 0.  1.
         21   -1    0    0  502  503 -0.00000000000E+00 -0.00000000000E+00 -0.13462375090E+04  0.13462375090E+04  0.00000000000E+00 0.  1.
          6    1    1    2  501    0 -0.23824633446E+02  0.77315147202E+02 -0.42091601279E+03  0.46221697824E+03  0.17300000000E+03 0.  1.
         -6    1    1    2    0  503  0.23824633446E+02 -0.77315147202E+02 -0.89459159106E+03  0.91475043587E+03  0.17300000000E+03 0.  1.
</event>
<event>
 4    1  0.3065897E+000  0.1000000E+03  0.7546771E-02  0.1280296E+00
         21   -1    0    0  503  502  0.00000000000E+00  0.00000000000E+00  0.94211744473E+03  0.94211744473E+03  0.00000000000E+00 0. -1.
         21   -1    0    0  501  503 -0.00000000000E+00 -0.00000000000E+00 -0.10256605736E+03  0.10256605736E+03  0.00000000000E+00 0. -1.
          6    1    1    2  501    0 -0.32886370680E+02 -0.55451986526E+02 -0.45971523897E+00  0.18462298753E+03  0.17300000000E+03 0. -1.
         -6    1    1    2    0  502  0.32886370680E+02  0.55451986526E+02  0.84001110261E+03  0.86006051456E+03  0.17300000000E+03 0. -1.
</event>
<event>
 4    1  0.3065897E+000  0.1000000E+03  0.7546771E-02  0.1280296E+00
         21   -1    0    0  503  502  0.00000000000E+00  0.00000000000E+00  0.53285317514E+03  0.53285317514E+03  0.00000000000E+00 0. -1.
         21   -1    0    0  501  503 -0.00000000000E+00 -0.00000000000E+00 -0.11500557592E+03  0.11500557592E+03  0.00000000000E+00 0. -1.
          6    1    1    2  501    0 -0.71088220570E+02  0.13371289239E+03  0.88855591758E+02  0.24648932813E+03  0.17300000000E+03 0. -1.
         -6    1    1    2    0  502  0.71088220570E+02 -0.13371289239E+03  0.32899200746E+03  0.40136942293E+03  0.17300000000E+03 0. -1.
</event>
<event>
 4    1  0.3065897E+000  0.1000000E+03  0.7546771E-02  0.1280296E+00
         21   -1    0    0  501  502  0.00000000000E+00  0.00000000000E+00  0.22162534248E+03  0.22162534248E+03  0.00000000000E+00 0.  1.
         21   -1    0    0  502  503 -0.00000000000E+00 -0.00000000000E+00 -0.21422265352E+03  0.21422265352E+03  0.00000000000E+00 0.  1.
          6    1    1    2  501    0 -0.37380208849E+02  0.10399033438E+02  0.13037959170E+03  0.22007557302E+03  0.17300000000E+03 0.  1.
         -6    1    1    2    0  503  0.37380208849E+02 -0.10399033438E+02 -0.12297690274E+03  0.21577242298E+03  0.17300000000E+03 0.  1.
</event>
<event>
 4    1  0.3065897E+000  0.1000000E+03  0.7546771E-02  0.1280296E+00
         21   -1    0    0  501  502  0.00000000000E+00  0.00000000000E+00  0.27493236549E+03  0.27493236549E+03  0.00000000000E+00 0.  1.
         21   -1    0    0  502  503 -0.00000000000E+00 -0.00000000000E+00 -0.24376563340E+03  0.24376563340E+03  0.00000000000E+00 0.  1.
          6    1    1    2  501    0 -0.12643602941E+03 -0.59544299633E+02  0.14833159232E+03  0.26732537185E+03  0.17300000000E+03 0.  1.
         -6    1    1    2    0  503  0.12643602941E+03  0.59544299633E+02 -0.11716486024E+03  0.25137262704E+03  0.17300000000E+03 0.  1.
</event>
<event>
 4    1  0.3065897E+000  0.1000000E+03  0.7546771E-02  0.1280296E+00
         21   -1    0    0  501  502  0.00000000000E+00  0.00000000000E+00  0.15842762802E+04  0.15842762802E+04  0.00000000000E+00 0.  1.
         21   -1    0    0  502  503 -0.00000000000E+00 -0.00000000000E+00 -0.11366603121E+03  0.11366603121E+03  0.00000000000E+00 0.  1.
          6    1    1    2  501    0 -0.27494275119E+02 -0.30897083494E+02  0.15060948046E+04  0.15165622722E+04  0.17300000000E+03 0.  1.
         -6    1    1    2    0  503  0.27494275119E+02  0.30897083494E+02 -0.35484555636E+02  0.18138003920E+03  0.17300000000E+03 0.  1.
</event>
<event>
 4    1  0.3065897E+000  0.1000000E+03  0.7546771E-02  0.1280296E+00
         21   -1    0    0  501  502  0.00000000000E+00  0.00000000000E+00  0.23127531265E+02  0.23127531265E+02  0.00000000000E+00 0.  1.
         21   -1    0    0  502  503 -0.00000000000E+00 -0.00000000000E+00 -0.19028822151E+04  0.19028822151E+04  0.00000000000E+00 0.  1.
          6    1    1    2  501    0 -0.34832997321E+02 -0.54695065870E+02 -0.48370578371E+03  0.51778873407E+03  0.17300000000E+03 0.  1.
         -6    1    1    2    0  503  0.34832997321E+02  0.54695065870E+02 -0.13960489001E+04  0.14082210123E+04  0.17300000000E+03 0.  1.
</event>
<event>
 4    1  0.3065897E+000  0.1000000E+03  0.7546771E-02  0.1280296E+00
         21   -1    0    0  501  502  0.00000000000E+00  0.00000000000E+00  0.11983736327E+03  0.11983736327E+03  0.00000000000E+00 0.  1.
         21   -1    0    0  502  503 -0.00000000000E+00 -0.00000000000E+00 -0.41141382515E+03  0.41141382515E+03  0.00000000000E+00 0.  1.
          6    1    1    2  501    0  0.44304210508E+02  0.76545510320E+01  0.11796011878E+02  0.17913570587E+03  0.17300000000E+03 0.  1.
         -6    1    1    2    0  503 -0.44304210508E+02 -0.76545510320E+01 -0.30337247376E+03  0.35211548255E+03  0.17300000000E+03 0.  1.
</event>
<event>
 4    1  0.3065897E+000  0.1000000E+03  0.7546771E-02  0.1280296E+00
         21   -1    0    0  501  502  0.00000000000E+00  0.00000000000E+00  0.26707662315E+02  0.26707662315E+02  0.00000000000E+00 0.  1.
         21   -1    0    0  502  503 -0.00000000000E+00 -0.00000000000E+00 -0.11756499712E+04  0.11756499712E+04  0.00000000000E+00 0. -1.
          6    1    1    2  501    0 -0.30125275047E+02  0.72674548200E+00 -0.49405591086E+03  0.52433605961E+03  0.17300000000E+03 0. -1.
         -6    1    1    2    0  503  0.30125275047E+02 -0.72674548200E+00 -0.65488639799E+03  0.67802157387E+03  0.17300000000E+03 0.  1.
</event>
<event>
 4    1  0.3065897E+000  0.1000000E+03  0.7546771E-02  0.1280296E+00
         21   -1    0    0  503  502  0.00000000000E+00  0.00000000000E+00  0.17089045197E+03  0.17089045197E+03  0.00000000000E+00 0. -1.
         21   -1    0    0  501  503 -0.00000000000E+00 -0.00000000000E+00 -0.30463804377E+03  0.30463804377E+03  0.00000000000E+00 0. -1.
          6    1    1    2  501    0 -0.11459602170E+03 -0.41787857156E+02  0.21868826778E+02  0.21280441438E+03  0.17300000000E+03 0.  1.
         -6    1    1    2    0  502  0.11459602170E+03  0.41787857156E+02 -0.15561641858E+03  0.26272408136E+03  0.17300000000E+03 0.  1.
</event>
<event>
 4    1  0.3065897E+000  0.1000000E+03  0.7546771E-02  0.1280296E+00
         21   -1    0    0  503  502  0.00000000000E+00  0.00000000000E+00  0.32382580177E+02  0.32382580177E+02  0.00000000000E+00 0. -1.
         21   -1    0    0  501  503 -0.00000000000E+00 -0.00000000000E+00 -0.10360951553E+04  0.10360951553E+04  0.00000000000E+00 0. -1.
          6    1    1    2  501    0 -0.26704797904E+02 -0.45549105281E+02 -0.58611418057E+03  0.61338951726E+03  0.17300000000E+03 0.  1.
         -6    1    1    2    0  502  0.26704797904E+02  0.45549105281E+02 -0.41759839454E+03  0.45508821820E+03  0.17300000000E+03 0.  1.
</event>
<event>
 4    1  0.3065897E+000  0.1000000E+03  0.7546771E-02  0.1280296E+00
         21   -1    0    0  503  502  0.00000000000E+00  0.00000000000E+00  0.10893525458E+03  0.10893525458E+03  0.00000000000E+00 0. -1.
         21   -1    0    0  501  503 -0.00000000000E+00 -0.00000000000E+00 -0.35150709570E+03  0.35150709570E+03  0.00000000000E+00 0. -1.
          6    1    1    2  501    0  0.45126318132E+02 -0.24244253219E+02 -0.21040842423E+03  0.27717300263E+03  0.17300000000E+03 0. -1.
         -6    1    1    2    0  502 -0.45126318132E+02  0.24244253219E+02 -0.32163416886E+02  0.18326934765E+03  0.17300000000E+03 0. -1.
</event>
<event>
 4    1  0.3065897E+000  0.1000000E+03  0.7546771E-02  0.1280296E+00
         21   -1    0    0  501  502  0.00000000000E+00  0.00000000000E+00  0.16474559557E+03  0.16474559557E+03  0.00000000000E+00 0.  1.
         21   -1    0    0  502  503 -0.00000000000E+00 -0.00000000000E+00 -0.88401500581E+03  0.88401500581E+03  0.00000000000E+00 0. -1.
          6    1    1    2  501    0 -0.29618018490E+03  0.62395422894E+02 -0.14635365482E+03  0.37810617953E+03  0.17300000000E+03 0.  1.
         -6    1    1    2    0  503  0.29618018490E+03 -0.62395422894E+02 -0.57291575543E+03  0.67065442185E+03  0.17300000000E+03 0. -1.
</event>
<event>
 4    1  0.3065897E+000  0.1000000E+03  0.7546771E-02  0.1280296E+00
         21   -1    0    0  501  502  0.00000000000E+00  0.00000000000E+00  0.20231191212E+03  0.20231191212E+03  0.00000000000E+00 0.  1.
         21   -1    0    0  502  503 -0.00000000000E+00 -0.00000000000E+00 -0.55659363602E+03  0.55659363602E+03  0.00000000000E+00 0. -1.
          6    1    1    2  501    0  0.15517148835E+01 -0.12209818794E+03  0.11722285953E+03  0.24203424161E+03  0.17300000000E+03 0.  1.
         -6    1    1    2    0  503 -0.15517148835E+01  0.12209818794E+03 -0.47150458343E+03  0.51687130653E+03  0.17300000000E+03 0. -1.
</event>
<event>
 4    1  0.3065897E+000  0.1000000E+03  0.7546771E-02  0.1280296E+00
         21   -1    0    0  503  502  0.00000000000E+00  0.00000000000E+00  0.91690358793E+02  0.91690358793E+02  0.00000000000E+00 0.  1.
         21   -1    0    0  501  503 -0.00000000000E+00 -0.00000000000E+00 -0.81674345696E+03  0.81674345696E+03  0.00000000000E+00 0. -1.
          6    1    1    2  501    0 -0.51031354917E+02 -0.19945677138E+03 -0.44669218622E+03  0.52139247411E+03  0.17300000000E+03 0. -1.
         -6    1    1    2    0  502  0.51031354917E+02  0.19945677138E+03 -0.27836091195E+03  0.38704134164E+03  0.17300000000E+03 0.  1.
</event>
<event>
 4    1  0.3065897E+000  0.1000000E+03  0.7546771E-02  0.1280296E+00
         21   -1    0    0  503  502  0.00000000000E+00  0.00000000000E+00  0.43005627029E+02  0.43005627029E+02  0.00000000000E+00 0.  1.
         21   -1    0    0  501  503 -0.00000000000E+00 -0.00000000000E+00 -0.12695203073E+04  0.12695203073E+04  0.00000000000E+00 0. -1.
          6    1    1    2  501    0  0.60599860181E+02  0.71769637923E+01 -0.10197210443E+04  0.10360906621E+04  0.17300000000E+03 0. -1.
         -6    1    1    2    0  502 -0.60599860181E+02 -0.71769637923E+01 -0.20679363596E+03  0.27643527224E+03  0.17300000000E+03 0.  1.
</event>
<event>
 4    1  0.3065897E+000  0.1000000E+03  0.7546771E-02  0.1280296E+00
         21   -1    0    0  503  502  0.00000000000E+00  0.00000000000E+00  0.12743964602E+03  0.12743964602E+03  0.00000000000E+00 0.  1.
         21   -1    0    0  501  503 -0.00000000000E+00 -0.00000000000E+00 -0.32662597651E+03  0.32662597651E+03  0.00000000000E+00 0. -1.
          6    1    1    2  501    0  0.68947577630E+02 -0.18000347877E+02 -0.19012155554E+03  0.26674517215E+03  0.17300000000E+03 0. -1.
         -6    1    1    2    0  502 -0.68947577630E+02  0.18000347877E+02 -0.90647749586E+01  0.18732045038E+03  0.17300000000E+03 0.  1.
</event>
<event>
 4    1  0.3065897E+000  0.1000000E+03  0.7546771E-02  0.1280296E+00
         21   -1    0    0  501  502  0.00000000000E+00  0.00000000000E+00  0.19223625597E+03  0.19223625597E+03  0.00000000000E+00 0. -1.
         21   -1    0    0  502  503 -0.00000000000E+00 -0.00000000000E+00 -0.40590195801E+03  0.40590195801E+03  0.00000000000E+00 0. -1.
          6    1    1    2  501    0 -0.27124047433E+02  0.10623567977E+03  0.96527648089E+02  0.22642508794E+03  0.17300000000E+03 0. -1.
         -6    1    1    2    0  503  0.27124047433E+02 -0.10623567977E+03 -0.31019335013E+03  0.37171312604E+03  0.17300000000E+03 0. -1.
</event>
<event>
 4    1  0.3065897E+000  0.1000000E+03  0.7546771E-02  0.1280296E+00
         21   -1    0    0  501  502  0.00000000000E+00  0.00000000000E+00  0.55873745881E+03  0.55873745881E+03  0.00000000000E+00 0. -1.
         21   -1    0    0  502  503 -0.00000000000E+00 -0.00000000000E+00 -0.69683882734E+02  0.69683882734E+02  0.00000000000E+00 0. -1.
          6    1    1    2  501    0 -0.48343891514E+02  0.17551762136E+02  0.37152766311E+03  0.41304600308E+03  0.17300000000E+03 0. -1.
         -6    1    1    2    0  503  0.48343891514E+02 -0.17551762136E+02  0.11752591296E+03  0.21537533846E+03  0.17300000000E+03 0. -1.
</event>
<event>
 4    1  0.3065897E+000  0.1000000E+03  0.7546771E-02  0.1280296E+00
         21   -1    0    0  501  502  0.00000000000E+00  0.00000000000E+00  0.66334915417E+02  0.66334915417E+02  0.00000000000E+00 0. -1.
         21   -1    0    0  502  503 -0.00000000000E+00 -0.00000000000E+00 -0.59803949537E+03  0.59803949537E+03  0.00000000000E+00 0. -1.
          6    1    1    2  501    0 -0.17018487276E+02  0.82820052598E+01 -0.10429243848E+03  0.20288946065E+03  0.17300000000E+03 0. -1.
         -6    1    1    2    0  503  0.17018487276E+02 -0.82820052598E+01 -0.42741214147E+03  0.46148495013E+03  0.17300000000E+03 0. -1.
</event>
<event>
 4    1  0.3065897E+000  0.1000000E+03  0.7546771E-02  0.1280296E+00
         21   -1    0    0  501  502  0.00000000000E+00  0.00000000000E+00  0.16465695995E+03  0.16465695995E+03  0.00000000000E+00 0. -1.
         21   -1    0    0  502  503 -0.00000000000E+00 -0.00000000000E+00 -0.32678490116E+03  0.32678490116E+03  0.00000000000E+00 0. -1.
          6    1    1    2  501    0 -0.12125086433E+02  0.15272284452E+03 -0.59690051580E+02  0.23866961938E+03  0.17300000000E+03 0. -1.
         -6    1    1    2    0  503  0.12125086433E+02 -0.15272284452E+03 -0.10243788963E+03  0.25277224173E+03  0.17300000000E+03 0. -1.
</event>
<event>
 4    1  0.3065897E+000  0.1000000E+03  0.7546771E-02  0.1280296E+00
         21   -1    0    0  503  502  0.00000000000E+00  0.00000000000E+00  0.46992344343E+03  0.46992344343E+03  0.00000000000E+00 0. -1.
         21   -1    0    0  501  503 -0.00000000000E+00 -0.00000000000E+00 -0.10110707581E+03  0.10110707581E+03  0.00000000000E+00 0. -1.
          6    1    1    2  501    0  0.88151175946E+02 -0.95989662221E+02  0.15235163940E+03  0.26481062498E+03  0.17300000000E+03 0. -1.
         -6    1    1    2    0  502 -0.88151175946E+02  0.95989662221E+02  0.21646472822E+03  0.30621989425E+03  0.17300000000E+03 0. -1.
</event>
<event>
 4    1  0.3065897E+000  0.1000000E+03  0.7546771E-02  0.1280296E+00
         21   -1    0    0  503  502  0.00000000000E+00  0.00000000000E+00  0.88597625120E+03  0.88597625120E+03  0.00000000000E+00 0. -1.
         21   -1    0    0  501  503 -0.00000000000E+00 -0.00000000000E+00 -0.23525675152E+03  0.23525675152E+03  0.00000000000E+00 0. -1.
          6    1    1    2  501    0 -0.35179166855E+03 -0.49617017602E+02  0.44579333433E+02  0.39766260003E+03  0.17300000000E+03 0. -1.
         -6    1    1    2    0  502  0.35179166855E+03  0.49617017602E+02  0.60614016625E+03  0.72357040268E+03  0.17300000000E+03 0. -1.
</event>
<event>
 4    1  0.3065897E+000  0.1000000E+03  0.7546771E-02  0.1280296E+00
         21   -1    0    0  503  502  0.00000000000E+00  0.00000000000E+00  0.46144014643E+03  0.46144014643E+03  0.00000000000E+00 0. -1.
         21   -1    0    0  501  503 -0.00000000000E+00 -0.00000000000E+00 -0.94051745457E+02  0.94051745457E+02  0.00000000000E+00 0. -1.
          6    1    1    2  501    0  0.49582012109E+01  0.11372790208E+03  0.15353739439E+03  0.25780099097E+03  0.17300000000E+03 0. -1.
         -6    1    1    2    0  502 -0.49582012109E+01 -0.11372790208E+03  0.21385100658E+03  0.29769090091E+03  0.17300000000E+03 0. -1.
</event>
<event>
 4    1  0.3065897E+000  0.1000000E+03  0.7546771E-02  0.1280296E+00
         21   -1    0    0  503  502  0.00000000000E+00  0.00000000000E+00  0.19276963164E+04  0.19276963164E+04  0.00000000000E+00 0. -1.
         21   -1    0    0  501  503 -0.00000000000E+00 -0.00000000000E+00 -0.10119586495E+03  0.10119586495E+03  0.00000000000E+00 0. -1.
          6    1    1    2  501    0 -0.49568152112E+02  0.29597588501E+03  0.28387281914E+03  0.44785210021E+03  0.17300000000E+03 0. -1.
         -6    1    1    2    0  502  0.49568152112E+02 -0.29597588501E+03  0.15426276323E+04  0.15810400811E+04  0.17300000000E+03 0. -1.
</event>
<event>
 4    1  0.3065897E+000  0.1000000E+03  0.7546771E-02  0.1280296E+00
         21   -1    0    0  503  502  0.00000000000E+00  0.00000000000E+00  0.57723600644E+03  0.57723600644E+03  0.00000000000E+00 0.  1.
         21   -1    0    0  501  503 -0.00000000000E+00 -0.00000000000E+00 -0.88494666813E+03  0.88494666813E+03  0.00000000000E+00 0.  1.
          6    1    1    2  501    0  0.37130069762E+03 -0.36629620117E+03 -0.62133299360E+03  0.82947019475E+03  0.17300000000E+03 0.  1.
         -6    1    1    2    0  502 -0.37130069762E+03  0.36629620117E+03  0.31362233191E+03  0.63271247982E+03  0.17300000000E+03 0.  1.
</event>
<event>
 4    1  0.3065897E+000  0.1000000E+03  0.7546771E-02  0.1280296E+00
         21   -1    0    0  503  502  0.00000000000E+00  0.00000000000E+00  0.43352997060E+03  0.43352997060E+03  0.00000000000E+00 0.  1.
         21   -1    0    0  501  503 -0.00000000000E+00 -0.00000000000E+00 -0.16875394560E+03  0.16875394560E+03  0.00000000000E+00 0. -1.
          6    1    1    2  501    0  0.50743164845E+02 -0.17010371694E+03  0.11853216780E+02  0.24815245726E+03  0.17300000000E+03 0. -1.
         -6    1    1    2    0  502 -0.50743164845E+02  0.17010371694E+03  0.25292280822E+03  0.35413145895E+03  0.17300000000E+03 0.  1.
</event>
<event>
 4    1  0.3065897E+000  0.1000000E+03  0.7546771E-02  0.1280296E+00
         21   -1    0    0  503  502  0.00000000000E+00  0.00000000000E+00  0.88108333219E+03  0.88108333219E+03  0.00000000000E+00 0.  1.
         21   -1    0    0  501  503 -0.00000000000E+00 -0.00000000000E+00 -0.77910865553E+02  0.77910865553E+02  0.00000000000E+00 0. -1.
          6    1    1    2  501    0 -0.15676621615E+02  0.16619050004E+03  0.21093839137E+03  0.31982658382E+03  0.17300000000E+03 0. -1.
         -6    1    1    2    0  502  0.15676621615E+02 -0.16619050004E+03  0.59223407527E+03  0.63916761392E+03  0.17300000000E+03 0.  1.
</event>
<event>
 4    1  0.3065897E+000  0.1000000E+03  0.7546771E-02  0.1280296E+00
         21   -1    0    0  501  502  0.00000000000E+00  0.00000000000E+00  0.30509472840E+03  0.30509472840E+03  0.00000000000E+00 0. -1.
         21   -1    0    0  502  503 -0.00000000000E+00 -0.00000000000E+00 -0.31078018592E+03  0.31078018592E+03  0.00000000000E+00 0.  1.
          6    1    1    2  501    0 -0.11587207882E+03 -0.47987394896E+02  0.21888561279E+03  0.30589056900E+03  0.17300000000E+03 0.  1.
         -6    1    1    2    0  503  0.11587207882E+03  0.47987394896E+02 -0.22457107031E+03  0.30998434532E+03  0.17300000000E+03 0. -1.
</event>
<event>
 4    1  0.3065897E+000  0.1000000E+03  0.7546771E-02  0.1280296E+00
         21   -1    0    0  501  502  0.00000000000E+00  0.00000000000E+00  0.15758288157E+03  0.15758288157E+03  0.00000000000E+00 0. -1.
         21   -1    0    0  502  503 -0.00000000000E+00 -0.00000000000E+00 -0.51277518060E+03  0.51277518060E+03  0.00000000000E+00 0.  1.
          6    1    1    2  501    0 -0.10110482461E+03  0.13235643885E+03  0.17513176251E+01  0.24015095165E+03  0.17300000000E+03 0.  1.
         -6    1    1    2    0  503  0.10110482461E+03 -0.13235643885E+03 -0.35694361666E+03  0.43020711051E+03  0.17300000000E+03 0. -1.
</event>
<event>
 4    1  0.3065897E+000  0.1000000E+03  0.7546771E-02  0.1280296E+00
         21   -1    0    0  501  502  0.00000000000E+00  0.00000000000E+00  0.66086670585E+02  0.66086670585E+02  0.00000000000E+00 0. -1.
         21   -1    0    0  502  503 -0.00000000000E+00 -0.00000000000E+00 -0.48147735645E+03  0.48147735645E+03  0.00000000000E+00 0.  1.
          6    1    1    2  501    0 -0.12954944240E+02  0.17392021154E+02 -0.26553055854E+03  0.31765671801E+03  0.17300000000E+03 0.  1.
         -6    1    1    2    0  503  0.12954944240E+02 -0.17392021154E+02 -0.14986012733E+03  0.22990730902E+03  0.17300000000E+03 0. -1.
</event>
<event>
 4    1  0.3065897E+000  0.1000000E+03  0.7546771E-02  0.1280296E+00
         21   -1    0    0  501  502  0.00000000000E+00  0.00000000000E+00  0.92978970494E+02  0.92978970494E+02  0.00000000000E+00 0. -1.
         21   -1    0    0  502  503 -0.00000000000E+00 -0.00000000000E+00 -0.23706731564E+04  0.23706731564E+04  0.00000000000E+00 0.  1.
          6    1    1    2  501    0  0.98832314190E+02 -0.41931094951E+03 -0.95510548404E+03  0.10619533814E+04  0.17300000000E+03 0.  1.
         -6    1    1    2    0  503 -0.98832314190E+02  0.41931094951E+03 -0.13225887019E+04  0.14016987455E+04  0.17300000000E+03 0. -1.
</event>
<event>
 4    1  0.3065897E+000  0.1000000E+03  0.7546771E-02  0.1280296E+00
         21   -1    0    0  503  502  0.00000000000E+00  0.00000000000E+00  0.63821661810E+03  0.63821661810E+03  0.00000000000E+00 0.  1.
         21   -1    0    0  501  503 -0.00000000000E+00 -0.00000000000E+00 -0.75090278985E+02  0.75090278985E+02  0.00000000000E+00 0.  1.
          6    1    1    2  501    0  0.54008167121E+02 -0.14252212434E+02  0.82863610668E+02  0.19978835213E+03  0.17300000000E+03 0.  1.
         -6    1    1    2    0  502 -0.54008167121E+02  0.14252212434E+02  0.48026272845E+03  0.51351854495E+03  0.17300000000E+03 0.  1.
</event>
<event>
 4    1  0.3065897E+000  0.1000000E+03  0.7546771E-02  0.1280296E+00
         21   -1    0    0  503  502  0.00000000000E+00  0.00000000000E+00  0.59103677266E+02  0.59103677266E+02  0.00000000000E+00 0.  1.
         21   -1    0    0  501  503 -0.00000000000E+00 -0.00000000000E+00 -0.76935931027E+03  0.76935931027E+03  0.00000000000E+00 0.  1.
          6    1    1    2  501    0  0.26402944492E+02  0.16025774597E+01 -0.59179399945E+03  0.61712950141E+03  0.17300000000E+03 0.  1.
         -6    1    1    2    0  502 -0.26402944492E+02 -0.16025774597E+01 -0.11846163356E+03  0.21133348613E+03  0.17300000000E+03 0.  1.
</event>
<event>
 4    1  0.3065897E+000  0.1000000E+03  0.7546771E-02  0.1280296E+00
         21   -1    0    0  501  502  0.00000000000E+00  0.00000000000E+00  0.39706639594E+03  0.39706639594E+03  0.00000000000E+00 0. -1.
         21   -1    0    0  502  503 -0.00000000000E+00 -0.00000000000E+00 -0.30398790406E+03  0.30398790406E+03  0.00000000000E+00 0.  1.
          6    1    1    2  501    0 -0.17002456373E+03  0.21913713863E+02  0.29651389553E+03  0.38371611039E+03  0.17300000000E+03 0. -1.
         -6    1    1    2    0  503  0.17002456373E+03 -0.21913713863E+02 -0.20343540365E+03  0.31733818961E+03  0.17300000000E+03 0.  1.
</event>
<event>
 4    1  0.3065897E+000  0.1000000E+03  0.7546771E-02  0.1280296E+00
         21   -1    0    0  503  502  0.00000000000E+00  0.00000000000E+00  0.31792459354E+03  0.31792459354E+03  0.00000000000E+00 0. -1.
         21   -1    0    0  501  503 -0.00000000000E+00 -0.00000000000E+00 -0.16160061662E+03  0.16160061662E+03  0.00000000000E+00 0. -1.
          6    1    1    2  501    0 -0.10919532911E+01  0.45149035742E+02  0.22552561948E+03  0.28780276724E+03  0.17300000000E+03 0. -1.
         -6    1    1    2    0  502  0.10919532911E+01 -0.45149035742E+02 -0.69201642555E+02  0.19172244293E+03  0.17300000000E+03 0. -1.
</event>
<event>
 4    1  0.3065897E+000  0.1000000E+03  0.7546771E-02  0.1280296E+00
         21   -1    0    0  503  502  0.00000000000E+00  0.00000000000E+00  0.41326159746E+03  0.41326159746E+03  0.00000000000E+00 0. -1.
         21   -1    0    0  501  503 -0.00000000000E+00 -0.00000000000E+00 -0.77033698998E+02  0.77033698998E+02  0.00000000000E+00 0. -1.
          6    1    1    2  501    0  0.82197757193E+01  0.13465965333E+02  0.11218216183E+03  0.20679152392E+03  0.17300000000E+03 0. -1.
         -6    1    1    2    0  502 -0.82197757193E+01 -0.13465965333E+02  0.22404573663E+03  0.28350377253E+03  0.17300000000E+03 0. -1.
</event>
<event>
 4    1  0.3065897E+000  0.1000000E+03  0.7546771E-02  0.1280296E+00
         21   -1    0    0  503  502  0.00000000000E+00  0.00000000000E+00  0.28012614760E+03  0.28012614760E+03  0.00000000000E+00 0. -1.
         21   -1    0    0  501  503 -0.00000000000E+00 -0.00000000000E+00 -0.40007213374E+03  0.40007213374E+03  0.00000000000E+00 0. -1.
          6    1    1    2  501    0  0.21186559667E+03 -0.38391396919E+02 -0.25214237300E+03  0.37398623861E+03  0.17300000000E+03 0. -1.
         -6    1    1    2    0  502 -0.21186559667E+03  0.38391396919E+02  0.13219638687E+03  0.30621204272E+03  0.17300000000E+03 0. -1.
</event>
<event>
 4    1  0.3065897E+000  0.1000000E+03  0.7546771E-02  0.1280296E+00
         21   -1    0    0  503  502  0.00000000000E+00  0.00000000000E+00  0.39814193836E+03  0.39814193836E+03  0.00000000000E+00 0. -1.
         21   -1    0    0  501  503 -0.00000000000E+00 -0.00000000000E+00 -0.82740129027E+03  0.82740129027E+03  0.00000000000E+00 0. -1.
          6    1    1    2  501    0 -0.28679044946E+03 -0.37952914939E+03 -0.50348878496E+03  0.71394754269E+03  0.17300000000E+03 0. -1.
         -6    1    1    2    0  502  0.28679044946E+03  0.37952914939E+03  0.74229433049E+02  0.51159568594E+03  0.17300000000E+03 0. -1.
</event>
<event>
 4    1  0.3065897E+000  0.1000000E+03  0.7546771E-02  0.1280296E+00
         21   -1    0    0  503  502  0.00000000000E+00  0.00000000000E+00  0.19640992878E+03  0.19640992878E+03  0.00000000000E+00 0. -1.
         21   -1    0    0  501  503 -0.00000000000E+00 -0.00000000000E+00 -0.21428948917E+03  0.21428948917E+03  0.00000000000E+00 0. -1.
          6    1    1    2  501    0 -0.28847498961E+02 -0.10042021739E+03 -0.44232069190E+02  0.20688613825E+03  0.17300000000E+03 0. -1.
         -6    1    1    2    0  502  0.28847498961E+02  0.10042021739E+03  0.26352508799E+02  0.20381327969E+03  0.17300000000E+03 0. -1.
</event>
<event>
 4    1  0.3065897E+000  0.1000000E+03  0.7546771E-02  0.1280296E+00
         21   -1    0    0  503  502  0.00000000000E+00  0.00000000000E+00  0.33131263194E+03  0.33131263194E+03  0.00000000000E+00 0. -1.
         21   -1    0    0  501  503 -0.00000000000E+00 -0.00000000000E+00 -0.12858601446E+03  0.12858601446E+03  0.00000000000E+00 0. -1.
          6    1    1    2  501    0  0.61108883109E+02  0.62214842348E+02  0.22050622748E+02  0.19498772312E+03  0.17300000000E+03 0. -1.
         -6    1    1    2    0  502 -0.61108883109E+02 -0.62214842348E+02  0.18067599473E+03  0.26491092328E+03  0.17300000000E+03 0. -1.
</event>
<event>
 4    1  0.3065897E+000  0.1000000E+03  0.7546771E-02  0.1280296E+00
         21   -1    0    0  503  502  0.00000000000E+00  0.00000000000E+00  0.31518584018E+03  0.31518584018E+03  0.00000000000E+00 0. -1.
         21   -1    0    0  501  503 -0.00000000000E+00 -0.00000000000E+00 -0.32363629309E+03  0.32363629309E+03  0.00000000000E+00 0. -1.
          6    1    1    2  501    0  0.12458077062E+02  0.95271422631E+02 -0.25493567316E+03  0.32272750906E+03  0.17300000000E+03 0. -1.
         -6    1    1    2    0  502 -0.12458077062E+02 -0.95271422631E+02  0.24648522025E+03  0.31609462421E+03  0.17300000000E+03 0. -1.
</event>
<event>
 4    1  0.3065897E+000  0.1000000E+03  0.7546771E-02  0.1280296E+00
         21   -1    0    0  503  502  0.00000000000E+00  0.00000000000E+00  0.43027331696E+03  0.43027331696E+03  0.00000000000E+00 0.  1.
         21   -1    0    0  501  503 -0.00000000000E+00 -0.00000000000E+00 -0.16599730256E+03  0.16599730256E+03  0.00000000000E+00 0. -1.
          6    1    1    2  501    0  0.81484054877E+02  0.31542564856E+02 -0.73137994332E+02  0.20715393024E+03  0.17300000000E+03 0. -1.
         -6    1    1    2    0  502 -0.81484054877E+02 -0.31542564856E+02  0.33741400872E+03  0.38911668929E+03  0.17300000000E+03 0.  1.
</event>
<event>
 4    1  0.3065897E+000  0.1000000E+03  0.7546771E-02  0.1280296E+00
         21   -1    0    0  503  502  0.00000000000E+00  0.00000000000E+00  0.40044517087E+02  0.40044517087E+02  0.00000000000E+00 0.  1.
         21   -1    0    0  501  503 -0.00000000000E+00 -0.00000000000E+00 -0.12057386614E+04  0.12057386614E+04  0.00000000000E+00 0. -1.
          6    1    1    2  501    0 -0.75686883274E+02  0.78141103712E+02 -0.81173752818E+03  0.83706711263E+03  0.17300000000E+03 0. -1.
         -6    1    1    2    0  502  0.75686883274E+02 -0.78141103712E+02 -0.35395661617E+03  0.40871606589E+03  0.17300000000E+03 0.  1.
</event>
<event>
 4    1  0.3065897E+000  0.1000000E+03  0.7546771E-02  0.1280296E+00
         21   -1    0    0  503  502  0.00000000000E+00  0.00000000000E+00  0.90311546739E+02  0.90311546739E+02  0.00000000000E+00 0.  1.
         21   -1    0    0  501  503 -0.00000000000E+00 -0.00000000000E+00 -0.37513602481E+03  0.37513602481E+03  0.00000000000E+00 0. -1.
          6    1    1    2  501    0  0.32004735556E+02 -0.47567216795E+02 -0.10985199511E+03  0.21279897566E+03  0.17300000000E+03 0. -1.
         -6    1    1    2    0  502 -0.32004735556E+02  0.47567216795E+02 -0.17497248296E+03  0.25264859589E+03  0.17300000000E+03 0.  1.
</event>
<event>
 4    1  0.3065897E+000  0.1000000E+03  0.7546771E-02  0.1280296E+00
         21   -1    0    0  501  502  0.00000000000E+00  0.00000000000E+00  0.28612780593E+02  0.28612780593E+02  0.00000000000E+00 0.  1.
         21   -1    0    0  502  503 -0.00000000000E+00 -0.00000000000E+00 -0.19279909251E+04  0.19279909251E+04  0.00000000000E+00 0.  1.
          6    1    1    2  501    0 -0.15184080871E+03  0.46624336788E+02 -0.96048770598E+03  0.98878465467E+03  0.17300000000E+03 0.  1.
         -6    1    1    2    0  503  0.15184080871E+03 -0.46624336788E+02 -0.93889043857E+03  0.96781905106E+03  0.17300000000E+03 0.  1.
</event>
<event>
 4    1  0.3065897E+000  0.1000000E+03  0.7546771E-02  0.1280296E+00
         21   -1    0    0  501  502  0.00000000000E+00  0.00000000000E+00  0.54235372412E+02  0.54235372412E+02  0.00000000000E+00 0.  1.
         21   -1    0    0  502  503 -0.00000000000E+00 -0.00000000000E+00 -0.64331018297E+03  0.64331018297E+03  0.00000000000E+00 0.  1.
          6    1    1    2  501    0  0.27791981716E+02 -0.55351115708E+02 -0.23190882824E+03  0.29588316085E+03  0.17300000000E+03 0.  1.
         -6    1    1    2    0  503 -0.27791981716E+02  0.55351115708E+02 -0.35716598231E+03  0.40166239453E+03  0.17300000000E+03 0.  1.
</event>
<event>
 4    1  0.3065897E+000  0.1000000E+03  0.7546771E-02  0.1280296E+00
         21   -1    0    0  501  502  0.00000000000E+00  0.00000000000E+00  0.71032792152E+02  0.71032792152E+02  0.00000000000E+00 0. -1.
         21   -1    0    0  502  503 -0.00000000000E+00 -0.00000000000E+00 -0.51483283384E+03  0.51483283384E+03  0.00000000000E+00 0. -1.
          6    1    1    2  501    0 -0.72153346569E+02  0.17775818701E+02 -0.17066031428E+03  0.25411813793E+03  0.17300000000E+03 0. -1.
         -6    1    1    2    0  503  0.72153346569E+02 -0.17775818701E+02 -0.27313972740E+03  0.33174748807E+03  0.17300000000E+03 0. -1.
</event>
<event>
 4    1  0.3065897E+000  0.1000000E+03  0.7546771E-02  0.1280296E+00
         21   -1    0    0  501  502  0.00000000000E+00  0.00000000000E+00  0.36405090819E+03  0.36405090819E+03  0.00000000000E+00 0. -1.
         21   -1    0    0  502  503 -0.00000000000E+00 -0.00000000000E+00 -0.19136469645E+03  0.19136469645E+03  0.00000000000E+00 0. -1.
          6    1    1    2  501    0 -0.12070194836E+03 -0.15609099193E+03  0.11617907664E+03  0.28698420854E+03  0.17300000000E+03 0. -1.
         -6    1    1    2    0  503  0.12070194836E+03  0.15609099193E+03  0.56507135098E+02  0.26843139611E+03  0.17300000000E+03 0. -1.
</event>
<event>
 4    1  0.3065897E+000  0.1000000E+03  0.7546771E-02  0.1280296E+00
         21   -1    0    0  503  502  0.00000000000E+00  0.00000000000E+00  0.95643862903E+02  0.95643862903E+02  0.00000000000E+00 0. -1.
         21   -1    0    0  501  503 -0.00000000000E+00 -0.00000000000E+00 -0.15663480090E+04  0.15663480090E+04  0.00000000000E+00 0.  1.
          6    1    1    2  501    0  0.19170080959E+03 -0.13652806709E+02 -0.13536908625E+04  0.13781667354E+04  0.17300000000E+03 0. -1.
         -6    1    1    2    0  502 -0.19170080959E+03  0.13652806709E+02 -0.11701328358E+03  0.28382513642E+03  0.17300000000E+03 0.  1.
</event>
<event>
 4    1  0.3065897E+000  0.1000000E+03  0.7546771E-02  0.1280296E+00
         21   -1    0    0  503  502  0.00000000000E+00  0.00000000000E+00  0.13861625084E+04  0.13861625084E+04  0.00000000000E+00 0. -1.
         21   -1    0    0  501  503 -0.00000000000E+00 -0.00000000000E+00 -0.31216305566E+02  0.31216305566E+02  0.00000000000E+00 0.  1.
          6    1    1    2  501    0  0.84144765003E+02 -0.73773813698E+02  0.57997677977E+03  0.61548759706E+03  0.17300000000E+03 0. -1.
         -6    1    1    2    0  502 -0.84144765003E+02  0.73773813698E+02  0.77496942306E+03  0.80189121690E+03  0.17300000000E+03 0.  1.
</event>
<event>
 4    1  0.3065897E+000  0.1000000E+03  0.7546771E-02  0.1280296E+00
         21   -1    0    0  503  502  0.00000000000E+00  0.00000000000E+00  0.55650253173E+03  0.55650253173E+03  0.00000000000E+00 0. -1.
         21   -1    0    0  501  503 -0.00000000000E+00 -0.00000000000E+00 -0.12434222672E+03  0.12434222672E+03  0.00000000000E+00 0.  1.
          6    1    1    2  501    0  0.48905271841E+02  0.17058328462E+03  0.10195223106E+03  0.26798067099E+03  0.17300000000E+03 0. -1.
         -6    1    1    2    0  502 -0.48905271841E+02 -0.17058328462E+03  0.33020807395E+03  0.41286408745E+03  0.17300000000E+03 0.  1.
</event>
<event>
 4    1  0.3065897E+000  0.1000000E+03  0.7546771E-02  0.1280296E+00
         21   -1    0    0  503  502  0.00000000000E+00  0.00000000000E+00  0.11259595640E+03  0.11259595640E+03  0.00000000000E+00 0. -1.
         21   -1    0    0  501  503 -0.00000000000E+00 -0.00000000000E+00 -0.33822233018E+03  0.33822233018E+03  0.00000000000E+00 0. -1.
          6    1    1    2  501    0  0.46042422551E+02  0.48249417705E+02 -0.18312619351E+03  0.26059952750E+03  0.17300000000E+03 0.  1.
         -6    1    1    2    0  502 -0.46042422551E+02 -0.48249417705E+02 -0.42500180273E+02  0.19021875908E+03  0.17300000000E+03 0.  1.
</event>
<event>
 4    1  0.3065897E+000  0.1000000E+03  0.7546771E-02  0.1280296E+00
         21   -1    0    0  503  502  0.00000000000E+00  0.00000000000E+00  0.16431283136E+03  0.16431283136E+03  0.00000000000E+00 0. -1.
         21   -1    0    0  501  503 -0.00000000000E+00 -0.00000000000E+00 -0.31578498873E+03  0.31578498873E+03  0.00000000000E+00 0. -1.
          6    1    1    2  501    0 -0.25969616018E+02 -0.18350767459E+02 -0.22825820245E+03  0.28817005154E+03  0.17300000000E+03 0.  1.
         -6    1    1    2    0  502  0.25969616018E+02  0.18350767459E+02  0.76786045077E+02  0.19192776855E+03  0.17300000000E+03 0.  1.
</event>
<event>
 4    1  0.3065897E+000  0.1000000E+03  0.7546771E-02  0.1280296E+00
         21   -1    0    0  503  502  0.00000000000E+00  0.00000000000E+00  0.34891158652E+03  0.34891158652E+03  0.00000000000E+00 0. -1.
         21   -1    0    0  501  503 -0.00000000000E+00 -0.00000000000E+00 -0.21863142388E+03  0.21863142388E+03  0.00000000000E+00 0. -1.
          6    1    1    2  501    0  0.15014349639E+03 -0.10789192243E+03 -0.48205722788E+02  0.25775284314E+03  0.17300000000E+03 0.  1.
         -6    1    1    2    0  502 -0.15014349639E+03  0.10789192243E+03  0.17848588543E+03  0.30979016727E+03  0.17300000000E+03 0.  1.
</event>
<event>
 4    1  0.3065897E+000  0.1000000E+03  0.7546771E-02  0.1280296E+00
         21   -1    0    0  503  502  0.00000000000E+00  0.00000000000E+00  0.28528147466E+03  0.28528147466E+03  0.00000000000E+00 0. -1.
         21   -1    0    0  501  503 -0.00000000000E+00 -0.00000000000E+00 -0.11415856465E+03  0.11415856465E+03  0.00000000000E+00 0.  1.
          6    1    1    2  501    0 -0.22330485853E+02 -0.14632791719E+02  0.36998123752E+02  0.17891514847E+03  0.17300000000E+03 0. -1.
         -6    1    1    2    0  502  0.22330485853E+02  0.14632791719E+02  0.13412478626E+03  0.22052489084E+03  0.17300000000E+03 0.  1.
</event>
<event>
 4    1  0.3065897E+000  0.1000000E+03  0.7546771E-02  0.1280296E+00
         21   -1    0    0  503  502  0.00000000000E+00  0.00000000000E+00  0.13889206015E+04  0.13889206015E+04  0.00000000000E+00 0. -1.
         21   -1    0    0  501  503 -0.00000000000E+00 -0.00000000000E+00 -0.72242132598E+02  0.72242132598E+02  0.00000000000E+00 0.  1.
          6    1    1    2  501    0 -0.11895425636E+03 -0.17346640159E+03  0.28523759303E+03  0.39437316347E+03  0.17300000000E+03 0. -1.
         -6    1    1    2    0  502  0.11895425636E+03  0.17346640159E+03  0.10314408758E+04  0.10667895706E+04  0.17300000000E+03 0.  1.
</event>
<event>
 4    1  0.3065897E+000  0.1000000E+03  0.7546771E-02  0.1280296E+00
         21   -1    0    0  503  502  0.00000000000E+00  0.00000000000E+00  0.78354750938E+02  0.78354750938E+02  0.00000000000E+00 0. -1.
         21   -1    0    0  501  503 -0.00000000000E+00 -0.00000000000E+00 -0.44489455566E+03  0.44489455566E+03  0.00000000000E+00 0.  1.
          6    1    1    2  501    0 -0.47260000313E+01  0.70046078104E+02 -0.18138264003E+03  0.26030261281E+03  0.17300000000E+03 0. -1.
         -6    1    1    2    0  502  0.47260000313E+01 -0.70046078104E+02 -0.18515716469E+03  0.26294669378E+03  0.17300000000E+03 0.  1.
</event>
<event>
 4    1  0.3065897E+000  0.1000000E+03  0.7546771E-02  0.1280296E+00
         21   -1    0    0  503  502  0.00000000000E+00  0.00000000000E+00  0.41065155658E+03  0.41065155658E+03  0.00000000000E+00 0. -1.
         21   -1    0    0  501  503 -0.00000000000E+00 -0.00000000000E+00 -0.11150454001E+03  0.11150454001E+03  0.00000000000E+00 0. -1.
          6    1    1    2  501    0 -0.53575810216E+02  0.10765970773E+03  0.10393001365E+03  0.23492855903E+03  0.17300000000E+03 0. -1.
         -6    1    1    2    0  502  0.53575810216E+02 -0.10765970773E+03  0.19521700291E+03  0.28722753756E+03  0.17300000000E+03 0. -1.
</event>
<event>
 4    1  0.3065897E+000  0.1000000E+03  0.7546771E-02  0.1280296E+00
         21   -1    0    0  503  502  0.00000000000E+00  0.00000000000E+00  0.37128646752E+03  0.37128646752E+03  0.00000000000E+00 0. -1.
         21   -1    0    0  501  503 -0.00000000000E+00 -0.00000000000E+00 -0.14403821372E+03  0.14403821372E+03  0.00000000000E+00 0. -1.
          6    1    1    2  501    0  0.76543749885E+02 -0.14524988587E+02 -0.33686704491E+02  0.19270110275E+03  0.17300000000E+03 0. -1.
         -6    1    1    2    0  502 -0.76543749885E+02  0.14524988587E+02  0.26093495829E+03  0.32262357849E+03  0.17300000000E+03 0. -1.
</event>
<event>
 4    1  0.3065897E+000  0.1000000E+03  0.7546771E-02  0.1280296E+00
         21   -1    0    0  503  502  0.00000000000E+00  0.00000000000E+00  0.44270711296E+02  0.44270711296E+02  0.00000000000E+00 0. -1.
         21   -1    0    0  501  503 -0.00000000000E+00 -0.00000000000E+00 -0.16906467811E+04  0.16906467811E+04  0.00000000000E+00 0. -1.
          6    1    1    2  501    0 -0.36075209716E+02 -0.14537241167E+03 -0.12986186904E+04  0.13186258233E+04  0.17300000000E+03 0. -1.
         -6    1    1    2    0  502  0.36075209716E+02  0.14537241167E+03 -0.34775737947E+03  0.41629166915E+03  0.17300000000E+03 0. -1.
</event>
<event>
 4    1  0.3065897E+000  0.1000000E+03  0.7546771E-02  0.1280296E+00
         21   -1    0    0  501  502  0.00000000000E+00  0.00000000000E+00  0.54620895337E+02  0.54620895337E+02  0.00000000000E+00 0.  1.
         21   -1    0    0  502  503 -0.00000000000E+00 -0.00000000000E+00 -0.62797154235E+03  0.62797154235E+03  0.00000000000E+00 0. -1.
          6    1    1    2  501    0 -0.63998023891E+02  0.14266835030E+02 -0.30232063418E+03  0.35443766094E+03  0.17300000000E+03 0.  1.
         -6    1    1    2    0  503  0.63998023891E+02 -0.14266835030E+02 -0.27103001283E+03  0.32815477674E+03  0.17300000000E+03 0. -1.
</event>
<event>
 4    1  0.3065897E+000  0.1000000E+03  0.7546771E-02  0.1280296E+00
         21   -1    0    0  501  502  0.00000000000E+00  0.00000000000E+00  0.12998345622E+04  0.12998345622E+04  0.00000000000E+00 0.  1.
         21   -1    0    0  502  503 -0.00000000000E+00 -0.00000000000E+00 -0.41720437333E+02  0.41720437333E+02  0.00000000000E+00 0. -1.
          6    1    1    2  501    0 -0.86068247533E+02  0.11888658848E+03  0.47776080822E+03  0.52889143879E+03  0.17300000000E+03 0.  1.
         -6    1    1    2    0  503  0.86068247533E+02 -0.11888658848E+03  0.78035331661E+03  0.81266356070E+03  0.17300000000E+03 0. -1.
</event>
<event>
 4    1  0.3065897E+000  0.1000000E+03  0.7546771E-02  0.1280296E+00
         21   -1    0    0  501  502  0.00000000000E+00  0.00000000000E+00  0.67870489242E+03  0.67870489242E+03  0.00000000000E+00 0.  1.
         21   -1    0    0  502  503 -0.00000000000E+00 -0.00000000000E+00 -0.12946032284E+03  0.12946032284E+03  0.00000000000E+00 0. -1.
          6    1    1    2  501    0 -0.20325252153E+03  0.11026498265E+03  0.18351771514E+03  0.34216619599E+03  0.17300000000E+03 0.  1.
         -6    1    1    2    0  503  0.20325252153E+03 -0.11026498265E+03  0.36572685443E+03  0.46599901927E+03  0.17300000000E+03 0. -1.
</event>
<event>
 4    1  0.3065897E+000  0.1000000E+03  0.7546771E-02  0.1280296E+00
         21   -1    0    0  501  502  0.00000000000E+00  0.00000000000E+00  0.10769593325E+03  0.10769593325E+03  0.00000000000E+00 0.  1.
         21   -1    0    0  502  503 -0.00000000000E+00 -0.00000000000E+00 -0.33698939489E+03  0.33698939489E+03  0.00000000000E+00 0. -1.
          6    1    1    2  501    0  0.14407969894E+02  0.76790879645E+02 -0.13342822734E+03  0.23202698258E+03  0.17300000000E+03 0.  1.
         -6    1    1    2    0  503 -0.14407969894E+02 -0.76790879645E+02 -0.95865234297E+02  0.21265834557E+03  0.17300000000E+03 0. -1.
</event>
<event>
 4    1  0.3065897E+000  0.1000000E+03  0.7546771E-02  0.1280296E+00
         21   -1    0    0  501  502  0.00000000000E+00  0.00000000000E+00  0.87057779108E+03  0.87057779108E+03  0.00000000000E+00 0.  1.
         21   -1    0    0  502  503 -0.00000000000E+00 -0.00000000000E+00 -0.18916314295E+03  0.18916314295E+03  0.00000000000E+00 0. -1.
          6    1    1    2  501    0  0.13507253318E+03 -0.17880920145E+03  0.72034185880E+03  0.77397591260E+03  0.17300000000E+03 0.  1.
         -6    1    1    2    0  503 -0.13507253318E+03  0.17880920145E+03 -0.38927210671E+02  0.28576502143E+03  0.17300000000E+03 0. -1.
</event>
<event>
 4    1  0.3065897E+000  0.1000000E+03  0.7546771E-02  0.1280296E+00
         21   -1    0    0  503  502  0.00000000000E+00  0.00000000000E+00  0.29126116663E+03  0.29126116663E+03  0.00000000000E+00 0. -1.
         21   -1    0    0  501  503 -0.00000000000E+00 -0.00000000000E+00 -0.17398832396E+03  0.17398832396E+03  0.00000000000E+00 0. -1.
          6    1    1    2  501    0  0.12175895146E+03  0.70572180858E+02  0.26930957799E+02  0.22463292604E+03  0.17300000000E+03 0. -1.
         -6    1    1    2    0  502 -0.12175895146E+03 -0.70572180858E+02  0.90341884871E+02  0.24061656455E+03  0.17300000000E+03 0. -1.
</event>
<event>
 4    1  0.3065897E+000  0.1000000E+03  0.7546771E-02  0.1280296E+00
         21   -1    0    0  503  502  0.00000000000E+00  0.00000000000E+00  0.15754161385E+04  0.15754161385E+04  0.00000000000E+00 0. -1.
         21   -1    0    0  501  503 -0.00000000000E+00 -0.00000000000E+00 -0.29164346389E+03  0.29164346389E+03  0.00000000000E+00 0. -1.
          6    1    1    2  501    0 -0.51171695240E+03 -0.30194438289E+03  0.26094978390E+03  0.67160139923E+03  0.17300000000E+03 0. -1.
         -6    1    1    2    0  502  0.51171695240E+03  0.30194438289E+03  0.10228228907E+04  0.11954582032E+04  0.17300000000E+03 0. -1.
</event>
<event>
 4    1  0.3065897E+000  0.1000000E+03  0.7546771E-02  0.1280296E+00
         21   -1    0    0  503  502  0.00000000000E+00  0.00000000000E+00  0.61953206637E+02  0.61953206637E+02  0.00000000000E+00 0. -1.
         21   -1    0    0  501  503 -0.00000000000E+00 -0.00000000000E+00 -0.63130468614E+03  0.63130468614E+03  0.00000000000E+00 0.  1.
          6    1    1    2  501    0  0.39872516761E+02 -0.78647847302E+02 -0.35042152426E+03  0.40062394605E+03  0.17300000000E+03 0.  1.
         -6    1    1    2    0  502 -0.39872516761E+02  0.78647847302E+02 -0.21892995524E+03  0.29263394673E+03  0.17300000000E+03 0.  1.
</event>
<event>
 4    1  0.3065897E+000  0.1000000E+03  0.7546771E-02  0.1280296E+00
         21   -1    0    0  501  502  0.00000000000E+00  0.00000000000E+00  0.11446875731E+04  0.11446875731E+04  0.00000000000E+00 0. -1.
         21   -1    0    0  502  503 -0.00000000000E+00 -0.00000000000E+00 -0.12438406320E+03  0.12438406320E+03  0.00000000000E+00 0. -1.
          6    1    1    2  501    0 -0.44207224237E+02 -0.13339293710E+03  0.10221628567E+04  0.10461806058E+04  0.17300000000E+03 0. -1.
         -6    1    1    2    0  503  0.44207224237E+02  0.13339293710E+03 -0.18593467215E+01  0.22289103058E+03  0.17300000000E+03 0. -1.
</event>
<event>
 4    1  0.3065897E+000  0.1000000E+03  0.7546771E-02  0.1280296E+00
         21   -1    0    0  501  502  0.00000000000E+00  0.00000000000E+00  0.24726900357E+03  0.24726900357E+03  0.00000000000E+00 0. -1.
         21   -1    0    0  502  503 -0.00000000000E+00 -0.00000000000E+00 -0.18723230477E+03  0.18723230477E+03  0.00000000000E+00 0. -1.
          6    1    1    2  501    0 -0.11721212832E+03  0.15455185252E+02  0.79381509248E+02  0.22407134977E+03  0.17300000000E+03 0. -1.
         -6    1    1    2    0  503  0.11721212832E+03 -0.15455185252E+02 -0.19344810451E+02  0.21042995858E+03  0.17300000000E+03 0. -1.
</event>
<event>
 4    1  0.3065897E+000  0.1000000E+03  0.7546771E-02  0.1280296E+00
         21   -1    0    0  501  502  0.00000000000E+00  0.00000000000E+00  0.34046782297E+03  0.34046782297E+03  0.00000000000E+00 0. -1.
         21   -1    0    0  502  503 -0.00000000000E+00 -0.00000000000E+00 -0.32605750609E+03  0.32605750609E+03  0.00000000000E+00 0. -1.
          6    1    1    2  501    0 -0.17805826851E+03  0.22127776622E+03  0.27569005980E+02  0.33370293211E+03  0.17300000000E+03 0. -1.
         -6    1    1    2    0  503  0.17805826851E+03 -0.22127776622E+03 -0.13158689095E+02  0.33282239695E+03  0.17300000000E+03 0. -1.
</event>
<event>
 4    1  0.3065897E+000  0.1000000E+03  0.7546771E-02  0.1280296E+00
         21   -1    0    0  501  502  0.00000000000E+00  0.00000000000E+00  0.30970324247E+03  0.30970324247E+03  0.00000000000E+00 0. -1.
         21   -1    0    0  502  503 -0.00000000000E+00 -0.00000000000E+00 -0.20356558320E+03  0.20356558320E+03  0.00000000000E+00 0. -1.
          6    1    1    2  501    0  0.43182411547E+02 -0.17386154715E+03  0.20372072708E+02  0.24987312699E+03  0.17300000000E+03 0. -1.
         -6    1    1    2    0  503 -0.43182411547E+02  0.17386154715E+03  0.85765586566E+02  0.26339569868E+03  0.17300000000E+03 0. -1.
</event>
<event>
 4    1  0.3065897E+000  0.1000000E+03  0.7546771E-02  0.1280296E+00
         21   -1    0    0  503  502  0.00000000000E+00  0.00000000000E+00  0.11263351300E+03  0.11263351300E+03  0.00000000000E+00 0.  1.
         21   -1    0    0  501  503 -0.00000000000E+00 -0.00000000000E+00 -0.56615536903E+03  0.56615536903E+03  0.00000000000E+00 0.  1.
          6    1    1    2  501    0 -0.40760712497E+02  0.30808074485E+02 -0.46426913544E+03  0.49808172348E+03  0.17300000000E+03 0. -1.
         -6    1    1    2    0  502  0.40760712497E+02 -0.30808074485E+02  0.10747279413E+02  0.18070715855E+03  0.17300000000E+03 0. -1.
</event>
<event>
 4    1  0.3065897E+000  0.1000000E+03  0.7546771E-02  0.1280296E+00
         21   -1    0    0  501  502  0.00000000000E+00  0.00000000000E+00  0.59475764254E+03  0.59475764254E+03  0.00000000000E+00 0.  1.
         21   -1    0    0  502  503 -0.00000000000E+00 -0.00000000000E+00 -0.14491309461E+03  0.14491309461E+03  0.00000000000E+00 0. -1.
          6    1    1    2  501    0 -0.87664448335E+02 -0.12635391320E+03  0.45240689591E+03  0.50818438224E+03  0.17300000000E+03 0.  1.
         -6    1    1    2    0  503  0.87664448335E+02  0.12635391320E+03 -0.25623479770E+01  0.23148635491E+03  0.17300000000E+03 0. -1.
</event>
<event>
 4    1  0.3065897E+000  0.1000000E+03  0.7546771E-02  0.1280296E+00
         21   -1    0    0  501  502  0.00000000000E+00  0.00000000000E+00  0.71858475036E+02  0.71858475036E+02  0.00000000000E+00 0.  1.
         21   -1    0    0  502  503 -0.00000000000E+00 -0.00000000000E+00 -0.10945158471E+04  0.10945158471E+04  0.00000000000E+00 0.  1.
          6    1    1    2  501    0  0.72865109450E+02 -0.59729425301E+02 -0.96239813529E+02  0.21924422485E+03  0.17300000000E+03 0.  1.
         -6    1    1    2    0  503 -0.72865109450E+02  0.59729425301E+02 -0.92641755853E+03  0.94713009728E+03  0.17300000000E+03 0.  1.
</event>
<event>
 4    1  0.3065897E+000  0.1000000E+03  0.7546771E-02  0.1280296E+00
         21   -1    0    0  501  502  0.00000000000E+00  0.00000000000E+00  0.94577517469E+03  0.94577517469E+03  0.00000000000E+00 0.  1.
         21   -1    0    0  502  503 -0.00000000000E+00 -0.00000000000E+00 -0.61611052027E+03  0.61611052027E+03  0.00000000000E+00 0.  1.
          6    1    1    2  501    0 -0.91652824211E+02 -0.64918876565E+01  0.91962448436E+03  0.94025559133E+03  0.17300000000E+03 0.  1.
         -6    1    1    2    0  503  0.91652824211E+02  0.64918876565E+01 -0.58995982995E+03  0.62163010363E+03  0.17300000000E+03 0.  1.
</event>
<event>
 4    1  0.3065897E+000  0.1000000E+03  0.7546771E-02  0.1280296E+00
         21   -1    0    0  501  502  0.00000000000E+00  0.00000000000E+00  0.17780869604E+03  0.17780869604E+03  0.00000000000E+00 0.  1.
         21   -1    0    0  502  503 -0.00000000000E+00 -0.00000000000E+00 -0.34064798084E+03  0.34064798084E+03  0.00000000000E+00 0.  1.
          6    1    1    2  501    0  0.61707273465E+02 -0.54212817887E+02  0.81397726982E+02  0.20808990168E+03  0.17300000000E+03 0.  1.
         -6    1    1    2    0  503 -0.61707273465E+02  0.54212817887E+02 -0.24423701178E+03  0.31036677520E+03  0.17300000000E+03 0.  1.
</event>
<event>
 4    1  0.3065897E+000  0.1000000E+03  0.7546771E-02  0.1280296E+00
         21   -1    0    0  501  502  0.00000000000E+00  0.00000000000E+00  0.43866958786E+03  0.43866958786E+03  0.00000000000E+00 0.  1.
         21   -1    0    0  502  503 -0.00000000000E+00 -0.00000000000E+00 -0.17058813201E+03  0.17058813201E+03  0.00000000000E+00 0.  1.
          6    1    1    2  501    0  0.49320585218E+02 -0.98585764372E+02  0.33557140717E+03  0.39330502460E+03  0.17300000000E+03 0.  1.
         -6    1    1    2    0  503 -0.49320585218E+02  0.98585764372E+02 -0.67489951324E+02  0.21595269527E+03  0.17300000000E+03 0.  1.
</event>
<event>
 4    1  0.3065897E+000  0.1000000E+03  0.7546771E-02  0.1280296E+00
         21   -1    0    0  501  502  0.00000000000E+00  0.00000000000E+00  0.17325644833E+03  0.17325644833E+03  0.00000000000E+00 0. -1.
         21   -1    0    0  502  503 -0.00000000000E+00 -0.00000000000E+00 -0.30676908120E+03  0.30676908120E+03  0.00000000000E+00 0. -1.
          6    1    1    2  501    0  0.13597224107E+03 -0.14774615732E+02  0.31898227470E+01  0.22055818865E+03  0.17300000000E+03 0. -1.
         -6    1    1    2    0  503 -0.13597224107E+03  0.14774615732E+02 -0.13670245561E+03  0.25946734088E+03  0.17300000000E+03 0. -1.
</event>
<event>
 4    1  0.3065897E+000  0.1000000E+03  0.7546771E-02  0.1280296E+00
         21   -1    0    0  503  502  0.00000000000E+00  0.00000000000E+00  0.16963619797E+03  0.16963619797E+03  0.00000000000E+00 0.  1.
         21   -1    0    0  501  503 -0.00000000000E+00 -0.00000000000E+00 -0.81480963249E+03  0.81480963249E+03  0.00000000000E+00 0. -1.
          6    1    1    2  501    0  0.16635459720E+03 -0.24046883702E+02 -0.69715267719E+03  0.73770113185E+03  0.17300000000E+03 0. -1.
         -6    1    1    2    0  502 -0.16635459720E+03  0.24046883702E+02  0.51979242665E+02  0.24674469861E+03  0.17300000000E+03 0.  1.
</event>
<event>
 4    1  0.3065897E+000  0.1000000E+03  0.7546771E-02  0.1280296E+00
         21   -1    0    0  503  502  0.00000000000E+00  0.00000000000E+00  0.34192609086E+03  0.34192609086E+03  0.00000000000E+00 0.  1.
         21   -1    0    0  501  503 -0.00000000000E+00 -0.00000000000E+00 -0.16954651454E+03  0.16954651454E+03  0.00000000000E+00 0. -1.
          6    1    1    2  501    0 -0.60897229233E+02  0.19343021752E+02 -0.78221658124E+02  0.20032536739E+03  0.17300000000E+03 0. -1.
         -6    1    1    2    0  502  0.60897229233E+02 -0.19343021752E+02  0.25060123444E+03  0.31114723801E+03  0.17300000000E+03 0.  1.
</event>
<event>
 4    1  0.3065897E+000  0.1000000E+03  0.7546771E-02  0.1280296E+00
         21   -1    0    0  501  502  0.00000000000E+00  0.00000000000E+00  0.30321165349E+03  0.30321165349E+03  0.00000000000E+00 0. -1.
         21   -1    0    0  502  503 -0.00000000000E+00 -0.00000000000E+00 -0.17279471504E+03  0.17279471504E+03  0.00000000000E+00 0. -1.
          6    1    1    2  501    0  0.93712997925E+02 -0.11678143096E+03  0.58284494439E+02  0.23610614327E+03  0.17300000000E+03 0. -1.
         -6    1    1    2    0  503 -0.93712997925E+02  0.11678143096E+03  0.72132444017E+02  0.23990022526E+03  0.17300000000E+03 0. -1.
</event>
<event>
 4    1  0.3065897E+000  0.1000000E+03  0.7546771E-02  0.1280296E+00
         21   -1    0    0  501  502  0.00000000000E+00  0.00000000000E+00  0.11569122709E+04  0.11569122709E+04  0.00000000000E+00 0. -1.
         21   -1    0    0  502  503 -0.00000000000E+00 -0.00000000000E+00 -0.68777035120E+02  0.68777035120E+02  0.00000000000E+00 0.  1.
          6    1    1    2  501    0 -0.89951137651E+02 -0.84992979336E+02  0.94658405768E+03  0.97018832808E+03  0.17300000000E+03 0. -1.
         -6    1    1    2    0  503  0.89951137651E+02  0.84992979336E+02  0.14155117809E+03  0.25550097792E+03  0.17300000000E+03 0.  1.
</event>
<event>
 4    1  0.3065897E+000  0.1000000E+03  0.7546771E-02  0.1280296E+00
         21   -1    0    0  501  502  0.00000000000E+00  0.00000000000E+00  0.37993252899E+03  0.37993252899E+03  0.00000000000E+00 0. -1.
         21   -1    0    0  502  503 -0.00000000000E+00 -0.00000000000E+00 -0.37827506670E+03  0.37827506670E+03  0.00000000000E+00 0.  1.
          6    1    1    2  501    0  0.17910058132E+03  0.74260823860E+02  0.27686981267E+03  0.37970723111E+03  0.17300000000E+03 0. -1.
         -6    1    1    2    0  503 -0.17910058132E+03 -0.74260823860E+02 -0.27521235037E+03  0.37850036458E+03  0.17300000000E+03 0.  1.
</event>
<event>
 4    1  0.3065897E+000  0.1000000E+03  0.7546771E-02  0.1280296E+00
         21   -1    0    0  503  502  0.00000000000E+00  0.00000000000E+00  0.19181163613E+03  0.19181163613E+03  0.00000000000E+00 0. -1.
         21   -1    0    0  501  503 -0.00000000000E+00 -0.00000000000E+00 -0.48907563574E+03  0.48907563574E+03  0.00000000000E+00 0. -1.
          6    1    1    2  501    0 -0.40806019201E+02  0.36227698768E+02 -0.42294222686E+03  0.46020289506E+03  0.17300000000E+03 0. -1.
         -6    1    1    2    0  502  0.40806019201E+02 -0.36227698768E+02  0.12567822725E+03  0.22068437681E+03  0.17300000000E+03 0. -1.
</event>
<event>
 4    1  0.3065897E+000  0.1000000E+03  0.7546771E-02  0.1280296E+00
         21   -1    0    0  503  502  0.00000000000E+00  0.00000000000E+00  0.12900595467E+03  0.12900595467E+03  0.00000000000E+00 0. -1.
         21   -1    0    0  501  503 -0.00000000000E+00 -0.00000000000E+00 -0.63141335954E+03  0.63141335954E+03  0.00000000000E+00 0. -1.
          6    1    1    2  501    0 -0.50477593463E+02 -0.21994400497E+03 -0.21847091948E+03  0.35858317783E+03  0.17300000000E+03 0. -1.
         -6    1    1    2    0  502  0.50477593463E+02  0.21994400497E+03 -0.28393648539E+03  0.40183613638E+03  0.17300000000E+03 0. -1.
</event>
<event>
 4    1  0.3065897E+000  0.1000000E+03  0.7546771E-02  0.1280296E+00
         21   -1    0    0  503  502  0.00000000000E+00  0.00000000000E+00  0.13822824151E+03  0.13822824151E+03  0.00000000000E+00 0. -1.
         21   -1    0    0  501  503 -0.00000000000E+00 -0.00000000000E+00 -0.55790805927E+03  0.55790805927E+03  0.00000000000E+00 0. -1.
          6    1    1    2  501    0  0.57817429172E+02  0.20916452767E+03 -0.19749580101E+03  0.34062625584E+03  0.17300000000E+03 0. -1.
         -6    1    1    2    0  502 -0.57817429172E+02 -0.20916452767E+03 -0.22218401675E+03  0.35551004493E+03  0.17300000000E+03 0. -1.
</event>
<event>
 4    1  0.3065897E+000  0.1000000E+03  0.7546771E-02  0.1280296E+00
         21   -1    0    0  503  502  0.00000000000E+00  0.00000000000E+00  0.12258653837E+03  0.12258653837E+03  0.00000000000E+00 0. -1.
         21   -1    0    0  501  503 -0.00000000000E+00 -0.00000000000E+00 -0.37109158700E+03  0.37109158700E+03  0.00000000000E+00 0. -1.
          6    1    1    2  501    0 -0.95805070726E+02  0.78726754369E+02 -0.14000731603E+03  0.25476962530E+03  0.17300000000E+03 0. -1.
         -6    1    1    2    0  502  0.95805070726E+02 -0.78726754369E+02 -0.10849773260E+03  0.23890850008E+03  0.17300000000E+03 0. -1.
</event>
<event>
 4    1  0.3065897E+000  0.1000000E+03  0.7546771E-02  0.1280296E+00
         21   -1    0    0  503  502  0.00000000000E+00  0.00000000000E+00  0.33556572006E+02  0.33556572006E+02  0.00000000000E+00 0. -1.
         21   -1    0    0  501  503 -0.00000000000E+00 -0.00000000000E+00 -0.12800367353E+04  0.12800367353E+04  0.00000000000E+00 0. -1.
          6    1    1    2  501    0  0.28498742618E+02 -0.63083795978E+02 -0.91078610974E+03  0.92965159137E+03  0.17300000000E+03 0. -1.
         -6    1    1    2    0  502 -0.28498742618E+02  0.63083795978E+02 -0.33569405359E+03  0.38394171597E+03  0.17300000000E+03 0. -1.
</event>
<event>
 4    1  0.3065897E+000  0.1000000E+03  0.7546771E-02  0.1280296E+00
         21   -1    0    0  503  502  0.00000000000E+00  0.00000000000E+00  0.43508569228E+02  0.43508569228E+02  0.00000000000E+00 0. -1.
         21   -1    0    0  501  503 -0.00000000000E+00 -0.00000000000E+00 -0.18419531047E+04  0.18419531047E+04  0.00000000000E+00 0. -1.
          6    1    1    2  501    0  0.14630723869E+03 -0.13128878266E+03 -0.12574115074E+04  0.12843890576E+04  0.17300000000E+03 0. -1.
         -6    1    1    2    0  502 -0.14630723869E+03  0.13128878266E+03 -0.54103302814E+03  0.60107261631E+03  0.17300000000E+03 0. -1.
</event>
<event>
 4    1  0.3065897E+000  0.1000000E+03  0.7546771E-02  0.1280296E+00
         21   -1    0    0  503  502  0.00000000000E+00  0.00000000000E+00  0.42821351606E+03  0.42821351606E+03  0.00000000000E+00 0. -1.
         21   -1    0    0  501  503 -0.00000000000E+00 -0.00000000000E+00 -0.33467528775E+03  0.33467528775E+03  0.00000000000E+00 0. -1.
          6    1    1    2  501    0 -0.12083696783E+03 -0.51637834334E+02 -0.26561275785E+03  0.34314308366E+03  0.17300000000E+03 0. -1.
         -6    1    1    2    0  502  0.12083696783E+03  0.51637834334E+02  0.35915098616E+03  0.41974572016E+03  0.17300000000E+03 0. -1.
</event>
<event>
 4    1  0.3065897E+000  0.1000000E+03  0.7546771E-02  0.1280296E+00
         21   -1    0    0  503  502  0.00000000000E+00  0.00000000000E+00  0.18930790902E+04  0.18930790902E+04  0.00000000000E+00 0. -1.
         21   -1    0    0  501  503 -0.00000000000E+00 -0.00000000000E+00 -0.20377079290E+02  0.20377079290E+02  0.00000000000E+00 0. -1.
          6    1    1    2  501    0 -0.33132162747E+02 -0.37983284691E+02  0.55571497974E+03  0.58419911745E+03  0.17300000000E+03 0. -1.
         -6    1    1    2    0  502  0.33132162747E+02  0.37983284691E+02  0.13169870312E+04  0.13292570520E+04  0.17300000000E+03 0. -1.
</event>
<event>
 4    1  0.3065897E+000  0.1000000E+03  0.7546771E-02  0.1280296E+00
         21   -1    0    0  503  502  0.00000000000E+00  0.00000000000E+00  0.46996573002E+03  0.46996573002E+03  0.00000000000E+00 0. -1.
         21   -1    0    0  501  503 -0.00000000000E+00 -0.00000000000E+00 -0.73094190612E+02  0.73094190612E+02  0.00000000000E+00 0. -1.
          6    1    1    2  501    0  0.24549994184E+02  0.57733840542E+02  0.16611006546E+03  0.24790613628E+03  0.17300000000E+03 0. -1.
         -6    1    1    2    0  502 -0.24549994184E+02 -0.57733840542E+02  0.23076147395E+03  0.29515378435E+03  0.17300000000E+03 0. -1.
</event>
<event>
 4    1  0.3065897E+000  0.1000000E+03  0.7546771E-02  0.1280296E+00
         21   -1    0    0  503  502  0.00000000000E+00  0.00000000000E+00  0.29356793619E+04  0.29356793619E+04  0.00000000000E+00 0.  1.
         21   -1    0    0  501  503 -0.00000000000E+00 -0.00000000000E+00 -0.47197956778E+02  0.47197956778E+02  0.00000000000E+00 0.  1.
          6    1    1    2  501    0 -0.10647953891E+03 -0.64380055551E+02  0.22139267632E+03  0.30728879069E+03  0.17300000000E+03 0.  1.
         -6    1    1    2    0  502  0.10647953891E+03  0.64380055551E+02  0.26670887288E+04  0.26755885279E+04  0.17300000000E+03 0.  1.
</event>
<event>
 4    1  0.3065897E+000  0.1000000E+03  0.7546771E-02  0.1280296E+00
         21   -1    0    0  503  502  0.00000000000E+00  0.00000000000E+00  0.20335827794E+04  0.20335827794E+04  0.00000000000E+00 0.  1.
         21   -1    0    0  501  503 -0.00000000000E+00 -0.00000000000E+00 -0.15024991103E+02  0.15024991103E+02  0.00000000000E+00 0.  1.
          6    1    1    2  501    0 -0.21615125651E+02 -0.10691613219E+02  0.97039147691E+03  0.98598688770E+03  0.17300000000E+03 0.  1.
         -6    1    1    2    0  502  0.21615125651E+02  0.10691613219E+02  0.10481663114E+04  0.10626208828E+04  0.17300000000E+03 0.  1.
</event>
<event>
 4    1  0.3065897E+000  0.1000000E+03  0.7546771E-02  0.1280296E+00
         21   -1    0    0  503  502  0.00000000000E+00  0.00000000000E+00  0.19087657948E+04  0.19087657948E+04  0.00000000000E+00 0.  1.
         21   -1    0    0  501  503 -0.00000000000E+00 -0.00000000000E+00 -0.49292647451E+03  0.49292647451E+03  0.00000000000E+00 0.  1.
          6    1    1    2  501    0 -0.58336525669E+03 -0.30987001876E+02 -0.22648351280E+03  0.64999922967E+03  0.17300000000E+03 0.  1.
         -6    1    1    2    0  502  0.58336525669E+03  0.30987001876E+02  0.16423228331E+04  0.17516930396E+04  0.17300000000E+03 0.  1.
</event>
<event>
 4    1  0.3065897E+000  0.1000000E+03  0.7546771E-02  0.1280296E+00
         21   -1    0    0  501  502  0.00000000000E+00  0.00000000000E+00  0.48246069363E+03  0.48246069363E+03  0.00000000000E+00 0.  1.
         21   -1    0    0  502  503 -0.00000000000E+00 -0.00000000000E+00 -0.15508948248E+03  0.15508948248E+03  0.00000000000E+00 0.  1.
          6    1    1    2  501    0  0.16277199474E+03  0.44129937236E+02  0.31316803079E+03  0.39553178019E+03  0.17300000000E+03 0.  1.
         -6    1    1    2    0  503 -0.16277199474E+03 -0.44129937236E+02  0.14203180360E+02  0.24201839592E+03  0.17300000000E+03 0.  1.
</event>
<event>
 4    1  0.3065897E+000  0.1000000E+03  0.7546771E-02  0.1280296E+00
         21   -1    0    0  501  502  0.00000000000E+00  0.00000000000E+00  0.29799581636E+03  0.29799581636E+03  0.00000000000E+00 0.  1.
         21   -1    0    0  502  503 -0.00000000000E+00 -0.00000000000E+00 -0.13643192554E+03  0.13643192554E+03  0.00000000000E+00 0.  1.
          6    1    1    2  501    0  0.92425339579E+02 -0.24693042537E+02  0.12353412940E+03  0.23311342920E+03  0.17300000000E+03 0.  1.
         -6    1    1    2    0  503 -0.92425339579E+02  0.24693042537E+02  0.38029761413E+02  0.20131431270E+03  0.17300000000E+03 0.  1.
</event>
<event>
 4    1  0.3065897E+000  0.1000000E+03  0.7546771E-02  0.1280296E+00
         21   -1    0    0  501  502  0.00000000000E+00  0.00000000000E+00  0.41806820406E+03  0.41806820406E+03  0.00000000000E+00 0.  1.
         21   -1    0    0  502  503 -0.00000000000E+00 -0.00000000000E+00 -0.12656289961E+03  0.12656289961E+03  0.00000000000E+00 0.  1.
          6    1    1    2  501    0 -0.38865769641E+02  0.14425392585E+03  0.11526586266E+03  0.25599797317E+03  0.17300000000E+03 0.  1.
         -6    1    1    2    0  503  0.38865769641E+02 -0.14425392585E+03  0.17623944179E+03  0.28863313049E+03  0.17300000000E+03 0.  1.
</event>
<event>
 4    1  0.3065897E+000  0.1000000E+03  0.7546771E-02  0.1280296E+00
         21   -1    0    0  501  502  0.00000000000E+00  0.00000000000E+00  0.51197242218E+02  0.51197242218E+02  0.00000000000E+00 0.  1.
         21   -1    0    0  502  503 -0.00000000000E+00 -0.00000000000E+00 -0.13789794344E+04  0.13789794344E+04  0.00000000000E+00 0.  1.
          6    1    1    2  501    0  0.27826150541E+02  0.12012477686E+03 -0.23441030334E+03  0.31635651879E+03  0.17300000000E+03 0.  1.
         -6    1    1    2    0  503 -0.27826150541E+02 -0.12012477686E+03 -0.10933718889E+04  0.11138201579E+04  0.17300000000E+03 0.  1.
</event>
<event>
 4    1  0.3065897E+000  0.1000000E+03  0.7546771E-02  0.1280296E+00
         21   -1    0    0  501  502  0.00000000000E+00  0.00000000000E+00  0.16019937324E+04  0.16019937324E+04  0.00000000000E+00 0.  1.
         21   -1    0    0  502  503 -0.00000000000E+00 -0.00000000000E+00 -0.30825198380E+02  0.30825198380E+02  0.00000000000E+00 0. -1.
          6    1    1    2  501    0  0.88387761421E+02  0.93276201616E+02  0.98478597828E+03  0.10080899113E+04  0.17300000000E+03 0.  1.
         -6    1    1    2    0  503 -0.88387761421E+02 -0.93276201616E+02  0.58638255570E+03  0.62472901948E+03  0.17300000000E+03 0. -1.
</event>
<event>
 4    1  0.3065897E+000  0.1000000E+03  0.7546771E-02  0.1280296E+00
         21   -1    0    0  501  502  0.00000000000E+00  0.00000000000E+00  0.15378062977E+03  0.15378062977E+03  0.00000000000E+00 0.  1.
         21   -1    0    0  502  503 -0.00000000000E+00 -0.00000000000E+00 -0.28454034518E+03  0.28454034518E+03  0.00000000000E+00 0. -1.
          6    1    1    2  501    0 -0.52079917513E+02  0.22162039883E+02  0.42611767657E+02  0.18694447454E+03  0.17300000000E+03 0. -1.
         -6    1    1    2    0  503  0.52079917513E+02 -0.22162039883E+02 -0.17337148307E+03  0.25137650041E+03  0.17300000000E+03 0.  1.
</event>
<event>
 4    1  0.3065897E+000  0.1000000E+03  0.7546771E-02  0.1280296E+00
         21   -1    0    0  501  502  0.00000000000E+00  0.00000000000E+00  0.13309846652E+03  0.13309846652E+03  0.00000000000E+00 0.  1.
         21   -1    0    0  502  503 -0.00000000000E+00 -0.00000000000E+00 -0.25933149404E+03  0.25933149404E+03  0.00000000000E+00 0. -1.
          6    1    1    2  501    0 -0.56337620146E+02 -0.29419762425E+02 -0.87843850557E+02  0.20416902788E+03  0.17300000000E+03 0. -1.
         -6    1    1    2    0  503  0.56337620146E+02  0.29419762425E+02 -0.38389176972E+02  0.18826093268E+03  0.17300000000E+03 0.  1.
</event>
<event>
 4    1  0.3065897E+000  0.1000000E+03  0.7546771E-02  0.1280296E+00
         21   -1    0    0  503  502  0.00000000000E+00  0.00000000000E+00  0.78806763410E+02  0.78806763410E+02  0.00000000000E+00 0. -1.
         21   -1    0    0  501  503 -0.00000000000E+00 -0.00000000000E+00 -0.19056200445E+04  0.19056200445E+04  0.00000000000E+00 0. -1.
          6    1    1    2  501    0 -0.24597067610E+03  0.23700655343E+03 -0.10664539984E+04  0.11331049424E+04  0.17300000000E+03 0.  1.
         -6    1    1    2    0  502  0.24597067610E+03 -0.23700655343E+03 -0.76035928276E+03  0.85132186555E+03  0.17300000000E+03 0.  1.
</event>
<event>
 4    1  0.3065897E+000  0.1000000E+03  0.7546771E-02  0.1280296E+00
         21   -1    0    0  503  502  0.00000000000E+00  0.00000000000E+00  0.44280740726E+02  0.44280740726E+02  0.00000000000E+00 0. -1.
         21   -1    0    0  501  503 -0.00000000000E+00 -0.00000000000E+00 -0.15611335565E+04  0.15611335565E+04  0.00000000000E+00 0.  1.
          6    1    1    2  501    0 -0.15720061999E+03  0.84314410003E+02 -0.10206699152E+04  0.10504841886E+04  0.17300000000E+03 0. -1.
         -6    1    1    2    0  502  0.15720061999E+03 -0.84314410003E+02 -0.49618290054E+03  0.55493010861E+03  0.17300000000E+03 0.  1.
</event>
<event>
 4    1  0.3065897E+000  0.1000000E+03  0.7546771E-02  0.1280296E+00
         21   -1    0    0  503  502  0.00000000000E+00  0.00000000000E+00  0.51769740995E+03  0.51769740995E+03  0.00000000000E+00 0.  1.
         21   -1    0    0  501  503 -0.00000000000E+00 -0.00000000000E+00 -0.77977897417E+02  0.77977897417E+02  0.00000000000E+00 0.  1.
          6    1    1    2  501    0  0.90143489209E+02  0.48069111324E+02  0.21709944030E+03  0.29580002551E+03  0.17300000000E+03 0.  1.
         -6    1    1    2    0  502 -0.90143489209E+02 -0.48069111324E+02  0.22262007223E+03  0.29987528186E+03  0.17300000000E+03 0.  1.
</event>
<event>
 4    1  0.3065897E+000  0.1000000E+03  0.7546771E-02  0.1280296E+00
         21   -1    0    0  501  502  0.00000000000E+00  0.00000000000E+00  0.16436454070E+03  0.16436454070E+03  0.00000000000E+00 0. -1.
         21   -1    0    0  502  503 -0.00000000000E+00 -0.00000000000E+00 -0.22233911293E+03  0.22233911293E+03  0.00000000000E+00 0. -1.
          6    1    1    2  501    0  0.11745995971E+02  0.43061911838E+02  0.39785335845E+02  0.18304144236E+03  0.17300000000E+03 0. -1.
         -6    1    1    2    0  503 -0.11745995971E+02 -0.43061911838E+02 -0.97759908082E+02  0.20366221127E+03  0.17300000000E+03 0. -1.
</event>
<event>
 4    1  0.3065897E+000  0.1000000E+03  0.7546771E-02  0.1280296E+00
         21   -1    0    0  501  502  0.00000000000E+00  0.00000000000E+00  0.33318914766E+03  0.33318914766E+03  0.00000000000E+00 0. -1.
         21   -1    0    0  502  503 -0.00000000000E+00 -0.00000000000E+00 -0.18994316681E+03  0.18994316681E+03  0.00000000000E+00 0. -1.
          6    1    1    2  501    0  0.10836053194E+03 -0.22851363259E+01  0.22447088581E+03  0.30341952031E+03  0.17300000000E+03 0. -1.
         -6    1    1    2    0  503 -0.10836053194E+03  0.22851363259E+01 -0.81224904963E+02  0.21971279416E+03  0.17300000000E+03 0. -1.
</event>
<event>
 4    1  0.3065897E+000  0.1000000E+03  0.7546771E-02  0.1280296E+00
         21   -1    0    0  501  502  0.00000000000E+00  0.00000000000E+00  0.29589878174E+02  0.29589878174E+02  0.00000000000E+00 0.  1.
         21   -1    0    0  502  503 -0.00000000000E+00 -0.00000000000E+00 -0.27625841669E+04  0.27625841669E+04  0.00000000000E+00 0.  1.
          6    1    1    2  501    0  0.99365730952E+02 -0.74119762300E+02 -0.43427067271E+03  0.48361896657E+03  0.17300000000E+03 0.  1.
         -6    1    1    2    0  503 -0.99365730952E+02  0.74119762300E+02 -0.22987236161E+04  0.23085550785E+04  0.17300000000E+03 0.  1.
</event>
<event>
 4    1  0.3065897E+000  0.1000000E+03  0.7546771E-02  0.1280296E+00
         21   -1    0    0  501  502  0.00000000000E+00  0.00000000000E+00  0.69226786007E+03  0.69226786007E+03  0.00000000000E+00 0. -1.
         21   -1    0    0  502  503 -0.00000000000E+00 -0.00000000000E+00 -0.13077235966E+03  0.13077235966E+03  0.00000000000E+00 0.  1.
          6    1    1    2  501    0 -0.16572579828E+03 -0.18163507524E+03  0.29716950628E+03  0.42272338028E+03  0.17300000000E+03 0. -1.
         -6    1    1    2    0  503  0.16572579828E+03  0.18163507524E+03  0.26432599413E+03  0.40031683945E+03  0.17300000000E+03 0.  1.
</event>
<event>
 4    1  0.3065897E+000  0.1000000E+03  0.7546771E-02  0.1280296E+00
         21   -1    0    0  501  502  0.00000000000E+00  0.00000000000E+00  0.82844383625E+02  0.82844383625E+02  0.00000000000E+00 0. -1.
         21   -1    0    0  502  503 -0.00000000000E+00 -0.00000000000E+00 -0.61424975204E+03  0.61424975204E+03  0.00000000000E+00 0. -1.
          6    1    1    2  501    0  0.77928409551E+02  0.11362420675E+03 -0.19703950940E+03  0.29620409457E+03  0.17300000000E+03 0. -1.
         -6    1    1    2    0  503 -0.77928409551E+02 -0.11362420675E+03 -0.33436585901E+03  0.40089004109E+03  0.17300000000E+03 0. -1.
</event>
<event>
 4    1  0.3065897E+000  0.1000000E+03  0.7546771E-02  0.1280296E+00
         21   -1    0    0  501  502  0.00000000000E+00  0.00000000000E+00  0.12564306570E+03  0.12564306570E+03  0.00000000000E+00 0. -1.
         21   -1    0    0  502  503 -0.00000000000E+00 -0.00000000000E+00 -0.90941792288E+03  0.90941792288E+03  0.00000000000E+00 0. -1.
          6    1    1    2  501    0 -0.15927088229E+03  0.21731689901E+03 -0.22600349940E+03  0.39191890779E+03  0.17300000000E+03 0. -1.
         -6    1    1    2    0  503  0.15927088229E+03 -0.21731689901E+03 -0.55777135777E+03  0.64314208080E+03  0.17300000000E+03 0. -1.
</event>
<event>
 4    1  0.3065897E+000  0.1000000E+03  0.7546771E-02  0.1280296E+00
         21   -1    0    0  501  502  0.00000000000E+00  0.00000000000E+00  0.66265847775E+03  0.66265847775E+03  0.00000000000E+00 0.  1.
         21   -1    0    0  502  503 -0.00000000000E+00 -0.00000000000E+00 -0.55998730100E+02  0.55998730100E+02  0.00000000000E+00 0.  1.
          6    1    1    2  501    0  0.51093006502E+02  0.15528633016E+02  0.42603743264E+03  0.46291308878E+03  0.17300000000E+03 0. -1.
         -6    1    1    2    0  503 -0.51093006502E+02 -0.15528633016E+02  0.18062231501E+03  0.25574411906E+03  0.17300000000E+03 0. -1.
</event>
<event>
 4    1  0.3065897E+000  0.1000000E+03  0.7546771E-02  0.1280296E+00
         21   -1    0    0  503  502  0.00000000000E+00  0.00000000000E+00  0.84354126223E+03  0.84354126223E+03  0.00000000000E+00 0. -1.
         21   -1    0    0  501  503 -0.00000000000E+00 -0.00000000000E+00 -0.93240074260E+02  0.93240074260E+02  0.00000000000E+00 0. -1.
          6    1    1    2  501    0 -0.12659268399E+01  0.11806537756E+03  0.63670801182E+02  0.21891552451E+03  0.17300000000E+03 0. -1.
         -6    1    1    2    0  502  0.12659268399E+01 -0.11806537756E+03  0.68663038679E+03  0.71786581198E+03  0.17300000000E+03 0. -1.
</event>
<event>
 4    1  0.3065897E+000  0.1000000E+03  0.7546771E-02  0.1280296E+00
         21   -1    0    0  503  502  0.00000000000E+00  0.00000000000E+00  0.27999426722E+02  0.27999426722E+02  0.00000000000E+00 0. -1.
         21   -1    0    0  501  503 -0.00000000000E+00 -0.00000000000E+00 -0.21767735392E+04  0.21767735392E+04  0.00000000000E+00 0. -1.
          6    1    1    2  501    0 -0.47883914217E+02 -0.92441107775E+01 -0.18300836134E+04  0.18388891633E+04  0.17300000000E+03 0. -1.
         -6    1    1    2    0  502  0.47883914217E+02  0.92441107775E+01 -0.31869049905E+03  0.36588380261E+03  0.17300000000E+03 0. -1.
</event>
<event>
 4    1  0.3065897E+000  0.1000000E+03  0.7546771E-02  0.1280296E+00
         21   -1    0    0  503  502  0.00000000000E+00  0.00000000000E+00  0.24783303220E+03  0.24783303220E+03  0.00000000000E+00 0. -1.
         21   -1    0    0  501  503 -0.00000000000E+00 -0.00000000000E+00 -0.20391608559E+03  0.20391608559E+03  0.00000000000E+00 0. -1.
          6    1    1    2  501    0 -0.24687618686E+02  0.16349083227E+02  0.16309538432E+03  0.23959523248E+03  0.17300000000E+03 0. -1.
         -6    1    1    2    0  502  0.24687618686E+02 -0.16349083227E+02 -0.11917843772E+03  0.21215388532E+03  0.17300000000E+03 0. -1.
</event>
<event>
 4    1  0.3065897E+000  0.1000000E+03  0.7546771E-02  0.1280296E+00
         21   -1    0    0  503  502  0.00000000000E+00  0.00000000000E+00  0.16745767831E+03  0.16745767831E+03  0.00000000000E+00 0.  1.
         21   -1    0    0  501  503 -0.00000000000E+00 -0.00000000000E+00 -0.69421391268E+03  0.69421391268E+03  0.00000000000E+00 0.  1.
          6    1    1    2  501    0 -0.17483047660E+03 -0.23244169181E+02 -0.56030319698E+03  0.61235174491E+03  0.17300000000E+03 0.  1.
         -6    1    1    2    0  502  0.17483047660E+03  0.23244169181E+02  0.33546962616E+02  0.24931984608E+03  0.17300000000E+03 0.  1.
</event>
<event>
 4    1  0.3065897E+000  0.1000000E+03  0.7546771E-02  0.1280296E+00
         21   -1    0    0  503  502  0.00000000000E+00  0.00000000000E+00  0.32477306962E+03  0.32477306962E+03  0.00000000000E+00 0.  1.
         21   -1    0    0  501  503 -0.00000000000E+00 -0.00000000000E+00 -0.23492888187E+03  0.23492888187E+03  0.00000000000E+00 0.  1.
          6    1    1    2  501    0 -0.35807887803E+02 -0.12370980524E+03 -0.12992349601E+03  0.25178450222E+03  0.17300000000E+03 0.  1.
         -6    1    1    2    0  502  0.35807887803E+02  0.12370980524E+03  0.21976768375E+03  0.30791744927E+03  0.17300000000E+03 0.  1.
</event>
<event>
 4    1  0.3065897E+000  0.1000000E+03  0.7546771E-02  0.1280296E+00
         21   -1    0    0  503  502  0.00000000000E+00  0.00000000000E+00  0.25007286103E+03  0.25007286103E+03  0.00000000000E+00 0.  1.
         21   -1    0    0  501  503 -0.00000000000E+00 -0.00000000000E+00 -0.42598643042E+03  0.42598643042E+03  0.00000000000E+00 0.  1.
          6    1    1    2  501    0  0.67554113613E+02 -0.16362988332E+03 -0.30829131942E+03  0.39536165041E+03  0.17300000000E+03 0.  1.
         -6    1    1    2    0  502 -0.67554113613E+02  0.16362988332E+03  0.13237775003E+03  0.28069764104E+03  0.17300000000E+03 0.  1.
</event>
<event>
 4    1  0.3065897E+000  0.1000000E+03  0.7546771E-02  0.1280296E+00
         21   -1    0    0  503  502  0.00000000000E+00  0.00000000000E+00  0.89447918513E+02  0.89447918513E+02  0.00000000000E+00 0.  1.
         21   -1    0    0  501  503 -0.00000000000E+00 -0.00000000000E+00 -0.49249703569E+03  0.49249703569E+03  0.00000000000E+00 0.  1.
          6    1    1    2  501    0 -0.37296259127E+02  0.51251529539E+02 -0.34089057087E+03  0.38749595034E+03  0.17300000000E+03 0.  1.
         -6    1    1    2    0  502  0.37296259127E+02 -0.51251529539E+02 -0.62158546315E+02  0.19444900387E+03  0.17300000000E+03 0.  1.
</event>
<event>
 4    1  0.3065897E+000  0.1000000E+03  0.7546771E-02  0.1280296E+00
         21   -1    0    0  501  502  0.00000000000E+00  0.00000000000E+00  0.21935475700E+03  0.21935475700E+03  0.00000000000E+00 0. -1.
         21   -1    0    0  502  503 -0.00000000000E+00 -0.00000000000E+00 -0.18486559364E+03  0.18486559364E+03  0.00000000000E+00 0. -1.
          6    1    1    2  501    0  0.83931875071E+02  0.58982482937E+02  0.72757356318E+01  0.20125960667E+03  0.17300000000E+03 0. -1.
         -6    1    1    2    0  503 -0.83931875071E+02 -0.58982482937E+02  0.27213427721E+02  0.20296074397E+03  0.17300000000E+03 0. -1.
</event>
<event>
 4    1  0.3065897E+000  0.1000000E+03  0.7546771E-02  0.1280296E+00
         21   -1    0    0  501  502  0.00000000000E+00  0.00000000000E+00  0.69566202539E+02  0.69566202539E+02  0.00000000000E+00 0. -1.
         21   -1    0    0  502  503 -0.00000000000E+00 -0.00000000000E+00 -0.88656208143E+03  0.88656208143E+03  0.00000000000E+00 0. -1.
          6    1    1    2  501    0  0.12483076990E+03  0.10985519767E+03 -0.28531442299E+03  0.37280585501E+03  0.17300000000E+03 0. -1.
         -6    1    1    2    0  503 -0.12483076990E+03 -0.10985519767E+03 -0.53168145590E+03  0.58332242895E+03  0.17300000000E+03 0. -1.
</event>
<event>
 4    1  0.3065897E+000  0.1000000E+03  0.7546771E-02  0.1280296E+00
         21   -1    0    0  501  502  0.00000000000E+00  0.00000000000E+00  0.69304609192E+03  0.69304609192E+03  0.00000000000E+00 0. -1.
         21   -1    0    0  502  503 -0.00000000000E+00 -0.00000000000E+00 -0.30342640491E+03  0.30342640491E+03  0.00000000000E+00 0. -1.
          6    1    1    2  501    0 -0.16110878770E+03 -0.75256423538E+02  0.61383619711E+03  0.66207510725E+03  0.17300000000E+03 0. -1.
         -6    1    1    2    0  503  0.16110878770E+03  0.75256423538E+02 -0.22421651010E+03  0.33439738958E+03  0.17300000000E+03 0. -1.
</event>
<event>
 4    1  0.3065897E+000  0.1000000E+03  0.7546771E-02  0.1280296E+00
         21   -1    0    0  503  502  0.00000000000E+00  0.00000000000E+00  0.76326291751E+03  0.76326291751E+03  0.00000000000E+00 0.  1.
         21   -1    0    0  501  503 -0.00000000000E+00 -0.00000000000E+00 -0.13725433585E+03  0.13725433585E+03  0.00000000000E+00 0.  1.
          6    1    1    2  501    0 -0.15115350275E+03  0.68353422769E+02  0.10417330866E+02  0.23991059289E+03  0.17300000000E+03 0.  1.
         -6    1    1    2    0  502  0.15115350275E+03 -0.68353422769E+02  0.61559125080E+03  0.66060666047E+03  0.17300000000E+03 0.  1.
</event>
<event>
 4    1  0.3065897E+000  0.1000000E+03  0.7546771E-02  0.1280296E+00
         21   -1    0    0  503  502  0.00000000000E+00  0.00000000000E+00  0.57673831378E+03  0.57673831378E+03  0.00000000000E+00 0. -1.
         21   -1    0    0  501  503 -0.00000000000E+00 -0.00000000000E+00 -0.10481306368E+04  0.10481306368E+04  0.00000000000E+00 0.  1.
          6    1    1    2  501    0  0.30304701086E+03  0.37101116097E+03 -0.84953160636E+03  0.99051487750E+03  0.17300000000E+03 0.  1.
         -6    1    1    2    0  502 -0.30304701086E+03 -0.37101116097E+03  0.37813928338E+03  0.63435407304E+03  0.17300000000E+03 0. -1.
</event>
<event>
 4    1  0.3065897E+000  0.1000000E+03  0.7546771E-02  0.1280296E+00
         21   -1    0    0  503  502  0.00000000000E+00  0.00000000000E+00  0.80097863662E+03  0.80097863662E+03  0.00000000000E+00 0. -1.
         21   -1    0    0  501  503 -0.00000000000E+00 -0.00000000000E+00 -0.17138372809E+03  0.17138372809E+03  0.00000000000E+00 0.  1.
          6    1    1    2  501    0  0.14418685891E+03 -0.11908399766E+03 -0.38220458387E+02  0.25760561372E+03  0.17300000000E+03 0.  1.
         -6    1    1    2    0  502 -0.14418685891E+03  0.11908399766E+03  0.66781536692E+03  0.71475675098E+03  0.17300000000E+03 0. -1.
</event>
<event>
 4    1  0.3065897E+000  0.1000000E+03  0.7546771E-02  0.1280296E+00
         21   -1    0    0  503  502  0.00000000000E+00  0.00000000000E+00  0.14433528899E+03  0.14433528899E+03  0.00000000000E+00 0. -1.
         21   -1    0    0  501  503 -0.00000000000E+00 -0.00000000000E+00 -0.31436229542E+03  0.31436229542E+03  0.00000000000E+00 0. -1.
          6    1    1    2  501    0  0.48111662589E+02  0.11191159074E+03 -0.11151076541E+03  0.23917062324E+03  0.17300000000E+03 0. -1.
         -6    1    1    2    0  502 -0.48111662589E+02 -0.11191159074E+03 -0.58516241017E+02  0.21952696117E+03  0.17300000000E+03 0. -1.
</event>
<event>
 4    1  0.3065897E+000  0.1000000E+03  0.7546771E-02  0.1280296E+00
         21   -1    0    0  503  502  0.00000000000E+00  0.00000000000E+00  0.19018499724E+03  0.19018499724E+03  0.00000000000E+00 0. -1.
         21   -1    0    0  501  503 -0.00000000000E+00 -0.00000000000E+00 -0.17745952729E+03  0.17745952729E+03  0.00000000000E+00 0. -1.
          6    1    1    2  501    0  0.19159508964E+02  0.91143014530E+01 -0.51732239311E+02  0.18181139089E+03  0.17300000000E+03 0. -1.
         -6    1    1    2    0  502 -0.19159508964E+02 -0.91143014530E+01  0.64457709261E+02  0.18583313364E+03  0.17300000000E+03 0. -1.
</event>
<event>
 4    1  0.3065897E+000  0.1000000E+03  0.7546771E-02  0.1280296E+00
         21   -1    0    0  503  502  0.00000000000E+00  0.00000000000E+00  0.31616138238E+03  0.31616138238E+03  0.00000000000E+00 0. -1.
         21   -1    0    0  501  503 -0.00000000000E+00 -0.00000000000E+00 -0.53340737108E+03  0.53340737108E+03  0.00000000000E+00 0. -1.
          6    1    1    2  501    0 -0.26622019223E+03 -0.14183243716E+03 -0.33459459364E+03  0.48256830923E+03  0.17300000000E+03 0. -1.
         -6    1    1    2    0  502  0.26622019223E+03  0.14183243716E+03  0.11734860494E+03  0.36700044423E+03  0.17300000000E+03 0. -1.
</event>
<event>
 4    1  0.3065897E+000  0.1000000E+03  0.7546771E-02  0.1280296E+00
         21   -1    0    0  501  502  0.00000000000E+00  0.00000000000E+00  0.17378044607E+04  0.17378044607E+04  0.00000000000E+00 0. -1.
         21   -1    0    0  502  503 -0.00000000000E+00 -0.00000000000E+00 -0.19775275041E+02  0.19775275041E+02  0.00000000000E+00 0.  1.
          6    1    1    2  501    0  0.46016871894E+02  0.33907317461E+02  0.10211159909E+04  0.10372435228E+04  0.17300000000E+03 0. -1.
         -6    1    1    2    0  503 -0.46016871894E+02 -0.33907317461E+02  0.69691319480E+03  0.72033621300E+03  0.17300000000E+03 0.  1.
</event>
<event>
 4    1  0.3065897E+000  0.1000000E+03  0.7546771E-02  0.1280296E+00
         21   -1    0    0  501  502  0.00000000000E+00  0.00000000000E+00  0.36201620303E+03  0.36201620303E+03  0.00000000000E+00 0. -1.
         21   -1    0    0  502  503 -0.00000000000E+00 -0.00000000000E+00 -0.59716278172E+03  0.59716278172E+03  0.00000000000E+00 0.  1.
          6    1    1    2  501    0 -0.22967221603E+02  0.58555805886E+02  0.32282886942E+03  0.37162313518E+03  0.17300000000E+03 0. -1.
         -6    1    1    2    0  503  0.22967221603E+02 -0.58555805886E+02 -0.55797544810E+03  0.58755584957E+03  0.17300000000E+03 0.  1.
</event>
<event>
 4    1  0.3065897E+000  0.1000000E+03  0.7546771E-02  0.1280296E+00
         21   -1    0    0  503  502  0.00000000000E+00  0.00000000000E+00  0.24585173982E+03  0.24585173982E+03  0.00000000000E+00 0.  1.
         21   -1    0    0  501  503 -0.00000000000E+00 -0.00000000000E+00 -0.15208277501E+03  0.15208277501E+03  0.00000000000E+00 0.  1.
          6    1    1    2  501    0 -0.74393652538E+02  0.15144563751E+02  0.89273288614E+02  0.20895572117E+03  0.17300000000E+03 0. -1.
         -6    1    1    2    0  502  0.74393652538E+02 -0.15144563751E+02  0.44956761968E+01  0.18897879366E+03  0.17300000000E+03 0. -1.
</event>
<event>
 4    1  0.3065897E+000  0.1000000E+03  0.7546771E-02  0.1280296E+00
         21   -1    0    0  503  502  0.00000000000E+00  0.00000000000E+00  0.40178271120E+03  0.40178271120E+03  0.00000000000E+00 0.  1.
         21   -1    0    0  501  503 -0.00000000000E+00 -0.00000000000E+00 -0.94677330473E+02  0.94677330473E+02  0.00000000000E+00 0.  1.
          6    1    1    2  501    0  0.42733610762E+01 -0.60846844371E+02  0.69224340914E+02  0.19606531937E+03  0.17300000000E+03 0.  1.
         -6    1    1    2    0  502 -0.42733610762E+01  0.60846844371E+02  0.23788103981E+03  0.30039472230E+03  0.17300000000E+03 0.  1.
</event>
<event>
 4    1  0.3065897E+000  0.1000000E+03  0.7546771E-02  0.1280296E+00
         21   -1    0    0  503  502  0.00000000000E+00  0.00000000000E+00  0.49637277806E+03  0.49637277806E+03  0.00000000000E+00 0.  1.
         21   -1    0    0  501  503 -0.00000000000E+00 -0.00000000000E+00 -0.31028130711E+03  0.31028130711E+03  0.00000000000E+00 0.  1.
          6    1    1    2  501    0 -0.54351445211E+02 -0.32567397683E+03  0.21920282424E+03  0.43243091579E+03  0.17300000000E+03 0.  1.
         -6    1    1    2    0  502  0.54351445211E+02  0.32567397683E+03 -0.33111353291E+02  0.37422316938E+03  0.17300000000E+03 0.  1.
</event>
<event>
 4    1  0.3065897E+000  0.1000000E+03  0.7546771E-02  0.1280296E+00
         21   -1    0    0  501  502  0.00000000000E+00  0.00000000000E+00  0.14521239941E+04  0.14521239941E+04  0.00000000000E+00 0.  1.
         21   -1    0    0  502  503 -0.00000000000E+00 -0.00000000000E+00 -0.70363532664E+02  0.70363532664E+02  0.00000000000E+00 0.  1.
          6    1    1    2  501    0  0.12088491602E+03  0.23031047062E+03  0.85225115721E+03  0.90769879958E+03  0.17300000000E+03 0.  1.
         -6    1    1    2    0  503 -0.12088491602E+03 -0.23031047062E+03  0.52950930420E+03  0.61478872715E+03  0.17300000000E+03 0.  1.
</event>
<event>
 4    1  0.3065897E+000  0.1000000E+03  0.7546771E-02  0.1280296E+00
         21   -1    0    0  503  502  0.00000000000E+00  0.00000000000E+00  0.21710161617E+04  0.21710161617E+04  0.00000000000E+00 0.  1.
         21   -1    0    0  501  503 -0.00000000000E+00 -0.00000000000E+00 -0.27805716425E+02  0.27805716425E+02  0.00000000000E+00 0. -1.
          6    1    1    2  501    0 -0.59183757513E+02 -0.81486628910E+02  0.43414272769E+03  0.47807080631E+03  0.17300000000E+03 0. -1.
         -6    1    1    2    0  502  0.59183757513E+02  0.81486628910E+02  0.17090677176E+04  0.17207510718E+04  0.17300000000E+03 0.  1.
</event>
<event>
 4    1  0.3065897E+000  0.1000000E+03  0.7546771E-02  0.1280296E+00
         21   -1    0    0  503  502  0.00000000000E+00  0.00000000000E+00  0.44000264656E+03  0.44000264656E+03  0.00000000000E+00 0.  1.
         21   -1    0    0  501  503 -0.00000000000E+00 -0.00000000000E+00 -0.92066625115E+02  0.92066625115E+02  0.00000000000E+00 0. -1.
          6    1    1    2  501    0 -0.23371405349E+02 -0.46398042267E+02  0.56622775842E+02  0.18929907464E+03  0.17300000000E+03 0.  1.
         -6    1    1    2    0  502  0.23371405349E+02  0.46398042267E+02  0.29131324560E+03  0.34277019704E+03  0.17300000000E+03 0.  1.
</event>
<event>
 4    1  0.3065897E+000  0.1000000E+03  0.7546771E-02  0.1280296E+00
         21   -1    0    0  503  502  0.00000000000E+00  0.00000000000E+00  0.41785711454E+03  0.41785711454E+03  0.00000000000E+00 0. -1.
         21   -1    0    0  501  503 -0.00000000000E+00 -0.00000000000E+00 -0.41159848168E+03  0.41159848168E+03  0.00000000000E+00 0. -1.
          6    1    1    2  501    0  0.38052810657E+02  0.11960466544E+03 -0.35227784880E+03  0.41204608377E+03  0.17300000000E+03 0. -1.
         -6    1    1    2    0  502 -0.38052810657E+02 -0.11960466544E+03  0.35853648166E+03  0.41740951244E+03  0.17300000000E+03 0. -1.
</event>
<event>
 4    1  0.3065897E+000  0.1000000E+03  0.7546771E-02  0.1280296E+00
         21   -1    0    0  503  502  0.00000000000E+00  0.00000000000E+00  0.59248592998E+02  0.59248592998E+02  0.00000000000E+00 0. -1.
         21   -1    0    0  501  503 -0.00000000000E+00 -0.00000000000E+00 -0.53212873397E+03  0.53212873397E+03  0.00000000000E+00 0. -1.
          6    1    1    2  501    0  0.14512023082E+02  0.36779446577E+02 -0.24636942482E+03  0.30362842421E+03  0.17300000000E+03 0. -1.
         -6    1    1    2    0  502 -0.14512023082E+02 -0.36779446577E+02 -0.22651071615E+03  0.28774890275E+03  0.17300000000E+03 0. -1.
</event>
<event>
 4    1  0.3065897E+000  0.1000000E+03  0.7546771E-02  0.1280296E+00
         21   -1    0    0  503  502  0.00000000000E+00  0.00000000000E+00  0.13842813814E+03  0.13842813814E+03  0.00000000000E+00 0. -1.
         21   -1    0    0  501  503 -0.00000000000E+00 -0.00000000000E+00 -0.29085808803E+03  0.29085808803E+03  0.00000000000E+00 0. -1.
          6    1    1    2  501    0 -0.77217680171E+02  0.58891228466E+02 -0.10836307864E+03  0.22605818661E+03  0.17300000000E+03 0. -1.
         -6    1    1    2    0  502  0.77217680171E+02 -0.58891228466E+02 -0.44066871249E+02  0.20322803956E+03  0.17300000000E+03 0. -1.
</event>
<event>
 4    1  0.3065897E+000  0.1000000E+03  0.7546771E-02  0.1280296E+00
         21   -1    0    0  501  502  0.00000000000E+00  0.00000000000E+00  0.19871979664E+03  0.19871979664E+03  0.00000000000E+00 0. -1.
         21   -1    0    0  502  503 -0.00000000000E+00 -0.00000000000E+00 -0.35594379379E+03  0.35594379379E+03  0.00000000000E+00 0.  1.
          6    1    1    2  501    0  0.58823726236E+02 -0.64588739107E+02  0.11130994388E+03  0.22349684471E+03  0.17300000000E+03 0. -1.
         -6    1    1    2    0  503 -0.58823726236E+02  0.64588739107E+02 -0.26853394103E+03  0.33116674572E+03  0.17300000000E+03 0.  1.
</event>
<event>
 4    1  0.3065897E+000  0.1000000E+03  0.7546771E-02  0.1280296E+00
         21   -1    0    0  501  502  0.00000000000E+00  0.00000000000E+00  0.54797991002E+03  0.54797991002E+03  0.00000000000E+00 0. -1.
         21   -1    0    0  502  503 -0.00000000000E+00 -0.00000000000E+00 -0.68035831004E+02  0.68035831004E+02  0.00000000000E+00 0.  1.
          6    1    1    2  501    0  0.91973545419E+01 -0.82830306401E+02  0.27218596214E+03  0.33310606265E+03  0.17300000000E+03 0. -1.
         -6    1    1    2    0  503 -0.91973545419E+01  0.82830306401E+02  0.20775811687E+03  0.28290967837E+03  0.17300000000E+03 0.  1.
</event>
<event>
 4    1  0.3065897E+000  0.1000000E+03  0.7546771E-02  0.1280296E+00
         21   -1    0    0  501  502  0.00000000000E+00  0.00000000000E+00  0.29161201102E+03  0.29161201102E+03  0.00000000000E+00 0. -1.
         21   -1    0    0  502  503 -0.00000000000E+00 -0.00000000000E+00 -0.15188204987E+03  0.15188204987E+03  0.00000000000E+00 0.  1.
          6    1    1    2  501    0  0.44878361575E+02 -0.32831547140E+02  0.18172042813E+03  0.25698889436E+03  0.17300000000E+03 0. -1.
         -6    1    1    2    0  503 -0.44878361575E+02  0.32831547140E+02 -0.41990466971E+02  0.18650516653E+03  0.17300000000E+03 0.  1.
</event>
<event>
 4    1  0.3065897E+000  0.1000000E+03  0.7546771E-02  0.1280296E+00
         21   -1    0    0  501  502  0.00000000000E+00  0.00000000000E+00  0.92701191288E+02  0.92701191288E+02  0.00000000000E+00 0. -1.
         21   -1    0    0  502  503 -0.00000000000E+00 -0.00000000000E+00 -0.87648628425E+03  0.87648628425E+03  0.00000000000E+00 0.  1.
          6    1    1    2  501    0  0.80568944685E+02 -0.14908309876E+03 -0.64749600791E+03  0.69130109608E+03  0.17300000000E+03 0. -1.
         -6    1    1    2    0  503 -0.80568944685E+02  0.14908309876E+03 -0.13628908505E+03  0.27788637946E+03  0.17300000000E+03 0. -1.
</event>
<event>
 4    1  0.3065897E+000  0.1000000E+03  0.7546771E-02  0.1280296E+00
         21   -1    0    0  503  502  0.00000000000E+00  0.00000000000E+00  0.18144531522E+03  0.18144531522E+03  0.00000000000E+00 0. -1.
         21   -1    0    0  501  503 -0.00000000000E+00 -0.00000000000E+00 -0.30293786613E+03  0.30293786613E+03  0.00000000000E+00 0.  1.
          6    1    1    2  501    0  0.29400868895E+01  0.11640766637E+03 -0.17142077676E+03  0.26995086887E+03  0.17300000000E+03 0.  1.
         -6    1    1    2    0  502 -0.29400868895E+01 -0.11640766637E+03  0.49928225847E+02  0.21443231248E+03  0.17300000000E+03 0.  1.
</event>
<event>
 4    1  0.3065897E+000  0.1000000E+03  0.7546771E-02  0.1280296E+00
         21   -1    0    0  503  502  0.00000000000E+00  0.00000000000E+00  0.39823889842E+03  0.39823889842E+03  0.00000000000E+00 0. -1.
         21   -1    0    0  501  503 -0.00000000000E+00 -0.00000000000E+00 -0.89982425503E+02  0.89982425503E+02  0.00000000000E+00 0.  1.
          6    1    1    2  501    0  0.47999907816E+02 -0.57593602010E+02  0.17587867090E+03  0.25784359798E+03  0.17300000000E+03 0.  1.
         -6    1    1    2    0  502 -0.47999907816E+02  0.57593602010E+02  0.13237780201E+03  0.23037772594E+03  0.17300000000E+03 0.  1.
</event>
<event>
 4    1  0.3065897E+000  0.1000000E+03  0.7546771E-02  0.1280296E+00
         21   -1    0    0  501  502  0.00000000000E+00  0.00000000000E+00  0.20864721933E+04  0.20864721933E+04  0.00000000000E+00 0.  1.
         21   -1    0    0  502  503 -0.00000000000E+00 -0.00000000000E+00 -0.26913141739E+02  0.26913141739E+02  0.00000000000E+00 0.  1.
          6    1    1    2  501    0 -0.93955519509E+02 -0.11491005238E+03  0.13185148674E+04  0.13380741442E+04  0.17300000000E+03 0.  1.
         -6    1    1    2    0  503  0.93955519509E+02  0.11491005238E+03  0.74104418420E+03  0.77531119089E+03  0.17300000000E+03 0.  1.
</event>
<event>
 4    1  0.3065897E+000  0.1000000E+03  0.7546771E-02  0.1280296E+00
         21   -1    0    0  501  502  0.00000000000E+00  0.00000000000E+00  0.20060107516E+04  0.20060107516E+04  0.00000000000E+00 0.  1.
         21   -1    0    0  502  503 -0.00000000000E+00 -0.00000000000E+00 -0.13600110807E+03  0.13600110807E+03  0.00000000000E+00 0.  1.
          6    1    1    2  501    0 -0.15256620619E+02 -0.16702889417E+03  0.18852375455E+04  0.19005738657E+04  0.17300000000E+03 0.  1.
         -6    1    1    2    0  503  0.15256620619E+02  0.16702889417E+03 -0.15227901934E+02  0.24143799402E+03  0.17300000000E+03 0.  1.
</event>
<event>
 4    1  0.3065897E+000  0.1000000E+03  0.7546771E-02  0.1280296E+00
         21   -1    0    0  503  502  0.00000000000E+00  0.00000000000E+00  0.20316895861E+03  0.20316895861E+03  0.00000000000E+00 0.  1.
         21   -1    0    0  501  503 -0.00000000000E+00 -0.00000000000E+00 -0.32067596486E+03  0.32067596486E+03  0.00000000000E+00 0.  1.
          6    1    1    2  501    0  0.91079509938E+02  0.99698309590E+02 -0.19249660783E+03  0.29192323321E+03  0.17300000000E+03 0.  1.
         -6    1    1    2    0  502 -0.91079509938E+02 -0.99698309590E+02  0.74989601580E+02  0.23192169026E+03  0.17300000000E+03 0.  1.
</event>
<event>
 4    1  0.3065897E+000  0.1000000E+03  0.7546771E-02  0.1280296E+00
         21   -1    0    0  503  502  0.00000000000E+00  0.00000000000E+00  0.14389860393E+03  0.14389860393E+03  0.00000000000E+00 0. -1.
         21   -1    0    0  501  503 -0.00000000000E+00 -0.00000000000E+00 -0.28297605897E+03  0.28297605897E+03  0.00000000000E+00 0.  1.
          6    1    1    2  501    0 -0.72577885817E+02 -0.30410690106E+02 -0.14126451952E+03  0.23680587843E+03  0.17300000000E+03 0.  1.
         -6    1    1    2    0  502  0.72577885817E+02  0.30410690106E+02  0.21870644807E+01  0.19006878448E+03  0.17300000000E+03 0. -1.
</event>
<event>
 4    1  0.3065897E+000  0.1000000E+03  0.7546771E-02  0.1280296E+00
         21   -1    0    0  503  502  0.00000000000E+00  0.00000000000E+00  0.12849281769E+03  0.12849281769E+03  0.00000000000E+00 0. -1.
         21   -1    0    0  501  503 -0.00000000000E+00 -0.00000000000E+00 -0.79079656176E+03  0.79079656176E+03  0.00000000000E+00 0. -1.
          6    1    1    2  501    0  0.11904310693E+03  0.38021487579E+02 -0.67258006754E+03  0.70562726852E+03  0.17300000000E+03 0. -1.
         -6    1    1    2    0  502 -0.11904310693E+03 -0.38021487579E+02  0.10276323473E+02  0.21366211094E+03  0.17300000000E+03 0. -1.
</event>
<event>
 4    1  0.3065897E+000  0.1000000E+03  0.7546771E-02  0.1280296E+00
         21   -1    0    0  503  502  0.00000000000E+00  0.00000000000E+00  0.89754745334E+02  0.89754745334E+02  0.00000000000E+00 0. -1.
         21   -1    0    0  501  503 -0.00000000000E+00 -0.00000000000E+00 -0.86426334306E+03  0.86426334306E+03  0.00000000000E+00 0. -1.
          6    1    1    2  501    0  0.54559385301E+02 -0.20425773008E+03 -0.48019415171E+03  0.55246119335E+03  0.17300000000E+03 0. -1.
         -6    1    1    2    0  502 -0.54559385301E+02  0.20425773008E+03 -0.29431444601E+03  0.40155689504E+03  0.17300000000E+03 0. -1.
</event>
<event>
 4    1  0.3065897E+000  0.1000000E+03  0.7546771E-02  0.1280296E+00
         21   -1    0    0  503  502  0.00000000000E+00  0.00000000000E+00  0.10555566681E+03  0.10555566681E+03  0.00000000000E+00 0. -1.
         21   -1    0    0  501  503 -0.00000000000E+00 -0.00000000000E+00 -0.55465128156E+03  0.55465128156E+03  0.00000000000E+00 0. -1.
          6    1    1    2  501    0 -0.81759423788E+02 -0.66041027663E+02 -0.40539198524E+03  0.45311994263E+03  0.17300000000E+03 0. -1.
         -6    1    1    2    0  502  0.81759423788E+02  0.66041027663E+02 -0.43703629520E+02  0.20708700574E+03  0.17300000000E+03 0. -1.
</event>
<event>
 4    1  0.3065897E+000  0.1000000E+03  0.7546771E-02  0.1280296E+00
         21   -1    0    0  501  502  0.00000000000E+00  0.00000000000E+00  0.16324779094E+04  0.16324779094E+04  0.00000000000E+00 0.  1.
         21   -1    0    0  502  503 -0.00000000000E+00 -0.00000000000E+00 -0.54637511775E+02  0.54637511775E+02  0.00000000000E+00 0. -1.
          6    1    1    2  501    0 -0.44059419352E+02  0.30683378225E+02  0.14596060078E+04  0.14708029780E+04  0.17300000000E+03 0.  1.
         -6    1    1    2    0  503  0.44059419352E+02 -0.30683378225E+02  0.11823438985E+03  0.21631244318E+03  0.17300000000E+03 0. -1.
</event>
<event>
 4    1  0.3065897E+000  0.1000000E+03  0.7546771E-02  0.1280296E+00
         21   -1    0    0  501  502  0.00000000000E+00  0.00000000000E+00  0.64445765666E+03  0.64445765666E+03  0.00000000000E+00 0.  1.
         21   -1    0    0  502  503 -0.00000000000E+00 -0.00000000000E+00 -0.11884092511E+03  0.11884092511E+03  0.00000000000E+00 0. -1.
          6    1    1    2  501    0  0.47578963340E+02  0.90621603076E+02  0.52513114712E+03  0.56228796392E+03  0.17300000000E+03 0.  1.
         -6    1    1    2    0  503 -0.47578963340E+02 -0.90621603076E+02  0.48558442733E+00  0.20101061785E+03  0.17300000000E+03 0. -1.
</event>
<event>
 4    1  0.3065897E+000  0.1000000E+03  0.7546771E-02  0.1280296E+00
         21   -1    0    0  501  502  0.00000000000E+00  0.00000000000E+00  0.19249968970E+03  0.19249968970E+03  0.00000000000E+00 0.  1.
         21   -1    0    0  502  503 -0.00000000000E+00 -0.00000000000E+00 -0.16136471447E+03  0.16136471447E+03  0.00000000000E+00 0. -1.
          6    1    1    2  501    0 -0.96137601961E+01 -0.28546438914E+02  0.30670458570E+02  0.17826104619E+03  0.17300000000E+03 0.  1.
         -6    1    1    2    0  503  0.96137601961E+01  0.28546438914E+02  0.46451666353E+00  0.17560335798E+03  0.17300000000E+03 0. -1.
</event>
<event>
 4    1  0.3065897E+000  0.1000000E+03  0.7546771E-02  0.1280296E+00
         21   -1    0    0  501  502  0.00000000000E+00  0.00000000000E+00  0.99225136376E+03  0.99225136376E+03  0.00000000000E+00 0.  1.
         21   -1    0    0  502  503 -0.00000000000E+00 -0.00000000000E+00 -0.87759125381E+02  0.87759125381E+02  0.00000000000E+00 0. -1.
          6    1    1    2  501    0  0.20513168235E+02  0.23656963081E+03  0.50283150285E+03  0.58236972840E+03  0.17300000000E+03 0.  1.
         -6    1    1    2    0  503 -0.20513168235E+02 -0.23656963081E+03  0.40166073552E+03  0.49764076074E+03  0.17300000000E+03 0. -1.
</event>
<event>
 4    1  0.3065897E+000  0.1000000E+03  0.7546771E-02  0.1280296E+00
         21   -1    0    0  501  502  0.00000000000E+00  0.00000000000E+00  0.46104609495E+02  0.46104609495E+02  0.00000000000E+00 0.  1.
         21   -1    0    0  502  503 -0.00000000000E+00 -0.00000000000E+00 -0.14398144114E+04  0.14398144114E+04  0.00000000000E+00 0.  1.
          6    1    1    2  501    0 -0.73052908037E+02  0.14077672764E+03 -0.39034421030E+03  0.45546944676E+03  0.17300000000E+03 0.  1.
         -6    1    1    2    0  503  0.73052908037E+02 -0.14077672764E+03 -0.10033655916E+04  0.10304495741E+04  0.17300000000E+03 0.  1.
</event>
<event>
 4    1  0.3065897E+000  0.1000000E+03  0.7546771E-02  0.1280296E+00
         21   -1    0    0  501  502  0.00000000000E+00  0.00000000000E+00  0.47807667413E+03  0.47807667413E+03  0.00000000000E+00 0. -1.
         21   -1    0    0  502  503 -0.00000000000E+00 -0.00000000000E+00 -0.63308715939E+02  0.63308715939E+02  0.00000000000E+00 0.  1.
          6    1    1    2  501    0  0.79982730107E+01  0.13614653427E+02  0.19278046615E+03  0.25950460359E+03  0.17300000000E+03 0. -1.
         -6    1    1    2    0  503 -0.79982730107E+01 -0.13614653427E+02  0.22198749204E+03  0.28188078647E+03  0.17300000000E+03 0.  1.
</event>
<event>
 4    1  0.3065897E+000  0.1000000E+03  0.7546771E-02  0.1280296E+00
         21   -1    0    0  501  502  0.00000000000E+00  0.00000000000E+00  0.20696065802E+03  0.20696065802E+03  0.00000000000E+00 0. -1.
         21   -1    0    0  502  503 -0.00000000000E+00 -0.00000000000E+00 -0.21234227440E+03  0.21234227440E+03  0.00000000000E+00 0.  1.
          6    1    1    2  501    0 -0.75074085095E+02 -0.90714676989E+02 -0.15029813042E+02  0.20980983331E+03  0.17300000000E+03 0. -1.
         -6    1    1    2    0  503  0.75074085095E+02  0.90714676989E+02  0.96481966604E+01  0.20949309911E+03  0.17300000000E+03 0.  1.
</event>
<event>
 4    1  0.3065897E+000  0.1000000E+03  0.7546771E-02  0.1280296E+00
         21   -1    0    0  503  502  0.00000000000E+00  0.00000000000E+00  0.28702518228E+03  0.28702518228E+03  0.00000000000E+00 0.  1.
         21   -1    0    0  501  503 -0.00000000000E+00 -0.00000000000E+00 -0.30666336925E+03  0.30666336925E+03  0.00000000000E+00 0. -1.
          6    1    1    2  501    0 -0.10970536532E+01 -0.43810379862E+02 -0.24695214495E+03  0.30468822558E+03  0.17300000000E+03 0. -1.
         -6    1    1    2    0  502  0.10970536532E+01  0.43810379862E+02  0.22731395798E+03  0.28900032596E+03  0.17300000000E+03 0. -1.
</event>
<event>
 4    1  0.3065897E+000  0.1000000E+03  0.7546771E-02  0.1280296E+00
         21   -1    0    0  503  502  0.00000000000E+00  0.00000000000E+00  0.55818547918E+03  0.55818547918E+03  0.00000000000E+00 0.  1.
         21   -1    0    0  501  503 -0.00000000000E+00 -0.00000000000E+00 -0.42385105774E+03  0.42385105774E+03  0.00000000000E+00 0. -1.
          6    1    1    2  501    0  0.16460615774E+03  0.10720608807E+03 -0.34668670771E+03  0.43440649833E+03  0.17300000000E+03 0. -1.
         -6    1    1    2    0  502 -0.16460615774E+03 -0.10720608807E+03  0.48102112915E+03  0.54763003859E+03  0.17300000000E+03 0. -1.
</event>
<event>
 4    1  0.3065897E+000  0.1000000E+03  0.7546771E-02  0.1280296E+00
         21   -1    0    0  503  502  0.00000000000E+00  0.00000000000E+00  0.32992917208E+03  0.32992917208E+03  0.00000000000E+00 0.  1.
         21   -1    0    0  501  503 -0.00000000000E+00 -0.00000000000E+00 -0.64315414832E+03  0.64315414832E+03  0.00000000000E+00 0. -1.
          6    1    1    2  501    0  0.37817153196E+03 -0.63001144747E+01 -0.36576674573E+03  0.55386614927E+03  0.17300000000E+03 0. -1.
         -6    1    1    2    0  502 -0.37817153196E+03  0.63001144747E+01  0.52541769493E+02  0.41921717113E+03  0.17300000000E+03 0. -1.
</event>
<event>
 4    1  0.3065897E+000  0.1000000E+03  0.7546771E-02  0.1280296E+00
         21   -1    0    0  503  502  0.00000000000E+00  0.00000000000E+00  0.68414659437E+03  0.68414659437E+03  0.00000000000E+00 0.  1.
         21   -1    0    0  501  503 -0.00000000000E+00 -0.00000000000E+00 -0.20700780075E+03  0.20700780075E+03  0.00000000000E+00 0.  1.
          6    1    1    2  501    0  0.15335149509E+03 -0.26373276467E+03  0.76992156951E+02  0.35906607252E+03  0.17300000000E+03 0.  1.
         -6    1    1    2    0  502 -0.15335149509E+03  0.26373276467E+03  0.40014663667E+03  0.53208832259E+03  0.17300000000E+03 0.  1.
</event>
<event>
 4    1  0.3065897E+000  0.1000000E+03  0.7546771E-02  0.1280296E+00
         21   -1    0    0  503  502  0.00000000000E+00  0.00000000000E+00  0.26660006615E+02  0.26660006615E+02  0.00000000000E+00 0.  1.
         21   -1    0    0  501  503 -0.00000000000E+00 -0.00000000000E+00 -0.18472869443E+04  0.18472869443E+04  0.00000000000E+00 0.  1.
          6    1    1    2  501    0 -0.37901181797E+02  0.99596053694E+02 -0.12870956869E+04  0.13030349883E+04  0.17300000000E+03 0.  1.
         -6    1    1    2    0  502  0.37901181797E+02 -0.99596053694E+02 -0.53353125074E+03  0.57091196258E+03  0.17300000000E+03 0.  1.
</event>
<event>
 4    1  0.3065897E+000  0.1000000E+03  0.7546771E-02  0.1280296E+00
         21   -1    0    0  503  502  0.00000000000E+00  0.00000000000E+00  0.93622934222E+03  0.93622934222E+03  0.00000000000E+00 0.  1.
         21   -1    0    0  501  503 -0.00000000000E+00 -0.00000000000E+00 -0.57301903551E+02  0.57301903551E+02  0.00000000000E+00 0.  1.
          6    1    1    2  501    0  0.16468220229E+02 -0.23772891789E+02  0.76389774468E+03  0.78377619062E+03  0.17300000000E+03 0.  1.
         -6    1    1    2    0  502 -0.16468220229E+02  0.23772891789E+02  0.11502969399E+03  0.20975505515E+03  0.17300000000E+03 0.  1.
</event>
<event>
 4    1  0.3065897E+000  0.1000000E+03  0.7546771E-02  0.1280296E+00
         21   -1    0    0  503  502  0.00000000000E+00  0.00000000000E+00  0.10039270054E+04  0.10039270054E+04  0.00000000000E+00 0.  1.
         21   -1    0    0  501  503 -0.00000000000E+00 -0.00000000000E+00 -0.51395709561E+02  0.51395709561E+02  0.00000000000E+00 0.  1.
          6    1    1    2  501    0  0.50956873120E+02  0.27784984858E+02  0.16202270549E+03  0.24402656699E+03  0.17300000000E+03 0.  1.
         -6    1    1    2    0  502 -0.50956873120E+02 -0.27784984858E+02  0.79050859035E+03  0.81129614797E+03  0.17300000000E+03 0.  1.
</event>
<event>
 4    1  0.3065897E+000  0.1000000E+03  0.7546771E-02  0.1280296E+00
         21   -1    0    0  501  502  0.00000000000E+00  0.00000000000E+00  0.27154078400E+03  0.27154078400E+03  0.00000000000E+00 0. -1.
         21   -1    0    0  502  503 -0.00000000000E+00 -0.00000000000E+00 -0.16995034081E+03  0.16995034081E+03  0.00000000000E+00 0. -1.
          6    1    1    2  501    0  0.70000163623E+02 -0.51199914034E+02  0.14662996778E+03  0.24279786151E+03  0.17300000000E+03 0. -1.
         -6    1    1    2    0  503 -0.70000163623E+02  0.51199914034E+02 -0.45039524587E+02  0.19869326330E+03  0.17300000000E+03 0. -1.
</event>
<event>
 4    1  0.3065897E+000  0.1000000E+03  0.7546771E-02  0.1280296E+00
         21   -1    0    0  501  502  0.00000000000E+00  0.00000000000E+00  0.15342400536E+03  0.15342400536E+03  0.00000000000E+00 0.  1.
         21   -1    0    0  502  503 -0.00000000000E+00 -0.00000000000E+00 -0.36809613144E+03  0.36809613144E+03  0.00000000000E+00 0. -1.
          6    1    1    2  501    0 -0.92889309892E+02 -0.10239787368E+02  0.39109530886E+02  0.20047900774E+03  0.17300000000E+03 0. -1.
         -6    1    1    2    0  503  0.92889309892E+02  0.10239787368E+02 -0.25378165696E+03  0.32104112906E+03  0.17300000000E+03 0.  1.
</event>
<event>
 4    1  0.3065897E+000  0.1000000E+03  0.7546771E-02  0.1280296E+00
         21   -1    0    0  501  502  0.00000000000E+00  0.00000000000E+00  0.10328615955E+03  0.10328615955E+03  0.00000000000E+00 0.  1.
         21   -1    0    0  502  503 -0.00000000000E+00 -0.00000000000E+00 -0.36262145192E+03  0.36262145192E+03  0.00000000000E+00 0. -1.
          6    1    1    2  501    0 -0.21931824401E+02 -0.69845038911E+02 -0.73653805377E+02  0.20177516554E+03  0.17300000000E+03 0. -1.
         -6    1    1    2    0  503  0.21931824401E+02  0.69845038911E+02 -0.18568148699E+03  0.26413244593E+03  0.17300000000E+03 0.  1.
</event>
<event>
 4    1  0.3065897E+000  0.1000000E+03  0.7546771E-02  0.1280296E+00
         21   -1    0    0  501  502  0.00000000000E+00  0.00000000000E+00  0.28855115961E+02  0.28855115961E+02  0.00000000000E+00 0.  1.
         21   -1    0    0  502  503 -0.00000000000E+00 -0.00000000000E+00 -0.12012914213E+04  0.12012914213E+04  0.00000000000E+00 0.  1.
          6    1    1    2  501    0 -0.14506738782E+01 -0.31048446942E+02 -0.38342019804E+03  0.42178923502E+03  0.17300000000E+03 0.  1.
         -6    1    1    2    0  503  0.14506738782E+01  0.31048446942E+02 -0.78901610729E+03  0.80835730223E+03  0.17300000000E+03 0.  1.
</event>
<event>
 4    1  0.3065897E+000  0.1000000E+03  0.7546771E-02  0.1280296E+00
         21   -1    0    0  503  502  0.00000000000E+00  0.00000000000E+00  0.34011842858E+03  0.34011842858E+03  0.00000000000E+00 0. -1.
         21   -1    0    0  501  503 -0.00000000000E+00 -0.00000000000E+00 -0.13889290551E+03  0.13889290551E+03  0.00000000000E+00 0. -1.
          6    1    1    2  501    0 -0.69515613680E+02  0.78777598546E+02  0.13338104023E+02  0.20284288402E+03  0.17300000000E+03 0. -1.
         -6    1    1    2    0  502  0.69515613680E+02 -0.78777598546E+02  0.18788741904E+03  0.27616845007E+03  0.17300000000E+03 0. -1.
</event>
<event>
 4    1  0.3065897E+000  0.1000000E+03  0.7546771E-02  0.1280296E+00
         21   -1    0    0  503  502  0.00000000000E+00  0.00000000000E+00  0.70904228590E+03  0.70904228590E+03  0.00000000000E+00 0. -1.
         21   -1    0    0  501  503 -0.00000000000E+00 -0.00000000000E+00 -0.20767392069E+03  0.20767392069E+03  0.00000000000E+00 0. -1.
          6    1    1    2  501    0 -0.29809952898E+03  0.16070776121E+03  0.18942394593E+03  0.42485379248E+03  0.17300000000E+03 0. -1.
         -6    1    1    2    0  502  0.29809952898E+03 -0.16070776121E+03  0.31194441928E+03  0.49186241411E+03  0.17300000000E+03 0. -1.
</event>
<event>
 4    1  0.3065897E+000  0.1000000E+03  0.7546771E-02  0.1280296E+00
         21   -1    0    0  503  502  0.00000000000E+00  0.00000000000E+00  0.91331829672E+02  0.91331829672E+02  0.00000000000E+00 0. -1.
         21   -1    0    0  501  503 -0.00000000000E+00 -0.00000000000E+00 -0.62915320914E+03  0.62915320914E+03  0.00000000000E+00 0. -1.
          6    1    1    2  501    0 -0.74284142042E+02 -0.13967966292E+03 -0.34411413541E+03  0.41637973075E+03  0.17300000000E+03 0. -1.
         -6    1    1    2    0  502  0.74284142042E+02  0.13967966292E+03 -0.19370724406E+03  0.30410530806E+03  0.17300000000E+03 0. -1.
</event>
<event>
 4    1  0.3065897E+000  0.1000000E+03  0.7546771E-02  0.1280296E+00
         21   -1    0    0  503  502  0.00000000000E+00  0.00000000000E+00  0.10102765230E+03  0.10102765230E+03  0.00000000000E+00 0. -1.
         21   -1    0    0  501  503 -0.00000000000E+00 -0.00000000000E+00 -0.20881456160E+04  0.20881456160E+04  0.00000000000E+00 0.  1.
          6    1    1    2  501    0 -0.11126872349E+03  0.11915124858E+03 -0.19301473907E+04  0.19447302381E+04  0.17300000000E+03 0.  1.
         -6    1    1    2    0  502  0.11126872349E+03 -0.11915124858E+03 -0.56970573008E+02  0.24444303028E+03  0.17300000000E+03 0. -1.
</event>
<event>
 4    1  0.3065897E+000  0.1000000E+03  0.7546771E-02  0.1280296E+00
         21   -1    0    0  503  502  0.00000000000E+00  0.00000000000E+00  0.17572201673E+03  0.17572201673E+03  0.00000000000E+00 0.  1.
         21   -1    0    0  501  503 -0.00000000000E+00 -0.00000000000E+00 -0.28691745644E+03  0.28691745644E+03  0.00000000000E+00 0.  1.
          6    1    1    2  501    0  0.57224748544E+02  0.47844589234E+02  0.70259279836E+02  0.20106999520E+03  0.17300000000E+03 0.  1.
         -6    1    1    2    0  502 -0.57224748544E+02 -0.47844589234E+02 -0.18145471955E+03  0.26156947798E+03  0.17300000000E+03 0.  1.
</event>
<event>
 4    1  0.3065897E+000  0.1000000E+03  0.7546771E-02  0.1280296E+00
         21   -1    0    0  503  502  0.00000000000E+00  0.00000000000E+00  0.41145582009E+03  0.41145582009E+03  0.00000000000E+00 0.  1.
         21   -1    0    0  501  503 -0.00000000000E+00 -0.00000000000E+00 -0.61814478454E+03  0.61814478454E+03  0.00000000000E+00 0.  1.
          6    1    1    2  501    0  0.15087124695E+02 -0.54581881955E+02 -0.58344043796E+03  0.61117800011E+03  0.17300000000E+03 0.  1.
         -6    1    1    2    0  502 -0.15087124695E+02  0.54581881955E+02  0.37675147352E+03  0.41842260451E+03  0.17300000000E+03 0.  1.
</event>
<event>
 4    1  0.3065897E+000  0.1000000E+03  0.7546771E-02  0.1280296E+00
         21   -1    0    0  503  502  0.00000000000E+00  0.00000000000E+00  0.54348629545E+03  0.54348629545E+03  0.00000000000E+00 0.  1.
         21   -1    0    0  501  503 -0.00000000000E+00 -0.00000000000E+00 -0.18355710292E+03  0.18355710292E+03  0.00000000000E+00 0.  1.
          6    1    1    2  501    0  0.10959176559E+03 -0.13311236400E+03 -0.50516992851E+02  0.24941977287E+03  0.17300000000E+03 0.  1.
         -6    1    1    2    0  502 -0.10959176559E+03  0.13311236400E+03  0.41044618539E+03  0.47762362550E+03  0.17300000000E+03 0.  1.
</event>
<event>
 4    1  0.3065897E+000  0.1000000E+03  0.7546771E-02  0.1280296E+00
         21   -1    0    0  503  502  0.00000000000E+00  0.00000000000E+00  0.13809233100E+03  0.13809233100E+03  0.00000000000E+00 0.  1.
         21   -1    0    0  501  503 -0.00000000000E+00 -0.00000000000E+00 -0.32325251720E+03  0.32325251720E+03  0.00000000000E+00 0.  1.
          6    1    1    2  501    0 -0.34142784416E+02 -0.82194277594E+01 -0.21932396397E+03  0.28154092046E+03  0.17300000000E+03 0.  1.
         -6    1    1    2    0  502  0.34142784416E+02  0.82194277594E+01  0.34163777763E+02  0.17980392774E+03  0.17300000000E+03 0.  1.
</event>
<event>
 4    1  0.3065897E+000  0.1000000E+03  0.7546771E-02  0.1280296E+00
         21   -1    0    0  501  502  0.00000000000E+00  0.00000000000E+00  0.65929024324E+03  0.65929024324E+03  0.00000000000E+00 0. -1.
         21   -1    0    0  502  503 -0.00000000000E+00 -0.00000000000E+00 -0.11719411736E+03  0.11719411736E+03  0.00000000000E+00 0.  1.
          6    1    1    2  501    0  0.35667095696E+02  0.15089555412E+03  0.48422321498E+03  0.53706864728E+03  0.17300000000E+03 0. -1.
         -6    1    1    2    0  503 -0.35667095696E+02 -0.15089555412E+03  0.57872910899E+02  0.23941571332E+03  0.17300000000E+03 0.  1.
</event>
<event>
 4    1  0.3065897E+000  0.1000000E+03  0.7546771E-02  0.1280296E+00
         21   -1    0    0  501  502  0.00000000000E+00  0.00000000000E+00  0.43949204097E+02  0.43949204097E+02  0.00000000000E+00 0. -1.
         21   -1    0    0  502  503 -0.00000000000E+00 -0.00000000000E+00 -0.10728023389E+04  0.10728023389E+04  0.00000000000E+00 0.  1.
          6    1    1    2  501    0  0.12159325889E+03  0.39024307261E+02 -0.59208465042E+03  0.62992146370E+03  0.17300000000E+03 0. -1.
         -6    1    1    2    0  503 -0.12159325889E+03 -0.39024307261E+02 -0.43676848443E+03  0.48683007934E+03  0.17300000000E+03 0.  1.
</event>
<event>
 4    1  0.3065897E+000  0.1000000E+03  0.7546771E-02  0.1280296E+00
         21   -1    0    0  501  502  0.00000000000E+00  0.00000000000E+00  0.90539665762E+02  0.90539665762E+02  0.00000000000E+00 0. -1.
         21   -1    0    0  502  503 -0.00000000000E+00 -0.00000000000E+00 -0.67591996361E+03  0.67591996361E+03  0.00000000000E+00 0.  1.
          6    1    1    2  501    0  0.12794983945E+03 -0.11795865365E+03 -0.34126425257E+03  0.42032808075E+03  0.17300000000E+03 0. -1.
         -6    1    1    2    0  503 -0.12794983945E+03  0.11795865365E+03 -0.24411604528E+03  0.34613154862E+03  0.17300000000E+03 0.  1.
</event>
<event>
 4    1  0.3065897E+000  0.1000000E+03  0.7546771E-02  0.1280296E+00
         21   -1    0    0  503  502  0.00000000000E+00  0.00000000000E+00  0.10214854725E+04  0.10214854725E+04  0.00000000000E+00 0. -1.
         21   -1    0    0  501  503 -0.00000000000E+00 -0.00000000000E+00 -0.59213545479E+02  0.59213545479E+02  0.00000000000E+00 0.  1.
          6    1    1    2  501    0  0.15593433398E+02  0.86740590515E+02  0.14945743958E+03  0.24501757377E+03  0.17300000000E+03 0. -1.
         -6    1    1    2    0  502 -0.15593433398E+02 -0.86740590515E+02  0.81281448742E+03  0.83568144420E+03  0.17300000000E+03 0. -1.
</event>
<event>
 4    1  0.3065897E+000  0.1000000E+03  0.7546771E-02  0.1280296E+00
         21   -1    0    0  503  502  0.00000000000E+00  0.00000000000E+00  0.46495286678E+03  0.46495286678E+03  0.00000000000E+00 0. -1.
         21   -1    0    0  501  503 -0.00000000000E+00 -0.00000000000E+00 -0.40613001910E+03  0.40613001910E+03  0.00000000000E+00 0.  1.
          6    1    1    2  501    0  0.28048095761E+03 -0.79460542885E+02 -0.24309067041E+03  0.41713980810E+03  0.17300000000E+03 0. -1.
         -6    1    1    2    0  502 -0.28048095761E+03  0.79460542885E+02  0.30191351809E+03  0.45394307778E+03  0.17300000000E+03 0. -1.
</event>
<event>
 4    1  0.3065897E+000  0.1000000E+03  0.7546771E-02  0.1280296E+00
         21   -1    0    0  503  502  0.00000000000E+00  0.00000000000E+00  0.77447312751E+02  0.77447312751E+02  0.00000000000E+00 0. -1.
         21   -1    0    0  501  503 -0.00000000000E+00 -0.00000000000E+00 -0.42720646185E+03  0.42720646185E+03  0.00000000000E+00 0.  1.
          6    1    1    2  501    0 -0.47827118593E+02  0.28908882231E+02 -0.18294874943E+03  0.25791937047E+03  0.17300000000E+03 0. -1.
         -6    1    1    2    0  502  0.47827118593E+02 -0.28908882231E+02 -0.16681039966E+03  0.24673440413E+03  0.17300000000E+03 0. -1.
</event>
<event>
 4    1  0.3065897E+000  0.1000000E+03  0.7546771E-02  0.1280296E+00
         21   -1    0    0  501  502  0.00000000000E+00  0.00000000000E+00  0.11477813964E+03  0.11477813964E+03  0.00000000000E+00 0.  1.
         21   -1    0    0  502  503 -0.00000000000E+00 -0.00000000000E+00 -0.32568163221E+03  0.32568163221E+03  0.00000000000E+00 0. -1.
          6    1    1    2  501    0 -0.32605131918E+02 -0.35371653578E+02 -0.23804385609E+02  0.18113502499E+03  0.17300000000E+03 0.  1.
         -6    1    1    2    0  503  0.32605131918E+02  0.35371653578E+02 -0.18709910696E+03  0.25932474685E+03  0.17300000000E+03 0.  1.
</event>
<event>
 4    1  0.3065897E+000  0.1000000E+03  0.7546771E-02  0.1280296E+00
         21   -1    0    0  503  502  0.00000000000E+00  0.00000000000E+00  0.16289656307E+04  0.16289656307E+04  0.00000000000E+00 0. -1.
         21   -1    0    0  501  503 -0.00000000000E+00 -0.00000000000E+00 -0.32103534489E+02  0.32103534489E+02  0.00000000000E+00 0. -1.
          6    1    1    2  501    0  0.31174891310E+02 -0.14487918254E+03  0.72536872002E+03  0.76029641020E+03  0.17300000000E+03 0. -1.
         -6    1    1    2    0  502 -0.31174891310E+02  0.14487918254E+03  0.87149337621E+03  0.90077275500E+03  0.17300000000E+03 0. -1.
</event>
<event>
 4    1  0.3065897E+000  0.1000000E+03  0.7546771E-02  0.1280296E+00
         21   -1    0    0  501  502  0.00000000000E+00  0.00000000000E+00  0.66331173119E+03  0.66331173119E+03  0.00000000000E+00 0. -1.
         21   -1    0    0  502  503 -0.00000000000E+00 -0.00000000000E+00 -0.82583586164E+03  0.82583586164E+03  0.00000000000E+00 0. -1.
          6    1    1    2  501    0 -0.25752013084E+01 -0.10385431406E+03  0.63510229424E+03  0.66639048190E+03  0.17300000000E+03 0. -1.
         -6    1    1    2    0  503  0.25752013084E+01  0.10385431406E+03 -0.79762642469E+03  0.82275711093E+03  0.17300000000E+03 0. -1.
</event>
<event>
 4    1  0.3065897E+000  0.1000000E+03  0.7546771E-02  0.1280296E+00
         21   -1    0    0  503  502  0.00000000000E+00  0.00000000000E+00  0.14532634610E+03  0.14532634610E+03  0.00000000000E+00 0.  1.
         21   -1    0    0  501  503 -0.00000000000E+00 -0.00000000000E+00 -0.34045191956E+03  0.34045191956E+03  0.00000000000E+00 0. -1.
          6    1    1    2  501    0 -0.22276338463E+02 -0.13787958535E+03 -0.10452212996E+03  0.24568453545E+03  0.17300000000E+03 0.  1.
         -6    1    1    2    0  502  0.22276338463E+02  0.13787958535E+03 -0.90603443495E+02  0.24009373021E+03  0.17300000000E+03 0. -1.
</event>
<event>
 4    1  0.3065897E+000  0.1000000E+03  0.7546771E-02  0.1280296E+00
         21   -1    0    0  503  502  0.00000000000E+00  0.00000000000E+00  0.80761674648E+02  0.80761674648E+02  0.00000000000E+00 0. -1.
         21   -1    0    0  501  503 -0.00000000000E+00 -0.00000000000E+00 -0.86135697294E+03  0.86135697294E+03  0.00000000000E+00 0. -1.
          6    1    1    2  501    0  0.57604944780E+02 -0.35052625481E+02 -0.72485029976E+03  0.74825394972E+03  0.17300000000E+03 0. -1.
         -6    1    1    2    0  502 -0.57604944780E+02  0.35052625481E+02 -0.55744998533E+02  0.19386469786E+03  0.17300000000E+03 0. -1.
</event>
<event>
 4    1  0.3065897E+000  0.1000000E+03  0.7546771E-02  0.1280296E+00
         21   -1    0    0  503  502  0.00000000000E+00  0.00000000000E+00  0.79427875014E+03  0.79427875014E+03  0.00000000000E+00 0. -1.
         21   -1    0    0  501  503 -0.00000000000E+00 -0.00000000000E+00 -0.71268631920E+02  0.71268631920E+02  0.00000000000E+00 0. -1.
          6    1    1    2  501    0  0.15770071661E+03  0.19736069535E+02  0.29298204192E+03  0.37553495889E+03  0.17300000000E+03 0. -1.
         -6    1    1    2    0  502 -0.15770071661E+03 -0.19736069535E+02  0.43002807630E+03  0.49001242317E+03  0.17300000000E+03 0. -1.
</event>
<event>
 4    1  0.3065897E+000  0.1000000E+03  0.7546771E-02  0.1280296E+00
         21   -1    0    0  503  502  0.00000000000E+00  0.00000000000E+00  0.81355095000E+02  0.81355095000E+02  0.00000000000E+00 0.  1.
         21   -1    0    0  501  503 -0.00000000000E+00 -0.00000000000E+00 -0.17001110209E+04  0.17001110209E+04  0.00000000000E+00 0. -1.
          6    1    1    2  501    0  0.18955736591E+03 -0.89399040440E+02 -0.14174570279E+04  0.14432732275E+04  0.17300000000E+03 0.  1.
         -6    1    1    2    0  502 -0.18955736591E+03  0.89399040440E+02 -0.20129889801E+03  0.33819288837E+03  0.17300000000E+03 0. -1.
</event>
<event>
 4    1  0.3065897E+000  0.1000000E+03  0.7546771E-02  0.1280296E+00
         21   -1    0    0  503  502  0.00000000000E+00  0.00000000000E+00  0.16137212331E+03  0.16137212331E+03  0.00000000000E+00 0.  1.
         21   -1    0    0  501  503 -0.00000000000E+00 -0.00000000000E+00 -0.42043018238E+03  0.42043018238E+03  0.00000000000E+00 0. -1.
          6    1    1    2  501    0 -0.98540793190E+02  0.59003615375E+00 -0.31709565803E+03  0.37441860585E+03  0.17300000000E+03 0.  1.
         -6    1    1    2    0  502  0.98540793190E+02 -0.59003615375E+00  0.58037598955E+02  0.20738369984E+03  0.17300000000E+03 0. -1.
</event>
<event>
 4    1  0.3065897E+000  0.1000000E+03  0.7546771E-02  0.1280296E+00
         21   -1    0    0  503  502  0.00000000000E+00  0.00000000000E+00  0.15784451490E+03  0.15784451490E+03  0.00000000000E+00 0. -1.
         21   -1    0    0  501  503 -0.00000000000E+00 -0.00000000000E+00 -0.54594504945E+03  0.54594504945E+03  0.00000000000E+00 0.  1.
          6    1    1    2  501    0 -0.76420409099E+02 -0.23490824520E+02 -0.46170294185E+03  0.49949024443E+03  0.17300000000E+03 0. -1.
         -6    1    1    2    0  502  0.76420409099E+02  0.23490824520E+02  0.73602407301E+02  0.20429931993E+03  0.17300000000E+03 0.  1.
</event>
<event>
 4    1  0.3065897E+000  0.1000000E+03  0.7546771E-02  0.1280296E+00
         21   -1    0    0  503  502  0.00000000000E+00  0.00000000000E+00  0.76521807624E+03  0.76521807624E+03  0.00000000000E+00 0. -1.
         21   -1    0    0  501  503 -0.00000000000E+00 -0.00000000000E+00 -0.44299289520E+02  0.44299289520E+02  0.00000000000E+00 0.  1.
          6    1    1    2  501    0 -0.13826897926E+02  0.61218059277E+02  0.37265665078E+03  0.41562099713E+03  0.17300000000E+03 0. -1.
         -6    1    1    2    0  502  0.13826897926E+02 -0.61218059277E+02  0.34826213595E+03  0.39389636863E+03  0.17300000000E+03 0.  1.
</event>
<event>
 4    1  0.3065897E+000  0.1000000E+03  0.7546771E-02  0.1280296E+00
         21   -1    0    0  503  502  0.00000000000E+00  0.00000000000E+00  0.51336929155E+02  0.51336929155E+02  0.00000000000E+00 0. -1.
         21   -1    0    0  501  503 -0.00000000000E+00 -0.00000000000E+00 -0.72234425698E+03  0.72234425698E+03  0.00000000000E+00 0.  1.
          6    1    1    2  501    0  0.58570259136E+01 -0.31644590904E+02 -0.49263349078E+03  0.52311799924E+03  0.17300000000E+03 0. -1.
         -6    1    1    2    0  502 -0.58570259136E+01  0.31644590904E+02 -0.17837383704E+03  0.25056318689E+03  0.17300000000E+03 0.  1.
</event>
<event>
 4    1  0.3065897E+000  0.1000000E+03  0.7546771E-02  0.1280296E+00
         21   -1    0    0  503  502  0.00000000000E+00  0.00000000000E+00  0.12405362840E+03  0.12405362840E+03  0.00000000000E+00 0.  1.
         21   -1    0    0  501  503 -0.00000000000E+00 -0.00000000000E+00 -0.28009670884E+03  0.28009670884E+03  0.00000000000E+00 0.  1.
          6    1    1    2  501    0  0.36687250468E+01 -0.63704360790E+02 -0.10763664222E+03  0.21350960605E+03  0.17300000000E+03 0.  1.
         -6    1    1    2    0  502 -0.36687250468E+01  0.63704360790E+02 -0.48406438224E+02  0.19064073119E+03  0.17300000000E+03 0.  1.
</event>
<event>
 4    1  0.3065897E+000  0.1000000E+03  0.7546771E-02  0.1280296E+00
         21   -1    0    0  503  502  0.00000000000E+00  0.00000000000E+00  0.39012470088E+03  0.39012470088E+03  0.00000000000E+00 0.  1.
         21   -1    0    0  501  503 -0.00000000000E+00 -0.00000000000E+00 -0.63828687666E+03  0.63828687666E+03  0.00000000000E+00 0.  1.
          6    1    1    2  501    0  0.38614671502E+02  0.20760207066E+03 -0.55452442606E+03  0.61807447100E+03  0.17300000000E+03 0.  1.
         -6    1    1    2    0  502 -0.38614671502E+02 -0.20760207066E+03  0.30636225029E+03  0.41033710654E+03  0.17300000000E+03 0.  1.
</event>
<event>
 4    1  0.3065897E+000  0.1000000E+03  0.7546771E-02  0.1280296E+00
         21   -1    0    0  501  502  0.00000000000E+00  0.00000000000E+00  0.42581208663E+03  0.42581208663E+03  0.00000000000E+00 0. -1.
         21   -1    0    0  502  503 -0.00000000000E+00 -0.00000000000E+00 -0.12932976455E+03  0.12932976455E+03  0.00000000000E+00 0.  1.
          6    1    1    2  501    0 -0.71395104832E+02  0.13009024126E+03  0.21431415810E+03  0.31285825900E+03  0.17300000000E+03 0.  1.
         -6    1    1    2    0  503  0.71395104832E+02 -0.13009024126E+03  0.82168163990E+02  0.24228359218E+03  0.17300000000E+03 0.  1.
</event>
<event>
 4    1  0.3065897E+000  0.1000000E+03  0.7546771E-02  0.1280296E+00
         21   -1    0    0  501  502  0.00000000000E+00  0.00000000000E+00  0.74411307247E+02  0.74411307247E+02  0.00000000000E+00 0. -1.
         21   -1    0    0  502  503 -0.00000000000E+00 -0.00000000000E+00 -0.53407082338E+03  0.53407082338E+03  0.00000000000E+00 0.  1.
          6    1    1    2  501    0  0.30631878353E+02  0.82031369340E+02 -0.15915619894E+03  0.25085285166E+03  0.17300000000E+03 0.  1.
         -6    1    1    2    0  503 -0.30631878353E+02 -0.82031369340E+02 -0.30050331719E+03  0.35762927896E+03  0.17300000000E+03 0.  1.
</event>
<event>
 4    1  0.3065897E+000  0.1000000E+03  0.7546771E-02  0.1280296E+00
         21   -1    0    0  501  502  0.00000000000E+00  0.00000000000E+00  0.14443010022E+03  0.14443010022E+03  0.00000000000E+00 0. -1.
         21   -1    0    0  502  503 -0.00000000000E+00 -0.00000000000E+00 -0.27937804434E+03  0.27937804434E+03  0.00000000000E+00 0.  1.
          6    1    1    2  501    0  0.77762506550E+02 -0.50087392557E+02 -0.21906803033E+02  0.19739468670E+03  0.17300000000E+03 0.  1.
         -6    1    1    2    0  503 -0.77762506550E+02  0.50087392557E+02 -0.11304114109E+03  0.22641345785E+03  0.17300000000E+03 0.  1.
</event>
<event>
 4    1  0.3065897E+000  0.1000000E+03  0.7546771E-02  0.1280296E+00
         21   -1    0    0  501  502  0.00000000000E+00  0.00000000000E+00  0.10526882763E+04  0.10526882763E+04  0.00000000000E+00 0. -1.
         21   -1    0    0  502  503 -0.00000000000E+00 -0.00000000000E+00 -0.48410342555E+02  0.48410342555E+02  0.00000000000E+00 0.  1.
          6    1    1    2  501    0 -0.11875869148E+03  0.27148497283E+02  0.69403646390E+03  0.72557307071E+03  0.17300000000E+03 0.  1.
         -6    1    1    2    0  503  0.11875869148E+03 -0.27148497283E+02  0.31024146986E+03  0.37552554817E+03  0.17300000000E+03 0.  1.
</event>
<event>
 4    1  0.3065897E+000  0.1000000E+03  0.7546771E-02  0.1280296E+00
         21   -1    0    0  501  502  0.00000000000E+00  0.00000000000E+00  0.64750656200E+03  0.64750656200E+03  0.00000000000E+00 0. -1.
         21   -1    0    0  502  503 -0.00000000000E+00 -0.00000000000E+00 -0.11711529468E+03  0.11711529468E+03  0.00000000000E+00 0. -1.
          6    1    1    2  501    0 -0.53739227786E+01 -0.14984292191E+03  0.52723921247E+02  0.23492678043E+03  0.17300000000E+03 0. -1.
         -6    1    1    2    0  503  0.53739227786E+01  0.14984292191E+03  0.47766734607E+03  0.52969507624E+03  0.17300000000E+03 0. -1.
</event>
<event>
 4    1  0.3065897E+000  0.1000000E+03  0.7546771E-02  0.1280296E+00
         21   -1    0    0  501  502  0.00000000000E+00  0.00000000000E+00  0.18916539203E+03  0.18916539203E+03  0.00000000000E+00 0. -1.
         21   -1    0    0  502  503 -0.00000000000E+00 -0.00000000000E+00 -0.52410961300E+03  0.52410961300E+03  0.00000000000E+00 0. -1.
          6    1    1    2  501    0  0.83496666520E+02 -0.18201665356E+03  0.25785202298E+02  0.26588650238E+03  0.17300000000E+03 0. -1.
         -6    1    1    2    0  503 -0.83496666520E+02  0.18201665356E+03 -0.36072942327E+03  0.44738850265E+03  0.17300000000E+03 0. -1.
</event>
<event>
 4    1  0.3065897E+000  0.1000000E+03  0.7546771E-02  0.1280296E+00
         21   -1    0    0  503  502  0.00000000000E+00  0.00000000000E+00  0.40734233495E+03  0.40734233495E+03  0.00000000000E+00 0.  1.
         21   -1    0    0  501  503 -0.00000000000E+00 -0.00000000000E+00 -0.62317340402E+03  0.62317340402E+03  0.00000000000E+00 0. -1.
          6    1    1    2  501    0  0.16321555463E+03 -0.17688826191E+03 -0.52457151379E+03  0.60252223822E+03  0.17300000000E+03 0. -1.
         -6    1    1    2    0  502 -0.16321555463E+03  0.17688826191E+03  0.30874044472E+03  0.42799350075E+03  0.17300000000E+03 0.  1.
</event>
<event>
 4    1  0.3065897E+000  0.1000000E+03  0.7546771E-02  0.1280296E+00
         21   -1    0    0  503  502  0.00000000000E+00  0.00000000000E+00  0.86163717747E+03  0.86163717747E+03  0.00000000000E+00 0.  1.
         21   -1    0    0  501  503 -0.00000000000E+00 -0.00000000000E+00 -0.91928657244E+02  0.91928657244E+02  0.00000000000E+00 0. -1.
          6    1    1    2  501    0 -0.12448224374E+03  0.78522788772E+02  0.10331887344E+03  0.24953045300E+03  0.17300000000E+03 0. -1.
         -6    1    1    2    0  502  0.12448224374E+03 -0.78522788772E+02  0.66638964679E+03  0.70403538172E+03  0.17300000000E+03 0.  1.
</event>
<event>
 4    1  0.3065897E+000  0.1000000E+03  0.7546771E-02  0.1280296E+00
         21   -1    0    0  503  502  0.00000000000E+00  0.00000000000E+00  0.12235834840E+02  0.12235834840E+02  0.00000000000E+00 0.  1.
         21   -1    0    0  501  503 -0.00000000000E+00 -0.00000000000E+00 -0.42723616340E+04  0.42723616340E+04  0.00000000000E+00 0. -1.
          6    1    1    2  501    0  0.99292103712E+02  0.38014631707E+02 -0.31146867403E+04  0.31212988522E+04  0.17300000000E+03 0. -1.
         -6    1    1    2    0  502 -0.99292103712E+02 -0.38014631707E+02 -0.11454390588E+04  0.11632986167E+04  0.17300000000E+03 0.  1.
</event>
<event>
 4    1  0.3065897E+000  0.1000000E+03  0.7546771E-02  0.1280296E+00
         21   -1    0    0  501  502  0.00000000000E+00  0.00000000000E+00  0.13217247918E+03  0.13217247918E+03  0.00000000000E+00 0.  1.
         21   -1    0    0  502  503 -0.00000000000E+00 -0.00000000000E+00 -0.99475788197E+03  0.99475788197E+03  0.00000000000E+00 0.  1.
          6    1    1    2  501    0 -0.12290209119E+03  0.28766670325E+03 -0.33685173822E+03  0.49117730985E+03  0.17300000000E+03 0.  1.
         -6    1    1    2    0  503  0.12290209119E+03 -0.28766670325E+03 -0.52573366457E+03  0.63575305130E+03  0.17300000000E+03 0.  1.
</event>
<event>
 4    1  0.3065897E+000  0.1000000E+03  0.7546771E-02  0.1280296E+00
         21   -1    0    0  501  502  0.00000000000E+00  0.00000000000E+00  0.10615696421E+03  0.10615696421E+03  0.00000000000E+00 0.  1.
         21   -1    0    0  502  503 -0.00000000000E+00 -0.00000000000E+00 -0.79194536784E+03  0.79194536784E+03  0.00000000000E+00 0.  1.
          6    1    1    2  501    0 -0.58582778573E+02  0.41691936293E+02 -0.16979050768E+00  0.18734777374E+03  0.17300000000E+03 0.  1.
         -6    1    1    2    0  503  0.58582778573E+02 -0.41691936293E+02 -0.68561861312E+03  0.71075455831E+03  0.17300000000E+03 0.  1.
</event>
<event>
 4    1  0.3065897E+000  0.1000000E+03  0.7546771E-02  0.1280296E+00
         21   -1    0    0  503  502  0.00000000000E+00  0.00000000000E+00  0.12334738796E+03  0.12334738796E+03  0.00000000000E+00 0. -1.
         21   -1    0    0  501  503 -0.00000000000E+00 -0.00000000000E+00 -0.37133571185E+03  0.37133571185E+03  0.00000000000E+00 0.  1.
          6    1    1    2  501    0 -0.83010603488E+02  0.57555879762E+02 -0.21102493484E+03  0.29097072484E+03  0.17300000000E+03 0.  1.
         -6    1    1    2    0  502  0.83010603488E+02 -0.57555879762E+02 -0.36963389047E+02  0.20371237497E+03  0.17300000000E+03 0. -1.
</event>
<event>
 4    1  0.3065897E+000  0.1000000E+03  0.7546771E-02  0.1280296E+00
         21   -1    0    0  503  502  0.00000000000E+00  0.00000000000E+00  0.66292405564E+03  0.66292405564E+03  0.00000000000E+00 0. -1.
         21   -1    0    0  501  503 -0.00000000000E+00 -0.00000000000E+00 -0.17017948358E+03  0.17017948358E+03  0.00000000000E+00 0.  1.
          6    1    1    2  501    0 -0.31747142591E+02 -0.27367756779E+03  0.14276163553E+03  0.35527056837E+03  0.17300000000E+03 0.  1.
         -6    1    1    2    0  502  0.31747142591E+02  0.27367756779E+03  0.34998293653E+03  0.47783297086E+03  0.17300000000E+03 0. -1.
</event>
<event>
 4    1  0.3065897E+000  0.1000000E+03  0.7546771E-02  0.1280296E+00
         21   -1    0    0  501  502  0.00000000000E+00  0.00000000000E+00  0.15337576240E+03  0.15337576240E+03  0.00000000000E+00 0. -1.
         21   -1    0    0  502  503 -0.00000000000E+00 -0.00000000000E+00 -0.54181837705E+03  0.54181837705E+03  0.00000000000E+00 0.  1.
          6    1    1    2  501    0 -0.59189404237E+02  0.69645676748E+02  0.61049689557E+02  0.20496333930E+03  0.17300000000E+03 0.  1.
         -6    1    1    2    0  503  0.59189404237E+02 -0.69645676748E+02 -0.44949230421E+03  0.49023080015E+03  0.17300000000E+03 0.  1.
</event>
<event>
 4    1  0.3065897E+000  0.1000000E+03  0.7546771E-02  0.1280296E+00
         21   -1    0    0  501  502  0.00000000000E+00  0.00000000000E+00  0.21948928082E+03  0.21948928082E+03  0.00000000000E+00 0.  1.
         21   -1    0    0  502  503 -0.00000000000E+00 -0.00000000000E+00 -0.33254682183E+03  0.33254682183E+03  0.00000000000E+00 0. -1.
          6    1    1    2  501    0  0.11013869979E+03 -0.49244396604E+02 -0.22902195899E+03  0.31134482730E+03  0.17300000000E+03 0.  1.
         -6    1    1    2    0  503 -0.11013869979E+03  0.49244396604E+02  0.11596441799E+03  0.24069127534E+03  0.17300000000E+03 0. -1.
</event>
<event>
 4    1  0.3065897E+000  0.1000000E+03  0.7546771E-02  0.1280296E+00
         21   -1    0    0  501  502  0.00000000000E+00  0.00000000000E+00  0.38919042327E+03  0.38919042327E+03  0.00000000000E+00 0.  1.
         21   -1    0    0  502  503 -0.00000000000E+00 -0.00000000000E+00 -0.12205209398E+03  0.12205209398E+03  0.00000000000E+00 0. -1.
          6    1    1    2  501    0 -0.99777997422E+02  0.64625834080E+02  0.20236230822E+03  0.29156757534E+03  0.17300000000E+03 0.  1.
         -6    1    1    2    0  503  0.99777997422E+02 -0.64625834080E+02  0.64776021069E+02  0.21967494192E+03  0.17300000000E+03 0. -1.
</event>
<event>
 4    1  0.3065897E+000  0.1000000E+03  0.7546771E-02  0.1280296E+00
         21   -1    0    0  501  502  0.00000000000E+00  0.00000000000E+00  0.23714605614E+03  0.23714605614E+03  0.00000000000E+00 0.  1.
         21   -1    0    0  502  503 -0.00000000000E+00 -0.00000000000E+00 -0.18029682672E+03  0.18029682672E+03  0.00000000000E+00 0. -1.
          6    1    1    2  501    0 -0.55088799451E+02 -0.98956905395E+02  0.27757765072E+02  0.20863062688E+03  0.17300000000E+03 0.  1.
         -6    1    1    2    0  503  0.55088799451E+02  0.98956905395E+02  0.29091464345E+02  0.20881225598E+03  0.17300000000E+03 0. -1.
</event>
<event>
 4    1  0.3065897E+000  0.1000000E+03  0.7546771E-02  0.1280296E+00
         21   -1    0    0  503  502  0.00000000000E+00  0.00000000000E+00  0.43407509926E+03  0.43407509926E+03  0.00000000000E+00 0.  1.
         21   -1    0    0  501  503 -0.00000000000E+00 -0.00000000000E+00 -0.16486387296E+03  0.16486387296E+03  0.00000000000E+00 0.  1.
          6    1    1    2  501    0  0.12037829455E+02 -0.16076765440E+02 -0.92704604952E+02  0.19729803725E+03  0.17300000000E+03 0.  1.
         -6    1    1    2    0  502 -0.12037829455E+02  0.16076765440E+02  0.36191583126E+03  0.40164093496E+03  0.17300000000E+03 0.  1.
</event>
<event>
 4    1  0.3065897E+000  0.1000000E+03  0.7546771E-02  0.1280296E+00
         21   -1    0    0  503  502  0.00000000000E+00  0.00000000000E+00  0.13577814047E+03  0.13577814047E+03  0.00000000000E+00 0.  1.
         21   -1    0    0  501  503 -0.00000000000E+00 -0.00000000000E+00 -0.41722505196E+03  0.41722505196E+03  0.00000000000E+00 0.  1.
          6    1    1    2  501    0  0.10814370307E+03  0.12121141346E+03 -0.11949961063E+03  0.26569987619E+03  0.17300000000E+03 0.  1.
         -6    1    1    2    0  502 -0.10814370307E+03 -0.12121141346E+03 -0.16194730086E+03  0.28730331624E+03  0.17300000000E+03 0.  1.
</event>
<event>
 4    1  0.3065897E+000  0.1000000E+03  0.7546771E-02  0.1280296E+00
         21   -1    0    0  501  502  0.00000000000E+00  0.00000000000E+00  0.24640466032E+03  0.24640466032E+03  0.00000000000E+00 0. -1.
         21   -1    0    0  502  503 -0.00000000000E+00 -0.00000000000E+00 -0.55519202866E+03  0.55519202866E+03  0.00000000000E+00 0. -1.
          6    1    1    2  501    0 -0.21257737911E+03  0.17928436917E+02  0.11403614703E+03  0.29739504668E+03  0.17300000000E+03 0.  1.
         -6    1    1    2    0  503  0.21257737911E+03 -0.17928436917E+02 -0.42282351536E+03  0.50420164230E+03  0.17300000000E+03 0.  1.
</event>
<event>
 4    1  0.3065897E+000  0.1000000E+03  0.7546771E-02  0.1280296E+00
         21   -1    0    0  501  502  0.00000000000E+00  0.00000000000E+00  0.34091984277E+02  0.34091984277E+02  0.00000000000E+00 0.  1.
         21   -1    0    0  502  503 -0.00000000000E+00 -0.00000000000E+00 -0.17683850822E+04  0.17683850822E+04  0.00000000000E+00 0. -1.
          6    1    1    2  501    0 -0.11454273285E+03 -0.12166192688E+03 -0.68594522784E+03  0.72689168223E+03  0.17300000000E+03 0.  1.
         -6    1    1    2    0  503  0.11454273285E+03  0.12166192688E+03 -0.10483478701E+04  0.10755853842E+04  0.17300000000E+03 0. -1.
</event>
<event>
 4    1  0.3065897E+000  0.1000000E+03  0.7546771E-02  0.1280296E+00
         21   -1    0    0  501  502  0.00000000000E+00  0.00000000000E+00  0.32118505492E+03  0.32118505492E+03  0.00000000000E+00 0.  1.
         21   -1    0    0  502  503 -0.00000000000E+00 -0.00000000000E+00 -0.22080254085E+03  0.22080254085E+03  0.00000000000E+00 0. -1.
          6    1    1    2  501    0 -0.36326869403E+02  0.12066294593E+03  0.21144340292E+03  0.30085960280E+03  0.17300000000E+03 0.  1.
         -6    1    1    2    0  503  0.36326869403E+02 -0.12066294593E+03 -0.11106088885E+03  0.24112799297E+03  0.17300000000E+03 0. -1.
</event>
<event>
 4    1  0.3065897E+000  0.1000000E+03  0.7546771E-02  0.1280296E+00
         21   -1    0    0  501  502  0.00000000000E+00  0.00000000000E+00  0.17872594716E+04  0.17872594716E+04  0.00000000000E+00 0.  1.
         21   -1    0    0  502  503 -0.00000000000E+00 -0.00000000000E+00 -0.26761859183E+02  0.26761859183E+02  0.00000000000E+00 0. -1.
          6    1    1    2  501    0 -0.34393911124E+02  0.11323259619E+03  0.62135845527E+03  0.65575901969E+03  0.17300000000E+03 0.  1.
         -6    1    1    2    0  503  0.34393911124E+02 -0.11323259619E+03  0.11391391572E+04  0.11582623111E+04  0.17300000000E+03 0. -1.
</event>
<event>
 4    1  0.3065897E+000  0.1000000E+03  0.7546771E-02  0.1280296E+00
         21   -1    0    0  501  502  0.00000000000E+00  0.00000000000E+00  0.77091246243E+03  0.77091246243E+03  0.00000000000E+00 0.  1.
         21   -1    0    0  502  503 -0.00000000000E+00 -0.00000000000E+00 -0.12384677640E+03  0.12384677640E+03  0.00000000000E+00 0. -1.
          6    1    1    2  501    0  0.66245004549E+02 -0.10731709634E+02  0.68125620055E+03  0.70607547826E+03  0.17300000000E+03 0.  1.
         -6    1    1    2    0  503 -0.66245004549E+02  0.10731709634E+02 -0.34190514514E+02  0.18868376057E+03  0.17300000000E+03 0. -1.
</event>
<event>
 4    1  0.3065897E+000  0.1000000E+03  0.7546771E-02  0.1280296E+00
         21   -1    0    0  503  502  0.00000000000E+00  0.00000000000E+00  0.14331051239E+03  0.14331051239E+03  0.00000000000E+00 0.  1.
         21   -1    0    0  501  503 -0.00000000000E+00 -0.00000000000E+00 -0.52228954497E+03  0.52228954497E+03  0.00000000000E+00 0.  1.
          6    1    1    2  501    0 -0.10172689805E+03 -0.11232980547E+03 -0.36972812319E+03  0.43542419783E+03  0.17300000000E+03 0.  1.
         -6    1    1    2    0  502  0.10172689805E+03  0.11232980547E+03 -0.92509093885E+01  0.23017585953E+03  0.17300000000E+03 0.  1.
</event>
<event>
 4    1  0.3065897E+000  0.1000000E+03  0.7546771E-02  0.1280296E+00
         21   -1    0    0  503  502  0.00000000000E+00  0.00000000000E+00  0.18677213676E+03  0.18677213676E+03  0.00000000000E+00 0.  1.
         21   -1    0    0  501  503 -0.00000000000E+00 -0.00000000000E+00 -0.24392985396E+03  0.24392985396E+03  0.00000000000E+00 0.  1.
          6    1    1    2  501    0 -0.33906625191E+02 -0.84714596806E+02 -0.11480541856E+03  0.22679397319E+03  0.17300000000E+03 0.  1.
         -6    1    1    2    0  502  0.33906625191E+02  0.84714596806E+02  0.57647701360E+02  0.20390801754E+03  0.17300000000E+03 0.  1.
</event>
<event>
 4    1  0.3065897E+000  0.1000000E+03  0.7546771E-02  0.1280296E+00
         21   -1    0    0  503  502  0.00000000000E+00  0.00000000000E+00  0.42061518666E+03  0.42061518666E+03  0.00000000000E+00 0. -1.
         21   -1    0    0  501  503 -0.00000000000E+00 -0.00000000000E+00 -0.17079971311E+03  0.17079971311E+03  0.00000000000E+00 0. -1.
          6    1    1    2  501    0 -0.73678964732E+02 -0.33317143022E+02 -0.82590401325E+02  0.20805959784E+03  0.17300000000E+03 0. -1.
         -6    1    1    2    0  502  0.73678964732E+02  0.33317143022E+02  0.33240587487E+03  0.38335530192E+03  0.17300000000E+03 0. -1.
</event>
<event>
 4    1  0.3065897E+000  0.1000000E+03  0.7546771E-02  0.1280296E+00
         21   -1    0    0  503  502  0.00000000000E+00  0.00000000000E+00  0.34446638545E+03  0.34446638545E+03  0.00000000000E+00 0. -1.
         21   -1    0    0  501  503 -0.00000000000E+00 -0.00000000000E+00 -0.15216459463E+03  0.15216459463E+03  0.00000000000E+00 0. -1.
          6    1    1    2  501    0  0.96060690675E+02 -0.10147504199E+03  0.37124319063E+02  0.22545965383E+03  0.17300000000E+03 0. -1.
         -6    1    1    2    0  502 -0.96060690675E+02  0.10147504199E+03  0.15517747176E+03  0.27117132625E+03  0.17300000000E+03 0. -1.
</event>
<event>
 4    1  0.3065897E+000  0.1000000E+03  0.7546771E-02  0.1280296E+00
         21   -1    0    0  503  502  0.00000000000E+00  0.00000000000E+00  0.26000020157E+03  0.26000020157E+03  0.00000000000E+00 0.  1.
         21   -1    0    0  501  503 -0.00000000000E+00 -0.00000000000E+00 -0.35680817300E+03  0.35680817300E+03  0.00000000000E+00 0.  1.
          6    1    1    2  501    0  0.36793414324E+02 -0.88229086557E+02 -0.28305129734E+03  0.34523204368E+03  0.17300000000E+03 0.  1.
         -6    1    1    2    0  502 -0.36793414324E+02  0.88229086557E+02  0.18624332592E+03  0.27157633089E+03  0.17300000000E+03 0.  1.
</event>
<event>
 4    1  0.3065897E+000  0.1000000E+03  0.7546771E-02  0.1280296E+00
         21   -1    0    0  503  502  0.00000000000E+00  0.00000000000E+00  0.40060140965E+03  0.40060140965E+03  0.00000000000E+00 0.  1.
         21   -1    0    0  501  503 -0.00000000000E+00 -0.00000000000E+00 -0.20512514208E+03  0.20512514208E+03  0.00000000000E+00 0. -1.
          6    1    1    2  501    0 -0.32339782327E+02 -0.21798015819E+03  0.33618034938E+02  0.28217084037E+03  0.17300000000E+03 0.  1.
         -6    1    1    2    0  502  0.32339782327E+02  0.21798015819E+03  0.16185823263E+03  0.32355571136E+03  0.17300000000E+03 0.  1.
</event>
<event>
 4    1  0.3065897E+000  0.1000000E+03  0.7546771E-02  0.1280296E+00
         21   -1    0    0  503  502  0.00000000000E+00  0.00000000000E+00  0.24695989670E+03  0.24695989670E+03  0.00000000000E+00 0.  1.
         21   -1    0    0  501  503 -0.00000000000E+00 -0.00000000000E+00 -0.20291671884E+03  0.20291671884E+03  0.00000000000E+00 0. -1.
          6    1    1    2  501    0  0.72603034877E+02 -0.93984195880E+02 -0.56323104097E+02  0.21726831753E+03  0.17300000000E+03 0.  1.
         -6    1    1    2    0  502 -0.72603034877E+02  0.93984195880E+02  0.10036628196E+03  0.23260829801E+03  0.17300000000E+03 0.  1.
</event>
<event>
 4    1  0.3065897E+000  0.1000000E+03  0.7546771E-02  0.1280296E+00
         21   -1    0    0  503  502  0.00000000000E+00  0.00000000000E+00  0.72772213455E+02  0.72772213455E+02  0.00000000000E+00 0.  1.
         21   -1    0    0  501  503 -0.00000000000E+00 -0.00000000000E+00 -0.63949397288E+03  0.63949397288E+03  0.00000000000E+00 0.  1.
          6    1    1    2  501    0 -0.33415886104E+02 -0.39931105682E+02 -0.47797581783E+03  0.51098042729E+03  0.17300000000E+03 0.  1.
         -6    1    1    2    0  502  0.33415886104E+02  0.39931105682E+02 -0.88745941600E+02  0.20128575905E+03  0.17300000000E+03 0.  1.
</event>
<event>
 4    1  0.3065897E+000  0.1000000E+03  0.7546771E-02  0.1280296E+00
         21   -1    0    0  503  502  0.00000000000E+00  0.00000000000E+00  0.35454687311E+03  0.35454687311E+03  0.00000000000E+00 0. -1.
         21   -1    0    0  501  503 -0.00000000000E+00 -0.00000000000E+00 -0.46369526293E+03  0.46369526293E+03  0.00000000000E+00 0. -1.
          6    1    1    2  501    0 -0.23394565728E+03  0.28192321597E+03 -0.70888958646E+02  0.41129735559E+03  0.17300000000E+03 0. -1.
         -6    1    1    2    0  502  0.23394565728E+03 -0.28192321597E+03 -0.38259431167E+02  0.40694478045E+03  0.17300000000E+03 0. -1.
</event>
<event>
 4    1  0.3065897E+000  0.1000000E+03  0.7546771E-02  0.1280296E+00
         21   -1    0    0  503  502  0.00000000000E+00  0.00000000000E+00  0.16711125898E+02  0.16711125898E+02  0.00000000000E+00 0. -1.
         21   -1    0    0  501  503 -0.00000000000E+00 -0.00000000000E+00 -0.28364343040E+04  0.28364343040E+04  0.00000000000E+00 0. -1.
          6    1    1    2  501    0 -0.30665497846E+02  0.36939983088E+02 -0.22168016972E+04  0.22240601835E+04  0.17300000000E+03 0. -1.
         -6    1    1    2    0  502  0.30665497846E+02 -0.36939983088E+02 -0.60292148094E+03  0.62908524644E+03  0.17300000000E+03 0. -1.
</event>
<event>
 4    1  0.3065897E+000  0.1000000E+03  0.7546771E-02  0.1280296E+00
         21   -1    0    0  503  502  0.00000000000E+00  0.00000000000E+00  0.11731136947E+04  0.11731136947E+04  0.00000000000E+00 0. -1.
         21   -1    0    0  501  503 -0.00000000000E+00 -0.00000000000E+00 -0.27414537960E+03  0.27414537960E+03  0.00000000000E+00 0.  1.
          6    1    1    2  501    0  0.42389868431E+02  0.29519248444E+03 -0.12506160654E+03  0.36674910940E+03  0.17300000000E+03 0.  1.
         -6    1    1    2    0  502 -0.42389868431E+02 -0.29519248444E+03  0.10240299217E+04  0.10805099649E+04  0.17300000000E+03 0. -1.
</event>
<event>
 4    1  0.3065897E+000  0.1000000E+03  0.7546771E-02  0.1280296E+00
         21   -1    0    0  503  502  0.00000000000E+00  0.00000000000E+00  0.41627788871E+03  0.41627788871E+03  0.00000000000E+00 0. -1.
         21   -1    0    0  501  503 -0.00000000000E+00 -0.00000000000E+00 -0.11561780866E+03  0.11561780866E+03  0.00000000000E+00 0.  1.
          6    1    1    2  501    0 -0.32306088326E+01 -0.13482379894E+03  0.14608825550E+03  0.26355013183E+03  0.17300000000E+03 0.  1.
         -6    1    1    2    0  502  0.32306088326E+01  0.13482379894E+03  0.15457182456E+03  0.26834556553E+03  0.17300000000E+03 0. -1.
</event>
<event>
 4    1  0.3065897E+000  0.1000000E+03  0.7546771E-02  0.1280296E+00
         21   -1    0    0  503  502  0.00000000000E+00  0.00000000000E+00  0.92515395698E+02  0.92515395698E+02  0.00000000000E+00 0. -1.
         21   -1    0    0  501  503 -0.00000000000E+00 -0.00000000000E+00 -0.92493579198E+03  0.92493579198E+03  0.00000000000E+00 0.  1.
          6    1    1    2  501    0 -0.22244265071E+03  0.74812770477E+02 -0.45751547158E+03  0.54251920723E+03  0.17300000000E+03 0.  1.
         -6    1    1    2    0  502  0.22244265071E+03 -0.74812770477E+02 -0.37490492471E+03  0.47493198045E+03  0.17300000000E+03 0. -1.
</event>
<event>
 4    1  0.3065897E+000  0.1000000E+03  0.7546771E-02  0.1280296E+00
         21   -1    0    0  501  502  0.00000000000E+00  0.00000000000E+00  0.69142825045E+03  0.69142825045E+03  0.00000000000E+00 0.  1.
         21   -1    0    0  502  503 -0.00000000000E+00 -0.00000000000E+00 -0.20496670241E+03  0.20496670241E+03  0.00000000000E+00 0.  1.
          6    1    1    2  501    0  0.10045520762E+03 -0.28854580862E+00  0.62290705166E+03  0.65424271262E+03  0.17300000000E+03 0. -1.
         -6    1    1    2    0  503 -0.10045520762E+03  0.28854580862E+00 -0.13644550362E+03  0.24215224024E+03  0.17300000000E+03 0. -1.
</event>
<event>
 4    1  0.3065897E+000  0.1000000E+03  0.7546771E-02  0.1280296E+00
         21   -1    0    0  501  502  0.00000000000E+00  0.00000000000E+00  0.34495326280E+02  0.34495326280E+02  0.00000000000E+00 0.  1.
         21   -1    0    0  502  503 -0.00000000000E+00 -0.00000000000E+00 -0.10057649675E+04  0.10057649675E+04  0.00000000000E+00 0.  1.
          6    1    1    2  501    0 -0.41169529087E+02  0.30689957304E+01 -0.33114349796E+03  0.37588477637E+03  0.17300000000E+03 0. -1.
         -6    1    1    2    0  503  0.41169529087E+02 -0.30689957304E+01 -0.64012614327E+03  0.66437551743E+03  0.17300000000E+03 0. -1.
</event>
<event>
 4    1  0.3065897E+000  0.1000000E+03  0.7546771E-02  0.1280296E+00
         21   -1    0    0  503  502  0.00000000000E+00  0.00000000000E+00  0.22230907782E+03  0.22230907782E+03  0.00000000000E+00 0.  1.
         21   -1    0    0  501  503 -0.00000000000E+00 -0.00000000000E+00 -0.16739378409E+03  0.16739378409E+03  0.00000000000E+00 0.  1.
          6    1    1    2  501    0  0.22756785067E+02  0.29079462748E+02 -0.50263788889E+02  0.18389925202E+03  0.17300000000E+03 0. -1.
         -6    1    1    2    0  502 -0.22756785067E+02 -0.29079462748E+02  0.10517908262E+03  0.20580360988E+03  0.17300000000E+03 0. -1.
</event>
<event>
 4    1  0.3065897E+000  0.1000000E+03  0.7546771E-02  0.1280296E+00
         21   -1    0    0  503  502  0.00000000000E+00  0.00000000000E+00  0.54413409043E+02  0.54413409043E+02  0.00000000000E+00 0.  1.
         21   -1    0    0  501  503 -0.00000000000E+00 -0.00000000000E+00 -0.23339658815E+04  0.23339658815E+04  0.00000000000E+00 0.  1.
          6    1    1    2  501    0 -0.17667741081E+03 -0.86085208658E+02 -0.19498877271E+04  0.19673882990E+04  0.17300000000E+03 0. -1.
         -6    1    1    2    0  502  0.17667741081E+03  0.86085208658E+02 -0.32966474529E+03  0.42099099151E+03  0.17300000000E+03 0. -1.
</event>
<event>
 4    1  0.3065897E+000  0.1000000E+03  0.7546771E-02  0.1280296E+00
         21   -1    0    0  501  502  0.00000000000E+00  0.00000000000E+00  0.21722527863E+03  0.21722527863E+03  0.00000000000E+00 0. -1.
         21   -1    0    0  502  503 -0.00000000000E+00 -0.00000000000E+00 -0.44722647412E+03  0.44722647412E+03  0.00000000000E+00 0.  1.
          6    1    1    2  501    0  0.18459300481E+02  0.25275360213E+03 -0.56670058671E+02  0.31203465307E+03  0.17300000000E+03 0. -1.
         -6    1    1    2    0  503 -0.18459300481E+02 -0.25275360213E+03 -0.17333113682E+03  0.35241709969E+03  0.17300000000E+03 0.  1.
</event>
<event>
 4    1  0.3065897E+000  0.1000000E+03  0.7546771E-02  0.1280296E+00
         21   -1    0    0  501  502  0.00000000000E+00  0.00000000000E+00  0.13955797664E+04  0.13955797664E+04  0.00000000000E+00 0. -1.
         21   -1    0    0  502  503 -0.00000000000E+00 -0.00000000000E+00 -0.27021396826E+02  0.27021396826E+02  0.00000000000E+00 0.  1.
          6    1    1    2  501    0 -0.57029559006E+02 -0.61571878120E+02  0.78378860747E+03  0.80702976895E+03  0.17300000000E+03 0. -1.
         -6    1    1    2    0  503  0.57029559006E+02  0.61571878120E+02  0.58476976211E+03  0.61557139427E+03  0.17300000000E+03 0.  1.
</event>
<event>
 4    1  0.3065897E+000  0.1000000E+03  0.7546771E-02  0.1280296E+00
         21   -1    0    0  501  502  0.00000000000E+00  0.00000000000E+00  0.12880196548E+04  0.12880196548E+04  0.00000000000E+00 0. -1.
         21   -1    0    0  502  503 -0.00000000000E+00 -0.00000000000E+00 -0.37483815215E+02  0.37483815215E+02  0.00000000000E+00 0.  1.
          6    1    1    2  501    0  0.12816820784E+03 -0.44088424099E+01  0.49364162980E+03  0.53856994537E+03  0.17300000000E+03 0. -1.
         -6    1    1    2    0  503 -0.12816820784E+03  0.44088424099E+01  0.75689420982E+03  0.78693352467E+03  0.17300000000E+03 0.  1.
</event>
<event>
 4    1  0.3065897E+000  0.1000000E+03  0.7546771E-02  0.1280296E+00
         21   -1    0    0  501  502  0.00000000000E+00  0.00000000000E+00  0.99930861720E+02  0.99930861720E+02  0.00000000000E+00 0. -1.
         21   -1    0    0  502  503 -0.00000000000E+00 -0.00000000000E+00 -0.63123198848E+03  0.63123198848E+03  0.00000000000E+00 0.  1.
          6    1    1    2  501    0  0.17875117196E+03  0.25589371032E+02 -0.29959300666E+03  0.39024577772E+03  0.17300000000E+03 0. -1.
         -6    1    1    2    0  503 -0.17875117196E+03 -0.25589371032E+02 -0.23170812010E+03  0.34091707248E+03  0.17300000000E+03 0.  1.
</event>
<event>
 4    1  0.3065897E+000  0.1000000E+03  0.7546771E-02  0.1280296E+00
         21   -1    0    0  501  502  0.00000000000E+00  0.00000000000E+00  0.31933958339E+02  0.31933958339E+02  0.00000000000E+00 0. -1.
         21   -1    0    0  502  503 -0.00000000000E+00 -0.00000000000E+00 -0.15612904868E+04  0.15612904868E+04  0.00000000000E+00 0.  1.
          6    1    1    2  501    0  0.51195101710E+02 -0.71566066798E+02 -0.37083898315E+03  0.41856085792E+03  0.17300000000E+03 0. -1.
         -6    1    1    2    0  503 -0.51195101710E+02  0.71566066798E+02 -0.11585175453E+04  0.11746635873E+04  0.17300000000E+03 0.  1.
</event>
<event>
 4    1  0.3065897E+000  0.1000000E+03  0.7546771E-02  0.1280296E+00
         21   -1    0    0  501  502  0.00000000000E+00  0.00000000000E+00  0.75731158199E+02  0.75731158199E+02  0.00000000000E+00 0. -1.
         21   -1    0    0  502  503 -0.00000000000E+00 -0.00000000000E+00 -0.13976093888E+04  0.13976093888E+04  0.00000000000E+00 0.  1.
          6    1    1    2  501    0 -0.17501518318E+03  0.80153812833E+02 -0.21457766308E+03  0.33619565962E+03  0.17300000000E+03 0. -1.
         -6    1    1    2    0  503  0.17501518318E+03 -0.80153812833E+02 -0.11073005675E+04  0.11371448874E+04  0.17300000000E+03 0.  1.
</event>
<event>
 4    1  0.3065897E+000  0.1000000E+03  0.7546771E-02  0.1280296E+00
         21   -1    0    0  503  502  0.00000000000E+00  0.00000000000E+00  0.16987084470E+03  0.16987084470E+03  0.00000000000E+00 0. -1.
         21   -1    0    0  501  503 -0.00000000000E+00 -0.00000000000E+00 -0.19536430275E+03  0.19536430275E+03  0.00000000000E+00 0. -1.
          6    1    1    2  501    0  0.30266437230E+02 -0.48294470838E+02 -0.96919850860E+01  0.18240435223E+03  0.17300000000E+03 0. -1.
         -6    1    1    2    0  502 -0.30266437230E+02  0.48294470838E+02 -0.15801472968E+02  0.18283079523E+03  0.17300000000E+03 0. -1.
</event>
<event>
 4    1  0.3065897E+000  0.1000000E+03  0.7546771E-02  0.1280296E+00
         21   -1    0    0  503  502  0.00000000000E+00  0.00000000000E+00  0.10867712966E+04  0.10867712966E+04  0.00000000000E+00 0. -1.
         21   -1    0    0  501  503 -0.00000000000E+00 -0.00000000000E+00 -0.13936240675E+03  0.13936240675E+03  0.00000000000E+00 0. -1.
          6    1    1    2  501    0 -0.16788730002E+03  0.80586751271E+02  0.94670936585E+01  0.25435997297E+03  0.17300000000E+03 0. -1.
         -6    1    1    2    0  502  0.16788730002E+03 -0.80586751271E+02  0.93794179616E+03  0.97177373034E+03  0.17300000000E+03 0. -1.
</event>
<event>
 4    1  0.3065897E+000  0.1000000E+03  0.7546771E-02  0.1280296E+00
         21   -1    0    0  501  502  0.00000000000E+00  0.00000000000E+00  0.92488149166E+03  0.92488149166E+03  0.00000000000E+00 0. -1.
         21   -1    0    0  502  503 -0.00000000000E+00 -0.00000000000E+00 -0.54361318931E+02  0.54361318931E+02  0.00000000000E+00 0.  1.
          6    1    1    2  501    0 -0.45171083620E+02 -0.79179070462E+02  0.67484972405E+03  0.70261006401E+03  0.17300000000E+03 0. -1.
         -6    1    1    2    0  503  0.45171083620E+02  0.79179070462E+02  0.19567044867E+03  0.27663274658E+03  0.17300000000E+03 0.  1.
</event>
<event>
 4    1  0.3065897E+000  0.1000000E+03  0.7546771E-02  0.1280296E+00
         21   -1    0    0  503  502  0.00000000000E+00  0.00000000000E+00  0.20361202008E+03  0.20361202008E+03  0.00000000000E+00 0. -1.
         21   -1    0    0  501  503 -0.00000000000E+00 -0.00000000000E+00 -0.26693133928E+03  0.26693133928E+03  0.00000000000E+00 0.  1.
          6    1    1    2  501    0  0.53961112308E+02 -0.89576856741E+02 -0.14885316138E+03  0.25104198565E+03  0.17300000000E+03 0. -1.
         -6    1    1    2    0  502 -0.53961112308E+02  0.89576856741E+02  0.85533842181E+02  0.21950137372E+03  0.17300000000E+03 0. -1.
</event>
<event>
 4    1  0.3065897E+000  0.1000000E+03  0.7546771E-02  0.1280296E+00
         21   -1    0    0  503  502  0.00000000000E+00  0.00000000000E+00  0.22879147557E+03  0.22879147557E+03  0.00000000000E+00 0. -1.
         21   -1    0    0  501  503 -0.00000000000E+00 -0.00000000000E+00 -0.26194086014E+03  0.26194086014E+03  0.00000000000E+00 0.  1.
          6    1    1    2  501    0  0.15815245827E+03 -0.74845173288E+01 -0.86968080730E+02  0.25012130082E+03  0.17300000000E+03 0. -1.
         -6    1    1    2    0  502 -0.15815245827E+03  0.74845173288E+01  0.53818696156E+02  0.24061103489E+03  0.17300000000E+03 0. -1.
</event>
<event>
 4    1  0.3065897E+000  0.1000000E+03  0.7546771E-02  0.1280296E+00
         21   -1    0    0  503  502  0.00000000000E+00  0.00000000000E+00  0.13308556696E+04  0.13308556696E+04  0.00000000000E+00 0. -1.
         21   -1    0    0  501  503 -0.00000000000E+00 -0.00000000000E+00 -0.62433721119E+02  0.62433721119E+02  0.00000000000E+00 0.  1.
          6    1    1    2  501    0  0.65522405614E+02  0.20064460419E+03  0.40996043022E+03  0.49249162142E+03  0.17300000000E+03 0. -1.
         -6    1    1    2    0  502 -0.65522405614E+02 -0.20064460419E+03  0.85846151823E+03  0.90079776926E+03  0.17300000000E+03 0. -1.
</event>
<event>
 4    1  0.3065897E+000  0.1000000E+03  0.7546771E-02  0.1280296E+00
         21   -1    0    0  503  502  0.00000000000E+00  0.00000000000E+00  0.12622145529E+04  0.12622145529E+04  0.00000000000E+00 0.  1.
         21   -1    0    0  501  503 -0.00000000000E+00 -0.00000000000E+00 -0.77055411935E+02  0.77055411935E+02  0.00000000000E+00 0. -1.
          6    1    1    2  501    0  0.12203986640E+03 -0.16993239618E+03  0.26299703303E+03  0.37797776078E+03  0.17300000000E+03 0. -1.
         -6    1    1    2    0  502 -0.12203986640E+03  0.16993239618E+03  0.92216210791E+03  0.96129220403E+03  0.17300000000E+03 0.  1.
</event>
<event>
 4    1  0.3065897E+000  0.1000000E+03  0.7546771E-02  0.1280296E+00
         21   -1    0    0  501  502  0.00000000000E+00  0.00000000000E+00  0.23403084585E+04  0.23403084585E+04  0.00000000000E+00 0.  1.
         21   -1    0    0  502  503 -0.00000000000E+00 -0.00000000000E+00 -0.10990280204E+03  0.10990280204E+03  0.00000000000E+00 0. -1.
          6    1    1    2  501    0  0.34111120169E+02  0.11863642156E+03  0.22275510654E+04  0.22376664001E+04  0.17300000000E+03 0.  1.
         -6    1    1    2    0  503 -0.34111120169E+02 -0.11863642156E+03  0.28545911045E+01  0.21254486051E+03  0.17300000000E+03 0. -1.
</event>
<event>
 4    1  0.3065897E+000  0.1000000E+03  0.7546771E-02  0.1280296E+00
         21   -1    0    0  501  502  0.00000000000E+00  0.00000000000E+00  0.54570569078E+03  0.54570569078E+03  0.00000000000E+00 0.  1.
         21   -1    0    0  502  503 -0.00000000000E+00 -0.00000000000E+00 -0.11444884589E+03  0.11444884589E+03  0.00000000000E+00 0. -1.
          6    1    1    2  501    0 -0.82405071794E+02  0.26920880208E+02  0.42450834032E+03  0.46653152160E+03  0.17300000000E+03 0.  1.
         -6    1    1    2    0  503  0.82405071794E+02 -0.26920880208E+02  0.67485045731E+01  0.19362301506E+03  0.17300000000E+03 0. -1.
</event>
<event>
 4    1  0.3065897E+000  0.1000000E+03  0.7546771E-02  0.1280296E+00
         21   -1    0    0  501  502  0.00000000000E+00  0.00000000000E+00  0.53232637976E+03  0.53232637976E+03  0.00000000000E+00 0.  1.
         21   -1    0    0  502  503 -0.00000000000E+00 -0.00000000000E+00 -0.27508581265E+03  0.27508581265E+03  0.00000000000E+00 0. -1.
          6    1    1    2  501    0 -0.33916580985E+03  0.33338334761E+02  0.14867989775E+03  0.41009706550E+03  0.17300000000E+03 0.  1.
         -6    1    1    2    0  503  0.33916580985E+03 -0.33338334761E+02  0.10856066936E+03  0.39731512691E+03  0.17300000000E+03 0. -1.
</event>
<event>
 4    1  0.3065897E+000  0.1000000E+03  0.7546771E-02  0.1280296E+00
         21   -1    0    0  501  502  0.00000000000E+00  0.00000000000E+00  0.18966363922E+03  0.18966363922E+03  0.00000000000E+00 0.  1.
         21   -1    0    0  502  503 -0.00000000000E+00 -0.00000000000E+00 -0.45844585188E+03  0.45844585188E+03  0.00000000000E+00 0. -1.
          6    1    1    2  501    0 -0.48531947215E+02 -0.46793740714E+02  0.11735616499E+03  0.21965079907E+03  0.17300000000E+03 0.  1.
         -6    1    1    2    0  503  0.48531947215E+02  0.46793740714E+02 -0.38613837765E+03  0.42845869202E+03  0.17300000000E+03 0. -1.
</event>
<event>
 4    1  0.3065897E+000  0.1000000E+03  0.7546771E-02  0.1280296E+00
         21   -1    0    0  503  502  0.00000000000E+00  0.00000000000E+00  0.24946181450E+03  0.24946181450E+03  0.00000000000E+00 0.  1.
         21   -1    0    0  501  503 -0.00000000000E+00 -0.00000000000E+00 -0.13710333777E+03  0.13710333777E+03  0.00000000000E+00 0.  1.
          6    1    1    2  501    0 -0.32159114789E+02 -0.51310894852E+01  0.11541567728E+03  0.21050015512E+03  0.17300000000E+03 0.  1.
         -6    1    1    2    0  502  0.32159114789E+02  0.51310894852E+01 -0.30572005531E+01  0.17606499714E+03  0.17300000000E+03 0.  1.
</event>
<event>
 4    1  0.3065897E+000  0.1000000E+03  0.7546771E-02  0.1280296E+00
         21   -1    0    0  503  502  0.00000000000E+00  0.00000000000E+00  0.66136490548E+03  0.66136490548E+03  0.00000000000E+00 0.  1.
         21   -1    0    0  501  503 -0.00000000000E+00 -0.00000000000E+00 -0.23351638095E+03  0.23351638095E+03  0.00000000000E+00 0.  1.
          6    1    1    2  501    0 -0.53393069371E+02 -0.18028795071E+03 -0.12603854511E+03  0.28490222863E+03  0.17300000000E+03 0.  1.
         -6    1    1    2    0  502  0.53393069371E+02  0.18028795071E+03  0.55388706964E+03  0.60997905779E+03  0.17300000000E+03 0.  1.
</event>
<event>
 4    1  0.3065897E+000  0.1000000E+03  0.7546771E-02  0.1280296E+00
         21   -1    0    0  503  502  0.00000000000E+00  0.00000000000E+00  0.57464254908E+03  0.57464254908E+03  0.00000000000E+00 0.  1.
         21   -1    0    0  501  503 -0.00000000000E+00 -0.00000000000E+00 -0.10219624370E+03  0.10219624370E+03  0.00000000000E+00 0.  1.
          6    1    1    2  501    0  0.52652669095E+02 -0.72413501792E+02  0.34908607744E+02  0.19789802854E+03  0.17300000000E+03 0.  1.
         -6    1    1    2    0  502 -0.52652669095E+02  0.72413501792E+02  0.43753769763E+03  0.47894076424E+03  0.17300000000E+03 0.  1.
</event>
<event>
 4    1  0.3065897E+000  0.1000000E+03  0.7546771E-02  0.1280296E+00
         21   -1    0    0  503  502  0.00000000000E+00  0.00000000000E+00  0.21087286537E+04  0.21087286537E+04  0.00000000000E+00 0.  1.
         21   -1    0    0  501  503 -0.00000000000E+00 -0.00000000000E+00 -0.87635093593E+02  0.87635093593E+02  0.00000000000E+00 0.  1.
          6    1    1    2  501    0 -0.27975067612E+03  0.21328115797E+03  0.55988880687E+03  0.68348648062E+03  0.17300000000E+03 0.  1.
         -6    1    1    2    0  502  0.27975067612E+03 -0.21328115797E+03  0.14612047533E+04  0.15128772667E+04  0.17300000000E+03 0.  1.
</event>
<event>
 4    1  0.3065897E+000  0.1000000E+03  0.7546771E-02  0.1280296E+00
         21   -1    0    0  503  502  0.00000000000E+00  0.00000000000E+00  0.65257254536E+02  0.65257254536E+02  0.00000000000E+00 0.  1.
         21   -1    0    0  501  503 -0.00000000000E+00 -0.00000000000E+00 -0.48218296496E+03  0.48218296496E+03  0.00000000000E+00 0.  1.
          6    1    1    2  501    0  0.10643180863E+02 -0.33335622443E+02 -0.18118949001E+03  0.25294895199E+03  0.17300000000E+03 0.  1.
         -6    1    1    2    0  502 -0.10643180863E+02  0.33335622443E+02 -0.23573622041E+03  0.29449126750E+03  0.17300000000E+03 0.  1.
</event>
<event>
 4    1  0.3065897E+000  0.1000000E+03  0.7546771E-02  0.1280296E+00
         21   -1    0    0  503  502  0.00000000000E+00  0.00000000000E+00  0.18537735973E+04  0.18537735973E+04  0.00000000000E+00 0. -1.
         21   -1    0    0  501  503 -0.00000000000E+00 -0.00000000000E+00 -0.22281677372E+02  0.22281677372E+02  0.00000000000E+00 0.  1.
          6    1    1    2  501    0  0.73240823201E+02  0.38925422889E+02  0.60624350759E+03  0.63587702995E+03  0.17300000000E+03 0.  1.
         -6    1    1    2    0  502 -0.73240823201E+02 -0.38925422889E+02  0.12252484124E+04  0.12401782447E+04  0.17300000000E+03 0. -1.
</event>
<event>
 4    1  0.3065897E+000  0.1000000E+03  0.7546771E-02  0.1280296E+00
         21   -1    0    0  503  502  0.00000000000E+00  0.00000000000E+00  0.74555116496E+02  0.74555116496E+02  0.00000000000E+00 0. -1.
         21   -1    0    0  501  503 -0.00000000000E+00 -0.00000000000E+00 -0.63016009409E+03  0.63016009409E+03  0.00000000000E+00 0. -1.
          6    1    1    2  501    0  0.51857959499E+02  0.51294064023E+02 -0.45388313133E+03  0.49118145921E+03  0.17300000000E+03 0. -1.
         -6    1    1    2    0  502 -0.51857959499E+02 -0.51294064023E+02 -0.10172184626E+03  0.21353375137E+03  0.17300000000E+03 0. -1.
</event>
<event>
 4    1  0.3065897E+000  0.1000000E+03  0.7546771E-02  0.1280296E+00
         21   -1    0    0  503  502  0.00000000000E+00  0.00000000000E+00  0.53428548486E+03  0.53428548486E+03  0.00000000000E+00 0.  1.
         21   -1    0    0  501  503 -0.00000000000E+00 -0.00000000000E+00 -0.13493755499E+03  0.13493755499E+03  0.00000000000E+00 0.  1.
          6    1    1    2  501    0  0.28910326924E+02  0.13780965023E+03  0.13414485111E+02  0.22346421438E+03  0.17300000000E+03 0.  1.
         -6    1    1    2    0  502 -0.28910326924E+02 -0.13780965023E+03  0.38593344476E+03  0.44575882547E+03  0.17300000000E+03 0.  1.
</event>
<event>
 4    1  0.3065897E+000  0.1000000E+03  0.7546771E-02  0.1280296E+00
         21   -1    0    0  503  502  0.00000000000E+00  0.00000000000E+00  0.30541234011E+03  0.30541234011E+03  0.00000000000E+00 0.  1.
         21   -1    0    0  501  503 -0.00000000000E+00 -0.00000000000E+00 -0.28448518108E+03  0.28448518108E+03  0.00000000000E+00 0.  1.
          6    1    1    2  501    0 -0.12247355527E+03  0.20448957941E+03 -0.13982135085E+01  0.29452795254E+03  0.17300000000E+03 0.  1.
         -6    1    1    2    0  502  0.12247355527E+03 -0.20448957941E+03  0.22325372537E+02  0.29536956865E+03  0.17300000000E+03 0.  1.
</event>
<event>
 4    1  0.3065897E+000  0.1000000E+03  0.7546771E-02  0.1280296E+00
         21   -1    0    0  503  502  0.00000000000E+00  0.00000000000E+00  0.35474435804E+03  0.35474435804E+03  0.00000000000E+00 0.  1.
         21   -1    0    0  501  503 -0.00000000000E+00 -0.00000000000E+00 -0.91003225883E+02  0.91003225883E+02  0.00000000000E+00 0.  1.
          6    1    1    2  501    0 -0.37387730492E+02  0.29703981441E+02  0.12122075072E+03  0.21657248050E+03  0.17300000000E+03 0.  1.
         -6    1    1    2    0  502  0.37387730492E+02 -0.29703981441E+02  0.14252038144E+03  0.22917510343E+03  0.17300000000E+03 0.  1.
</event>
<event>
 4    1  0.3065897E+000  0.1000000E+03  0.7546771E-02  0.1280296E+00
         21   -1    0    0  503  502  0.00000000000E+00  0.00000000000E+00  0.32856232035E+03  0.32856232035E+03  0.00000000000E+00 0.  1.
         21   -1    0    0  501  503 -0.00000000000E+00 -0.00000000000E+00 -0.71866860659E+03  0.71866860659E+03  0.00000000000E+00 0. -1.
          6    1    1    2  501    0  0.91423995227E+02 -0.12743959634E+03 -0.65424718710E+03  0.69467084252E+03  0.17300000000E+03 0. -1.
         -6    1    1    2    0  502 -0.91423995227E+02  0.12743959634E+03  0.26414090086E+03  0.35256008442E+03  0.17300000000E+03 0.  1.
</event>
<event>
 4    1  0.3065897E+000  0.1000000E+03  0.7546771E-02  0.1280296E+00
         21   -1    0    0  503  502  0.00000000000E+00  0.00000000000E+00  0.11373373542E+03  0.11373373542E+03  0.00000000000E+00 0.  1.
         21   -1    0    0  501  503 -0.00000000000E+00 -0.00000000000E+00 -0.34108798455E+03  0.34108798455E+03  0.00000000000E+00 0. -1.
          6    1    1    2  501    0 -0.86033512634E+02 -0.65230036069E+00 -0.15782501596E+03  0.24947931067E+03  0.17300000000E+03 0. -1.
         -6    1    1    2    0  502  0.86033512634E+02  0.65230036069E+00 -0.69529233174E+02  0.20534240930E+03  0.17300000000E+03 0.  1.
</event>
<event>
 4    1  0.3065897E+000  0.1000000E+03  0.7546771E-02  0.1280296E+00
         21   -1    0    0  503  502  0.00000000000E+00  0.00000000000E+00  0.40101053839E+03  0.40101053839E+03  0.00000000000E+00 0.  1.
         21   -1    0    0  501  503 -0.00000000000E+00 -0.00000000000E+00 -0.15666057967E+03  0.15666057967E+03  0.00000000000E+00 0.  1.
          6    1    1    2  501    0 -0.16396001460E+02  0.12795091475E+03 -0.19652662100E+02  0.21669216086E+03  0.17300000000E+03 0.  1.
         -6    1    1    2    0  502  0.16396001460E+02 -0.12795091475E+03  0.26400262082E+03  0.34097895719E+03  0.17300000000E+03 0.  1.
</event>
<event>
 4    1  0.3065897E+000  0.1000000E+03  0.7546771E-02  0.1280296E+00
         21   -1    0    0  501  502  0.00000000000E+00  0.00000000000E+00  0.68388301985E+02  0.68388301985E+02  0.00000000000E+00 0. -1.
         21   -1    0    0  502  503 -0.00000000000E+00 -0.00000000000E+00 -0.15603242653E+04  0.15603242653E+04  0.00000000000E+00 0.  1.
          6    1    1    2  501    0 -0.86742807456E+02 -0.24827715582E+03 -0.96348633969E+03  0.10136078075E+04  0.17300000000E+03 0. -1.
         -6    1    1    2    0  503  0.86742807456E+02  0.24827715582E+03 -0.52844962366E+03  0.61510475977E+03  0.17300000000E+03 0.  1.
</event>
<event>
 4    1  0.3065897E+000  0.1000000E+03  0.7546771E-02  0.1280296E+00
         21   -1    0    0  503  502  0.00000000000E+00  0.00000000000E+00  0.97121605916E+03  0.97121605916E+03  0.00000000000E+00 0. -1.
         21   -1    0    0  501  503 -0.00000000000E+00 -0.00000000000E+00 -0.14624877138E+03  0.14624877138E+03  0.00000000000E+00 0. -1.
          6    1    1    2  501    0  0.92455301714E+02  0.11659981670E+03 -0.32189207164E+02  0.23045313000E+03  0.17300000000E+03 0. -1.
         -6    1    1    2    0  502 -0.92455301714E+02 -0.11659981670E+03  0.85715649494E+03  0.88701170054E+03  0.17300000000E+03 0. -1.
</event>
<event>
 4    1  0.3065897E+000  0.1000000E+03  0.7546771E-02  0.1280296E+00
         21   -1    0    0  501  502  0.00000000000E+00  0.00000000000E+00  0.18770157241E+03  0.18770157241E+03  0.00000000000E+00 0. -1.
         21   -1    0    0  502  503 -0.00000000000E+00 -0.00000000000E+00 -0.66371598391E+03  0.66371598391E+03  0.00000000000E+00 0. -1.
          6    1    1    2  501    0 -0.82180701037E+02  0.85200619478E+02  0.10449180873E+03  0.23422286668E+03  0.17300000000E+03 0. -1.
         -6    1    1    2    0  503  0.82180701037E+02 -0.85200619478E+02 -0.58050622024E+03  0.61719468964E+03  0.17300000000E+03 0. -1.
</event>
<event>
 4    1  0.3065897E+000  0.1000000E+03  0.7546771E-02  0.1280296E+00
         21   -1    0    0  501  502  0.00000000000E+00  0.00000000000E+00  0.43478910667E+02  0.43478910667E+02  0.00000000000E+00 0. -1.
         21   -1    0    0  502  503 -0.00000000000E+00 -0.00000000000E+00 -0.12222398363E+04  0.12222398363E+04  0.00000000000E+00 0. -1.
          6    1    1    2  501    0  0.29216644618E+02  0.87675471973E+02 -0.25684714951E+03  0.32317187211E+03  0.17300000000E+03 0. -1.
         -6    1    1    2    0  503 -0.29216644618E+02 -0.87675471973E+02 -0.92191377613E+03  0.94254687487E+03  0.17300000000E+03 0. -1.
</event>
<event>
 4    1  0.3065897E+000  0.1000000E+03  0.7546771E-02  0.1280296E+00
         21   -1    0    0  501  502  0.00000000000E+00  0.00000000000E+00  0.63584767436E+03  0.63584767436E+03  0.00000000000E+00 0.  1.
         21   -1    0    0  502  503 -0.00000000000E+00 -0.00000000000E+00 -0.96586981725E+02  0.96586981725E+02  0.00000000000E+00 0.  1.
          6    1    1    2  501    0 -0.91495074595E+01  0.10754844529E+03  0.47775408874E+03  0.51945004657E+03  0.17300000000E+03 0.  1.
         -6    1    1    2    0  503  0.91495074595E+01 -0.10754844529E+03  0.61506603899E+02  0.21298460952E+03  0.17300000000E+03 0.  1.
</event>
<event>
 4    1  0.3065897E+000  0.1000000E+03  0.7546771E-02  0.1280296E+00
         21   -1    0    0  501  502  0.00000000000E+00  0.00000000000E+00  0.12888524160E+03  0.12888524160E+03  0.00000000000E+00 0. -1.
         21   -1    0    0  502  503 -0.00000000000E+00 -0.00000000000E+00 -0.40062620185E+03  0.40062620185E+03  0.00000000000E+00 0.  1.
          6    1    1    2  501    0  0.99726460944E+02  0.72214859587E+02 -0.41606906286E+02  0.21638042335E+03  0.17300000000E+03 0. -1.
         -6    1    1    2    0  503 -0.99726460944E+02 -0.72214859587E+02 -0.23013405396E+03  0.31313102010E+03  0.17300000000E+03 0.  1.
</event>
<event>
 4    1  0.3065897E+000  0.1000000E+03  0.7546771E-02  0.1280296E+00
         21   -1    0    0  501  502  0.00000000000E+00  0.00000000000E+00  0.90444231043E+02  0.90444231043E+02  0.00000000000E+00 0. -1.
         21   -1    0    0  502  503 -0.00000000000E+00 -0.00000000000E+00 -0.78073548204E+03  0.78073548204E+03  0.00000000000E+00 0.  1.
          6    1    1    2  501    0 -0.62322060084E+02  0.88441371355E+02 -0.66103125200E+02  0.21448668607E+03  0.17300000000E+03 0. -1.
         -6    1    1    2    0  503  0.62322060084E+02 -0.88441371355E+02 -0.62418812580E+03  0.65669302702E+03  0.17300000000E+03 0.  1.
</event>
<event>
 4    1  0.3065897E+000  0.1000000E+03  0.7546771E-02  0.1280296E+00
         21   -1    0    0  501  502  0.00000000000E+00  0.00000000000E+00  0.75776326667E+02  0.75776326667E+02  0.00000000000E+00 0. -1.
         21   -1    0    0  502  503 -0.00000000000E+00 -0.00000000000E+00 -0.89457387771E+03  0.89457387771E+03  0.00000000000E+00 0.  1.
          6    1    1    2  501    0 -0.19070452794E+03 -0.62670661308E+01 -0.48038297925E+03  0.54507274730E+03  0.17300000000E+03 0. -1.
         -6    1    1    2    0  503  0.19070452794E+03  0.62670661308E+01 -0.33841457179E+03  0.42527745707E+03  0.17300000000E+03 0.  1.
</event>
<event>
 4    1  0.3065897E+000  0.1000000E+03  0.7546771E-02  0.1280296E+00
         21   -1    0    0  501  502  0.00000000000E+00  0.00000000000E+00  0.16593844939E+03  0.16593844939E+03  0.00000000000E+00 0.  1.
         21   -1    0    0  502  503 -0.00000000000E+00 -0.00000000000E+00 -0.32605417459E+03  0.32605417459E+03  0.00000000000E+00 0.  1.
          6    1    1    2  501    0  0.46654727733E+02 -0.13147075726E+03 -0.74410378082E+01  0.22236364963E+03  0.17300000000E+03 0.  1.
         -6    1    1    2    0  503 -0.46654727733E+02  0.13147075726E+03 -0.15267468740E+03  0.26962897435E+03  0.17300000000E+03 0.  1.
</event>
<event>
 4    1  0.3065897E+000  0.1000000E+03  0.7546771E-02  0.1280296E+00
         21   -1    0    0  501  502  0.00000000000E+00  0.00000000000E+00  0.44938337661E+03  0.44938337661E+03  0.00000000000E+00 0.  1.
         21   -1    0    0  502  503 -0.00000000000E+00 -0.00000000000E+00 -0.80429145272E+02  0.80429145272E+02  0.00000000000E+00 0.  1.
          6    1    1    2  501    0 -0.39050341544E+02  0.49727082431E+02  0.25008274870E+03  0.31059313112E+03  0.17300000000E+03 0.  1.
         -6    1    1    2    0  503  0.39050341544E+02 -0.49727082431E+02  0.11887148264E+03  0.21921939077E+03  0.17300000000E+03 0.  1.
</event>
<event>
 4    1  0.3065897E+000  0.1000000E+03  0.7546771E-02  0.1280296E+00
         21   -1    0    0  501  502  0.00000000000E+00  0.00000000000E+00  0.56391079907E+02  0.56391079907E+02  0.00000000000E+00 0.  1.
         21   -1    0    0  502  503 -0.00000000000E+00 -0.00000000000E+00 -0.14913423981E+04  0.14913423981E+04  0.00000000000E+00 0.  1.
          6    1    1    2  501    0  0.20211396511E+02 -0.12929967735E+03 -0.20387869873E+03  0.29769519799E+03  0.17300000000E+03 0.  1.
         -6    1    1    2    0  503 -0.20211396511E+02  0.12929967735E+03 -0.12310726195E+04  0.12500382800E+04  0.17300000000E+03 0.  1.
</event>
<event>
 4    1  0.3065897E+000  0.1000000E+03  0.7546771E-02  0.1280296E+00
         21   -1    0    0  501  502  0.00000000000E+00  0.00000000000E+00  0.27978965562E+03  0.27978965562E+03  0.00000000000E+00 0.  1.
         21   -1    0    0  502  503 -0.00000000000E+00 -0.00000000000E+00 -0.19824125013E+03  0.19824125013E+03  0.00000000000E+00 0.  1.
          6    1    1    2  501    0  0.14859643652E+03  0.57729099918E+02  0.29504907520E+02  0.23709299756E+03  0.17300000000E+03 0.  1.
         -6    1    1    2    0  503 -0.14859643652E+03 -0.57729099918E+02  0.52043497970E+02  0.24093790819E+03  0.17300000000E+03 0.  1.
</event>
<event>
 4    1  0.3065897E+000  0.1000000E+03  0.7546771E-02  0.1280296E+00
         21   -1    0    0  503  502  0.00000000000E+00  0.00000000000E+00  0.15008395014E+03  0.15008395014E+03  0.00000000000E+00 0. -1.
         21   -1    0    0  501  503 -0.00000000000E+00 -0.00000000000E+00 -0.31311914151E+03  0.31311914151E+03  0.00000000000E+00 0.  1.
          6    1    1    2  501    0 -0.84989325070E+02 -0.39515445747E+02 -0.17873585638E+03  0.26581979269E+03  0.17300000000E+03 0. -1.
         -6    1    1    2    0  502  0.84989325070E+02  0.39515445747E+02  0.15700665004E+02  0.19738329896E+03  0.17300000000E+03 0.  1.
</event>
<event>
 4    1  0.3065897E+000  0.1000000E+03  0.7546771E-02  0.1280296E+00
         21   -1    0    0  503  502  0.00000000000E+00  0.00000000000E+00  0.53467374633E+03  0.53467374633E+03  0.00000000000E+00 0. -1.
         21   -1    0    0  501  503 -0.00000000000E+00 -0.00000000000E+00 -0.71686642812E+02  0.71686642812E+02  0.00000000000E+00 0.  1.
          6    1    1    2  501    0 -0.53512619205E+02 -0.59539476067E+02  0.16238714699E+03  0.25041392759E+03  0.17300000000E+03 0. -1.
         -6    1    1    2    0  502  0.53512619205E+02  0.59539476067E+02  0.30059995652E+03  0.35594646155E+03  0.17300000000E+03 0.  1.
</event>
<event>
 4    1  0.3065897E+000  0.1000000E+03  0.7546771E-02  0.1280296E+00
         21   -1    0    0  503  502  0.00000000000E+00  0.00000000000E+00  0.23670309196E+03  0.23670309196E+03  0.00000000000E+00 0. -1.
         21   -1    0    0  501  503 -0.00000000000E+00 -0.00000000000E+00 -0.26385189261E+03  0.26385189261E+03  0.00000000000E+00 0. -1.
          6    1    1    2  501    0 -0.42287581444E+02 -0.68884189539E+02 -0.17503329501E+03  0.25903460285E+03  0.17300000000E+03 0. -1.
         -6    1    1    2    0  502  0.42287581444E+02  0.68884189539E+02  0.14788449436E+03  0.24152038171E+03  0.17300000000E+03 0. -1.
</event>
<event>
 4    1  0.3065897E+000  0.1000000E+03  0.7546771E-02  0.1280296E+00
         21   -1    0    0  501  502  0.00000000000E+00  0.00000000000E+00  0.49004800645E+03  0.49004800645E+03  0.00000000000E+00 0. -1.
         21   -1    0    0  502  503 -0.00000000000E+00 -0.00000000000E+00 -0.11123855011E+03  0.11123855011E+03  0.00000000000E+00 0. -1.
          6    1    1    2  501    0 -0.96704323403E+02 -0.11118366336E+03  0.25838462072E+03  0.34410048734E+03  0.17300000000E+03 0. -1.
         -6    1    1    2    0  503  0.96704323403E+02  0.11118366336E+03  0.12042483563E+03  0.25718606922E+03  0.17300000000E+03 0. -1.
</event>
<event>
 4    1  0.3065897E+000  0.1000000E+03  0.7546771E-02  0.1280296E+00
         21   -1    0    0  501  502  0.00000000000E+00  0.00000000000E+00  0.15459559960E+03  0.15459559960E+03  0.00000000000E+00 0. -1.
         21   -1    0    0  502  503 -0.00000000000E+00 -0.00000000000E+00 -0.31112432373E+03  0.31112432373E+03  0.00000000000E+00 0. -1.
          6    1    1    2  501    0  0.36608358423E+02  0.98419836390E+02 -0.16799979949E+03  0.26302009188E+03  0.17300000000E+03 0. -1.
         -6    1    1    2    0  503 -0.36608358423E+02 -0.98419836390E+02  0.11471075360E+02  0.20269983145E+03  0.17300000000E+03 0. -1.
</event>
<event>
 4    1  0.3065897E+000  0.1000000E+03  0.7546771E-02  0.1280296E+00
         21   -1    0    0  501  502  0.00000000000E+00  0.00000000000E+00  0.22408306498E+03  0.22408306498E+03  0.00000000000E+00 0. -1.
         21   -1    0    0  502  503 -0.00000000000E+00 -0.00000000000E+00 -0.28379231706E+03  0.28379231706E+03  0.00000000000E+00 0.  1.
          6    1    1    2  501    0  0.75708247389E+02 -0.12474317069E+03 -0.14185841612E+03  0.26710561129E+03  0.17300000000E+03 0.  1.
         -6    1    1    2    0  503 -0.75708247389E+02  0.12474317069E+03  0.82149164034E+02  0.24076977075E+03  0.17300000000E+03 0.  1.
</event>
<event>
 4    1  0.3065897E+000  0.1000000E+03  0.7546771E-02  0.1280296E+00
         21   -1    0    0  501  502  0.00000000000E+00  0.00000000000E+00  0.41290700241E+02  0.41290700241E+02  0.00000000000E+00 0. -1.
         21   -1    0    0  502  503 -0.00000000000E+00 -0.00000000000E+00 -0.11119447949E+04  0.11119447949E+04  0.00000000000E+00 0.  1.
          6    1    1    2  501    0 -0.91189031955E+02  0.27143945012E+02 -0.31127878210E+03  0.36861323021E+03  0.17300000000E+03 0.  1.
         -6    1    1    2    0  503  0.91189031955E+02 -0.27143945012E+02 -0.75937531253E+03  0.78462226490E+03  0.17300000000E+03 0.  1.
</event>
<event>
 4    1  0.3065897E+000  0.1000000E+03  0.7546771E-02  0.1280296E+00
         21   -1    0    0  501  502  0.00000000000E+00  0.00000000000E+00  0.25735313171E+02  0.25735313171E+02  0.00000000000E+00 0.  1.
         21   -1    0    0  502  503 -0.00000000000E+00 -0.00000000000E+00 -0.18462159206E+04  0.18462159206E+04  0.00000000000E+00 0. -1.
          6    1    1    2  501    0  0.47525265937E+01  0.18363365471E+01 -0.34126172927E+03  0.38264151173E+03  0.17300000000E+03 0.  1.
         -6    1    1    2    0  503 -0.47525265937E+01 -0.18363365471E+01 -0.14792188782E+04  0.14893097220E+04  0.17300000000E+03 0. -1.
</event>
<event>
 4    1  0.3065897E+000  0.1000000E+03  0.7546771E-02  0.1280296E+00
         21   -1    0    0  501  502  0.00000000000E+00  0.00000000000E+00  0.10475565207E+03  0.10475565207E+03  0.00000000000E+00 0.  1.
         21   -1    0    0  502  503 -0.00000000000E+00 -0.00000000000E+00 -0.34581390615E+03  0.34581390615E+03  0.00000000000E+00 0. -1.
          6    1    1    2  501    0  0.14567031333E+02 -0.77859700748E+02 -0.12615982894E+03  0.22829724887E+03  0.17300000000E+03 0.  1.
         -6    1    1    2    0  503 -0.14567031333E+02  0.77859700748E+02 -0.11489842515E+03  0.22227230935E+03  0.17300000000E+03 0. -1.
</event>
<event>
 4    1  0.3065897E+000  0.1000000E+03  0.7546771E-02  0.1280296E+00
         21   -1    0    0  501  502  0.00000000000E+00  0.00000000000E+00  0.41042463973E+03  0.41042463973E+03  0.00000000000E+00 0.  1.
         21   -1    0    0  502  503 -0.00000000000E+00 -0.00000000000E+00 -0.22638583464E+03  0.22638583464E+03  0.00000000000E+00 0. -1.
          6    1    1    2  501    0 -0.77086520418E+02 -0.42707480148E+02  0.33748090386E+03  0.38934383386E+03  0.17300000000E+03 0.  1.
         -6    1    1    2    0  503  0.77086520418E+02  0.42707480148E+02 -0.15344209877E+03  0.24746664051E+03  0.17300000000E+03 0. -1.
</event>
<event>
 4    1  0.3065897E+000  0.1000000E+03  0.7546771E-02  0.1280296E+00
         21   -1    0    0  501  502  0.00000000000E+00  0.00000000000E+00  0.36921113191E+02  0.36921113191E+02  0.00000000000E+00 0.  1.
         21   -1    0    0  502  503 -0.00000000000E+00 -0.00000000000E+00 -0.13168380100E+04  0.13168380100E+04  0.00000000000E+00 0.  1.
          6    1    1    2  501    0  0.10444262699E+03  0.66188062102E+02 -0.46093440628E+03  0.50762057562E+03  0.17300000000E+03 0.  1.
         -6    1    1    2    0  503 -0.10444262699E+03 -0.66188062102E+02 -0.81898249055E+03  0.84613854760E+03  0.17300000000E+03 0.  1.
</event>
<event>
 4    1  0.3065897E+000  0.1000000E+03  0.7546771E-02  0.1280296E+00
         21   -1    0    0  501  502  0.00000000000E+00  0.00000000000E+00  0.14544684053E+03  0.14544684053E+03  0.00000000000E+00 0. -1.
         21   -1    0    0  502  503 -0.00000000000E+00 -0.00000000000E+00 -0.26501326523E+03  0.26501326523E+03  0.00000000000E+00 0.  1.
          6    1    1    2  501    0  0.40264692433E+02  0.51370708189E+02  0.92099844556E+01  0.18513243619E+03  0.17300000000E+03 0. -1.
         -6    1    1    2    0  503 -0.40264692433E+02 -0.51370708189E+02 -0.12877640916E+03  0.22532766957E+03  0.17300000000E+03 0.  1.
</event>
<event>
 4    1  0.3065897E+000  0.1000000E+03  0.7546771E-02  0.1280296E+00
         21   -1    0    0  501  502  0.00000000000E+00  0.00000000000E+00  0.91905558506E+03  0.91905558506E+03  0.00000000000E+00 0. -1.
         21   -1    0    0  502  503 -0.00000000000E+00 -0.00000000000E+00 -0.79526450284E+03  0.79526450284E+03  0.00000000000E+00 0.  1.
          6    1    1    2  501    0  0.36394187229E+03  0.21034367235E+02  0.81757056573E+03  0.91172735012E+03  0.17300000000E+03 0.  1.
         -6    1    1    2    0  503 -0.36394187229E+03 -0.21034367235E+02 -0.69377948351E+03  0.80259273779E+03  0.17300000000E+03 0. -1.
</event>
<event>
 4    1  0.3065897E+000  0.1000000E+03  0.7546771E-02  0.1280296E+00
         21   -1    0    0  501  502  0.00000000000E+00  0.00000000000E+00  0.37229042860E+02  0.37229042860E+02  0.00000000000E+00 0.  1.
         21   -1    0    0  502  503 -0.00000000000E+00 -0.00000000000E+00 -0.11735968365E+04  0.11735968365E+04  0.00000000000E+00 0. -1.
          6    1    1    2  501    0 -0.67249690954E+02 -0.30689063115E+02 -0.30433678902E+03  0.35779074985E+03  0.17300000000E+03 0.  1.
         -6    1    1    2    0  503  0.67249690954E+02  0.30689063115E+02 -0.83203100462E+03  0.85303512951E+03  0.17300000000E+03 0. -1.
</event>
<event>
 4    1  0.3065897E+000  0.1000000E+03  0.7546771E-02  0.1280296E+00
         21   -1    0    0  501  502  0.00000000000E+00  0.00000000000E+00  0.11338454048E+03  0.11338454048E+03  0.00000000000E+00 0.  1.
         21   -1    0    0  502  503 -0.00000000000E+00 -0.00000000000E+00 -0.85432998877E+03  0.85432998877E+03  0.00000000000E+00 0. -1.
          6    1    1    2  501    0 -0.14469757571E+03 -0.56920212587E+01 -0.37153649445E+02  0.22864641084E+03  0.17300000000E+03 0.  1.
         -6    1    1    2    0  503  0.14469757571E+03  0.56920212587E+01 -0.70379179884E+03  0.73906811841E+03  0.17300000000E+03 0. -1.
</event>
<event>
 4    1  0.3065897E+000  0.1000000E+03  0.7546771E-02  0.1280296E+00
         21   -1    0    0  501  502  0.00000000000E+00  0.00000000000E+00  0.49200705678E+03  0.49200705678E+03  0.00000000000E+00 0. -1.
         21   -1    0    0  502  503 -0.00000000000E+00 -0.00000000000E+00 -0.21096634574E+03  0.21096634574E+03  0.00000000000E+00 0.  1.
          6    1    1    2  501    0 -0.93102393703E+02 -0.67466829142E+02  0.40919411303E+03  0.45889939081E+03  0.17300000000E+03 0. -1.
         -6    1    1    2    0  503  0.93102393703E+02  0.67466829142E+02 -0.12815340199E+03  0.24407401170E+03  0.17300000000E+03 0.  1.
</event>
<event>
 4    1  0.3065897E+000  0.1000000E+03  0.7546771E-02  0.1280296E+00
         21   -1    0    0  503  502  0.00000000000E+00  0.00000000000E+00  0.11677731131E+04  0.11677731131E+04  0.00000000000E+00 0.  1.
         21   -1    0    0  501  503 -0.00000000000E+00 -0.00000000000E+00 -0.29261539723E+02  0.29261539723E+02  0.00000000000E+00 0.  1.
          6    1    1    2  501    0 -0.26403501515E+02 -0.59532599222E+02  0.57168752736E+03  0.60083017917E+03  0.17300000000E+03 0.  1.
         -6    1    1    2    0  502  0.26403501515E+02  0.59532599222E+02  0.56682404603E+03  0.59620447367E+03  0.17300000000E+03 0.  1.
</event>
<event>
 4    1  0.3065897E+000  0.1000000E+03  0.7546771E-02  0.1280296E+00
         21   -1    0    0  503  502  0.00000000000E+00  0.00000000000E+00  0.34314508993E+02  0.34314508993E+02  0.00000000000E+00 0. -1.
         21   -1    0    0  501  503 -0.00000000000E+00 -0.00000000000E+00 -0.12058863779E+04  0.12058863779E+04  0.00000000000E+00 0. -1.
          6    1    1    2  501    0 -0.61435998274E+02  0.53450645992E+02 -0.79740289237E+03  0.82000715009E+03  0.17300000000E+03 0. -1.
         -6    1    1    2    0  502  0.61435998274E+02 -0.53450645992E+02 -0.37416897649E+03  0.42019373676E+03  0.17300000000E+03 0. -1.
</event>
<event>
 4    1  0.3065897E+000  0.1000000E+03  0.7546771E-02  0.1280296E+00
         21   -1    0    0  503  502  0.00000000000E+00  0.00000000000E+00  0.12564053976E+03  0.12564053976E+03  0.00000000000E+00 0.  1.
         21   -1    0    0  501  503 -0.00000000000E+00 -0.00000000000E+00 -0.32615383367E+03  0.32615383367E+03  0.00000000000E+00 0.  1.
          6    1    1    2  501    0 -0.81579797083E+01 -0.75497950705E+02 -0.18136407344E+03  0.26189391045E+03  0.17300000000E+03 0.  1.
         -6    1    1    2    0  502  0.81579797083E+01  0.75497950705E+02 -0.19149220468E+02  0.18990046298E+03  0.17300000000E+03 0.  1.
</event>
<event>
 4    1  0.3065897E+000  0.1000000E+03  0.7546771E-02  0.1280296E+00
         21   -1    0    0  503  502  0.00000000000E+00  0.00000000000E+00  0.43966594876E+02  0.43966594876E+02  0.00000000000E+00 0. -1.
         21   -1    0    0  501  503 -0.00000000000E+00 -0.00000000000E+00 -0.79592334193E+03  0.79592334193E+03  0.00000000000E+00 0. -1.
          6    1    1    2  501    0 -0.65524677114E+02  0.27773358532E+02 -0.37697317167E+03  0.42083561507E+03  0.17300000000E+03 0. -1.
         -6    1    1    2    0  502  0.65524677114E+02 -0.27773358532E+02 -0.37498357538E+03  0.41905432173E+03  0.17300000000E+03 0. -1.
</event>
<event>
 4    1  0.3065897E+000  0.1000000E+03  0.7546771E-02  0.1280296E+00
         21   -1    0    0  503  502  0.00000000000E+00  0.00000000000E+00  0.77926359993E+03  0.77926359993E+03  0.00000000000E+00 0. -1.
         21   -1    0    0  501  503 -0.00000000000E+00 -0.00000000000E+00 -0.10013556967E+03  0.10013556967E+03  0.00000000000E+00 0. -1.
          6    1    1    2  501    0 -0.44468209901E+02 -0.89094166270E+02  0.31967037571E+02  0.20215361398E+03  0.17300000000E+03 0. -1.
         -6    1    1    2    0  502  0.44468209901E+02  0.89094166270E+02  0.64716099269E+03  0.67724555562E+03  0.17300000000E+03 0. -1.
</event>
<event>
 4    1  0.3065897E+000  0.1000000E+03  0.7546771E-02  0.1280296E+00
         21   -1    0    0  503  502  0.00000000000E+00  0.00000000000E+00  0.27237264876E+03  0.27237264876E+03  0.00000000000E+00 0. -1.
         21   -1    0    0  501  503 -0.00000000000E+00 -0.00000000000E+00 -0.20831990297E+03  0.20831990297E+03  0.00000000000E+00 0. -1.
          6    1    1    2  501    0 -0.76775630513E+02 -0.11530077870E+03 -0.56068314088E+02  0.22860757392E+03  0.17300000000E+03 0. -1.
         -6    1    1    2    0  502  0.76775630513E+02  0.11530077870E+03  0.12012105988E+03  0.25208497781E+03  0.17300000000E+03 0. -1.
</event>
<event>
 4    1  0.3065897E+000  0.1000000E+03  0.7546771E-02  0.1280296E+00
         21   -1    0    0  503  502  0.00000000000E+00  0.00000000000E+00  0.16456196131E+03  0.16456196131E+03  0.00000000000E+00 0. -1.
         21   -1    0    0  501  503 -0.00000000000E+00 -0.00000000000E+00 -0.32258510615E+03  0.32258510615E+03  0.00000000000E+00 0. -1.
          6    1    1    2  501    0 -0.43918991552E+02  0.13546377245E+03 -0.13571477403E+03  0.26196719519E+03  0.17300000000E+03 0. -1.
         -6    1    1    2    0  502  0.43918991552E+02 -0.13546377245E+03 -0.22308370811E+02  0.22517987227E+03  0.17300000000E+03 0. -1.
</event>
<event>
 4    1  0.3065897E+000  0.1000000E+03  0.7546771E-02  0.1280296E+00
         21   -1    0    0  503  502  0.00000000000E+00  0.00000000000E+00  0.23046464511E+03  0.23046464511E+03  0.00000000000E+00 0.  1.
         21   -1    0    0  501  503 -0.00000000000E+00 -0.00000000000E+00 -0.61697852127E+03  0.61697852127E+03  0.00000000000E+00 0. -1.
          6    1    1    2  501    0 -0.18500872791E+03  0.15454607895E+03 -0.45473948283E+03  0.54298224388E+03  0.17300000000E+03 0.  1.
         -6    1    1    2    0  502  0.18500872791E+03 -0.15454607895E+03  0.68225606676E+02  0.30446092250E+03  0.17300000000E+03 0. -1.
</event>
<event>
 4    1  0.3065897E+000  0.1000000E+03  0.7546771E-02  0.1280296E+00
         21   -1    0    0  503  502  0.00000000000E+00  0.00000000000E+00  0.22839771894E+03  0.22839771894E+03  0.00000000000E+00 0. -1.
         21   -1    0    0  501  503 -0.00000000000E+00 -0.00000000000E+00 -0.96236753123E+03  0.96236753123E+03  0.00000000000E+00 0.  1.
          6    1    1    2  501    0 -0.68756438487E+02 -0.22937988291E+03 -0.82930043715E+03  0.88034697340E+03  0.17300000000E+03 0.  1.
         -6    1    1    2    0  502  0.68756438487E+02  0.22937988291E+03  0.95330624855E+02  0.31041827677E+03  0.17300000000E+03 0. -1.
</event>
<event>
 4    1  0.3065897E+000  0.1000000E+03  0.7546771E-02  0.1280296E+00
         21   -1    0    0  503  502  0.00000000000E+00  0.00000000000E+00  0.54593410770E+02  0.54593410770E+02  0.00000000000E+00 0. -1.
         21   -1    0    0  501  503 -0.00000000000E+00 -0.00000000000E+00 -0.11493200779E+04  0.11493200779E+04  0.00000000000E+00 0.  1.
          6    1    1    2  501    0  0.43977329026E+02 -0.17109933170E+03 -0.64370748453E+03  0.68956313157E+03  0.17300000000E+03 0.  1.
         -6    1    1    2    0  502 -0.43977329026E+02  0.17109933170E+03 -0.45101918259E+03  0.51435035710E+03  0.17300000000E+03 0. -1.
</event>
<event>
 4    1  0.3065897E+000  0.1000000E+03  0.7546771E-02  0.1280296E+00
         21   -1    0    0  503  502  0.00000000000E+00  0.00000000000E+00  0.80321087652E+03  0.80321087652E+03  0.00000000000E+00 0. -1.
         21   -1    0    0  501  503 -0.00000000000E+00 -0.00000000000E+00 -0.90838931047E+02  0.90838931047E+02  0.00000000000E+00 0.  1.
          6    1    1    2  501    0 -0.18649407662E+03 -0.73083607447E+02  0.26687216714E+03  0.37586035690E+03  0.17300000000E+03 0.  1.
         -6    1    1    2    0  502  0.18649407662E+03  0.73083607447E+02  0.44549977834E+03  0.51818945067E+03  0.17300000000E+03 0. -1.
</event>
<event>
 4    1  0.3065897E+000  0.1000000E+03  0.7546771E-02  0.1280296E+00
         21   -1    0    0  503  502  0.00000000000E+00  0.00000000000E+00  0.63798631021E+02  0.63798631021E+02  0.00000000000E+00 0. -1.
         21   -1    0    0  501  503 -0.00000000000E+00 -0.00000000000E+00 -0.82898265198E+03  0.82898265198E+03  0.00000000000E+00 0.  1.
          6    1    1    2  501    0  0.12172018331E+03 -0.25412349027E+02 -0.55066235459E+03  0.59044019110E+03  0.17300000000E+03 0.  1.
         -6    1    1    2    0  502 -0.12172018331E+03  0.25412349027E+02 -0.21452166637E+03  0.30234109190E+03  0.17300000000E+03 0. -1.
</event>
<event>
 4    1  0.3065897E+000  0.1000000E+03  0.7546771E-02  0.1280296E+00
         21   -1    0    0  501  502  0.00000000000E+00  0.00000000000E+00  0.79967303136E+02  0.79967303136E+02  0.00000000000E+00 0. -1.
         21   -1    0    0  502  503 -0.00000000000E+00 -0.00000000000E+00 -0.63910395612E+03  0.63910395612E+03  0.00000000000E+00 0.  1.
          6    1    1    2  501    0 -0.10982425930E+03  0.11932985844E+02 -0.12890454773E+03  0.24238223224E+03  0.17300000000E+03 0. -1.
         -6    1    1    2    0  503  0.10982425930E+03 -0.11932985844E+02 -0.43023210525E+03  0.47668902701E+03  0.17300000000E+03 0.  1.
</event>
<event>
 4    1  0.3065897E+000  0.1000000E+03  0.7546771E-02  0.1280296E+00
         21   -1    0    0  501  502  0.00000000000E+00  0.00000000000E+00  0.29205961409E+03  0.29205961409E+03  0.00000000000E+00 0. -1.
         21   -1    0    0  502  503 -0.00000000000E+00 -0.00000000000E+00 -0.26337483007E+03  0.26337483007E+03  0.00000000000E+00 0.  1.
          6    1    1    2  501    0 -0.19691410982E+03 -0.87245581076E+02  0.38975938015E+02  0.27898939372E+03  0.17300000000E+03 0. -1.
         -6    1    1    2    0  503  0.19691410982E+03  0.87245581076E+02 -0.10291153995E+02  0.27644505045E+03  0.17300000000E+03 0.  1.
</event>
<event>
 4    1  0.3065897E+000  0.1000000E+03  0.7546771E-02  0.1280296E+00
         21   -1    0    0  501  502  0.00000000000E+00  0.00000000000E+00  0.24953658593E+03  0.24953658593E+03  0.00000000000E+00 0. -1.
         21   -1    0    0  502  503 -0.00000000000E+00 -0.00000000000E+00 -0.32315445322E+03  0.32315445322E+03  0.00000000000E+00 0.  1.
          6    1    1    2  501    0  0.11465839509E+03 -0.12320196434E+03  0.11405754445E+03  0.26695204630E+03  0.17300000000E+03 0. -1.
         -6    1    1    2    0  503 -0.11465839509E+03  0.12320196434E+03 -0.18767541174E+03  0.30573899285E+03  0.17300000000E+03 0.  1.
</event>
<event>
 4    1  0.3065897E+000  0.1000000E+03  0.7546771E-02  0.1280296E+00
         21   -1    0    0  501  502  0.00000000000E+00  0.00000000000E+00  0.18307933400E+03  0.18307933400E+03  0.00000000000E+00 0. -1.
         21   -1    0    0  502  503 -0.00000000000E+00 -0.00000000000E+00 -0.21391190276E+03  0.21391190276E+03  0.00000000000E+00 0.  1.
          6    1    1    2  501    0  0.19244840417E+02 -0.52309161293E+02  0.63097535513E+02  0.19239779423E+03  0.17300000000E+03 0. -1.
         -6    1    1    2    0  503 -0.19244840417E+02  0.52309161293E+02 -0.93930104272E+02  0.20459344253E+03  0.17300000000E+03 0.  1.
</event>
<event>
 4    1  0.3065897E+000  0.1000000E+03  0.7546771E-02  0.1280296E+00
         21   -1    0    0  503  502  0.00000000000E+00  0.00000000000E+00  0.10585601379E+03  0.10585601379E+03  0.00000000000E+00 0.  1.
         21   -1    0    0  501  503 -0.00000000000E+00 -0.00000000000E+00 -0.61091567560E+03  0.61091567560E+03  0.00000000000E+00 0. -1.
          6    1    1    2  501    0 -0.12670691025E+03  0.79101089526E+02 -0.40964255619E+03  0.46909236544E+03  0.17300000000E+03 0.  1.
         -6    1    1    2    0  502  0.12670691025E+03 -0.79101089526E+02 -0.95417105617E+02  0.24767932395E+03  0.17300000000E+03 0. -1.
</event>
<event>
 4    1  0.3065897E+000  0.1000000E+03  0.7546771E-02  0.1280296E+00
         21   -1    0    0  503  502  0.00000000000E+00  0.00000000000E+00  0.22770957470E+03  0.22770957470E+03  0.00000000000E+00 0.  1.
         21   -1    0    0  501  503 -0.00000000000E+00 -0.00000000000E+00 -0.56221636755E+03  0.56221636755E+03  0.00000000000E+00 0.  1.
          6    1    1    2  501    0  0.21595380316E+03 -0.21112941148E+03 -0.75683725979E+02  0.35618632746E+03  0.17300000000E+03 0.  1.
         -6    1    1    2    0  502 -0.21595380316E+03  0.21112941148E+03 -0.25882306688E+03  0.43373961479E+03  0.17300000000E+03 0.  1.
</event>
<event>
 4    1  0.3065897E+000  0.1000000E+03  0.7546771E-02  0.1280296E+00
         21   -1    0    0  503  502  0.00000000000E+00  0.00000000000E+00  0.13146453134E+03  0.13146453134E+03  0.00000000000E+00 0.  1.
         21   -1    0    0  501  503 -0.00000000000E+00 -0.00000000000E+00 -0.57743746140E+03  0.57743746140E+03  0.00000000000E+00 0. -1.
          6    1    1    2  501    0 -0.32360738107E+02  0.19917956874E+03 -0.12965023829E+03  0.29573282243E+03  0.17300000000E+03 0. -1.
         -6    1    1    2    0  502  0.32360738107E+02 -0.19917956874E+03 -0.31632269177E+03  0.41316917032E+03  0.17300000000E+03 0.  1.
</event>
<event>
 4    1  0.3065897E+000  0.1000000E+03  0.7546771E-02  0.1280296E+00
         21   -1    0    0  503  502  0.00000000000E+00  0.00000000000E+00  0.46694729273E+02  0.46694729273E+02  0.00000000000E+00 0.  1.
         21   -1    0    0  501  503 -0.00000000000E+00 -0.00000000000E+00 -0.94154765641E+03  0.94154765641E+03  0.00000000000E+00 0. -1.
          6    1    1    2  501    0  0.19694757186E+02  0.10385448586E+03 -0.57351175781E+03  0.60829135621E+03  0.17300000000E+03 0. -1.
         -6    1    1    2    0  502 -0.19694757186E+02 -0.10385448586E+03 -0.32134116932E+03  0.37995102947E+03  0.17300000000E+03 0.  1.
</event>
<event>
 4    1  0.3065897E+000  0.1000000E+03  0.7546771E-02  0.1280296E+00
         21   -1    0    0  503  502  0.00000000000E+00  0.00000000000E+00  0.77229319300E+02  0.77229319300E+02  0.00000000000E+00 0.  1.
         21   -1    0    0  501  503 -0.00000000000E+00 -0.00000000000E+00 -0.87002745043E+03  0.87002745043E+03  0.00000000000E+00 0. -1.
          6    1    1    2  501    0 -0.26385023996E+02 -0.64722103926E+02 -0.72517638289E+03  0.74879563736E+03  0.17300000000E+03 0. -1.
         -6    1    1    2    0  502  0.26385023996E+02  0.64722103926E+02 -0.67621748246E+02  0.19846113238E+03  0.17300000000E+03 0.  1.
</event>
<event>
 4    1  0.3065897E+000  0.1000000E+03  0.7546771E-02  0.1280296E+00
         21   -1    0    0  501  502  0.00000000000E+00  0.00000000000E+00  0.80800827026E+02  0.80800827026E+02  0.00000000000E+00 0.  1.
         21   -1    0    0  502  503 -0.00000000000E+00 -0.00000000000E+00 -0.15254269913E+04  0.15254269913E+04  0.00000000000E+00 0.  1.
          6    1    1    2  501    0  0.17792356673E+03  0.16201442369E+03 -0.29178078262E+03  0.41589721589E+03  0.17300000000E+03 0.  1.
         -6    1    1    2    0  503 -0.17792356673E+03 -0.16201442369E+03 -0.11528453816E+04  0.11903306024E+04  0.17300000000E+03 0.  1.
</event>
<event>
 4    1  0.3065897E+000  0.1000000E+03  0.7546771E-02  0.1280296E+00
         21   -1    0    0  503  502  0.00000000000E+00  0.00000000000E+00  0.28085931429E+03  0.28085931429E+03  0.00000000000E+00 0. -1.
         21   -1    0    0  501  503 -0.00000000000E+00 -0.00000000000E+00 -0.66634616365E+03  0.66634616365E+03  0.00000000000E+00 0. -1.
          6    1    1    2  501    0  0.11107326881E+03  0.31449798317E+03 -0.42747811653E+03  0.56913336976E+03  0.17300000000E+03 0. -1.
         -6    1    1    2    0  502 -0.11107326881E+03 -0.31449798317E+03  0.41991267165E+02  0.37807210818E+03  0.17300000000E+03 0. -1.
</event>
<event>
 4    1  0.3065897E+000  0.1000000E+03  0.7546771E-02  0.1280296E+00
         21   -1    0    0  503  502  0.00000000000E+00  0.00000000000E+00  0.35180927733E+03  0.35180927733E+03  0.00000000000E+00 0.  1.
         21   -1    0    0  501  503 -0.00000000000E+00 -0.00000000000E+00 -0.89969527369E+02  0.89969527369E+02  0.00000000000E+00 0. -1.
          6    1    1    2  501    0  0.15470547575E+02 -0.29660904704E+02  0.16143355649E+03  0.23897468542E+03  0.17300000000E+03 0. -1.
         -6    1    1    2    0  502 -0.15470547575E+02  0.29660904704E+02  0.10040619347E+03  0.20280411928E+03  0.17300000000E+03 0.  1.
</event>
<event>
 4    1  0.3065897E+000  0.1000000E+03  0.7546771E-02  0.1280296E+00
         21   -1    0    0  503  502  0.00000000000E+00  0.00000000000E+00  0.13603010851E+03  0.13603010851E+03  0.00000000000E+00 0.  1.
         21   -1    0    0  501  503 -0.00000000000E+00 -0.00000000000E+00 -0.26437558650E+03  0.26437558650E+03  0.00000000000E+00 0. -1.
          6    1    1    2  501    0  0.16095948896E+02 -0.62683727417E+02 -0.10952760009E+03  0.21474083085E+03  0.17300000000E+03 0. -1.
         -6    1    1    2    0  502 -0.16095948896E+02  0.62683727417E+02 -0.18817877903E+02  0.18566486416E+03  0.17300000000E+03 0.  1.
</event>
<event>
 4    1  0.3065897E+000  0.1000000E+03  0.7546771E-02  0.1280296E+00
         21   -1    0    0  503  502  0.00000000000E+00  0.00000000000E+00  0.13200109676E+03  0.13200109676E+03  0.00000000000E+00 0.  1.
         21   -1    0    0  501  503 -0.00000000000E+00 -0.00000000000E+00 -0.59587878011E+03  0.59587878011E+03  0.00000000000E+00 0. -1.
          6    1    1    2  501    0 -0.21043008191E+02  0.11504638814E+03 -0.47487987497E+03  0.51876620482E+03  0.17300000000E+03 0. -1.
         -6    1    1    2    0  502  0.21043008191E+02 -0.11504638814E+03  0.11002191618E+02  0.20911367205E+03  0.17300000000E+03 0.  1.
</event>
<event>
 4    1  0.3065897E+000  0.1000000E+03  0.7546771E-02  0.1280296E+00
         21   -1    0    0  503  502  0.00000000000E+00  0.00000000000E+00  0.91309114008E+02  0.91309114008E+02  0.00000000000E+00 0.  1.
         21   -1    0    0  501  503 -0.00000000000E+00 -0.00000000000E+00 -0.43244390464E+03  0.43244390464E+03  0.00000000000E+00 0. -1.
          6    1    1    2  501    0  0.93146832277E+02  0.20935311791E+01 -0.20958085932E+03  0.28728705475E+03  0.17300000000E+03 0. -1.
         -6    1    1    2    0  502 -0.93146832277E+02 -0.20935311791E+01 -0.13155393131E+03  0.23646596389E+03  0.17300000000E+03 0.  1.
</event>
<event>
 4    1  0.3065897E+000  0.1000000E+03  0.7546771E-02  0.1280296E+00
         21   -1    0    0  503  502  0.00000000000E+00  0.00000000000E+00  0.21204560978E+02  0.21204560978E+02  0.00000000000E+00 0. -1.
         21   -1    0    0  501  503 -0.00000000000E+00 -0.00000000000E+00 -0.14766137869E+04  0.14766137869E+04  0.00000000000E+00 0. -1.
          6    1    1    2  501    0  0.10729339034E+02  0.35592482524E+02 -0.72745214280E+03  0.74866385220E+03  0.17300000000E+03 0. -1.
         -6    1    1    2    0  502 -0.10729339034E+02 -0.35592482524E+02 -0.72795708316E+03  0.74915449571E+03  0.17300000000E+03 0. -1.
</event>
<event>
 4    1  0.3065897E+000  0.1000000E+03  0.7546771E-02  0.1280296E+00
         21   -1    0    0  503  502  0.00000000000E+00  0.00000000000E+00  0.64749823105E+03  0.64749823105E+03  0.00000000000E+00 0.  1.
         21   -1    0    0  501  503 -0.00000000000E+00 -0.00000000000E+00 -0.61733571435E+02  0.61733571435E+02  0.00000000000E+00 0. -1.
          6    1    1    2  501    0 -0.86683831157E+02 -0.70395700562E+01  0.20455787819E+03  0.28166747710E+03  0.17300000000E+03 0. -1.
         -6    1    1    2    0  502  0.86683831157E+02  0.70395700562E+01  0.38120678143E+03  0.42756432538E+03  0.17300000000E+03 0.  1.
</event>
<event>
 4    1  0.3065897E+000  0.1000000E+03  0.7546771E-02  0.1280296E+00
         21   -1    0    0  501  502  0.00000000000E+00  0.00000000000E+00  0.28138968825E+03  0.28138968825E+03  0.00000000000E+00 0.  1.
         21   -1    0    0  502  503 -0.00000000000E+00 -0.00000000000E+00 -0.14833270796E+03  0.14833270796E+03  0.00000000000E+00 0.  1.
          6    1    1    2  501    0  0.72077071295E+02 -0.21061957000E+02  0.14914822006E+03  0.24044313629E+03  0.17300000000E+03 0.  1.
         -6    1    1    2    0  503 -0.72077071295E+02  0.21061957000E+02 -0.16091239767E+02  0.18927925992E+03  0.17300000000E+03 0.  1.
</event>
<event>
 4    1  0.3065897E+000  0.1000000E+03  0.7546771E-02  0.1280296E+00
         21   -1    0    0  501  502  0.00000000000E+00  0.00000000000E+00  0.93714962047E+03  0.93714962047E+03  0.00000000000E+00 0.  1.
         21   -1    0    0  502  503 -0.00000000000E+00 -0.00000000000E+00 -0.17537372556E+03  0.17537372556E+03  0.00000000000E+00 0.  1.
          6    1    1    2  501    0  0.22903339641E+03  0.21524814446E+03  0.63990412403E+03  0.73361730372E+03  0.17300000000E+03 0.  1.
         -6    1    1    2    0  503 -0.22903339641E+03 -0.21524814446E+03  0.12187177089E+03  0.37890604232E+03  0.17300000000E+03 0.  1.
</event>
<event>
 4    1  0.3065897E+000  0.1000000E+03  0.7546771E-02  0.1280296E+00
         21   -1    0    0  501  502  0.00000000000E+00  0.00000000000E+00  0.35918605762E+03  0.35918605762E+03  0.00000000000E+00 0.  1.
         21   -1    0    0  502  503 -0.00000000000E+00 -0.00000000000E+00 -0.18599963882E+03  0.18599963882E+03  0.00000000000E+00 0.  1.
          6    1    1    2  501    0  0.14670072587E+03  0.11715192999E+03  0.12922151068E+03  0.28613436790E+03  0.17300000000E+03 0.  1.
         -6    1    1    2    0  503 -0.14670072587E+03 -0.11715192999E+03  0.43964908117E+02  0.25905132854E+03  0.17300000000E+03 0.  1.
</event>
<event>
 4    1  0.3065897E+000  0.1000000E+03  0.7546771E-02  0.1280296E+00
         21   -1    0    0  501  502  0.00000000000E+00  0.00000000000E+00  0.98140721082E+02  0.98140721082E+02  0.00000000000E+00 0.  1.
         21   -1    0    0  502  503 -0.00000000000E+00 -0.00000000000E+00 -0.65148784491E+03  0.65148784491E+03  0.00000000000E+00 0.  1.
          6    1    1    2  501    0 -0.22936444141E+02 -0.46061465153E+02 -0.14172202773E+02  0.18104582396E+03  0.17300000000E+03 0.  1.
         -6    1    1    2    0  503  0.22936444141E+02  0.46061465153E+02 -0.53917492106E+03  0.56858274204E+03  0.17300000000E+03 0.  1.
</event>
<event>
 4    1  0.3065897E+000  0.1000000E+03  0.7546771E-02  0.1280296E+00
         21   -1    0    0  503  502  0.00000000000E+00  0.00000000000E+00  0.49459815597E+03  0.49459815597E+03  0.00000000000E+00 0.  1.
         21   -1    0    0  501  503 -0.00000000000E+00 -0.00000000000E+00 -0.10994720610E+03  0.10994720610E+03  0.00000000000E+00 0. -1.
          6    1    1    2  501    0 -0.90128858187E+02  0.11867663456E+03  0.13093129473E+03  0.26320972362E+03  0.17300000000E+03 0. -1.
         -6    1    1    2    0  502  0.90128858187E+02 -0.11867663456E+03  0.25371965514E+03  0.34133563844E+03  0.17300000000E+03 0. -1.
</event>
<event>
 4    1  0.3065897E+000  0.1000000E+03  0.7546771E-02  0.1280296E+00
         21   -1    0    0  503  502  0.00000000000E+00  0.00000000000E+00  0.25092923383E+03  0.25092923383E+03  0.00000000000E+00 0.  1.
         21   -1    0    0  501  503 -0.00000000000E+00 -0.00000000000E+00 -0.37218632778E+03  0.37218632778E+03  0.00000000000E+00 0. -1.
          6    1    1    2  501    0  0.44137043506E+02  0.11067401242E+03 -0.28691529606E+03  0.35559274845E+03  0.17300000000E+03 0. -1.
         -6    1    1    2    0  502 -0.44137043506E+02 -0.11067401242E+03  0.16565820211E+03  0.26752281316E+03  0.17300000000E+03 0. -1.
</event>
<event>
 4    1  0.3065897E+000  0.1000000E+03  0.7546771E-02  0.1280296E+00
         21   -1    0    0  503  502  0.00000000000E+00  0.00000000000E+00  0.57830802752E+03  0.57830802752E+03  0.00000000000E+00 0.  1.
         21   -1    0    0  501  503 -0.00000000000E+00 -0.00000000000E+00 -0.26715359121E+03  0.26715359121E+03  0.00000000000E+00 0. -1.
          6    1    1    2  501    0  0.28058064800E+03  0.52901852403E+01 -0.74622951093E+02  0.33801045978E+03  0.17300000000E+03 0. -1.
         -6    1    1    2    0  502 -0.28058064800E+03 -0.52901852403E+01  0.38577738740E+03  0.50745115895E+03  0.17300000000E+03 0. -1.
</event>
<event>
 4    1  0.3065897E+000  0.1000000E+03  0.7546771E-02  0.1280296E+00
         21   -1    0    0  503  502  0.00000000000E+00  0.00000000000E+00  0.11515772737E+03  0.11515772737E+03  0.00000000000E+00 0.  1.
         21   -1    0    0  501  503 -0.00000000000E+00 -0.00000000000E+00 -0.28714801379E+03  0.28714801379E+03  0.00000000000E+00 0. -1.
          6    1    1    2  501    0 -0.24165826938E+02 -0.43989767513E+02 -0.11352166400E+03  0.21292077173E+03  0.17300000000E+03 0. -1.
         -6    1    1    2    0  502  0.24165826938E+02  0.43989767513E+02 -0.58468622415E+02  0.18938496943E+03  0.17300000000E+03 0. -1.
</event>
<event>
 4    1  0.3065897E+000  0.1000000E+03  0.7546771E-02  0.1280296E+00
         21   -1    0    0  503  502  0.00000000000E+00  0.00000000000E+00  0.66064237756E+03  0.66064237756E+03  0.00000000000E+00 0. -1.
         21   -1    0    0  501  503 -0.00000000000E+00 -0.00000000000E+00 -0.56336789593E+02  0.56336789593E+02  0.00000000000E+00 0.  1.
          6    1    1    2  501    0  0.72703705587E+02  0.20870549298E+02  0.22856955632E+03  0.29646998282E+03  0.17300000000E+03 0. -1.
         -6    1    1    2    0  502 -0.72703705587E+02 -0.20870549298E+02  0.37573603164E+03  0.42050918433E+03  0.17300000000E+03 0.  1.
</event>
<event>
 4    1  0.3065897E+000  0.1000000E+03  0.7546771E-02  0.1280296E+00
         21   -1    0    0  501  502  0.00000000000E+00  0.00000000000E+00  0.17890675003E+03  0.17890675003E+03  0.00000000000E+00 0. -1.
         21   -1    0    0  502  503 -0.00000000000E+00 -0.00000000000E+00 -0.58271324851E+03  0.58271324851E+03  0.00000000000E+00 0. -1.
          6    1    1    2  501    0 -0.88217767430E+02  0.14538978171E+03  0.49403370167E+02  0.24756868966E+03  0.17300000000E+03 0. -1.
         -6    1    1    2    0  503  0.88217767430E+02 -0.14538978171E+03 -0.45320986865E+03  0.51405130888E+03  0.17300000000E+03 0. -1.
</event>
<event>
 4    1  0.3065897E+000  0.1000000E+03  0.7546771E-02  0.1280296E+00
         21   -1    0    0  501  502  0.00000000000E+00  0.00000000000E+00  0.45600430200E+03  0.45600430200E+03  0.00000000000E+00 0. -1.
         21   -1    0    0  502  503 -0.00000000000E+00 -0.00000000000E+00 -0.13855963028E+03  0.13855963028E+03  0.00000000000E+00 0. -1.
          6    1    1    2  501    0  0.68555743237E+02 -0.10307742439E+03  0.31708586842E+03  0.38183411752E+03  0.17300000000E+03 0. -1.
         -6    1    1    2    0  503 -0.68555743237E+02  0.10307742439E+03  0.35880330381E+00  0.21272981476E+03  0.17300000000E+03 0. -1.
</event>
<event>
 4    1  0.3065897E+000  0.1000000E+03  0.7546771E-02  0.1280296E+00
         21   -1    0    0  501  502  0.00000000000E+00  0.00000000000E+00  0.14000201103E+03  0.14000201103E+03  0.00000000000E+00 0.  1.
         21   -1    0    0  502  503 -0.00000000000E+00 -0.00000000000E+00 -0.45283135408E+03  0.45283135408E+03  0.00000000000E+00 0.  1.
          6    1    1    2  501    0 -0.62526713025E+02  0.10437431656E+03  0.44193465718E+01  0.21154696505E+03  0.17300000000E+03 0.  1.
         -6    1    1    2    0  503  0.62526713025E+02 -0.10437431656E+03 -0.31724868963E+03  0.38128640006E+03  0.17300000000E+03 0.  1.
</event>
<event>
 4    1  0.3065897E+000  0.1000000E+03  0.7546771E-02  0.1280296E+00
         21   -1    0    0  503  502  0.00000000000E+00  0.00000000000E+00  0.48647494465E+03  0.48647494465E+03  0.00000000000E+00 0. -1.
         21   -1    0    0  501  503 -0.00000000000E+00 -0.00000000000E+00 -0.66690021818E+02  0.66690021818E+02  0.00000000000E+00 0. -1.
          6    1    1    2  501    0 -0.60970989473E+01  0.38626254201E+02  0.25808189409E+03  0.31315240090E+03  0.17300000000E+03 0. -1.
         -6    1    1    2    0  502  0.60970989473E+01 -0.38626254201E+02  0.16170302874E+03  0.24001256557E+03  0.17300000000E+03 0. -1.
</event>
<event>
 4    1  0.3065897E+000  0.1000000E+03  0.7546771E-02  0.1280296E+00
         21   -1    0    0  503  502  0.00000000000E+00  0.00000000000E+00  0.49081462398E+03  0.49081462398E+03  0.00000000000E+00 0. -1.
         21   -1    0    0  501  503 -0.00000000000E+00 -0.00000000000E+00 -0.12046134208E+03  0.12046134208E+03  0.00000000000E+00 0. -1.
          6    1    1    2  501    0  0.50769252929E+02 -0.14989069534E+03  0.10419765011E+03  0.25657530646E+03  0.17300000000E+03 0. -1.
         -6    1    1    2    0  502 -0.50769252929E+02  0.14989069534E+03  0.26615563178E+03  0.35470065960E+03  0.17300000000E+03 0. -1.
</event>
<event>
 4    1  0.3065897E+000  0.1000000E+03  0.7546771E-02  0.1280296E+00
         21   -1    0    0  503  502  0.00000000000E+00  0.00000000000E+00  0.97433390730E+02  0.97433390730E+02  0.00000000000E+00 0.  1.
         21   -1    0    0  501  503 -0.00000000000E+00 -0.00000000000E+00 -0.91488623100E+03  0.91488623100E+03  0.00000000000E+00 0. -1.
          6    1    1    2  501    0  0.15408034759E+03  0.51484984420E+02 -0.71585452708E+03  0.75416719703E+03  0.17300000000E+03 0. -1.
         -6    1    1    2    0  502 -0.15408034759E+03 -0.51484984420E+02 -0.10159831319E+03  0.25815242470E+03  0.17300000000E+03 0. -1.
</event>
<event>
 4    1  0.3065897E+000  0.1000000E+03  0.7546771E-02  0.1280296E+00
         21   -1    0    0  503  502  0.00000000000E+00  0.00000000000E+00  0.50054210045E+03  0.50054210045E+03  0.00000000000E+00 0.  1.
         21   -1    0    0  501  503 -0.00000000000E+00 -0.00000000000E+00 -0.72317664746E+03  0.72317664746E+03  0.00000000000E+00 0. -1.
          6    1    1    2  501    0 -0.30243862144E+03  0.30710246217E+03 -0.50026139800E+03  0.68262105765E+03  0.17300000000E+03 0. -1.
         -6    1    1    2    0  502  0.30243862144E+03 -0.30710246217E+03  0.27762685099E+03  0.54109769026E+03  0.17300000000E+03 0. -1.
</event>
<event>
 4    1  0.3065897E+000  0.1000000E+03  0.7546771E-02  0.1280296E+00
         21   -1    0    0  503  502  0.00000000000E+00  0.00000000000E+00  0.44844695759E+03  0.44844695759E+03  0.00000000000E+00 0.  1.
         21   -1    0    0  501  503 -0.00000000000E+00 -0.00000000000E+00 -0.97236115592E+02  0.97236115592E+02  0.00000000000E+00 0. -1.
          6    1    1    2  501    0 -0.50717222983E+02  0.61202604053E+02  0.63525385482E+02  0.20070493280E+03  0.17300000000E+03 0. -1.
         -6    1    1    2    0  502  0.50717222983E+02 -0.61202604053E+02  0.28768545652E+03  0.34497814038E+03  0.17300000000E+03 0. -1.
</event>
<event>
 4    1  0.3065897E+000  0.1000000E+03  0.7546771E-02  0.1280296E+00
         21   -1    0    0  503  502  0.00000000000E+00  0.00000000000E+00  0.30812720648E+03  0.30812720648E+03  0.00000000000E+00 0.  1.
         21   -1    0    0  501  503 -0.00000000000E+00 -0.00000000000E+00 -0.14352585134E+03  0.14352585134E+03  0.00000000000E+00 0. -1.
          6    1    1    2  501    0 -0.41477123296E+02  0.91922270709E+02  0.13329843067E+02  0.20069065829E+03  0.17300000000E+03 0. -1.
         -6    1    1    2    0  502  0.41477123296E+02 -0.91922270709E+02  0.15127151208E+03  0.25096239952E+03  0.17300000000E+03 0. -1.
</event>
<event>
 4    1  0.3065897E+000  0.1000000E+03  0.7546771E-02  0.1280296E+00
         21   -1    0    0  503  502  0.00000000000E+00  0.00000000000E+00  0.27745126143E+03  0.27745126143E+03  0.00000000000E+00 0.  1.
         21   -1    0    0  501  503 -0.00000000000E+00 -0.00000000000E+00 -0.62029329527E+03  0.62029329527E+03  0.00000000000E+00 0. -1.
          6    1    1    2  501    0 -0.34104643957E+02  0.17628170985E+03 -0.53017479920E+03  0.58587770539E+03  0.17300000000E+03 0. -1.
         -6    1    1    2    0  502  0.34104643957E+02 -0.17628170985E+03  0.18733276536E+03  0.31186685131E+03  0.17300000000E+03 0.  1.
</event>
<event>
 4    1  0.3065897E+000  0.1000000E+03  0.7546771E-02  0.1280296E+00
         21   -1    0    0  503  502  0.00000000000E+00  0.00000000000E+00  0.10503812950E+03  0.10503812950E+03  0.00000000000E+00 0.  1.
         21   -1    0    0  501  503 -0.00000000000E+00 -0.00000000000E+00 -0.70779659959E+03  0.70779659959E+03  0.00000000000E+00 0. -1.
          6    1    1    2  501    0 -0.75044445865E+02 -0.14447124561E+03 -0.50087282695E+03  0.55435205279E+03  0.17300000000E+03 0. -1.
         -6    1    1    2    0  502  0.75044445865E+02  0.14447124561E+03 -0.10188564315E+03  0.25848267629E+03  0.17300000000E+03 0.  1.
</event>
<event>
 4    1  0.3065897E+000  0.1000000E+03  0.7546771E-02  0.1280296E+00
         21   -1    0    0  503  502  0.00000000000E+00  0.00000000000E+00  0.81909368803E+03  0.81909368803E+03  0.00000000000E+00 0.  1.
         21   -1    0    0  501  503 -0.00000000000E+00 -0.00000000000E+00 -0.75598035795E+02  0.75598035795E+02  0.00000000000E+00 0. -1.
          6    1    1    2  501    0  0.11619852580E+03 -0.81462179818E+02  0.56748191842E+03  0.61000238677E+03  0.17300000000E+03 0. -1.
         -6    1    1    2    0  502 -0.11619852580E+03  0.81462179818E+02  0.17601373382E+03  0.28468933705E+03  0.17300000000E+03 0.  1.
</event>
<event>
 4    1  0.3065897E+000  0.1000000E+03  0.7546771E-02  0.1280296E+00
         21   -1    0    0  503  502  0.00000000000E+00  0.00000000000E+00  0.31502126009E+03  0.31502126009E+03  0.00000000000E+00 0.  1.
         21   -1    0    0  501  503 -0.00000000000E+00 -0.00000000000E+00 -0.22675447050E+03  0.22675447050E+03  0.00000000000E+00 0. -1.
          6    1    1    2  501    0 -0.30592275082E+02  0.95243137259E+02 -0.13574197954E+03  0.24158234103E+03  0.17300000000E+03 0. -1.
         -6    1    1    2    0  502  0.30592275082E+02 -0.95243137259E+02  0.22400876912E+03  0.30019338956E+03  0.17300000000E+03 0.  1.
</event>
<event>
 4    1  0.3065897E+000  0.1000000E+03  0.7546771E-02  0.1280296E+00
         21   -1    0    0  503  502  0.00000000000E+00  0.00000000000E+00  0.74773333218E+02  0.74773333218E+02  0.00000000000E+00 0. -1.
         21   -1    0    0  501  503 -0.00000000000E+00 -0.00000000000E+00 -0.58586788902E+03  0.58586788902E+03  0.00000000000E+00 0.  1.
          6    1    1    2  501    0  0.34497135549E+02  0.10973434045E+03 -0.29567883699E+03  0.36136775240E+03  0.17300000000E+03 0. -1.
         -6    1    1    2    0  502 -0.34497135549E+02 -0.10973434045E+03 -0.21541571882E+03  0.29927346984E+03  0.17300000000E+03 0.  1.
</event>
<event>
 4    1  0.3065897E+000  0.1000000E+03  0.7546771E-02  0.1280296E+00
         21   -1    0    0  503  502  0.00000000000E+00  0.00000000000E+00  0.15826691110E+04  0.15826691110E+04  0.00000000000E+00 0. -1.
         21   -1    0    0  501  503 -0.00000000000E+00 -0.00000000000E+00 -0.96687196880E+02  0.96687196880E+02  0.00000000000E+00 0.  1.
          6    1    1    2  501    0 -0.32464093889E+03  0.40893342313E+01  0.10284558849E+04  0.10922723878E+04  0.17300000000E+03 0. -1.
         -6    1    1    2    0  502  0.32464093889E+03 -0.40893342313E+01  0.45752602920E+03  0.58708392011E+03  0.17300000000E+03 0.  1.
</event>
<event>
 4    1  0.3065897E+000  0.1000000E+03  0.7546771E-02  0.1280296E+00
         21   -1    0    0  501  502  0.00000000000E+00  0.00000000000E+00  0.13771582930E+04  0.13771582930E+04  0.00000000000E+00 0.  1.
         21   -1    0    0  502  503 -0.00000000000E+00 -0.00000000000E+00 -0.76243341808E+02  0.76243341808E+02  0.00000000000E+00 0. -1.
          6    1    1    2  501    0 -0.13246947262E+02 -0.27036351640E+03  0.55535620426E+03  0.64157729559E+03  0.17300000000E+03 0.  1.
         -6    1    1    2    0  503  0.13246947262E+02  0.27036351640E+03  0.74555874692E+03  0.81182433920E+03  0.17300000000E+03 0. -1.
</event>
<event>
 4    1  0.3065897E+000  0.1000000E+03  0.7546771E-02  0.1280296E+00
         21   -1    0    0  501  502  0.00000000000E+00  0.00000000000E+00  0.21400231734E+03  0.21400231734E+03  0.00000000000E+00 0.  1.
         21   -1    0    0  502  503 -0.00000000000E+00 -0.00000000000E+00 -0.29513230184E+03  0.29513230184E+03  0.00000000000E+00 0. -1.
          6    1    1    2  501    0  0.95808058285E+02 -0.13191577542E+03  0.42032054042E+02  0.24140557037E+03  0.17300000000E+03 0.  1.
         -6    1    1    2    0  503 -0.95808058285E+02  0.13191577542E+03 -0.12316203855E+03  0.26772904881E+03  0.17300000000E+03 0. -1.
</event>
<event>
 4    1  0.3065897E+000  0.1000000E+03  0.7546771E-02  0.1280296E+00
         21   -1    0    0  503  502  0.00000000000E+00  0.00000000000E+00  0.92950073084E+03  0.92950073084E+03  0.00000000000E+00 0.  1.
         21   -1    0    0  501  503 -0.00000000000E+00 -0.00000000000E+00 -0.14428019036E+03  0.14428019036E+03  0.00000000000E+00 0.  1.
          6    1    1    2  501    0 -0.16560679546E+03 -0.14568056839E+03  0.47128115973E+02  0.28425076609E+03  0.17300000000E+03 0.  1.
         -6    1    1    2    0  502  0.16560679546E+03  0.14568056839E+03  0.73809242451E+03  0.78953015511E+03  0.17300000000E+03 0.  1.
</event>
<event>
 4    1  0.3065897E+000  0.1000000E+03  0.7546771E-02  0.1280296E+00
         21   -1    0    0  503  502  0.00000000000E+00  0.00000000000E+00  0.27435187789E+03  0.27435187789E+03  0.00000000000E+00 0.  1.
         21   -1    0    0  501  503 -0.00000000000E+00 -0.00000000000E+00 -0.36899266537E+03  0.36899266537E+03  0.00000000000E+00 0.  1.
          6    1    1    2  501    0  0.91650920352E+02 -0.11375235234E+03 -0.27330831222E+03  0.35491678235E+03  0.17300000000E+03 0.  1.
         -6    1    1    2    0  502 -0.91650920352E+02  0.11375235234E+03  0.17866752475E+03  0.28842776091E+03  0.17300000000E+03 0.  1.
</event>
<event>
 4    1  0.3065897E+000  0.1000000E+03  0.7546771E-02  0.1280296E+00
         21   -1    0    0  501  502  0.00000000000E+00  0.00000000000E+00  0.21255264525E+03  0.21255264525E+03  0.00000000000E+00 0. -1.
         21   -1    0    0  502  503 -0.00000000000E+00 -0.00000000000E+00 -0.69446833748E+03  0.69446833748E+03  0.00000000000E+00 0. -1.
          6    1    1    2  501    0 -0.64448502600E+01 -0.11864428642E+03  0.13890990940E+03  0.25168028474E+03  0.17300000000E+03 0. -1.
         -6    1    1    2    0  503  0.64448502600E+01  0.11864428642E+03 -0.62082560163E+03  0.65534069799E+03  0.17300000000E+03 0. -1.
</event>
<event>
 4    1  0.3065897E+000  0.1000000E+03  0.7546771E-02  0.1280296E+00
         21   -1    0    0  501  502  0.00000000000E+00  0.00000000000E+00  0.11786960579E+03  0.11786960579E+03  0.00000000000E+00 0. -1.
         21   -1    0    0  502  503 -0.00000000000E+00 -0.00000000000E+00 -0.39374333337E+03  0.39374333337E+03  0.00000000000E+00 0. -1.
          6    1    1    2  501    0  0.92626580747E+02 -0.12784074295E+01 -0.24347733366E+03  0.31271637276E+03  0.17300000000E+03 0. -1.
         -6    1    1    2    0  503 -0.92626580747E+02  0.12784074295E+01 -0.32396393913E+02  0.19889656640E+03  0.17300000000E+03 0. -1.
</event>
<event>
 4    1  0.3065897E+000  0.1000000E+03  0.7546771E-02  0.1280296E+00
         21   -1    0    0  501  502  0.00000000000E+00  0.00000000000E+00  0.43182651109E+03  0.43182651109E+03  0.00000000000E+00 0. -1.
         21   -1    0    0  502  503 -0.00000000000E+00 -0.00000000000E+00 -0.17572720043E+03  0.17572720043E+03  0.00000000000E+00 0. -1.
          6    1    1    2  501    0  0.11392226217E+03  0.72589378451E+02  0.31160903271E+03  0.38115179253E+03  0.17300000000E+03 0. -1.
         -6    1    1    2    0  503 -0.11392226217E+03 -0.72589378451E+02 -0.55509722058E+02  0.22640191899E+03  0.17300000000E+03 0. -1.
</event>
<event>
 4    1  0.3065897E+000  0.1000000E+03  0.7546771E-02  0.1280296E+00
         21   -1    0    0  501  502  0.00000000000E+00  0.00000000000E+00  0.17486553607E+04  0.17486553607E+04  0.00000000000E+00 0. -1.
         21   -1    0    0  502  503 -0.00000000000E+00 -0.00000000000E+00 -0.27101867143E+02  0.27101867143E+02  0.00000000000E+00 0. -1.
          6    1    1    2  501    0  0.91403075094E+02  0.53761320497E+02  0.11823856469E+04  0.11996706297E+04  0.17300000000E+03 0. -1.
         -6    1    1    2    0  503 -0.91403075094E+02 -0.53761320497E+02  0.53916784670E+03  0.57608659820E+03  0.17300000000E+03 0. -1.
</event>
<event>
 4    1  0.3065897E+000  0.1000000E+03  0.7546771E-02  0.1280296E+00
         21   -1    0    0  501  502  0.00000000000E+00  0.00000000000E+00  0.18634435884E+03  0.18634435884E+03  0.00000000000E+00 0. -1.
         21   -1    0    0  502  503 -0.00000000000E+00 -0.00000000000E+00 -0.61644441658E+03  0.61644441658E+03  0.00000000000E+00 0. -1.
          6    1    1    2  501    0  0.10053223194E+03 -0.64961870155E+02  0.99663345410E+02  0.23278435654E+03  0.17300000000E+03 0. -1.
         -6    1    1    2    0  503 -0.10053223194E+03  0.64961870155E+02 -0.52976340314E+03  0.57000441888E+03  0.17300000000E+03 0. -1.
</event>
<event>
 4    1  0.3065897E+000  0.1000000E+03  0.7546771E-02  0.1280296E+00
         21   -1    0    0  501  502  0.00000000000E+00  0.00000000000E+00  0.95994636853E+02  0.95994636853E+02  0.00000000000E+00 0.  1.
         21   -1    0    0  502  503 -0.00000000000E+00 -0.00000000000E+00 -0.74913412330E+03  0.74913412330E+03  0.00000000000E+00 0.  1.
          6    1    1    2  501    0  0.20447119380E+03  0.10338051611E+02 -0.33961276947E+03  0.43264440086E+03  0.17300000000E+03 0.  1.
         -6    1    1    2    0  503 -0.20447119380E+03 -0.10338051611E+02 -0.31352671698E+03  0.41248435930E+03  0.17300000000E+03 0.  1.
</event>
<event>
 4    1  0.3065897E+000  0.1000000E+03  0.7546771E-02  0.1280296E+00
         21   -1    0    0  501  502  0.00000000000E+00  0.00000000000E+00  0.33079439943E+03  0.33079439943E+03  0.00000000000E+00 0.  1.
         21   -1    0    0  502  503 -0.00000000000E+00 -0.00000000000E+00 -0.10206592171E+03  0.10206592171E+03  0.00000000000E+00 0.  1.
          6    1    1    2  501    0 -0.57724278772E+02 -0.14904470016E+02  0.94668754423E+02  0.20602283526E+03  0.17300000000E+03 0.  1.
         -6    1    1    2    0  503  0.57724278772E+02  0.14904470016E+02  0.13405972330E+03  0.22683748587E+03  0.17300000000E+03 0.  1.
</event>
<event>
 4    1  0.3065897E+000  0.1000000E+03  0.7546771E-02  0.1280296E+00
         21   -1    0    0  503  502  0.00000000000E+00  0.00000000000E+00  0.27542803888E+03  0.27542803888E+03  0.00000000000E+00 0. -1.
         21   -1    0    0  501  503 -0.00000000000E+00 -0.00000000000E+00 -0.23913351340E+03  0.23913351340E+03  0.00000000000E+00 0. -1.
          6    1    1    2  501    0  0.95605935738E+01  0.64200738405E+02 -0.16040397885E+03  0.24468668985E+03  0.17300000000E+03 0. -1.
         -6    1    1    2    0  502 -0.95605935738E+01 -0.64200738405E+02  0.19669850433E+03  0.26987486242E+03  0.17300000000E+03 0. -1.
</event>
<event>
 4    1  0.3065897E+000  0.1000000E+03  0.7546771E-02  0.1280296E+00
         21   -1    0    0  503  502  0.00000000000E+00  0.00000000000E+00  0.30553701597E+02  0.30553701597E+02  0.00000000000E+00 0. -1.
         21   -1    0    0  501  503 -0.00000000000E+00 -0.00000000000E+00 -0.10570619613E+04  0.10570619613E+04  0.00000000000E+00 0. -1.
          6    1    1    2  501    0 -0.18052593370E+02 -0.39006245395E+02 -0.58230788641E+03  0.60898182065E+03  0.17300000000E+03 0. -1.
         -6    1    1    2    0  502  0.18052593370E+02  0.39006245395E+02 -0.44420037325E+03  0.47863384220E+03  0.17300000000E+03 0. -1.
</event>
<event>
 4    1  0.3065897E+000  0.1000000E+03  0.7546771E-02  0.1280296E+00
         21   -1    0    0  503  502  0.00000000000E+00  0.00000000000E+00  0.29441120905E+03  0.29441120905E+03  0.00000000000E+00 0. -1.
         21   -1    0    0  501  503 -0.00000000000E+00 -0.00000000000E+00 -0.13508636543E+03  0.13508636543E+03  0.00000000000E+00 0. -1.
          6    1    1    2  501    0 -0.92243694345E+02 -0.24177641950E+02  0.50202020250E+02  0.20382026483E+03  0.17300000000E+03 0. -1.
         -6    1    1    2    0  502  0.92243694345E+02  0.24177641950E+02  0.10912282337E+03  0.22567730966E+03  0.17300000000E+03 0. -1.
</event>
<event>
 4    1  0.3065897E+000  0.1000000E+03  0.7546771E-02  0.1280296E+00
         21   -1    0    0  503  502  0.00000000000E+00  0.00000000000E+00  0.13519087648E+03  0.13519087648E+03  0.00000000000E+00 0. -1.
         21   -1    0    0  501  503 -0.00000000000E+00 -0.00000000000E+00 -0.87852974759E+03  0.87852974759E+03  0.00000000000E+00 0. -1.
          6    1    1    2  501    0 -0.18855505116E+03 -0.22320970170E+03 -0.28509998010E+03  0.44338084860E+03  0.17300000000E+03 0. -1.
         -6    1    1    2    0  502  0.18855505116E+03  0.22320970170E+03 -0.45823889101E+03  0.57033977548E+03  0.17300000000E+03 0. -1.
</event>
<event>
 4    1  0.3065897E+000  0.1000000E+03  0.7546771E-02  0.1280296E+00
         21   -1    0    0  503  502  0.00000000000E+00  0.00000000000E+00  0.48151866311E+02  0.48151866311E+02  0.00000000000E+00 0. -1.
         21   -1    0    0  501  503 -0.00000000000E+00 -0.00000000000E+00 -0.92554013399E+03  0.92554013399E+03  0.00000000000E+00 0. -1.
          6    1    1    2  501    0 -0.41145764742E+01  0.74326229957E+02 -0.65864041286E+03  0.68503832860E+03  0.17300000000E+03 0. -1.
         -6    1    1    2    0  502  0.41145764742E+01 -0.74326229957E+02 -0.21874785482E+03  0.28865367171E+03  0.17300000000E+03 0. -1.
</event>
<event>
 4    1  0.3065897E+000  0.1000000E+03  0.7546771E-02  0.1280296E+00
         21   -1    0    0  503  502  0.00000000000E+00  0.00000000000E+00  0.31907394889E+03  0.31907394889E+03  0.00000000000E+00 0. -1.
         21   -1    0    0  501  503 -0.00000000000E+00 -0.00000000000E+00 -0.26366728667E+03  0.26366728667E+03  0.00000000000E+00 0. -1.
          6    1    1    2  501    0 -0.14177628573E+03 -0.11967694012E+03 -0.11356838019E+03  0.27793859425E+03  0.17300000000E+03 0. -1.
         -6    1    1    2    0  502  0.14177628573E+03  0.11967694012E+03  0.16897504242E+03  0.30480264131E+03  0.17300000000E+03 0. -1.
</event>
<event>
 4    1  0.3065897E+000  0.1000000E+03  0.7546771E-02  0.1280296E+00
         21   -1    0    0  503  502  0.00000000000E+00  0.00000000000E+00  0.34702380371E+03  0.34702380371E+03  0.00000000000E+00 0.  1.
         21   -1    0    0  501  503 -0.00000000000E+00 -0.00000000000E+00 -0.11694089293E+03  0.11694089293E+03  0.00000000000E+00 0.  1.
          6    1    1    2  501    0  0.66773184423E+02  0.67486440921E+02  0.68417673802E+02  0.20886133188E+03  0.17300000000E+03 0.  1.
         -6    1    1    2    0  502 -0.66773184423E+02 -0.67486440921E+02  0.16166523698E+03  0.25510336476E+03  0.17300000000E+03 0.  1.
</event>
<event>
 4    1  0.3065897E+000  0.1000000E+03  0.7546771E-02  0.1280296E+00
         21   -1    0    0  503  502  0.00000000000E+00  0.00000000000E+00  0.12957702693E+03  0.12957702693E+03  0.00000000000E+00 0.  1.
         21   -1    0    0  501  503 -0.00000000000E+00 -0.00000000000E+00 -0.43027271189E+03  0.43027271189E+03  0.00000000000E+00 0.  1.
          6    1    1    2  501    0  0.86472207025E+02  0.33319805659E+02 -0.30599241571E+03  0.36352167818E+03  0.17300000000E+03 0.  1.
         -6    1    1    2    0  502 -0.86472207025E+02 -0.33319805659E+02  0.52967307491E+01  0.19632806064E+03  0.17300000000E+03 0.  1.
</event>
<event>
 4    1  0.3065897E+000  0.1000000E+03  0.7546771E-02  0.1280296E+00
         21   -1    0    0  503  502  0.00000000000E+00  0.00000000000E+00  0.22538916986E+04  0.22538916986E+04  0.00000000000E+00 0.  1.
         21   -1    0    0  501  503 -0.00000000000E+00 -0.00000000000E+00 -0.16340301832E+02  0.16340301832E+02  0.00000000000E+00 0.  1.
          6    1    1    2  501    0 -0.67598738477E+02  0.37457925747E+01  0.83408457778E+03  0.85452308529E+03  0.17300000000E+03 0.  1.
         -6    1    1    2    0  502  0.67598738477E+02 -0.37457925747E+01  0.14034668190E+04  0.14157089151E+04  0.17300000000E+03 0.  1.
</event>
<event>
 4    1  0.3065897E+000  0.1000000E+03  0.7546771E-02  0.1280296E+00
         21   -1    0    0  503  502  0.00000000000E+00  0.00000000000E+00  0.24896464349E+02  0.24896464349E+02  0.00000000000E+00 0.  1.
         21   -1    0    0  501  503 -0.00000000000E+00 -0.00000000000E+00 -0.21749033419E+04  0.21749033419E+04  0.00000000000E+00 0.  1.
          6    1    1    2  501    0 -0.93853256061E+01 -0.32374000226E+02 -0.17931339067E+04  0.18017753377E+04  0.17300000000E+03 0.  1.
         -6    1    1    2    0  502  0.93853256061E+01  0.32374000226E+02 -0.35687297080E+03  0.39802446849E+03  0.17300000000E+03 0.  1.
</event>
<event>
 4    1  0.3065897E+000  0.1000000E+03  0.7546771E-02  0.1280296E+00
         21   -1    0    0  503  502  0.00000000000E+00  0.00000000000E+00  0.39842087855E+03  0.39842087855E+03  0.00000000000E+00 0. -1.
         21   -1    0    0  501  503 -0.00000000000E+00 -0.00000000000E+00 -0.16452450186E+03  0.16452450186E+03  0.00000000000E+00 0. -1.
          6    1    1    2  501    0  0.12858871028E+03 -0.27020515456E+02 -0.32000596085E+02  0.21958643587E+03  0.17300000000E+03 0. -1.
         -6    1    1    2    0  502 -0.12858871028E+03  0.27020515456E+02  0.26589697278E+03  0.34335894454E+03  0.17300000000E+03 0. -1.
</event>
<event>
 4    1  0.3065897E+000  0.1000000E+03  0.7546771E-02  0.1280296E+00
         21   -1    0    0  503  502  0.00000000000E+00  0.00000000000E+00  0.18343583940E+03  0.18343583940E+03  0.00000000000E+00 0. -1.
         21   -1    0    0  501  503 -0.00000000000E+00 -0.00000000000E+00 -0.18763028241E+03  0.18763028241E+03  0.00000000000E+00 0. -1.
          6    1    1    2  501    0 -0.32773882377E+01  0.16320787973E+02 -0.67001360174E+02  0.18626672182E+03  0.17300000000E+03 0. -1.
         -6    1    1    2    0  502  0.32773882377E+01 -0.16320787973E+02  0.62806917160E+02  0.18479939999E+03  0.17300000000E+03 0. -1.
</event>
<event>
 4    1  0.3065897E+000  0.1000000E+03  0.7546771E-02  0.1280296E+00
         21   -1    0    0  503  502  0.00000000000E+00  0.00000000000E+00  0.16829795363E+03  0.16829795363E+03  0.00000000000E+00 0.  1.
         21   -1    0    0  501  503 -0.00000000000E+00 -0.00000000000E+00 -0.72042164105E+03  0.72042164105E+03  0.00000000000E+00 0.  1.
          6    1    1    2  501    0 -0.71417638106E+02  0.88319255343E+01 -0.65060285111E+03  0.67704619621E+03  0.17300000000E+03 0.  1.
         -6    1    1    2    0  502  0.71417638106E+02 -0.88319255343E+01  0.98479163685E+02  0.21167339847E+03  0.17300000000E+03 0.  1.
</event>
<event>
 4    1  0.3065897E+000  0.1000000E+03  0.7546771E-02  0.1280296E+00
         21   -1    0    0  503  502  0.00000000000E+00  0.00000000000E+00  0.42063781707E+03  0.42063781707E+03  0.00000000000E+00 0.  1.
         21   -1    0    0  501  503 -0.00000000000E+00 -0.00000000000E+00 -0.26027205582E+03  0.26027205582E+03  0.00000000000E+00 0.  1.
          6    1    1    2  501    0  0.35808951897E+02  0.24781140479E+03 -0.53415477494E+02  0.30899026945E+03  0.17300000000E+03 0.  1.
         -6    1    1    2    0  502 -0.35808951897E+02 -0.24781140479E+03  0.21378123875E+03  0.37191960344E+03  0.17300000000E+03 0.  1.
</event>
<event>
 4    1  0.3065897E+000  0.1000000E+03  0.7546771E-02  0.1280296E+00
         21   -1    0    0  503  502  0.00000000000E+00  0.00000000000E+00  0.16806590331E+03  0.16806590331E+03  0.00000000000E+00 0.  1.
         21   -1    0    0  501  503 -0.00000000000E+00 -0.00000000000E+00 -0.32922211127E+03  0.32922211127E+03  0.00000000000E+00 0.  1.
          6    1    1    2  501    0 -0.72609656755E+02 -0.14166067564E+03 -0.88908148580E+02  0.25134352620E+03  0.17300000000E+03 0.  1.
         -6    1    1    2    0  502  0.72609656755E+02  0.14166067564E+03 -0.72248059379E+02  0.24594448837E+03  0.17300000000E+03 0.  1.
</event>
<event>
 4    1  0.3065897E+000  0.1000000E+03  0.7546771E-02  0.1280296E+00
         21   -1    0    0  503  502  0.00000000000E+00  0.00000000000E+00  0.33939182993E+02  0.33939182993E+02  0.00000000000E+00 0.  1.
         21   -1    0    0  501  503 -0.00000000000E+00 -0.00000000000E+00 -0.28807744206E+04  0.28807744206E+04  0.00000000000E+00 0.  1.
          6    1    1    2  501    0 -0.21600172328E+03 -0.54053510921E+02 -0.20532918077E+04  0.20725623692E+04  0.17300000000E+03 0.  1.
         -6    1    1    2    0  502  0.21600172328E+03  0.54053510921E+02 -0.79354342992E+03  0.84215123445E+03  0.17300000000E+03 0.  1.
</event>
<event>
 4    1  0.3065897E+000  0.1000000E+03  0.7546771E-02  0.1280296E+00
         21   -1    0    0  503  502  0.00000000000E+00  0.00000000000E+00  0.33104574239E+03  0.33104574239E+03  0.00000000000E+00 0.  1.
         21   -1    0    0  501  503 -0.00000000000E+00 -0.00000000000E+00 -0.75940981488E+03  0.75940981488E+03  0.00000000000E+00 0.  1.
          6    1    1    2  501    0 -0.15761950659E+03  0.32564415643E+03 -0.54146069375E+03  0.67379277850E+03  0.17300000000E+03 0.  1.
         -6    1    1    2    0  502  0.15761950659E+03 -0.32564415643E+03  0.11309662127E+03  0.41666277878E+03  0.17300000000E+03 0.  1.
</event>
<event>
 4    1  0.3065897E+000  0.1000000E+03  0.7546771E-02  0.1280296E+00
         21   -1    0    0  501  502  0.00000000000E+00  0.00000000000E+00  0.44172353745E+03  0.44172353745E+03  0.00000000000E+00 0.  1.
         21   -1    0    0  502  503 -0.00000000000E+00 -0.00000000000E+00 -0.12201171430E+03  0.12201171430E+03  0.00000000000E+00 0. -1.
          6    1    1    2  501    0  0.11276399457E+02  0.14266954165E+03  0.23152820205E+03  0.32251521459E+03  0.17300000000E+03 0.  1.
         -6    1    1    2    0  503 -0.11276399457E+02 -0.14266954165E+03  0.88183621098E+02  0.24122003716E+03  0.17300000000E+03 0. -1.
</event>
<event>
 4    1  0.3065897E+000  0.1000000E+03  0.7546771E-02  0.1280296E+00
         21   -1    0    0  501  502  0.00000000000E+00  0.00000000000E+00  0.34767104223E+03  0.34767104223E+03  0.00000000000E+00 0.  1.
         21   -1    0    0  502  503 -0.00000000000E+00 -0.00000000000E+00 -0.15839528488E+03  0.15839528488E+03  0.00000000000E+00 0. -1.
          6    1    1    2  501    0  0.15656094790E+03  0.20662056688E+02  0.10997047234E+03  0.25876776418E+03  0.17300000000E+03 0. -1.
         -6    1    1    2    0  503 -0.15656094790E+03 -0.20662056688E+02  0.79305285015E+02  0.24729856292E+03  0.17300000000E+03 0.  1.
</event>
<event>
 4    1  0.3065897E+000  0.1000000E+03  0.7546771E-02  0.1280296E+00
         21   -1    0    0  501  502  0.00000000000E+00  0.00000000000E+00  0.43150021606E+03  0.43150021606E+03  0.00000000000E+00 0.  1.
         21   -1    0    0  502  503 -0.00000000000E+00 -0.00000000000E+00 -0.16594891638E+03  0.16594891638E+03  0.00000000000E+00 0. -1.
          6    1    1    2  501    0  0.16226000783E+03  0.46065164415E+02  0.26116680957E+03  0.35579124769E+03  0.17300000000E+03 0. -1.
         -6    1    1    2    0  503 -0.16226000783E+03 -0.46065164415E+02  0.43844901149E+01  0.24165788476E+03  0.17300000000E+03 0.  1.
</event>
<event>
 4    1  0.3065897E+000  0.1000000E+03  0.7546771E-02  0.1280296E+00
         21   -1    0    0  501  502  0.00000000000E+00  0.00000000000E+00  0.11223346717E+03  0.11223346717E+03  0.00000000000E+00 0. -1.
         21   -1    0    0  502  503 -0.00000000000E+00 -0.00000000000E+00 -0.82250982845E+03  0.82250982845E+03  0.00000000000E+00 0. -1.
          6    1    1    2  501    0 -0.39061837105E+02  0.97364383398E+02 -0.64628275562E+01  0.20242632836E+03  0.17300000000E+03 0.  1.
         -6    1    1    2    0  503  0.39061837105E+02 -0.97364383398E+02 -0.70381353373E+03  0.73231696725E+03  0.17300000000E+03 0.  1.
</event>
<event>
 4    1  0.3065897E+000  0.1000000E+03  0.7546771E-02  0.1280296E+00
         21   -1    0    0  501  502  0.00000000000E+00  0.00000000000E+00  0.38454284363E+03  0.38454284363E+03  0.00000000000E+00 0. -1.
         21   -1    0    0  502  503 -0.00000000000E+00 -0.00000000000E+00 -0.19750102407E+03  0.19750102407E+03  0.00000000000E+00 0. -1.
          6    1    1    2  501    0 -0.15875889427E+03  0.22854734988E+02  0.24394930493E+03  0.33936262139E+03  0.17300000000E+03 0.  1.
         -6    1    1    2    0  503  0.15875889427E+03 -0.22854734988E+02 -0.56907485370E+02  0.24268124631E+03  0.17300000000E+03 0.  1.
</event>
<event>
 4    1  0.3065897E+000  0.1000000E+03  0.7546771E-02  0.1280296E+00
         21   -1    0    0  501  502  0.00000000000E+00  0.00000000000E+00  0.11044514786E+04  0.11044514786E+04  0.00000000000E+00 0.  1.
         21   -1    0    0  502  503 -0.00000000000E+00 -0.00000000000E+00 -0.56669742459E+02  0.56669742459E+02  0.00000000000E+00 0.  1.
          6    1    1    2  501    0  0.11567901539E+03  0.10695018128E+02  0.84513949994E+03  0.87045148766E+03  0.17300000000E+03 0.  1.
         -6    1    1    2    0  503 -0.11567901539E+03 -0.10695018128E+02  0.20264223616E+03  0.29066973336E+03  0.17300000000E+03 0.  1.
</event>
<event>
 4    1  0.3065897E+000  0.1000000E+03  0.7546771E-02  0.1280296E+00
         21   -1    0    0  501  502  0.00000000000E+00  0.00000000000E+00  0.18187484894E+02  0.18187484894E+02  0.00000000000E+00 0.  1.
         21   -1    0    0  502  503 -0.00000000000E+00 -0.00000000000E+00 -0.21250409476E+04  0.21250409476E+04  0.00000000000E+00 0.  1.
          6    1    1    2  501    0 -0.36963420219E+02  0.57328442387E+02 -0.70579302122E+03  0.72988056115E+03  0.17300000000E+03 0.  1.
         -6    1    1    2    0  503  0.36963420219E+02 -0.57328442387E+02 -0.14010604415E+04  0.14133478714E+04  0.17300000000E+03 0.  1.
</event>
<event>
 4    1  0.3065897E+000  0.1000000E+03  0.7546771E-02  0.1280296E+00
         21   -1    0    0  503  502  0.00000000000E+00  0.00000000000E+00  0.97806904125E+03  0.97806904125E+03  0.00000000000E+00 0. -1.
         21   -1    0    0  501  503 -0.00000000000E+00 -0.00000000000E+00 -0.19153392471E+03  0.19153392471E+03  0.00000000000E+00 0.  1.
          6    1    1    2  501    0  0.13676462076E+03 -0.27696622097E+02 -0.10853692059E+03  0.24734778652E+03  0.17300000000E+03 0.  1.
         -6    1    1    2    0  502 -0.13676462076E+03  0.27696622097E+02  0.89507203712E+03  0.92225517944E+03  0.17300000000E+03 0. -1.
</event>
<event>
 4    1  0.3065897E+000  0.1000000E+03  0.7546771E-02  0.1280296E+00
         21   -1    0    0  503  502  0.00000000000E+00  0.00000000000E+00  0.27651484796E+04  0.27651484796E+04  0.00000000000E+00 0. -1.
         21   -1    0    0  501  503 -0.00000000000E+00 -0.00000000000E+00 -0.12683115623E+02  0.12683115623E+02  0.00000000000E+00 0.  1.
          6    1    1    2  501    0 -0.37326098595E+02  0.56980726864E+01  0.92412580702E+03  0.94093741177E+03  0.17300000000E+03 0.  1.
         -6    1    1    2    0  502  0.37326098595E+02 -0.56980726864E+01  0.18283395570E+04  0.18368941835E+04  0.17300000000E+03 0. -1.
</event>
<event>
 4    1  0.3065897E+000  0.1000000E+03  0.7546771E-02  0.1280296E+00
         21   -1    0    0  503  502  0.00000000000E+00  0.00000000000E+00  0.42005593557E+03  0.42005593557E+03  0.00000000000E+00 0. -1.
         21   -1    0    0  501  503 -0.00000000000E+00 -0.00000000000E+00 -0.19803642533E+03  0.19803642533E+03  0.00000000000E+00 0. -1.
          6    1    1    2  501    0 -0.96789495654E+02 -0.38661159803E+02 -0.10961383937E+03  0.22979792324E+03  0.17300000000E+03 0. -1.
         -6    1    1    2    0  502  0.96789495654E+02  0.38661159803E+02  0.33163334961E+03  0.38829443766E+03  0.17300000000E+03 0. -1.
</event>
<event>
 4    1  0.3065897E+000  0.1000000E+03  0.7546771E-02  0.1280296E+00
         21   -1    0    0  501  502  0.00000000000E+00  0.00000000000E+00  0.25278788484E+03  0.25278788484E+03  0.00000000000E+00 0.  1.
         21   -1    0    0  502  503 -0.00000000000E+00 -0.00000000000E+00 -0.93150637801E+03  0.93150637801E+03  0.00000000000E+00 0. -1.
          6    1    1    2  501    0 -0.81322300734E+02  0.21144967505E+03  0.13985451383E+03  0.31750994743E+03  0.17300000000E+03 0.  1.
         -6    1    1    2    0  503  0.81322300734E+02 -0.21144967505E+03 -0.81857300700E+03  0.86678431543E+03  0.17300000000E+03 0. -1.
</event>
<event>
 4    1  0.3065897E+000  0.1000000E+03  0.7546771E-02  0.1280296E+00
         21   -1    0    0  501  502  0.00000000000E+00  0.00000000000E+00  0.77503591888E+02  0.77503591888E+02  0.00000000000E+00 0. -1.
         21   -1    0    0  502  503 -0.00000000000E+00 -0.00000000000E+00 -0.74759457993E+03  0.74759457993E+03  0.00000000000E+00 0.  1.
          6    1    1    2  501    0  0.46398312998E+02  0.61973276487E+01 -0.59642515717E+02  0.18888472675E+03  0.17300000000E+03 0.  1.
         -6    1    1    2    0  503 -0.46398312998E+02 -0.61973276487E+01 -0.61044847233E+03  0.63621344507E+03  0.17300000000E+03 0. -1.
</event>
<event>
 4    1  0.3065897E+000  0.1000000E+03  0.7546771E-02  0.1280296E+00
         21   -1    0    0  501  502  0.00000000000E+00  0.00000000000E+00  0.21302675577E+03  0.21302675577E+03  0.00000000000E+00 0.  1.
         21   -1    0    0  502  503 -0.00000000000E+00 -0.00000000000E+00 -0.28953064631E+03  0.28953064631E+03  0.00000000000E+00 0.  1.
          6    1    1    2  501    0 -0.66651179008E+02  0.16510658362E+03 -0.31373941328E+02  0.25023166828E+03  0.17300000000E+03 0.  1.
         -6    1    1    2    0  503  0.66651179008E+02 -0.16510658362E+03 -0.45129949214E+02  0.25232573379E+03  0.17300000000E+03 0.  1.
</event>
<event>
 4    1  0.3065897E+000  0.1000000E+03  0.7546771E-02  0.1280296E+00
         21   -1    0    0  501  502  0.00000000000E+00  0.00000000000E+00  0.31681320362E+03  0.31681320362E+03  0.00000000000E+00 0.  1.
         21   -1    0    0  502  503 -0.00000000000E+00 -0.00000000000E+00 -0.13575766495E+03  0.13575766495E+03  0.00000000000E+00 0.  1.
          6    1    1    2  501    0  0.16072362885E+02 -0.10315088397E+03  0.14150068384E+03  0.24667766263E+03  0.17300000000E+03 0.  1.
         -6    1    1    2    0  503 -0.16072362885E+02  0.10315088397E+03  0.39554854829E+02  0.20589320594E+03  0.17300000000E+03 0.  1.
</event>
<event>
 4    1  0.3065897E+000  0.1000000E+03  0.7546771E-02  0.1280296E+00
         21   -1    0    0  503  502  0.00000000000E+00  0.00000000000E+00  0.54319175603E+02  0.54319175603E+02  0.00000000000E+00 0. -1.
         21   -1    0    0  501  503 -0.00000000000E+00 -0.00000000000E+00 -0.99282440463E+03  0.99282440463E+03  0.00000000000E+00 0. -1.
          6    1    1    2  501    0 -0.64107671246E+02 -0.10864867003E+03 -0.67198930173E+03  0.70527508722E+03  0.17300000000E+03 0. -1.
         -6    1    1    2    0  502  0.64107671246E+02  0.10864867003E+03 -0.26651592729E+03  0.34186849301E+03  0.17300000000E+03 0. -1.
</event>
<event>
 4    1  0.3065897E+000  0.1000000E+03  0.7546771E-02  0.1280296E+00
         21   -1    0    0  501  502  0.00000000000E+00  0.00000000000E+00  0.25335807092E+03  0.25335807092E+03  0.00000000000E+00 0.  1.
         21   -1    0    0  502  503 -0.00000000000E+00 -0.00000000000E+00 -0.28159293463E+03  0.28159293463E+03  0.00000000000E+00 0.  1.
          6    1    1    2  501    0  0.19022569084E+03 -0.34646688640E+02 -0.77677563784E+02  0.27083022432E+03  0.17300000000E+03 0.  1.
         -6    1    1    2    0  503 -0.19022569084E+03  0.34646688640E+02  0.49442700070E+02  0.26412078123E+03  0.17300000000E+03 0.  1.
</event>
<event>
 4    1  0.3065897E+000  0.1000000E+03  0.7546771E-02  0.1280296E+00
         21   -1    0    0  501  502  0.00000000000E+00  0.00000000000E+00  0.13929573872E+04  0.13929573872E+04  0.00000000000E+00 0.  1.
         21   -1    0    0  502  503 -0.00000000000E+00 -0.00000000000E+00 -0.10261219176E+03  0.10261219176E+03  0.00000000000E+00 0.  1.
          6    1    1    2  501    0 -0.16147316895E+03  0.15394894644E+03  0.11425375024E+04  0.11769005084E+04  0.17300000000E+03 0.  1.
         -6    1    1    2    0  503  0.16147316895E+03 -0.15394894644E+03  0.14780769311E+03  0.31866907058E+03  0.17300000000E+03 0.  1.
</event>
<event>
 4    1  0.3065897E+000  0.1000000E+03  0.7546771E-02  0.1280296E+00
         21   -1    0    0  501  502  0.00000000000E+00  0.00000000000E+00  0.27026022793E+03  0.27026022793E+03  0.00000000000E+00 0.  1.
         21   -1    0    0  502  503 -0.00000000000E+00 -0.00000000000E+00 -0.24350094773E+03  0.24350094773E+03  0.00000000000E+00 0.  1.
          6    1    1    2  501    0  0.11797705438E+03 -0.92275873345E+02  0.12949499768E+03  0.26292846287E+03  0.17300000000E+03 0.  1.
         -6    1    1    2    0  503 -0.11797705438E+03  0.92275873345E+02 -0.10273571748E+03  0.25083271280E+03  0.17300000000E+03 0.  1.
</event>
<event>
 4    1  0.3065897E+000  0.1000000E+03  0.7546771E-02  0.1280296E+00
         21   -1    0    0  501  502  0.00000000000E+00  0.00000000000E+00  0.14338593451E+04  0.14338593451E+04  0.00000000000E+00 0.  1.
         21   -1    0    0  502  503 -0.00000000000E+00 -0.00000000000E+00 -0.27784681266E+03  0.27784681266E+03  0.00000000000E+00 0.  1.
          6    1    1    2  501    0 -0.56406434933E+03  0.12712676971E+03  0.82852467403E+03  0.10250424095E+04  0.17300000000E+03 0.  1.
         -6    1    1    2    0  503  0.56406434933E+03 -0.12712676971E+03  0.32748785839E+03  0.68666374825E+03  0.17300000000E+03 0.  1.
</event>
<event>
 4    1  0.3065897E+000  0.1000000E+03  0.7546771E-02  0.1280296E+00
         21   -1    0    0  501  502  0.00000000000E+00  0.00000000000E+00  0.89074043788E+03  0.89074043788E+03  0.00000000000E+00 0.  1.
         21   -1    0    0  502  503 -0.00000000000E+00 -0.00000000000E+00 -0.95483921569E+02  0.95483921569E+02  0.00000000000E+00 0. -1.
          6    1    1    2  501    0  0.72979690498E+02 -0.25528780606E+01  0.77491832966E+03  0.79734557756E+03  0.17300000000E+03 0.  1.
         -6    1    1    2    0  503 -0.72979690498E+02  0.25528780606E+01  0.20338186652E+02  0.18887878189E+03  0.17300000000E+03 0. -1.
</event>
<event>
 4    1  0.3065897E+000  0.1000000E+03  0.7546771E-02  0.1280296E+00
         21   -1    0    0  501  502  0.00000000000E+00  0.00000000000E+00  0.42772224598E+03  0.42772224598E+03  0.00000000000E+00 0.  1.
         21   -1    0    0  502  503 -0.00000000000E+00 -0.00000000000E+00 -0.14307833959E+03  0.14307833959E+03  0.00000000000E+00 0. -1.
          6    1    1    2  501    0  0.42074712020E+02 -0.93518790287E+02  0.30851938388E+03  0.36827877451E+03  0.17300000000E+03 0.  1.
         -6    1    1    2    0  503 -0.42074712020E+02  0.93518790287E+02 -0.23875477491E+02  0.20252181106E+03  0.17300000000E+03 0. -1.
</event>
<event>
 4    1  0.3065897E+000  0.1000000E+03  0.7546771E-02  0.1280296E+00
         21   -1    0    0  501  502  0.00000000000E+00  0.00000000000E+00  0.39662427790E+03  0.39662427790E+03  0.00000000000E+00 0.  1.
         21   -1    0    0  502  503 -0.00000000000E+00 -0.00000000000E+00 -0.22020616716E+03  0.22020616716E+03  0.00000000000E+00 0. -1.
          6    1    1    2  501    0  0.87232485404E+02  0.67789881760E+02  0.31009271306E+03  0.37187560457E+03  0.17300000000E+03 0.  1.
         -6    1    1    2    0  503 -0.87232485404E+02 -0.67789881760E+02 -0.13367460232E+03  0.24495484050E+03  0.17300000000E+03 0. -1.
</event>
<event>
 4    1  0.3065897E+000  0.1000000E+03  0.7546771E-02  0.1280296E+00
         21   -1    0    0  501  502  0.00000000000E+00  0.00000000000E+00  0.43292081119E+03  0.43292081119E+03  0.00000000000E+00 0.  1.
         21   -1    0    0  502  503 -0.00000000000E+00 -0.00000000000E+00 -0.94322661000E+02  0.94322661000E+02  0.00000000000E+00 0.  1.
          6    1    1    2  501    0 -0.82082363997E+01  0.99468697947E+02  0.20937831789E+03  0.28936080768E+03  0.17300000000E+03 0.  1.
         -6    1    1    2    0  503  0.82082363997E+01 -0.99468697947E+02  0.12921983230E+03  0.23788266451E+03  0.17300000000E+03 0.  1.
</event>
<event>
 4    1  0.3065897E+000  0.1000000E+03  0.7546771E-02  0.1280296E+00
         21   -1    0    0  501  502  0.00000000000E+00  0.00000000000E+00  0.48809334791E+03  0.48809334791E+03  0.00000000000E+00 0.  1.
         21   -1    0    0  502  503 -0.00000000000E+00 -0.00000000000E+00 -0.98377153367E+02  0.98377153367E+02  0.00000000000E+00 0.  1.
          6    1    1    2  501    0  0.62662993898E+02 -0.70312610815E+02  0.32333627403E+03  0.37861043323E+03  0.17300000000E+03 0.  1.
         -6    1    1    2    0  503 -0.62662993898E+02  0.70312610815E+02  0.66379920515E+02  0.20786006805E+03  0.17300000000E+03 0.  1.
</event>
<event>
 4    1  0.3065897E+000  0.1000000E+03  0.7546771E-02  0.1280296E+00
         21   -1    0    0  503  502  0.00000000000E+00  0.00000000000E+00  0.99829730524E+03  0.99829730524E+03  0.00000000000E+00 0.  1.
         21   -1    0    0  501  503 -0.00000000000E+00 -0.00000000000E+00 -0.39534533797E+02  0.39534533797E+02  0.00000000000E+00 0.  1.
          6    1    1    2  501    0 -0.15707224746E+02  0.77967367748E+02  0.33133204851E+03  0.38214598482E+03  0.17300000000E+03 0.  1.
         -6    1    1    2    0  502  0.15707224746E+02 -0.77967367748E+02  0.62743072294E+03  0.65568585422E+03  0.17300000000E+03 0.  1.
</event>
<event>
 4    1  0.3065897E+000  0.1000000E+03  0.7546771E-02  0.1280296E+00
         21   -1    0    0  503  502  0.00000000000E+00  0.00000000000E+00  0.76903273708E+02  0.76903273708E+02  0.00000000000E+00 0.  1.
         21   -1    0    0  501  503 -0.00000000000E+00 -0.00000000000E+00 -0.11737049702E+04  0.11737049702E+04  0.00000000000E+00 0.  1.
          6    1    1    2  501    0  0.17166426711E+02  0.19203438262E+03 -0.86515096708E+03  0.90309860267E+03  0.17300000000E+03 0.  1.
         -6    1    1    2    0  502 -0.17166426711E+02 -0.19203438262E+03 -0.23165072943E+03  0.34750964125E+03  0.17300000000E+03 0.  1.
</event>
<event>
 4    1  0.3065897E+000  0.1000000E+03  0.7546771E-02  0.1280296E+00
         21   -1    0    0  501  502  0.00000000000E+00  0.00000000000E+00  0.69189105240E+03  0.69189105240E+03  0.00000000000E+00 0.  1.
         21   -1    0    0  502  503 -0.00000000000E+00 -0.00000000000E+00 -0.70611102147E+02  0.70611102147E+02  0.00000000000E+00 0. -1.
          6    1    1    2  501    0 -0.12210705163E+03  0.20387923585E+02  0.41413763208E+03  0.46558004445E+03  0.17300000000E+03 0.  1.
         -6    1    1    2    0  503  0.12210705163E+03 -0.20387923585E+02  0.20714231817E+03  0.29692211010E+03  0.17300000000E+03 0. -1.
</event>
<event>
 4    1  0.3065897E+000  0.1000000E+03  0.7546771E-02  0.1280296E+00
         21   -1    0    0  501  502  0.00000000000E+00  0.00000000000E+00  0.99445844984E+02  0.99445844984E+02  0.00000000000E+00 0. -1.
         21   -1    0    0  502  503 -0.00000000000E+00 -0.00000000000E+00 -0.83375149759E+03  0.83375149759E+03  0.00000000000E+00 0. -1.
          6    1    1    2  501    0  0.19269878163E+03 -0.86540800541E+02 -0.21897380358E+03  0.35000093893E+03  0.17300000000E+03 0. -1.
         -6    1    1    2    0  503 -0.19269878163E+03  0.86540800541E+02 -0.51533184903E+03  0.58319640364E+03  0.17300000000E+03 0. -1.
</event>
<event>
 4    1  0.3065897E+000  0.1000000E+03  0.7546771E-02  0.1280296E+00
         21   -1    0    0  501  502  0.00000000000E+00  0.00000000000E+00  0.12892958619E+04  0.12892958619E+04  0.00000000000E+00 0. -1.
         21   -1    0    0  502  503 -0.00000000000E+00 -0.00000000000E+00 -0.24681291447E+02  0.24681291447E+02  0.00000000000E+00 0. -1.
          6    1    1    2  501    0  0.15050543802E+02 -0.28115550285E+02  0.74128097698E+03  0.76186842031E+03  0.17300000000E+03 0. -1.
         -6    1    1    2    0  503 -0.15050543802E+02  0.28115550285E+02  0.52333359349E+03  0.55210873305E+03  0.17300000000E+03 0. -1.
</event>
<event>
 4    1  0.3065897E+000  0.1000000E+03  0.7546771E-02  0.1280296E+00
         21   -1    0    0  501  502  0.00000000000E+00  0.00000000000E+00  0.15448888960E+03  0.15448888960E+03  0.00000000000E+00 0. -1.
         21   -1    0    0  502  503 -0.00000000000E+00 -0.00000000000E+00 -0.55299096666E+03  0.55299096666E+03  0.00000000000E+00 0. -1.
          6    1    1    2  501    0 -0.14520520717E+03  0.13016614919E+02  0.24721046929E+02  0.22758320372E+03  0.17300000000E+03 0. -1.
         -6    1    1    2    0  503  0.14520520717E+03 -0.13016614919E+02 -0.42322312398E+03  0.47989665255E+03  0.17300000000E+03 0. -1.
</event>
<event>
 4    1  0.3065897E+000  0.1000000E+03  0.7546771E-02  0.1280296E+00
         21   -1    0    0  501  502  0.00000000000E+00  0.00000000000E+00  0.38936946563E+03  0.38936946563E+03  0.00000000000E+00 0. -1.
         21   -1    0    0  502  503 -0.00000000000E+00 -0.00000000000E+00 -0.51743798618E+03  0.51743798618E+03  0.00000000000E+00 0.  1.
          6    1    1    2  501    0  0.27039563845E+03 -0.23479399980E+03 -0.27423615579E+03  0.48309056374E+03  0.17300000000E+03 0.  1.
         -6    1    1    2    0  503 -0.27039563845E+03  0.23479399980E+03  0.14616763523E+03  0.42371688806E+03  0.17300000000E+03 0.  1.
</event>
<event>
 4    1  0.3065897E+000  0.1000000E+03  0.7546771E-02  0.1280296E+00
         21   -1    0    0  501  502  0.00000000000E+00  0.00000000000E+00  0.52986765998E+03  0.52986765998E+03  0.00000000000E+00 0. -1.
         21   -1    0    0  502  503 -0.00000000000E+00 -0.00000000000E+00 -0.11211812712E+03  0.11211812712E+03  0.00000000000E+00 0.  1.
          6    1    1    2  501    0  0.50681538488E+01  0.12464918432E+03  0.36422995616E+03  0.42208478568E+03  0.17300000000E+03 0.  1.
         -6    1    1    2    0  503 -0.50681538488E+01 -0.12464918432E+03  0.53519576700E+02  0.21990100142E+03  0.17300000000E+03 0.  1.
</event>
<event>
 4    1  0.3065897E+000  0.1000000E+03  0.7546771E-02  0.1280296E+00
         21   -1    0    0  503  502  0.00000000000E+00  0.00000000000E+00  0.18721325461E+04  0.18721325461E+04  0.00000000000E+00 0. -1.
         21   -1    0    0  501  503 -0.00000000000E+00 -0.00000000000E+00 -0.43234823627E+02  0.43234823627E+02  0.00000000000E+00 0. -1.
          6    1    1    2  501    0  0.12852290346E+03  0.69460494693E+02  0.33463112037E+03  0.40404193317E+03  0.17300000000E+03 0. -1.
         -6    1    1    2    0  502 -0.12852290346E+03 -0.69460494693E+02  0.14942666021E+04  0.15113254366E+04  0.17300000000E+03 0. -1.
</event>
<event>
 4    1  0.3065897E+000  0.1000000E+03  0.7546771E-02  0.1280296E+00
         21   -1    0    0  503  502  0.00000000000E+00  0.00000000000E+00  0.58545039265E+02  0.58545039265E+02  0.00000000000E+00 0.  1.
         21   -1    0    0  501  503 -0.00000000000E+00 -0.00000000000E+00 -0.16410341932E+04  0.16410341932E+04  0.00000000000E+00 0.  1.
          6    1    1    2  501    0 -0.24396443969E+03 -0.18722371736E+01 -0.10143670916E+04  0.10575404246E+04  0.17300000000E+03 0.  1.
         -6    1    1    2    0  502  0.24396443969E+03  0.18722371736E+01 -0.56812206230E+03  0.64203880785E+03  0.17300000000E+03 0.  1.
</event>
<event>
 4    1  0.3065897E+000  0.1000000E+03  0.7546771E-02  0.1280296E+00
         21   -1    0    0  503  502  0.00000000000E+00  0.00000000000E+00  0.25680735402E+03  0.25680735402E+03  0.00000000000E+00 0.  1.
         21   -1    0    0  501  503 -0.00000000000E+00 -0.00000000000E+00 -0.36159769599E+03  0.36159769599E+03  0.00000000000E+00 0.  1.
          6    1    1    2  501    0 -0.34751119535E+02 -0.15670004555E+03 -0.24801788005E+03  0.34235130117E+03  0.17300000000E+03 0.  1.
         -6    1    1    2    0  502  0.34751119535E+02  0.15670004555E+03  0.14322753808E+03  0.27605374884E+03  0.17300000000E+03 0.  1.
</event>
<event>
 4    1  0.3065897E+000  0.1000000E+03  0.7546771E-02  0.1280296E+00
         21   -1    0    0  503  502  0.00000000000E+00  0.00000000000E+00  0.12050891638E+03  0.12050891638E+03  0.00000000000E+00 0.  1.
         21   -1    0    0  501  503 -0.00000000000E+00 -0.00000000000E+00 -0.59218319500E+03  0.59218319500E+03  0.00000000000E+00 0.  1.
          6    1    1    2  501    0  0.96466287646E+02 -0.15430180992E+03 -0.11416684584E+03  0.27582215626E+03  0.17300000000E+03 0.  1.
         -6    1    1    2    0  502 -0.96466287646E+02  0.15430180992E+03 -0.35750743278E+03  0.43686995512E+03  0.17300000000E+03 0.  1.
</event>
<event>
 4    1  0.3065897E+000  0.1000000E+03  0.7546771E-02  0.1280296E+00
         21   -1    0    0  503  502  0.00000000000E+00  0.00000000000E+00  0.73110878204E+02  0.73110878204E+02  0.00000000000E+00 0. -1.
         21   -1    0    0  501  503 -0.00000000000E+00 -0.00000000000E+00 -0.78714160772E+03  0.78714160772E+03  0.00000000000E+00 0.  1.
          6    1    1    2  501    0  0.16377264269E+03  0.18175003735E+02 -0.31823508701E+03  0.39793765826E+03  0.17300000000E+03 0. -1.
         -6    1    1    2    0  502 -0.16377264269E+03 -0.18175003735E+02 -0.39579564250E+03  0.46231482767E+03  0.17300000000E+03 0.  1.
</event>
<event>
 4    1  0.3065897E+000  0.1000000E+03  0.7546771E-02  0.1280296E+00
         21   -1    0    0  503  502  0.00000000000E+00  0.00000000000E+00  0.23066262503E+03  0.23066262503E+03  0.00000000000E+00 0. -1.
         21   -1    0    0  501  503 -0.00000000000E+00 -0.00000000000E+00 -0.15199682333E+03  0.15199682333E+03  0.00000000000E+00 0.  1.
          6    1    1    2  501    0  0.20519559313E+02  0.35401093321E+02 -0.20743955913E+02  0.17897933241E+03  0.17300000000E+03 0. -1.
         -6    1    1    2    0  502 -0.20519559313E+02 -0.35401093321E+02  0.99409757619E+02  0.20368011595E+03  0.17300000000E+03 0.  1.
</event>
<event>
 4    1  0.3065897E+000  0.1000000E+03  0.7546771E-02  0.1280296E+00
         21   -1    0    0  501  502  0.00000000000E+00  0.00000000000E+00  0.70245927831E+02  0.70245927831E+02  0.00000000000E+00 0.  1.
         21   -1    0    0  502  503 -0.00000000000E+00 -0.00000000000E+00 -0.50392155299E+03  0.50392155299E+03  0.00000000000E+00 0.  1.
          6    1    1    2  501    0 -0.62153726098E+01 -0.40548839927E+00 -0.32928332561E+03  0.37201519297E+03  0.17300000000E+03 0.  1.
         -6    1    1    2    0  503  0.62153726098E+01  0.40548839927E+00 -0.10439229955E+03  0.20215228785E+03  0.17300000000E+03 0.  1.
</event>
<event>
 4    1  0.3065897E+000  0.1000000E+03  0.7546771E-02  0.1280296E+00
         21   -1    0    0  501  502  0.00000000000E+00  0.00000000000E+00  0.13690112456E+04  0.13690112456E+04  0.00000000000E+00 0.  1.
         21   -1    0    0  502  503 -0.00000000000E+00 -0.00000000000E+00 -0.22390109367E+02  0.22390109367E+02  0.00000000000E+00 0.  1.
          6    1    1    2  501    0  0.24990768905E+02  0.14327098940E+01  0.71239012993E+03  0.73352252073E+03  0.17300000000E+03 0.  1.
         -6    1    1    2    0  503 -0.24990768905E+02 -0.14327098940E+01  0.63423100630E+03  0.65787883424E+03  0.17300000000E+03 0.  1.
</event>
<event>
 4    1  0.3065897E+000  0.1000000E+03  0.7546771E-02  0.1280296E+00
         21   -1    0    0  501  502  0.00000000000E+00  0.00000000000E+00  0.14481312760E+03  0.14481312760E+03  0.00000000000E+00 0.  1.
         21   -1    0    0  502  503 -0.00000000000E+00 -0.00000000000E+00 -0.34297936715E+03  0.34297936715E+03  0.00000000000E+00 0.  1.
          6    1    1    2  501    0  0.51319165689E+02 -0.57725763585E+02  0.29351273451E+02  0.19171963332E+03  0.17300000000E+03 0.  1.
         -6    1    1    2    0  503 -0.51319165689E+02  0.57725763585E+02 -0.22751751301E+03  0.29607286143E+03  0.17300000000E+03 0.  1.
</event>
<event>
 4    1  0.3065897E+000  0.1000000E+03  0.7546771E-02  0.1280296E+00
         21   -1    0    0  501  502  0.00000000000E+00  0.00000000000E+00  0.26829256794E+03  0.26829256794E+03  0.00000000000E+00 0.  1.
         21   -1    0    0  502  503 -0.00000000000E+00 -0.00000000000E+00 -0.24706417894E+03  0.24706417894E+03  0.00000000000E+00 0. -1.
          6    1    1    2  501    0 -0.48221564842E+02  0.11122297775E+02  0.19491039221E+03  0.26526983586E+03  0.17300000000E+03 0.  1.
         -6    1    1    2    0  503  0.48221564842E+02 -0.11122297775E+02 -0.17368200321E+03  0.25008691102E+03  0.17300000000E+03 0. -1.
</event>
<event>
 4    1  0.3065897E+000  0.1000000E+03  0.7546771E-02  0.1280296E+00
         21   -1    0    0  501  502  0.00000000000E+00  0.00000000000E+00  0.86783321338E+03  0.86783321338E+03  0.00000000000E+00 0.  1.
         21   -1    0    0  502  503 -0.00000000000E+00 -0.00000000000E+00 -0.56805577562E+02  0.56805577562E+02  0.00000000000E+00 0. -1.
          6    1    1    2  501    0  0.33236585652E+02  0.23192838871E+02  0.68274123062E+03  0.70548364006E+03  0.17300000000E+03 0.  1.
         -6    1    1    2    0  503 -0.33236585652E+02 -0.23192838871E+02  0.12828640520E+03  0.21915515089E+03  0.17300000000E+03 0. -1.
</event>
<event>
 4    1  0.3065897E+000  0.1000000E+03  0.7546771E-02  0.1280296E+00
         21   -1    0    0  503  502  0.00000000000E+00  0.00000000000E+00  0.10089631889E+04  0.10089631889E+04  0.00000000000E+00 0. -1.
         21   -1    0    0  501  503 -0.00000000000E+00 -0.00000000000E+00 -0.38322377630E+02  0.38322377630E+02  0.00000000000E+00 0.  1.
          6    1    1    2  501    0 -0.88527615822E+02  0.29854372162E+02  0.47758117549E+03  0.51646994247E+03  0.17300000000E+03 0.  1.
         -6    1    1    2    0  502  0.88527615822E+02 -0.29854372162E+02  0.49305963575E+03  0.53081562403E+03  0.17300000000E+03 0. -1.
</event>
<event>
 4    1  0.3065897E+000  0.1000000E+03  0.7546771E-02  0.1280296E+00
         21   -1    0    0  503  502  0.00000000000E+00  0.00000000000E+00  0.73654930579E+02  0.73654930579E+02  0.00000000000E+00 0. -1.
         21   -1    0    0  501  503 -0.00000000000E+00 -0.00000000000E+00 -0.48138977596E+03  0.48138977596E+03  0.00000000000E+00 0.  1.
          6    1    1    2  501    0  0.28506284815E+02  0.11515160173E+02 -0.30363765169E+03  0.35081338445E+03  0.17300000000E+03 0.  1.
         -6    1    1    2    0  502 -0.28506284815E+02 -0.11515160173E+02 -0.10409719370E+03  0.20423132209E+03  0.17300000000E+03 0. -1.
</event>
<event>
 4    1  0.3065897E+000  0.1000000E+03  0.7546771E-02  0.1280296E+00
         21   -1    0    0  501  502  0.00000000000E+00  0.00000000000E+00  0.26992181982E+03  0.26992181982E+03  0.00000000000E+00 0. -1.
         21   -1    0    0  502  503 -0.00000000000E+00 -0.00000000000E+00 -0.42985075233E+03  0.42985075233E+03  0.00000000000E+00 0.  1.
          6    1    1    2  501    0  0.81445708916E+02 -0.76999000241E+02  0.19858073259E+03  0.28622640845E+03  0.17300000000E+03 0.  1.
         -6    1    1    2    0  503 -0.81445708916E+02  0.76999000241E+02 -0.35850966510E+03  0.41354616369E+03  0.17300000000E+03 0. -1.
</event>
<event>
 4    1  0.3065897E+000  0.1000000E+03  0.7546771E-02  0.1280296E+00
         21   -1    0    0  503  502  0.00000000000E+00  0.00000000000E+00  0.72269086970E+03  0.72269086970E+03  0.00000000000E+00 0.  1.
         21   -1    0    0  501  503 -0.00000000000E+00 -0.00000000000E+00 -0.84300154215E+02  0.84300154215E+02  0.00000000000E+00 0. -1.
          6    1    1    2  501    0  0.16702686661E+03  0.53048069649E+02  0.29174927948E+03  0.38178359569E+03  0.17300000000E+03 0. -1.
         -6    1    1    2    0  502 -0.16702686661E+03 -0.53048069649E+02  0.34664143600E+03  0.42520742822E+03  0.17300000000E+03 0.  1.
</event>
<event>
 4    1  0.3065897E+000  0.1000000E+03  0.7546771E-02  0.1280296E+00
         21   -1    0    0  503  502  0.00000000000E+00  0.00000000000E+00  0.10279788094E+03  0.10279788094E+03  0.00000000000E+00 0. -1.
         21   -1    0    0  501  503 -0.00000000000E+00 -0.00000000000E+00 -0.87278379290E+03  0.87278379290E+03  0.00000000000E+00 0.  1.
          6    1    1    2  501    0  0.73025516354E+02 -0.13839789283E+03 -0.69098067843E+03  0.72929417984E+03  0.17300000000E+03 0.  1.
         -6    1    1    2    0  502 -0.73025516354E+02  0.13839789283E+03 -0.79005233524E+02  0.24628749400E+03  0.17300000000E+03 0. -1.
</event>
<event>
 4    1  0.3065897E+000  0.1000000E+03  0.7546771E-02  0.1280296E+00
         21   -1    0    0  503  502  0.00000000000E+00  0.00000000000E+00  0.57125496483E+03  0.57125496483E+03  0.00000000000E+00 0. -1.
         21   -1    0    0  501  503 -0.00000000000E+00 -0.00000000000E+00 -0.17801227200E+03  0.17801227200E+03  0.00000000000E+00 0.  1.
          6    1    1    2  501    0 -0.64636276565E+01  0.29377166884E+02 -0.11609956944E+03  0.21050630974E+03  0.17300000000E+03 0.  1.
         -6    1    1    2    0  502  0.64636276565E+01 -0.29377166884E+02  0.50934226227E+03  0.53876092708E+03  0.17300000000E+03 0. -1.
</event>
<event>
 4    1  0.3065897E+000  0.1000000E+03  0.7546771E-02  0.1280296E+00
         21   -1    0    0  503  502  0.00000000000E+00  0.00000000000E+00  0.25130136537E+02  0.25130136537E+02  0.00000000000E+00 0. -1.
         21   -1    0    0  501  503 -0.00000000000E+00 -0.00000000000E+00 -0.21860526158E+04  0.21860526158E+04  0.00000000000E+00 0.  1.
          6    1    1    2  501    0  0.10839987761E+03  0.12976272800E+02 -0.16200981222E+04  0.16329622907E+04  0.17300000000E+03 0.  1.
         -6    1    1    2    0  502 -0.10839987761E+03 -0.12976272800E+02 -0.54082435703E+03  0.57822046165E+03  0.17300000000E+03 0. -1.
</event>
<event>
 4    1  0.3065897E+000  0.1000000E+03  0.7546771E-02  0.1280296E+00
         21   -1    0    0  501  502  0.00000000000E+00  0.00000000000E+00  0.19585196775E+04  0.19585196775E+04  0.00000000000E+00 0. -1.
         21   -1    0    0  502  503 -0.00000000000E+00 -0.00000000000E+00 -0.73377073014E+02  0.73377073014E+02  0.00000000000E+00 0.  1.
          6    1    1    2  501    0 -0.21647697886E+03 -0.17013752119E+03  0.14648008062E+04  0.15004597497E+04  0.17300000000E+03 0. -1.
         -6    1    1    2    0  503  0.21647697886E+03  0.17013752119E+03  0.42034179828E+03  0.53143700085E+03  0.17300000000E+03 0.  1.
</event>
<event>
 4    1  0.3065897E+000  0.1000000E+03  0.7546771E-02  0.1280296E+00
         21   -1    0    0  501  502  0.00000000000E+00  0.00000000000E+00  0.58806329331E+03  0.58806329331E+03  0.00000000000E+00 0. -1.
         21   -1    0    0  502  503 -0.00000000000E+00 -0.00000000000E+00 -0.21897239041E+03  0.21897239041E+03  0.00000000000E+00 0.  1.
          6    1    1    2  501    0  0.77414798073E+02  0.49423042004E+02  0.52265084636E+03  0.55814746729E+03  0.17300000000E+03 0. -1.
         -6    1    1    2    0  503 -0.77414798073E+02 -0.49423042004E+02 -0.15355994345E+03  0.24888821643E+03  0.17300000000E+03 0.  1.
</event>
<event>
 4    1  0.3065897E+000  0.1000000E+03  0.7546771E-02  0.1280296E+00
         21   -1    0    0  501  502  0.00000000000E+00  0.00000000000E+00  0.11318798443E+03  0.11318798443E+03  0.00000000000E+00 0. -1.
         21   -1    0    0  502  503 -0.00000000000E+00 -0.00000000000E+00 -0.49095791614E+03  0.49095791614E+03  0.00000000000E+00 0.  1.
          6    1    1    2  501    0  0.41016141983E+01  0.72208080042E+02 -0.58143831807E+01  0.18759967248E+03  0.17300000000E+03 0. -1.
         -6    1    1    2    0  503 -0.41016141983E+01 -0.72208080042E+02 -0.37195554852E+03  0.41654622809E+03  0.17300000000E+03 0.  1.
</event>
<event>
 4    1  0.3065897E+000  0.1000000E+03  0.7546771E-02  0.1280296E+00
         21   -1    0    0  501  502  0.00000000000E+00  0.00000000000E+00  0.26880291071E+03  0.26880291071E+03  0.00000000000E+00 0. -1.
         21   -1    0    0  502  503 -0.00000000000E+00 -0.00000000000E+00 -0.22532471811E+03  0.22532471811E+03  0.00000000000E+00 0.  1.
          6    1    1    2  501    0 -0.11120507532E+03  0.12990613732E+03 -0.15779768628E+02  0.24376253689E+03  0.17300000000E+03 0. -1.
         -6    1    1    2    0  503  0.11120507532E+03 -0.12990613732E+03  0.59257961225E+02  0.25036509194E+03  0.17300000000E+03 0.  1.
</event>
<event>
 4    1  0.3065897E+000  0.1000000E+03  0.7546771E-02  0.1280296E+00
         21   -1    0    0  503  502  0.00000000000E+00  0.00000000000E+00  0.12809657633E+04  0.12809657633E+04  0.00000000000E+00 0. -1.
         21   -1    0    0  501  503 -0.00000000000E+00 -0.00000000000E+00 -0.31316698643E+02  0.31316698643E+02  0.00000000000E+00 0.  1.
          6    1    1    2  501    0  0.56711077975E+02 -0.55325917654E+02  0.41999053649E+03  0.46108367383E+03  0.17300000000E+03 0. -1.
         -6    1    1    2    0  502 -0.56711077975E+02  0.55325917654E+02  0.82965852818E+03  0.85119878813E+03  0.17300000000E+03 0.  1.
</event>
<event>
 4    1  0.3065897E+000  0.1000000E+03  0.7546771E-02  0.1280296E+00
         21   -1    0    0  503  502  0.00000000000E+00  0.00000000000E+00  0.94737931754E+02  0.94737931754E+02  0.00000000000E+00 0. -1.
         21   -1    0    0  501  503 -0.00000000000E+00 -0.00000000000E+00 -0.39635211766E+03  0.39635211766E+03  0.00000000000E+00 0.  1.
          6    1    1    2  501    0 -0.99183893362E+01 -0.78750826804E+02 -0.19685393908E+03  0.27382574842E+03  0.17300000000E+03 0. -1.
         -6    1    1    2    0  502  0.99183893362E+01  0.78750826804E+02 -0.10476024683E+03  0.21726430099E+03  0.17300000000E+03 0.  1.
</event>
<event>
 4    1  0.3065897E+000  0.1000000E+03  0.7546771E-02  0.1280296E+00
         21   -1    0    0  503  502  0.00000000000E+00  0.00000000000E+00  0.12469929705E+04  0.12469929705E+04  0.00000000000E+00 0. -1.
         21   -1    0    0  501  503 -0.00000000000E+00 -0.00000000000E+00 -0.28363560680E+03  0.28363560680E+03  0.00000000000E+00 0. -1.
          6    1    1    2  501    0  0.21822011826E+03  0.22036595434E+02 -0.19395600529E+03  0.34007876079E+03  0.17300000000E+03 0.  1.
         -6    1    1    2    0  502 -0.21822011826E+03 -0.22036595434E+02  0.11573133690E+04  0.11905498165E+04  0.17300000000E+03 0.  1.
</event>
<event>
 4    1  0.3065897E+000  0.1000000E+03  0.7546771E-02  0.1280296E+00
         21   -1    0    0  503  502  0.00000000000E+00  0.00000000000E+00  0.32750282364E+02  0.32750282364E+02  0.00000000000E+00 0. -1.
         21   -1    0    0  501  503 -0.00000000000E+00 -0.00000000000E+00 -0.16433211328E+04  0.16433211328E+04  0.00000000000E+00 0. -1.
          6    1    1    2  501    0  0.63616386777E+01  0.15381747672E+03 -0.85507141745E+03  0.88587607233E+03  0.17300000000E+03 0.  1.
         -6    1    1    2    0  502 -0.63616386777E+01 -0.15381747672E+03 -0.75549943299E+03  0.79019534284E+03  0.17300000000E+03 0.  1.
</event>
<event>
 4    1  0.3065897E+000  0.1000000E+03  0.7546771E-02  0.1280296E+00
         21   -1    0    0  503  502  0.00000000000E+00  0.00000000000E+00  0.83014720648E+03  0.83014720648E+03  0.00000000000E+00 0.  1.
         21   -1    0    0  501  503 -0.00000000000E+00 -0.00000000000E+00 -0.16398554315E+03  0.16398554315E+03  0.00000000000E+00 0.  1.
          6    1    1    2  501    0  0.75408331249E+02 -0.21610904283E+03  0.20559191527E+02  0.28764772756E+03  0.17300000000E+03 0. -1.
         -6    1    1    2    0  502 -0.75408331249E+02  0.21610904283E+03  0.64560247180E+03  0.70648502207E+03  0.17300000000E+03 0. -1.
</event>
<event>
 4    1  0.3065897E+000  0.1000000E+03  0.7546771E-02  0.1280296E+00
         21   -1    0    0  503  502  0.00000000000E+00  0.00000000000E+00  0.45145040849E+02  0.45145040849E+02  0.00000000000E+00 0.  1.
         21   -1    0    0  501  503 -0.00000000000E+00 -0.00000000000E+00 -0.82162258384E+03  0.82162258384E+03  0.00000000000E+00 0. -1.
          6    1    1    2  501    0  0.32343590442E+02 -0.77903970210E+02 -0.37264065125E+03  0.41941052846E+03  0.17300000000E+03 0. -1.
         -6    1    1    2    0  502 -0.32343590442E+02  0.77903970210E+02 -0.40383689174E+03  0.44735709623E+03  0.17300000000E+03 0.  1.
</event>
<event>
 4    1  0.3065897E+000  0.1000000E+03  0.7546771E-02  0.1280296E+00
         21   -1    0    0  503  502  0.00000000000E+00  0.00000000000E+00  0.15959524616E+04  0.15959524616E+04  0.00000000000E+00 0.  1.
         21   -1    0    0  501  503 -0.00000000000E+00 -0.00000000000E+00 -0.43141067824E+02  0.43141067824E+02  0.00000000000E+00 0. -1.
          6    1    1    2  501    0  0.16267104476E+03 -0.77706740155E+02  0.52611214970E+03  0.58242870837E+03  0.17300000000E+03 0. -1.
         -6    1    1    2    0  502 -0.16267104476E+03  0.77706740155E+02  0.10266992440E+04  0.10566648210E+04  0.17300000000E+03 0.  1.
</event>
<event>
 4    1  0.3065897E+000  0.1000000E+03  0.7546771E-02  0.1280296E+00
         21   -1    0    0  501  502  0.00000000000E+00  0.00000000000E+00  0.11847083287E+03  0.11847083287E+03  0.00000000000E+00 0. -1.
         21   -1    0    0  502  503 -0.00000000000E+00 -0.00000000000E+00 -0.56496873258E+03  0.56496873258E+03  0.00000000000E+00 0.  1.
          6    1    1    2  501    0 -0.14117916084E+03 -0.50867734108E+02 -0.64284516112E+02  0.23786672916E+03  0.17300000000E+03 0. -1.
         -6    1    1    2    0  503  0.14117916084E+03  0.50867734108E+02 -0.38221338360E+03  0.44557283628E+03  0.17300000000E+03 0.  1.
</event>
<event>
 4    1  0.3065897E+000  0.1000000E+03  0.7546771E-02  0.1280296E+00
         21   -1    0    0  501  502  0.00000000000E+00  0.00000000000E+00  0.15836112826E+03  0.15836112826E+03  0.00000000000E+00 0. -1.
         21   -1    0    0  502  503 -0.00000000000E+00 -0.00000000000E+00 -0.21804431541E+03  0.21804431541E+03  0.00000000000E+00 0.  1.
          6    1    1    2  501    0 -0.52520620864E+02 -0.41806912214E+02 -0.39687795392E+02  0.18976394449E+03  0.17300000000E+03 0. -1.
         -6    1    1    2    0  503  0.52520620864E+02  0.41806912214E+02 -0.19995391751E+02  0.18664149918E+03  0.17300000000E+03 0.  1.
</event>
<event>
 4    1  0.3065897E+000  0.1000000E+03  0.7546771E-02  0.1280296E+00
         21   -1    0    0  501  502  0.00000000000E+00  0.00000000000E+00  0.38407799506E+03  0.38407799506E+03  0.00000000000E+00 0. -1.
         21   -1    0    0  502  503 -0.00000000000E+00 -0.00000000000E+00 -0.12283352824E+03  0.12283352824E+03  0.00000000000E+00 0.  1.
          6    1    1    2  501    0  0.27213692942E+02  0.91293701754E+02  0.23611892191E+03  0.30782506452E+03  0.17300000000E+03 0. -1.
         -6    1    1    2    0  503 -0.27213692942E+02 -0.91293701754E+02  0.25125544915E+02  0.19908645878E+03  0.17300000000E+03 0.  1.
</event>
<event>
 4    1  0.3065897E+000  0.1000000E+03  0.7546771E-02  0.1280296E+00
         21   -1    0    0  501  502  0.00000000000E+00  0.00000000000E+00  0.28852604422E+02  0.28852604422E+02  0.00000000000E+00 0.  1.
         21   -1    0    0  502  503 -0.00000000000E+00 -0.00000000000E+00 -0.24434926636E+04  0.24434926636E+04  0.00000000000E+00 0. -1.
          6    1    1    2  501    0  0.15045699814E+02  0.51431001180E+02 -0.30334744042E+03  0.35329901015E+03  0.17300000000E+03 0.  1.
         -6    1    1    2    0  503 -0.15045699814E+02 -0.51431001180E+02 -0.21112926188E+04  0.21190462579E+04  0.17300000000E+03 0. -1.
</event>
<event>
 4    1  0.3065897E+000  0.1000000E+03  0.7546771E-02  0.1280296E+00
         21   -1    0    0  501  502  0.00000000000E+00  0.00000000000E+00  0.16133604278E+03  0.16133604278E+03  0.00000000000E+00 0.  1.
         21   -1    0    0  502  503 -0.00000000000E+00 -0.00000000000E+00 -0.26162531269E+03  0.26162531269E+03  0.00000000000E+00 0. -1.
          6    1    1    2  501    0 -0.81981181578E+02 -0.61232948397E+02 -0.63491905206E+01  0.20109624642E+03  0.17300000000E+03 0.  1.
         -6    1    1    2    0  503  0.81981181578E+02  0.61232948397E+02 -0.93940079391E+02  0.22186510906E+03  0.17300000000E+03 0. -1.
</event>
<event>
 4    1  0.3065897E+000  0.1000000E+03  0.7546771E-02  0.1280296E+00
         21   -1    0    0  501  502  0.00000000000E+00  0.00000000000E+00  0.25247826441E+03  0.25247826441E+03  0.00000000000E+00 0.  1.
         21   -1    0    0  502  503 -0.00000000000E+00 -0.00000000000E+00 -0.23148537210E+03  0.23148537210E+03  0.00000000000E+00 0. -1.
          6    1    1    2  501    0  0.15918405234E+03  0.55872781173E+02  0.17899006167E+02  0.24230291912E+03  0.17300000000E+03 0.  1.
         -6    1    1    2    0  503 -0.15918405234E+03 -0.55872781173E+02  0.30938861435E+01  0.24166071738E+03  0.17300000000E+03 0. -1.
</event>
<event>
 4    1  0.3065897E+000  0.1000000E+03  0.7546771E-02  0.1280296E+00
         21   -1    0    0  503  502  0.00000000000E+00  0.00000000000E+00  0.66594184237E+03  0.66594184237E+03  0.00000000000E+00 0. -1.
         21   -1    0    0  501  503 -0.00000000000E+00 -0.00000000000E+00 -0.24791312964E+03  0.24791312964E+03  0.00000000000E+00 0. -1.
          6    1    1    2  501    0  0.97231781972E+02  0.13673658632E+02 -0.18940988959E+03  0.27467452492E+03  0.17300000000E+03 0. -1.
         -6    1    1    2    0  502 -0.97231781972E+02 -0.13673658632E+02  0.60743860231E+03  0.63918044709E+03  0.17300000000E+03 0. -1.
</event>
<event>
 4    1  0.3065897E+000  0.1000000E+03  0.7546771E-02  0.1280296E+00
         21   -1    0    0  503  502  0.00000000000E+00  0.00000000000E+00  0.10207758888E+04  0.10207758888E+04  0.00000000000E+00 0. -1.
         21   -1    0    0  501  503 -0.00000000000E+00 -0.00000000000E+00 -0.35646197853E+02  0.35646197853E+02  0.00000000000E+00 0. -1.
          6    1    1    2  501    0 -0.48728491106E+02 -0.56967045230E+02  0.41240154110E+03  0.45345754067E+03  0.17300000000E+03 0.  1.
         -6    1    1    2    0  502  0.48728491106E+02  0.56967045230E+02  0.57272814986E+03  0.60296454599E+03  0.17300000000E+03 0.  1.
</event>
<event>
 4    1  0.3065897E+000  0.1000000E+03  0.7546771E-02  0.1280296E+00
         21   -1    0    0  503  502  0.00000000000E+00  0.00000000000E+00  0.12457342679E+03  0.12457342679E+03  0.00000000000E+00 0. -1.
         21   -1    0    0  501  503 -0.00000000000E+00 -0.00000000000E+00 -0.52298682452E+03  0.52298682452E+03  0.00000000000E+00 0. -1.
          6    1    1    2  501    0 -0.48394178722E+02 -0.13943916341E+03 -0.34624377153E+03  0.41424512809E+03  0.17300000000E+03 0.  1.
         -6    1    1    2    0  502  0.48394178722E+02  0.13943916341E+03 -0.52169626201E+02  0.23331512322E+03  0.17300000000E+03 0.  1.
</event>
<event>
 4    1  0.3065897E+000  0.1000000E+03  0.7546771E-02  0.1280296E+00
         21   -1    0    0  503  502  0.00000000000E+00  0.00000000000E+00  0.27406175918E+03  0.27406175918E+03  0.00000000000E+00 0. -1.
         21   -1    0    0  501  503 -0.00000000000E+00 -0.00000000000E+00 -0.15012524511E+03  0.15012524511E+03  0.00000000000E+00 0.  1.
          6    1    1    2  501    0 -0.10485645329E+03  0.14818125260E+02  0.61582451254E+02  0.21198077963E+03  0.17300000000E+03 0.  1.
         -6    1    1    2    0  502  0.10485645329E+03 -0.14818125260E+02  0.62354062815E+02  0.21220622465E+03  0.17300000000E+03 0. -1.
</event>
<event>
 4    1  0.3065897E+000  0.1000000E+03  0.7546771E-02  0.1280296E+00
         21   -1    0    0  501  502  0.00000000000E+00  0.00000000000E+00  0.47504244067E+03  0.47504244067E+03  0.00000000000E+00 0.  1.
         21   -1    0    0  502  503 -0.00000000000E+00 -0.00000000000E+00 -0.19717006093E+03  0.19717006093E+03  0.00000000000E+00 0.  1.
          6    1    1    2  501    0  0.56018596686E+02  0.10472217664E+02  0.40903479672E+03  0.44775687091E+03  0.17300000000E+03 0.  1.
         -6    1    1    2    0  503 -0.56018596686E+02 -0.10472217664E+02 -0.13116241699E+03  0.22445563069E+03  0.17300000000E+03 0.  1.
</event>
<event>
 4    1  0.3065897E+000  0.1000000E+03  0.7546771E-02  0.1280296E+00
         21   -1    0    0  501  502  0.00000000000E+00  0.00000000000E+00  0.22784734690E+03  0.22784734690E+03  0.00000000000E+00 0.  1.
         21   -1    0    0  502  503 -0.00000000000E+00 -0.00000000000E+00 -0.32753070922E+03  0.32753070922E+03  0.00000000000E+00 0.  1.
          6    1    1    2  501    0  0.77511998952E+02 -0.36721959679E+02  0.14658748111E+03  0.24243246879E+03  0.17300000000E+03 0.  1.
         -6    1    1    2    0  503 -0.77511998952E+02  0.36721959679E+02 -0.24627084343E+03  0.31294558733E+03  0.17300000000E+03 0.  1.
</event>
<event>
 4    1  0.3065897E+000  0.1000000E+03  0.7546771E-02  0.1280296E+00
         21   -1    0    0  501  502  0.00000000000E+00  0.00000000000E+00  0.20713583513E+03  0.20713583513E+03  0.00000000000E+00 0. -1.
         21   -1    0    0  502  503 -0.00000000000E+00 -0.00000000000E+00 -0.18638191609E+03  0.18638191609E+03  0.00000000000E+00 0. -1.
          6    1    1    2  501    0  0.49332317553E+02  0.29985014524E+02 -0.62831662846E+02  0.19289789140E+03  0.17300000000E+03 0.  1.
         -6    1    1    2    0  503 -0.49332317553E+02 -0.29985014524E+02  0.83585581889E+02  0.20061985981E+03  0.17300000000E+03 0.  1.
</event>
<event>
 4    1  0.3065897E+000  0.1000000E+03  0.7546771E-02  0.1280296E+00
         21   -1    0    0  501  502  0.00000000000E+00  0.00000000000E+00  0.77484939199E+03  0.77484939199E+03  0.00000000000E+00 0. -1.
         21   -1    0    0  502  503 -0.00000000000E+00 -0.00000000000E+00 -0.46119374035E+02  0.46119374035E+02  0.00000000000E+00 0. -1.
          6    1    1    2  501    0 -0.36333606334E+02 -0.25305835969E+01  0.50970560931E+03  0.53949545222E+03  0.17300000000E+03 0.  1.
         -6    1    1    2    0  503  0.36333606334E+02  0.25305835969E+01  0.21902440864E+03  0.28147331380E+03  0.17300000000E+03 0.  1.
</event>
<event>
 4    1  0.3065897E+000  0.1000000E+03  0.7546771E-02  0.1280296E+00
         21   -1    0    0  501  502  0.00000000000E+00  0.00000000000E+00  0.39008394279E+02  0.39008394279E+02  0.00000000000E+00 0. -1.
         21   -1    0    0  502  503 -0.00000000000E+00 -0.00000000000E+00 -0.15133202149E+04  0.15133202149E+04  0.00000000000E+00 0. -1.
          6    1    1    2  501    0 -0.74717816468E+02 -0.80723475351E+02 -0.32058704787E+03  0.38053132175E+03  0.17300000000E+03 0. -1.
         -6    1    1    2    0  503  0.74717816468E+02  0.80723475351E+02 -0.11537247727E+04  0.11717972874E+04  0.17300000000E+03 0. -1.
</event>
<event>
 4    1  0.3065897E+000  0.1000000E+03  0.7546771E-02  0.1280296E+00
         21   -1    0    0  501  502  0.00000000000E+00  0.00000000000E+00  0.13311452049E+04  0.13311452049E+04  0.00000000000E+00 0. -1.
         21   -1    0    0  502  503 -0.00000000000E+00 -0.00000000000E+00 -0.76970566750E+02  0.76970566750E+02  0.00000000000E+00 0. -1.
          6    1    1    2  501    0 -0.64553211302E+02 -0.12761355535E+03  0.11290356999E+04  0.11511311603E+04  0.17300000000E+03 0. -1.
         -6    1    1    2    0  503  0.64553211302E+02  0.12761355535E+03  0.12513893826E+03  0.25698461135E+03  0.17300000000E+03 0. -1.
</event>
<event>
 4    1  0.3065897E+000  0.1000000E+03  0.7546771E-02  0.1280296E+00
         21   -1    0    0  503  502  0.00000000000E+00  0.00000000000E+00  0.44467200489E+03  0.44467200489E+03  0.00000000000E+00 0. -1.
         21   -1    0    0  501  503 -0.00000000000E+00 -0.00000000000E+00 -0.23312059124E+03  0.23312059124E+03  0.00000000000E+00 0. -1.
          6    1    1    2  501    0  0.26853727106E+03 -0.31376346405E+02  0.13233044615E+03  0.34718451584E+03  0.17300000000E+03 0. -1.
         -6    1    1    2    0  502 -0.26853727106E+03  0.31376346405E+02  0.79220967500E+02  0.33060808029E+03  0.17300000000E+03 0. -1.
</event>
<event>
 4    1  0.3065897E+000  0.1000000E+03  0.7546771E-02  0.1280296E+00
         21   -1    0    0  503  502  0.00000000000E+00  0.00000000000E+00  0.18785778175E+03  0.18785778175E+03  0.00000000000E+00 0.  1.
         21   -1    0    0  501  503 -0.00000000000E+00 -0.00000000000E+00 -0.31699162339E+03  0.31699162339E+03  0.00000000000E+00 0. -1.
          6    1    1    2  501    0 -0.27599810710E+01 -0.16536226672E+03 -0.15304093000E+02  0.23982391877E+03  0.17300000000E+03 0. -1.
         -6    1    1    2    0  502  0.27599810710E+01  0.16536226672E+03 -0.11382974864E+03  0.26502548637E+03  0.17300000000E+03 0.  1.
</event>
<event>
 4    1  0.3065897E+000  0.1000000E+03  0.7546771E-02  0.1280296E+00
         21   -1    0    0  501  502  0.00000000000E+00  0.00000000000E+00  0.17369979151E+03  0.17369979151E+03  0.00000000000E+00 0. -1.
         21   -1    0    0  502  503 -0.00000000000E+00 -0.00000000000E+00 -0.80967461915E+03  0.80967461915E+03  0.00000000000E+00 0.  1.
          6    1    1    2  501    0  0.18106598350E+03 -0.24695907629E+03 -0.14735544428E+03  0.38133489573E+03  0.17300000000E+03 0. -1.
         -6    1    1    2    0  503 -0.18106598350E+03  0.24695907629E+03 -0.48861938335E+03  0.60203951492E+03  0.17300000000E+03 0.  1.
</event>
<event>
 4    1  0.3065897E+000  0.1000000E+03  0.7546771E-02  0.1280296E+00
         21   -1    0    0  501  502  0.00000000000E+00  0.00000000000E+00  0.28720361517E+03  0.28720361517E+03  0.00000000000E+00 0. -1.
         21   -1    0    0  502  503 -0.00000000000E+00 -0.00000000000E+00 -0.55019169673E+03  0.55019169673E+03  0.00000000000E+00 0.  1.
          6    1    1    2  501    0 -0.21913846620E+03  0.22265621805E+03  0.52427012217E+02  0.36093635230E+03  0.17300000000E+03 0. -1.
         -6    1    1    2    0  503  0.21913846620E+03 -0.22265621805E+03 -0.31541509377E+03  0.47645895960E+03  0.17300000000E+03 0.  1.
</event>
<event>
 4    1  0.3065897E+000  0.1000000E+03  0.7546771E-02  0.1280296E+00
         21   -1    0    0  503  502  0.00000000000E+00  0.00000000000E+00  0.30917790964E+03  0.30917790964E+03  0.00000000000E+00 0. -1.
         21   -1    0    0  501  503 -0.00000000000E+00 -0.00000000000E+00 -0.18625674402E+03  0.18625674402E+03  0.00000000000E+00 0. -1.
          6    1    1    2  501    0 -0.10208611468E+03  0.56062859351E+02 -0.61084416878E+02  0.21731296555E+03  0.17300000000E+03 0. -1.
         -6    1    1    2    0  502  0.10208611468E+03 -0.56062859351E+02  0.18400558250E+03  0.27812168811E+03  0.17300000000E+03 0. -1.
</event>
<event>
 4    1  0.3065897E+000  0.1000000E+03  0.7546771E-02  0.1280296E+00
         21   -1    0    0  503  502  0.00000000000E+00  0.00000000000E+00  0.11086065350E+04  0.11086065350E+04  0.00000000000E+00 0.  1.
         21   -1    0    0  501  503 -0.00000000000E+00 -0.00000000000E+00 -0.45314524188E+02  0.45314524188E+02  0.00000000000E+00 0.  1.
          6    1    1    2  501    0 -0.87595879771E+01 -0.31837373803E+02  0.17480292801E+03  0.24814393483E+03  0.17300000000E+03 0.  1.
         -6    1    1    2    0  502  0.87595879771E+01  0.31837373803E+02  0.88848908277E+03  0.90577712433E+03  0.17300000000E+03 0.  1.
</event>
<event>
 4    1  0.3065897E+000  0.1000000E+03  0.7546771E-02  0.1280296E+00
         21   -1    0    0  503  502  0.00000000000E+00  0.00000000000E+00  0.33872992526E+03  0.33872992526E+03  0.00000000000E+00 0. -1.
         21   -1    0    0  501  503 -0.00000000000E+00 -0.00000000000E+00 -0.14787468168E+04  0.14787468168E+04  0.00000000000E+00 0.  1.
          6    1    1    2  501    0 -0.19206871101E+03 -0.62684924732E+03 -0.83043092671E+03  0.10720890321E+04  0.17300000000E+03 0. -1.
         -6    1    1    2    0  502  0.19206871101E+03  0.62684924732E+03 -0.30958596483E+03  0.74538771001E+03  0.17300000000E+03 0.  1.
</event>
<event>
 4    1  0.3065897E+000  0.1000000E+03  0.7546771E-02  0.1280296E+00
         21   -1    0    0  503  502  0.00000000000E+00  0.00000000000E+00  0.18723058827E+03  0.18723058827E+03  0.00000000000E+00 0. -1.
         21   -1    0    0  501  503 -0.00000000000E+00 -0.00000000000E+00 -0.16309051432E+03  0.16309051432E+03  0.00000000000E+00 0.  1.
          6    1    1    2  501    0  0.19082677274E+02  0.14204888113E+02  0.18457466006E+02  0.17560069894E+03  0.17300000000E+03 0. -1.
         -6    1    1    2    0  502 -0.19082677274E+02 -0.14204888113E+02  0.56826079503E+01  0.17472040365E+03  0.17300000000E+03 0.  1.
</event>
<event>
 4    1  0.3065897E+000  0.1000000E+03  0.7546771E-02  0.1280296E+00
         21   -1    0    0  503  502  0.00000000000E+00  0.00000000000E+00  0.76373938671E+02  0.76373938671E+02  0.00000000000E+00 0. -1.
         21   -1    0    0  501  503 -0.00000000000E+00 -0.00000000000E+00 -0.44620501578E+03  0.44620501578E+03  0.00000000000E+00 0.  1.
          6    1    1    2  501    0 -0.30594734828E+02 -0.19050520226E+02 -0.26048401627E+03  0.31476957104E+03  0.17300000000E+03 0. -1.
         -6    1    1    2    0  502  0.30594734828E+02  0.19050520226E+02 -0.10934706084E+03  0.20780938341E+03  0.17300000000E+03 0.  1.
</event>
<event>
 4    1  0.3065897E+000  0.1000000E+03  0.7546771E-02  0.1280296E+00
         21   -1    0    0  501  502  0.00000000000E+00  0.00000000000E+00  0.77091477593E+03  0.77091477593E+03  0.00000000000E+00 0. -1.
         21   -1    0    0  502  503 -0.00000000000E+00 -0.00000000000E+00 -0.15743059305E+03  0.15743059305E+03  0.00000000000E+00 0. -1.
          6    1    1    2  501    0  0.10700321936E+03  0.60984754955E+02  0.67470349837E+03  0.70733488533E+03  0.17300000000E+03 0. -1.
         -6    1    1    2    0  503 -0.10700321936E+03 -0.60984754955E+02 -0.61219315496E+02  0.22101048364E+03  0.17300000000E+03 0. -1.
</event>
<event>
 4    1  0.3065897E+000  0.1000000E+03  0.7546771E-02  0.1280296E+00
         21   -1    0    0  501  502  0.00000000000E+00  0.00000000000E+00  0.51555415144E+02  0.51555415144E+02  0.00000000000E+00 0. -1.
         21   -1    0    0  502  503 -0.00000000000E+00 -0.00000000000E+00 -0.66540703419E+03  0.66540703419E+03  0.00000000000E+00 0. -1.
          6    1    1    2  501    0  0.62385919002E+01  0.64531488034E+02 -0.33239046248E+03  0.38028364746E+03  0.17300000000E+03 0. -1.
         -6    1    1    2    0  503 -0.62385919002E+01 -0.64531488034E+02 -0.28146115657E+03  0.33667880188E+03  0.17300000000E+03 0. -1.
</event>
<event>
 4    1  0.3065897E+000  0.1000000E+03  0.7546771E-02  0.1280296E+00
         21   -1    0    0  501  502  0.00000000000E+00  0.00000000000E+00  0.10175680029E+04  0.10175680029E+04  0.00000000000E+00 0. -1.
         21   -1    0    0  502  503 -0.00000000000E+00 -0.00000000000E+00 -0.47632480854E+02  0.47632480854E+02  0.00000000000E+00 0. -1.
          6    1    1    2  501    0  0.65047866001E+02 -0.11771408342E+03  0.53642627336E+03  0.57945662224E+03  0.17300000000E+03 0. -1.
         -6    1    1    2    0  503 -0.65047866001E+02  0.11771408342E+03  0.43350924872E+03  0.48574386154E+03  0.17300000000E+03 0. -1.
</event>
<event>
 4    1  0.3065897E+000  0.1000000E+03  0.7546771E-02  0.1280296E+00
         21   -1    0    0  501  502  0.00000000000E+00  0.00000000000E+00  0.65801630422E+03  0.65801630422E+03  0.00000000000E+00 0. -1.
         21   -1    0    0  502  503 -0.00000000000E+00 -0.00000000000E+00 -0.16736332036E+03  0.16736332036E+03  0.00000000000E+00 0. -1.
          6    1    1    2  501    0  0.21051976996E+03 -0.13489185704E+03  0.41070174748E+03  0.51099834835E+03  0.17300000000E+03 0. -1.
         -6    1    1    2    0  503 -0.21051976996E+03  0.13489185704E+03  0.79951236387E+02  0.31438127623E+03  0.17300000000E+03 0. -1.
</event>
<event>
 4    1  0.3065897E+000  0.1000000E+03  0.7546771E-02  0.1280296E+00
         21   -1    0    0  501  502  0.00000000000E+00  0.00000000000E+00  0.23773933877E+03  0.23773933877E+03  0.00000000000E+00 0.  1.
         21   -1    0    0  502  503 -0.00000000000E+00 -0.00000000000E+00 -0.35088536666E+03  0.35088536666E+03  0.00000000000E+00 0.  1.
          6    1    1    2  501    0  0.89421171543E+01 -0.12214087010E+03  0.14334872442E+03  0.25588319679E+03  0.17300000000E+03 0.  1.
         -6    1    1    2    0  503 -0.89421171543E+01  0.12214087010E+03 -0.25649475231E+03  0.33274150864E+03  0.17300000000E+03 0.  1.
</event>
<event>
 4    1  0.3065897E+000  0.1000000E+03  0.7546771E-02  0.1280296E+00
         21   -1    0    0  501  502  0.00000000000E+00  0.00000000000E+00  0.62948416161E+03  0.62948416161E+03  0.00000000000E+00 0.  1.
         21   -1    0    0  502  503 -0.00000000000E+00 -0.00000000000E+00 -0.51536325353E+02  0.51536325353E+02  0.00000000000E+00 0.  1.
          6    1    1    2  501    0  0.23764969055E+02  0.20468916053E+02  0.36288693300E+03  0.40323650184E+03  0.17300000000E+03 0.  1.
         -6    1    1    2    0  503 -0.23764969055E+02 -0.20468916053E+02  0.21506090326E+03  0.27778398512E+03  0.17300000000E+03 0.  1.
</event>
<event>
 4    1  0.3065897E+000  0.1000000E+03  0.7546771E-02  0.1280296E+00
         21   -1    0    0  503  502  0.00000000000E+00  0.00000000000E+00  0.38898117431E+03  0.38898117431E+03  0.00000000000E+00 0. -1.
         21   -1    0    0  501  503 -0.00000000000E+00 -0.00000000000E+00 -0.26574006894E+03  0.26574006894E+03  0.00000000000E+00 0. -1.
          6    1    1    2  501    0  0.10292210598E+03  0.23398128922E+02 -0.19251899362E+03  0.27952279915E+03  0.17300000000E+03 0. -1.
         -6    1    1    2    0  502 -0.10292210598E+03 -0.23398128922E+02  0.31576009900E+03  0.37519844410E+03  0.17300000000E+03 0. -1.
</event>
<event>
 4    1  0.3065897E+000  0.1000000E+03  0.7546771E-02  0.1280296E+00
         21   -1    0    0  503  502  0.00000000000E+00  0.00000000000E+00  0.14609728867E+03  0.14609728867E+03  0.00000000000E+00 0. -1.
         21   -1    0    0  501  503 -0.00000000000E+00 -0.00000000000E+00 -0.36926360450E+03  0.36926360450E+03  0.00000000000E+00 0. -1.
          6    1    1    2  501    0 -0.16284644785E+02 -0.18004888222E+02 -0.28139919530E+03  0.33121574958E+03  0.17300000000E+03 0. -1.
         -6    1    1    2    0  502  0.16284644785E+02  0.18004888222E+02  0.58232879468E+02  0.18414514359E+03  0.17300000000E+03 0. -1.
</event>
<event>
 4    1  0.3065897E+000  0.1000000E+03  0.7546771E-02  0.1280296E+00
         21   -1    0    0  503  502  0.00000000000E+00  0.00000000000E+00  0.89291178220E+02  0.89291178220E+02  0.00000000000E+00 0. -1.
         21   -1    0    0  501  503 -0.00000000000E+00 -0.00000000000E+00 -0.65445826474E+03  0.65445826474E+03  0.00000000000E+00 0. -1.
          6    1    1    2  501    0 -0.12948285215E+03  0.10186758418E+03 -0.33942994182E+03  0.41507167949E+03  0.17300000000E+03 0. -1.
         -6    1    1    2    0  502  0.12948285215E+03 -0.10186758418E+03 -0.22573714470E+03  0.32867776347E+03  0.17300000000E+03 0. -1.
</event>
<event>
 4    1  0.3065897E+000  0.1000000E+03  0.7546771E-02  0.1280296E+00
         21   -1    0    0  503  502  0.00000000000E+00  0.00000000000E+00  0.60992509637E+03  0.60992509637E+03  0.00000000000E+00 0. -1.
         21   -1    0    0  501  503 -0.00000000000E+00 -0.00000000000E+00 -0.96298883014E+02  0.96298883014E+02  0.00000000000E+00 0. -1.
          6    1    1    2  501    0 -0.45873978266E+02  0.13624477981E+03  0.38825998441E+03  0.44871135199E+03  0.17300000000E+03 0. -1.
         -6    1    1    2    0  502  0.45873978266E+02 -0.13624477981E+03  0.12536622894E+03  0.25751262739E+03  0.17300000000E+03 0. -1.
</event>
<event>
 4    1  0.3065897E+000  0.1000000E+03  0.7546771E-02  0.1280296E+00
         21   -1    0    0  503  502  0.00000000000E+00  0.00000000000E+00  0.13888517137E+03  0.13888517137E+03  0.00000000000E+00 0. -1.
         21   -1    0    0  501  503 -0.00000000000E+00 -0.00000000000E+00 -0.39560299369E+03  0.39560299369E+03  0.00000000000E+00 0. -1.
          6    1    1    2  501    0  0.64809448079E+02 -0.13839261842E+03 -0.17483340668E+03  0.28956605720E+03  0.17300000000E+03 0. -1.
         -6    1    1    2    0  502 -0.64809448079E+02  0.13839261842E+03 -0.81884415644E+02  0.24492210786E+03  0.17300000000E+03 0. -1.
</event>
<event>
 4    1  0.3065897E+000  0.1000000E+03  0.7546771E-02  0.1280296E+00
         21   -1    0    0  503  502  0.00000000000E+00  0.00000000000E+00  0.42459589030E+03  0.42459589030E+03  0.00000000000E+00 0. -1.
         21   -1    0    0  501  503 -0.00000000000E+00 -0.00000000000E+00 -0.39887476707E+03  0.39887476707E+03  0.00000000000E+00 0. -1.
          6    1    1    2  501    0  0.33371158026E+03 -0.13824847096E+03 -0.81819288958E+02  0.40877800157E+03  0.17300000000E+03 0. -1.
         -6    1    1    2    0  502 -0.33371158026E+03  0.13824847096E+03  0.10754041219E+03  0.41469265580E+03  0.17300000000E+03 0. -1.
</event>
<event>
 4    1  0.3065897E+000  0.1000000E+03  0.7546771E-02  0.1280296E+00
         21   -1    0    0  501  502  0.00000000000E+00  0.00000000000E+00  0.14143105660E+03  0.14143105660E+03  0.00000000000E+00 0. -1.
         21   -1    0    0  502  503 -0.00000000000E+00 -0.00000000000E+00 -0.43601577513E+03  0.43601577513E+03  0.00000000000E+00 0. -1.
          6    1    1    2  501    0 -0.51220632849E+02 -0.16934587895E+03 -0.12302634925E+03  0.27634410173E+03  0.17300000000E+03 0. -1.
         -6    1    1    2    0  503  0.51220632849E+02  0.16934587895E+03 -0.17155836927E+03  0.30110273000E+03  0.17300000000E+03 0. -1.
</event>
<event>
 4    1  0.3065897E+000  0.1000000E+03  0.7546771E-02  0.1280296E+00
         21   -1    0    0  501  502  0.00000000000E+00  0.00000000000E+00  0.48010871241E+02  0.48010871241E+02  0.00000000000E+00 0.  1.
         21   -1    0    0  502  503 -0.00000000000E+00 -0.00000000000E+00 -0.76089886662E+03  0.76089886662E+03  0.00000000000E+00 0. -1.
          6    1    1    2  501    0 -0.99009188255E+01  0.26508601111E+02 -0.19526300803E+03  0.26240689098E+03  0.17300000000E+03 0.  1.
         -6    1    1    2    0  503  0.99009188255E+01 -0.26508601111E+02 -0.51762498734E+03  0.54650284688E+03  0.17300000000E+03 0. -1.
</event>
<event>
 4    1  0.3065897E+000  0.1000000E+03  0.7546771E-02  0.1280296E+00
         21   -1    0    0  501  502  0.00000000000E+00  0.00000000000E+00  0.28567325071E+03  0.28567325071E+03  0.00000000000E+00 0.  1.
         21   -1    0    0  502  503 -0.00000000000E+00 -0.00000000000E+00 -0.57094866388E+03  0.57094866388E+03  0.00000000000E+00 0. -1.
          6    1    1    2  501    0 -0.47480696969E+02 -0.23796045116E+03  0.14643632078E+03  0.33204245051E+03  0.17300000000E+03 0.  1.
         -6    1    1    2    0  503  0.47480696969E+02  0.23796045116E+03 -0.43171173395E+03  0.52457946408E+03  0.17300000000E+03 0. -1.
</event>
<event>
 4    1  0.3065897E+000  0.1000000E+03  0.7546771E-02  0.1280296E+00
         21   -1    0    0  503  502  0.00000000000E+00  0.00000000000E+00  0.10261472646E+03  0.10261472646E+03  0.00000000000E+00 0.  1.
         21   -1    0    0  501  503 -0.00000000000E+00 -0.00000000000E+00 -0.37692784867E+03  0.37692784867E+03  0.00000000000E+00 0.  1.
          6    1    1    2  501    0 -0.27582926175E+02 -0.20828153878E+02 -0.24312397936E+03  0.30038791445E+03  0.17300000000E+03 0.  1.
         -6    1    1    2    0  502  0.27582926175E+02  0.20828153878E+02 -0.31189142857E+02  0.17915466068E+03  0.17300000000E+03 0.  1.
</event>
<event>
 4    1  0.3065897E+000  0.1000000E+03  0.7546771E-02  0.1280296E+00
         21   -1    0    0  503  502  0.00000000000E+00  0.00000000000E+00  0.25715958664E+03  0.25715958664E+03  0.00000000000E+00 0.  1.
         21   -1    0    0  501  503 -0.00000000000E+00 -0.00000000000E+00 -0.14729656688E+03  0.14729656688E+03  0.00000000000E+00 0. -1.
          6    1    1    2  501    0 -0.23946386251E+02  0.50992319729E+02 -0.16877591629E+02  0.18272246492E+03  0.17300000000E+03 0.  1.
         -6    1    1    2    0  502  0.23946386251E+02 -0.50992319729E+02  0.12674061139E+03  0.22173368860E+03  0.17300000000E+03 0. -1.
</event>
<event>
 4    1  0.3065897E+000  0.1000000E+03  0.7546771E-02  0.1280296E+00
         21   -1    0    0  503  502  0.00000000000E+00  0.00000000000E+00  0.42612253321E+03  0.42612253321E+03  0.00000000000E+00 0.  1.
         21   -1    0    0  501  503 -0.00000000000E+00 -0.00000000000E+00 -0.10969197317E+03  0.10969197317E+03  0.00000000000E+00 0. -1.
          6    1    1    2  501    0 -0.11504710909E+03  0.48908259592E+02  0.20087874142E+03  0.29310258259E+03  0.17300000000E+03 0.  1.
         -6    1    1    2    0  502  0.11504710909E+03 -0.48908259592E+02  0.11555181861E+03  0.24271192379E+03  0.17300000000E+03 0. -1.
</event>
<event>
 4    1  0.3065897E+000  0.1000000E+03  0.7546771E-02  0.1280296E+00
         21   -1    0    0  501  502  0.00000000000E+00  0.00000000000E+00  0.20144693455E+03  0.20144693455E+03  0.00000000000E+00 0. -1.
         21   -1    0    0  502  503 -0.00000000000E+00 -0.00000000000E+00 -0.16377833784E+03  0.16377833784E+03  0.00000000000E+00 0. -1.
          6    1    1    2  501    0 -0.19790312133E+02  0.28319731620E+02 -0.24640822509E+02  0.17812870007E+03  0.17300000000E+03 0. -1.
         -6    1    1    2    0  503  0.19790312133E+02 -0.28319731620E+02  0.62309419211E+02  0.18709657233E+03  0.17300000000E+03 0. -1.
</event>
<event>
 4    1  0.3065897E+000  0.1000000E+03  0.7546771E-02  0.1280296E+00
         21   -1    0    0  503  502  0.00000000000E+00  0.00000000000E+00  0.12537037776E+04  0.12537037776E+04  0.00000000000E+00 0.  1.
         21   -1    0    0  501  503 -0.00000000000E+00 -0.00000000000E+00 -0.25099800257E+02  0.25099800257E+02  0.00000000000E+00 0.  1.
          6    1    1    2  501    0 -0.33559214208E+02  0.20309936643E+02  0.61428875119E+03  0.63938907108E+03  0.17300000000E+03 0. -1.
         -6    1    1    2    0  502  0.33559214208E+02 -0.20309936643E+02  0.61431522613E+03  0.63941450675E+03  0.17300000000E+03 0. -1.
</event>
<event>
 4    1  0.3065897E+000  0.1000000E+03  0.7546771E-02  0.1280296E+00
         21   -1    0    0  503  502  0.00000000000E+00  0.00000000000E+00  0.43986602705E+03  0.43986602705E+03  0.00000000000E+00 0.  1.
         21   -1    0    0  501  503 -0.00000000000E+00 -0.00000000000E+00 -0.90733435741E+02  0.90733435741E+02  0.00000000000E+00 0.  1.
          6    1    1    2  501    0 -0.36175899350E+02  0.92907689533E+02  0.18307176593E+03  0.27089630110E+03  0.17300000000E+03 0. -1.
         -6    1    1    2    0  502  0.36175899350E+02 -0.92907689533E+02  0.16606082538E+03  0.25970316170E+03  0.17300000000E+03 0. -1.
</event>
<event>
 4    1  0.3065897E+000  0.1000000E+03  0.7546771E-02  0.1280296E+00
         21   -1    0    0  501  502  0.00000000000E+00  0.00000000000E+00  0.18504747164E+03  0.18504747164E+03  0.00000000000E+00 0. -1.
         21   -1    0    0  502  503 -0.00000000000E+00 -0.00000000000E+00 -0.39115240446E+03  0.39115240446E+03  0.00000000000E+00 0.  1.
          6    1    1    2  501    0 -0.19614497904E+03 -0.75662842238E+01 -0.35983899018E+02  0.26410971669E+03  0.17300000000E+03 0. -1.
         -6    1    1    2    0  503  0.19614497904E+03  0.75662842238E+01 -0.17012103380E+03  0.31209015941E+03  0.17300000000E+03 0.  1.
</event>
<event>
 4    1  0.3065897E+000  0.1000000E+03  0.7546771E-02  0.1280296E+00
         21   -1    0    0  501  502  0.00000000000E+00  0.00000000000E+00  0.15460791291E+03  0.15460791291E+03  0.00000000000E+00 0. -1.
         21   -1    0    0  502  503 -0.00000000000E+00 -0.00000000000E+00 -0.14595103148E+04  0.14595103148E+04  0.00000000000E+00 0.  1.
          6    1    1    2  501    0  0.12919133832E+03 -0.12701545487E+03  0.33267194235E+02  0.25270345048E+03  0.17300000000E+03 0. -1.
         -6    1    1    2    0  503 -0.12919133832E+03  0.12701545487E+03 -0.13381695961E+04  0.13614147772E+04  0.17300000000E+03 0.  1.
</event>
<event>
 4    1  0.3065897E+000  0.1000000E+03  0.7546771E-02  0.1280296E+00
         21   -1    0    0  501  502  0.00000000000E+00  0.00000000000E+00  0.14924999793E+04  0.14924999793E+04  0.00000000000E+00 0. -1.
         21   -1    0    0  502  503 -0.00000000000E+00 -0.00000000000E+00 -0.85671624911E+02  0.85671624911E+02  0.00000000000E+00 0.  1.
          6    1    1    2  501    0  0.64241433127E+02 -0.12784196206E+03  0.13176036359E+04  0.13365922603E+04  0.17300000000E+03 0. -1.
         -6    1    1    2    0  503 -0.64241433127E+02  0.12784196206E+03  0.89224718440E+02  0.24157934385E+03  0.17300000000E+03 0.  1.
</event>
<event>
 4    1  0.3065897E+000  0.1000000E+03  0.7546771E-02  0.1280296E+00
         21   -1    0    0  503  502  0.00000000000E+00  0.00000000000E+00  0.72693896927E+03  0.72693896927E+03  0.00000000000E+00 0. -1.
         21   -1    0    0  501  503 -0.00000000000E+00 -0.00000000000E+00 -0.37695381030E+03  0.37695381030E+03  0.00000000000E+00 0. -1.
          6    1    1    2  501    0  0.22696781460E+03 -0.37657454622E+03 -0.62587573291E+02  0.47662247330E+03  0.17300000000E+03 0. -1.
         -6    1    1    2    0  502 -0.22696781460E+03  0.37657454622E+03  0.41257273227E+03  0.62727030627E+03  0.17300000000E+03 0. -1.
</event>
<event>
 4    1  0.3065897E+000  0.1000000E+03  0.7546771E-02  0.1280296E+00
         21   -1    0    0  503  502  0.00000000000E+00  0.00000000000E+00  0.54753092062E+03  0.54753092062E+03  0.00000000000E+00 0. -1.
         21   -1    0    0  501  503 -0.00000000000E+00 -0.00000000000E+00 -0.23116150216E+03  0.23116150216E+03  0.00000000000E+00 0. -1.
          6    1    1    2  501    0  0.29277192229E+03 -0.10421254945E+03  0.14946958053E+03  0.38580540360E+03  0.17300000000E+03 0. -1.
         -6    1    1    2    0  502 -0.29277192229E+03  0.10421254945E+03  0.16689983793E+03  0.39288701918E+03  0.17300000000E+03 0. -1.
</event>
<event>
 4    1  0.3065897E+000  0.1000000E+03  0.7546771E-02  0.1280296E+00
         21   -1    0    0  503  502  0.00000000000E+00  0.00000000000E+00  0.22227565818E+03  0.22227565818E+03  0.00000000000E+00 0. -1.
         21   -1    0    0  501  503 -0.00000000000E+00 -0.00000000000E+00 -0.17764089728E+03  0.17764089728E+03  0.00000000000E+00 0. -1.
          6    1    1    2  501    0 -0.81020239077E+02  0.54626808057E+02  0.25142174668E+02  0.20027355354E+03  0.17300000000E+03 0. -1.
         -6    1    1    2    0  502  0.81020239077E+02 -0.54626808057E+02  0.19492586227E+02  0.19964300192E+03  0.17300000000E+03 0. -1.
</event>
<event>
 4    1  0.3065897E+000  0.1000000E+03  0.7546771E-02  0.1280296E+00
         21   -1    0    0  503  502  0.00000000000E+00  0.00000000000E+00  0.13161534105E+04  0.13161534105E+04  0.00000000000E+00 0.  1.
         21   -1    0    0  501  503 -0.00000000000E+00 -0.00000000000E+00 -0.53852006960E+02  0.53852006960E+02  0.00000000000E+00 0.  1.
          6    1    1    2  501    0  0.59918080031E+02  0.15320020852E+03  0.32793039002E+03  0.40562029153E+03  0.17300000000E+03 0.  1.
         -6    1    1    2    0  502 -0.59918080031E+02 -0.15320020852E+03  0.93437101349E+03  0.96438512590E+03  0.17300000000E+03 0.  1.
</event>
<event>
 4    1  0.3065897E+000  0.1000000E+03  0.7546771E-02  0.1280296E+00
         21   -1    0    0  503  502  0.00000000000E+00  0.00000000000E+00  0.24880101647E+04  0.24880101647E+04  0.00000000000E+00 0.  1.
         21   -1    0    0  501  503 -0.00000000000E+00 -0.00000000000E+00 -0.29220002983E+02  0.29220002983E+02  0.00000000000E+00 0.  1.
          6    1    1    2  501    0 -0.42271187029E+02  0.76550301145E+02  0.21042335334E+04  0.21131432903E+04  0.17300000000E+03 0.  1.
         -6    1    1    2    0  502  0.42271187029E+02 -0.76550301145E+02  0.35455662825E+03  0.40408687741E+03  0.17300000000E+03 0.  1.
</event>
<event>
 4    1  0.3065897E+000  0.1000000E+03  0.7546771E-02  0.1280296E+00
         21   -1    0    0  501  502  0.00000000000E+00  0.00000000000E+00  0.21671335036E+03  0.21671335036E+03  0.00000000000E+00 0. -1.
         21   -1    0    0  502  503 -0.00000000000E+00 -0.00000000000E+00 -0.25743825778E+03  0.25743825778E+03  0.00000000000E+00 0.  1.
          6    1    1    2  501    0  0.12534975603E+03 -0.10002479104E+03 -0.32398059672E+02  0.23810954292E+03  0.17300000000E+03 0. -1.
         -6    1    1    2    0  503 -0.12534975603E+03  0.10002479104E+03 -0.83268477447E+01  0.23604206522E+03  0.17300000000E+03 0.  1.
</event>
<event>
 4    1  0.3065897E+000  0.1000000E+03  0.7546771E-02  0.1280296E+00
         21   -1    0    0  501  502  0.00000000000E+00  0.00000000000E+00  0.11654100070E+04  0.11654100070E+04  0.00000000000E+00 0. -1.
         21   -1    0    0  502  503 -0.00000000000E+00 -0.00000000000E+00 -0.31435737065E+03  0.31435737065E+03  0.00000000000E+00 0.  1.
          6    1    1    2  501    0  0.11091038525E+03 -0.30891696357E+03  0.10101023340E+04  0.10760885322E+04  0.17300000000E+03 0. -1.
         -6    1    1    2    0  503 -0.11091038525E+03  0.30891696357E+03 -0.15904969766E+03  0.40367884545E+03  0.17300000000E+03 0.  1.
</event>
<event>
 4    1  0.3065897E+000  0.1000000E+03  0.7546771E-02  0.1280296E+00
         21   -1    0    0  501  502  0.00000000000E+00  0.00000000000E+00  0.26050743634E+03  0.26050743634E+03  0.00000000000E+00 0.  1.
         21   -1    0    0  502  503 -0.00000000000E+00 -0.00000000000E+00 -0.19041481834E+03  0.19041481834E+03  0.00000000000E+00 0.  1.
          6    1    1    2  501    0 -0.41053925258E+02  0.13093809179E+03  0.64477533202E+02  0.23003599925E+03  0.17300000000E+03 0.  1.
         -6    1    1    2    0  503  0.41053925258E+02 -0.13093809179E+03  0.56150848048E+01  0.22088625543E+03  0.17300000000E+03 0.  1.
</event>
<event>
 4    1  0.3065897E+000  0.1000000E+03  0.7546771E-02  0.1280296E+00
         21   -1    0    0  501  502  0.00000000000E+00  0.00000000000E+00  0.42316621887E+02  0.42316621887E+02  0.00000000000E+00 0.  1.
         21   -1    0    0  502  503 -0.00000000000E+00 -0.00000000000E+00 -0.20962649075E+04  0.20962649075E+04  0.00000000000E+00 0.  1.
          6    1    1    2  501    0 -0.35213991316E+01  0.34565577173E+01 -0.15674401408E+03  0.23349953745E+03  0.17300000000E+03 0.  1.
         -6    1    1    2    0  503  0.35213991316E+01 -0.34565577173E+01 -0.18972042715E+04  0.19050819919E+04  0.17300000000E+03 0.  1.
</event>
<event>
 4    1  0.3065897E+000  0.1000000E+03  0.7546771E-02  0.1280296E+00
         21   -1    0    0  501  502  0.00000000000E+00  0.00000000000E+00  0.31510967427E+03  0.31510967427E+03  0.00000000000E+00 0.  1.
         21   -1    0    0  502  503 -0.00000000000E+00 -0.00000000000E+00 -0.13610346912E+03  0.13610346912E+03  0.00000000000E+00 0.  1.
          6    1    1    2  501    0  0.75460369693E+02  0.85185688661E+02  0.92516398708E+02  0.22680201273E+03  0.17300000000E+03 0.  1.
         -6    1    1    2    0  503 -0.75460369693E+02 -0.85185688661E+02  0.86489806447E+02  0.22441113066E+03  0.17300000000E+03 0.  1.
</event>
<event>
 4    1  0.3065897E+000  0.1000000E+03  0.7546771E-02  0.1280296E+00
         21   -1    0    0  501  502  0.00000000000E+00  0.00000000000E+00  0.92958745312E+02  0.92958745312E+02  0.00000000000E+00 0. -1.
         21   -1    0    0  502  503 -0.00000000000E+00 -0.00000000000E+00 -0.10024725811E+04  0.10024725811E+04  0.00000000000E+00 0.  1.
          6    1    1    2  501    0 -0.15546863770E+03  0.19327676031E+03 -0.52945283532E+03  0.60973412912E+03  0.17300000000E+03 0. -1.
         -6    1    1    2    0  503  0.15546863770E+03 -0.19327676031E+03 -0.38006100047E+03  0.48569719730E+03  0.17300000000E+03 0.  1.
</event>
<event>
 4    1  0.3065897E+000  0.1000000E+03  0.7546771E-02  0.1280296E+00
         21   -1    0    0  503  502  0.00000000000E+00  0.00000000000E+00  0.20742081128E+03  0.20742081128E+03  0.00000000000E+00 0. -1.
         21   -1    0    0  501  503 -0.00000000000E+00 -0.00000000000E+00 -0.39035517212E+03  0.39035517212E+03  0.00000000000E+00 0. -1.
          6    1    1    2  501    0  0.28812853614E+02  0.12338921441E+03 -0.28793220712E+03  0.35901119016E+03  0.17300000000E+03 0. -1.
         -6    1    1    2    0  502 -0.28812853614E+02 -0.12338921441E+03  0.10499784628E+03  0.23876479324E+03  0.17300000000E+03 0. -1.
</event>
<event>
 4    1  0.3065897E+000  0.1000000E+03  0.7546771E-02  0.1280296E+00
         21   -1    0    0  503  502  0.00000000000E+00  0.00000000000E+00  0.20043564226E+02  0.20043564226E+02  0.00000000000E+00 0. -1.
         21   -1    0    0  501  503 -0.00000000000E+00 -0.00000000000E+00 -0.29967589588E+04  0.29967589588E+04  0.00000000000E+00 0. -1.
          6    1    1    2  501    0 -0.26532156089E+01  0.92949200963E+02 -0.23905998185E+04  0.23986544324E+04  0.17300000000E+03 0. -1.
         -6    1    1    2    0  502  0.26532156089E+01 -0.92949200963E+02 -0.58611557600E+03  0.61814809062E+03  0.17300000000E+03 0. -1.
</event>
<event>
 4    1  0.3065897E+000  0.1000000E+03  0.7546771E-02  0.1280296E+00
         21   -1    0    0  501  502  0.00000000000E+00  0.00000000000E+00  0.63974675570E+02  0.63974675570E+02  0.00000000000E+00 0. -1.
         21   -1    0    0  502  503 -0.00000000000E+00 -0.00000000000E+00 -0.59940671366E+03  0.59940671366E+03  0.00000000000E+00 0. -1.
          6    1    1    2  501    0  0.26663329889E+02  0.48259336476E+02 -0.39193185159E+03  0.43194846106E+03  0.17300000000E+03 0.  1.
         -6    1    1    2    0  503 -0.26663329889E+02 -0.48259336476E+02 -0.14350018650E+03  0.23143292817E+03  0.17300000000E+03 0.  1.
</event>
<event>
 4    1  0.3065897E+000  0.1000000E+03  0.7546771E-02  0.1280296E+00
         21   -1    0    0  503  502  0.00000000000E+00  0.00000000000E+00  0.28841590126E+03  0.28841590126E+03  0.00000000000E+00 0. -1.
         21   -1    0    0  501  503 -0.00000000000E+00 -0.00000000000E+00 -0.18576518643E+03  0.18576518643E+03  0.00000000000E+00 0. -1.
          6    1    1    2  501    0  0.22076334879E+02  0.15173790562E+03  0.63308973140E+02  0.23968475680E+03  0.17300000000E+03 0. -1.
         -6    1    1    2    0  502 -0.22076334879E+02 -0.15173790562E+03  0.39341741688E+02  0.23449633089E+03  0.17300000000E+03 0. -1.
</event>
<event>
 4    1  0.3065897E+000  0.1000000E+03  0.7546771E-02  0.1280296E+00
         21   -1    0    0  501  502  0.00000000000E+00  0.00000000000E+00  0.53889068942E+03  0.53889068942E+03  0.00000000000E+00 0.  1.
         21   -1    0    0  502  503 -0.00000000000E+00 -0.00000000000E+00 -0.14275965327E+03  0.14275965327E+03  0.00000000000E+00 0. -1.
          6    1    1    2  501    0  0.11015412224E+03 -0.57434592716E+02  0.41639739186E+03  0.46770551743E+03  0.17300000000E+03 0. -1.
         -6    1    1    2    0  503 -0.11015412224E+03  0.57434592716E+02 -0.20266355707E+02  0.21394482527E+03  0.17300000000E+03 0.  1.
</event>
<event>
 4    1  0.3065897E+000  0.1000000E+03  0.7546771E-02  0.1280296E+00
         21   -1    0    0  501  502  0.00000000000E+00  0.00000000000E+00  0.20284996777E+03  0.20284996777E+03  0.00000000000E+00 0.  1.
         21   -1    0    0  502  503 -0.00000000000E+00 -0.00000000000E+00 -0.16000937498E+04  0.16000937498E+04  0.00000000000E+00 0. -1.
          6    1    1    2  501    0 -0.39315453782E+03 -0.18804918966E+03 -0.18658584334E+03  0.50465459997E+03  0.17300000000E+03 0. -1.
         -6    1    1    2    0  503  0.39315453782E+03  0.18804918966E+03 -0.12106579387E+04  0.12982891176E+04  0.17300000000E+03 0.  1.
</event>
<event>
 4    1  0.3065897E+000  0.1000000E+03  0.7546771E-02  0.1280296E+00
         21   -1    0    0  501  502  0.00000000000E+00  0.00000000000E+00  0.25062318176E+03  0.25062318176E+03  0.00000000000E+00 0.  1.
         21   -1    0    0  502  503 -0.00000000000E+00 -0.00000000000E+00 -0.22765899027E+03  0.22765899027E+03  0.00000000000E+00 0. -1.
          6    1    1    2  501    0  0.13246167579E+03  0.38624988236E+02  0.10152834849E+03  0.24346455762E+03  0.17300000000E+03 0. -1.
         -6    1    1    2    0  503 -0.13246167579E+03 -0.38624988236E+02 -0.78564156996E+02  0.23481761440E+03  0.17300000000E+03 0.  1.
</event>
<event>
 4    1  0.3065897E+000  0.1000000E+03  0.7546771E-02  0.1280296E+00
         21   -1    0    0  501  502  0.00000000000E+00  0.00000000000E+00  0.21553320805E+03  0.21553320805E+03  0.00000000000E+00 0. -1.
         21   -1    0    0  502  503 -0.00000000000E+00 -0.00000000000E+00 -0.69986060531E+03  0.69986060531E+03  0.00000000000E+00 0.  1.
          6    1    1    2  501    0 -0.57414884751E+02 -0.30306060195E+02  0.16041351163E+03  0.24469658966E+03  0.17300000000E+03 0. -1.
         -6    1    1    2    0  503  0.57414884751E+02  0.30306060195E+02 -0.64474090890E+03  0.67069722370E+03  0.17300000000E+03 0.  1.
</event>
<event>
 4    1  0.3065897E+000  0.1000000E+03  0.7546771E-02  0.1280296E+00
         21   -1    0    0  501  502  0.00000000000E+00  0.00000000000E+00  0.11145577741E+04  0.11145577741E+04  0.00000000000E+00 0. -1.
         21   -1    0    0  502  503 -0.00000000000E+00 -0.00000000000E+00 -0.58024204106E+02  0.58024204106E+02  0.00000000000E+00 0.  1.
          6    1    1    2  501    0  0.25651934286E+02 -0.35353725279E+02  0.94602212129E+03  0.96270180305E+03  0.17300000000E+03 0. -1.
         -6    1    1    2    0  503 -0.25651934286E+02  0.35353725279E+02  0.11051144868E+03  0.20988017513E+03  0.17300000000E+03 0.  1.
</event>
<event>
 4    1  0.3065897E+000  0.1000000E+03  0.7546771E-02  0.1280296E+00
         21   -1    0    0  501  502  0.00000000000E+00  0.00000000000E+00  0.12724190182E+04  0.12724190182E+04  0.00000000000E+00 0. -1.
         21   -1    0    0  502  503 -0.00000000000E+00 -0.00000000000E+00 -0.29935048078E+02  0.29935048078E+02  0.00000000000E+00 0.  1.
          6    1    1    2  501    0  0.15558834509E+02  0.13660412098E+02  0.91463291926E+03  0.93108058791E+03  0.17300000000E+03 0. -1.
         -6    1    1    2    0  503 -0.15558834509E+02 -0.13660412098E+02  0.32785105090E+03  0.37127347840E+03  0.17300000000E+03 0.  1.
</event>
<event>
 4    1  0.3065897E+000  0.1000000E+03  0.7546771E-02  0.1280296E+00
         21   -1    0    0  501  502  0.00000000000E+00  0.00000000000E+00  0.68841580440E+02  0.68841580440E+02  0.00000000000E+00 0. -1.
         21   -1    0    0  502  503 -0.00000000000E+00 -0.00000000000E+00 -0.61766700593E+03  0.61766700593E+03  0.00000000000E+00 0.  1.
          6    1    1    2  501    0  0.65289182033E+02  0.12536030060E+02 -0.12392998069E+03  0.22295172001E+03  0.17300000000E+03 0. -1.
         -6    1    1    2    0  503 -0.65289182033E+02 -0.12536030060E+02 -0.42489544480E+03  0.46355686636E+03  0.17300000000E+03 0.  1.
</event>
<event>
 4    1  0.3065897E+000  0.1000000E+03  0.7546771E-02  0.1280296E+00
         21   -1    0    0  501  502  0.00000000000E+00  0.00000000000E+00  0.20410523552E+03  0.20410523552E+03  0.00000000000E+00 0. -1.
         21   -1    0    0  502  503 -0.00000000000E+00 -0.00000000000E+00 -0.15567243742E+03  0.15567243742E+03  0.00000000000E+00 0.  1.
          6    1    1    2  501    0 -0.68710512210E+01  0.42138481745E+02  0.28917139444E+02  0.18052164397E+03  0.17300000000E+03 0. -1.
         -6    1    1    2    0  503  0.68710512210E+01 -0.42138481745E+02  0.19515658657E+02  0.17925602897E+03  0.17300000000E+03 0.  1.
</event>
<event>
 4    1  0.3065897E+000  0.1000000E+03  0.7546771E-02  0.1280296E+00
         21   -1    0    0  501  502  0.00000000000E+00  0.00000000000E+00  0.34347095200E+02  0.34347095200E+02  0.00000000000E+00 0.  1.
         21   -1    0    0  502  503 -0.00000000000E+00 -0.00000000000E+00 -0.14629137427E+04  0.14629137427E+04  0.00000000000E+00 0.  1.
          6    1    1    2  501    0  0.13566175936E+03  0.37702683380E+02 -0.64018674456E+03  0.67793338404E+03  0.17300000000E+03 0.  1.
         -6    1    1    2    0  503 -0.13566175936E+03 -0.37702683380E+02 -0.78837990296E+03  0.81932745387E+03  0.17300000000E+03 0.  1.
</event>
<event>
 4    1  0.3065897E+000  0.1000000E+03  0.7546771E-02  0.1280296E+00
         21   -1    0    0  501  502  0.00000000000E+00  0.00000000000E+00  0.10251342579E+03  0.10251342579E+03  0.00000000000E+00 0.  1.
         21   -1    0    0  502  503 -0.00000000000E+00 -0.00000000000E+00 -0.61791670812E+03  0.61791670812E+03  0.00000000000E+00 0.  1.
          6    1    1    2  501    0 -0.65568272538E+02  0.17063487860E+03 -0.25848351461E+03  0.36077442742E+03  0.17300000000E+03 0.  1.
         -6    1    1    2    0  503  0.65568272538E+02 -0.17063487860E+03 -0.25691976772E+03  0.35965570648E+03  0.17300000000E+03 0.  1.
</event>
<event>
 4    1  0.3065897E+000  0.1000000E+03  0.7546771E-02  0.1280296E+00
         21   -1    0    0  501  502  0.00000000000E+00  0.00000000000E+00  0.39221487596E+03  0.39221487596E+03  0.00000000000E+00 0. -1.
         21   -1    0    0  502  503 -0.00000000000E+00 -0.00000000000E+00 -0.12031963493E+03  0.12031963493E+03  0.00000000000E+00 0. -1.
          6    1    1    2  501    0  0.98057266571E+02  0.61683241033E+02  0.20906947872E+03  0.29505778533E+03  0.17300000000E+03 0. -1.
         -6    1    1    2    0  503 -0.98057266571E+02 -0.61683241033E+02  0.62825762318E+02  0.21747672557E+03  0.17300000000E+03 0. -1.
</event>
<event>
 4    1  0.3065897E+000  0.1000000E+03  0.7546771E-02  0.1280296E+00
         21   -1    0    0  501  502  0.00000000000E+00  0.00000000000E+00  0.69291449027E+03  0.69291449027E+03  0.00000000000E+00 0. -1.
         21   -1    0    0  502  503 -0.00000000000E+00 -0.00000000000E+00 -0.16831653626E+03  0.16831653626E+03  0.00000000000E+00 0. -1.
          6    1    1    2  501    0  0.56107848066E+01  0.81460440318E+01  0.63336461502E+03  0.65664113068E+03  0.17300000000E+03 0. -1.
         -6    1    1    2    0  503 -0.56107848066E+01 -0.81460440318E+01 -0.10876666101E+03  0.20458989586E+03  0.17300000000E+03 0. -1.
</event>
<event>
 4    1  0.3065897E+000  0.1000000E+03  0.7546771E-02  0.1280296E+00
         21   -1    0    0  501  502  0.00000000000E+00  0.00000000000E+00  0.12517321538E+04  0.12517321538E+04  0.00000000000E+00 0. -1.
         21   -1    0    0  502  503 -0.00000000000E+00 -0.00000000000E+00 -0.36173231184E+02  0.36173231184E+02  0.00000000000E+00 0.  1.
          6    1    1    2  501    0  0.11580774039E+02 -0.10073904662E+03  0.39234697099E+03  0.44062185089E+03  0.17300000000E+03 0. -1.
         -6    1    1    2    0  503 -0.11580774039E+02  0.10073904662E+03  0.82321195164E+03  0.84728353410E+03  0.17300000000E+03 0.  1.
</event>
<event>
 4    1  0.3065897E+000  0.1000000E+03  0.7546771E-02  0.1280296E+00
         21   -1    0    0  501  502  0.00000000000E+00  0.00000000000E+00  0.21587409900E+03  0.21587409900E+03  0.00000000000E+00 0. -1.
         21   -1    0    0  502  503 -0.00000000000E+00 -0.00000000000E+00 -0.19136314905E+03  0.19136314905E+03  0.00000000000E+00 0.  1.
          6    1    1    2  501    0  0.28137807580E+02 -0.68199063156E+01  0.11512156645E+03  0.20980996735E+03  0.17300000000E+03 0. -1.
         -6    1    1    2    0  503 -0.28137807580E+02  0.68199063156E+01 -0.90610616506E+02  0.19742728069E+03  0.17300000000E+03 0.  1.
</event>
<event>
 4    1  0.3065897E+000  0.1000000E+03  0.7546771E-02  0.1280296E+00
         21   -1    0    0  501  502  0.00000000000E+00  0.00000000000E+00  0.32137210623E+03  0.32137210623E+03  0.00000000000E+00 0. -1.
         21   -1    0    0  502  503 -0.00000000000E+00 -0.00000000000E+00 -0.11339107188E+03  0.11339107188E+03  0.00000000000E+00 0.  1.
          6    1    1    2  501    0  0.64830562862E+02  0.43628992387E+02  0.81066873704E+02  0.20641542789E+03  0.17300000000E+03 0. -1.
         -6    1    1    2    0  503 -0.64830562862E+02 -0.43628992387E+02  0.12691416065E+03  0.22834775022E+03  0.17300000000E+03 0.  1.
</event>
<event>
 4    1  0.3065897E+000  0.1000000E+03  0.7546771E-02  0.1280296E+00
         21   -1    0    0  501  502  0.00000000000E+00  0.00000000000E+00  0.25725550286E+04  0.25725550286E+04  0.00000000000E+00 0. -1.
         21   -1    0    0  502  503 -0.00000000000E+00 -0.00000000000E+00 -0.39395534055E+02  0.39395534055E+02  0.00000000000E+00 0.  1.
          6    1    1    2  501    0 -0.26617698511E+03 -0.19210267545E+02  0.13244438511E+04  0.13620938795E+04  0.17300000000E+03 0. -1.
         -6    1    1    2    0  503  0.26617698511E+03  0.19210267545E+02  0.12087156435E+04  0.12498566832E+04  0.17300000000E+03 0.  1.
</event>
<event>
 4    1  0.3065897E+000  0.1000000E+03  0.7546771E-02  0.1280296E+00
         21   -1    0    0  501  502  0.00000000000E+00  0.00000000000E+00  0.13069718375E+04  0.13069718375E+04  0.00000000000E+00 0. -1.
         21   -1    0    0  502  503 -0.00000000000E+00 -0.00000000000E+00 -0.47107651558E+02  0.47107651558E+02  0.00000000000E+00 0.  1.
          6    1    1    2  501    0  0.61934024804E+01 -0.49273617667E+02  0.10959759718E+04  0.11106568230E+04  0.17300000000E+03 0. -1.
         -6    1    1    2    0  503 -0.61934024804E+01  0.49273617667E+02  0.16388821413E+03  0.24342266608E+03  0.17300000000E+03 0.  1.
</event>
<event>
 4    1  0.3065897E+000  0.1000000E+03  0.7546771E-02  0.1280296E+00
         21   -1    0    0  501  502  0.00000000000E+00  0.00000000000E+00  0.19894402817E+03  0.19894402817E+03  0.00000000000E+00 0. -1.
         21   -1    0    0  502  503 -0.00000000000E+00 -0.00000000000E+00 -0.19677416739E+03  0.19677416739E+03  0.00000000000E+00 0.  1.
          6    1    1    2  501    0 -0.14158981573E+02 -0.83865507474E+01  0.95676174873E+02  0.19837777454E+03  0.17300000000E+03 0. -1.
         -6    1    1    2    0  503  0.14158981573E+02  0.83865507474E+01 -0.93506314093E+02  0.19734042102E+03  0.17300000000E+03 0.  1.
</event>
<event>
 4    1  0.3065897E+000  0.1000000E+03  0.7546771E-02  0.1280296E+00
         21   -1    0    0  503  502  0.00000000000E+00  0.00000000000E+00  0.68696676096E+02  0.68696676096E+02  0.00000000000E+00 0. -1.
         21   -1    0    0  501  503 -0.00000000000E+00 -0.00000000000E+00 -0.67519969264E+03  0.67519969264E+03  0.00000000000E+00 0. -1.
          6    1    1    2  501    0  0.67652341647E+02 -0.74890904464E+02 -0.43999746366E+03  0.48343795355E+03  0.17300000000E+03 0. -1.
         -6    1    1    2    0  502 -0.67652341647E+02  0.74890904464E+02 -0.16650555288E+03  0.26045841519E+03  0.17300000000E+03 0. -1.
</event>
<event>
 4    1  0.3065897E+000  0.1000000E+03  0.7546771E-02  0.1280296E+00
         21   -1    0    0  503  502  0.00000000000E+00  0.00000000000E+00  0.43905445272E+03  0.43905445272E+03  0.00000000000E+00 0. -1.
         21   -1    0    0  501  503 -0.00000000000E+00 -0.00000000000E+00 -0.78422238021E+02  0.78422238021E+02  0.00000000000E+00 0. -1.
          6    1    1    2  501    0  0.10432922623E+02  0.62898062413E+02  0.15114647882E+03  0.23840987855E+03  0.17300000000E+03 0. -1.
         -6    1    1    2    0  502 -0.10432922623E+02 -0.62898062413E+02  0.20948573588E+03  0.27906681219E+03  0.17300000000E+03 0. -1.
</event>
<event>
 4    1  0.3065897E+000  0.1000000E+03  0.7546771E-02  0.1280296E+00
         21   -1    0    0  503  502  0.00000000000E+00  0.00000000000E+00  0.17828816878E+03  0.17828816878E+03  0.00000000000E+00 0. -1.
         21   -1    0    0  501  503 -0.00000000000E+00 -0.00000000000E+00 -0.12138222617E+04  0.12138222617E+04  0.00000000000E+00 0. -1.
          6    1    1    2  501    0  0.30353911725E+02 -0.49983933814E+00 -0.11623020712E+04  0.11754984961E+04  0.17300000000E+03 0. -1.
         -6    1    1    2    0  502 -0.30353911725E+02  0.49983933814E+00  0.12676797823E+03  0.21661193434E+03  0.17300000000E+03 0. -1.
</event>
<event>
 4    1  0.3065897E+000  0.1000000E+03  0.7546771E-02  0.1280296E+00
         21   -1    0    0  503  502  0.00000000000E+00  0.00000000000E+00  0.44332590967E+03  0.44332590967E+03  0.00000000000E+00 0. -1.
         21   -1    0    0  501  503 -0.00000000000E+00 -0.00000000000E+00 -0.92241233093E+02  0.92241233093E+02  0.00000000000E+00 0. -1.
          6    1    1    2  501    0  0.95232971417E+01 -0.13258666459E+01  0.37470817861E+02  0.17727242680E+03  0.17300000000E+03 0. -1.
         -6    1    1    2    0  502 -0.95232971417E+01  0.13258666459E+01  0.31361385871E+03  0.35829471596E+03  0.17300000000E+03 0. -1.
</event>
<event>
 4    1  0.3065897E+000  0.1000000E+03  0.7546771E-02  0.1280296E+00
         21   -1    0    0  503  502  0.00000000000E+00  0.00000000000E+00  0.27635325550E+03  0.27635325550E+03  0.00000000000E+00 0. -1.
         21   -1    0    0  501  503 -0.00000000000E+00 -0.00000000000E+00 -0.15877188205E+03  0.15877188205E+03  0.00000000000E+00 0. -1.
          6    1    1    2  501    0  0.57243920743E+02  0.40442973533E+02 -0.39938193239E+02  0.19088362908E+03  0.17300000000E+03 0. -1.
         -6    1    1    2    0  502 -0.57243920743E+02 -0.40442973533E+02  0.15751956669E+03  0.24424150847E+03  0.17300000000E+03 0. -1.
</event>
<event>
 4    1  0.3065897E+000  0.1000000E+03  0.7546771E-02  0.1280296E+00
         21   -1    0    0  501  502  0.00000000000E+00  0.00000000000E+00  0.83442418136E+03  0.83442418136E+03  0.00000000000E+00 0. -1.
         21   -1    0    0  502  503 -0.00000000000E+00 -0.00000000000E+00 -0.94099294073E+02  0.94099294073E+02  0.00000000000E+00 0. -1.
          6    1    1    2  501    0  0.11870860359E+03 -0.11178094308E+02  0.67733701906E+03  0.70917636717E+03  0.17300000000E+03 0. -1.
         -6    1    1    2    0  503 -0.11870860359E+03  0.11178094308E+02  0.62987868222E+02  0.21934710826E+03  0.17300000000E+03 0. -1.
</event>
<event>
 4    1  0.3065897E+000  0.1000000E+03  0.7546771E-02  0.1280296E+00
         21   -1    0    0  503  502  0.00000000000E+00  0.00000000000E+00  0.22949220585E+03  0.22949220585E+03  0.00000000000E+00 0.  1.
         21   -1    0    0  501  503 -0.00000000000E+00 -0.00000000000E+00 -0.23363871866E+03  0.23363871866E+03  0.00000000000E+00 0.  1.
          6    1    1    2  501    0 -0.30817993079E+02  0.11733900548E+03 -0.96792806620E+02  0.23241350718E+03  0.17300000000E+03 0.  1.
         -6    1    1    2    0  502  0.30817993079E+02 -0.11733900548E+03  0.92646293805E+02  0.23071741733E+03  0.17300000000E+03 0.  1.
</event>
<event>
 4    1  0.3065897E+000  0.1000000E+03  0.7546771E-02  0.1280296E+00
         21   -1    0    0  503  502  0.00000000000E+00  0.00000000000E+00  0.47044611489E+02  0.47044611489E+02  0.00000000000E+00 0.  1.
         21   -1    0    0  501  503 -0.00000000000E+00 -0.00000000000E+00 -0.73907726839E+03  0.73907726839E+03  0.00000000000E+00 0.  1.
          6    1    1    2  501    0  0.64693040173E+02  0.13887702990E+02 -0.30068096341E+03  0.35315166643E+03  0.17300000000E+03 0.  1.
         -6    1    1    2    0  502 -0.64693040173E+02 -0.13887702990E+02 -0.39135169348E+03  0.43297021345E+03  0.17300000000E+03 0.  1.
</event>
<event>
 4    1  0.3065897E+000  0.1000000E+03  0.7546771E-02  0.1280296E+00
         21   -1    0    0  503  502  0.00000000000E+00  0.00000000000E+00  0.49166281318E+03  0.49166281318E+03  0.00000000000E+00 0.  1.
         21   -1    0    0  501  503 -0.00000000000E+00 -0.00000000000E+00 -0.11581051712E+03  0.11581051712E+03  0.00000000000E+00 0.  1.
          6    1    1    2  501    0  0.10646506369E+03  0.23509070557E+02  0.31390974493E+02  0.20688615097E+03  0.17300000000E+03 0.  1.
         -6    1    1    2    0  502 -0.10646506369E+03 -0.23509070557E+02  0.34446132157E+03  0.40058717933E+03  0.17300000000E+03 0.  1.
</event>
<event>
 4    1  0.3065897E+000  0.1000000E+03  0.7546771E-02  0.1280296E+00
         21   -1    0    0  503  502  0.00000000000E+00  0.00000000000E+00  0.54189902624E+03  0.54189902624E+03  0.00000000000E+00 0. -1.
         21   -1    0    0  501  503 -0.00000000000E+00 -0.00000000000E+00 -0.27534552937E+03  0.27534552937E+03  0.00000000000E+00 0.  1.
          6    1    1    2  501    0  0.56444191749E+02  0.12976511701E+03 -0.19999708940E+03  0.29992126991E+03  0.17300000000E+03 0.  1.
         -6    1    1    2    0  502 -0.56444191749E+02 -0.12976511701E+03  0.46655058627E+03  0.51732328570E+03  0.17300000000E+03 0. -1.
</event>
<event>
 4    1  0.3065897E+000  0.1000000E+03  0.7546771E-02  0.1280296E+00
         21   -1    0    0  501  502  0.00000000000E+00  0.00000000000E+00  0.11971897448E+03  0.11971897448E+03  0.00000000000E+00 0. -1.
         21   -1    0    0  502  503 -0.00000000000E+00 -0.00000000000E+00 -0.31409877476E+03  0.31409877476E+03  0.00000000000E+00 0. -1.
          6    1    1    2  501    0 -0.32990829086E+02 -0.78180231651E+02 -0.72835911620E+02  0.20599663455E+03  0.17300000000E+03 0. -1.
         -6    1    1    2    0  503  0.32990829086E+02  0.78180231651E+02 -0.12154388866E+03  0.22782111468E+03  0.17300000000E+03 0. -1.
</event>
<event>
 4    1  0.3065897E+000  0.1000000E+03  0.7546771E-02  0.1280296E+00
         21   -1    0    0  501  502  0.00000000000E+00  0.00000000000E+00  0.50803278806E+03  0.50803278806E+03  0.00000000000E+00 0. -1.
         21   -1    0    0  502  503 -0.00000000000E+00 -0.00000000000E+00 -0.13253103967E+03  0.13253103967E+03  0.00000000000E+00 0. -1.
          6    1    1    2  501    0  0.25354173290E+02  0.15683169830E+03  0.32387402366E+03  0.40007799102E+03  0.17300000000E+03 0. -1.
         -6    1    1    2    0  503 -0.25354173290E+02 -0.15683169830E+03  0.51627724734E+02  0.24048583671E+03  0.17300000000E+03 0. -1.
</event>
<event>
 4    1  0.3065897E+000  0.1000000E+03  0.7546771E-02  0.1280296E+00
         21   -1    0    0  503  502  0.00000000000E+00  0.00000000000E+00  0.35314995347E+04  0.35314995347E+04  0.00000000000E+00 0. -1.
         21   -1    0    0  501  503 -0.00000000000E+00 -0.00000000000E+00 -0.11599139510E+03  0.11599139510E+03  0.00000000000E+00 0. -1.
          6    1    1    2  501    0  0.46509227421E+03 -0.13370469558E+03  0.62079450067E+03  0.80591722975E+03  0.17300000000E+03 0. -1.
         -6    1    1    2    0  502 -0.46509227421E+03  0.13370469558E+03  0.27947136389E+04  0.28415737000E+04  0.17300000000E+03 0. -1.
</event>
<event>
 4    1  0.3065897E+000  0.1000000E+03  0.7546771E-02  0.1280296E+00
         21   -1    0    0  503  502  0.00000000000E+00  0.00000000000E+00  0.14296360488E+03  0.14296360488E+03  0.00000000000E+00 0. -1.
         21   -1    0    0  501  503 -0.00000000000E+00 -0.00000000000E+00 -0.62062267393E+03  0.62062267393E+03  0.00000000000E+00 0. -1.
          6    1    1    2  501    0 -0.11282520735E+03  0.18831160551E+03 -0.10682434234E+03  0.29921769383E+03  0.17300000000E+03 0. -1.
         -6    1    1    2    0  502  0.11282520735E+03 -0.18831160551E+03 -0.37083472671E+03  0.46436858498E+03  0.17300000000E+03 0. -1.
</event>
<event>
 4    1  0.3065897E+000  0.1000000E+03  0.7546771E-02  0.1280296E+00
         21   -1    0    0  503  502  0.00000000000E+00  0.00000000000E+00  0.17587424689E+03  0.17587424689E+03  0.00000000000E+00 0. -1.
         21   -1    0    0  501  503 -0.00000000000E+00 -0.00000000000E+00 -0.36467741772E+03  0.36467741772E+03  0.00000000000E+00 0. -1.
          6    1    1    2  501    0  0.13033497480E+01 -0.10835138805E+03 -0.25436503322E+03  0.32614765389E+03  0.17300000000E+03 0. -1.
         -6    1    1    2    0  502 -0.13033497480E+01  0.10835138805E+03  0.65561862399E+02  0.21440401072E+03  0.17300000000E+03 0. -1.
</event>
<event>
 4    1  0.3065897E+000  0.1000000E+03  0.7546771E-02  0.1280296E+00
         21   -1    0    0  503  502  0.00000000000E+00  0.00000000000E+00  0.10764064893E+03  0.10764064893E+03  0.00000000000E+00 0. -1.
         21   -1    0    0  501  503 -0.00000000000E+00 -0.00000000000E+00 -0.60714386823E+03  0.60714386823E+03  0.00000000000E+00 0. -1.
          6    1    1    2  501    0  0.15585329970E+03 -0.19321056047E+02 -0.39477350486E+03  0.45873595278E+03  0.17300000000E+03 0. -1.
         -6    1    1    2    0  502 -0.15585329970E+03  0.19321056047E+02 -0.10472971444E+03  0.25604856438E+03  0.17300000000E+03 0. -1.
</event>
<event>
 4    1  0.3065897E+000  0.1000000E+03  0.7546771E-02  0.1280296E+00
         21   -1    0    0  503  502  0.00000000000E+00  0.00000000000E+00  0.27042150760E+03  0.27042150760E+03  0.00000000000E+00 0. -1.
         21   -1    0    0  501  503 -0.00000000000E+00 -0.00000000000E+00 -0.35470070967E+03  0.35470070967E+03  0.00000000000E+00 0. -1.
          6    1    1    2  501    0 -0.39218773027E+02 -0.16255096959E+02 -0.29782625101E+03  0.34703287471E+03  0.17300000000E+03 0. -1.
         -6    1    1    2    0  502  0.39218773027E+02  0.16255096959E+02  0.21354704894E+03  0.27808934256E+03  0.17300000000E+03 0. -1.
</event>
<event>
 4    1  0.3065897E+000  0.1000000E+03  0.7546771E-02  0.1280296E+00
         21   -1    0    0  501  502  0.00000000000E+00  0.00000000000E+00  0.10298889230E+04  0.10298889230E+04  0.00000000000E+00 0. -1.
         21   -1    0    0  502  503 -0.00000000000E+00 -0.00000000000E+00 -0.11844463884E+03  0.11844463884E+03  0.00000000000E+00 0.  1.
          6    1    1    2  501    0  0.14430124241E+03 -0.26458152150E+03  0.51336766481E+03  0.61992063150E+03  0.17300000000E+03 0. -1.
         -6    1    1    2    0  503 -0.14430124241E+03  0.26458152150E+03  0.39807661933E+03  0.52841293033E+03  0.17300000000E+03 0.  1.
</event>
<event>
 4    1  0.3065897E+000  0.1000000E+03  0.7546771E-02  0.1280296E+00
         21   -1    0    0  501  502  0.00000000000E+00  0.00000000000E+00  0.21674112773E+03  0.21674112773E+03  0.00000000000E+00 0. -1.
         21   -1    0    0  502  503 -0.00000000000E+00 -0.00000000000E+00 -0.38450418519E+03  0.38450418519E+03  0.00000000000E+00 0.  1.
          6    1    1    2  501    0 -0.53209786211E+02 -0.12760241869E+03 -0.27673046813E+03  0.35443251910E+03  0.17300000000E+03 0. -1.
         -6    1    1    2    0  503  0.53209786211E+02  0.12760241869E+03  0.10896741067E+03  0.24681279382E+03  0.17300000000E+03 0.  1.
</event>
<event>
 4    1  0.3065897E+000  0.1000000E+03  0.7546771E-02  0.1280296E+00
         21   -1    0    0  501  502  0.00000000000E+00  0.00000000000E+00  0.55056352933E+03  0.55056352933E+03  0.00000000000E+00 0. -1.
         21   -1    0    0  502  503 -0.00000000000E+00 -0.00000000000E+00 -0.92956800710E+02  0.92956800710E+02  0.00000000000E+00 0.  1.
          6    1    1    2  501    0 -0.51433138029E+02  0.21736996300E+01  0.42277533411E+03  0.45969345850E+03  0.17300000000E+03 0. -1.
         -6    1    1    2    0  503  0.51433138029E+02 -0.21736996300E+01  0.34831394515E+02  0.18382687154E+03  0.17300000000E+03 0.  1.
</event>
<event>
 4    1  0.3065897E+000  0.1000000E+03  0.7546771E-02  0.1280296E+00
         21   -1    0    0  501  502  0.00000000000E+00  0.00000000000E+00  0.24793602001E+03  0.24793602001E+03  0.00000000000E+00 0. -1.
         21   -1    0    0  502  503 -0.00000000000E+00 -0.00000000000E+00 -0.17188964607E+03  0.17188964607E+03  0.00000000000E+00 0.  1.
          6    1    1    2  501    0  0.96635495285E+02 -0.37155867271E+01 -0.20710063729E+02  0.19927401053E+03  0.17300000000E+03 0. -1.
         -6    1    1    2    0  503 -0.96635495285E+02  0.37155867271E+01  0.96756437673E+02  0.22055165555E+03  0.17300000000E+03 0.  1.
</event>
<event>
 4    1  0.3065897E+000  0.1000000E+03  0.7546771E-02  0.1280296E+00
         21   -1    0    0  503  502  0.00000000000E+00  0.00000000000E+00  0.37954504689E+03  0.37954504689E+03  0.00000000000E+00 0.  1.
         21   -1    0    0  501  503 -0.00000000000E+00 -0.00000000000E+00 -0.19576576241E+03  0.19576576241E+03  0.00000000000E+00 0. -1.
          6    1    1    2  501    0  0.12886254425E+03 -0.34342399269E+02 -0.80184293549E+02  0.23268750854E+03  0.17300000000E+03 0. -1.
         -6    1    1    2    0  502 -0.12886254425E+03  0.34342399269E+02  0.26396357803E+03  0.34262330076E+03  0.17300000000E+03 0.  1.
</event>
<event>
 4    1  0.3065897E+000  0.1000000E+03  0.7546771E-02  0.1280296E+00
         21   -1    0    0  503  502  0.00000000000E+00  0.00000000000E+00  0.14635619383E+03  0.14635619383E+03  0.00000000000E+00 0.  1.
         21   -1    0    0  501  503 -0.00000000000E+00 -0.00000000000E+00 -0.85867121030E+03  0.85867121030E+03  0.00000000000E+00 0. -1.
          6    1    1    2  501    0  0.14937931254E+03 -0.27083330648E+03 -0.34363902718E+03  0.49364120565E+03  0.17300000000E+03 0. -1.
         -6    1    1    2    0  502 -0.14937931254E+03  0.27083330648E+03 -0.36867598930E+03  0.51138619848E+03  0.17300000000E+03 0.  1.
</event>
<event>
 4    1  0.3065897E+000  0.1000000E+03  0.7546771E-02  0.1280296E+00
         21   -1    0    0  501  502  0.00000000000E+00  0.00000000000E+00  0.25935801901E+03  0.25935801901E+03  0.00000000000E+00 0. -1.
         21   -1    0    0  502  503 -0.00000000000E+00 -0.00000000000E+00 -0.62269694286E+03  0.62269694286E+03  0.00000000000E+00 0. -1.
          6    1    1    2  501    0  0.15195948850E+03 -0.25916530698E+02  0.17866445332E+03  0.29259757277E+03  0.17300000000E+03 0. -1.
         -6    1    1    2    0  503 -0.15195948850E+03  0.25916530698E+02 -0.54200337716E+03  0.58945738910E+03  0.17300000000E+03 0. -1.
</event>
<event>
 4    1  0.3065897E+000  0.1000000E+03  0.7546771E-02  0.1280296E+00
         21   -1    0    0  501  502  0.00000000000E+00  0.00000000000E+00  0.10487208805E+03  0.10487208805E+03  0.00000000000E+00 0. -1.
         21   -1    0    0  502  503 -0.00000000000E+00 -0.00000000000E+00 -0.56685993990E+03  0.56685993990E+03  0.00000000000E+00 0. -1.
          6    1    1    2  501    0 -0.14473066234E+01 -0.83763589985E+02 -0.24364164671E+02  0.19375511922E+03  0.17300000000E+03 0. -1.
         -6    1    1    2    0  503  0.14473066234E+01  0.83763589985E+02 -0.43762368717E+03  0.47797690873E+03  0.17300000000E+03 0. -1.
</event>
<event>
 4    1  0.3065897E+000  0.1000000E+03  0.7546771E-02  0.1280296E+00
         21   -1    0    0  501  502  0.00000000000E+00  0.00000000000E+00  0.32536473023E+03  0.32536473023E+03  0.00000000000E+00 0. -1.
         21   -1    0    0  502  503 -0.00000000000E+00 -0.00000000000E+00 -0.13848171847E+03  0.13848171847E+03  0.00000000000E+00 0. -1.
          6    1    1    2  501    0 -0.92594403912E+02  0.37679243296E+02  0.17173340888E+03  0.26346691014E+03  0.17300000000E+03 0. -1.
         -6    1    1    2    0  503  0.92594403912E+02 -0.37679243296E+02  0.15149602879E+02  0.20037953857E+03  0.17300000000E+03 0. -1.
</event>
<event>
 4    1  0.3065897E+000  0.1000000E+03  0.7546771E-02  0.1280296E+00
         21   -1    0    0  501  502  0.00000000000E+00  0.00000000000E+00  0.25869136700E+03  0.25869136700E+03  0.00000000000E+00 0. -1.
         21   -1    0    0  502  503 -0.00000000000E+00 -0.00000000000E+00 -0.15983099814E+03  0.15983099814E+03  0.00000000000E+00 0. -1.
          6    1    1    2  501    0  0.58482158265E+02 -0.26927336891E+01  0.14142297478E+03  0.23099106356E+03  0.17300000000E+03 0. -1.
         -6    1    1    2    0  503 -0.58482158265E+02  0.26927336891E+01 -0.42562605918E+02  0.18753130158E+03  0.17300000000E+03 0. -1.
</event>
<event>
 4    1  0.3065897E+000  0.1000000E+03  0.7546771E-02  0.1280296E+00
         21   -1    0    0  503  502  0.00000000000E+00  0.00000000000E+00  0.35257637170E+03  0.35257637170E+03  0.00000000000E+00 0. -1.
         21   -1    0    0  501  503 -0.00000000000E+00 -0.00000000000E+00 -0.21496263831E+03  0.21496263831E+03  0.00000000000E+00 0.  1.
          6    1    1    2  501    0 -0.27530036436E+02  0.16927265997E+02 -0.14940608832E+03  0.23085842949E+03  0.17300000000E+03 0. -1.
         -6    1    1    2    0  502  0.27530036436E+02 -0.16927265997E+02  0.28701982171E+03  0.33668058051E+03  0.17300000000E+03 0. -1.
</event>
<event>
 4    1  0.3065897E+000  0.1000000E+03  0.7546771E-02  0.1280296E+00
         21   -1    0    0  503  502  0.00000000000E+00  0.00000000000E+00  0.10618589853E+03  0.10618589853E+03  0.00000000000E+00 0. -1.
         21   -1    0    0  501  503 -0.00000000000E+00 -0.00000000000E+00 -0.40060910196E+03  0.40060910196E+03  0.00000000000E+00 0.  1.
          6    1    1    2  501    0 -0.10797754906E+03 -0.76419076491E+01 -0.18391528019E+03  0.27472054918E+03  0.17300000000E+03 0. -1.
         -6    1    1    2    0  502  0.10797754906E+03  0.76419076491E+01 -0.11050792324E+03  0.23207445131E+03  0.17300000000E+03 0. -1.
</event>
<event>
 4    1  0.3065897E+000  0.1000000E+03  0.7546771E-02  0.1280296E+00
         21   -1    0    0  501  502  0.00000000000E+00  0.00000000000E+00  0.48254067359E+02  0.48254067359E+02  0.00000000000E+00 0.  1.
         21   -1    0    0  502  503 -0.00000000000E+00 -0.00000000000E+00 -0.10399878231E+04  0.10399878231E+04  0.00000000000E+00 0. -1.
          6    1    1    2  501    0  0.31806292759E+02  0.69036409937E+02 -0.20361770848E+03  0.27778919591E+03  0.17300000000E+03 0.  1.
         -6    1    1    2    0  503 -0.31806292759E+02 -0.69036409937E+02 -0.78811604723E+03  0.81045269452E+03  0.17300000000E+03 0. -1.
</event>
<event>
 4    1  0.3065897E+000  0.1000000E+03  0.7546771E-02  0.1280296E+00
         21   -1    0    0  501  502  0.00000000000E+00  0.00000000000E+00  0.43837268146E+03  0.43837268146E+03  0.00000000000E+00 0. -1.
         21   -1    0    0  502  503 -0.00000000000E+00 -0.00000000000E+00 -0.87164160800E+02  0.87164160800E+02  0.00000000000E+00 0.  1.
          6    1    1    2  501    0  0.45241191609E+02 -0.78933834270E+02  0.17831662626E+03  0.26458105528E+03  0.17300000000E+03 0. -1.
         -6    1    1    2    0  503 -0.45241191609E+02  0.78933834270E+02  0.17289189440E+03  0.26095578699E+03  0.17300000000E+03 0.  1.
</event>
<event>
 4    1  0.3065897E+000  0.1000000E+03  0.7546771E-02  0.1280296E+00
         21   -1    0    0  501  502  0.00000000000E+00  0.00000000000E+00  0.93853746382E+03  0.93853746382E+03  0.00000000000E+00 0. -1.
         21   -1    0    0  502  503 -0.00000000000E+00 -0.00000000000E+00 -0.57659811567E+02  0.57659811567E+02  0.00000000000E+00 0.  1.
          6    1    1    2  501    0 -0.10222223908E+03 -0.13220378057E+02  0.68979864630E+03  0.71859260850E+03  0.17300000000E+03 0. -1.
         -6    1    1    2    0  503  0.10222223908E+03  0.13220378057E+02  0.19107900595E+03  0.27760466688E+03  0.17300000000E+03 0.  1.
</event>
<event>
 4    1  0.3065897E+000  0.1000000E+03  0.7546771E-02  0.1280296E+00
         21   -1    0    0  503  502  0.00000000000E+00  0.00000000000E+00  0.23974088059E+03  0.23974088059E+03  0.00000000000E+00 0. -1.
         21   -1    0    0  501  503 -0.00000000000E+00 -0.00000000000E+00 -0.31368596078E+03  0.31368596078E+03  0.00000000000E+00 0. -1.
          6    1    1    2  501    0 -0.18023009522E+03 -0.10280312672E+03  0.10602509928E+02  0.27035677040E+03  0.17300000000E+03 0. -1.
         -6    1    1    2    0  502  0.18023009522E+03  0.10280312672E+03 -0.84547590118E+02  0.28307007097E+03  0.17300000000E+03 0. -1.
</event>
<event>
 4    1  0.3065897E+000  0.1000000E+03  0.7546771E-02  0.1280296E+00
         21   -1    0    0  503  502  0.00000000000E+00  0.00000000000E+00  0.32633147759E+03  0.32633147759E+03  0.00000000000E+00 0. -1.
         21   -1    0    0  501  503 -0.00000000000E+00 -0.00000000000E+00 -0.31521832616E+03  0.31521832616E+03  0.00000000000E+00 0.  1.
          6    1    1    2  501    0  0.13655210820E+03  0.64833713699E+02 -0.21827775409E+03  0.31689756486E+03  0.17300000000E+03 0.  1.
         -6    1    1    2    0  502 -0.13655210820E+03 -0.64833713699E+02  0.22939090551E+03  0.32465223889E+03  0.17300000000E+03 0. -1.
</event>
<event>
 4    1  0.3065897E+000  0.1000000E+03  0.7546771E-02  0.1280296E+00
         21   -1    0    0  503  502  0.00000000000E+00  0.00000000000E+00  0.18067121527E+03  0.18067121527E+03  0.00000000000E+00 0. -1.
         21   -1    0    0  501  503 -0.00000000000E+00 -0.00000000000E+00 -0.91466461101E+03  0.91466461101E+03  0.00000000000E+00 0.  1.
          6    1    1    2  501    0 -0.36582623873E+03  0.38102104891E+02 -0.37592909909E+03  0.55365358743E+03  0.17300000000E+03 0.  1.
         -6    1    1    2    0  502  0.36582623873E+03 -0.38102104891E+02 -0.35806429665E+03  0.54168223884E+03  0.17300000000E+03 0. -1.
</event>
<event>
 4    1  0.3065897E+000  0.1000000E+03  0.7546771E-02  0.1280296E+00
         21   -1    0    0  503  502  0.00000000000E+00  0.00000000000E+00  0.17481180339E+03  0.17481180339E+03  0.00000000000E+00 0. -1.
         21   -1    0    0  501  503 -0.00000000000E+00 -0.00000000000E+00 -0.17196642782E+03  0.17196642782E+03  0.00000000000E+00 0.  1.
          6    1    1    2  501    0 -0.11086336401E+02  0.20127679666E+01 -0.98639287740E+00  0.17336934868E+03  0.17300000000E+03 0.  1.
         -6    1    1    2    0  502  0.11086336401E+02 -0.20127679666E+01  0.38317684474E+01  0.17340888253E+03  0.17300000000E+03 0. -1.
</event>
<event>
 4    1  0.3065897E+000  0.1000000E+03  0.7546771E-02  0.1280296E+00
         21   -1    0    0  503  502  0.00000000000E+00  0.00000000000E+00  0.25073066920E+03  0.25073066920E+03  0.00000000000E+00 0. -1.
         21   -1    0    0  501  503 -0.00000000000E+00 -0.00000000000E+00 -0.22619010339E+03  0.22619010339E+03  0.00000000000E+00 0. -1.
          6    1    1    2  501    0  0.33811144223E+02  0.49817174246E+02 -0.14011191178E+03  0.23061936637E+03  0.17300000000E+03 0. -1.
         -6    1    1    2    0  502 -0.33811144223E+02 -0.49817174246E+02  0.16465247759E+03  0.24630140621E+03  0.17300000000E+03 0. -1.
</event>
<event>
 4    1  0.3065897E+000  0.1000000E+03  0.7546771E-02  0.1280296E+00
         21   -1    0    0  503  502  0.00000000000E+00  0.00000000000E+00  0.15241401532E+04  0.15241401532E+04  0.00000000000E+00 0. -1.
         21   -1    0    0  501  503 -0.00000000000E+00 -0.00000000000E+00 -0.42076720888E+02  0.42076720888E+02  0.00000000000E+00 0. -1.
          6    1    1    2  501    0  0.97239285869E+02  0.11916066517E+02  0.25597285623E+03  0.32411197831E+03  0.17300000000E+03 0. -1.
         -6    1    1    2    0  502 -0.97239285869E+02 -0.11916066517E+02  0.12260905761E+04  0.12421048957E+04  0.17300000000E+03 0. -1.
</event>
<event>
 4    1  0.3065897E+000  0.1000000E+03  0.7546771E-02  0.1280296E+00
         21   -1    0    0  503  502  0.00000000000E+00  0.00000000000E+00  0.65247813051E+02  0.65247813051E+02  0.00000000000E+00 0. -1.
         21   -1    0    0  501  503 -0.00000000000E+00 -0.00000000000E+00 -0.20897521030E+04  0.20897521030E+04  0.00000000000E+00 0. -1.
          6    1    1    2  501    0 -0.11523315521E+03  0.67751442494E+02 -0.18805936066E+04  0.18932591611E+04  0.17300000000E+03 0. -1.
         -6    1    1    2    0  502  0.11523315521E+03 -0.67751442494E+02 -0.14391068342E+03  0.26174075499E+03  0.17300000000E+03 0. -1.
</event>
<event>
 4    1  0.3065897E+000  0.1000000E+03  0.7546771E-02  0.1280296E+00
         21   -1    0    0  501  502  0.00000000000E+00  0.00000000000E+00  0.15990457892E+03  0.15990457892E+03  0.00000000000E+00 0. -1.
         21   -1    0    0  502  503 -0.00000000000E+00 -0.00000000000E+00 -0.33276463062E+03  0.33276463062E+03  0.00000000000E+00 0. -1.
          6    1    1    2  501    0 -0.11602053102E+03  0.94225052684E+02 -0.53646265033E+02  0.23483195252E+03  0.17300000000E+03 0. -1.
         -6    1    1    2    0  503  0.11602053102E+03 -0.94225052684E+02 -0.11921378667E+03  0.25783725701E+03  0.17300000000E+03 0. -1.
</event>
<event>
 4    1  0.3065897E+000  0.1000000E+03  0.7546771E-02  0.1280296E+00
         21   -1    0    0  503  502  0.00000000000E+00  0.00000000000E+00  0.66561292423E+03  0.66561292423E+03  0.00000000000E+00 0.  1.
         21   -1    0    0  501  503 -0.00000000000E+00 -0.00000000000E+00 -0.18202119116E+03  0.18202119116E+03  0.00000000000E+00 0.  1.
          6    1    1    2  501    0 -0.26583677513E+02  0.96415605323E+02 -0.10521954276E+03  0.22583802390E+03  0.17300000000E+03 0.  1.
         -6    1    1    2    0  502  0.26583677513E+02 -0.96415605323E+02  0.58881127583E+03  0.62179609150E+03  0.17300000000E+03 0.  1.
</event>
<event>
 4    1  0.3065897E+000  0.1000000E+03  0.7546771E-02  0.1280296E+00
         21   -1    0    0  501  502  0.00000000000E+00  0.00000000000E+00  0.86526191069E+03  0.86526191069E+03  0.00000000000E+00 0. -1.
         21   -1    0    0  502  503 -0.00000000000E+00 -0.00000000000E+00 -0.61311403370E+02  0.61311403370E+02  0.00000000000E+00 0. -1.
          6    1    1    2  501    0  0.35564767543E+02 -0.26294452878E+02  0.69460351202E+03  0.71718846188E+03  0.17300000000E+03 0.  1.
         -6    1    1    2    0  503 -0.35564767543E+02  0.26294452878E+02  0.10934699531E+03  0.20938485219E+03  0.17300000000E+03 0.  1.
</event>
<event>
 4    1  0.3065897E+000  0.1000000E+03  0.7546771E-02  0.1280296E+00
         21   -1    0    0  501  502  0.00000000000E+00  0.00000000000E+00  0.55416378155E+02  0.55416378155E+02  0.00000000000E+00 0. -1.
         21   -1    0    0  502  503 -0.00000000000E+00 -0.00000000000E+00 -0.60379835114E+03  0.60379835114E+03  0.00000000000E+00 0. -1.
          6    1    1    2  501    0 -0.43091832692E+02  0.36798839564E+02 -0.30643738909E+03  0.35643222928E+03  0.17300000000E+03 0.  1.
         -6    1    1    2    0  503  0.43091832692E+02 -0.36798839564E+02 -0.24194458389E+03  0.30278250001E+03  0.17300000000E+03 0.  1.
</event>
<event>
 4    1  0.3065897E+000  0.1000000E+03  0.7546771E-02  0.1280296E+00
         21   -1    0    0  503  502  0.00000000000E+00  0.00000000000E+00  0.33878830663E+03  0.33878830663E+03  0.00000000000E+00 0.  1.
         21   -1    0    0  501  503 -0.00000000000E+00 -0.00000000000E+00 -0.10744164915E+03  0.10744164915E+03  0.00000000000E+00 0.  1.
          6    1    1    2  501    0  0.21237422599E+02 -0.30239181709E+02  0.32113229003E+02  0.17979348071E+03  0.17300000000E+03 0.  1.
         -6    1    1    2    0  502 -0.21237422599E+02  0.30239181709E+02  0.19923342848E+03  0.26643647508E+03  0.17300000000E+03 0.  1.
</event>
<event>
 4    1  0.3065897E+000  0.1000000E+03  0.7546771E-02  0.1280296E+00
         21   -1    0    0  503  502  0.00000000000E+00  0.00000000000E+00  0.28036408620E+03  0.28036408620E+03  0.00000000000E+00 0. -1.
         21   -1    0    0  501  503 -0.00000000000E+00 -0.00000000000E+00 -0.37744083886E+03  0.37744083886E+03  0.00000000000E+00 0.  1.
          6    1    1    2  501    0  0.21289520471E+03 -0.47415221855E+02 -0.21868472279E+03  0.35401211763E+03  0.17300000000E+03 0.  1.
         -6    1    1    2    0  502 -0.21289520471E+03  0.47415221855E+02  0.12160797013E+03  0.30379280743E+03  0.17300000000E+03 0. -1.
</event>
<event>
 4    1  0.3065897E+000  0.1000000E+03  0.7546771E-02  0.1280296E+00
         21   -1    0    0  503  502  0.00000000000E+00  0.00000000000E+00  0.16250974756E+03  0.16250974756E+03  0.00000000000E+00 0. -1.
         21   -1    0    0  501  503 -0.00000000000E+00 -0.00000000000E+00 -0.23868562156E+03  0.23868562156E+03  0.00000000000E+00 0.  1.
          6    1    1    2  501    0 -0.88001250043E+02 -0.13767444957E+02 -0.69081628754E+02  0.20648252706E+03  0.17300000000E+03 0.  1.
         -6    1    1    2    0  502  0.88001250043E+02  0.13767444957E+02 -0.70942452458E+01  0.19471284207E+03  0.17300000000E+03 0. -1.
</event>
<event>
 4    1  0.3065897E+000  0.1000000E+03  0.7546771E-02  0.1280296E+00
         21   -1    0    0  501  502  0.00000000000E+00  0.00000000000E+00  0.57394920442E+02  0.57394920442E+02  0.00000000000E+00 0.  1.
         21   -1    0    0  502  503 -0.00000000000E+00 -0.00000000000E+00 -0.59127361230E+03  0.59127361230E+03  0.00000000000E+00 0. -1.
          6    1    1    2  501    0  0.61393429322E+02 -0.10742845822E+02 -0.28642885324E+03  0.34037486668E+03  0.17300000000E+03 0.  1.
         -6    1    1    2    0  503 -0.61393429322E+02  0.10742845822E+02 -0.24744983862E+03  0.30829366606E+03  0.17300000000E+03 0. -1.
</event>
<event>
 4    1  0.3065897E+000  0.1000000E+03  0.7546771E-02  0.1280296E+00
         21   -1    0    0  501  502  0.00000000000E+00  0.00000000000E+00  0.12549752597E+04  0.12549752597E+04  0.00000000000E+00 0.  1.
         21   -1    0    0  502  503 -0.00000000000E+00 -0.00000000000E+00 -0.67314873631E+02  0.67314873631E+02  0.00000000000E+00 0.  1.
          6    1    1    2  501    0  0.14624753415E+01 -0.19666319582E+02  0.11232075822E+04  0.11366235858E+04  0.17300000000E+03 0.  1.
         -6    1    1    2    0  503 -0.14624753415E+01  0.19666319582E+02  0.64452803845E+02  0.18566654756E+03  0.17300000000E+03 0.  1.
</event>
<event>
 4    1  0.3065897E+000  0.1000000E+03  0.7546771E-02  0.1280296E+00
         21   -1    0    0  501  502  0.00000000000E+00  0.00000000000E+00  0.49659642827E+02  0.49659642827E+02  0.00000000000E+00 0.  1.
         21   -1    0    0  502  503 -0.00000000000E+00 -0.00000000000E+00 -0.74314130057E+03  0.74314130057E+03  0.00000000000E+00 0.  1.
          6    1    1    2  501    0 -0.61671714956E+02 -0.83414851308E+01 -0.23181222858E+03  0.29586971815E+03  0.17300000000E+03 0.  1.
         -6    1    1    2    0  503  0.61671714956E+02  0.83414851308E+01 -0.46166942916E+03  0.49693122524E+03  0.17300000000E+03 0.  1.
</event>
<event>
 4    1  0.3065897E+000  0.1000000E+03  0.7546771E-02  0.1280296E+00
         21   -1    0    0  501  502  0.00000000000E+00  0.00000000000E+00  0.45365362718E+03  0.45365362718E+03  0.00000000000E+00 0. -1.
         21   -1    0    0  502  503 -0.00000000000E+00 -0.00000000000E+00 -0.94271394310E+02  0.94271394310E+02  0.00000000000E+00 0.  1.
          6    1    1    2  501    0 -0.83351448809E+02 -0.20542636069E+02  0.27765298174E+03  0.33821537840E+03  0.17300000000E+03 0. -1.
         -6    1    1    2    0  503  0.83351448809E+02  0.20542636069E+02  0.81729251129E+02  0.20970964309E+03  0.17300000000E+03 0.  1.
</event>
<event>
 4    1  0.3065897E+000  0.1000000E+03  0.7546771E-02  0.1280296E+00
         21   -1    0    0  501  502  0.00000000000E+00  0.00000000000E+00  0.19031495184E+03  0.19031495184E+03  0.00000000000E+00 0.  1.
         21   -1    0    0  502  503 -0.00000000000E+00 -0.00000000000E+00 -0.32825391512E+03  0.32825391512E+03  0.00000000000E+00 0.  1.
          6    1    1    2  501    0  0.68744079678E+02  0.36428258507E+01  0.10400642721E+03  0.21327296025E+03  0.17300000000E+03 0.  1.
         -6    1    1    2    0  503 -0.68744079678E+02 -0.36428258507E+01 -0.24194539050E+03  0.30529590671E+03  0.17300000000E+03 0.  1.
</event>
<event>
 4    1  0.3065897E+000  0.1000000E+03  0.7546771E-02  0.1280296E+00
         21   -1    0    0  501  502  0.00000000000E+00  0.00000000000E+00  0.19591606077E+03  0.19591606077E+03  0.00000000000E+00 0.  1.
         21   -1    0    0  502  503 -0.00000000000E+00 -0.00000000000E+00 -0.24524016198E+03  0.24524016198E+03  0.00000000000E+00 0.  1.
          6    1    1    2  501    0 -0.11163047726E+03  0.73065507898E+02 -0.67295527615E+01  0.21857314286E+03  0.17300000000E+03 0.  1.
         -6    1    1    2    0  503  0.11163047726E+03 -0.73065507898E+02 -0.42594548442E+02  0.22258307989E+03  0.17300000000E+03 0.  1.
</event>
<event>
 4    1  0.3065897E+000  0.1000000E+03  0.7546771E-02  0.1280296E+00
         21   -1    0    0  501  502  0.00000000000E+00  0.00000000000E+00  0.30010834330E+04  0.30010834330E+04  0.00000000000E+00 0.  1.
         21   -1    0    0  502  503 -0.00000000000E+00 -0.00000000000E+00 -0.36628043869E+02  0.36628043869E+02  0.00000000000E+00 0.  1.
          6    1    1    2  501    0  0.43402808656E+01  0.48500443355E+02  0.27585717374E+04  0.27644200407E+04  0.17300000000E+03 0.  1.
         -6    1    1    2    0  503 -0.43402808656E+01 -0.48500443355E+02  0.20588365181E+03  0.27329143625E+03  0.17300000000E+03 0.  1.
</event>
<event>
 4    1  0.3065897E+000  0.1000000E+03  0.7546771E-02  0.1280296E+00
         21   -1    0    0  501  502  0.00000000000E+00  0.00000000000E+00  0.14008027793E+03  0.14008027793E+03  0.00000000000E+00 0. -1.
         21   -1    0    0  502  503 -0.00000000000E+00 -0.00000000000E+00 -0.28032590406E+03  0.28032590406E+03  0.00000000000E+00 0. -1.
          6    1    1    2  501    0 -0.98415570648E+00  0.41242917097E+02  0.22578440195E+02  0.17927836661E+03  0.17300000000E+03 0. -1.
         -6    1    1    2    0  503  0.98415570648E+00 -0.41242917097E+02 -0.16282406633E+03  0.24112781538E+03  0.17300000000E+03 0. -1.
</event>
<event>
 4    1  0.3065897E+000  0.1000000E+03  0.7546771E-02  0.1280296E+00
         21   -1    0    0  501  502  0.00000000000E+00  0.00000000000E+00  0.28686606986E+03  0.28686606986E+03  0.00000000000E+00 0. -1.
         21   -1    0    0  502  503 -0.00000000000E+00 -0.00000000000E+00 -0.17914302752E+03  0.17914302752E+03  0.00000000000E+00 0. -1.
          6    1    1    2  501    0  0.54201861085E+02  0.13247147990E+03  0.85947889813E+02  0.24042165979E+03  0.17300000000E+03 0. -1.
         -6    1    1    2    0  503 -0.54201861085E+02 -0.13247147990E+03  0.21775152532E+02  0.22558743759E+03  0.17300000000E+03 0. -1.
</event>
<event>
 4    1  0.3065897E+000  0.1000000E+03  0.7546771E-02  0.1280296E+00
         21   -1    0    0  501  502  0.00000000000E+00  0.00000000000E+00  0.88337945340E+03  0.88337945340E+03  0.00000000000E+00 0. -1.
         21   -1    0    0  502  503 -0.00000000000E+00 -0.00000000000E+00 -0.20306411797E+03  0.20306411797E+03  0.00000000000E+00 0.  1.
          6    1    1    2  501    0  0.19681498400E+03 -0.94382442066E+02  0.74940047991E+03  0.79948374755E+03  0.17300000000E+03 0. -1.
         -6    1    1    2    0  503 -0.19681498400E+03  0.94382442066E+02 -0.69085144480E+02  0.28695982382E+03  0.17300000000E+03 0.  1.
</event>
<event>
 4    1  0.3065897E+000  0.1000000E+03  0.7546771E-02  0.1280296E+00
         21   -1    0    0  501  502  0.00000000000E+00  0.00000000000E+00  0.13900661645E+03  0.13900661645E+03  0.00000000000E+00 0. -1.
         21   -1    0    0  502  503 -0.00000000000E+00 -0.00000000000E+00 -0.39066209752E+03  0.39066209752E+03  0.00000000000E+00 0.  1.
          6    1    1    2  501    0 -0.12691652795E+03  0.81911810329E+02 -0.17068955487E+03  0.28614904137E+03  0.17300000000E+03 0. -1.
         -6    1    1    2    0  503  0.12691652795E+03 -0.81911810329E+02 -0.80965926201E+02  0.24351967260E+03  0.17300000000E+03 0.  1.
</event>
<event>
 4    1  0.3065897E+000  0.1000000E+03  0.7546771E-02  0.1280296E+00
         21   -1    0    0  503  502  0.00000000000E+00  0.00000000000E+00  0.12561402468E+03  0.12561402468E+03  0.00000000000E+00 0. -1.
         21   -1    0    0  501  503 -0.00000000000E+00 -0.00000000000E+00 -0.39030493056E+03  0.39030493056E+03  0.00000000000E+00 0.  1.
          6    1    1    2  501    0  0.95964831330E+02  0.28609159652E+02 -0.24330353804E+03  0.31488624056E+03  0.17300000000E+03 0.  1.
         -6    1    1    2    0  502 -0.95964831330E+02 -0.28609159652E+02 -0.21387367837E+02  0.20103271468E+03  0.17300000000E+03 0. -1.
</event>
<event>
 4    1  0.3065897E+000  0.1000000E+03  0.7546771E-02  0.1280296E+00
         21   -1    0    0  503  502  0.00000000000E+00  0.00000000000E+00  0.59787206869E+02  0.59787206869E+02  0.00000000000E+00 0. -1.
         21   -1    0    0  501  503 -0.00000000000E+00 -0.00000000000E+00 -0.72932250420E+03  0.72932250420E+03  0.00000000000E+00 0.  1.
          6    1    1    2  501    0  0.92936986940E+02  0.47867844967E+02 -0.43379074921E+03  0.47857290795E+03  0.17300000000E+03 0.  1.
         -6    1    1    2    0  502 -0.92936986940E+02 -0.47867844967E+02 -0.23574454812E+03  0.31053680312E+03  0.17300000000E+03 0. -1.
</event>
<event>
 4    1  0.3065897E+000  0.1000000E+03  0.7546771E-02  0.1280296E+00
         21   -1    0    0  501  502  0.00000000000E+00  0.00000000000E+00  0.12549963087E+03  0.12549963087E+03  0.00000000000E+00 0.  1.
         21   -1    0    0  502  503 -0.00000000000E+00 -0.00000000000E+00 -0.36106716252E+03  0.36106716252E+03  0.00000000000E+00 0. -1.
          6    1    1    2  501    0  0.11735564764E+03 -0.37781167956E+02 -0.10223773885E+03  0.23575690855E+03  0.17300000000E+03 0.  1.
         -6    1    1    2    0  503 -0.11735564764E+03  0.37781167956E+02 -0.13332979280E+03  0.25080988484E+03  0.17300000000E+03 0. -1.
</event>
<event>
 4    1  0.3065897E+000  0.1000000E+03  0.7546771E-02  0.1280296E+00
         21   -1    0    0  501  502  0.00000000000E+00  0.00000000000E+00  0.11496037031E+04  0.11496037031E+04  0.00000000000E+00 0.  1.
         21   -1    0    0  502  503 -0.00000000000E+00 -0.00000000000E+00 -0.50296462690E+02  0.50296462690E+02  0.00000000000E+00 0. -1.
          6    1    1    2  501    0  0.41808447635E+02 -0.12610531291E+03  0.80214943201E+03  0.83127805668E+03  0.17300000000E+03 0.  1.
         -6    1    1    2    0  503 -0.41808447635E+02  0.12610531291E+03  0.29715780842E+03  0.36862210914E+03  0.17300000000E+03 0.  1.
</event>
<event>
 4    1  0.3065897E+000  0.1000000E+03  0.7546771E-02  0.1280296E+00
         21   -1    0    0  501  502  0.00000000000E+00  0.00000000000E+00  0.17705420241E+03  0.17705420241E+03  0.00000000000E+00 0.  1.
         21   -1    0    0  502  503 -0.00000000000E+00 -0.00000000000E+00 -0.98591340716E+03  0.98591340716E+03  0.00000000000E+00 0. -1.
          6    1    1    2  501    0 -0.97962974621E+02 -0.73123038474E+02  0.96773777009E+02  0.23289028977E+03  0.17300000000E+03 0. -1.
         -6    1    1    2    0  503  0.97962974621E+02  0.73123038474E+02 -0.90563298176E+03  0.93007731980E+03  0.17300000000E+03 0.  1.
</event>
<event>
 4    1  0.3065897E+000  0.1000000E+03  0.7546771E-02  0.1280296E+00
         21   -1    0    0  501  502  0.00000000000E+00  0.00000000000E+00  0.12464504255E+03  0.12464504255E+03  0.00000000000E+00 0. -1.
         21   -1    0    0  502  503 -0.00000000000E+00 -0.00000000000E+00 -0.58782392321E+03  0.58782392321E+03  0.00000000000E+00 0.  1.
          6    1    1    2  501    0  0.18757530265E+03 -0.37597116163E+02 -0.12352597792E+03  0.28598200036E+03  0.17300000000E+03 0.  1.
         -6    1    1    2    0  503 -0.18757530265E+03  0.37597116163E+02 -0.33965290275E+03  0.42648696540E+03  0.17300000000E+03 0. -1.
</event>
<event>
 4    1  0.3065897E+000  0.1000000E+03  0.7546771E-02  0.1280296E+00
         21   -1    0    0  501  502  0.00000000000E+00  0.00000000000E+00  0.85367616628E+03  0.85367616628E+03  0.00000000000E+00 0. -1.
         21   -1    0    0  502  503 -0.00000000000E+00 -0.00000000000E+00 -0.53563550460E+02  0.53563550460E+02  0.00000000000E+00 0.  1.
          6    1    1    2  501    0 -0.10948259406E+03  0.48813832073E+02  0.31990161622E+03  0.38292985345E+03  0.17300000000E+03 0.  1.
         -6    1    1    2    0  503  0.10948259406E+03 -0.48813832073E+02  0.48021099960E+03  0.52430986329E+03  0.17300000000E+03 0. -1.
</event>
<event>
 4    1  0.3065897E+000  0.1000000E+03  0.7546771E-02  0.1280296E+00
         21   -1    0    0  501  502  0.00000000000E+00  0.00000000000E+00  0.63602018537E+03  0.63602018537E+03  0.00000000000E+00 0. -1.
         21   -1    0    0  502  503 -0.00000000000E+00 -0.00000000000E+00 -0.80917711466E+02  0.80917711466E+02  0.00000000000E+00 0.  1.
          6    1    1    2  501    0 -0.17113370573E+02 -0.14528694419E+03  0.29591987695E+03  0.37269120888E+03  0.17300000000E+03 0.  1.
         -6    1    1    2    0  503  0.17113370573E+02  0.14528694419E+03  0.25918259696E+03  0.34424668796E+03  0.17300000000E+03 0. -1.
</event>
<event>
 4    1  0.3065897E+000  0.1000000E+03  0.7546771E-02  0.1280296E+00
         21   -1    0    0  503  502  0.00000000000E+00  0.00000000000E+00  0.15525807716E+03  0.15525807716E+03  0.00000000000E+00 0.  1.
         21   -1    0    0  501  503 -0.00000000000E+00 -0.00000000000E+00 -0.26304747817E+03  0.26304747817E+03  0.00000000000E+00 0.  1.
          6    1    1    2  501    0  0.52147571131E+02 -0.89530123375E+02 -0.67633971585E+02  0.21269312701E+03  0.17300000000E+03 0.  1.
         -6    1    1    2    0  502 -0.52147571131E+02  0.89530123375E+02 -0.40155429430E+02  0.20561242832E+03  0.17300000000E+03 0.  1.
</event>
<event>
 4    1  0.3065897E+000  0.1000000E+03  0.7546771E-02  0.1280296E+00
         21   -1    0    0  503  502  0.00000000000E+00  0.00000000000E+00  0.29144854970E+03  0.29144854970E+03  0.00000000000E+00 0.  1.
         21   -1    0    0  501  503 -0.00000000000E+00 -0.00000000000E+00 -0.38982507651E+03  0.38982507651E+03  0.00000000000E+00 0.  1.
          6    1    1    2  501    0  0.41280131750E+02  0.19689975448E+03 -0.25926350257E+03  0.37097186734E+03  0.17300000000E+03 0.  1.
         -6    1    1    2    0  502 -0.41280131750E+02 -0.19689975448E+03  0.16088697576E+03  0.31030175888E+03  0.17300000000E+03 0.  1.
</event>
<event>
 4    1  0.3065897E+000  0.1000000E+03  0.7546771E-02  0.1280296E+00
         21   -1    0    0  503  502  0.00000000000E+00  0.00000000000E+00  0.41314149911E+03  0.41314149911E+03  0.00000000000E+00 0.  1.
         21   -1    0    0  501  503 -0.00000000000E+00 -0.00000000000E+00 -0.22880308106E+03  0.22880308106E+03  0.00000000000E+00 0.  1.
          6    1    1    2  501    0  0.15937849883E+02  0.84434264973E+02  0.34188471846E+03  0.39267966701E+03  0.17300000000E+03 0.  1.
         -6    1    1    2    0  502 -0.15937849883E+02 -0.84434264973E+02 -0.15754630042E+03  0.24926491317E+03  0.17300000000E+03 0.  1.
</event>
<event>
 4    1  0.3065897E+000  0.1000000E+03  0.7546771E-02  0.1280296E+00
         21   -1    0    0  503  502  0.00000000000E+00  0.00000000000E+00  0.99818604762E+03  0.99818604762E+03  0.00000000000E+00 0.  1.
         21   -1    0    0  501  503 -0.00000000000E+00 -0.00000000000E+00 -0.22752771771E+03  0.22752771771E+03  0.00000000000E+00 0.  1.
          6    1    1    2  501    0 -0.89352412372E+02 -0.44195026226E+02 -0.17114607848E+03  0.26297725019E+03  0.17300000000E+03 0.  1.
         -6    1    1    2    0  502  0.89352412372E+02  0.44195026226E+02  0.94180440838E+03  0.96273651514E+03  0.17300000000E+03 0.  1.
</event>
<event>
 4    1  0.3065897E+000  0.1000000E+03  0.7546771E-02  0.1280296E+00
         21   -1    0    0  501  502  0.00000000000E+00  0.00000000000E+00  0.56839006562E+02  0.56839006562E+02  0.00000000000E+00 0.  1.
         21   -1    0    0  502  503 -0.00000000000E+00 -0.00000000000E+00 -0.65145218659E+03  0.65145218659E+03  0.00000000000E+00 0.  1.
          6    1    1    2  501    0  0.27343826315E+02 -0.71998064889E+01 -0.15123491880E+03  0.23151786694E+03  0.17300000000E+03 0.  1.
         -6    1    1    2    0  503 -0.27343826315E+02  0.71998064889E+01 -0.44337826123E+03  0.47677332621E+03  0.17300000000E+03 0.  1.
</event>
<event>
 4    1  0.3065897E+000  0.1000000E+03  0.7546771E-02  0.1280296E+00
         21   -1    0    0  501  502  0.00000000000E+00  0.00000000000E+00  0.65743960273E+03  0.65743960273E+03  0.00000000000E+00 0.  1.
         21   -1    0    0  502  503 -0.00000000000E+00 -0.00000000000E+00 -0.49988734795E+02  0.49988734795E+02  0.00000000000E+00 0.  1.
          6    1    1    2  501    0 -0.22993615586E+01  0.58306652513E+00  0.40933866504E+03  0.44440158610E+03  0.17300000000E+03 0.  1.
         -6    1    1    2    0  503  0.22993615586E+01 -0.58306652513E+00  0.19811220289E+03  0.26302675142E+03  0.17300000000E+03 0.  1.
</event>
<event>
 4    1  0.3065897E+000  0.1000000E+03  0.7546771E-02  0.1280296E+00
         21   -1    0    0  501  502  0.00000000000E+00  0.00000000000E+00  0.46464642333E+02  0.46464642333E+02  0.00000000000E+00 0.  1.
         21   -1    0    0  502  503 -0.00000000000E+00 -0.00000000000E+00 -0.13367342267E+04  0.13367342267E+04  0.00000000000E+00 0.  1.
          6    1    1    2  501    0 -0.97887788352E+02 -0.16168240321E+02 -0.23037439551E+03  0.30470443582E+03  0.17300000000E+03 0.  1.
         -6    1    1    2    0  503  0.97887788352E+02  0.16168240321E+02 -0.10598951889E+04  0.10784944333E+04  0.17300000000E+03 0.  1.
</event>
<event>
 4    1  0.3065897E+000  0.1000000E+03  0.7546771E-02  0.1280296E+00
         21   -1    0    0  501  502  0.00000000000E+00  0.00000000000E+00  0.25625894376E+03  0.25625894376E+03  0.00000000000E+00 0.  1.
         21   -1    0    0  502  503 -0.00000000000E+00 -0.00000000000E+00 -0.26586713247E+03  0.26586713247E+03  0.00000000000E+00 0.  1.
          6    1    1    2  501    0  0.13750199551E+03 -0.16074716707E+02  0.13319258648E+03  0.25852361668E+03  0.17300000000E+03 0.  1.
         -6    1    1    2    0  503 -0.13750199551E+03  0.16074716707E+02 -0.14280077520E+03  0.26360245955E+03  0.17300000000E+03 0.  1.
</event>
<event>
 4    1  0.3065897E+000  0.1000000E+03  0.7546771E-02  0.1280296E+00
         21   -1    0    0  503  502  0.00000000000E+00  0.00000000000E+00  0.10223652339E+03  0.10223652339E+03  0.00000000000E+00 0.  1.
         21   -1    0    0  501  503 -0.00000000000E+00 -0.00000000000E+00 -0.53109297401E+03  0.53109297401E+03  0.00000000000E+00 0.  1.
          6    1    1    2  501    0  0.12536742382E+03  0.49585901443E+02 -0.32136794394E+03  0.38907853702E+03  0.17300000000E+03 0.  1.
         -6    1    1    2    0  502 -0.12536742382E+03 -0.49585901443E+02 -0.10748850668E+03  0.24425096038E+03  0.17300000000E+03 0.  1.
</event>
<event>
 4    1  0.3065897E+000  0.1000000E+03  0.7546771E-02  0.1280296E+00
         21   -1    0    0  503  502  0.00000000000E+00  0.00000000000E+00  0.10057256619E+03  0.10057256619E+03  0.00000000000E+00 0.  1.
         21   -1    0    0  501  503 -0.00000000000E+00 -0.00000000000E+00 -0.40725388536E+03  0.40725388536E+03  0.00000000000E+00 0.  1.
          6    1    1    2  501    0 -0.24685079102E+02  0.85843301148E+02 -0.22264241096E+03  0.29576522554E+03  0.17300000000E+03 0.  1.
         -6    1    1    2    0  502  0.24685079102E+02 -0.85843301148E+02 -0.84038908209E+02  0.21206122601E+03  0.17300000000E+03 0.  1.
</event>
<event>
 4    1  0.3065897E+000  0.1000000E+03  0.7546771E-02  0.1280296E+00
         21   -1    0    0  503  502  0.00000000000E+00  0.00000000000E+00  0.12686322752E+03  0.12686322752E+03  0.00000000000E+00 0.  1.
         21   -1    0    0  501  503 -0.00000000000E+00 -0.00000000000E+00 -0.50137821492E+03  0.50137821492E+03  0.00000000000E+00 0.  1.
          6    1    1    2  501    0 -0.90900995050E+02  0.15328951742E+03 -0.24178723226E+03  0.34662765720E+03  0.17300000000E+03 0.  1.
         -6    1    1    2    0  502  0.90900995050E+02 -0.15328951742E+03 -0.13272775514E+03  0.28161378524E+03  0.17300000000E+03 0.  1.
</event>
<event>
 4    1  0.3065897E+000  0.1000000E+03  0.7546771E-02  0.1280296E+00
         21   -1    0    0  503  502  0.00000000000E+00  0.00000000000E+00  0.95989994581E+03  0.95989994581E+03  0.00000000000E+00 0.  1.
         21   -1    0    0  501  503 -0.00000000000E+00 -0.00000000000E+00 -0.74716230067E+02  0.74716230067E+02  0.00000000000E+00 0.  1.
          6    1    1    2  501    0 -0.14730519114E+03  0.14157490204E+03  0.45609035369E+03  0.52885695887E+03  0.17300000000E+03 0.  1.
         -6    1    1    2    0  502  0.14730519114E+03 -0.14157490204E+03  0.42909336206E+03  0.50575921701E+03  0.17300000000E+03 0.  1.
</event>
<event>
 4    1  0.3065897E+000  0.1000000E+03  0.7546771E-02  0.1280296E+00
         21   -1    0    0  503  502  0.00000000000E+00  0.00000000000E+00  0.53786886421E+03  0.53786886421E+03  0.00000000000E+00 0.  1.
         21   -1    0    0  501  503 -0.00000000000E+00 -0.00000000000E+00 -0.11651095409E+03  0.11651095409E+03  0.00000000000E+00 0.  1.
          6    1    1    2  501    0 -0.67773763514E+02 -0.96530416647E+02  0.31341375101E+02  0.21171368910E+03  0.17300000000E+03 0. -1.
         -6    1    1    2    0  502  0.67773763514E+02  0.96530416647E+02  0.39001653502E+03  0.44266612921E+03  0.17300000000E+03 0. -1.
</event>
<event>
 4    1  0.3065897E+000  0.1000000E+03  0.7546771E-02  0.1280296E+00
         21   -1    0    0  503  502  0.00000000000E+00  0.00000000000E+00  0.39256957832E+02  0.39256957832E+02  0.00000000000E+00 0.  1.
         21   -1    0    0  501  503 -0.00000000000E+00 -0.00000000000E+00 -0.11136393929E+04  0.11136393929E+04  0.00000000000E+00 0. -1.
          6    1    1    2  501    0  0.49806798203E+02  0.13719494553E+02 -0.24646443823E+03  0.30552031191E+03  0.17300000000E+03 0.  1.
         -6    1    1    2    0  502 -0.49806798203E+02 -0.13719494553E+02 -0.82791799682E+03  0.84737603880E+03  0.17300000000E+03 0.  1.
</event>
<event>
 4    1  0.3065897E+000  0.1000000E+03  0.7546771E-02  0.1280296E+00
         21   -1    0    0  503  502  0.00000000000E+00  0.00000000000E+00  0.98620242229E+03  0.98620242229E+03  0.00000000000E+00 0.  1.
         21   -1    0    0  501  503 -0.00000000000E+00 -0.00000000000E+00 -0.18177946484E+03  0.18177946484E+03  0.00000000000E+00 0. -1.
          6    1    1    2  501    0 -0.95450321876E+02  0.36677596503E+03  0.29801484336E+03  0.51222770262E+03  0.17300000000E+03 0.  1.
         -6    1    1    2    0  502  0.95450321876E+02 -0.36677596503E+03  0.50640811409E+03  0.65575418450E+03  0.17300000000E+03 0.  1.
</event>
<event>
 4    1  0.3065897E+000  0.1000000E+03  0.7546771E-02  0.1280296E+00
         21   -1    0    0  501  502  0.00000000000E+00  0.00000000000E+00  0.42054200781E+03  0.42054200781E+03  0.00000000000E+00 0.  1.
         21   -1    0    0  502  503 -0.00000000000E+00 -0.00000000000E+00 -0.11508989848E+03  0.11508989848E+03  0.00000000000E+00 0.  1.
          6    1    1    2  501    0  0.93049286421E+02 -0.42367980271E+02  0.26173045966E+03  0.32997734615E+03  0.17300000000E+03 0.  1.
         -6    1    1    2    0  503 -0.93049286421E+02  0.42367980271E+02  0.43721649667E+02  0.20565456014E+03  0.17300000000E+03 0.  1.
</event>
<event>
 4    1  0.3065897E+000  0.1000000E+03  0.7546771E-02  0.1280296E+00
         21   -1    0    0  501  502  0.00000000000E+00  0.00000000000E+00  0.22334918684E+03  0.22334918684E+03  0.00000000000E+00 0. -1.
         21   -1    0    0  502  503 -0.00000000000E+00 -0.00000000000E+00 -0.29317790925E+03  0.29317790925E+03  0.00000000000E+00 0. -1.
          6    1    1    2  501    0 -0.75586722028E+02  0.72131343635E+02  0.12349772892E+03  0.23684799414E+03  0.17300000000E+03 0. -1.
         -6    1    1    2    0  503  0.75586722028E+02 -0.72131343635E+02 -0.19332645132E+03  0.27967910194E+03  0.17300000000E+03 0. -1.
</event>
<event>
 4    1  0.3065897E+000  0.1000000E+03  0.7546771E-02  0.1280296E+00
         21   -1    0    0  503  502  0.00000000000E+00  0.00000000000E+00  0.44422712667E+03  0.44422712667E+03  0.00000000000E+00 0. -1.
         21   -1    0    0  501  503 -0.00000000000E+00 -0.00000000000E+00 -0.16117166295E+03  0.16117166295E+03  0.00000000000E+00 0. -1.
          6    1    1    2  501    0  0.58585029035E+02 -0.71331085581E+02  0.34749112154E+03  0.39899800620E+03  0.17300000000E+03 0. -1.
         -6    1    1    2    0  502 -0.58585029035E+02  0.71331085581E+02 -0.64435657828E+02  0.20640078342E+03  0.17300000000E+03 0. -1.
</event>
<event>
 4    1  0.3065897E+000  0.1000000E+03  0.7546771E-02  0.1280296E+00
         21   -1    0    0  503  502  0.00000000000E+00  0.00000000000E+00  0.76403843280E+03  0.76403843280E+03  0.00000000000E+00 0.  1.
         21   -1    0    0  501  503 -0.00000000000E+00 -0.00000000000E+00 -0.25218679503E+03  0.25218679503E+03  0.00000000000E+00 0.  1.
          6    1    1    2  501    0 -0.26358967801E+03 -0.27347737152E+03  0.41329360432E+03  0.58737551401E+03  0.17300000000E+03 0.  1.
         -6    1    1    2    0  502  0.26358967801E+03  0.27347737152E+03  0.98558033454E+02  0.42884971382E+03  0.17300000000E+03 0.  1.
</event>
<event>
 4    1  0.3065897E+000  0.1000000E+03  0.7546771E-02  0.1280296E+00
         21   -1    0    0  503  502  0.00000000000E+00  0.00000000000E+00  0.60266077224E+03  0.60266077224E+03  0.00000000000E+00 0.  1.
         21   -1    0    0  501  503 -0.00000000000E+00 -0.00000000000E+00 -0.10383664082E+03  0.10383664082E+03  0.00000000000E+00 0.  1.
          6    1    1    2  501    0  0.14687980934E+03  0.91236548265E+02  0.17534036770E+03  0.30095021295E+03  0.17300000000E+03 0.  1.
         -6    1    1    2    0  502 -0.14687980934E+03 -0.91236548265E+02  0.32348376372E+03  0.40554720011E+03  0.17300000000E+03 0.  1.
</event>
<event>
 4    1  0.3065897E+000  0.1000000E+03  0.7546771E-02  0.1280296E+00
         21   -1    0    0  503  502  0.00000000000E+00  0.00000000000E+00  0.63388933154E+02  0.63388933154E+02  0.00000000000E+00 0. -1.
         21   -1    0    0  501  503 -0.00000000000E+00 -0.00000000000E+00 -0.14880808992E+04  0.14880808992E+04  0.00000000000E+00 0.  1.
          6    1    1    2  501    0 -0.15649891470E+03  0.18877849899E+03 -0.87738567329E+03  0.92728844039E+03  0.17300000000E+03 0. -1.
         -6    1    1    2    0  502  0.15649891470E+03 -0.18877849899E+03 -0.54730629275E+03  0.62418139196E+03  0.17300000000E+03 0. -1.
</event>
<event>
 4    1  0.3065897E+000  0.1000000E+03  0.7546771E-02  0.1280296E+00
         21   -1    0    0  503  502  0.00000000000E+00  0.00000000000E+00  0.13856061642E+03  0.13856061642E+03  0.00000000000E+00 0. -1.
         21   -1    0    0  501  503 -0.00000000000E+00 -0.00000000000E+00 -0.50784824039E+03  0.50784824039E+03  0.00000000000E+00 0.  1.
          6    1    1    2  501    0  0.38788061298E+02 -0.80869085880E+02 -0.40393727119E+03  0.44848482895E+03  0.17300000000E+03 0. -1.
         -6    1    1    2    0  502 -0.38788061298E+02  0.80869085880E+02  0.34649647219E+02  0.19792402786E+03  0.17300000000E+03 0. -1.
</event>
<event>
 4    1  0.3065897E+000  0.1000000E+03  0.7546771E-02  0.1280296E+00
         21   -1    0    0  503  502  0.00000000000E+00  0.00000000000E+00  0.20132611762E+03  0.20132611762E+03  0.00000000000E+00 0. -1.
         21   -1    0    0  501  503 -0.00000000000E+00 -0.00000000000E+00 -0.54823431310E+03  0.54823431310E+03  0.00000000000E+00 0.  1.
          6    1    1    2  501    0 -0.87564971534E+02  0.25186923032E+03 -0.28247184937E+03  0.42523532204E+03  0.17300000000E+03 0. -1.
         -6    1    1    2    0  502  0.87564971534E+02 -0.25186923032E+03 -0.64436346109E+02  0.32432510868E+03  0.17300000000E+03 0. -1.
</event>
<event>
 4    1  0.3065897E+000  0.1000000E+03  0.7546771E-02  0.1280296E+00
         21   -1    0    0  503  502  0.00000000000E+00  0.00000000000E+00  0.52736479178E+03  0.52736479178E+03  0.00000000000E+00 0. -1.
         21   -1    0    0  501  503 -0.00000000000E+00 -0.00000000000E+00 -0.15874800045E+03  0.15874800045E+03  0.00000000000E+00 0.  1.
          6    1    1    2  501    0 -0.22493840622E+03 -0.11430466716E+02  0.24990768353E+03  0.37829987106E+03  0.17300000000E+03 0. -1.
         -6    1    1    2    0  502  0.22493840622E+03  0.11430466716E+02  0.11870910780E+03  0.30781292116E+03  0.17300000000E+03 0. -1.
</event>
<event>
 4    1  0.3065897E+000  0.1000000E+03  0.7546771E-02  0.1280296E+00
         21   -1    0    0  503  502  0.00000000000E+00  0.00000000000E+00  0.83546031386E+03  0.83546031386E+03  0.00000000000E+00 0. -1.
         21   -1    0    0  501  503 -0.00000000000E+00 -0.00000000000E+00 -0.12384112748E+03  0.12384112748E+03  0.00000000000E+00 0. -1.
          6    1    1    2  501    0 -0.91054596426E+02 -0.12231061947E+03  0.21424510345E+02  0.23160059760E+03  0.17300000000E+03 0. -1.
         -6    1    1    2    0  502  0.91054596426E+02  0.12231061947E+03  0.69019467603E+03  0.72770084375E+03  0.17300000000E+03 0. -1.
</event>
<event>
 4    1  0.3065897E+000  0.1000000E+03  0.7546771E-02  0.1280296E+00
         21   -1    0    0  503  502  0.00000000000E+00  0.00000000000E+00  0.11048409913E+03  0.11048409913E+03  0.00000000000E+00 0. -1.
         21   -1    0    0  501  503 -0.00000000000E+00 -0.00000000000E+00 -0.36960371385E+03  0.36960371385E+03  0.00000000000E+00 0. -1.
          6    1    1    2  501    0 -0.83498704293E+02  0.40170662695E+02 -0.72336306497E+02  0.20915844950E+03  0.17300000000E+03 0. -1.
         -6    1    1    2    0  502  0.83498704293E+02 -0.40170662695E+02 -0.18678330823E+03  0.27092936347E+03  0.17300000000E+03 0. -1.
</event>
<event>
 4    1  0.3065897E+000  0.1000000E+03  0.7546771E-02  0.1280296E+00
         21   -1    0    0  503  502  0.00000000000E+00  0.00000000000E+00  0.49677310062E+03  0.49677310062E+03  0.00000000000E+00 0. -1.
         21   -1    0    0  501  503 -0.00000000000E+00 -0.00000000000E+00 -0.67766485180E+02  0.67766485180E+02  0.00000000000E+00 0. -1.
          6    1    1    2  501    0  0.34155775513E+02  0.41513841875E+02  0.16976827445E+03  0.24827461223E+03  0.17300000000E+03 0. -1.
         -6    1    1    2    0  502 -0.34155775513E+02 -0.41513841875E+02  0.25923834099E+03  0.31626497357E+03  0.17300000000E+03 0. -1.
</event>
<event>
 4    1  0.3065897E+000  0.1000000E+03  0.7546771E-02  0.1280296E+00
         21   -1    0    0  503  502  0.00000000000E+00  0.00000000000E+00  0.11852111568E+03  0.11852111568E+03  0.00000000000E+00 0. -1.
         21   -1    0    0  501  503 -0.00000000000E+00 -0.00000000000E+00 -0.29278535165E+03  0.29278535165E+03  0.00000000000E+00 0.  1.
          6    1    1    2  501    0  0.62256403164E+02  0.28200888046E+02 -0.98232336222E+02  0.21035622572E+03  0.17300000000E+03 0.  1.
         -6    1    1    2    0  502 -0.62256403164E+02 -0.28200888046E+02 -0.76031899752E+02  0.20095024161E+03  0.17300000000E+03 0. -1.
</event>
<event>
 4    1  0.3065897E+000  0.1000000E+03  0.7546771E-02  0.1280296E+00
         21   -1    0    0  503  502  0.00000000000E+00  0.00000000000E+00  0.28382680682E+02  0.28382680682E+02  0.00000000000E+00 0. -1.
         21   -1    0    0  501  503 -0.00000000000E+00 -0.00000000000E+00 -0.15169088583E+04  0.15169088583E+04  0.00000000000E+00 0.  1.
          6    1    1    2  501    0  0.17514067563E+02  0.45569617544E+02 -0.11301931550E+04  0.11443989253E+04  0.17300000000E+03 0.  1.
         -6    1    1    2    0  502 -0.17514067563E+02 -0.45569617544E+02 -0.35833302255E+03  0.40089261362E+03  0.17300000000E+03 0. -1.
</event>
<event>
 4    1  0.3065897E+000  0.1000000E+03  0.7546771E-02  0.1280296E+00
         21   -1    0    0  503  502  0.00000000000E+00  0.00000000000E+00  0.14523631187E+03  0.14523631187E+03  0.00000000000E+00 0. -1.
         21   -1    0    0  501  503 -0.00000000000E+00 -0.00000000000E+00 -0.46186051850E+03  0.46186051850E+03  0.00000000000E+00 0.  1.
          6    1    1    2  501    0  0.13329500919E+03  0.11748835505E+03 -0.24585221615E+03  0.34920393073E+03  0.17300000000E+03 0.  1.
         -6    1    1    2    0  502 -0.13329500919E+03 -0.11748835505E+03 -0.70771990478E+02  0.25789289964E+03  0.17300000000E+03 0. -1.
</event>
<event>
 4    1  0.3065897E+000  0.1000000E+03  0.7546771E-02  0.1280296E+00
         21   -1    0    0  503  502  0.00000000000E+00  0.00000000000E+00  0.36108442923E+03  0.36108442923E+03  0.00000000000E+00 0. -1.
         21   -1    0    0  501  503 -0.00000000000E+00 -0.00000000000E+00 -0.14230549829E+03  0.14230549829E+03  0.00000000000E+00 0.  1.
          6    1    1    2  501    0 -0.30654816875E+02 -0.85242030267E+02 -0.18418244110E+02  0.19614829400E+03  0.17300000000E+03 0.  1.
         -6    1    1    2    0  502  0.30654816875E+02  0.85242030267E+02  0.23719717505E+03  0.30724163353E+03  0.17300000000E+03 0. -1.
</event>
<event>
 4    1  0.3065897E+000  0.1000000E+03  0.7546771E-02  0.1280296E+00
         21   -1    0    0  501  502  0.00000000000E+00  0.00000000000E+00  0.99571809707E+02  0.99571809707E+02  0.00000000000E+00 0. -1.
         21   -1    0    0  502  503 -0.00000000000E+00 -0.00000000000E+00 -0.33683292824E+03  0.33683292824E+03  0.00000000000E+00 0.  1.
          6    1    1    2  501    0 -0.13520575880E+02 -0.19752476263E+02 -0.18429245083E+03  0.25390091320E+03  0.17300000000E+03 0. -1.
         -6    1    1    2    0  503  0.13520575880E+02  0.19752476263E+02 -0.52968667711E+02  0.18250382475E+03  0.17300000000E+03 0.  1.
</event>
<event>
 4    1  0.3065897E+000  0.1000000E+03  0.7546771E-02  0.1280296E+00
         21   -1    0    0  501  502  0.00000000000E+00  0.00000000000E+00  0.87401932590E+03  0.87401932590E+03  0.00000000000E+00 0. -1.
         21   -1    0    0  502  503 -0.00000000000E+00 -0.00000000000E+00 -0.21679808127E+03  0.21679808127E+03  0.00000000000E+00 0.  1.
          6    1    1    2  501    0  0.28931972685E+03 -0.12550773546E+03  0.63577161862E+03  0.73047426173E+03  0.17300000000E+03 0. -1.
         -6    1    1    2    0  503 -0.28931972685E+03  0.12550773546E+03  0.21449626007E+02  0.36034314544E+03  0.17300000000E+03 0.  1.
</event>
<event>
 4    1  0.3065897E+000  0.1000000E+03  0.7546771E-02  0.1280296E+00
         21   -1    0    0  501  502  0.00000000000E+00  0.00000000000E+00  0.15125523037E+03  0.15125523037E+03  0.00000000000E+00 0. -1.
         21   -1    0    0  502  503 -0.00000000000E+00 -0.00000000000E+00 -0.47897732131E+03  0.47897732131E+03  0.00000000000E+00 0.  1.
          6    1    1    2  501    0 -0.47034142192E+02 -0.13644083665E+03 -0.33628319986E+03  0.40477611459E+03  0.17300000000E+03 0. -1.
         -6    1    1    2    0  503  0.47034142192E+02  0.13644083665E+03  0.85611089120E+01  0.22545643709E+03  0.17300000000E+03 0.  1.
</event>
<event>
 4    1  0.3065897E+000  0.1000000E+03  0.7546771E-02  0.1280296E+00
         21   -1    0    0  501  502  0.00000000000E+00  0.00000000000E+00  0.99550701283E+02  0.99550701283E+02  0.00000000000E+00 0.  1.
         21   -1    0    0  502  503 -0.00000000000E+00 -0.00000000000E+00 -0.54657534933E+03  0.54657534933E+03  0.00000000000E+00 0.  1.
          6    1    1    2  501    0  0.15186952897E+03  0.37565186596E+02 -0.22729566182E+03  0.32568054127E+03  0.17300000000E+03 0.  1.
         -6    1    1    2    0  503 -0.15186952897E+03 -0.37565186596E+02 -0.21972898622E+03  0.32044550935E+03  0.17300000000E+03 0.  1.
</event>
<event>
 4    1  0.3065897E+000  0.1000000E+03  0.7546771E-02  0.1280296E+00
         21   -1    0    0  501  502  0.00000000000E+00  0.00000000000E+00  0.10986948661E+04  0.10986948661E+04  0.00000000000E+00 0.  1.
         21   -1    0    0  502  503 -0.00000000000E+00 -0.00000000000E+00 -0.10991169314E+03  0.10991169314E+03  0.00000000000E+00 0.  1.
          6    1    1    2  501    0  0.10932387203E+03  0.21324660232E+03  0.81222352099E+03  0.86432740929E+03  0.17300000000E+03 0.  1.
         -6    1    1    2    0  503 -0.10932387203E+03 -0.21324660232E+03  0.17655965199E+03  0.34427914997E+03  0.17300000000E+03 0.  1.
</event>
<event>
 4    1  0.3065897E+000  0.1000000E+03  0.7546771E-02  0.1280296E+00
         21   -1    0    0  503  502  0.00000000000E+00  0.00000000000E+00  0.37896439455E+03  0.37896439455E+03  0.00000000000E+00 0. -1.
         21   -1    0    0  501  503 -0.00000000000E+00 -0.00000000000E+00 -0.12861629437E+03  0.12861629437E+03  0.00000000000E+00 0.  1.
          6    1    1    2  501    0  0.96695540250E+01  0.57354563909E+02 -0.17615386039E+02  0.18336397711E+03  0.17300000000E+03 0.  1.
         -6    1    1    2    0  502 -0.96695540250E+01 -0.57354563909E+02  0.26796348622E+03  0.32421671182E+03  0.17300000000E+03 0. -1.
</event>
<event>
 4    1  0.3065897E+000  0.1000000E+03  0.7546771E-02  0.1280296E+00
         21   -1    0    0  501  502  0.00000000000E+00  0.00000000000E+00  0.74754117888E+02  0.74754117888E+02  0.00000000000E+00 0. -1.
         21   -1    0    0  502  503 -0.00000000000E+00 -0.00000000000E+00 -0.10052917715E+04  0.10052917715E+04  0.00000000000E+00 0. -1.
          6    1    1    2  501    0 -0.96056440007E+02  0.94368102462E+02 -0.14104775551E+03  0.26068304081E+03  0.17300000000E+03 0. -1.
         -6    1    1    2    0  503  0.96056440007E+02 -0.94368102462E+02 -0.78948989807E+03  0.81936284855E+03  0.17300000000E+03 0. -1.
</event>
<event>
 4    1  0.3065897E+000  0.1000000E+03  0.7546771E-02  0.1280296E+00
         21   -1    0    0  503  502  0.00000000000E+00  0.00000000000E+00  0.15260179758E+03  0.15260179758E+03  0.00000000000E+00 0. -1.
         21   -1    0    0  501  503 -0.00000000000E+00 -0.00000000000E+00 -0.36954402416E+03  0.36954402416E+03  0.00000000000E+00 0. -1.
          6    1    1    2  501    0  0.13325178485E+03  0.86729794525E+02 -0.70610394945E+02  0.24534246126E+03  0.17300000000E+03 0. -1.
         -6    1    1    2    0  502 -0.13325178485E+03 -0.86729794525E+02 -0.14633183163E+03  0.27680336048E+03  0.17300000000E+03 0. -1.
</event>
<event>
 4    1  0.3065897E+000  0.1000000E+03  0.7546771E-02  0.1280296E+00
         21   -1    0    0  503  502  0.00000000000E+00  0.00000000000E+00  0.24415088726E+03  0.24415088726E+03  0.00000000000E+00 0. -1.
         21   -1    0    0  501  503 -0.00000000000E+00 -0.00000000000E+00 -0.17612181915E+03  0.17612181915E+03  0.00000000000E+00 0. -1.
          6    1    1    2  501    0 -0.49035223087E+02  0.53645520097E+02 -0.55420238176E+02  0.19565964768E+03  0.17300000000E+03 0. -1.
         -6    1    1    2    0  502  0.49035223087E+02 -0.53645520097E+02  0.12344930628E+03  0.22461305873E+03  0.17300000000E+03 0. -1.
</event>
<event>
 4    1  0.3065897E+000  0.1000000E+03  0.7546771E-02  0.1280296E+00
         21   -1    0    0  503  502  0.00000000000E+00  0.00000000000E+00  0.17601898716E+03  0.17601898716E+03  0.00000000000E+00 0.  1.
         21   -1    0    0  501  503 -0.00000000000E+00 -0.00000000000E+00 -0.27681032573E+03  0.27681032573E+03  0.00000000000E+00 0. -1.
          6    1    1    2  501    0 -0.13660176414E+03  0.80973743256E+00 -0.62277142431E+02  0.22905925022E+03  0.17300000000E+03 0. -1.
         -6    1    1    2    0  502  0.13660176414E+03 -0.80973743256E+00 -0.38514196140E+02  0.22377006267E+03  0.17300000000E+03 0. -1.
</event>
<event>
 4    1  0.3065897E+000  0.1000000E+03  0.7546771E-02  0.1280296E+00
         21   -1    0    0  503  502  0.00000000000E+00  0.00000000000E+00  0.14227049327E+03  0.14227049327E+03  0.00000000000E+00 0.  1.
         21   -1    0    0  501  503 -0.00000000000E+00 -0.00000000000E+00 -0.54889546667E+03  0.54889546667E+03  0.00000000000E+00 0. -1.
          6    1    1    2  501    0  0.10942690585E+03 -0.11680798446E+03 -0.38899382149E+03  0.45482254354E+03  0.17300000000E+03 0. -1.
         -6    1    1    2    0  502 -0.10942690585E+03  0.11680798446E+03 -0.17631151911E+02  0.23634341640E+03  0.17300000000E+03 0. -1.
</event>
<event>
 4    1  0.3065897E+000  0.1000000E+03  0.7546771E-02  0.1280296E+00
         21   -1    0    0  501  502  0.00000000000E+00  0.00000000000E+00  0.40801987421E+02  0.40801987421E+02  0.00000000000E+00 0. -1.
         21   -1    0    0  502  503 -0.00000000000E+00 -0.00000000000E+00 -0.23106301117E+04  0.23106301117E+04  0.00000000000E+00 0. -1.
          6    1    1    2  501    0  0.10293226107E+03  0.15531788314E+03 -0.17940376246E+04  0.18119654229E+04  0.17300000000E+03 0. -1.
         -6    1    1    2    0  503 -0.10293226107E+03 -0.15531788314E+03 -0.47579049961E+03  0.53946667619E+03  0.17300000000E+03 0. -1.
</event>
<event>
 4    1  0.3065897E+000  0.1000000E+03  0.7546771E-02  0.1280296E+00
         21   -1    0    0  501  502  0.00000000000E+00  0.00000000000E+00  0.87365382354E+03  0.87365382354E+03  0.00000000000E+00 0.  1.
         21   -1    0    0  502  503 -0.00000000000E+00 -0.00000000000E+00 -0.12922372032E+03  0.12922372032E+03  0.00000000000E+00 0.  1.
          6    1    1    2  501    0 -0.15421815619E+03 -0.86204202027E+02  0.71172031759E+03  0.75345153435E+03  0.17300000000E+03 0.  1.
         -6    1    1    2    0  503  0.15421815619E+03  0.86204202027E+02  0.32709785632E+02  0.24942600951E+03  0.17300000000E+03 0.  1.
</event>
<event>
 4    1  0.3065897E+000  0.1000000E+03  0.7546771E-02  0.1280296E+00
         21   -1    0    0  501  502  0.00000000000E+00  0.00000000000E+00  0.22888153605E+03  0.22888153605E+03  0.00000000000E+00 0.  1.
         21   -1    0    0  502  503 -0.00000000000E+00 -0.00000000000E+00 -0.20327707970E+03  0.20327707970E+03  0.00000000000E+00 0.  1.
          6    1    1    2  501    0 -0.12034896013E+03 -0.36395398088E+02  0.40938538851E+02  0.21774632297E+03  0.17300000000E+03 0.  1.
         -6    1    1    2    0  503  0.12034896013E+03  0.36395398088E+02 -0.15334082505E+02  0.21441229277E+03  0.17300000000E+03 0.  1.
</event>
<event>
 4    1  0.3065897E+000  0.1000000E+03  0.7546771E-02  0.1280296E+00
         21   -1    0    0  501  502  0.00000000000E+00  0.00000000000E+00  0.25368573794E+03  0.25368573794E+03  0.00000000000E+00 0.  1.
         21   -1    0    0  502  503 -0.00000000000E+00 -0.00000000000E+00 -0.25208542543E+03  0.25208542543E+03  0.00000000000E+00 0.  1.
          6    1    1    2  501    0  0.31629660101E+02 -0.10394733054E+02  0.18222044403E+03  0.25345961433E+03  0.17300000000E+03 0.  1.
         -6    1    1    2    0  503 -0.31629660101E+02  0.10394733054E+02 -0.18062013152E+03  0.25231154905E+03  0.17300000000E+03 0.  1.
</event>
<event>
 4    1  0.3065897E+000  0.1000000E+03  0.7546771E-02  0.1280296E+00
         21   -1    0    0  503  502  0.00000000000E+00  0.00000000000E+00  0.66483003991E+03  0.66483003991E+03  0.00000000000E+00 0. -1.
         21   -1    0    0  501  503 -0.00000000000E+00 -0.00000000000E+00 -0.26601849209E+03  0.26601849209E+03  0.00000000000E+00 0. -1.
          6    1    1    2  501    0 -0.38250856895E+03  0.24489954495E+02  0.19504558894E+03  0.46355619396E+03  0.17300000000E+03 0. -1.
         -6    1    1    2    0  502  0.38250856895E+03 -0.24489954495E+02  0.20376595888E+03  0.46729233804E+03  0.17300000000E+03 0. -1.
</event>
<event>
 4    1  0.3065897E+000  0.1000000E+03  0.7546771E-02  0.1280296E+00
         21   -1    0    0  503  502  0.00000000000E+00  0.00000000000E+00  0.52508528127E+03  0.52508528127E+03  0.00000000000E+00 0. -1.
         21   -1    0    0  501  503 -0.00000000000E+00 -0.00000000000E+00 -0.18255435269E+03  0.18255435269E+03  0.00000000000E+00 0. -1.
          6    1    1    2  501    0  0.17219693234E+02  0.23112515549E+03  0.44975468777E+02  0.29268950805E+03  0.17300000000E+03 0. -1.
         -6    1    1    2    0  502 -0.17219693234E+02 -0.23112515549E+03  0.29755545980E+03  0.41495012591E+03  0.17300000000E+03 0. -1.
</event>
<event>
 4    1  0.3065897E+000  0.1000000E+03  0.7546771E-02  0.1280296E+00
         21   -1    0    0  501  502  0.00000000000E+00  0.00000000000E+00  0.57986767034E+02  0.57986767034E+02  0.00000000000E+00 0. -1.
         21   -1    0    0  502  503 -0.00000000000E+00 -0.00000000000E+00 -0.90152082742E+03  0.90152082742E+03  0.00000000000E+00 0.  1.
          6    1    1    2  501    0  0.86276960565E+02  0.11597303899E+03 -0.34176128290E+03  0.40941816544E+03  0.17300000000E+03 0.  1.
         -6    1    1    2    0  503 -0.86276960565E+02 -0.11597303899E+03 -0.50177277749E+03  0.55008942902E+03  0.17300000000E+03 0. -1.
</event>
<event>
 4    1  0.3065897E+000  0.1000000E+03  0.7546771E-02  0.1280296E+00
         21   -1    0    0  501  502  0.00000000000E+00  0.00000000000E+00  0.11769684726E+03  0.11769684726E+03  0.00000000000E+00 0. -1.
         21   -1    0    0  502  503 -0.00000000000E+00 -0.00000000000E+00 -0.39807162246E+03  0.39807162246E+03  0.00000000000E+00 0. -1.
          6    1    1    2  501    0  0.66131739219E+02 -0.96095126545E+02 -0.71589658818E+02  0.22059410583E+03  0.17300000000E+03 0. -1.
         -6    1    1    2    0  503 -0.66131739219E+02  0.96095126545E+02 -0.20878511638E+03  0.29517436390E+03  0.17300000000E+03 0. -1.
</event>
<event>
 4    1  0.3065897E+000  0.1000000E+03  0.7546771E-02  0.1280296E+00
         21   -1    0    0  501  502  0.00000000000E+00  0.00000000000E+00  0.90844105870E+03  0.90844105870E+03  0.00000000000E+00 0. -1.
         21   -1    0    0  502  503 -0.00000000000E+00 -0.00000000000E+00 -0.72851976665E+03  0.72851976665E+03  0.00000000000E+00 0. -1.
          6    1    1    2  501    0 -0.57602157721E+03 -0.46830295088E+03  0.37591091816E+03  0.84990971851E+03  0.17300000000E+03 0. -1.
         -6    1    1    2    0  503  0.57602157721E+03  0.46830295088E+03 -0.19598962612E+03  0.78705110683E+03  0.17300000000E+03 0. -1.
</event>
<event>
 4    1  0.3065897E+000  0.1000000E+03  0.7546771E-02  0.1280296E+00
         21   -1    0    0  501  502  0.00000000000E+00  0.00000000000E+00  0.11121125893E+04  0.11121125893E+04  0.00000000000E+00 0. -1.
         21   -1    0    0  502  503 -0.00000000000E+00 -0.00000000000E+00 -0.14553694106E+03  0.14553694106E+03  0.00000000000E+00 0. -1.
          6    1    1    2  501    0 -0.17056088287E+03 -0.18656870259E+03  0.89095404598E+03  0.94213959030E+03  0.17300000000E+03 0. -1.
         -6    1    1    2    0  503  0.17056088287E+03  0.18656870259E+03  0.75621602249E+02  0.31550994006E+03  0.17300000000E+03 0. -1.
</event>
<event>
 4    1  0.3065897E+000  0.1000000E+03  0.7546771E-02  0.1280296E+00
         21   -1    0    0  503  502  0.00000000000E+00  0.00000000000E+00  0.17529332992E+02  0.17529332992E+02  0.00000000000E+00 0. -1.
         21   -1    0    0  501  503 -0.00000000000E+00 -0.00000000000E+00 -0.21571254113E+04  0.21571254113E+04  0.00000000000E+00 0. -1.
          6    1    1    2  501    0 -0.82498560390E+02  0.53683020867E+01 -0.12509138404E+04  0.12655233175E+04  0.17300000000E+03 0. -1.
         -6    1    1    2    0  502  0.82498560390E+02 -0.53683020867E+01 -0.88868223790E+03  0.90913142674E+03  0.17300000000E+03 0. -1.
</event>
<event>
 4    1  0.3065897E+000  0.1000000E+03  0.7546771E-02  0.1280296E+00
         21   -1    0    0  503  502  0.00000000000E+00  0.00000000000E+00  0.11908318776E+04  0.11908318776E+04  0.00000000000E+00 0. -1.
         21   -1    0    0  501  503 -0.00000000000E+00 -0.00000000000E+00 -0.88570296670E+02  0.88570296670E+02  0.00000000000E+00 0. -1.
          6    1    1    2  501    0  0.28199483635E+02  0.15573628363E+03  0.10851273308E+03  0.25836604683E+03  0.17300000000E+03 0. -1.
         -6    1    1    2    0  502 -0.28199483635E+02 -0.15573628363E+03  0.99374884782E+03  0.10210361274E+04  0.17300000000E+03 0. -1.
</event>
<event>
 4    1  0.3065897E+000  0.1000000E+03  0.7546771E-02  0.1280296E+00
         21   -1    0    0  503  502  0.00000000000E+00  0.00000000000E+00  0.94952344588E+02  0.94952344588E+02  0.00000000000E+00 0. -1.
         21   -1    0    0  501  503 -0.00000000000E+00 -0.00000000000E+00 -0.20595611198E+04  0.20595611198E+04  0.00000000000E+00 0. -1.
          6    1    1    2  501    0 -0.53443226592E+02  0.17074831974E+03 -0.18727650642E+04  0.18892297777E+04  0.17300000000E+03 0. -1.
         -6    1    1    2    0  502  0.53443226592E+02 -0.17074831974E+03 -0.91843710953E+02  0.26528368665E+03  0.17300000000E+03 0. -1.
</event>
<event>
 4    1  0.3065897E+000  0.1000000E+03  0.7546771E-02  0.1280296E+00
         21   -1    0    0  503  502  0.00000000000E+00  0.00000000000E+00  0.22497669674E+03  0.22497669674E+03  0.00000000000E+00 0. -1.
         21   -1    0    0  501  503 -0.00000000000E+00 -0.00000000000E+00 -0.16719687991E+03  0.16719687991E+03  0.00000000000E+00 0. -1.
          6    1    1    2  501    0 -0.29510276866E+02 -0.78083876924E+02  0.17901883323E+01  0.19209412550E+03  0.17300000000E+03 0. -1.
         -6    1    1    2    0  502  0.29510276866E+02  0.78083876924E+02  0.55989628499E+02  0.20007945116E+03  0.17300000000E+03 0. -1.
</event>
<event>
 4    1  0.3065897E+000  0.1000000E+03  0.7546771E-02  0.1280296E+00
         21   -1    0    0  503  502  0.00000000000E+00  0.00000000000E+00  0.92233012667E+02  0.92233012667E+02  0.00000000000E+00 0. -1.
         21   -1    0    0  501  503 -0.00000000000E+00 -0.00000000000E+00 -0.95542700888E+03  0.95542700888E+03  0.00000000000E+00 0. -1.
          6    1    1    2  501    0 -0.17004827406E+03 -0.11357600101E+03 -0.65741857500E+03  0.70989020719E+03  0.17300000000E+03 0. -1.
         -6    1    1    2    0  502  0.17004827406E+03  0.11357600101E+03 -0.20577542122E+03  0.33776981436E+03  0.17300000000E+03 0. -1.
</event>
<event>
 4    1  0.3065897E+000  0.1000000E+03  0.7546771E-02  0.1280296E+00
         21   -1    0    0  503  502  0.00000000000E+00  0.00000000000E+00  0.19580177949E+04  0.19580177949E+04  0.00000000000E+00 0. -1.
         21   -1    0    0  501  503 -0.00000000000E+00 -0.00000000000E+00 -0.45322093138E+02  0.45322093138E+02  0.00000000000E+00 0. -1.
          6    1    1    2  501    0  0.10232987952E+03 -0.14363522427E+03  0.39661670277E+03  0.46726469031E+03  0.17300000000E+03 0. -1.
         -6    1    1    2    0  502 -0.10232987952E+03  0.14363522427E+03  0.15160789990E+04  0.15360751977E+04  0.17300000000E+03 0. -1.
</event>
<event>
 4    1  0.3065897E+000  0.1000000E+03  0.7546771E-02  0.1280296E+00
         21   -1    0    0  503  502  0.00000000000E+00  0.00000000000E+00  0.30688000581E+02  0.30688000581E+02  0.00000000000E+00 0. -1.
         21   -1    0    0  501  503 -0.00000000000E+00 -0.00000000000E+00 -0.21828295123E+04  0.21828295123E+04  0.00000000000E+00 0. -1.
          6    1    1    2  501    0  0.33770065415E+02 -0.16859478463E+03 -0.14462296684E+04  0.14666539716E+04  0.17300000000E+03 0. -1.
         -6    1    1    2    0  502 -0.33770065415E+02  0.16859478463E+03 -0.70591184335E+03  0.74686354129E+03  0.17300000000E+03 0. -1.
</event>
<event>
 4    1  0.3065897E+000  0.1000000E+03  0.7546771E-02  0.1280296E+00
         21   -1    0    0  503  502  0.00000000000E+00  0.00000000000E+00  0.34141867223E+03  0.34141867223E+03  0.00000000000E+00 0. -1.
         21   -1    0    0  501  503 -0.00000000000E+00 -0.00000000000E+00 -0.15969384607E+03  0.15969384607E+03  0.00000000000E+00 0. -1.
          6    1    1    2  501    0 -0.15610769726E+02 -0.11141117485E+03 -0.26376249722E+02  0.20804050702E+03  0.17300000000E+03 0. -1.
         -6    1    1    2    0  502  0.15610769726E+02  0.11141117485E+03  0.20810107589E+03  0.29307201128E+03  0.17300000000E+03 0. -1.
</event>
<event>
 4    1  0.3065897E+000  0.1000000E+03  0.7546771E-02  0.1280296E+00
         21   -1    0    0  501  502  0.00000000000E+00  0.00000000000E+00  0.32359716936E+03  0.32359716936E+03  0.00000000000E+00 0. -1.
         21   -1    0    0  502  503 -0.00000000000E+00 -0.00000000000E+00 -0.17801751304E+03  0.17801751304E+03  0.00000000000E+00 0. -1.
          6    1    1    2  501    0  0.63692141362E+02 -0.40867703484E+02  0.22760903069E+03  0.29573929213E+03  0.17300000000E+03 0. -1.
         -6    1    1    2    0  503 -0.63692141362E+02  0.40867703484E+02 -0.82029374362E+02  0.20587539027E+03  0.17300000000E+03 0. -1.
</event>
<event>
 4    1  0.3065897E+000  0.1000000E+03  0.7546771E-02  0.1280296E+00
         21   -1    0    0  501  502  0.00000000000E+00  0.00000000000E+00  0.49280308764E+03  0.49280308764E+03  0.00000000000E+00 0.  1.
         21   -1    0    0  502  503 -0.00000000000E+00 -0.00000000000E+00 -0.25151008955E+03  0.25151008955E+03  0.00000000000E+00 0. -1.
          6    1    1    2  501    0  0.36891225588E+02  0.99850690382E+02  0.42461193594E+03  0.47069673787E+03  0.17300000000E+03 0. -1.
         -6    1    1    2    0  503 -0.36891225588E+02 -0.99850690382E+02 -0.18331893785E+03  0.27361643932E+03  0.17300000000E+03 0.  1.
</event>
<event>
 4    1  0.3065897E+000  0.1000000E+03  0.7546771E-02  0.1280296E+00
         21   -1    0    0  501  502  0.00000000000E+00  0.00000000000E+00  0.32444249938E+03  0.32444249938E+03  0.00000000000E+00 0. -1.
         21   -1    0    0  502  503 -0.00000000000E+00 -0.00000000000E+00 -0.13118544196E+03  0.13118544196E+03  0.00000000000E+00 0. -1.
          6    1    1    2  501    0 -0.28350721008E+02  0.86280346436E+02  0.16975203087E+03  0.25882969989E+03  0.17300000000E+03 0. -1.
         -6    1    1    2    0  503  0.28350721008E+02 -0.86280346436E+02  0.23505026552E+02  0.19679824145E+03  0.17300000000E+03 0. -1.
</event>
<event>
 4    1  0.3065897E+000  0.1000000E+03  0.7546771E-02  0.1280296E+00
         21   -1    0    0  501  502  0.00000000000E+00  0.00000000000E+00  0.58393895557E+03  0.58393895557E+03  0.00000000000E+00 0. -1.
         21   -1    0    0  502  503 -0.00000000000E+00 -0.00000000000E+00 -0.61290108049E+02  0.61290108049E+02  0.00000000000E+00 0. -1.
          6    1    1    2  501    0  0.57903333847E+02  0.24274137196E+02  0.18662743424E+03  0.26210842989E+03  0.17300000000E+03 0. -1.
         -6    1    1    2    0  503 -0.57903333847E+02 -0.24274137196E+02  0.33602141328E+03  0.38312063373E+03  0.17300000000E+03 0. -1.
</event>
<event>
 4    1  0.3065897E+000  0.1000000E+03  0.7546771E-02  0.1280296E+00
         21   -1    0    0  501  502  0.00000000000E+00  0.00000000000E+00  0.83982009625E+03  0.83982009625E+03  0.00000000000E+00 0. -1.
         21   -1    0    0  502  503 -0.00000000000E+00 -0.00000000000E+00 -0.80011688546E+02  0.80011688546E+02  0.00000000000E+00 0. -1.
          6    1    1    2  501    0  0.11488879604E+03  0.98054682332E+02  0.59319718668E+03  0.63610223900E+03  0.17300000000E+03 0. -1.
         -6    1    1    2    0  503 -0.11488879604E+03 -0.98054682332E+02  0.16661122102E+03  0.28372954579E+03  0.17300000000E+03 0. -1.
</event>
<event>
 4    1  0.3065897E+000  0.1000000E+03  0.7546771E-02  0.1280296E+00
         21   -1    0    0  503  502  0.00000000000E+00  0.00000000000E+00  0.23385415258E+03  0.23385415258E+03  0.00000000000E+00 0.  1.
         21   -1    0    0  501  503 -0.00000000000E+00 -0.00000000000E+00 -0.72090761957E+03  0.72090761957E+03  0.00000000000E+00 0.  1.
          6    1    1    2  501    0  0.14185668010E+02 -0.16607053973E+03 -0.63067253217E+03  0.67487591465E+03  0.17300000000E+03 0.  1.
         -6    1    1    2    0  502 -0.14185668010E+02  0.16607053973E+03  0.14361906518E+03  0.27988585750E+03  0.17300000000E+03 0.  1.
</event>
<event>
 4    1  0.3065897E+000  0.1000000E+03  0.7546771E-02  0.1280296E+00
         21   -1    0    0  501  502  0.00000000000E+00  0.00000000000E+00  0.81103488981E+02  0.81103488981E+02  0.00000000000E+00 0. -1.
         21   -1    0    0  502  503 -0.00000000000E+00 -0.00000000000E+00 -0.69883469776E+03  0.69883469776E+03  0.00000000000E+00 0.  1.
          6    1    1    2  501    0  0.45158396230E+02  0.10255110005E+03 -0.11371984488E+03  0.23540860645E+03  0.17300000000E+03 0. -1.
         -6    1    1    2    0  503 -0.45158396230E+02 -0.10255110005E+03 -0.50401136390E+03  0.54452958029E+03  0.17300000000E+03 0.  1.
</event>
<event>
 4    1  0.3065897E+000  0.1000000E+03  0.7546771E-02  0.1280296E+00
         21   -1    0    0  501  502  0.00000000000E+00  0.00000000000E+00  0.12327293715E+03  0.12327293715E+03  0.00000000000E+00 0. -1.
         21   -1    0    0  502  503 -0.00000000000E+00 -0.00000000000E+00 -0.35205338314E+03  0.35205338314E+03  0.00000000000E+00 0.  1.
          6    1    1    2  501    0  0.13435806288E+02 -0.11419052201E+03 -0.96364329651E+02  0.22898707439E+03  0.17300000000E+03 0. -1.
         -6    1    1    2    0  503 -0.13435806288E+02  0.11419052201E+03 -0.13241611634E+03  0.24633924591E+03  0.17300000000E+03 0.  1.
</event>
<event>
 4    1  0.3065897E+000  0.1000000E+03  0.7546771E-02  0.1280296E+00
         21   -1    0    0  501  502  0.00000000000E+00  0.00000000000E+00  0.37256524785E+03  0.37256524785E+03  0.00000000000E+00 0.  1.
         21   -1    0    0  502  503 -0.00000000000E+00 -0.00000000000E+00 -0.14014934343E+03  0.14014934343E+03  0.00000000000E+00 0. -1.
          6    1    1    2  501    0  0.42077231210E+02  0.19730695899E+02  0.27536559818E+03  0.32850419542E+03  0.17300000000E+03 0.  1.
         -6    1    1    2    0  503 -0.42077231210E+02 -0.19730695899E+02 -0.42949693758E+02  0.18421039585E+03  0.17300000000E+03 0. -1.
</event>
<event>
 4    1  0.3065897E+000  0.1000000E+03  0.7546771E-02  0.1280296E+00
         21   -1    0    0  501  502  0.00000000000E+00  0.00000000000E+00  0.12213087225E+03  0.12213087225E+03  0.00000000000E+00 0.  1.
         21   -1    0    0  502  503 -0.00000000000E+00 -0.00000000000E+00 -0.10287414643E+04  0.10287414643E+04  0.00000000000E+00 0.  1.
          6    1    1    2  501    0 -0.23180750041E+02  0.12724297449E+03  0.29425055904E+01  0.21602263786E+03  0.17300000000E+03 0.  1.
         -6    1    1    2    0  503  0.23180750041E+02 -0.12724297449E+03 -0.90955309761E+03  0.93484969866E+03  0.17300000000E+03 0.  1.
</event>
<event>
 4    1  0.3065897E+000  0.1000000E+03  0.7546771E-02  0.1280296E+00
         21   -1    0    0  501  502  0.00000000000E+00  0.00000000000E+00  0.73863527776E+03  0.73863527776E+03  0.00000000000E+00 0. -1.
         21   -1    0    0  502  503 -0.00000000000E+00 -0.00000000000E+00 -0.10808152448E+03  0.10808152448E+03  0.00000000000E+00 0.  1.
          6    1    1    2  501    0  0.14047360553E+03 -0.19866425764E+02  0.57383186812E+03  0.61590544858E+03  0.17300000000E+03 0. -1.
         -6    1    1    2    0  503 -0.14047360553E+03  0.19866425764E+02  0.56721885153E+02  0.23081135366E+03  0.17300000000E+03 0.  1.
</event>
<event>
 4    1  0.3065897E+000  0.1000000E+03  0.7546771E-02  0.1280296E+00
         21   -1    0    0  501  502  0.00000000000E+00  0.00000000000E+00  0.12130419515E+03  0.12130419515E+03  0.00000000000E+00 0. -1.
         21   -1    0    0  502  503 -0.00000000000E+00 -0.00000000000E+00 -0.78212556989E+03  0.78212556989E+03  0.00000000000E+00 0. -1.
          6    1    1    2  501    0 -0.27576318573E+02 -0.67532531110E+02  0.27687814009E+02  0.18978069224E+03  0.17300000000E+03 0. -1.
         -6    1    1    2    0  503  0.27576318573E+02  0.67532531110E+02 -0.68850918875E+03  0.71364907279E+03  0.17300000000E+03 0. -1.
</event>
<event>
 4    1  0.3065897E+000  0.1000000E+03  0.7546771E-02  0.1280296E+00
         21   -1    0    0  501  502  0.00000000000E+00  0.00000000000E+00  0.59967495830E+02  0.59967495830E+02  0.00000000000E+00 0. -1.
         21   -1    0    0  502  503 -0.00000000000E+00 -0.00000000000E+00 -0.12143809356E+04  0.12143809356E+04  0.00000000000E+00 0. -1.
          6    1    1    2  501    0 -0.92877989200E+01  0.17990061765E+03 -0.33590863555E+03  0.41858584171E+03  0.17300000000E+03 0. -1.
         -6    1    1    2    0  503  0.92877989200E+01 -0.17990061765E+03 -0.81850480427E+03  0.85576258977E+03  0.17300000000E+03 0. -1.
</event>
<event>
 4    1  0.3065897E+000  0.1000000E+03  0.7546771E-02  0.1280296E+00
         21   -1    0    0  501  502  0.00000000000E+00  0.00000000000E+00  0.54834806851E+02  0.54834806851E+02  0.00000000000E+00 0. -1.
         21   -1    0    0  502  503 -0.00000000000E+00 -0.00000000000E+00 -0.14616449497E+04  0.14616449497E+04  0.00000000000E+00 0. -1.
          6    1    1    2  501    0  0.39777170748E+02  0.33187050725E+02 -0.11946170432E+03  0.21652644746E+03  0.17300000000E+03 0. -1.
         -6    1    1    2    0  503 -0.39777170748E+02 -0.33187050725E+02 -0.12873484386E+04  0.12999533091E+04  0.17300000000E+03 0. -1.
</event>
<event>
 4    1  0.3065897E+000  0.1000000E+03  0.7546771E-02  0.1280296E+00
         21   -1    0    0  501  502  0.00000000000E+00  0.00000000000E+00  0.71361286269E+03  0.71361286269E+03  0.00000000000E+00 0.  1.
         21   -1    0    0  502  503 -0.00000000000E+00 -0.00000000000E+00 -0.65701593062E+02  0.65701593062E+02  0.00000000000E+00 0. -1.
          6    1    1    2  501    0  0.98656333269E+02 -0.64493475058E+02  0.42356710619E+03  0.47247282870E+03  0.17300000000E+03 0.  1.
         -6    1    1    2    0  503 -0.98656333269E+02  0.64493475058E+02  0.22434416344E+03  0.30684162705E+03  0.17300000000E+03 0. -1.
</event>
<event>
 4    1  0.3065897E+000  0.1000000E+03  0.7546771E-02  0.1280296E+00
         21   -1    0    0  501  502  0.00000000000E+00  0.00000000000E+00  0.25788876663E+03  0.25788876663E+03  0.00000000000E+00 0.  1.
         21   -1    0    0  502  503 -0.00000000000E+00 -0.00000000000E+00 -0.39846323149E+03  0.39846323149E+03  0.00000000000E+00 0. -1.
          6    1    1    2  501    0  0.11094976756E+03 -0.14621047415E+03  0.13225828228E+03  0.28479572838E+03  0.17300000000E+03 0.  1.
         -6    1    1    2    0  503 -0.11094976756E+03  0.14621047415E+03 -0.27283274714E+03  0.37155626974E+03  0.17300000000E+03 0. -1.
</event>
<event>
 4    1  0.3065897E+000  0.1000000E+03  0.7546771E-02  0.1280296E+00
         21   -1    0    0  501  502  0.00000000000E+00  0.00000000000E+00  0.29725013686E+02  0.29725013686E+02  0.00000000000E+00 0.  1.
         21   -1    0    0  502  503 -0.00000000000E+00 -0.00000000000E+00 -0.12151371107E+04  0.12151371107E+04  0.00000000000E+00 0.  1.
          6    1    1    2  501    0 -0.39553075209E+02 -0.85947289659E+01 -0.37172765246E+03  0.41200577997E+03  0.17300000000E+03 0.  1.
         -6    1    1    2    0  503  0.39553075209E+02  0.85947289659E+01 -0.81368444455E+03  0.83285634442E+03  0.17300000000E+03 0.  1.
</event>
<event>
 4    1  0.3065897E+000  0.1000000E+03  0.7546771E-02  0.1280296E+00
         21   -1    0    0  501  502  0.00000000000E+00  0.00000000000E+00  0.95390869180E+02  0.95390869180E+02  0.00000000000E+00 0. -1.
         21   -1    0    0  502  503 -0.00000000000E+00 -0.00000000000E+00 -0.16077506968E+04  0.16077506968E+04  0.00000000000E+00 0. -1.
          6    1    1    2  501    0 -0.29198887120E+03 -0.80394753002E+01 -0.11806997573E+04  0.12285369555E+04  0.17300000000E+03 0. -1.
         -6    1    1    2    0  503  0.29198887120E+03  0.80394753002E+01 -0.33166007030E+03  0.47460461049E+03  0.17300000000E+03 0. -1.
</event>
<event>
 4    1  0.3065897E+000  0.1000000E+03  0.7546771E-02  0.1280296E+00
         21   -1    0    0  501  502  0.00000000000E+00  0.00000000000E+00  0.10775205664E+04  0.10775205664E+04  0.00000000000E+00 0. -1.
         21   -1    0    0  502  503 -0.00000000000E+00 -0.00000000000E+00 -0.70485755980E+02  0.70485755980E+02  0.00000000000E+00 0. -1.
          6    1    1    2  501    0  0.14706734805E+03 -0.15127067525E+03  0.42260250845E+03  0.50302435548E+03  0.17300000000E+03 0. -1.
         -6    1    1    2    0  503 -0.14706734805E+03  0.15127067525E+03  0.58443230199E+03  0.64498196693E+03  0.17300000000E+03 0. -1.
</event>
<event>
 4    1  0.3065897E+000  0.1000000E+03  0.7546771E-02  0.1280296E+00
         21   -1    0    0  501  502  0.00000000000E+00  0.00000000000E+00  0.27483768641E+03  0.27483768641E+03  0.00000000000E+00 0. -1.
         21   -1    0    0  502  503 -0.00000000000E+00 -0.00000000000E+00 -0.42576850571E+03  0.42576850571E+03  0.00000000000E+00 0. -1.
          6    1    1    2  501    0 -0.41291923772E+01  0.31140855958E+02  0.22502059139E+03  0.28556972825E+03  0.17300000000E+03 0. -1.
         -6    1    1    2    0  503  0.41291923772E+01 -0.31140855958E+02 -0.37595141069E+03  0.41503646387E+03  0.17300000000E+03 0. -1.
</event>
<event>
 4    1  0.3065897E+000  0.1000000E+03  0.7546771E-02  0.1280296E+00
         21   -1    0    0  503  502  0.00000000000E+00  0.00000000000E+00  0.10751993065E+03  0.10751993065E+03  0.00000000000E+00 0.  1.
         21   -1    0    0  501  503 -0.00000000000E+00 -0.00000000000E+00 -0.10294705012E+04  0.10294705012E+04  0.00000000000E+00 0.  1.
          6    1    1    2  501    0 -0.10700711648E+03  0.61706549247E+02 -0.89829653838E+03  0.92310556929E+03  0.17300000000E+03 0.  1.
         -6    1    1    2    0  502  0.10700711648E+03 -0.61706549247E+02 -0.23654032195E+02  0.21388486257E+03  0.17300000000E+03 0.  1.
</event>
<event>
 4    1  0.3065897E+000  0.1000000E+03  0.7546771E-02  0.1280296E+00
         21   -1    0    0  503  502  0.00000000000E+00  0.00000000000E+00  0.13321851445E+04  0.13321851445E+04  0.00000000000E+00 0.  1.
         21   -1    0    0  501  503 -0.00000000000E+00 -0.00000000000E+00 -0.82509901651E+02  0.82509901651E+02  0.00000000000E+00 0.  1.
          6    1    1    2  501    0 -0.11522702250E+03  0.17574348844E+03  0.22100700234E+03  0.35062249718E+03  0.17300000000E+03 0.  1.
         -6    1    1    2    0  502  0.11522702250E+03 -0.17574348844E+03  0.10286682405E+04  0.10640725489E+04  0.17300000000E+03 0.  1.
</event>
<event>
 4    1  0.3065897E+000  0.1000000E+03  0.7546771E-02  0.1280296E+00
         21   -1    0    0  503  502  0.00000000000E+00  0.00000000000E+00  0.13134264381E+03  0.13134264381E+03  0.00000000000E+00 0.  1.
         21   -1    0    0  501  503 -0.00000000000E+00 -0.00000000000E+00 -0.50630302649E+03  0.50630302649E+03  0.00000000000E+00 0.  1.
          6    1    1    2  501    0  0.15977360332E+03  0.54127010010E+02 -0.29883981397E+03  0.38430661189E+03  0.17300000000E+03 0.  1.
         -6    1    1    2    0  502 -0.15977360332E+03 -0.54127010010E+02 -0.76120568710E+02  0.25333905840E+03  0.17300000000E+03 0.  1.
</event>
<event>
 4    1  0.3065897E+000  0.1000000E+03  0.7546771E-02  0.1280296E+00
         21   -1    0    0  503  502  0.00000000000E+00  0.00000000000E+00  0.32968312757E+03  0.32968312757E+03  0.00000000000E+00 0.  1.
         21   -1    0    0  501  503 -0.00000000000E+00 -0.00000000000E+00 -0.17979554699E+03  0.17979554699E+03  0.00000000000E+00 0.  1.
          6    1    1    2  501    0 -0.91220350812E+02  0.14479687297E+03  0.66888505561E+02  0.25236948904E+03  0.17300000000E+03 0.  1.
         -6    1    1    2    0  502  0.91220350812E+02 -0.14479687297E+03  0.82999075015E+02  0.25710918552E+03  0.17300000000E+03 0.  1.
</event>
<event>
 4    1  0.3065897E+000  0.1000000E+03  0.7546771E-02  0.1280296E+00
         21   -1    0    0  503  502  0.00000000000E+00  0.00000000000E+00  0.22192622904E+03  0.22192622904E+03  0.00000000000E+00 0.  1.
         21   -1    0    0  501  503 -0.00000000000E+00 -0.00000000000E+00 -0.17889019466E+03  0.17889019466E+03  0.00000000000E+00 0.  1.
          6    1    1    2  501    0 -0.66353737132E+02 -0.64234629693E+02 -0.13936343785E+02  0.19660144395E+03  0.17300000000E+03 0.  1.
         -6    1    1    2    0  502  0.66353737132E+02  0.64234629693E+02  0.56972378168E+02  0.20421497976E+03  0.17300000000E+03 0.  1.
</event>
<event>
 4    1  0.3065897E+000  0.1000000E+03  0.7546771E-02  0.1280296E+00
         21   -1    0    0  503  502  0.00000000000E+00  0.00000000000E+00  0.23955709409E+04  0.23955709409E+04  0.00000000000E+00 0. -1.
         21   -1    0    0  501  503 -0.00000000000E+00 -0.00000000000E+00 -0.31103104268E+02  0.31103104268E+02  0.00000000000E+00 0. -1.
          6    1    1    2  501    0  0.11955287874E+03 -0.41788149323E+02  0.43127901111E+03  0.48163235529E+03  0.17300000000E+03 0. -1.
         -6    1    1    2    0  502 -0.11955287874E+03  0.41788149323E+02  0.19331888255E+04  0.19450416899E+04  0.17300000000E+03 0. -1.
</event>
<event>
 4    1  0.3065897E+000  0.1000000E+03  0.7546771E-02  0.1280296E+00
         21   -1    0    0  503  502  0.00000000000E+00  0.00000000000E+00  0.23216706300E+03  0.23216706300E+03  0.00000000000E+00 0. -1.
         21   -1    0    0  501  503 -0.00000000000E+00 -0.00000000000E+00 -0.30934110366E+03  0.30934110366E+03  0.00000000000E+00 0. -1.
          6    1    1    2  501    0 -0.51154840329E+02 -0.22120974679E+02  0.16037963211E+03  0.24239798185E+03  0.17300000000E+03 0. -1.
         -6    1    1    2    0  502  0.51154840329E+02  0.22120974679E+02 -0.23755367277E+03  0.29911018481E+03  0.17300000000E+03 0. -1.
</event>
<event>
 4    1  0.3065897E+000  0.1000000E+03  0.7546771E-02  0.1280296E+00
         21   -1    0    0  503  502  0.00000000000E+00  0.00000000000E+00  0.61701620727E+02  0.61701620727E+02  0.00000000000E+00 0.  1.
         21   -1    0    0  501  503 -0.00000000000E+00 -0.00000000000E+00 -0.12505191036E+04  0.12505191036E+04  0.00000000000E+00 0. -1.
          6    1    1    2  501    0  0.12086190915E+03  0.46798053231E+02 -0.10064602637E+04  0.10294119298E+04  0.17300000000E+03 0.  1.
         -6    1    1    2    0  502 -0.12086190915E+03 -0.46798053231E+02 -0.18235721922E+03  0.28280879454E+03  0.17300000000E+03 0.  1.
</event>
<event>
 4    1  0.3065897E+000  0.1000000E+03  0.7546771E-02  0.1280296E+00
         21   -1    0    0  503  502  0.00000000000E+00  0.00000000000E+00  0.25574047168E+03  0.25574047168E+03  0.00000000000E+00 0.  1.
         21   -1    0    0  501  503 -0.00000000000E+00 -0.00000000000E+00 -0.37558432024E+03  0.37558432024E+03  0.00000000000E+00 0. -1.
          6    1    1    2  501    0  0.24218969948E+03  0.32271523084E+02 -0.14156762366E+03  0.33116112967E+03  0.17300000000E+03 0.  1.
         -6    1    1    2    0  502 -0.24218969948E+03 -0.32271523084E+02  0.21723775103E+02  0.30016366226E+03  0.17300000000E+03 0.  1.
</event>
<event>
 4    1  0.3065897E+000  0.1000000E+03  0.7546771E-02  0.1280296E+00
         21   -1    0    0  503  502  0.00000000000E+00  0.00000000000E+00  0.22786625386E+04  0.22786625386E+04  0.00000000000E+00 0.  1.
         21   -1    0    0  501  503 -0.00000000000E+00 -0.00000000000E+00 -0.18138404466E+02  0.18138404466E+02  0.00000000000E+00 0. -1.
          6    1    1    2  501    0 -0.10049005286E+03 -0.33897543571E+02  0.12005906207E+04  0.12176182213E+04  0.17300000000E+03 0.  1.
         -6    1    1    2    0  502  0.10049005286E+03  0.33897543571E+02  0.10599335134E+04  0.10791827218E+04  0.17300000000E+03 0.  1.
</event>
<event>
 4    1  0.3065897E+000  0.1000000E+03  0.7546771E-02  0.1280296E+00
         21   -1    0    0  503  502  0.00000000000E+00  0.00000000000E+00  0.12348028456E+03  0.12348028456E+03  0.00000000000E+00 0.  1.
         21   -1    0    0  501  503 -0.00000000000E+00 -0.00000000000E+00 -0.60099030496E+03  0.60099030496E+03  0.00000000000E+00 0. -1.
          6    1    1    2  501    0  0.59063704359E+02 -0.32926596950E+02 -0.50372790351E+03  0.53688311831E+03  0.17300000000E+03 0.  1.
         -6    1    1    2    0  502 -0.59063704359E+02  0.32926596950E+02  0.26217883113E+02  0.18758747121E+03  0.17300000000E+03 0.  1.
</event>
<event>
 4    1  0.3065897E+000  0.1000000E+03  0.7546771E-02  0.1280296E+00
         21   -1    0    0  503  502  0.00000000000E+00  0.00000000000E+00  0.14535313348E+04  0.14535313348E+04  0.00000000000E+00 0.  1.
         21   -1    0    0  501  503 -0.00000000000E+00 -0.00000000000E+00 -0.43750866836E+02  0.43750866836E+02  0.00000000000E+00 0.  1.
          6    1    1    2  501    0 -0.78946797935E+02 -0.90378178857E+02  0.29285429258E+03  0.36068469444E+03  0.17300000000E+03 0.  1.
         -6    1    1    2    0  502  0.78946797935E+02  0.90378178857E+02  0.11169261753E+04  0.11365975071E+04  0.17300000000E+03 0.  1.
</event>
<event>
 4    1  0.3065897E+000  0.1000000E+03  0.7546771E-02  0.1280296E+00
         21   -1    0    0  503  502  0.00000000000E+00  0.00000000000E+00  0.32012499457E+03  0.32012499457E+03  0.00000000000E+00 0. -1.
         21   -1    0    0  501  503 -0.00000000000E+00 -0.00000000000E+00 -0.14406011544E+04  0.14406011544E+04  0.00000000000E+00 0. -1.
          6    1    1    2  501    0 -0.86657636458E+02 -0.88430780345E+02 -0.13962873234E+04  0.14124010898E+04  0.17300000000E+03 0. -1.
         -6    1    1    2    0  502  0.86657636458E+02  0.88430780345E+02  0.27581116362E+03  0.34832505917E+03  0.17300000000E+03 0. -1.
</event>
<event>
 4    1  0.3065897E+000  0.1000000E+03  0.7546771E-02  0.1280296E+00
         21   -1    0    0  503  502  0.00000000000E+00  0.00000000000E+00  0.18099617968E+03  0.18099617968E+03  0.00000000000E+00 0.  1.
         21   -1    0    0  501  503 -0.00000000000E+00 -0.00000000000E+00 -0.27090625025E+03  0.27090625025E+03  0.00000000000E+00 0. -1.
          6    1    1    2  501    0 -0.98906791290E+02  0.94890518786E+02 -0.63129400529E+02  0.22956716910E+03  0.17300000000E+03 0. -1.
         -6    1    1    2    0  502  0.98906791290E+02 -0.94890518786E+02 -0.26780670045E+02  0.22233526083E+03  0.17300000000E+03 0.  1.
</event>
<event>
 4    1  0.3065897E+000  0.1000000E+03  0.7546771E-02  0.1280296E+00
         21   -1    0    0  503  502  0.00000000000E+00  0.00000000000E+00  0.24500590511E+04  0.24500590511E+04  0.00000000000E+00 0.  1.
         21   -1    0    0  501  503 -0.00000000000E+00 -0.00000000000E+00 -0.21330271284E+02  0.21330271284E+02  0.00000000000E+00 0. -1.
          6    1    1    2  501    0  0.48522096148E+02  0.12809228223E+03  0.89142414446E+03  0.91832893449E+03  0.17300000000E+03 0. -1.
         -6    1    1    2    0  502 -0.48522096148E+02 -0.12809228223E+03  0.15373046353E+04  0.15530603879E+04  0.17300000000E+03 0.  1.
</event>
<event>
 4    1  0.3065897E+000  0.1000000E+03  0.7546771E-02  0.1280296E+00
         21   -1    0    0  503  502  0.00000000000E+00  0.00000000000E+00  0.27915523336E+03  0.27915523336E+03  0.00000000000E+00 0.  1.
         21   -1    0    0  501  503 -0.00000000000E+00 -0.00000000000E+00 -0.15516810657E+03  0.15516810657E+03  0.00000000000E+00 0. -1.
          6    1    1    2  501    0  0.31200842838E+02  0.10575790967E+03  0.98569272561E+02  0.22760300865E+03  0.17300000000E+03 0. -1.
         -6    1    1    2    0  502 -0.31200842838E+02 -0.10575790967E+03  0.25417854230E+02  0.20672033128E+03  0.17300000000E+03 0.  1.
</event>
<event>
 4    1  0.3065897E+000  0.1000000E+03  0.7546771E-02  0.1280296E+00
         21   -1    0    0  503  502  0.00000000000E+00  0.00000000000E+00  0.16373611370E+02  0.16373611370E+02  0.00000000000E+00 0.  1.
         21   -1    0    0  501  503 -0.00000000000E+00 -0.00000000000E+00 -0.26492448904E+04  0.26492448904E+04  0.00000000000E+00 0. -1.
          6    1    1    2  501    0 -0.54010461133E+02  0.78603962162E+02 -0.17386458336E+04  0.17498325770E+04  0.17300000000E+03 0. -1.
         -6    1    1    2    0  502  0.54010461133E+02 -0.78603962162E+02 -0.89422544535E+03  0.91578592471E+03  0.17300000000E+03 0.  1.
</event>
<event>
 4    1  0.3065897E+000  0.1000000E+03  0.7546771E-02  0.1280296E+00
         21   -1    0    0  503  502  0.00000000000E+00  0.00000000000E+00  0.39782450229E+03  0.39782450229E+03  0.00000000000E+00 0.  1.
         21   -1    0    0  501  503 -0.00000000000E+00 -0.00000000000E+00 -0.15354186721E+03  0.15354186721E+03  0.00000000000E+00 0.  1.
          6    1    1    2  501    0  0.46317815905E+02  0.12408542116E+03 -0.79951680192E+01  0.21802627027E+03  0.17300000000E+03 0.  1.
         -6    1    1    2    0  502 -0.46317815905E+02 -0.12408542116E+03  0.25227780310E+03  0.33334009923E+03  0.17300000000E+03 0.  1.
</event>
<event>
 4    1  0.3065897E+000  0.1000000E+03  0.7546771E-02  0.1280296E+00
         21   -1    0    0  501  502  0.00000000000E+00  0.00000000000E+00  0.93551992060E+03  0.93551992060E+03  0.00000000000E+00 0. -1.
         21   -1    0    0  502  503 -0.00000000000E+00 -0.00000000000E+00 -0.37071676755E+02  0.37071676755E+02  0.00000000000E+00 0.  1.
          6    1    1    2  501    0 -0.43458985114E+01 -0.38938161915E+02  0.59733726131E+03  0.62311786288E+03  0.17300000000E+03 0.  1.
         -6    1    1    2    0  503  0.43458985114E+01  0.38938161915E+02  0.30111098253E+03  0.34947373448E+03  0.17300000000E+03 0. -1.
</event>
<event>
 4    1  0.3065897E+000  0.1000000E+03  0.7546771E-02  0.1280296E+00
         21   -1    0    0  501  502  0.00000000000E+00  0.00000000000E+00  0.85197424047E+03  0.85197424047E+03  0.00000000000E+00 0.  1.
         21   -1    0    0  502  503 -0.00000000000E+00 -0.00000000000E+00 -0.80296983920E+02  0.80296983920E+02  0.00000000000E+00 0.  1.
          6    1    1    2  501    0  0.14150272528E+03  0.40472479640E+02  0.15469906130E+03  0.27481237679E+03  0.17300000000E+03 0.  1.
         -6    1    1    2    0  503 -0.14150272528E+03 -0.40472479640E+02  0.61697819525E+03  0.65745884760E+03  0.17300000000E+03 0.  1.
</event>
<event>
 4    1  0.3065897E+000  0.1000000E+03  0.7546771E-02  0.1280296E+00
         21   -1    0    0  501  502  0.00000000000E+00  0.00000000000E+00  0.16431764075E+04  0.16431764075E+04  0.00000000000E+00 0.  1.
         21   -1    0    0  502  503 -0.00000000000E+00 -0.00000000000E+00 -0.32113246574E+02  0.32113246574E+02  0.00000000000E+00 0.  1.
          6    1    1    2  501    0  0.76026265530E+02 -0.56649230434E+02  0.12346669749E+04  0.12503282238E+04  0.17300000000E+03 0.  1.
         -6    1    1    2    0  503 -0.76026265530E+02  0.56649230434E+02  0.37639618609E+03  0.42496143032E+03  0.17300000000E+03 0.  1.
</event>
<event>
 4    1  0.3065897E+000  0.1000000E+03  0.7546771E-02  0.1280296E+00
         21   -1    0    0  501  502  0.00000000000E+00  0.00000000000E+00  0.37539424467E+03  0.37539424467E+03  0.00000000000E+00 0.  1.
         21   -1    0    0  502  503 -0.00000000000E+00 -0.00000000000E+00 -0.16162507561E+03  0.16162507561E+03  0.00000000000E+00 0.  1.
          6    1    1    2  501    0  0.71134740292E+02 -0.51959671452E+02  0.27214776235E+03  0.33429532346E+03  0.17300000000E+03 0.  1.
         -6    1    1    2    0  503 -0.71134740292E+02  0.51959671452E+02 -0.58378593292E+02  0.20272399682E+03  0.17300000000E+03 0.  1.
</event>
<event>
 4    1  0.3065897E+000  0.1000000E+03  0.7546771E-02  0.1280296E+00
         21   -1    0    0  501  502  0.00000000000E+00  0.00000000000E+00  0.27839160571E+03  0.27839160571E+03  0.00000000000E+00 0.  1.
         21   -1    0    0  502  503 -0.00000000000E+00 -0.00000000000E+00 -0.27878959466E+03  0.27878959466E+03  0.00000000000E+00 0.  1.
          6    1    1    2  501    0  0.41608297992E+02  0.91655094204E+02  0.19358386162E+03  0.27845218303E+03  0.17300000000E+03 0.  1.
         -6    1    1    2    0  503 -0.41608297992E+02 -0.91655094204E+02 -0.19398185057E+03  0.27872901734E+03  0.17300000000E+03 0.  1.
</event>
<event>
 4    1  0.3065897E+000  0.1000000E+03  0.7546771E-02  0.1280296E+00
         21   -1    0    0  501  502  0.00000000000E+00  0.00000000000E+00  0.24100414197E+03  0.24100414197E+03  0.00000000000E+00 0.  1.
         21   -1    0    0  502  503 -0.00000000000E+00 -0.00000000000E+00 -0.11519221950E+04  0.11519221950E+04  0.00000000000E+00 0.  1.
          6    1    1    2  501    0 -0.30539854293E+03  0.57524104042E+02  0.58375654394E+02  0.36043586058E+03  0.17300000000E+03 0.  1.
         -6    1    1    2    0  503  0.30539854293E+03 -0.57524104042E+02 -0.96929370745E+03  0.10324904764E+04  0.17300000000E+03 0.  1.
</event>
<event>
 4    1  0.3065897E+000  0.1000000E+03  0.7546771E-02  0.1280296E+00
         21   -1    0    0  501  502  0.00000000000E+00  0.00000000000E+00  0.93911852539E+03  0.93911852539E+03  0.00000000000E+00 0.  1.
         21   -1    0    0  502  503 -0.00000000000E+00 -0.00000000000E+00 -0.39404641366E+02  0.39404641366E+02  0.00000000000E+00 0.  1.
          6    1    1    2  501    0  0.73144466510E+02 -0.34360793566E+02  0.39043531924E+03  0.43462571901E+03  0.17300000000E+03 0.  1.
         -6    1    1    2    0  503 -0.73144466510E+02  0.34360793566E+02  0.50927856478E+03  0.54389744775E+03  0.17300000000E+03 0.  1.
</event>
<event>
 4    1  0.3065897E+000  0.1000000E+03  0.7546771E-02  0.1280296E+00
         21   -1    0    0  503  502  0.00000000000E+00  0.00000000000E+00  0.23688157708E+03  0.23688157708E+03  0.00000000000E+00 0.  1.
         21   -1    0    0  501  503 -0.00000000000E+00 -0.00000000000E+00 -0.10812517808E+04  0.10812517808E+04  0.00000000000E+00 0. -1.
          6    1    1    2  501    0 -0.19870280320E+03  0.27387478314E+03 -0.85744154119E+03  0.93788336023E+03  0.17300000000E+03 0. -1.
         -6    1    1    2    0  502  0.19870280320E+03 -0.27387478314E+03  0.13071337486E+02  0.38024999764E+03  0.17300000000E+03 0.  1.
</event>
<event>
 4    1  0.3065897E+000  0.1000000E+03  0.7546771E-02  0.1280296E+00
         21   -1    0    0  503  502  0.00000000000E+00  0.00000000000E+00  0.15530877444E+04  0.15530877444E+04  0.00000000000E+00 0.  1.
         21   -1    0    0  501  503 -0.00000000000E+00 -0.00000000000E+00 -0.66244256519E+02  0.66244256519E+02  0.00000000000E+00 0. -1.
          6    1    1    2  501    0 -0.11364054177E+03 -0.23472650940E+02  0.12774585895E+03  0.24436272743E+03  0.17300000000E+03 0. -1.
         -6    1    1    2    0  502  0.11364054177E+03  0.23472650940E+02  0.13590976289E+04  0.13749692735E+04  0.17300000000E+03 0.  1.
</event>
<event>
 4    1  0.3065897E+000  0.1000000E+03  0.7546771E-02  0.1280296E+00
         21   -1    0    0  501  502  0.00000000000E+00  0.00000000000E+00  0.20448529654E+03  0.20448529654E+03  0.00000000000E+00 0.  1.
         21   -1    0    0  502  503 -0.00000000000E+00 -0.00000000000E+00 -0.19670230158E+03  0.19670230158E+03  0.00000000000E+00 0.  1.
          6    1    1    2  501    0  0.35879393058E+02 -0.94619764263E+02  0.11207095534E+02  0.20073572085E+03  0.17300000000E+03 0.  1.
         -6    1    1    2    0  503 -0.35879393058E+02  0.94619764263E+02 -0.34241005774E+01  0.20045187727E+03  0.17300000000E+03 0.  1.
</event>
<event>
 4    1  0.3065897E+000  0.1000000E+03  0.7546771E-02  0.1280296E+00
         21   -1    0    0  503  502  0.00000000000E+00  0.00000000000E+00  0.26282775285E+03  0.26282775285E+03  0.00000000000E+00 0. -1.
         21   -1    0    0  501  503 -0.00000000000E+00 -0.00000000000E+00 -0.16011114574E+03  0.16011114574E+03  0.00000000000E+00 0.  1.
          6    1    1    2  501    0  0.54666952906E+02 -0.11969095165E+02 -0.46551594906E+02  0.18769066564E+03  0.17300000000E+03 0.  1.
         -6    1    1    2    0  502 -0.54666952906E+02  0.11969095165E+02  0.14926820202E+03  0.23524823296E+03  0.17300000000E+03 0. -1.
</event>
<event>
 4    1  0.3065897E+000  0.1000000E+03  0.7546771E-02  0.1280296E+00
         21   -1    0    0  503  502  0.00000000000E+00  0.00000000000E+00  0.42543867643E+03  0.42543867643E+03  0.00000000000E+00 0.  1.
         21   -1    0    0  501  503 -0.00000000000E+00 -0.00000000000E+00 -0.31506097716E+03  0.31506097716E+03  0.00000000000E+00 0. -1.
          6    1    1    2  501    0  0.25476160129E+03 -0.16210709703E+03 -0.59796827686E+02  0.35311024483E+03  0.17300000000E+03 0. -1.
         -6    1    1    2    0  502 -0.25476160129E+03  0.16210709703E+03  0.17017452695E+03  0.38738940877E+03  0.17300000000E+03 0.  1.
</event>
<event>
 4    1  0.3065897E+000  0.1000000E+03  0.7546771E-02  0.1280296E+00
         21   -1    0    0  503  502  0.00000000000E+00  0.00000000000E+00  0.23047126494E+03  0.23047126494E+03  0.00000000000E+00 0.  1.
         21   -1    0    0  501  503 -0.00000000000E+00 -0.00000000000E+00 -0.21321305948E+03  0.21321305948E+03  0.00000000000E+00 0.  1.
          6    1    1    2  501    0  0.85610894894E+02  0.62376235316E+02 -0.80827990179E+02  0.21836250606E+03  0.17300000000E+03 0.  1.
         -6    1    1    2    0  502 -0.85610894894E+02 -0.62376235316E+02  0.98086195637E+02  0.22532181836E+03  0.17300000000E+03 0.  1.
</event>
<event>
 4    1  0.3065897E+000  0.1000000E+03  0.7546771E-02  0.1280296E+00
         21   -1    0    0  503  502  0.00000000000E+00  0.00000000000E+00  0.14890889554E+03  0.14890889554E+03  0.00000000000E+00 0.  1.
         21   -1    0    0  501  503 -0.00000000000E+00 -0.00000000000E+00 -0.23962071008E+03  0.23962071008E+03  0.00000000000E+00 0.  1.
          6    1    1    2  501    0 -0.63176734268E+02  0.43093172578E+01 -0.88289138089E+02  0.20428862394E+03  0.17300000000E+03 0.  1.
         -6    1    1    2    0  502  0.63176734268E+02 -0.43093172578E+01 -0.24226764476E+01  0.18424098168E+03  0.17300000000E+03 0.  1.
</event>
<event>
 4    1  0.3065897E+000  0.1000000E+03  0.7546771E-02  0.1280296E+00
         21   -1    0    0  503  502  0.00000000000E+00  0.00000000000E+00  0.12777986995E+03  0.12777986995E+03  0.00000000000E+00 0. -1.
         21   -1    0    0  501  503 -0.00000000000E+00 -0.00000000000E+00 -0.11607781856E+04  0.11607781856E+04  0.00000000000E+00 0. -1.
          6    1    1    2  501    0 -0.12329981189E+03 -0.21755125105E+03 -0.91189580687E+03  0.96125665305E+03  0.17300000000E+03 0. -1.
         -6    1    1    2    0  502  0.12329981189E+03  0.21755125105E+03 -0.12110250877E+03  0.32730140250E+03  0.17300000000E+03 0. -1.
</event>
<event>
 4    1  0.3065897E+000  0.1000000E+03  0.7546771E-02  0.1280296E+00
         21   -1    0    0  501  502  0.00000000000E+00  0.00000000000E+00  0.53222162465E+03  0.53222162465E+03  0.00000000000E+00 0.  1.
         21   -1    0    0  502  503 -0.00000000000E+00 -0.00000000000E+00 -0.15081276484E+03  0.15081276484E+03  0.00000000000E+00 0.  1.
          6    1    1    2  501    0  0.49034825736E+02  0.12301099133E+01  0.45461391554E+03  0.48888520075E+03  0.17300000000E+03 0.  1.
         -6    1    1    2    0  503 -0.49034825736E+02 -0.12301099133E+01 -0.73205055726E+02  0.19414918874E+03  0.17300000000E+03 0.  1.
</event>
<event>
 4    1  0.3065897E+000  0.1000000E+03  0.7546771E-02  0.1280296E+00
         21   -1    0    0  501  502  0.00000000000E+00  0.00000000000E+00  0.33763753139E+03  0.33763753139E+03  0.00000000000E+00 0.  1.
         21   -1    0    0  502  503 -0.00000000000E+00 -0.00000000000E+00 -0.11092015739E+03  0.11092015739E+03  0.00000000000E+00 0.  1.
          6    1    1    2  501    0  0.73493381434E+02  0.31052295307E+02  0.15276722648E+03  0.24419735388E+03  0.17300000000E+03 0.  1.
         -6    1    1    2    0  503 -0.73493381434E+02 -0.31052295307E+02  0.73950147533E+02  0.20436033490E+03  0.17300000000E+03 0.  1.
</event>
<event>
 4    1  0.3065897E+000  0.1000000E+03  0.7546771E-02  0.1280296E+00
         21   -1    0    0  501  502  0.00000000000E+00  0.00000000000E+00  0.37698435737E+03  0.37698435737E+03  0.00000000000E+00 0.  1.
         21   -1    0    0  502  503 -0.00000000000E+00 -0.00000000000E+00 -0.13037998060E+03  0.13037998060E+03  0.00000000000E+00 0. -1.
          6    1    1    2  501    0 -0.16612962941E+02 -0.10300295525E+03  0.22777845971E+03  0.30446284837E+03  0.17300000000E+03 0. -1.
         -6    1    1    2    0  503  0.16612962941E+02  0.10300295525E+03  0.18825917056E+02  0.20290148960E+03  0.17300000000E+03 0. -1.
</event>
<event>
 4    1  0.3065897E+000  0.1000000E+03  0.7546771E-02  0.1280296E+00
         21   -1    0    0  503  502  0.00000000000E+00  0.00000000000E+00  0.14742295546E+03  0.14742295546E+03  0.00000000000E+00 0. -1.
         21   -1    0    0  501  503 -0.00000000000E+00 -0.00000000000E+00 -0.26424828846E+03  0.26424828846E+03  0.00000000000E+00 0. -1.
          6    1    1    2  501    0  0.24320382910E+02  0.99126247035E+01 -0.15363753846E+03  0.23285882929E+03  0.17300000000E+03 0. -1.
         -6    1    1    2    0  502 -0.24320382910E+02 -0.99126247035E+01  0.36812205466E+02  0.17881241463E+03  0.17300000000E+03 0. -1.
</event>
<event>
 4    1  0.3065897E+000  0.1000000E+03  0.7546771E-02  0.1280296E+00
         21   -1    0    0  503  502  0.00000000000E+00  0.00000000000E+00  0.17037254336E+03  0.17037254336E+03  0.00000000000E+00 0. -1.
         21   -1    0    0  501  503 -0.00000000000E+00 -0.00000000000E+00 -0.46864228661E+03  0.46864228661E+03  0.00000000000E+00 0. -1.
          6    1    1    2  501    0  0.19841398904E+02 -0.27697145560E+01 -0.40074139090E+03  0.43694852650E+03  0.17300000000E+03 0. -1.
         -6    1    1    2    0  502 -0.19841398904E+02  0.27697145560E+01  0.10247164765E+03  0.20206630348E+03  0.17300000000E+03 0. -1.
</event>
<event>
 4    1  0.3065897E+000  0.1000000E+03  0.7546771E-02  0.1280296E+00
         21   -1    0    0  501  502  0.00000000000E+00  0.00000000000E+00  0.11365611334E+03  0.11365611334E+03  0.00000000000E+00 0. -1.
         21   -1    0    0  502  503 -0.00000000000E+00 -0.00000000000E+00 -0.42922714200E+03  0.42922714200E+03  0.00000000000E+00 0.  1.
          6    1    1    2  501    0  0.11909830999E+03 -0.34956303060E+02 -0.85611782048E+02  0.22948796873E+03  0.17300000000E+03 0. -1.
         -6    1    1    2    0  503 -0.11909830999E+03  0.34956303060E+02 -0.22995924661E+03  0.31339528661E+03  0.17300000000E+03 0.  1.
</event>
<event>
 4    1  0.3065897E+000  0.1000000E+03  0.7546771E-02  0.1280296E+00
         21   -1    0    0  501  502  0.00000000000E+00  0.00000000000E+00  0.68649407122E+02  0.68649407122E+02  0.00000000000E+00 0. -1.
         21   -1    0    0  502  503 -0.00000000000E+00 -0.00000000000E+00 -0.80966468148E+03  0.80966468148E+03  0.00000000000E+00 0.  1.
          6    1    1    2  501    0 -0.74867282024E+02 -0.55363591532E+01 -0.10695837960E+03  0.21680603349E+03  0.17300000000E+03 0. -1.
         -6    1    1    2    0  503  0.74867282024E+02  0.55363591532E+01 -0.63405689475E+03  0.66150805511E+03  0.17300000000E+03 0.  1.
</event>
<event>
 4    1  0.3065897E+000  0.1000000E+03  0.7546771E-02  0.1280296E+00
         21   -1    0    0  501  502  0.00000000000E+00  0.00000000000E+00  0.32067316728E+03  0.32067316728E+03  0.00000000000E+00 0. -1.
         21   -1    0    0  502  503 -0.00000000000E+00 -0.00000000000E+00 -0.10036239872E+03  0.10036239872E+03  0.00000000000E+00 0. -1.
          6    1    1    2  501    0 -0.41697603540E+02  0.92215822741E+01  0.13451161539E+03  0.22326240704E+03  0.17300000000E+03 0. -1.
         -6    1    1    2    0  503  0.41697603540E+02 -0.92215822741E+01  0.85799153167E+02  0.19777315896E+03  0.17300000000E+03 0. -1.
</event>
<event>
 4    1  0.3065897E+000  0.1000000E+03  0.7546771E-02  0.1280296E+00
         21   -1    0    0  503  502  0.00000000000E+00  0.00000000000E+00  0.19455007949E+03  0.19455007949E+03  0.00000000000E+00 0.  1.
         21   -1    0    0  501  503 -0.00000000000E+00 -0.00000000000E+00 -0.40988572970E+03  0.40988572970E+03  0.00000000000E+00 0.  1.
          6    1    1    2  501    0  0.20929752962E+03 -0.56267162944E+02 -0.16473024588E+03  0.32254690115E+03  0.17300000000E+03 0. -1.
         -6    1    1    2    0  502 -0.20929752962E+03  0.56267162944E+02 -0.50605404334E+02  0.28188890805E+03  0.17300000000E+03 0. -1.
</event>
<event>
 4    1  0.3065897E+000  0.1000000E+03  0.7546771E-02  0.1280296E+00
         21   -1    0    0  503  502  0.00000000000E+00  0.00000000000E+00  0.30189830481E+03  0.30189830481E+03  0.00000000000E+00 0.  1.
         21   -1    0    0  501  503 -0.00000000000E+00 -0.00000000000E+00 -0.11588497835E+03  0.11588497835E+03  0.00000000000E+00 0.  1.
          6    1    1    2  501    0  0.57070965670E+02  0.84982241965E+01  0.46593209182E+02  0.18822657113E+03  0.17300000000E+03 0. -1.
         -6    1    1    2    0  502 -0.57070965670E+02 -0.84982241965E+01  0.13942011727E+03  0.22955671203E+03  0.17300000000E+03 0. -1.
</event>
<event>
 4    1  0.3065897E+000  0.1000000E+03  0.7546771E-02  0.1280296E+00
         21   -1    0    0  503  502  0.00000000000E+00  0.00000000000E+00  0.31475228058E+02  0.31475228058E+02  0.00000000000E+00 0. -1.
         21   -1    0    0  501  503 -0.00000000000E+00 -0.00000000000E+00 -0.14153295254E+04  0.14153295254E+04  0.00000000000E+00 0. -1.
          6    1    1    2  501    0  0.38316989227E+02 -0.35623266442E+02 -0.10655249972E+04  0.10807449877E+04  0.17300000000E+03 0. -1.
         -6    1    1    2    0  502 -0.38316989227E+02  0.35623266442E+02 -0.31832930010E+03  0.36605976572E+03  0.17300000000E+03 0. -1.
</event>
<event>
 4    1  0.3065897E+000  0.1000000E+03  0.7546771E-02  0.1280296E+00
         21   -1    0    0  503  502  0.00000000000E+00  0.00000000000E+00  0.17261249068E+04  0.17261249068E+04  0.00000000000E+00 0.  1.
         21   -1    0    0  501  503 -0.00000000000E+00 -0.00000000000E+00 -0.40631447992E+02  0.40631447992E+02  0.00000000000E+00 0.  1.
          6    1    1    2  501    0 -0.83908587889E+02 -0.17049205283E+03  0.10562737473E+04  0.10870839068E+04  0.17300000000E+03 0.  1.
         -6    1    1    2    0  502  0.83908587889E+02  0.17049205283E+03  0.62921971149E+03  0.67967244797E+03  0.17300000000E+03 0.  1.
</event>
<event>
 4    1  0.3065897E+000  0.1000000E+03  0.7546771E-02  0.1280296E+00
         21   -1    0    0  501  502  0.00000000000E+00  0.00000000000E+00  0.87160624819E+02  0.87160624819E+02  0.00000000000E+00 0.  1.
         21   -1    0    0  502  503 -0.00000000000E+00 -0.00000000000E+00 -0.80777636687E+03  0.80777636687E+03  0.00000000000E+00 0.  1.
          6    1    1    2  501    0 -0.13989700649E+03 -0.13489179273E+03 -0.27251335580E+03  0.37677512824E+03  0.17300000000E+03 0.  1.
         -6    1    1    2    0  503  0.13989700649E+03  0.13489179273E+03 -0.44810238625E+03  0.51816186345E+03  0.17300000000E+03 0.  1.
</event>
<event>
 4    1  0.3065897E+000  0.1000000E+03  0.7546771E-02  0.1280296E+00
         21   -1    0    0  501  502  0.00000000000E+00  0.00000000000E+00  0.45663237090E+03  0.45663237090E+03  0.00000000000E+00 0.  1.
         21   -1    0    0  502  503 -0.00000000000E+00 -0.00000000000E+00 -0.11911025726E+03  0.11911025726E+03  0.00000000000E+00 0.  1.
          6    1    1    2  501    0 -0.35787804229E+02  0.61358693326E+02  0.34075316545E+03  0.38869959602E+03  0.17300000000E+03 0.  1.
         -6    1    1    2    0  503  0.35787804229E+02 -0.61358693326E+02 -0.32310518148E+01  0.18704303215E+03  0.17300000000E+03 0.  1.
</event>
<event>
 4    1  0.3065897E+000  0.1000000E+03  0.7546771E-02  0.1280296E+00
         21   -1    0    0  503  502  0.00000000000E+00  0.00000000000E+00  0.56173019776E+02  0.56173019776E+02  0.00000000000E+00 0.  1.
         21   -1    0    0  501  503 -0.00000000000E+00 -0.00000000000E+00 -0.90411478328E+03  0.90411478328E+03  0.00000000000E+00 0. -1.
          6    1    1    2  501    0 -0.99296997075E+02  0.65072315405E+02 -0.59919074905E+03  0.63486443719E+03  0.17300000000E+03 0.  1.
         -6    1    1    2    0  502  0.99296997075E+02 -0.65072315405E+02 -0.24875101446E+03  0.32542336587E+03  0.17300000000E+03 0. -1.
</event>
<event>
 4    1  0.3065897E+000  0.1000000E+03  0.7546771E-02  0.1280296E+00
         21   -1    0    0  503  502  0.00000000000E+00  0.00000000000E+00  0.53988547875E+03  0.53988547875E+03  0.00000000000E+00 0.  1.
         21   -1    0    0  501  503 -0.00000000000E+00 -0.00000000000E+00 -0.15051213224E+03  0.15051213224E+03  0.00000000000E+00 0. -1.
          6    1    1    2  501    0  0.11443150952E+03  0.19549181908E+03  0.19992232486E+03  0.34815163029E+03  0.17300000000E+03 0.  1.
         -6    1    1    2    0  502 -0.11443150952E+03 -0.19549181908E+03  0.18945102165E+03  0.34224598070E+03  0.17300000000E+03 0.  1.
</event>
<event>
 4    1  0.3065897E+000  0.1000000E+03  0.7546771E-02  0.1280296E+00
         21   -1    0    0  503  502  0.00000000000E+00  0.00000000000E+00  0.12223924587E+03  0.12223924587E+03  0.00000000000E+00 0.  1.
         21   -1    0    0  501  503 -0.00000000000E+00 -0.00000000000E+00 -0.41278873389E+03  0.41278873389E+03  0.00000000000E+00 0. -1.
          6    1    1    2  501    0 -0.31336307250E+02 -0.13646240233E+03 -0.18151491836E+03  0.28719438885E+03  0.17300000000E+03 0.  1.
         -6    1    1    2    0  502  0.31336307250E+02  0.13646240233E+03 -0.10903456966E+03  0.24783359091E+03  0.17300000000E+03 0.  1.
</event>
<event>
 4    1  0.3065897E+000  0.1000000E+03  0.7546771E-02  0.1280296E+00
         21   -1    0    0  503  502  0.00000000000E+00  0.00000000000E+00  0.15597768949E+03  0.15597768949E+03  0.00000000000E+00 0.  1.
         21   -1    0    0  501  503 -0.00000000000E+00 -0.00000000000E+00 -0.29525223440E+03  0.29525223440E+03  0.00000000000E+00 0.  1.
          6    1    1    2  501    0 -0.33213591868E+02 -0.59633581453E+02 -0.18220574130E+03  0.26035982579E+03  0.17300000000E+03 0.  1.
         -6    1    1    2    0  502  0.33213591868E+02  0.59633581453E+02  0.42931196395E+02  0.19087009809E+03  0.17300000000E+03 0.  1.
</event>
<event>
 4    1  0.3065897E+000  0.1000000E+03  0.7546771E-02  0.1280296E+00
         21   -1    0    0  501  502  0.00000000000E+00  0.00000000000E+00  0.96831972053E+02  0.96831972053E+02  0.00000000000E+00 0.  1.
         21   -1    0    0  502  503 -0.00000000000E+00 -0.00000000000E+00 -0.37746190118E+03  0.37746190118E+03  0.00000000000E+00 0.  1.
          6    1    1    2  501    0 -0.13320091962E+02 -0.50929562338E+02 -0.63347079444E+02  0.19160662213E+03  0.17300000000E+03 0.  1.
         -6    1    1    2    0  503  0.13320091962E+02  0.50929562338E+02 -0.21728284968E+03  0.28268725110E+03  0.17300000000E+03 0.  1.
</event>
<event>
 4    1  0.3065897E+000  0.1000000E+03  0.7546771E-02  0.1280296E+00
         21   -1    0    0  501  502  0.00000000000E+00  0.00000000000E+00  0.45907249102E+02  0.45907249102E+02  0.00000000000E+00 0.  1.
         21   -1    0    0  502  503 -0.00000000000E+00 -0.00000000000E+00 -0.91337625130E+03  0.91337625130E+03  0.00000000000E+00 0.  1.
          6    1    1    2  501    0 -0.27305028379E+02 -0.82081687611E+02 -0.27628019415E+03  0.33725763697E+03  0.17300000000E+03 0.  1.
         -6    1    1    2    0  503  0.27305028379E+02  0.82081687611E+02 -0.59118880804E+03  0.62202586342E+03  0.17300000000E+03 0.  1.
</event>
<event>
 4    1  0.3065897E+000  0.1000000E+03  0.7546771E-02  0.1280296E+00
         21   -1    0    0  503  502  0.00000000000E+00  0.00000000000E+00  0.49571853109E+03  0.49571853109E+03  0.00000000000E+00 0.  1.
         21   -1    0    0  501  503 -0.00000000000E+00 -0.00000000000E+00 -0.86022942272E+02  0.86022942272E+02  0.00000000000E+00 0.  1.
          6    1    1    2  501    0  0.45335987599E+02  0.27046792982E+02  0.64504854482E+02  0.19203321857E+03  0.17300000000E+03 0.  1.
         -6    1    1    2    0  502 -0.45335987599E+02 -0.27046792982E+02  0.34519073433E+03  0.38970825479E+03  0.17300000000E+03 0.  1.
</event>
<event>
 4    1  0.3065897E+000  0.1000000E+03  0.7546771E-02  0.1280296E+00
         21   -1    0    0  503  502  0.00000000000E+00  0.00000000000E+00  0.66385651660E+03  0.66385651660E+03  0.00000000000E+00 0.  1.
         21   -1    0    0  501  503 -0.00000000000E+00 -0.00000000000E+00 -0.94245989488E+02  0.94245989488E+02  0.00000000000E+00 0.  1.
          6    1    1    2  501    0 -0.57086909621E+02  0.67408736943E+02  0.45995331350E+02  0.19961819449E+03  0.17300000000E+03 0.  1.
         -6    1    1    2    0  502  0.57086909621E+02 -0.67408736943E+02  0.52361519577E+03  0.55848431160E+03  0.17300000000E+03 0.  1.
</event>
<event>
 4    1  0.3065897E+000  0.1000000E+03  0.7546771E-02  0.1280296E+00
         21   -1    0    0  503  502  0.00000000000E+00  0.00000000000E+00  0.16634545334E+03  0.16634545334E+03  0.00000000000E+00 0.  1.
         21   -1    0    0  501  503 -0.00000000000E+00 -0.00000000000E+00 -0.21545338521E+03  0.21545338521E+03  0.00000000000E+00 0.  1.
          6    1    1    2  501    0  0.37957860930E+02 -0.46067033536E+02 -0.73413087181E+02  0.19718380297E+03  0.17300000000E+03 0.  1.
         -6    1    1    2    0  502 -0.37957860930E+02  0.46067033536E+02  0.24305155316E+02  0.18461503557E+03  0.17300000000E+03 0.  1.
</event>
<event>
 4    1  0.3065897E+000  0.1000000E+03  0.7546771E-02  0.1280296E+00
         21   -1    0    0  503  502  0.00000000000E+00  0.00000000000E+00  0.56308799496E+03  0.56308799496E+03  0.00000000000E+00 0. -1.
         21   -1    0    0  501  503 -0.00000000000E+00 -0.00000000000E+00 -0.13069968881E+03  0.13069968881E+03  0.00000000000E+00 0. -1.
          6    1    1    2  501    0  0.98698182946E+02 -0.70791634089E+02 -0.12373940394E+01  0.21138428967E+03  0.17300000000E+03 0. -1.
         -6    1    1    2    0  502 -0.98698182946E+02  0.70791634089E+02  0.43362570019E+03  0.48240339410E+03  0.17300000000E+03 0. -1.
</event>
<event>
 4    1  0.3065897E+000  0.1000000E+03  0.7546771E-02  0.1280296E+00
         21   -1    0    0  503  502  0.00000000000E+00  0.00000000000E+00  0.37194941342E+02  0.37194941342E+02  0.00000000000E+00 0. -1.
         21   -1    0    0  501  503 -0.00000000000E+00 -0.00000000000E+00 -0.10781866296E+04  0.10781866296E+04  0.00000000000E+00 0. -1.
          6    1    1    2  501    0 -0.49112329637E+02  0.61271385316E+02 -0.69679984884E+03  0.72223627223E+03  0.17300000000E+03 0. -1.
         -6    1    1    2    0  502  0.49112329637E+02 -0.61271385316E+02 -0.34419183946E+03  0.39314529875E+03  0.17300000000E+03 0. -1.
</event>
<event>
 4    1  0.3065897E+000  0.1000000E+03  0.7546771E-02  0.1280296E+00
         21   -1    0    0  503  502  0.00000000000E+00  0.00000000000E+00  0.20987891434E+04  0.20987891434E+04  0.00000000000E+00 0. -1.
         21   -1    0    0  501  503 -0.00000000000E+00 -0.00000000000E+00 -0.34279187083E+02  0.34279187083E+02  0.00000000000E+00 0. -1.
          6    1    1    2  501    0  0.12373460605E+03  0.93470393098E+02  0.49924557301E+03  0.55065607170E+03  0.17300000000E+03 0. -1.
         -6    1    1    2    0  502 -0.12373460605E+03 -0.93470393098E+02  0.15652643833E+04  0.15824122588E+04  0.17300000000E+03 0. -1.
</event>
<event>
 4    1  0.3065897E+000  0.1000000E+03  0.7546771E-02  0.1280296E+00
         21   -1    0    0  503  502  0.00000000000E+00  0.00000000000E+00  0.14879606001E+04  0.14879606001E+04  0.00000000000E+00 0.  1.
         21   -1    0    0  501  503 -0.00000000000E+00 -0.00000000000E+00 -0.37047747908E+02  0.37047747908E+02  0.00000000000E+00 0. -1.
          6    1    1    2  501    0 -0.13145464183E+03 -0.88250439319E+02  0.68869564235E+03  0.72752948441E+03  0.17300000000E+03 0. -1.
         -6    1    1    2    0  502  0.13145464183E+03  0.88250439319E+02  0.76221720983E+03  0.79747886358E+03  0.17300000000E+03 0.  1.
</event>
<event>
 4    1  0.3065897E+000  0.1000000E+03  0.7546771E-02  0.1280296E+00
         21   -1    0    0  503  502  0.00000000000E+00  0.00000000000E+00  0.23767709446E+03  0.23767709446E+03  0.00000000000E+00 0.  1.
         21   -1    0    0  501  503 -0.00000000000E+00 -0.00000000000E+00 -0.22739731374E+03  0.22739731374E+03  0.00000000000E+00 0. -1.
          6    1    1    2  501    0 -0.15518535663E+03  0.65659015332E+00 -0.79509096805E+00  0.23240602013E+03  0.17300000000E+03 0. -1.
         -6    1    1    2    0  502  0.15518535663E+03 -0.65659015332E+00  0.11074871684E+02  0.23266838807E+03  0.17300000000E+03 0.  1.
</event>
<event>
 4    1  0.3065897E+000  0.1000000E+03  0.7546771E-02  0.1280296E+00
         21   -1    0    0  501  502  0.00000000000E+00  0.00000000000E+00  0.15992724287E+03  0.15992724287E+03  0.00000000000E+00 0. -1.
         21   -1    0    0  502  503 -0.00000000000E+00 -0.00000000000E+00 -0.49358505422E+03  0.49358505422E+03  0.00000000000E+00 0. -1.
          6    1    1    2  501    0 -0.13296842751E+03 -0.75435172912E+02  0.19388585246E+02  0.23168078312E+03  0.17300000000E+03 0. -1.
         -6    1    1    2    0  503  0.13296842751E+03  0.75435172912E+02 -0.35304639660E+03  0.42183151397E+03  0.17300000000E+03 0. -1.
</event>
<event>
 4    1  0.3065897E+000  0.1000000E+03  0.7546771E-02  0.1280296E+00
         21   -1    0    0  501  502  0.00000000000E+00  0.00000000000E+00  0.13766638047E+04  0.13766638047E+04  0.00000000000E+00 0. -1.
         21   -1    0    0  502  503 -0.00000000000E+00 -0.00000000000E+00 -0.11040726703E+03  0.11040726703E+03  0.00000000000E+00 0. -1.
          6    1    1    2  501    0  0.58538824924E+02 -0.67245685663E+02  0.12773895851E+04  0.12921307706E+04  0.17300000000E+03 0. -1.
         -6    1    1    2    0  503 -0.58538824924E+02  0.67245685663E+02 -0.11133047405E+02  0.19494030114E+03  0.17300000000E+03 0. -1.
</event>
<event>
 4    1  0.3065897E+000  0.1000000E+03  0.7546771E-02  0.1280296E+00
         21   -1    0    0  501  502  0.00000000000E+00  0.00000000000E+00  0.49504911981E+02  0.49504911981E+02  0.00000000000E+00 0. -1.
         21   -1    0    0  502  503 -0.00000000000E+00 -0.00000000000E+00 -0.13615383491E+04  0.13615383491E+04  0.00000000000E+00 0. -1.
          6    1    1    2  501    0 -0.22199187905E+02  0.12265431269E+03 -0.25352273958E+03  0.33126977503E+03  0.17300000000E+03 0. -1.
         -6    1    1    2    0  503  0.22199187905E+02 -0.12265431269E+03 -0.10585106975E+04  0.10797734860E+04  0.17300000000E+03 0. -1.
</event>
<event>
 4    1  0.3065897E+000  0.1000000E+03  0.7546771E-02  0.1280296E+00
         21   -1    0    0  503  502  0.00000000000E+00  0.00000000000E+00  0.53387244149E+03  0.53387244149E+03  0.00000000000E+00 0.  1.
         21   -1    0    0  501  503 -0.00000000000E+00 -0.00000000000E+00 -0.92644075562E+02  0.92644075562E+02  0.00000000000E+00 0.  1.
          6    1    1    2  501    0  0.40876576480E+02  0.55565664151E+02  0.49413845840E+02  0.19268929835E+03  0.17300000000E+03 0.  1.
         -6    1    1    2    0  502 -0.40876576480E+02 -0.55565664151E+02  0.39181452009E+03  0.43382721870E+03  0.17300000000E+03 0.  1.
</event>
<event>
 4    1  0.3065897E+000  0.1000000E+03  0.7546771E-02  0.1280296E+00
         21   -1    0    0  503  502  0.00000000000E+00  0.00000000000E+00  0.91972959980E+03  0.91972959980E+03  0.00000000000E+00 0.  1.
         21   -1    0    0  501  503 -0.00000000000E+00 -0.00000000000E+00 -0.13387401084E+03  0.13387401084E+03  0.00000000000E+00 0.  1.
          6    1    1    2  501    0  0.50841648560E+02  0.12743764378E+03 -0.16501227897E+02  0.22141932346E+03  0.17300000000E+03 0.  1.
         -6    1    1    2    0  502 -0.50841648560E+02 -0.12743764378E+03  0.80235681686E+03  0.83218428719E+03  0.17300000000E+03 0.  1.
</event>
<event>
 4    1  0.3065897E+000  0.1000000E+03  0.7546771E-02  0.1280296E+00
         21   -1    0    0  503  502  0.00000000000E+00  0.00000000000E+00  0.58990606228E+03  0.58990606228E+03  0.00000000000E+00 0.  1.
         21   -1    0    0  501  503 -0.00000000000E+00 -0.00000000000E+00 -0.15321614904E+03  0.15321614904E+03  0.00000000000E+00 0.  1.
          6    1    1    2  501    0 -0.10298576641E+03 -0.21572928826E+03  0.28943864962E+03  0.41333875428E+03  0.17300000000E+03 0.  1.
         -6    1    1    2    0  502  0.10298576641E+03  0.21572928826E+03  0.14725126362E+03  0.32978345703E+03  0.17300000000E+03 0.  1.
</event>
<event>
 4    1  0.3065897E+000  0.1000000E+03  0.7546771E-02  0.1280296E+00
         21   -1    0    0  503  502  0.00000000000E+00  0.00000000000E+00  0.17684932664E+03  0.17684932664E+03  0.00000000000E+00 0. -1.
         21   -1    0    0  501  503 -0.00000000000E+00 -0.00000000000E+00 -0.22116079080E+03  0.22116079080E+03  0.00000000000E+00 0. -1.
          6    1    1    2  501    0  0.43739640993E+02  0.24411250233E+02 -0.10436178091E+03  0.20815726422E+03  0.17300000000E+03 0. -1.
         -6    1    1    2    0  502 -0.43739640993E+02 -0.24411250233E+02  0.60050316747E+02  0.18985285321E+03  0.17300000000E+03 0. -1.
</event>
<event>
 4    1  0.3065897E+000  0.1000000E+03  0.7546771E-02  0.1280296E+00
         21   -1    0    0  501  502  0.00000000000E+00  0.00000000000E+00  0.66254478533E+03  0.66254478533E+03  0.00000000000E+00 0. -1.
         21   -1    0    0  502  503 -0.00000000000E+00 -0.00000000000E+00 -0.65717395082E+02  0.65717395082E+02  0.00000000000E+00 0. -1.
          6    1    1    2  501    0  0.86522320084E+01 -0.95935264995E+02  0.41328681301E+03  0.45827221823E+03  0.17300000000E+03 0. -1.
         -6    1    1    2    0  503 -0.86522320084E+01  0.95935264995E+02  0.18354057723E+03  0.26998996218E+03  0.17300000000E+03 0. -1.
</event>
<event>
 4    1  0.3065897E+000  0.1000000E+03  0.7546771E-02  0.1280296E+00
         21   -1    0    0  503  502  0.00000000000E+00  0.00000000000E+00  0.59305446017E+02  0.59305446017E+02  0.00000000000E+00 0. -1.
         21   -1    0    0  501  503 -0.00000000000E+00 -0.00000000000E+00 -0.91514988233E+03  0.91514988233E+03  0.00000000000E+00 0. -1.
          6    1    1    2  501    0 -0.23457768940E+02  0.33074668094E+02 -0.74302562914E+03  0.76397662671E+03  0.17300000000E+03 0. -1.
         -6    1    1    2    0  502  0.23457768940E+02 -0.33074668094E+02 -0.11281880717E+03  0.21047870164E+03  0.17300000000E+03 0. -1.
</event>
<event>
 4    1  0.3065897E+000  0.1000000E+03  0.7546771E-02  0.1280296E+00
         21   -1    0    0  503  502  0.00000000000E+00  0.00000000000E+00  0.50770467655E+03  0.50770467655E+03  0.00000000000E+00 0. -1.
         21   -1    0    0  501  503 -0.00000000000E+00 -0.00000000000E+00 -0.99112842856E+02  0.99112842856E+02  0.00000000000E+00 0. -1.
          6    1    1    2  501    0 -0.13134770704E+03 -0.33161180023E+02  0.14321799333E+03  0.26228281991E+03  0.17300000000E+03 0. -1.
         -6    1    1    2    0  502  0.13134770704E+03  0.33161180023E+02  0.26537384036E+03  0.34453469949E+03  0.17300000000E+03 0. -1.
</event>
<event>
 4    1  0.3065897E+000  0.1000000E+03  0.7546771E-02  0.1280296E+00
         21   -1    0    0  503  502  0.00000000000E+00  0.00000000000E+00  0.42875041037E+03  0.42875041037E+03  0.00000000000E+00 0. -1.
         21   -1    0    0  501  503 -0.00000000000E+00 -0.00000000000E+00 -0.13486081460E+03  0.13486081460E+03  0.00000000000E+00 0. -1.
          6    1    1    2  501    0 -0.93679151790E+02 -0.13734274884E+03  0.12827397262E+03  0.27206989211E+03  0.17300000000E+03 0. -1.
         -6    1    1    2    0  502  0.93679151790E+02  0.13734274884E+03  0.16561562314E+03  0.29154133286E+03  0.17300000000E+03 0. -1.
</event>
<event>
 4    1  0.3065897E+000  0.1000000E+03  0.7546771E-02  0.1280296E+00
         21   -1    0    0  503  502  0.00000000000E+00  0.00000000000E+00  0.53760199043E+03  0.53760199043E+03  0.00000000000E+00 0. -1.
         21   -1    0    0  501  503 -0.00000000000E+00 -0.00000000000E+00 -0.19161674828E+03  0.19161674828E+03  0.00000000000E+00 0. -1.
          6    1    1    2  501    0 -0.38680877576E+02  0.21442310626E+03 -0.88076344722E+01  0.27835239035E+03  0.17300000000E+03 0. -1.
         -6    1    1    2    0  502  0.38680877576E+02 -0.21442310626E+03  0.35479287662E+03  0.45086634836E+03  0.17300000000E+03 0. -1.
</event>
<event>
 4    1  0.3065897E+000  0.1000000E+03  0.7546771E-02  0.1280296E+00
         21   -1    0    0  503  502  0.00000000000E+00  0.00000000000E+00  0.75500410514E+03  0.75500410514E+03  0.00000000000E+00 0.  1.
         21   -1    0    0  501  503 -0.00000000000E+00 -0.00000000000E+00 -0.54489766224E+02  0.54489766224E+02  0.00000000000E+00 0.  1.
          6    1    1    2  501    0  0.41396773381E+02 -0.26878989787E+02  0.16333076432E+03  0.24298582574E+03  0.17300000000E+03 0.  1.
         -6    1    1    2    0  502 -0.41396773381E+02  0.26878989787E+02  0.53718357459E+03  0.56650804562E+03  0.17300000000E+03 0.  1.
</event>
<event>
 4    1  0.3065897E+000  0.1000000E+03  0.7546771E-02  0.1280296E+00
         21   -1    0    0  503  502  0.00000000000E+00  0.00000000000E+00  0.14516395627E+03  0.14516395627E+03  0.00000000000E+00 0.  1.
         21   -1    0    0  501  503 -0.00000000000E+00 -0.00000000000E+00 -0.24780429331E+03  0.24780429331E+03  0.00000000000E+00 0.  1.
          6    1    1    2  501    0 -0.60404406785E+02 -0.36652449293E+02 -0.84907653877E+02  0.20525692214E+03  0.17300000000E+03 0.  1.
         -6    1    1    2    0  502  0.60404406785E+02  0.36652449293E+02 -0.17732683171E+02  0.18771132744E+03  0.17300000000E+03 0.  1.
</event>
<event>
 4    1  0.3065897E+000  0.1000000E+03  0.7546771E-02  0.1280296E+00
         21   -1    0    0  503  502  0.00000000000E+00  0.00000000000E+00  0.47633213462E+02  0.47633213462E+02  0.00000000000E+00 0.  1.
         21   -1    0    0  501  503 -0.00000000000E+00 -0.00000000000E+00 -0.18888951177E+04  0.18888951177E+04  0.00000000000E+00 0.  1.
          6    1    1    2  501    0  0.73648549732E+02 -0.72957047129E+02 -0.16373533710E+04  0.16497278264E+04  0.17300000000E+03 0.  1.
         -6    1    1    2    0  502 -0.73648549732E+02  0.72957047129E+02 -0.20390853316E+03  0.28680050470E+03  0.17300000000E+03 0.  1.
</event>
<event>
 4    1  0.3065897E+000  0.1000000E+03  0.7546771E-02  0.1280296E+00
         21   -1    0    0  503  502  0.00000000000E+00  0.00000000000E+00  0.14516868963E+03  0.14516868963E+03  0.00000000000E+00 0.  1.
         21   -1    0    0  501  503 -0.00000000000E+00 -0.00000000000E+00 -0.62371661704E+03  0.62371661704E+03  0.00000000000E+00 0.  1.
          6    1    1    2  501    0 -0.15074167316E+03 -0.10967444015E+02 -0.48757881065E+03  0.53898555960E+03  0.17300000000E+03 0.  1.
         -6    1    1    2    0  502  0.15074167316E+03  0.10967444015E+02  0.90308832396E+01  0.22989974708E+03  0.17300000000E+03 0.  1.
</event>
<event>
 4    1  0.3065897E+000  0.1000000E+03  0.7546771E-02  0.1280296E+00
         21   -1    0    0  503  502  0.00000000000E+00  0.00000000000E+00  0.96403486509E+03  0.96403486509E+03  0.00000000000E+00 0.  1.
         21   -1    0    0  501  503 -0.00000000000E+00 -0.00000000000E+00 -0.36887170548E+02  0.36887170548E+02  0.00000000000E+00 0. -1.
          6    1    1    2  501    0  0.23251541589E+02 -0.62350376672E+02  0.37151281374E+03  0.41518546992E+03  0.17300000000E+03 0.  1.
         -6    1    1    2    0  502 -0.23251541589E+02  0.62350376672E+02  0.55563488080E+03  0.58573656572E+03  0.17300000000E+03 0.  1.
</event>
<event>
 4    1  0.3065897E+000  0.1000000E+03  0.7546771E-02  0.1280296E+00
         21   -1    0    0  503  502  0.00000000000E+00  0.00000000000E+00  0.16542864440E+03  0.16542864440E+03  0.00000000000E+00 0.  1.
         21   -1    0    0  501  503 -0.00000000000E+00 -0.00000000000E+00 -0.19159301911E+03  0.19159301911E+03  0.00000000000E+00 0. -1.
          6    1    1    2  501    0 -0.80700446918E+01 -0.40350197053E+01  0.28071944767E+02  0.17549484633E+03  0.17300000000E+03 0.  1.
         -6    1    1    2    0  502  0.80700446918E+01  0.40350197053E+01 -0.54236319483E+02  0.18152681718E+03  0.17300000000E+03 0.  1.
</event>
<event>
 4    1  0.3065897E+000  0.1000000E+03  0.7546771E-02  0.1280296E+00
         21   -1    0    0  503  502  0.00000000000E+00  0.00000000000E+00  0.81630801981E+03  0.81630801981E+03  0.00000000000E+00 0.  1.
         21   -1    0    0  501  503 -0.00000000000E+00 -0.00000000000E+00 -0.49240704194E+02  0.49240704194E+02  0.00000000000E+00 0.  1.
          6    1    1    2  501    0  0.17382900015E+02  0.53569157036E+02  0.20171381446E+03  0.27164182804E+03  0.17300000000E+03 0. -1.
         -6    1    1    2    0  502 -0.17382900015E+02 -0.53569157036E+02  0.56535350116E+03  0.59390689596E+03  0.17300000000E+03 0. -1.
</event>
<event>
 4    1  0.3065897E+000  0.1000000E+03  0.7546771E-02  0.1280296E+00
         21   -1    0    0  503  502  0.00000000000E+00  0.00000000000E+00  0.21831723884E+03  0.21831723884E+03  0.00000000000E+00 0.  1.
         21   -1    0    0  501  503 -0.00000000000E+00 -0.00000000000E+00 -0.20876559783E+03  0.20876559783E+03  0.00000000000E+00 0.  1.
          6    1    1    2  501    0 -0.24314891054E+02 -0.11288498747E+03 -0.43339172148E+02  0.21246533403E+03  0.17300000000E+03 0. -1.
         -6    1    1    2    0  502  0.24314891054E+02  0.11288498747E+03  0.52890813155E+02  0.21461750264E+03  0.17300000000E+03 0. -1.
</event>
<event>
 4    1  0.3065897E+000  0.1000000E+03  0.7546771E-02  0.1280296E+00
         21   -1    0    0  503  502  0.00000000000E+00  0.00000000000E+00  0.74816038065E+03  0.74816038065E+03  0.00000000000E+00 0.  1.
         21   -1    0    0  501  503 -0.00000000000E+00 -0.00000000000E+00 -0.99059016793E+02  0.99059016793E+02  0.00000000000E+00 0. -1.
          6    1    1    2  501    0 -0.63748649909E+02  0.57569711633E+02  0.26030170307E+02  0.19489672093E+03  0.17300000000E+03 0. -1.
         -6    1    1    2    0  502  0.63748649909E+02 -0.57569711633E+02  0.62307119355E+03  0.65232267651E+03  0.17300000000E+03 0.  1.
</event>
<event>
 4    1  0.3065897E+000  0.1000000E+03  0.7546771E-02  0.1280296E+00
         21   -1    0    0  501  502  0.00000000000E+00  0.00000000000E+00  0.25899450281E+02  0.25899450281E+02  0.00000000000E+00 0. -1.
         21   -1    0    0  502  503 -0.00000000000E+00 -0.00000000000E+00 -0.27122601692E+04  0.27122601692E+04  0.00000000000E+00 0. -1.
          6    1    1    2  501    0  0.56488808045E+02 -0.19166630317E+03 -0.12411568315E+04  0.12689863032E+04  0.17300000000E+03 0. -1.
         -6    1    1    2    0  503 -0.56488808045E+02  0.19166630317E+03 -0.14452038874E+04  0.14691733163E+04  0.17300000000E+03 0. -1.
</event>
<event>
 4    1  0.3065897E+000  0.1000000E+03  0.7546771E-02  0.1280296E+00
         21   -1    0    0  501  502  0.00000000000E+00  0.00000000000E+00  0.82979292281E+02  0.82979292281E+02  0.00000000000E+00 0. -1.
         21   -1    0    0  502  503 -0.00000000000E+00 -0.00000000000E+00 -0.52052413091E+03  0.52052413091E+03  0.00000000000E+00 0. -1.
          6    1    1    2  501    0 -0.82110120960E+02  0.49532465288E+02 -0.12616518924E+03  0.23461072451E+03  0.17300000000E+03 0. -1.
         -6    1    1    2    0  503  0.82110120960E+02 -0.49532465288E+02 -0.31137964939E+03  0.36889269867E+03  0.17300000000E+03 0. -1.
</event>
<event>
 4    1  0.3065897E+000  0.1000000E+03  0.7546771E-02  0.1280296E+00
         21   -1    0    0  501  502  0.00000000000E+00  0.00000000000E+00  0.79035840510E+03  0.79035840510E+03  0.00000000000E+00 0.  1.
         21   -1    0    0  502  503 -0.00000000000E+00 -0.00000000000E+00 -0.20441272820E+03  0.20441272820E+03  0.00000000000E+00 0.  1.
          6    1    1    2  501    0 -0.25994469009E+03  0.12397136491E+03  0.56602640161E+03  0.65822110916E+03  0.17300000000E+03 0.  1.
         -6    1    1    2    0  503  0.25994469009E+03 -0.12397136491E+03  0.19919275290E+02  0.33655002414E+03  0.17300000000E+03 0.  1.
</event>
<event>
 4    1  0.3065897E+000  0.1000000E+03  0.7546771E-02  0.1280296E+00
         21   -1    0    0  503  502  0.00000000000E+00  0.00000000000E+00  0.27945933523E+04  0.27945933523E+04  0.00000000000E+00 0.  1.
         21   -1    0    0  501  503 -0.00000000000E+00 -0.00000000000E+00 -0.30679835099E+02  0.30679835099E+02  0.00000000000E+00 0.  1.
          6    1    1    2  501    0  0.12528229074E+03  0.16090252011E+03  0.80658811757E+03  0.84976388765E+03  0.17300000000E+03 0. -1.
         -6    1    1    2    0  502 -0.12528229074E+03 -0.16090252011E+03  0.19573253996E+04  0.19755092998E+04  0.17300000000E+03 0. -1.
</event>
<event>
 4    1  0.3065897E+000  0.1000000E+03  0.7546771E-02  0.1280296E+00
         21   -1    0    0  501  502  0.00000000000E+00  0.00000000000E+00  0.30310755120E+03  0.30310755120E+03  0.00000000000E+00 0.  1.
         21   -1    0    0  502  503 -0.00000000000E+00 -0.00000000000E+00 -0.92377506645E+03  0.92377506645E+03  0.00000000000E+00 0.  1.
          6    1    1    2  501    0 -0.46972624451E+03  0.17017147081E+03 -0.33554992075E+03  0.62619791087E+03  0.17300000000E+03 0.  1.
         -6    1    1    2    0  503  0.46972624451E+03 -0.17017147081E+03 -0.28511759451E+03  0.60068470678E+03  0.17300000000E+03 0.  1.
</event>
<event>
 4    1  0.3065897E+000  0.1000000E+03  0.7546771E-02  0.1280296E+00
         21   -1    0    0  501  502  0.00000000000E+00  0.00000000000E+00  0.52687990344E+03  0.52687990344E+03  0.00000000000E+00 0.  1.
         21   -1    0    0  502  503 -0.00000000000E+00 -0.00000000000E+00 -0.11929770253E+03  0.11929770253E+03  0.00000000000E+00 0.  1.
          6    1    1    2  501    0  0.14541414265E+03  0.10854139047E+03  0.20409514299E+03  0.32328058049E+03  0.17300000000E+03 0.  1.
         -6    1    1    2    0  503 -0.14541414265E+03 -0.10854139047E+03  0.20348705791E+03  0.32289702548E+03  0.17300000000E+03 0.  1.
</event>
<event>
 4    1  0.3065897E+000  0.1000000E+03  0.7546771E-02  0.1280296E+00
         21   -1    0    0  503  502  0.00000000000E+00  0.00000000000E+00  0.16820901995E+03  0.16820901995E+03  0.00000000000E+00 0.  1.
         21   -1    0    0  501  503 -0.00000000000E+00 -0.00000000000E+00 -0.40708739879E+03  0.40708739879E+03  0.00000000000E+00 0. -1.
          6    1    1    2  501    0 -0.15896684209E+02  0.17180881015E+03 -0.22241532212E+03  0.33040663935E+03  0.17300000000E+03 0. -1.
         -6    1    1    2    0  502  0.15896684209E+02 -0.17180881015E+03 -0.16463056723E+02  0.24488977939E+03  0.17300000000E+03 0.  1.
</event>
<event>
 4    1  0.3065897E+000  0.1000000E+03  0.7546771E-02  0.1280296E+00
         21   -1    0    0  501  502  0.00000000000E+00  0.00000000000E+00  0.23848685477E+03  0.23848685477E+03  0.00000000000E+00 0.  1.
         21   -1    0    0  502  503 -0.00000000000E+00 -0.00000000000E+00 -0.54634687819E+03  0.54634687819E+03  0.00000000000E+00 0.  1.
          6    1    1    2  501    0 -0.15983788701E+03  0.62318772459E+01  0.14335675143E+03  0.27580272768E+03  0.17300000000E+03 0.  1.
         -6    1    1    2    0  503  0.15983788701E+03 -0.62318772459E+01 -0.45121677486E+03  0.50903100527E+03  0.17300000000E+03 0.  1.
</event>
<event>
 4    1  0.3065897E+000  0.1000000E+03  0.7546771E-02  0.1280296E+00
         21   -1    0    0  501  502  0.00000000000E+00  0.00000000000E+00  0.65919329414E+03  0.65919329414E+03  0.00000000000E+00 0.  1.
         21   -1    0    0  502  503 -0.00000000000E+00 -0.00000000000E+00 -0.11197891389E+03  0.11197891389E+03  0.00000000000E+00 0.  1.
          6    1    1    2  501    0  0.10639162737E+03  0.19581326523E+02  0.52821271817E+03  0.56625107714E+03  0.17300000000E+03 0.  1.
         -6    1    1    2    0  503 -0.10639162737E+03 -0.19581326523E+02  0.19001662085E+02  0.20492113089E+03  0.17300000000E+03 0.  1.
</event>
<event>
 4    1  0.3065897E+000  0.1000000E+03  0.7546771E-02  0.1280296E+00
         21   -1    0    0  501  502  0.00000000000E+00  0.00000000000E+00  0.34199317352E+03  0.34199317352E+03  0.00000000000E+00 0. -1.
         21   -1    0    0  502  503 -0.00000000000E+00 -0.00000000000E+00 -0.16284533703E+03  0.16284533703E+03  0.00000000000E+00 0.  1.
          6    1    1    2  501    0  0.38479573916E+02 -0.46234769607E+01  0.25617580130E+03  0.31153987757E+03  0.17300000000E+03 0.  1.
         -6    1    1    2    0  503 -0.38479573916E+02  0.46234769607E+01 -0.77027964812E+02  0.19329863298E+03  0.17300000000E+03 0. -1.
</event>
<event>
 4    1  0.3065897E+000  0.1000000E+03  0.7546771E-02  0.1280296E+00
         21   -1    0    0  501  502  0.00000000000E+00  0.00000000000E+00  0.34667692591E+02  0.34667692591E+02  0.00000000000E+00 0. -1.
         21   -1    0    0  502  503 -0.00000000000E+00 -0.00000000000E+00 -0.13753803488E+04  0.13753803488E+04  0.00000000000E+00 0.  1.
          6    1    1    2  501    0  0.60525889926E+02  0.10202526590E+03 -0.47449995245E+03  0.51879836460E+03  0.17300000000E+03 0.  1.
         -6    1    1    2    0  503 -0.60525889926E+02 -0.10202526590E+03 -0.86621270379E+03  0.89124967683E+03  0.17300000000E+03 0. -1.
</event>
<event>
 4    1  0.3065897E+000  0.1000000E+03  0.7546771E-02  0.1280296E+00
         21   -1    0    0  501  502  0.00000000000E+00  0.00000000000E+00  0.21393483236E+03  0.21393483236E+03  0.00000000000E+00 0. -1.
         21   -1    0    0  502  503 -0.00000000000E+00 -0.00000000000E+00 -0.19858984996E+03  0.19858984996E+03  0.00000000000E+00 0.  1.
          6    1    1    2  501    0  0.62333212570E+02 -0.18384488980E+02  0.99020251760E+02  0.20966027064E+03  0.17300000000E+03 0.  1.
         -6    1    1    2    0  503 -0.62333212570E+02  0.18384488980E+02 -0.83675269360E+02  0.20286441168E+03  0.17300000000E+03 0. -1.
</event>
<event>
 4    1  0.3065897E+000  0.1000000E+03  0.7546771E-02  0.1280296E+00
         21   -1    0    0  503  502  0.00000000000E+00  0.00000000000E+00  0.51640787581E+03  0.51640787581E+03  0.00000000000E+00 0. -1.
         21   -1    0    0  501  503 -0.00000000000E+00 -0.00000000000E+00 -0.12925021745E+04  0.12925021745E+04  0.00000000000E+00 0. -1.
          6    1    1    2  501    0 -0.13833900398E+03 -0.37497794951E+02 -0.12576328675E+04  0.12775418561E+04  0.17300000000E+03 0. -1.
         -6    1    1    2    0  502  0.13833900398E+03  0.37497794951E+02  0.48153856877E+03  0.53136819425E+03  0.17300000000E+03 0. -1.
</event>
<event>
 4    1  0.3065897E+000  0.1000000E+03  0.7546771E-02  0.1280296E+00
         21   -1    0    0  503  502  0.00000000000E+00  0.00000000000E+00  0.49680240128E+03  0.49680240128E+03  0.00000000000E+00 0. -1.
         21   -1    0    0  501  503 -0.00000000000E+00 -0.00000000000E+00 -0.21111255173E+03  0.21111255173E+03  0.00000000000E+00 0.  1.
          6    1    1    2  501    0 -0.87747415865E+02  0.17654237298E+03 -0.64774511045E+02  0.27016949445E+03  0.17300000000E+03 0. -1.
         -6    1    1    2    0  502  0.87747415865E+02 -0.17654237298E+03  0.35046436060E+03  0.43774545857E+03  0.17300000000E+03 0. -1.
</event>
<event>
 4    1  0.3065897E+000  0.1000000E+03  0.7546771E-02  0.1280296E+00
         21   -1    0    0  503  502  0.00000000000E+00  0.00000000000E+00  0.16166680100E+04  0.16166680100E+04  0.00000000000E+00 0. -1.
         21   -1    0    0  501  503 -0.00000000000E+00 -0.00000000000E+00 -0.23023188563E+02  0.23023188563E+02  0.00000000000E+00 0.  1.
          6    1    1    2  501    0  0.19988998536E+02 -0.69326323917E+02  0.99091636595E+03  0.10084889407E+04  0.17300000000E+03 0. -1.
         -6    1    1    2    0  502 -0.19988998536E+02  0.69326323917E+02  0.60272845550E+03  0.63120225785E+03  0.17300000000E+03 0. -1.
</event>
<event>
 4    1  0.3065897E+000  0.1000000E+03  0.7546771E-02  0.1280296E+00
         21   -1    0    0  503  502  0.00000000000E+00  0.00000000000E+00  0.93755926756E+03  0.93755926756E+03  0.00000000000E+00 0. -1.
         21   -1    0    0  501  503 -0.00000000000E+00 -0.00000000000E+00 -0.46390317691E+02  0.46390317691E+02  0.00000000000E+00 0.  1.
          6    1    1    2  501    0  0.51007431680E+02  0.33660729327E+02  0.21169876473E+03  0.28014312373E+03  0.17300000000E+03 0. -1.
         -6    1    1    2    0  502 -0.51007431680E+02 -0.33660729327E+02  0.67947018513E+03  0.70380646151E+03  0.17300000000E+03 0. -1.
</event>
<event>
 4    1  0.3065897E+000  0.1000000E+03  0.7546771E-02  0.1280296E+00
         21   -1    0    0  503  502  0.00000000000E+00  0.00000000000E+00  0.13954143198E+04  0.13954143198E+04  0.00000000000E+00 0.  1.
         21   -1    0    0  501  503 -0.00000000000E+00 -0.00000000000E+00 -0.34406251774E+02  0.34406251774E+02  0.00000000000E+00 0. -1.
          6    1    1    2  501    0 -0.80764996696E+02  0.99460748896E+02  0.54730821256E+03  0.58812473575E+03  0.17300000000E+03 0. -1.
         -6    1    1    2    0  502  0.80764996696E+02 -0.99460748896E+02  0.81369985544E+03  0.84169583580E+03  0.17300000000E+03 0.  1.
</event>
<event>
 4    1  0.3065897E+000  0.1000000E+03  0.7546771E-02  0.1280296E+00
         21   -1    0    0  503  502  0.00000000000E+00  0.00000000000E+00  0.50900775335E+03  0.50900775335E+03  0.00000000000E+00 0.  1.
         21   -1    0    0  501  503 -0.00000000000E+00 -0.00000000000E+00 -0.11972243701E+03  0.11972243701E+03  0.00000000000E+00 0. -1.
          6    1    1    2  501    0  0.63212612885E+02 -0.58367322103E+02 -0.10229908739E+01  0.19321652421E+03  0.17300000000E+03 0. -1.
         -6    1    1    2    0  502 -0.63212612885E+02  0.58367322103E+02  0.39030830722E+03  0.43551366614E+03  0.17300000000E+03 0.  1.
</event>
<event>
 4    1  0.3065897E+000  0.1000000E+03  0.7546771E-02  0.1280296E+00
         21   -1    0    0  503  502  0.00000000000E+00  0.00000000000E+00  0.11444742663E+03  0.11444742663E+03  0.00000000000E+00 0.  1.
         21   -1    0    0  501  503 -0.00000000000E+00 -0.00000000000E+00 -0.36143147556E+03  0.36143147556E+03  0.00000000000E+00 0. -1.
          6    1    1    2  501    0 -0.53283446032E+02  0.69027512136E+02 -0.19591260921E+03  0.27552617571E+03  0.17300000000E+03 0. -1.
         -6    1    1    2    0  502  0.53283446032E+02 -0.69027512136E+02 -0.51071439717E+02  0.20035272648E+03  0.17300000000E+03 0.  1.
</event>
<event>
 4    1  0.3065897E+000  0.1000000E+03  0.7546771E-02  0.1280296E+00
         21   -1    0    0  501  502  0.00000000000E+00  0.00000000000E+00  0.91742111807E+02  0.91742111807E+02  0.00000000000E+00 0. -1.
         21   -1    0    0  502  503 -0.00000000000E+00 -0.00000000000E+00 -0.62562526884E+03  0.62562526884E+03  0.00000000000E+00 0.  1.
          6    1    1    2  501    0  0.12294669316E+03 -0.23984994134E+02 -0.10447303771E+03  0.23777044583E+03  0.17300000000E+03 0. -1.
         -6    1    1    2    0  503 -0.12294669316E+03  0.23984994134E+02 -0.42941011933E+03  0.47959693481E+03  0.17300000000E+03 0.  1.
</event>
<event>
 4    1  0.3065897E+000  0.1000000E+03  0.7546771E-02  0.1280296E+00
         21   -1    0    0  501  502  0.00000000000E+00  0.00000000000E+00  0.12609249923E+04  0.12609249923E+04  0.00000000000E+00 0.  1.
         21   -1    0    0  502  503 -0.00000000000E+00 -0.00000000000E+00 -0.11058625999E+03  0.11058625999E+03  0.00000000000E+00 0.  1.
          6    1    1    2  501    0 -0.71045941299E+02  0.29437937175E+02  0.11662538542E+04  0.11815207025E+04  0.17300000000E+03 0.  1.
         -6    1    1    2    0  503  0.71045941299E+02 -0.29437937175E+02 -0.15915121883E+02  0.18999054983E+03  0.17300000000E+03 0.  1.
</event>
<event>
 4    1  0.3065897E+000  0.1000000E+03  0.7546771E-02  0.1280296E+00
         21   -1    0    0  501  502  0.00000000000E+00  0.00000000000E+00  0.95336343410E+02  0.95336343410E+02  0.00000000000E+00 0.  1.
         21   -1    0    0  502  503 -0.00000000000E+00 -0.00000000000E+00 -0.73286442893E+03  0.73286442893E+03  0.00000000000E+00 0.  1.
          6    1    1    2  501    0 -0.12082812193E+03 -0.51229518980E+02 -0.82646755022E+02  0.23234324776E+03  0.17300000000E+03 0.  1.
         -6    1    1    2    0  503  0.12082812193E+03  0.51229518980E+02 -0.55488133050E+03  0.59585752458E+03  0.17300000000E+03 0.  1.
</event>
<event>
 4    1  0.3065897E+000  0.1000000E+03  0.7546771E-02  0.1280296E+00
         21   -1    0    0  501  502  0.00000000000E+00  0.00000000000E+00  0.93282806463E+03  0.93282806463E+03  0.00000000000E+00 0.  1.
         21   -1    0    0  502  503 -0.00000000000E+00 -0.00000000000E+00 -0.95549677766E+02  0.95549677766E+02  0.00000000000E+00 0.  1.
          6    1    1    2  501    0  0.72997924120E+02  0.18846348404E+03  0.65197816659E+03  0.70416738880E+03  0.17300000000E+03 0.  1.
         -6    1    1    2    0  503 -0.72997924120E+02 -0.18846348404E+03  0.18530022027E+03  0.32421035359E+03  0.17300000000E+03 0.  1.
</event>
<event>
 4    1  0.3065897E+000  0.1000000E+03  0.7546771E-02  0.1280296E+00
         21   -1    0    0  501  502  0.00000000000E+00  0.00000000000E+00  0.11402042258E+03  0.11402042258E+03  0.00000000000E+00 0.  1.
         21   -1    0    0  502  503 -0.00000000000E+00 -0.00000000000E+00 -0.15987897546E+04  0.15987897546E+04  0.00000000000E+00 0.  1.
          6    1    1    2  501    0 -0.34596930599E+03  0.12098411687E+03 -0.10117461248E+04  0.10899041876E+04  0.17300000000E+03 0.  1.
         -6    1    1    2    0  503  0.34596930599E+03 -0.12098411687E+03 -0.47302320720E+03  0.62290598951E+03  0.17300000000E+03 0.  1.
</event>
<event>
 4    1  0.3065897E+000  0.1000000E+03  0.7546771E-02  0.1280296E+00
         21   -1    0    0  501  502  0.00000000000E+00  0.00000000000E+00  0.42765212868E+03  0.42765212868E+03  0.00000000000E+00 0. -1.
         21   -1    0    0  502  503 -0.00000000000E+00 -0.00000000000E+00 -0.79579237224E+02  0.79579237224E+02  0.00000000000E+00 0. -1.
          6    1    1    2  501    0 -0.14537896995E+02 -0.28188676525E+02  0.25054694095E+03  0.30611880300E+03  0.17300000000E+03 0. -1.
         -6    1    1    2    0  503  0.14537896995E+02  0.28188676525E+02  0.97525950504E+02  0.20111256290E+03  0.17300000000E+03 0. -1.
</event>
<event>
 4    1  0.3065897E+000  0.1000000E+03  0.7546771E-02  0.1280296E+00
         21   -1    0    0  501  502  0.00000000000E+00  0.00000000000E+00  0.51206198520E+03  0.51206198520E+03  0.00000000000E+00 0. -1.
         21   -1    0    0  502  503 -0.00000000000E+00 -0.00000000000E+00 -0.10343528956E+03  0.10343528956E+03  0.00000000000E+00 0. -1.
          6    1    1    2  501    0  0.98241414603E+02 -0.13216850031E+02  0.35800685219E+03  0.40978526924E+03  0.17300000000E+03 0. -1.
         -6    1    1    2    0  503 -0.98241414603E+02  0.13216850031E+02  0.50619843447E+02  0.20571200553E+03  0.17300000000E+03 0. -1.
</event>
<event>
 4    1  0.3065897E+000  0.1000000E+03  0.7546771E-02  0.1280296E+00
         21   -1    0    0  501  502  0.00000000000E+00  0.00000000000E+00  0.49784523859E+02  0.49784523859E+02  0.00000000000E+00 0. -1.
         21   -1    0    0  502  503 -0.00000000000E+00 -0.00000000000E+00 -0.94189399744E+03  0.94189399744E+03  0.00000000000E+00 0. -1.
          6    1    1    2  501    0  0.18950389171E+02  0.11398099451E+03 -0.58366922950E+03  0.61963663047E+03  0.17300000000E+03 0. -1.
         -6    1    1    2    0  503 -0.18950389171E+02 -0.11398099451E+03 -0.30844024408E+03  0.37204189083E+03  0.17300000000E+03 0. -1.
</event>
<event>
 4    1  0.3065897E+000  0.1000000E+03  0.7546771E-02  0.1280296E+00
         21   -1    0    0  501  502  0.00000000000E+00  0.00000000000E+00  0.14913221822E+02  0.14913221822E+02  0.00000000000E+00 0. -1.
         21   -1    0    0  502  503 -0.00000000000E+00 -0.00000000000E+00 -0.24649856067E+04  0.24649856067E+04  0.00000000000E+00 0.  1.
          6    1    1    2  501    0  0.71147524569E+02  0.36844150289E+01 -0.95400808099E+03  0.97218103446E+03  0.17300000000E+03 0. -1.
         -6    1    1    2    0  503 -0.71147524569E+02 -0.36844150289E+01 -0.14960643039E+04  0.15077177940E+04  0.17300000000E+03 0.  1.
</event>
<event>
 4    1  0.3065897E+000  0.1000000E+03  0.7546771E-02  0.1280296E+00
         21   -1    0    0  501  502  0.00000000000E+00  0.00000000000E+00  0.57942103356E+02  0.57942103356E+02  0.00000000000E+00 0. -1.
         21   -1    0    0  502  503 -0.00000000000E+00 -0.00000000000E+00 -0.78879082285E+03  0.78879082285E+03  0.00000000000E+00 0.  1.
          6    1    1    2  501    0 -0.16641302636E+02 -0.12013327825E+03 -0.30075920184E+03  0.36755140455E+03  0.17300000000E+03 0. -1.
         -6    1    1    2    0  503  0.16641302636E+02  0.12013327825E+03 -0.43008951765E+03  0.47918152165E+03  0.17300000000E+03 0.  1.
</event>
<event>
 4    1  0.3065897E+000  0.1000000E+03  0.7546771E-02  0.1280296E+00
         21   -1    0    0  501  502  0.00000000000E+00  0.00000000000E+00  0.21464251987E+03  0.21464251987E+03  0.00000000000E+00 0. -1.
         21   -1    0    0  502  503 -0.00000000000E+00 -0.00000000000E+00 -0.33004476018E+03  0.33004476018E+03  0.00000000000E+00 0.  1.
          6    1    1    2  501    0  0.11287512508E+03  0.17424877433E+02  0.11311448471E+03  0.23615314283E+03  0.17300000000E+03 0. -1.
         -6    1    1    2    0  503 -0.11287512508E+03 -0.17424877433E+02 -0.22851672502E+03  0.30853413722E+03  0.17300000000E+03 0.  1.
</event>
<event>
 4    1  0.3065897E+000  0.1000000E+03  0.7546771E-02  0.1280296E+00
         21   -1    0    0  501  502  0.00000000000E+00  0.00000000000E+00  0.12683479071E+04  0.12683479071E+04  0.00000000000E+00 0. -1.
         21   -1    0    0  502  503 -0.00000000000E+00 -0.00000000000E+00 -0.34290746273E+02  0.34290746273E+02  0.00000000000E+00 0.  1.
          6    1    1    2  501    0  0.97787183680E+01 -0.75922263427E+02  0.89114706041E+03  0.91100598060E+03  0.17300000000E+03 0. -1.
         -6    1    1    2    0  503 -0.97787183680E+01  0.75922263427E+02  0.34291010046E+03  0.39163267281E+03  0.17300000000E+03 0.  1.
</event>
<event>
 4    1  0.3065897E+000  0.1000000E+03  0.7546771E-02  0.1280296E+00
         21   -1    0    0  501  502  0.00000000000E+00  0.00000000000E+00  0.23856308638E+03  0.23856308638E+03  0.00000000000E+00 0. -1.
         21   -1    0    0  502  503 -0.00000000000E+00 -0.00000000000E+00 -0.27240735083E+03  0.27240735083E+03  0.00000000000E+00 0. -1.
          6    1    1    2  501    0  0.71987200569E+02 -0.70077633487E+02  0.14142656649E+03  0.24499694992E+03  0.17300000000E+03 0. -1.
         -6    1    1    2    0  503 -0.71987200569E+02  0.70077633487E+02 -0.17527083094E+03  0.26597348729E+03  0.17300000000E+03 0. -1.
</event>
<event>
 4    1  0.3065897E+000  0.1000000E+03  0.7546771E-02  0.1280296E+00
         21   -1    0    0  501  502  0.00000000000E+00  0.00000000000E+00  0.94363783047E+02  0.94363783047E+02  0.00000000000E+00 0. -1.
         21   -1    0    0  502  503 -0.00000000000E+00 -0.00000000000E+00 -0.11986128586E+04  0.11986128586E+04  0.00000000000E+00 0. -1.
          6    1    1    2  501    0 -0.19236859266E+03  0.49694800797E+02 -0.15027248040E+03  0.30329204908E+03  0.17300000000E+03 0. -1.
         -6    1    1    2    0  503  0.19236859266E+03 -0.49694800797E+02 -0.95397659515E+03  0.98968459257E+03  0.17300000000E+03 0. -1.
</event>
<event>
 4    1  0.3065897E+000  0.1000000E+03  0.7546771E-02  0.1280296E+00
         21   -1    0    0  501  502  0.00000000000E+00  0.00000000000E+00  0.24616087077E+03  0.24616087077E+03  0.00000000000E+00 0.  1.
         21   -1    0    0  502  503 -0.00000000000E+00 -0.00000000000E+00 -0.20610934156E+03  0.20610934156E+03  0.00000000000E+00 0.  1.
          6    1    1    2  501    0  0.12472967637E+03  0.70219442048E+02  0.37950959393E+02  0.22772250114E+03  0.17300000000E+03 0. -1.
         -6    1    1    2    0  503 -0.12472967637E+03 -0.70219442048E+02  0.21005698195E+01  0.22454771119E+03  0.17300000000E+03 0. -1.
</event>
<event>
 4    1  0.3065897E+000  0.1000000E+03  0.7546771E-02  0.1280296E+00
         21   -1    0    0  501  502  0.00000000000E+00  0.00000000000E+00  0.96245458809E+03  0.96245458809E+03  0.00000000000E+00 0.  1.
         21   -1    0    0  502  503 -0.00000000000E+00 -0.00000000000E+00 -0.40279442386E+02  0.40279442386E+02  0.00000000000E+00 0.  1.
          6    1    1    2  501    0  0.37259664450E+02  0.72180369018E+02  0.58160031723E+03  0.61219785794E+03  0.17300000000E+03 0. -1.
         -6    1    1    2    0  503 -0.37259664450E+02 -0.72180369018E+02  0.34057482847E+03  0.39053617253E+03  0.17300000000E+03 0. -1.
</event>
<event>
 4    1  0.3065897E+000  0.1000000E+03  0.7546771E-02  0.1280296E+00
         21   -1    0    0  501  502  0.00000000000E+00  0.00000000000E+00  0.76253253113E+03  0.76253253113E+03  0.00000000000E+00 0.  1.
         21   -1    0    0  502  503 -0.00000000000E+00 -0.00000000000E+00 -0.43217688714E+02  0.43217688714E+02  0.00000000000E+00 0.  1.
          6    1    1    2  501    0 -0.45638153908E+02  0.78171686482E+01  0.29375049296E+03  0.34403822656E+03  0.17300000000E+03 0. -1.
         -6    1    1    2    0  503  0.45638153908E+02 -0.78171686482E+01  0.42556434946E+03  0.46171199329E+03  0.17300000000E+03 0. -1.
</event>
<event>
 4    1  0.3065897E+000  0.1000000E+03  0.7546771E-02  0.1280296E+00
         21   -1    0    0  501  502  0.00000000000E+00  0.00000000000E+00  0.79222146297E+03  0.79222146297E+03  0.00000000000E+00 0.  1.
         21   -1    0    0  502  503 -0.00000000000E+00 -0.00000000000E+00 -0.11273176954E+03  0.11273176954E+03  0.00000000000E+00 0. -1.
          6    1    1    2  501    0 -0.10296022832E+03 -0.40526960338E+02  0.66846576992E+03  0.69929874066E+03  0.17300000000E+03 0.  1.
         -6    1    1    2    0  503  0.10296022832E+03  0.40526960338E+02  0.11023923507E+02  0.20565449185E+03  0.17300000000E+03 0. -1.
</event>
<event>
 4    1  0.3065897E+000  0.1000000E+03  0.7546771E-02  0.1280296E+00
         21   -1    0    0  503  502  0.00000000000E+00  0.00000000000E+00  0.40046764769E+03  0.40046764769E+03  0.00000000000E+00 0.  1.
         21   -1    0    0  501  503 -0.00000000000E+00 -0.00000000000E+00 -0.18706967220E+03  0.18706967220E+03  0.00000000000E+00 0.  1.
          6    1    1    2  501    0 -0.77029867413E+02  0.85721152399E+01 -0.10520391289E+03  0.21680393198E+03  0.17300000000E+03 0.  1.
         -6    1    1    2    0  502  0.77029867413E+02 -0.85721152399E+01  0.31860188838E+03  0.37073338791E+03  0.17300000000E+03 0.  1.
</event>
<event>
 4    1  0.3065897E+000  0.1000000E+03  0.7546771E-02  0.1280296E+00
         21   -1    0    0  501  502  0.00000000000E+00  0.00000000000E+00  0.15371632168E+04  0.15371632168E+04  0.00000000000E+00 0.  1.
         21   -1    0    0  502  503 -0.00000000000E+00 -0.00000000000E+00 -0.35798908267E+02  0.35798908267E+02  0.00000000000E+00 0.  1.
          6    1    1    2  501    0 -0.27435488245E+02 -0.14590405002E+03  0.56524878353E+03  0.60948821572E+03  0.17300000000E+03 0.  1.
         -6    1    1    2    0  503  0.27435488245E+02  0.14590405002E+03  0.93611552500E+03  0.96347390934E+03  0.17300000000E+03 0.  1.
</event>
<event>
 4    1  0.3065897E+000  0.1000000E+03  0.7546771E-02  0.1280296E+00
         21   -1    0    0  501  502  0.00000000000E+00  0.00000000000E+00  0.25003137113E+03  0.25003137113E+03  0.00000000000E+00 0.  1.
         21   -1    0    0  502  503 -0.00000000000E+00 -0.00000000000E+00 -0.69547824090E+03  0.69547824090E+03  0.00000000000E+00 0.  1.
          6    1    1    2  501    0 -0.23044325046E+03  0.19157969447E+03 -0.48654982883E+03  0.59704824508E+03  0.17300000000E+03 0.  1.
         -6    1    1    2    0  503  0.23044325046E+03 -0.19157969447E+03  0.41102959055E+02  0.34846136695E+03  0.17300000000E+03 0.  1.
</event>
<event>
 4    1  0.3065897E+000  0.1000000E+03  0.7546771E-02  0.1280296E+00
         21   -1    0    0  503  502  0.00000000000E+00  0.00000000000E+00  0.14583921059E+03  0.14583921059E+03  0.00000000000E+00 0.  1.
         21   -1    0    0  501  503 -0.00000000000E+00 -0.00000000000E+00 -0.83826076036E+03  0.83826076036E+03  0.00000000000E+00 0.  1.
          6    1    1    2  501    0  0.40260565944E+02  0.76533569980E+02 -0.75612504452E+03  0.78046933537E+03  0.17300000000E+03 0.  1.
         -6    1    1    2    0  502 -0.40260565944E+02 -0.76533569980E+02  0.63703494741E+02  0.20363063558E+03  0.17300000000E+03 0.  1.
</event>
<event>
 4    1  0.3065897E+000  0.1000000E+03  0.7546771E-02  0.1280296E+00
         21   -1    0    0  503  502  0.00000000000E+00  0.00000000000E+00  0.16194228885E+03  0.16194228885E+03  0.00000000000E+00 0.  1.
         21   -1    0    0  501  503 -0.00000000000E+00 -0.00000000000E+00 -0.82786624339E+03  0.82786624339E+03  0.00000000000E+00 0.  1.
          6    1    1    2  501    0  0.30155693035E+03 -0.59022659517E+02 -0.19972225200E+03  0.40526316699E+03  0.17300000000E+03 0.  1.
         -6    1    1    2    0  502 -0.30155693035E+03  0.59022659517E+02 -0.46620170254E+03  0.58454536525E+03  0.17300000000E+03 0.  1.
</event>
<event>
 4    1  0.3065897E+000  0.1000000E+03  0.7546771E-02  0.1280296E+00
         21   -1    0    0  501  502  0.00000000000E+00  0.00000000000E+00  0.12233151063E+03  0.12233151063E+03  0.00000000000E+00 0.  1.
         21   -1    0    0  502  503 -0.00000000000E+00 -0.00000000000E+00 -0.30103841539E+03  0.30103841539E+03  0.00000000000E+00 0. -1.
          6    1    1    2  501    0  0.45858278766E+02  0.68574394142E+02 -0.78769857379E+02  0.20721756609E+03  0.17300000000E+03 0.  1.
         -6    1    1    2    0  503 -0.45858278766E+02 -0.68574394142E+02 -0.99937047384E+02  0.21615235993E+03  0.17300000000E+03 0. -1.
</event>
<event>
 4    1  0.3065897E+000  0.1000000E+03  0.7546771E-02  0.1280296E+00
         21   -1    0    0  501  502  0.00000000000E+00  0.00000000000E+00  0.14435925571E+04  0.14435925571E+04  0.00000000000E+00 0.  1.
         21   -1    0    0  502  503 -0.00000000000E+00 -0.00000000000E+00 -0.56514138720E+02  0.56514138720E+02  0.00000000000E+00 0. -1.
          6    1    1    2  501    0  0.12532342028E+03  0.12615341953E+03  0.10652219132E+04  0.10937309401E+04  0.17300000000E+03 0.  1.
         -6    1    1    2    0  503 -0.12532342028E+03 -0.12615341953E+03  0.32185650520E+03  0.40637575576E+03  0.17300000000E+03 0. -1.
</event>
<event>
 4    1  0.3065897E+000  0.1000000E+03  0.7546771E-02  0.1280296E+00
         21   -1    0    0  503  502  0.00000000000E+00  0.00000000000E+00  0.82573769722E+02  0.82573769722E+02  0.00000000000E+00 0.  1.
         21   -1    0    0  501  503 -0.00000000000E+00 -0.00000000000E+00 -0.13910466665E+04  0.13910466665E+04  0.00000000000E+00 0. -1.
          6    1    1    2  501    0 -0.24654906535E+03 -0.32278388656E+02 -0.98470645551E+03  0.10302446989E+04  0.17300000000E+03 0. -1.
         -6    1    1    2    0  502  0.24654906535E+03  0.32278388656E+02 -0.32376644130E+03  0.44337573740E+03  0.17300000000E+03 0.  1.
</event>
<event>
 4    1  0.3065897E+000  0.1000000E+03  0.7546771E-02  0.1280296E+00
         21   -1    0    0  501  502  0.00000000000E+00  0.00000000000E+00  0.48589842609E+03  0.48589842609E+03  0.00000000000E+00 0. -1.
         21   -1    0    0  502  503 -0.00000000000E+00 -0.00000000000E+00 -0.19384188612E+03  0.19384188612E+03  0.00000000000E+00 0. -1.
          6    1    1    2  501    0  0.14151787891E+03  0.53500952636E+02  0.37127213004E+03  0.43664820684E+03  0.17300000000E+03 0. -1.
         -6    1    1    2    0  503 -0.14151787891E+03 -0.53500952636E+02 -0.79215590074E+02  0.24309210538E+03  0.17300000000E+03 0. -1.
</event>
<event>
 4    1  0.3065897E+000  0.1000000E+03  0.7546771E-02  0.1280296E+00
         21   -1    0    0  501  502  0.00000000000E+00  0.00000000000E+00  0.10881270031E+03  0.10881270031E+03  0.00000000000E+00 0. -1.
         21   -1    0    0  502  503 -0.00000000000E+00 -0.00000000000E+00 -0.28715891124E+03  0.28715891124E+03  0.00000000000E+00 0. -1.
          6    1    1    2  501    0 -0.32829894903E+02  0.83553812118E+01 -0.10377328232E+03  0.20456174745E+03  0.17300000000E+03 0. -1.
         -6    1    1    2    0  503  0.32829894903E+02 -0.83553812118E+01 -0.74572928606E+02  0.19140986410E+03  0.17300000000E+03 0. -1.
</event>
<event>
 4    1  0.3065897E+000  0.1000000E+03  0.7546771E-02  0.1280296E+00
         21   -1    0    0  501  502  0.00000000000E+00  0.00000000000E+00  0.12269628577E+03  0.12269628577E+03  0.00000000000E+00 0. -1.
         21   -1    0    0  502  503 -0.00000000000E+00 -0.00000000000E+00 -0.32390189191E+03  0.32390189191E+03  0.00000000000E+00 0. -1.
          6    1    1    2  501    0  0.95909366967E+02  0.16353836433E+02 -0.12145342004E+03  0.23269290466E+03  0.17300000000E+03 0. -1.
         -6    1    1    2    0  503 -0.95909366967E+02 -0.16353836433E+02 -0.79752186107E+02  0.21390527302E+03  0.17300000000E+03 0. -1.
</event>
<event>
 4    1  0.3065897E+000  0.1000000E+03  0.7546771E-02  0.1280296E+00
         21   -1    0    0  501  502  0.00000000000E+00  0.00000000000E+00  0.89625672442E+02  0.89625672442E+02  0.00000000000E+00 0.  1.
         21   -1    0    0  502  503 -0.00000000000E+00 -0.00000000000E+00 -0.36316607794E+03  0.36316607794E+03  0.00000000000E+00 0. -1.
          6    1    1    2  501    0 -0.16154334761E+02  0.46180435211E+02 -0.15565213024E+03  0.23780281911E+03  0.17300000000E+03 0.  1.
         -6    1    1    2    0  503  0.16154334761E+02 -0.46180435211E+02 -0.11788827526E+03  0.21498893128E+03  0.17300000000E+03 0. -1.
</event>
<event>
 4    1  0.3065897E+000  0.1000000E+03  0.7546771E-02  0.1280296E+00
         21   -1    0    0  503  502  0.00000000000E+00  0.00000000000E+00  0.27843511869E+03  0.27843511869E+03  0.00000000000E+00 0.  1.
         21   -1    0    0  501  503 -0.00000000000E+00 -0.00000000000E+00 -0.12162241417E+03  0.12162241417E+03  0.00000000000E+00 0. -1.
          6    1    1    2  501    0  0.40618722870E+01 -0.52977134836E+02  0.11465165746E+03  0.21423603380E+03  0.17300000000E+03 0.  1.
         -6    1    1    2    0  502 -0.40618722870E+01  0.52977134836E+02  0.42161047066E+02  0.18582149906E+03  0.17300000000E+03 0. -1.
</event>
<event>
 4    1  0.3065897E+000  0.1000000E+03  0.7546771E-02  0.1280296E+00
         21   -1    0    0  501  502  0.00000000000E+00  0.00000000000E+00  0.97498652419E+02  0.97498652419E+02  0.00000000000E+00 0. -1.
         21   -1    0    0  502  503 -0.00000000000E+00 -0.00000000000E+00 -0.50520975764E+03  0.50520975764E+03  0.00000000000E+00 0.  1.
          6    1    1    2  501    0  0.95665397607E+02 -0.96715637790E+01 -0.67512183960E+02  0.20912269707E+03  0.17300000000E+03 0. -1.
         -6    1    1    2    0  503 -0.95665397607E+02  0.96715637790E+01 -0.34019892126E+03  0.39358571299E+03  0.17300000000E+03 0.  1.
</event>
<event>
 4    1  0.3065897E+000  0.1000000E+03  0.7546771E-02  0.1280296E+00
         21   -1    0    0  501  502  0.00000000000E+00  0.00000000000E+00  0.18917248132E+03  0.18917248132E+03  0.00000000000E+00 0. -1.
         21   -1    0    0  502  503 -0.00000000000E+00 -0.00000000000E+00 -0.49933137094E+03  0.49933137094E+03  0.00000000000E+00 0.  1.
          6    1    1    2  501    0  0.75833539429E+02  0.82956962756E+02  0.10009019428E+03  0.22930248661E+03  0.17300000000E+03 0. -1.
         -6    1    1    2    0  503 -0.75833539429E+02 -0.82956962756E+02 -0.41024908390E+03  0.45920136565E+03  0.17300000000E+03 0.  1.
</event>
<event>
 4    1  0.3065897E+000  0.1000000E+03  0.7546771E-02  0.1280296E+00
         21   -1    0    0  501  502  0.00000000000E+00  0.00000000000E+00  0.20728903859E+04  0.20728903859E+04  0.00000000000E+00 0. -1.
         21   -1    0    0  502  503 -0.00000000000E+00 -0.00000000000E+00 -0.14865804110E+03  0.14865804110E+03  0.00000000000E+00 0.  1.
          6    1    1    2  501    0  0.16653020421E+03 -0.49886827127E+03  0.10426781264E+04  0.11805543343E+04  0.17300000000E+03 0. -1.
         -6    1    1    2    0  503 -0.16653020421E+03  0.49886827127E+03  0.88155421837E+03  0.10409940926E+04  0.17300000000E+03 0.  1.
</event>
<event>
 4    1  0.3065897E+000  0.1000000E+03  0.7546771E-02  0.1280296E+00
         21   -1    0    0  501  502  0.00000000000E+00  0.00000000000E+00  0.35295168770E+03  0.35295168770E+03  0.00000000000E+00 0. -1.
         21   -1    0    0  502  503 -0.00000000000E+00 -0.00000000000E+00 -0.10420763790E+03  0.10420763790E+03  0.00000000000E+00 0.  1.
          6    1    1    2  501    0 -0.27043640579E+02 -0.40083965588E+02  0.20444232455E+03  0.27214655401E+03  0.17300000000E+03 0. -1.
         -6    1    1    2    0  503  0.27043640579E+02  0.40083965588E+02  0.44301725247E+02  0.18501277159E+03  0.17300000000E+03 0.  1.
</event>
<event>
 4    1  0.3065897E+000  0.1000000E+03  0.7546771E-02  0.1280296E+00
         21   -1    0    0  503  502  0.00000000000E+00  0.00000000000E+00  0.15286403760E+04  0.15286403760E+04  0.00000000000E+00 0. -1.
         21   -1    0    0  501  503 -0.00000000000E+00 -0.00000000000E+00 -0.35656458912E+02  0.35656458912E+02  0.00000000000E+00 0.  1.
          6    1    1    2  501    0  0.54162588265E+02 -0.14542019685E+03  0.67185874146E+03  0.71091756772E+03  0.17300000000E+03 0.  1.
         -6    1    1    2    0  502 -0.54162588265E+02  0.14542019685E+03  0.82112517564E+03  0.85337926720E+03  0.17300000000E+03 0. -1.
</event>
<event>
 4    1  0.3065897E+000  0.1000000E+03  0.7546771E-02  0.1280296E+00
         21   -1    0    0  503  502  0.00000000000E+00  0.00000000000E+00  0.14887017972E+04  0.14887017972E+04  0.00000000000E+00 0. -1.
         21   -1    0    0  501  503 -0.00000000000E+00 -0.00000000000E+00 -0.51203233920E+02  0.51203233920E+02  0.00000000000E+00 0.  1.
          6    1    1    2  501    0 -0.17759789667E+03  0.11157157414E+03  0.58476917209E+03  0.64488232545E+03  0.17300000000E+03 0.  1.
         -6    1    1    2    0  502  0.17759789667E+03 -0.11157157414E+03  0.85272939123E+03  0.89502270571E+03  0.17300000000E+03 0. -1.
</event>
<event>
 4    1  0.3065897E+000  0.1000000E+03  0.7546771E-02  0.1280296E+00
         21   -1    0    0  503  502  0.00000000000E+00  0.00000000000E+00  0.79200577607E+03  0.79200577607E+03  0.00000000000E+00 0. -1.
         21   -1    0    0  501  503 -0.00000000000E+00 -0.00000000000E+00 -0.55077186974E+02  0.55077186974E+02  0.00000000000E+00 0.  1.
          6    1    1    2  501    0 -0.85942272578E+02  0.24374938734E+02  0.21519715147E+03  0.29020514443E+03  0.17300000000E+03 0.  1.
         -6    1    1    2    0  502  0.85942272578E+02 -0.24374938734E+02  0.52173143762E+03  0.55687781861E+03  0.17300000000E+03 0. -1.
</event>
<event>
 4    1  0.3065897E+000  0.1000000E+03  0.7546771E-02  0.1280296E+00
         21   -1    0    0  503  502  0.00000000000E+00  0.00000000000E+00  0.36372328056E+03  0.36372328056E+03  0.00000000000E+00 0. -1.
         21   -1    0    0  501  503 -0.00000000000E+00 -0.00000000000E+00 -0.46433232980E+03  0.46433232980E+03  0.00000000000E+00 0.  1.
          6    1    1    2  501    0  0.24139357268E+03 -0.14382747256E+03 -0.29708646337E+03  0.44401189794E+03  0.17300000000E+03 0.  1.
         -6    1    1    2    0  502 -0.24139357268E+03  0.14382747256E+03  0.19647741413E+03  0.38404371243E+03  0.17300000000E+03 0. -1.
</event>
<event>
 4    1  0.3065897E+000  0.1000000E+03  0.7546771E-02  0.1280296E+00
         21   -1    0    0  503  502  0.00000000000E+00  0.00000000000E+00  0.12589794933E+03  0.12589794933E+03  0.00000000000E+00 0. -1.
         21   -1    0    0  501  503 -0.00000000000E+00 -0.00000000000E+00 -0.35329224704E+03  0.35329224704E+03  0.00000000000E+00 0.  1.
          6    1    1    2  501    0  0.35877774585E+02  0.78785936591E+02 -0.20912172527E+03  0.28487775360E+03  0.17300000000E+03 0.  1.
         -6    1    1    2    0  502 -0.35877774585E+02 -0.78785936591E+02 -0.18272572435E+02  0.19431244277E+03  0.17300000000E+03 0. -1.
</event>
<event>
 4    1  0.3065897E+000  0.1000000E+03  0.7546771E-02  0.1280296E+00
         21   -1    0    0  503  502  0.00000000000E+00  0.00000000000E+00  0.13601805339E+03  0.13601805339E+03  0.00000000000E+00 0. -1.
         21   -1    0    0  501  503 -0.00000000000E+00 -0.00000000000E+00 -0.50205738706E+03  0.50205738706E+03  0.00000000000E+00 0. -1.
          6    1    1    2  501    0 -0.37522285687E+02  0.38848144706E+02 -0.41286246074E+03  0.45088968912E+03  0.17300000000E+03 0. -1.
         -6    1    1    2    0  502  0.37522285687E+02 -0.38848144706E+02  0.46823127063E+02  0.18718575132E+03  0.17300000000E+03 0. -1.
</event>
<event>
 4    1  0.3065897E+000  0.1000000E+03  0.7546771E-02  0.1280296E+00
         21   -1    0    0  503  502  0.00000000000E+00  0.00000000000E+00  0.13314808691E+03  0.13314808691E+03  0.00000000000E+00 0. -1.
         21   -1    0    0  501  503 -0.00000000000E+00 -0.00000000000E+00 -0.31947227486E+03  0.31947227486E+03  0.00000000000E+00 0. -1.
          6    1    1    2  501    0  0.99208243560E+02  0.51361266451E+02 -0.10557001927E+03  0.23141798601E+03  0.17300000000E+03 0. -1.
         -6    1    1    2    0  502 -0.99208243560E+02 -0.51361266451E+02 -0.80754168679E+02  0.22120237576E+03  0.17300000000E+03 0. -1.
</event>
<event>
 4    1  0.3065897E+000  0.1000000E+03  0.7546771E-02  0.1280296E+00
         21   -1    0    0  503  502  0.00000000000E+00  0.00000000000E+00  0.84429030336E+03  0.84429030336E+03  0.00000000000E+00 0. -1.
         21   -1    0    0  501  503 -0.00000000000E+00 -0.00000000000E+00 -0.65493697105E+02  0.65493697105E+02  0.00000000000E+00 0. -1.
          6    1    1    2  501    0  0.15372074318E+03  0.32898008214E+02  0.43888254165E+03  0.49725167792E+03  0.17300000000E+03 0. -1.
         -6    1    1    2    0  502 -0.15372074318E+03 -0.32898008214E+02  0.33991406460E+03  0.41253232254E+03  0.17300000000E+03 0. -1.
</event>
<event>
 4    1  0.3065897E+000  0.1000000E+03  0.7546771E-02  0.1280296E+00
         21   -1    0    0  503  502  0.00000000000E+00  0.00000000000E+00  0.12288808499E+03  0.12288808499E+03  0.00000000000E+00 0. -1.
         21   -1    0    0  501  503 -0.00000000000E+00 -0.00000000000E+00 -0.40146260314E+03  0.40146260314E+03  0.00000000000E+00 0.  1.
          6    1    1    2  501    0  0.42326161404E+02 -0.56317485259E+02 -0.28114081280E+03  0.33753861958E+03  0.17300000000E+03 0.  1.
         -6    1    1    2    0  502 -0.42326161404E+02  0.56317485259E+02  0.25662946507E+01  0.18681206854E+03  0.17300000000E+03 0. -1.
</event>
<event>
 4    1  0.3065897E+000  0.1000000E+03  0.7546771E-02  0.1280296E+00
         21   -1    0    0  501  502  0.00000000000E+00  0.00000000000E+00  0.20222989015E+04  0.20222989015E+04  0.00000000000E+00 0.  1.
         21   -1    0    0  502  503 -0.00000000000E+00 -0.00000000000E+00 -0.21610744154E+02  0.21610744154E+02  0.00000000000E+00 0. -1.
          6    1    1    2  501    0  0.40919346682E+02 -0.85885778369E+01  0.15364355182E+04  0.15467098171E+04  0.17300000000E+03 0.  1.
         -6    1    1    2    0  503 -0.40919346682E+02  0.85885778369E+01  0.46425263917E+03  0.49719982862E+03  0.17300000000E+03 0. -1.
</event>
<event>
 4    1  0.3065897E+000  0.1000000E+03  0.7546771E-02  0.1280296E+00
         21   -1    0    0  501  502  0.00000000000E+00  0.00000000000E+00  0.42852600778E+03  0.42852600778E+03  0.00000000000E+00 0. -1.
         21   -1    0    0  502  503 -0.00000000000E+00 -0.00000000000E+00 -0.15130067519E+03  0.15130067519E+03  0.00000000000E+00 0. -1.
          6    1    1    2  501    0 -0.15421586944E+03  0.10298431497E+03  0.16455031694E+03  0.30231458834E+03  0.17300000000E+03 0. -1.
         -6    1    1    2    0  503  0.15421586944E+03 -0.10298431497E+03  0.11267501565E+03  0.27751209463E+03  0.17300000000E+03 0. -1.
</event>
<event>
 4    1  0.3065897E+000  0.1000000E+03  0.7546771E-02  0.1280296E+00
         21   -1    0    0  501  502  0.00000000000E+00  0.00000000000E+00  0.16521148378E+03  0.16521148378E+03  0.00000000000E+00 0. -1.
         21   -1    0    0  502  503 -0.00000000000E+00 -0.00000000000E+00 -0.28496930951E+03  0.28496930951E+03  0.00000000000E+00 0. -1.
          6    1    1    2  501    0 -0.80164090454E+02 -0.45288082145E+02  0.36736247309E+02  0.19938867483E+03  0.17300000000E+03 0. -1.
         -6    1    1    2    0  503  0.80164090454E+02  0.45288082145E+02 -0.15649407304E+03  0.25079211846E+03  0.17300000000E+03 0. -1.
</event>
<event>
 4    1  0.3065897E+000  0.1000000E+03  0.7546771E-02  0.1280296E+00
         21   -1    0    0  501  502  0.00000000000E+00  0.00000000000E+00  0.16658413935E+03  0.16658413935E+03  0.00000000000E+00 0. -1.
         21   -1    0    0  502  503 -0.00000000000E+00 -0.00000000000E+00 -0.24392720162E+03  0.24392720162E+03  0.00000000000E+00 0. -1.
          6    1    1    2  501    0 -0.91701371303E+02 -0.45776880005E+02 -0.24244938053E+02  0.20253760457E+03  0.17300000000E+03 0. -1.
         -6    1    1    2    0  503  0.91701371303E+02  0.45776880005E+02 -0.53098124214E+02  0.20797373641E+03  0.17300000000E+03 0. -1.
</event>
<event>
 4    1  0.3065897E+000  0.1000000E+03  0.7546771E-02  0.1280296E+00
         21   -1    0    0  501  502  0.00000000000E+00  0.00000000000E+00  0.53123449684E+02  0.53123449684E+02  0.00000000000E+00 0.  1.
         21   -1    0    0  502  503 -0.00000000000E+00 -0.00000000000E+00 -0.15145022689E+04  0.15145022689E+04  0.00000000000E+00 0. -1.
          6    1    1    2  501    0  0.10745141470E+03 -0.26534540630E+02 -0.19005770457E+03  0.27982283580E+03  0.17300000000E+03 0.  1.
         -6    1    1    2    0  503 -0.10745141470E+03  0.26534540630E+02 -0.12713211147E+04  0.12878028828E+04  0.17300000000E+03 0. -1.
</event>
<event>
 4    1  0.3065897E+000  0.1000000E+03  0.7546771E-02  0.1280296E+00
         21   -1    0    0  501  502  0.00000000000E+00  0.00000000000E+00  0.47719329063E+03  0.47719329063E+03  0.00000000000E+00 0.  1.
         21   -1    0    0  502  503 -0.00000000000E+00 -0.00000000000E+00 -0.14836941375E+03  0.14836941375E+03  0.00000000000E+00 0. -1.
          6    1    1    2  501    0 -0.51057489082E+02  0.13295870633E+03  0.33307425945E+03  0.40143784960E+03  0.17300000000E+03 0.  1.
         -6    1    1    2    0  503  0.51057489082E+02 -0.13295870633E+03 -0.42503825727E+01  0.22412485478E+03  0.17300000000E+03 0. -1.
</event>
<event>
 4    1  0.3065897E+000  0.1000000E+03  0.7546771E-02  0.1280296E+00
         21   -1    0    0  503  502  0.00000000000E+00  0.00000000000E+00  0.73046881773E+03  0.73046881773E+03  0.00000000000E+00 0.  1.
         21   -1    0    0  501  503 -0.00000000000E+00 -0.00000000000E+00 -0.42382463365E+03  0.42382463365E+03  0.00000000000E+00 0. -1.
          6    1    1    2  501    0  0.15814544832E+02  0.62973979213E+02 -0.39106826041E+03  0.43252653813E+03  0.17300000000E+03 0.  1.
         -6    1    1    2    0  502 -0.15814544832E+02 -0.62973979213E+02  0.69771244448E+03  0.72176691326E+03  0.17300000000E+03 0. -1.
</event>
<event>
 4    1  0.3065897E+000  0.1000000E+03  0.7546771E-02  0.1280296E+00
         21   -1    0    0  503  502  0.00000000000E+00  0.00000000000E+00  0.84602092559E+02  0.84602092559E+02  0.00000000000E+00 0.  1.
         21   -1    0    0  501  503 -0.00000000000E+00 -0.00000000000E+00 -0.51246986128E+03  0.51246986128E+03  0.00000000000E+00 0. -1.
          6    1    1    2  501    0  0.86507320785E+01  0.43808994745E+02 -0.36723710911E+03  0.40839461002E+03  0.17300000000E+03 0.  1.
         -6    1    1    2    0  502 -0.86507320785E+01 -0.43808994745E+02 -0.60630659615E+02  0.18867734382E+03  0.17300000000E+03 0. -1.
</event>
<event>
 4    1  0.3065897E+000  0.1000000E+03  0.7546771E-02  0.1280296E+00
         21   -1    0    0  503  502  0.00000000000E+00  0.00000000000E+00  0.54411146473E+02  0.54411146473E+02  0.00000000000E+00 0.  1.
         21   -1    0    0  501  503 -0.00000000000E+00 -0.00000000000E+00 -0.10621147743E+04  0.10621147743E+04  0.00000000000E+00 0. -1.
          6    1    1    2  501    0  0.12512553136E+03  0.56461426729E+01 -0.76007519301E+03  0.78951350625E+03  0.17300000000E+03 0.  1.
         -6    1    1    2    0  502 -0.12512553136E+03 -0.56461426729E+01 -0.24762843485E+03  0.32701241455E+03  0.17300000000E+03 0.  1.
</event>
<event>
 4    1  0.3065897E+000  0.1000000E+03  0.7546771E-02  0.1280296E+00
         21   -1    0    0  503  502  0.00000000000E+00  0.00000000000E+00  0.43144273527E+03  0.43144273527E+03  0.00000000000E+00 0.  1.
         21   -1    0    0  501  503 -0.00000000000E+00 -0.00000000000E+00 -0.29942215616E+03  0.29942215616E+03  0.00000000000E+00 0. -1.
          6    1    1    2  501    0 -0.29333560199E+03 -0.11338039912E+03  0.46890888920E+02  0.36197879187E+03  0.17300000000E+03 0.  1.
         -6    1    1    2    0  502  0.29333560199E+03  0.11338039912E+03  0.85129690191E+02  0.36888609956E+03  0.17300000000E+03 0.  1.
</event>
<event>
 4    1  0.3065897E+000  0.1000000E+03  0.7546771E-02  0.1280296E+00
         21   -1    0    0  503  502  0.00000000000E+00  0.00000000000E+00  0.29438070442E+03  0.29438070442E+03  0.00000000000E+00 0.  1.
         21   -1    0    0  501  503 -0.00000000000E+00 -0.00000000000E+00 -0.10852089403E+03  0.10852089403E+03  0.00000000000E+00 0. -1.
          6    1    1    2  501    0  0.36644553314E+02 -0.21110380624E+02  0.75874505835E+02  0.19358308835E+03  0.17300000000E+03 0.  1.
         -6    1    1    2    0  502 -0.36644553314E+02  0.21110380624E+02  0.10998530456E+03  0.20931851011E+03  0.17300000000E+03 0.  1.
</event>
<event>
 4    1  0.3065897E+000  0.1000000E+03  0.7546771E-02  0.1280296E+00
         21   -1    0    0  503  502  0.00000000000E+00  0.00000000000E+00  0.84635166191E+03  0.84635166191E+03  0.00000000000E+00 0. -1.
         21   -1    0    0  501  503 -0.00000000000E+00 -0.00000000000E+00 -0.58817810726E+02  0.58817810726E+02  0.00000000000E+00 0. -1.
          6    1    1    2  501    0 -0.13239157803E+03  0.15422308684E+02  0.48641690925E+03  0.53319394890E+03  0.17300000000E+03 0. -1.
         -6    1    1    2    0  502  0.13239157803E+03 -0.15422308684E+02  0.30111694193E+03  0.37197552373E+03  0.17300000000E+03 0. -1.
</event>
<event>
 4    1  0.3065897E+000  0.1000000E+03  0.7546771E-02  0.1280296E+00
         21   -1    0    0  503  502  0.00000000000E+00  0.00000000000E+00  0.51955266401E+02  0.51955266401E+02  0.00000000000E+00 0.  1.
         21   -1    0    0  501  503 -0.00000000000E+00 -0.00000000000E+00 -0.11845750724E+04  0.11845750724E+04  0.00000000000E+00 0.  1.
          6    1    1    2  501    0  0.86457590625E+02  0.83178344162E+02 -0.89336810818E+03  0.91783938062E+03  0.17300000000E+03 0.  1.
         -6    1    1    2    0  502 -0.86457590625E+02 -0.83178344162E+02 -0.23925169783E+03  0.31869095818E+03  0.17300000000E+03 0.  1.
</event>
<event>
 4    1  0.3065897E+000  0.1000000E+03  0.7546771E-02  0.1280296E+00
         21   -1    0    0  503  502  0.00000000000E+00  0.00000000000E+00  0.15492347135E+03  0.15492347135E+03  0.00000000000E+00 0.  1.
         21   -1    0    0  501  503 -0.00000000000E+00 -0.00000000000E+00 -0.19757278489E+04  0.19757278489E+04  0.00000000000E+00 0.  1.
          6    1    1    2  501    0 -0.10199484042E+03 -0.46055368742E+03 -0.46441259861E+03  0.68419347279E+03  0.17300000000E+03 0.  1.
         -6    1    1    2    0  502  0.10199484042E+03  0.46055368742E+03 -0.13563917790E+04  0.14464578475E+04  0.17300000000E+03 0.  1.
</event>
<event>
 4    1  0.3065897E+000  0.1000000E+03  0.7546771E-02  0.1280296E+00
         21   -1    0    0  503  502  0.00000000000E+00  0.00000000000E+00  0.72315600376E+03  0.72315600376E+03  0.00000000000E+00 0.  1.
         21   -1    0    0  501  503 -0.00000000000E+00 -0.00000000000E+00 -0.71242967776E+02  0.71242967776E+02  0.00000000000E+00 0.  1.
          6    1    1    2  501    0  0.11173853623E+03 -0.12548715498E+02  0.16042525299E+03  0.26135843689E+03  0.17300000000E+03 0.  1.
         -6    1    1    2    0  502 -0.11173853623E+03  0.12548715498E+02  0.49148778299E+03  0.53304053464E+03  0.17300000000E+03 0.  1.
</event>
<event>
 4    1  0.3065897E+000  0.1000000E+03  0.7546771E-02  0.1280296E+00
         21   -1    0    0  503  502  0.00000000000E+00  0.00000000000E+00  0.18498509172E+03  0.18498509172E+03  0.00000000000E+00 0.  1.
         21   -1    0    0  501  503 -0.00000000000E+00 -0.00000000000E+00 -0.25770820721E+03  0.25770820721E+03  0.00000000000E+00 0. -1.
          6    1    1    2  501    0 -0.19565224845E+02 -0.61545162859E+02 -0.15446743998E+03  0.24074840624E+03  0.17300000000E+03 0.  1.
         -6    1    1    2    0  502  0.19565224845E+02  0.61545162859E+02  0.81744324486E+02  0.20194489268E+03  0.17300000000E+03 0.  1.
</event>
<event>
 4    1  0.3065897E+000  0.1000000E+03  0.7546771E-02  0.1280296E+00
         21   -1    0    0  501  502  0.00000000000E+00  0.00000000000E+00  0.58815359351E+03  0.58815359351E+03  0.00000000000E+00 0. -1.
         21   -1    0    0  502  503 -0.00000000000E+00 -0.00000000000E+00 -0.15577667499E+03  0.15577667499E+03  0.00000000000E+00 0.  1.
          6    1    1    2  501    0 -0.10020387045E+03  0.21225590874E+03  0.31600883334E+03  0.42998135912E+03  0.17300000000E+03 0. -1.
         -6    1    1    2    0  503  0.10020387045E+03 -0.21225590874E+03  0.11636808518E+03  0.31394890937E+03  0.17300000000E+03 0.  1.
</event>
<event>
 4    1  0.3065897E+000  0.1000000E+03  0.7546771E-02  0.1280296E+00
         21   -1    0    0  501  502  0.00000000000E+00  0.00000000000E+00  0.81239886140E+03  0.81239886140E+03  0.00000000000E+00 0. -1.
         21   -1    0    0  502  503 -0.00000000000E+00 -0.00000000000E+00 -0.23751120148E+03  0.23751120148E+03  0.00000000000E+00 0.  1.
          6    1    1    2  501    0  0.24154119591E+02  0.26180235498E+02  0.76809013197E+03  0.78813721969E+03  0.17300000000E+03 0. -1.
         -6    1    1    2    0  503 -0.24154119591E+02 -0.26180235498E+02 -0.19320247205E+03  0.26177284319E+03  0.17300000000E+03 0.  1.
</event>
<event>
 4    1  0.3065897E+000  0.1000000E+03  0.7546771E-02  0.1280296E+00
         21   -1    0    0  501  502  0.00000000000E+00  0.00000000000E+00  0.92385067395E+03  0.92385067395E+03  0.00000000000E+00 0.  1.
         21   -1    0    0  502  503 -0.00000000000E+00 -0.00000000000E+00 -0.78888043758E+02  0.78888043758E+02  0.00000000000E+00 0.  1.
          6    1    1    2  501    0  0.31647970747E+02 -0.18937568931E+03  0.56737648433E+03  0.62346597399E+03  0.17300000000E+03 0.  1.
         -6    1    1    2    0  503 -0.31647970747E+02  0.18937568931E+03  0.27758614587E+03  0.37927274372E+03  0.17300000000E+03 0.  1.
</event>
<event>
 4    1  0.3065897E+000  0.1000000E+03  0.7546771E-02  0.1280296E+00
         21   -1    0    0  501  502  0.00000000000E+00  0.00000000000E+00  0.15610299107E+03  0.15610299107E+03  0.00000000000E+00 0. -1.
         21   -1    0    0  502  503 -0.00000000000E+00 -0.00000000000E+00 -0.88959946215E+03  0.88959946215E+03  0.00000000000E+00 0. -1.
          6    1    1    2  501    0 -0.15469612010E+03  0.28944653908E+03 -0.31754216349E+03  0.48833616920E+03  0.17300000000E+03 0. -1.
         -6    1    1    2    0  503  0.15469612010E+03 -0.28944653908E+03 -0.41595430759E+03  0.55736628402E+03  0.17300000000E+03 0. -1.
</event>
<event>
 4    1  0.3065897E+000  0.1000000E+03  0.7546771E-02  0.1280296E+00
         21   -1    0    0  501  502  0.00000000000E+00  0.00000000000E+00  0.10742578814E+03  0.10742578814E+03  0.00000000000E+00 0. -1.
         21   -1    0    0  502  503 -0.00000000000E+00 -0.00000000000E+00 -0.72752461296E+03  0.72752461296E+03  0.00000000000E+00 0. -1.
          6    1    1    2  501    0 -0.96727912695E+02  0.99491761077E+02 -0.55873526833E+02  0.22870450502E+03  0.17300000000E+03 0. -1.
         -6    1    1    2    0  503  0.96727912695E+02 -0.99491761077E+02 -0.56422529799E+03  0.60624589608E+03  0.17300000000E+03 0. -1.
</event>
<event>
 4    1  0.3065897E+000  0.1000000E+03  0.7546771E-02  0.1280296E+00
         21   -1    0    0  503  502  0.00000000000E+00  0.00000000000E+00  0.15878051849E+04  0.15878051849E+04  0.00000000000E+00 0.  1.
         21   -1    0    0  501  503 -0.00000000000E+00 -0.00000000000E+00 -0.71350941655E+02  0.71350941655E+02  0.00000000000E+00 0.  1.
          6    1    1    2  501    0 -0.10490550023E+01 -0.14563518535E+03  0.14377894623E+03  0.26797778473E+03  0.17300000000E+03 0. -1.
         -6    1    1    2    0  502  0.10490550023E+01  0.14563518535E+03  0.13726752970E+04  0.13911783419E+04  0.17300000000E+03 0. -1.
</event>
<event>
 4    1  0.3065897E+000  0.1000000E+03  0.7546771E-02  0.1280296E+00
         21   -1    0    0  503  502  0.00000000000E+00  0.00000000000E+00  0.10346354758E+03  0.10346354758E+03  0.00000000000E+00 0.  1.
         21   -1    0    0  501  503 -0.00000000000E+00 -0.00000000000E+00 -0.42256193434E+03  0.42256193434E+03  0.00000000000E+00 0.  1.
          6    1    1    2  501    0 -0.87332130487E+02  0.28923331509E+02 -0.25135948362E+03  0.31870684041E+03  0.17300000000E+03 0. -1.
         -6    1    1    2    0  502  0.87332130487E+02 -0.28923331509E+02 -0.67738903142E+02  0.20731864152E+03  0.17300000000E+03 0. -1.
</event>
<event>
 4    1  0.3065897E+000  0.1000000E+03  0.7546771E-02  0.1280296E+00
         21   -1    0    0  503  502  0.00000000000E+00  0.00000000000E+00  0.32825677017E+03  0.32825677017E+03  0.00000000000E+00 0.  1.
         21   -1    0    0  501  503 -0.00000000000E+00 -0.00000000000E+00 -0.10100594733E+04  0.10100594733E+04  0.00000000000E+00 0.  1.
          6    1    1    2  501    0 -0.36421872852E+03  0.16106314767E+03 -0.78040949220E+03  0.89306472064E+03  0.17300000000E+03 0. -1.
         -6    1    1    2    0  502  0.36421872852E+03 -0.16106314767E+03  0.98606789056E+02  0.44525152284E+03  0.17300000000E+03 0. -1.
</event>
<event>
 4    1  0.3065897E+000  0.1000000E+03  0.7546771E-02  0.1280296E+00
         21   -1    0    0  501  502  0.00000000000E+00  0.00000000000E+00  0.16207492398E+04  0.16207492398E+04  0.00000000000E+00 0. -1.
         21   -1    0    0  502  503 -0.00000000000E+00 -0.00000000000E+00 -0.14691357857E+03  0.14691357857E+03  0.00000000000E+00 0. -1.
          6    1    1    2  501    0 -0.45305576806E+02 -0.14425793833E+01  0.15592501372E+04  0.15694727353E+04  0.17300000000E+03 0. -1.
         -6    1    1    2    0  503  0.45305576806E+02  0.14425793833E+01 -0.85414476006E+02  0.19819008309E+03  0.17300000000E+03 0. -1.
</event>
<event>
 4    1  0.3065897E+000  0.1000000E+03  0.7546771E-02  0.1280296E+00
         21   -1    0    0  503  502  0.00000000000E+00  0.00000000000E+00  0.37185953175E+03  0.37185953175E+03  0.00000000000E+00 0. -1.
         21   -1    0    0  501  503 -0.00000000000E+00 -0.00000000000E+00 -0.35714078466E+03  0.35714078466E+03  0.00000000000E+00 0.  1.
          6    1    1    2  501    0  0.32755242965E+02  0.12469735685E+03 -0.28639229750E+03  0.35856921900E+03  0.17300000000E+03 0.  1.
         -6    1    1    2    0  502 -0.32755242965E+02 -0.12469735685E+03  0.30111104460E+03  0.37043109740E+03  0.17300000000E+03 0. -1.
</event>
<event>
 4    1  0.3065897E+000  0.1000000E+03  0.7546771E-02  0.1280296E+00
         21   -1    0    0  503  502  0.00000000000E+00  0.00000000000E+00  0.29028206251E+03  0.29028206251E+03  0.00000000000E+00 0. -1.
         21   -1    0    0  501  503 -0.00000000000E+00 -0.00000000000E+00 -0.36413944358E+03  0.36413944358E+03  0.00000000000E+00 0.  1.
          6    1    1    2  501    0  0.16945446573E+03 -0.72039724022E+02 -0.24286506742E+03  0.35045253425E+03  0.17300000000E+03 0.  1.
         -6    1    1    2    0  502 -0.16945446573E+03  0.72039724022E+02  0.16900768636E+03  0.30396897184E+03  0.17300000000E+03 0. -1.
</event>
<event>
 4    1  0.3065897E+000  0.1000000E+03  0.7546771E-02  0.1280296E+00
         21   -1    0    0  501  502  0.00000000000E+00  0.00000000000E+00  0.10550644408E+03  0.10550644408E+03  0.00000000000E+00 0.  1.
         21   -1    0    0  502  503 -0.00000000000E+00 -0.00000000000E+00 -0.55598643183E+03  0.55598643183E+03  0.00000000000E+00 0. -1.
          6    1    1    2  501    0 -0.11347422061E+03 -0.74373095543E+01 -0.53589751872E+02  0.21385175665E+03  0.17300000000E+03 0.  1.
         -6    1    1    2    0  503  0.11347422061E+03  0.74373095543E+01 -0.39689023588E+03  0.44764111926E+03  0.17300000000E+03 0. -1.
</event>
<event>
 4    1  0.3065897E+000  0.1000000E+03  0.7546771E-02  0.1280296E+00
         21   -1    0    0  503  502  0.00000000000E+00  0.00000000000E+00  0.28005474654E+03  0.28005474654E+03  0.00000000000E+00 0.  1.
         21   -1    0    0  501  503 -0.00000000000E+00 -0.00000000000E+00 -0.38599041382E+03  0.38599041382E+03  0.00000000000E+00 0.  1.
          6    1    1    2  501    0  0.91911608957E+01  0.10384966966E+03 -0.31573565638E+03  0.37481626971E+03  0.17300000000E+03 0.  1.
         -6    1    1    2    0  502 -0.91911608957E+01 -0.10384966966E+03  0.20979998910E+03  0.29122889065E+03  0.17300000000E+03 0.  1.
</event>
<event>
 4    1  0.3065897E+000  0.1000000E+03  0.7546771E-02  0.1280296E+00
         21   -1    0    0  503  502  0.00000000000E+00  0.00000000000E+00  0.25639053714E+03  0.25639053714E+03  0.00000000000E+00 0.  1.
         21   -1    0    0  501  503 -0.00000000000E+00 -0.00000000000E+00 -0.29361161612E+03  0.29361161612E+03  0.00000000000E+00 0.  1.
          6    1    1    2  501    0  0.45126108447E+02  0.18278994744E+03 -0.11834652188E+03  0.28175065180E+03  0.17300000000E+03 0.  1.
         -6    1    1    2    0  502 -0.45126108447E+02 -0.18278994744E+03  0.81125442895E+02  0.26825150146E+03  0.17300000000E+03 0.  1.
</event>
<event>
 4    1  0.3065897E+000  0.1000000E+03  0.7546771E-02  0.1280296E+00
         21   -1    0    0  503  502  0.00000000000E+00  0.00000000000E+00  0.35546362147E+02  0.35546362147E+02  0.00000000000E+00 0. -1.
         21   -1    0    0  501  503 -0.00000000000E+00 -0.00000000000E+00 -0.10766257912E+04  0.10766257912E+04  0.00000000000E+00 0. -1.
          6    1    1    2  501    0  0.45163881361E+02  0.28342093182E+02 -0.73131397402E+03  0.75338713755E+03  0.17300000000E+03 0. -1.
         -6    1    1    2    0  502 -0.45163881361E+02 -0.28342093182E+02 -0.30976545498E+03  0.35878501575E+03  0.17300000000E+03 0. -1.
</event>
<event>
 4    1  0.3065897E+000  0.1000000E+03  0.7546771E-02  0.1280296E+00
         21   -1    0    0  503  502  0.00000000000E+00  0.00000000000E+00  0.29849066080E+02  0.29849066080E+02  0.00000000000E+00 0. -1.
         21   -1    0    0  501  503 -0.00000000000E+00 -0.00000000000E+00 -0.20302151487E+04  0.20302151487E+04  0.00000000000E+00 0. -1.
          6    1    1    2  501    0 -0.91259360245E+01 -0.13933114064E+03 -0.14424962375E+04  0.14595276101E+04  0.17300000000E+03 0. -1.
         -6    1    1    2    0  502  0.91259360245E+01  0.13933114064E+03 -0.55786984512E+03  0.60053660467E+03  0.17300000000E+03 0. -1.
</event>
<event>
 4    1  0.3065897E+000  0.1000000E+03  0.7546771E-02  0.1280296E+00
         21   -1    0    0  503  502  0.00000000000E+00  0.00000000000E+00  0.10030179842E+03  0.10030179842E+03  0.00000000000E+00 0. -1.
         21   -1    0    0  501  503 -0.00000000000E+00 -0.00000000000E+00 -0.44145939969E+03  0.44145939969E+03  0.00000000000E+00 0. -1.
          6    1    1    2  501    0 -0.87020067979E+02 -0.64741512562E+02 -0.23604400940E+03  0.31210531885E+03  0.17300000000E+03 0.  1.
         -6    1    1    2    0  502  0.87020067979E+02  0.64741512562E+02 -0.10511359187E+03  0.22965587925E+03  0.17300000000E+03 0.  1.
</event>
<event>
 4    1  0.3065897E+000  0.1000000E+03  0.7546771E-02  0.1280296E+00
         21   -1    0    0  503  502  0.00000000000E+00  0.00000000000E+00  0.31160182365E+02  0.31160182365E+02  0.00000000000E+00 0.  1.
         21   -1    0    0  501  503 -0.00000000000E+00 -0.00000000000E+00 -0.99919191450E+03  0.99919191450E+03  0.00000000000E+00 0. -1.
          6    1    1    2  501    0 -0.23622542814E+02 -0.19193969568E+02 -0.53283341094E+03  0.56104088693E+03  0.17300000000E+03 0.  1.
         -6    1    1    2    0  502  0.23622542814E+02  0.19193969568E+02 -0.43519832120E+03  0.46931120993E+03  0.17300000000E+03 0. -1.
</event>
<event>
 4    1  0.3065897E+000  0.1000000E+03  0.7546771E-02  0.1280296E+00
         21   -1    0    0  501  502  0.00000000000E+00  0.00000000000E+00  0.47941403340E+03  0.47941403340E+03  0.00000000000E+00 0. -1.
         21   -1    0    0  502  503 -0.00000000000E+00 -0.00000000000E+00 -0.93963412804E+02  0.93963412804E+02  0.00000000000E+00 0.  1.
          6    1    1    2  501    0  0.15522686907E+02 -0.60663273744E+02  0.33565889697E+03  0.38277523654E+03  0.17300000000E+03 0. -1.
         -6    1    1    2    0  503 -0.15522686907E+02  0.60663273744E+02  0.49791723630E+02  0.19060220967E+03  0.17300000000E+03 0.  1.
</event>
<event>
 4    1  0.3065897E+000  0.1000000E+03  0.7546771E-02  0.1280296E+00
         21   -1    0    0  501  502  0.00000000000E+00  0.00000000000E+00  0.35293299812E+03  0.35293299812E+03  0.00000000000E+00 0. -1.
         21   -1    0    0  502  503 -0.00000000000E+00 -0.00000000000E+00 -0.17987360809E+03  0.17987360809E+03  0.00000000000E+00 0.  1.
          6    1    1    2  501    0 -0.29904956954E+02  0.12400020326E+03  0.22553506028E+03  0.31155323827E+03  0.17300000000E+03 0. -1.
         -6    1    1    2    0  503  0.29904956954E+02 -0.12400020326E+03 -0.52475670248E+02  0.22125336795E+03  0.17300000000E+03 0.  1.
</event>
<event>
 4    1  0.3065897E+000  0.1000000E+03  0.7546771E-02  0.1280296E+00
         21   -1    0    0  501  502  0.00000000000E+00  0.00000000000E+00  0.15258062887E+03  0.15258062887E+03  0.00000000000E+00 0. -1.
         21   -1    0    0  502  503 -0.00000000000E+00 -0.00000000000E+00 -0.47835566144E+03  0.47835566144E+03  0.00000000000E+00 0.  1.
          6    1    1    2  501    0 -0.96400989610E+02  0.74475312448E+01  0.51505660887E+02  0.20476925947E+03  0.17300000000E+03 0. -1.
         -6    1    1    2    0  503  0.96400989610E+02 -0.74475312448E+01 -0.37728069346E+03  0.42616703084E+03  0.17300000000E+03 0.  1.
</event>
<event>
 4    1  0.3065897E+000  0.1000000E+03  0.7546771E-02  0.1280296E+00
         21   -1    0    0  501  502  0.00000000000E+00  0.00000000000E+00  0.92527129094E+03  0.92527129094E+03  0.00000000000E+00 0. -1.
         21   -1    0    0  502  503 -0.00000000000E+00 -0.00000000000E+00 -0.71757047634E+02  0.71757047634E+02  0.00000000000E+00 0.  1.
          6    1    1    2  501    0  0.46146433636E+02  0.12091723599E+03  0.69840854791E+03  0.73106358895E+03  0.17300000000E+03 0. -1.
         -6    1    1    2    0  503 -0.46146433636E+02 -0.12091723599E+03  0.15510569540E+03  0.26596474962E+03  0.17300000000E+03 0.  1.
</event>
<event>
 4    1  0.3065897E+000  0.1000000E+03  0.7546771E-02  0.1280296E+00
         21   -1    0    0  503  502  0.00000000000E+00  0.00000000000E+00  0.17536751597E+02  0.17536751597E+02  0.00000000000E+00 0.  1.
         21   -1    0    0  501  503 -0.00000000000E+00 -0.00000000000E+00 -0.24472766146E+04  0.24472766146E+04  0.00000000000E+00 0. -1.
          6    1    1    2  501    0 -0.94239923208E+02 -0.47826146156E+02 -0.14686439915E+04  0.14825696196E+04  0.17300000000E+03 0. -1.
         -6    1    1    2    0  502  0.94239923208E+02  0.47826146156E+02 -0.96109587152E+03  0.98224374655E+03  0.17300000000E+03 0.  1.
</event>
<event>
 4    1  0.3065897E+000  0.1000000E+03  0.7546771E-02  0.1280296E+00
         21   -1    0    0  503  502  0.00000000000E+00  0.00000000000E+00  0.31399584625E+03  0.31399584625E+03  0.00000000000E+00 0.  1.
         21   -1    0    0  501  503 -0.00000000000E+00 -0.00000000000E+00 -0.10116940734E+03  0.10116940734E+03  0.00000000000E+00 0. -1.
          6    1    1    2  501    0 -0.79063448908E+01 -0.24817010526E+01  0.57426179514E+02  0.18247036807E+03  0.17300000000E+03 0. -1.
         -6    1    1    2    0  502  0.79063448908E+01  0.24817010526E+01  0.15540025940E+03  0.23269488553E+03  0.17300000000E+03 0.  1.
</event>
<event>
 4    1  0.3065897E+000  0.1000000E+03  0.7546771E-02  0.1280296E+00
         21   -1    0    0  503  502  0.00000000000E+00  0.00000000000E+00  0.90353149661E+02  0.90353149661E+02  0.00000000000E+00 0.  1.
         21   -1    0    0  501  503 -0.00000000000E+00 -0.00000000000E+00 -0.50345877313E+03  0.50345877313E+03  0.00000000000E+00 0. -1.
          6    1    1    2  501    0  0.28915047742E+02 -0.30344363351E+02 -0.37010471574E+03  0.41068645094E+03  0.17300000000E+03 0. -1.
         -6    1    1    2    0  502 -0.28915047742E+02  0.30344363351E+02 -0.43000907720E+02  0.18312547184E+03  0.17300000000E+03 0.  1.
</event>
<event>
 4    1  0.3065897E+000  0.1000000E+03  0.7546771E-02  0.1280296E+00
         21   -1    0    0  503  502  0.00000000000E+00  0.00000000000E+00  0.16568646019E+03  0.16568646019E+03  0.00000000000E+00 0. -1.
         21   -1    0    0  501  503 -0.00000000000E+00 -0.00000000000E+00 -0.59226885340E+03  0.59226885340E+03  0.00000000000E+00 0. -1.
          6    1    1    2  501    0  0.88297218325E+01 -0.19528953230E+03 -0.42278426593E+03  0.49688177762E+03  0.17300000000E+03 0. -1.
         -6    1    1    2    0  502 -0.88297218325E+01  0.19528953230E+03 -0.37981272752E+01  0.26107353597E+03  0.17300000000E+03 0. -1.
</event>
<event>
 4    1  0.3065897E+000  0.1000000E+03  0.7546771E-02  0.1280296E+00
         21   -1    0    0  503  502  0.00000000000E+00  0.00000000000E+00  0.10080184197E+03  0.10080184197E+03  0.00000000000E+00 0. -1.
         21   -1    0    0  501  503 -0.00000000000E+00 -0.00000000000E+00 -0.58267294106E+03  0.58267294106E+03  0.00000000000E+00 0. -1.
          6    1    1    2  501    0 -0.13898383166E+03  0.60247741817E+02 -0.34887131307E+03  0.41783548071E+03  0.17300000000E+03 0. -1.
         -6    1    1    2    0  502  0.13898383166E+03 -0.60247741817E+02 -0.13299978603E+03  0.26563930233E+03  0.17300000000E+03 0. -1.
</event>
<event>
 4    1  0.3065897E+000  0.1000000E+03  0.7546771E-02  0.1280296E+00
         21   -1    0    0  503  502  0.00000000000E+00  0.00000000000E+00  0.31619250555E+03  0.31619250555E+03  0.00000000000E+00 0. -1.
         21   -1    0    0  501  503 -0.00000000000E+00 -0.00000000000E+00 -0.12799540357E+03  0.12799540357E+03  0.00000000000E+00 0. -1.
          6    1    1    2  501    0  0.49924220321E+02 -0.79313869831E+02  0.14040114046E+03  0.24171180767E+03  0.17300000000E+03 0. -1.
         -6    1    1    2    0  502 -0.49924220321E+02  0.79313869831E+02  0.47795961517E+02  0.20247610145E+03  0.17300000000E+03 0. -1.
</event>
<event>
 4    1  0.3065897E+000  0.1000000E+03  0.7546771E-02  0.1280296E+00
         21   -1    0    0  501  502  0.00000000000E+00  0.00000000000E+00  0.87788383996E+03  0.87788383996E+03  0.00000000000E+00 0. -1.
         21   -1    0    0  502  503 -0.00000000000E+00 -0.00000000000E+00 -0.19889869876E+03  0.19889869876E+03  0.00000000000E+00 0. -1.
          6    1    1    2  501    0 -0.23263128291E+02 -0.17980362304E+03  0.77032132739E+03  0.81005830866E+03  0.17300000000E+03 0. -1.
         -6    1    1    2    0  503  0.23263128291E+02  0.17980362304E+03 -0.91336186196E+02  0.26672423007E+03  0.17300000000E+03 0. -1.
</event>
<event>
 4    1  0.3065897E+000  0.1000000E+03  0.7546771E-02  0.1280296E+00
         21   -1    0    0  501  502  0.00000000000E+00  0.00000000000E+00  0.28830092988E+04  0.28830092988E+04  0.00000000000E+00 0. -1.
         21   -1    0    0  502  503 -0.00000000000E+00 -0.00000000000E+00 -0.17118464552E+02  0.17118464552E+02  0.00000000000E+00 0. -1.
          6    1    1    2  501    0 -0.35383501849E+01  0.11074400610E+02  0.23394735316E+04  0.23458901439E+04  0.17300000000E+03 0. -1.
         -6    1    1    2    0  503  0.35383501849E+01 -0.11074400610E+02  0.52641730267E+03  0.55423761946E+03  0.17300000000E+03 0. -1.
</event>
<event>
 4    1  0.3065897E+000  0.1000000E+03  0.7546771E-02  0.1280296E+00
         21   -1    0    0  501  502  0.00000000000E+00  0.00000000000E+00  0.39646051174E+03  0.39646051174E+03  0.00000000000E+00 0. -1.
         21   -1    0    0  502  503 -0.00000000000E+00 -0.00000000000E+00 -0.32050915075E+03  0.32050915075E+03  0.00000000000E+00 0. -1.
          6    1    1    2  501    0  0.89810963730E+00  0.16772521866E+03  0.30215527489E+03  0.38647039436E+03  0.17300000000E+03 0. -1.
         -6    1    1    2    0  503 -0.89810963730E+00 -0.16772521866E+03 -0.22620391390E+03  0.33049926814E+03  0.17300000000E+03 0. -1.
</event>
<event>
 4    1  0.3065897E+000  0.1000000E+03  0.7546771E-02  0.1280296E+00
         21   -1    0    0  503  502  0.00000000000E+00  0.00000000000E+00  0.41154946749E+03  0.41154946749E+03  0.00000000000E+00 0.  1.
         21   -1    0    0  501  503 -0.00000000000E+00 -0.00000000000E+00 -0.11511569381E+03  0.11511569381E+03  0.00000000000E+00 0.  1.
          6    1    1    2  501    0  0.25719752433E+02 -0.34861768614E+02  0.29917969611E+03  0.34830208030E+03  0.17300000000E+03 0.  1.
         -6    1    1    2    0  502 -0.25719752433E+02  0.34861768614E+02 -0.27459224232E+01  0.17836308101E+03  0.17300000000E+03 0.  1.
</event>
<event>
 4    1  0.3065897E+000  0.1000000E+03  0.7546771E-02  0.1280296E+00
         21   -1    0    0  501  502  0.00000000000E+00  0.00000000000E+00  0.12817076284E+03  0.12817076284E+03  0.00000000000E+00 0.  1.
         21   -1    0    0  502  503 -0.00000000000E+00 -0.00000000000E+00 -0.58486504117E+03  0.58486504117E+03  0.00000000000E+00 0.  1.
          6    1    1    2  501    0 -0.63626976027E+02  0.66461479468E+02  0.20659022694E+02  0.19703125526E+03  0.17300000000E+03 0.  1.
         -6    1    1    2    0  503  0.63626976027E+02 -0.66461479468E+02 -0.47735330103E+03  0.51600454875E+03  0.17300000000E+03 0.  1.
</event>
<event>
 4    1  0.3065897E+000  0.1000000E+03  0.7546771E-02  0.1280296E+00
         21   -1    0    0  501  502  0.00000000000E+00  0.00000000000E+00  0.91025701972E+03  0.91025701972E+03  0.00000000000E+00 0.  1.
         21   -1    0    0  502  503 -0.00000000000E+00 -0.00000000000E+00 -0.10130664235E+03  0.10130664235E+03  0.00000000000E+00 0.  1.
          6    1    1    2  501    0 -0.11985758557E+03 -0.16788276976E+03  0.63845996447E+03  0.69290013092E+03  0.17300000000E+03 0.  1.
         -6    1    1    2    0  503  0.11985758557E+03  0.16788276976E+03  0.17049041290E+03  0.31866353116E+03  0.17300000000E+03 0.  1.
</event>
<event>
 4    1  0.3065897E+000  0.1000000E+03  0.7546771E-02  0.1280296E+00
         21   -1    0    0  501  502  0.00000000000E+00  0.00000000000E+00  0.42569339003E+03  0.42569339003E+03  0.00000000000E+00 0.  1.
         21   -1    0    0  502  503 -0.00000000000E+00 -0.00000000000E+00 -0.18354720690E+03  0.18354720690E+03  0.00000000000E+00 0.  1.
          6    1    1    2  501    0 -0.21641267332E+02 -0.21848458584E+03  0.11954195501E+03  0.30401173942E+03  0.17300000000E+03 0.  1.
         -6    1    1    2    0  503  0.21641267332E+02  0.21848458584E+03  0.12260422812E+03  0.30522885750E+03  0.17300000000E+03 0.  1.
</event>
<event>
 4    1  0.3065897E+000  0.1000000E+03  0.7546771E-02  0.1280296E+00
         21   -1    0    0  501  502  0.00000000000E+00  0.00000000000E+00  0.37632686218E+02  0.37632686218E+02  0.00000000000E+00 0.  1.
         21   -1    0    0  502  503 -0.00000000000E+00 -0.00000000000E+00 -0.12283973113E+04  0.12283973113E+04  0.00000000000E+00 0.  1.
          6    1    1    2  501    0  0.19979619744E+02  0.13111474245E+01 -0.22416089851E+03  0.28386266527E+03  0.17300000000E+03 0.  1.
         -6    1    1    2    0  503 -0.19979619744E+02 -0.13111474245E+01 -0.96660372653E+03  0.98216733221E+03  0.17300000000E+03 0.  1.
</event>
<event>
 4    1  0.3065897E+000  0.1000000E+03  0.7546771E-02  0.1280296E+00
         21   -1    0    0  501  502  0.00000000000E+00  0.00000000000E+00  0.31837360487E+03  0.31837360487E+03  0.00000000000E+00 0.  1.
         21   -1    0    0  502  503 -0.00000000000E+00 -0.00000000000E+00 -0.11932951926E+03  0.11932951926E+03  0.00000000000E+00 0.  1.
          6    1    1    2  501    0  0.35560785486E+02  0.82379321225E+02  0.95723154816E+02  0.21712402999E+03  0.17300000000E+03 0.  1.
         -6    1    1    2    0  503 -0.35560785486E+02 -0.82379321225E+02  0.10332093080E+03  0.22057909414E+03  0.17300000000E+03 0.  1.
</event>
<event>
 4    1  0.3065897E+000  0.1000000E+03  0.7546771E-02  0.1280296E+00
         21   -1    0    0  503  502  0.00000000000E+00  0.00000000000E+00  0.15698641175E+03  0.15698641175E+03  0.00000000000E+00 0. -1.
         21   -1    0    0  501  503 -0.00000000000E+00 -0.00000000000E+00 -0.23993898214E+03  0.23993898214E+03  0.00000000000E+00 0.  1.
          6    1    1    2  501    0 -0.59625591451E+02  0.15740445453E+02 -0.10562384528E+03  0.21186875530E+03  0.17300000000E+03 0. -1.
         -6    1    1    2    0  502  0.59625591451E+02 -0.15740445453E+02  0.22671274892E+02  0.18505663858E+03  0.17300000000E+03 0.  1.
</event>
<event>
 4    1  0.3065897E+000  0.1000000E+03  0.7546771E-02  0.1280296E+00
         21   -1    0    0  501  502  0.00000000000E+00  0.00000000000E+00  0.54178732777E+03  0.54178732777E+03  0.00000000000E+00 0. -1.
         21   -1    0    0  502  503 -0.00000000000E+00 -0.00000000000E+00 -0.81839160004E+02  0.81839160004E+02  0.00000000000E+00 0.  1.
          6    1    1    2  501    0  0.63568095520E+02 -0.79870833629E+02  0.32351359358E+03  0.38080217707E+03  0.17300000000E+03 0. -1.
         -6    1    1    2    0  503 -0.63568095520E+02  0.79870833629E+02  0.13643457418E+03  0.24282431070E+03  0.17300000000E+03 0.  1.
</event>
<event>
 4    1  0.3065897E+000  0.1000000E+03  0.7546771E-02  0.1280296E+00
         21   -1    0    0  501  502  0.00000000000E+00  0.00000000000E+00  0.30483458173E+03  0.30483458173E+03  0.00000000000E+00 0. -1.
         21   -1    0    0  502  503 -0.00000000000E+00 -0.00000000000E+00 -0.34803726234E+03  0.34803726234E+03  0.00000000000E+00 0.  1.
          6    1    1    2  501    0  0.12115036267E+03  0.24175638143E+03  0.33667193303E+02  0.32277862110E+03  0.17300000000E+03 0. -1.
         -6    1    1    2    0  503 -0.12115036267E+03 -0.24175638143E+03 -0.76869873912E+02  0.33009322297E+03  0.17300000000E+03 0.  1.
</event>
<event>
 4    1  0.3065897E+000  0.1000000E+03  0.7546771E-02  0.1280296E+00
         21   -1    0    0  501  502  0.00000000000E+00  0.00000000000E+00  0.40635835879E+03  0.40635835879E+03  0.00000000000E+00 0. -1.
         21   -1    0    0  502  503 -0.00000000000E+00 -0.00000000000E+00 -0.24838477007E+03  0.24838477007E+03  0.00000000000E+00 0.  1.
          6    1    1    2  501    0 -0.65932565682E+02 -0.96604724495E+02  0.32570124336E+03  0.38689775903E+03  0.17300000000E+03 0. -1.
         -6    1    1    2    0  503  0.65932565682E+02  0.96604724495E+02 -0.16772765464E+03  0.26784536983E+03  0.17300000000E+03 0.  1.
</event>
<event>
 4    1  0.3065897E+000  0.1000000E+03  0.7546771E-02  0.1280296E+00
         21   -1    0    0  501  502  0.00000000000E+00  0.00000000000E+00  0.17973131590E+04  0.17973131590E+04  0.00000000000E+00 0. -1.
         21   -1    0    0  502  503 -0.00000000000E+00 -0.00000000000E+00 -0.40967284901E+02  0.40967284901E+02  0.00000000000E+00 0. -1.
          6    1    1    2  501    0 -0.85645718672E+02 -0.18805720709E+03  0.77098605293E+03  0.81673079780E+03  0.17300000000E+03 0.  1.
         -6    1    1    2    0  503  0.85645718672E+02  0.18805720709E+03  0.98535982113E+03  0.10215496461E+04  0.17300000000E+03 0.  1.
</event>
<event>
 4    1  0.3065897E+000  0.1000000E+03  0.7546771E-02  0.1280296E+00
         21   -1    0    0  501  502  0.00000000000E+00  0.00000000000E+00  0.11081802767E+04  0.11081802767E+04  0.00000000000E+00 0. -1.
         21   -1    0    0  502  503 -0.00000000000E+00 -0.00000000000E+00 -0.16488257171E+03  0.16488257171E+03  0.00000000000E+00 0. -1.
          6    1    1    2  501    0 -0.10434787303E+02  0.74613233385E+02  0.10428053790E+04  0.10597396274E+04  0.17300000000E+03 0.  1.
         -6    1    1    2    0  503  0.10434787303E+02 -0.74613233385E+02 -0.99507674098E+02  0.21332322093E+03  0.17300000000E+03 0.  1.
</event>
<event>
 4    1  0.3065897E+000  0.1000000E+03  0.7546771E-02  0.1280296E+00
         21   -1    0    0  503  502  0.00000000000E+00  0.00000000000E+00  0.14171721514E+04  0.14171721514E+04  0.00000000000E+00 0.  1.
         21   -1    0    0  501  503 -0.00000000000E+00 -0.00000000000E+00 -0.28066358132E+02  0.28066358132E+02  0.00000000000E+00 0.  1.
          6    1    1    2  501    0 -0.64552966436E+02 -0.75354585033E+02  0.69701614168E+03  0.72498682797E+03  0.17300000000E+03 0.  1.
         -6    1    1    2    0  502  0.64552966436E+02  0.75354585033E+02  0.69208965155E+03  0.72025168152E+03  0.17300000000E+03 0.  1.
</event>
<event>
 4    1  0.3065897E+000  0.1000000E+03  0.7546771E-02  0.1280296E+00
         21   -1    0    0  501  502  0.00000000000E+00  0.00000000000E+00  0.37796376193E+03  0.37796376193E+03  0.00000000000E+00 0. -1.
         21   -1    0    0  502  503 -0.00000000000E+00 -0.00000000000E+00 -0.58700066266E+03  0.58700066266E+03  0.00000000000E+00 0. -1.
          6    1    1    2  501    0 -0.38245914639E+03 -0.44869045824E+02  0.10948356045E+03  0.43612369798E+03  0.17300000000E+03 0. -1.
         -6    1    1    2    0  503  0.38245914639E+03  0.44869045824E+02 -0.31852046117E+03  0.52884072661E+03  0.17300000000E+03 0. -1.
</event>
<event>
 4    1  0.3065897E+000  0.1000000E+03  0.7546771E-02  0.1280296E+00
         21   -1    0    0  501  502  0.00000000000E+00  0.00000000000E+00  0.19421816859E+03  0.19421816859E+03  0.00000000000E+00 0. -1.
         21   -1    0    0  502  503 -0.00000000000E+00 -0.00000000000E+00 -0.19890745543E+03  0.19890745543E+03  0.00000000000E+00 0. -1.
          6    1    1    2  501    0  0.89742878055E+02  0.46636186564E+00 -0.27810941383E+02  0.19686657948E+03  0.17300000000E+03 0. -1.
         -6    1    1    2    0  503 -0.89742878055E+02 -0.46636186564E+00  0.23121654546E+02  0.19625904454E+03  0.17300000000E+03 0. -1.
</event>
<event>
 4    1  0.3065897E+000  0.1000000E+03  0.7546771E-02  0.1280296E+00
         21   -1    0    0  501  502  0.00000000000E+00  0.00000000000E+00  0.16224890067E+03  0.16224890067E+03  0.00000000000E+00 0. -1.
         21   -1    0    0  502  503 -0.00000000000E+00 -0.00000000000E+00 -0.96581207792E+03  0.96581207792E+03  0.00000000000E+00 0. -1.
          6    1    1    2  501    0 -0.27976486187E+03  0.23258464331E+02 -0.89733639891E+02  0.34174619271E+03  0.17300000000E+03 0. -1.
         -6    1    1    2    0  503  0.27976486187E+03 -0.23258464331E+02 -0.71382953735E+03  0.78631478588E+03  0.17300000000E+03 0. -1.
</event>
<event>
 4    1  0.3065897E+000  0.1000000E+03  0.7546771E-02  0.1280296E+00
         21   -1    0    0  501  502  0.00000000000E+00  0.00000000000E+00  0.64457608939E+02  0.64457608939E+02  0.00000000000E+00 0. -1.
         21   -1    0    0  502  503 -0.00000000000E+00 -0.00000000000E+00 -0.53942721829E+03  0.53942721829E+03  0.00000000000E+00 0. -1.
          6    1    1    2  501    0 -0.28221181006E+02 -0.48482010754E+02 -0.17083342814E+03  0.24951953951E+03  0.17300000000E+03 0. -1.
         -6    1    1    2    0  503  0.28221181006E+02  0.48482010754E+02 -0.30413618121E+03  0.35436528772E+03  0.17300000000E+03 0. -1.
</event>
<event>
 4    1  0.3065897E+000  0.1000000E+03  0.7546771E-02  0.1280296E+00
         21   -1    0    0  503  502  0.00000000000E+00  0.00000000000E+00  0.61027930246E+03  0.61027930246E+03  0.00000000000E+00 0.  1.
         21   -1    0    0  501  503 -0.00000000000E+00 -0.00000000000E+00 -0.51464924616E+02  0.51464924616E+02  0.00000000000E+00 0. -1.
          6    1    1    2  501    0  0.25421350559E+02  0.10132007424E+02  0.22896149406E+03  0.28827290612E+03  0.17300000000E+03 0. -1.
         -6    1    1    2    0  502 -0.25421350559E+02 -0.10132007424E+02  0.32985288378E+03  0.37347132095E+03  0.17300000000E+03 0.  1.
</event>
<event>
 4    1  0.3065897E+000  0.1000000E+03  0.7546771E-02  0.1280296E+00
         21   -1    0    0  503  502  0.00000000000E+00  0.00000000000E+00  0.24855886863E+03  0.24855886863E+03  0.00000000000E+00 0.  1.
         21   -1    0    0  501  503 -0.00000000000E+00 -0.00000000000E+00 -0.32687026059E+03  0.32687026059E+03  0.00000000000E+00 0. -1.
          6    1    1    2  501    0  0.20288405362E+02  0.12949041275E+03 -0.22565588842E+03  0.31309577826E+03  0.17300000000E+03 0. -1.
         -6    1    1    2    0  502 -0.20288405362E+02 -0.12949041275E+03  0.14734449647E+03  0.26233335096E+03  0.17300000000E+03 0.  1.
</event>
<event>
 4    1  0.3065897E+000  0.1000000E+03  0.7546771E-02  0.1280296E+00
         21   -1    0    0  501  502  0.00000000000E+00  0.00000000000E+00  0.23349930850E+03  0.23349930850E+03  0.00000000000E+00 0.  1.
         21   -1    0    0  502  503 -0.00000000000E+00 -0.00000000000E+00 -0.25767286373E+03  0.25767286373E+03  0.00000000000E+00 0. -1.
          6    1    1    2  501    0  0.90904636109E+02  0.68354522786E+02  0.11960776099E+03  0.23910460084E+03  0.17300000000E+03 0.  1.
         -6    1    1    2    0  503 -0.90904636109E+02 -0.68354522786E+02 -0.14378131622E+03  0.25206757139E+03  0.17300000000E+03 0. -1.
</event>
<event>
 4    1  0.3065897E+000  0.1000000E+03  0.7546771E-02  0.1280296E+00
         21   -1    0    0  501  502  0.00000000000E+00  0.00000000000E+00  0.26073116894E+03  0.26073116894E+03  0.00000000000E+00 0.  1.
         21   -1    0    0  502  503 -0.00000000000E+00 -0.00000000000E+00 -0.29670939810E+03  0.29670939810E+03  0.00000000000E+00 0. -1.
          6    1    1    2  501    0 -0.49856155760E+02 -0.20963662879E+03  0.13687622632E+02  0.27667580922E+03  0.17300000000E+03 0.  1.
         -6    1    1    2    0  503  0.49856155760E+02  0.20963662879E+03 -0.49665851785E+02  0.28076475781E+03  0.17300000000E+03 0. -1.
</event>
<event>
 4    1  0.3065897E+000  0.1000000E+03  0.7546771E-02  0.1280296E+00
         21   -1    0    0  501  502  0.00000000000E+00  0.00000000000E+00  0.47210125470E+03  0.47210125470E+03  0.00000000000E+00 0.  1.
         21   -1    0    0  502  503 -0.00000000000E+00 -0.00000000000E+00 -0.21813848591E+03  0.21813848591E+03  0.00000000000E+00 0. -1.
          6    1    1    2  501    0  0.78715828825E+02 -0.46808932855E+02  0.40046307234E+03  0.44574312132E+03  0.17300000000E+03 0.  1.
         -6    1    1    2    0  503 -0.78715828825E+02  0.46808932855E+02 -0.14650030355E+03  0.24449661929E+03  0.17300000000E+03 0. -1.
</event>
<event>
 4    1  0.3065897E+000  0.1000000E+03  0.7546771E-02  0.1280296E+00
         21   -1    0    0  503  502  0.00000000000E+00  0.00000000000E+00  0.26139608054E+03  0.26139608054E+03  0.00000000000E+00 0.  1.
         21   -1    0    0  501  503 -0.00000000000E+00 -0.00000000000E+00 -0.18168870024E+03  0.18168870024E+03  0.00000000000E+00 0.  1.
          6    1    1    2  501    0 -0.12311580018E+03 -0.47424197781E+02  0.27109465190E+02  0.21924980705E+03  0.17300000000E+03 0.  1.
         -6    1    1    2    0  502  0.12311580018E+03  0.47424197781E+02  0.52597915112E+02  0.22383497373E+03  0.17300000000E+03 0.  1.
</event>
<event>
 4    1  0.3065897E+000  0.1000000E+03  0.7546771E-02  0.1280296E+00
         21   -1    0    0  503  502  0.00000000000E+00  0.00000000000E+00  0.51588834809E+03  0.51588834809E+03  0.00000000000E+00 0.  1.
         21   -1    0    0  501  503 -0.00000000000E+00 -0.00000000000E+00 -0.19458413364E+03  0.19458413364E+03  0.00000000000E+00 0.  1.
          6    1    1    2  501    0 -0.59402751128E+02 -0.23316611370E+03  0.34999075179E+02  0.29841088901E+03  0.17300000000E+03 0.  1.
         -6    1    1    2    0  502  0.59402751128E+02  0.23316611370E+03  0.28630513928E+03  0.41206159272E+03  0.17300000000E+03 0.  1.
</event>
<event>
 4    1  0.3065897E+000  0.1000000E+03  0.7546771E-02  0.1280296E+00
         21   -1    0    0  501  502  0.00000000000E+00  0.00000000000E+00  0.83397491110E+03  0.83397491110E+03  0.00000000000E+00 0. -1.
         21   -1    0    0  502  503 -0.00000000000E+00 -0.00000000000E+00 -0.11261494526E+03  0.11261494526E+03  0.00000000000E+00 0. -1.
          6    1    1    2  501    0 -0.31026923509E+02 -0.11475022073E+03  0.70552826050E+03  0.73609062588E+03  0.17300000000E+03 0. -1.
         -6    1    1    2    0  503  0.31026923509E+02  0.11475022073E+03  0.15831705332E+02  0.21049923048E+03  0.17300000000E+03 0. -1.
</event>
<event>
 4    1  0.3065897E+000  0.1000000E+03  0.7546771E-02  0.1280296E+00
         21   -1    0    0  503  502  0.00000000000E+00  0.00000000000E+00  0.46991135823E+03  0.46991135823E+03  0.00000000000E+00 0.  1.
         21   -1    0    0  501  503 -0.00000000000E+00 -0.00000000000E+00 -0.43268730934E+03  0.43268730934E+03  0.00000000000E+00 0. -1.
          6    1    1    2  501    0  0.38956188329E+03 -0.38093313380E+02 -0.12358681941E+03  0.44543491485E+03  0.17300000000E+03 0. -1.
         -6    1    1    2    0  502 -0.38956188329E+03  0.38093313380E+02  0.16081086830E+03  0.45716375272E+03  0.17300000000E+03 0. -1.
</event>
<event>
 4    1  0.3065897E+000  0.1000000E+03  0.7546771E-02  0.1280296E+00
         21   -1    0    0  503  502  0.00000000000E+00  0.00000000000E+00  0.17972433291E+03  0.17972433291E+03  0.00000000000E+00 0.  1.
         21   -1    0    0  501  503 -0.00000000000E+00 -0.00000000000E+00 -0.31963467376E+03  0.31963467376E+03  0.00000000000E+00 0. -1.
          6    1    1    2  501    0  0.99338415052E+02 -0.13154943963E+03 -0.89269320237E+02  0.25509093929E+03  0.17300000000E+03 0. -1.
         -6    1    1    2    0  502 -0.99338415052E+02  0.13154943963E+03 -0.50641020613E+02  0.24426806738E+03  0.17300000000E+03 0. -1.
</event>
<event>
 4    1  0.3065897E+000  0.1000000E+03  0.7546771E-02  0.1280296E+00
         21   -1    0    0  501  502  0.00000000000E+00  0.00000000000E+00  0.10854548106E+04  0.10854548106E+04  0.00000000000E+00 0.  1.
         21   -1    0    0  502  503 -0.00000000000E+00 -0.00000000000E+00 -0.36660025404E+02  0.36660025404E+02  0.00000000000E+00 0. -1.
          6    1    1    2  501    0  0.88403577655E+01  0.76293613769E+02  0.34729557914E+03  0.39552760551E+03  0.17300000000E+03 0.  1.
         -6    1    1    2    0  503 -0.88403577655E+01 -0.76293613769E+02  0.70149920609E+03  0.72658723053E+03  0.17300000000E+03 0. -1.
</event>
<event>
 4    1  0.3065897E+000  0.1000000E+03  0.7546771E-02  0.1280296E+00
         21   -1    0    0  503  502  0.00000000000E+00  0.00000000000E+00  0.11993352658E+04  0.11993352658E+04  0.00000000000E+00 0.  1.
         21   -1    0    0  501  503 -0.00000000000E+00 -0.00000000000E+00 -0.35365407718E+02  0.35365407718E+02  0.00000000000E+00 0.  1.
          6    1    1    2  501    0  0.41319715476E+02  0.97098288383E+02  0.69214719999E+03  0.72120187392E+03  0.17300000000E+03 0.  1.
         -6    1    1    2    0  502 -0.41319715476E+02 -0.97098288383E+02  0.47182265804E+03  0.51349879955E+03  0.17300000000E+03 0.  1.
</event>
<event>
 4    1  0.3065897E+000  0.1000000E+03  0.7546771E-02  0.1280296E+00
         21   -1    0    0  503  502  0.00000000000E+00  0.00000000000E+00  0.12481357885E+03  0.12481357885E+03  0.00000000000E+00 0.  1.
         21   -1    0    0  501  503 -0.00000000000E+00 -0.00000000000E+00 -0.35914946685E+03  0.35914946685E+03  0.00000000000E+00 0.  1.
          6    1    1    2  501    0  0.66502701707E+02  0.81149895815E+02 -0.18844966369E+03  0.27649627605E+03  0.17300000000E+03 0.  1.
         -6    1    1    2    0  502 -0.66502701707E+02 -0.81149895815E+02 -0.45886224311E+02  0.20746676964E+03  0.17300000000E+03 0.  1.
</event>
<event>
 4    1  0.3065897E+000  0.1000000E+03  0.7546771E-02  0.1280296E+00
         21   -1    0    0  503  502  0.00000000000E+00  0.00000000000E+00  0.13963839733E+03  0.13963839733E+03  0.00000000000E+00 0.  1.
         21   -1    0    0  501  503 -0.00000000000E+00 -0.00000000000E+00 -0.52529132742E+03  0.52529132742E+03  0.00000000000E+00 0.  1.
          6    1    1    2  501    0  0.42404262977E+02 -0.88671422439E+02 -0.41838095681E+03  0.46328432706E+03  0.17300000000E+03 0.  1.
         -6    1    1    2    0  502 -0.42404262977E+02  0.88671422439E+02  0.32728026716E+02  0.20164539769E+03  0.17300000000E+03 0.  1.
</event>
<event>
 4    1  0.3065897E+000  0.1000000E+03  0.7546771E-02  0.1280296E+00
         21   -1    0    0  503  502  0.00000000000E+00  0.00000000000E+00  0.34198665737E+03  0.34198665737E+03  0.00000000000E+00 0.  1.
         21   -1    0    0  501  503 -0.00000000000E+00 -0.00000000000E+00 -0.79471894963E+03  0.79471894963E+03  0.00000000000E+00 0.  1.
          6    1    1    2  501    0 -0.10620283783E+03  0.10037320844E+03 -0.73829709356E+03  0.77224699552E+03  0.17300000000E+03 0.  1.
         -6    1    1    2    0  502  0.10620283783E+03 -0.10037320844E+03  0.28556480131E+03  0.36445861148E+03  0.17300000000E+03 0.  1.
</event>
<event>
 4    1  0.3065897E+000  0.1000000E+03  0.7546771E-02  0.1280296E+00
         21   -1    0    0  501  502  0.00000000000E+00  0.00000000000E+00  0.77909551699E+03  0.77909551699E+03  0.00000000000E+00 0.  1.
         21   -1    0    0  502  503 -0.00000000000E+00 -0.00000000000E+00 -0.18608937280E+03  0.18608937280E+03  0.00000000000E+00 0. -1.
          6    1    1    2  501    0 -0.11412759684E+03  0.19560823772E+02  0.70058243217E+03  0.73085735849E+03  0.17300000000E+03 0.  1.
         -6    1    1    2    0  503  0.11412759684E+03 -0.19560823772E+02 -0.10757628798E+03  0.23432753130E+03  0.17300000000E+03 0. -1.
</event>
<event>
 4    1  0.3065897E+000  0.1000000E+03  0.7546771E-02  0.1280296E+00
         21   -1    0    0  501  502  0.00000000000E+00  0.00000000000E+00  0.19571902423E+04  0.19571902423E+04  0.00000000000E+00 0.  1.
         21   -1    0    0  502  503 -0.00000000000E+00 -0.00000000000E+00 -0.35642222473E+02  0.35642222473E+02  0.00000000000E+00 0. -1.
          6    1    1    2  501    0 -0.11905695763E+03  0.16014266820E+03  0.97232626970E+03  0.10075552630E+04  0.17300000000E+03 0.  1.
         -6    1    1    2    0  503  0.11905695763E+03 -0.16014266820E+03  0.94922175017E+03  0.98527720178E+03  0.17300000000E+03 0. -1.
</event>
<event>
 4    1  0.3065897E+000  0.1000000E+03  0.7546771E-02  0.1280296E+00
         21   -1    0    0  503  502  0.00000000000E+00  0.00000000000E+00  0.63682581752E+03  0.63682581752E+03  0.00000000000E+00 0. -1.
         21   -1    0    0  501  503 -0.00000000000E+00 -0.00000000000E+00 -0.16918584408E+03  0.16918584408E+03  0.00000000000E+00 0. -1.
          6    1    1    2  501    0  0.18601106502E+03 -0.79509030869E+02 -0.19995901587E+01  0.26618565074E+03  0.17300000000E+03 0. -1.
         -6    1    1    2    0  502 -0.18601106502E+03  0.79509030869E+02  0.46963956360E+03  0.53982601086E+03  0.17300000000E+03 0. -1.
</event>
<event>
 4    1  0.3065897E+000  0.1000000E+03  0.7546771E-02  0.1280296E+00
         21   -1    0    0  503  502  0.00000000000E+00  0.00000000000E+00  0.13635288853E+03  0.13635288853E+03  0.00000000000E+00 0. -1.
         21   -1    0    0  501  503 -0.00000000000E+00 -0.00000000000E+00 -0.42301460037E+03  0.42301460037E+03  0.00000000000E+00 0. -1.
          6    1    1    2  501    0 -0.13427377572E+03  0.82047626496E+02 -0.20699875744E+03  0.31231193611E+03  0.17300000000E+03 0. -1.
         -6    1    1    2    0  502  0.13427377572E+03 -0.82047626496E+02 -0.79662954407E+02  0.24705555279E+03  0.17300000000E+03 0. -1.
</event>
<event>
 4    1  0.3065897E+000  0.1000000E+03  0.7546771E-02  0.1280296E+00
         21   -1    0    0  501  502  0.00000000000E+00  0.00000000000E+00  0.11127545391E+04  0.11127545391E+04  0.00000000000E+00 0. -1.
         21   -1    0    0  502  503 -0.00000000000E+00 -0.00000000000E+00 -0.54740001499E+02  0.54740001499E+02  0.00000000000E+00 0. -1.
          6    1    1    2  501    0 -0.81502492368E+01 -0.24921213957E+02  0.94069052992E+03  0.95682556746E+03  0.17300000000E+03 0. -1.
         -6    1    1    2    0  503  0.81502492368E+01  0.24921213957E+02  0.11732400770E+03  0.21066897316E+03  0.17300000000E+03 0. -1.
</event>
<event>
 4    1  0.3065897E+000  0.1000000E+03  0.7546771E-02  0.1280296E+00
         21   -1    0    0  503  502  0.00000000000E+00  0.00000000000E+00  0.14168148301E+03  0.14168148301E+03  0.00000000000E+00 0. -1.
         21   -1    0    0  501  503 -0.00000000000E+00 -0.00000000000E+00 -0.41040630604E+03  0.41040630604E+03  0.00000000000E+00 0.  1.
          6    1    1    2  501    0 -0.98801002793E+02  0.58390146112E+02 -0.27478549001E+03  0.34439383391E+03  0.17300000000E+03 0.  1.
         -6    1    1    2    0  502  0.98801002793E+02 -0.58390146112E+02  0.60606669760E+01  0.20769395514E+03  0.17300000000E+03 0. -1.
</event>
<event>
 4    1  0.3065897E+000  0.1000000E+03  0.7546771E-02  0.1280296E+00
         21   -1    0    0  503  502  0.00000000000E+00  0.00000000000E+00  0.85487686913E+03  0.85487686913E+03  0.00000000000E+00 0. -1.
         21   -1    0    0  501  503 -0.00000000000E+00 -0.00000000000E+00 -0.92323698673E+02  0.92323698673E+02  0.00000000000E+00 0.  1.
          6    1    1    2  501    0  0.11691888999E+02  0.81888053851E+02  0.35159387061E+02  0.19495521570E+03  0.17300000000E+03 0.  1.
         -6    1    1    2    0  502 -0.11691888999E+02 -0.81888053851E+02  0.72739378340E+03  0.75224535210E+03  0.17300000000E+03 0. -1.
</event>
<event>
 4    1  0.3065897E+000  0.1000000E+03  0.7546771E-02  0.1280296E+00
         21   -1    0    0  503  502  0.00000000000E+00  0.00000000000E+00  0.17928488076E+03  0.17928488076E+03  0.00000000000E+00 0. -1.
         21   -1    0    0  501  503 -0.00000000000E+00 -0.00000000000E+00 -0.25463553556E+03  0.25463553556E+03  0.00000000000E+00 0.  1.
          6    1    1    2  501    0 -0.75399287096E+02  0.15659090250E+02 -0.13816179020E+03  0.23440976915E+03  0.17300000000E+03 0.  1.
         -6    1    1    2    0  502  0.75399287096E+02 -0.15659090250E+02  0.62811135396E+02  0.19951064716E+03  0.17300000000E+03 0. -1.
</event>
<event>
 4    1  0.3065897E+000  0.1000000E+03  0.7546771E-02  0.1280296E+00
         21   -1    0    0  501  502  0.00000000000E+00  0.00000000000E+00  0.78909853182E+03  0.78909853182E+03  0.00000000000E+00 0.  1.
         21   -1    0    0  502  503 -0.00000000000E+00 -0.00000000000E+00 -0.30284781216E+03  0.30284781216E+03  0.00000000000E+00 0.  1.
          6    1    1    2  501    0  0.43507081751E+03  0.11886660729E+03  0.32694003377E+03  0.58329638457E+03  0.17300000000E+03 0.  1.
         -6    1    1    2    0  503 -0.43507081751E+03 -0.11886660729E+03  0.15931068589E+03  0.50864995942E+03  0.17300000000E+03 0.  1.
</event>
<event>
 4    1  0.3065897E+000  0.1000000E+03  0.7546771E-02  0.1280296E+00
         21   -1    0    0  503  502  0.00000000000E+00  0.00000000000E+00  0.20478892480E+03  0.20478892480E+03  0.00000000000E+00 0.  1.
         21   -1    0    0  501  503 -0.00000000000E+00 -0.00000000000E+00 -0.49189861867E+03  0.49189861867E+03  0.00000000000E+00 0.  1.
          6    1    1    2  501    0 -0.53823946037E+02  0.80903223997E+02 -0.41543279849E+03  0.46038653204E+03  0.17300000000E+03 0. -1.
         -6    1    1    2    0  502  0.53823946037E+02 -0.80903223997E+02  0.12832310463E+03  0.23630101143E+03  0.17300000000E+03 0. -1.
</event>
<event>
 4    1  0.3065897E+000  0.1000000E+03  0.7546771E-02  0.1280296E+00
         21   -1    0    0  503  502  0.00000000000E+00  0.00000000000E+00  0.24126656344E+03  0.24126656344E+03  0.00000000000E+00 0.  1.
         21   -1    0    0  501  503 -0.00000000000E+00 -0.00000000000E+00 -0.18437543371E+03  0.18437543371E+03  0.00000000000E+00 0. -1.
          6    1    1    2  501    0  0.10515220085E+02 -0.90746514925E+02  0.10795701372E+03  0.22344846528E+03  0.17300000000E+03 0. -1.
         -6    1    1    2    0  502 -0.10515220085E+02  0.90746514925E+02 -0.51065883990E+02  0.20219353188E+03  0.17300000000E+03 0.  1.
</event>
<event>
 4    1  0.3065897E+000  0.1000000E+03  0.7546771E-02  0.1280296E+00
         21   -1    0    0  501  502  0.00000000000E+00  0.00000000000E+00  0.68186443341E+02  0.68186443341E+02  0.00000000000E+00 0. -1.
         21   -1    0    0  502  503 -0.00000000000E+00 -0.00000000000E+00 -0.57585137270E+03  0.57585137270E+03  0.00000000000E+00 0.  1.
          6    1    1    2  501    0  0.47337360768E+02 -0.16486776842E+02 -0.11959167855E+03  0.21620316629E+03  0.17300000000E+03 0. -1.
         -6    1    1    2    0  503 -0.47337360768E+02  0.16486776842E+02 -0.38807325080E+03  0.42783464975E+03  0.17300000000E+03 0.  1.
</event>
<event>
 4    1  0.3065897E+000  0.1000000E+03  0.7546771E-02  0.1280296E+00
         21   -1    0    0  501  502  0.00000000000E+00  0.00000000000E+00  0.45715629419E+03  0.45715629419E+03  0.00000000000E+00 0. -1.
         21   -1    0    0  502  503 -0.00000000000E+00 -0.00000000000E+00 -0.18524891460E+03  0.18524891460E+03  0.00000000000E+00 0.  1.
          6    1    1    2  501    0 -0.10659438722E+03 -0.19097320761E+03  0.44099942371E+02  0.28232416533E+03  0.17300000000E+03 0. -1.
         -6    1    1    2    0  503  0.10659438722E+03  0.19097320761E+03  0.22780743722E+03  0.36008104347E+03  0.17300000000E+03 0.  1.
</event>
<event>
 4    1  0.3065897E+000  0.1000000E+03  0.7546771E-02  0.1280296E+00
         21   -1    0    0  501  502  0.00000000000E+00  0.00000000000E+00  0.43051457562E+03  0.43051457562E+03  0.00000000000E+00 0. -1.
         21   -1    0    0  502  503 -0.00000000000E+00 -0.00000000000E+00 -0.37649199917E+03  0.37649199917E+03  0.00000000000E+00 0.  1.
          6    1    1    2  501    0  0.53625822322E+02 -0.15908800195E+03  0.35018243332E+03  0.42513698709E+03  0.17300000000E+03 0. -1.
         -6    1    1    2    0  503 -0.53625822322E+02  0.15908800195E+03 -0.29615985688E+03  0.38186958770E+03  0.17300000000E+03 0.  1.
</event>
<event>
 4    1  0.3065897E+000  0.1000000E+03  0.7546771E-02  0.1280296E+00
         21   -1    0    0  501  502  0.00000000000E+00  0.00000000000E+00  0.53540306585E+02  0.53540306585E+02  0.00000000000E+00 0.  1.
         21   -1    0    0  502  503 -0.00000000000E+00 -0.00000000000E+00 -0.91492230101E+03  0.91492230101E+03  0.00000000000E+00 0.  1.
          6    1    1    2  501    0 -0.98717971688E+02  0.95719974609E+02 -0.40401439128E+03  0.46050426691E+03  0.17300000000E+03 0.  1.
         -6    1    1    2    0  503  0.98717971688E+02 -0.95719974609E+02 -0.45736760314E+03  0.50795834069E+03  0.17300000000E+03 0.  1.
</event>
<event>
 4    1  0.3065897E+000  0.1000000E+03  0.7546771E-02  0.1280296E+00
         21   -1    0    0  501  502  0.00000000000E+00  0.00000000000E+00  0.92590307438E+03  0.92590307438E+03  0.00000000000E+00 0.  1.
         21   -1    0    0  502  503 -0.00000000000E+00 -0.00000000000E+00 -0.44973289143E+02  0.44973289143E+02  0.00000000000E+00 0.  1.
          6    1    1    2  501    0 -0.88676376279E+02  0.36446769798E+02  0.55988502716E+03  0.59379467022E+03  0.17300000000E+03 0.  1.
         -6    1    1    2    0  503  0.88676376279E+02 -0.36446769798E+02  0.32104475808E+03  0.37708169331E+03  0.17300000000E+03 0.  1.
</event>
<event>
 4    1  0.3065897E+000  0.1000000E+03  0.7546771E-02  0.1280296E+00
         21   -1    0    0  501  502  0.00000000000E+00  0.00000000000E+00  0.40610617759E+03  0.40610617759E+03  0.00000000000E+00 0.  1.
         21   -1    0    0  502  503 -0.00000000000E+00 -0.00000000000E+00 -0.12133670626E+03  0.12133670626E+03  0.00000000000E+00 0.  1.
          6    1    1    2  501    0  0.13270005557E+02  0.10585529679E+03  0.24841418285E+03  0.32096735526E+03  0.17300000000E+03 0.  1.
         -6    1    1    2    0  503 -0.13270005557E+02 -0.10585529679E+03  0.36355288475E+02  0.20647552859E+03  0.17300000000E+03 0.  1.
</event>
<event>
 4    1  0.3065897E+000  0.1000000E+03  0.7546771E-02  0.1280296E+00
         21   -1    0    0  501  502  0.00000000000E+00  0.00000000000E+00  0.64393409976E+03  0.64393409976E+03  0.00000000000E+00 0.  1.
         21   -1    0    0  502  503 -0.00000000000E+00 -0.00000000000E+00 -0.13254938627E+03  0.13254938627E+03  0.00000000000E+00 0.  1.
          6    1    1    2  501    0 -0.17265560892E+03  0.37684600269E+02  0.46239514080E+03  0.52437425053E+03  0.17300000000E+03 0.  1.
         -6    1    1    2    0  503  0.17265560892E+03 -0.37684600269E+02  0.48989572697E+02  0.25210923550E+03  0.17300000000E+03 0.  1.
</event>
<event>
 4    1  0.3065897E+000  0.1000000E+03  0.7546771E-02  0.1280296E+00
         21   -1    0    0  501  502  0.00000000000E+00  0.00000000000E+00  0.88469122922E+02  0.88469122922E+02  0.00000000000E+00 0.  1.
         21   -1    0    0  502  503 -0.00000000000E+00 -0.00000000000E+00 -0.62917110952E+03  0.62917110952E+03  0.00000000000E+00 0.  1.
          6    1    1    2  501    0  0.30310106725E+02  0.12534223563E+03 -0.12523716918E+03  0.24948492369E+03  0.17300000000E+03 0.  1.
         -6    1    1    2    0  503 -0.30310106725E+02 -0.12534223563E+03 -0.41546481742E+03  0.46815530876E+03  0.17300000000E+03 0.  1.
</event>
<event>
 4    1  0.3065897E+000  0.1000000E+03  0.7546771E-02  0.1280296E+00
         21   -1    0    0  501  502  0.00000000000E+00  0.00000000000E+00  0.74165870654E+03  0.74165870654E+03  0.00000000000E+00 0.  1.
         21   -1    0    0  502  503 -0.00000000000E+00 -0.00000000000E+00 -0.56343191248E+02  0.56343191248E+02  0.00000000000E+00 0.  1.
          6    1    1    2  501    0  0.82648392539E+02  0.26839470193E+02  0.21455633877E+03  0.28898881718E+03  0.17300000000E+03 0.  1.
         -6    1    1    2    0  503 -0.82648392539E+02 -0.26839470193E+02  0.47075917653E+03  0.50901308061E+03  0.17300000000E+03 0.  1.
</event>
<event>
 4    1  0.3065897E+000  0.1000000E+03  0.7546771E-02  0.1280296E+00
         21   -1    0    0  501  502  0.00000000000E+00  0.00000000000E+00  0.64864888662E+03  0.64864888662E+03  0.00000000000E+00 0. -1.
         21   -1    0    0  502  503 -0.00000000000E+00 -0.00000000000E+00 -0.12477720721E+03  0.12477720721E+03  0.00000000000E+00 0. -1.
          6    1    1    2  501    0 -0.28224944143E+02 -0.32600896428E+01  0.56649355240E+03  0.59300187231E+03  0.17300000000E+03 0. -1.
         -6    1    1    2    0  503  0.28224944143E+02  0.32600896428E+01 -0.42621872986E+02  0.18042422153E+03  0.17300000000E+03 0. -1.
</event>
<event>
 4    1  0.3065897E+000  0.1000000E+03  0.7546771E-02  0.1280296E+00
         21   -1    0    0  501  502  0.00000000000E+00  0.00000000000E+00  0.20589140278E+03  0.20589140278E+03  0.00000000000E+00 0.  1.
         21   -1    0    0  502  503 -0.00000000000E+00 -0.00000000000E+00 -0.18429115316E+03  0.18429115316E+03  0.00000000000E+00 0.  1.
          6    1    1    2  501    0 -0.40303622575E+02 -0.59579871402E+01  0.90641345142E+02  0.19951123540E+03  0.17300000000E+03 0.  1.
         -6    1    1    2    0  503  0.40303622575E+02  0.59579871402E+01 -0.69041095517E+02  0.19067132053E+03  0.17300000000E+03 0.  1.
</event>
<event>
 4    1  0.3065897E+000  0.1000000E+03  0.7546771E-02  0.1280296E+00
         21   -1    0    0  501  502  0.00000000000E+00  0.00000000000E+00  0.23405037973E+03  0.23405037973E+03  0.00000000000E+00 0.  1.
         21   -1    0    0  502  503 -0.00000000000E+00 -0.00000000000E+00 -0.29944392367E+03  0.29944392367E+03  0.00000000000E+00 0.  1.
          6    1    1    2  501    0  0.14829031309E+03 -0.13290658104E+03 -0.10125948049E+02  0.26398051266E+03  0.17300000000E+03 0.  1.
         -6    1    1    2    0  503 -0.14829031309E+03  0.13290658104E+03 -0.55267595890E+02  0.26951379074E+03  0.17300000000E+03 0.  1.
</event>
<event>
 4    1  0.3065897E+000  0.1000000E+03  0.7546771E-02  0.1280296E+00
         21   -1    0    0  501  502  0.00000000000E+00  0.00000000000E+00  0.33657966122E+02  0.33657966122E+02  0.00000000000E+00 0.  1.
         21   -1    0    0  502  503 -0.00000000000E+00 -0.00000000000E+00 -0.17292839578E+04  0.17292839578E+04  0.00000000000E+00 0.  1.
          6    1    1    2  501    0  0.13069892996E+03 -0.42806721213E+01 -0.12340446059E+04  0.12529547573E+04  0.17300000000E+03 0.  1.
         -6    1    1    2    0  503 -0.13069892996E+03  0.42806721213E+01 -0.46158138583E+03  0.50998716669E+03  0.17300000000E+03 0.  1.
</event>
<event>
 4    1  0.3065897E+000  0.1000000E+03  0.7546771E-02  0.1280296E+00
         21   -1    0    0  501  502  0.00000000000E+00  0.00000000000E+00  0.16218237036E+03  0.16218237036E+03  0.00000000000E+00 0.  1.
         21   -1    0    0  502  503 -0.00000000000E+00 -0.00000000000E+00 -0.25535339490E+03  0.25535339490E+03  0.00000000000E+00 0.  1.
          6    1    1    2  501    0 -0.75818827352E+01  0.10689693622E+03 -0.45954002692E+02  0.20862696442E+03  0.17300000000E+03 0.  1.
         -6    1    1    2    0  503  0.75818827352E+01 -0.10689693622E+03 -0.47217021851E+02  0.20890880085E+03  0.17300000000E+03 0.  1.
</event>
<event>
 4    1  0.3065897E+000  0.1000000E+03  0.7546771E-02  0.1280296E+00
         21   -1    0    0  501  502  0.00000000000E+00  0.00000000000E+00  0.96929185021E+03  0.96929185021E+03  0.00000000000E+00 0. -1.
         21   -1    0    0  502  503 -0.00000000000E+00 -0.00000000000E+00 -0.88648021509E+02  0.88648021509E+02  0.00000000000E+00 0.  1.
          6    1    1    2  501    0 -0.19307099732E+03  0.12989906054E+03  0.51786784167E+03  0.59352024175E+03  0.17300000000E+03 0.  1.
         -6    1    1    2    0  503  0.19307099732E+03 -0.12989906054E+03  0.36277598704E+03  0.46441962997E+03  0.17300000000E+03 0.  1.
</event>
<event>
 4    1  0.3065897E+000  0.1000000E+03  0.7546771E-02  0.1280296E+00
         21   -1    0    0  501  502  0.00000000000E+00  0.00000000000E+00  0.20571611913E+03  0.20571611913E+03  0.00000000000E+00 0. -1.
         21   -1    0    0  502  503 -0.00000000000E+00 -0.00000000000E+00 -0.98729156514E+03  0.98729156514E+03  0.00000000000E+00 0.  1.
          6    1    1    2  501    0 -0.14925750408E+02  0.87671205577E+02  0.14729023237E+03  0.24399268608E+03  0.17300000000E+03 0. -1.
         -6    1    1    2    0  503  0.14925750408E+02 -0.87671205577E+02 -0.92886567838E+03  0.94901499818E+03  0.17300000000E+03 0.  1.
</event>
<event>
 4    1  0.3065897E+000  0.1000000E+03  0.7546771E-02  0.1280296E+00
         21   -1    0    0  503  502  0.00000000000E+00  0.00000000000E+00  0.14746398565E+03  0.14746398565E+03  0.00000000000E+00 0. -1.
         21   -1    0    0  501  503 -0.00000000000E+00 -0.00000000000E+00 -0.21556565131E+03  0.21556565131E+03  0.00000000000E+00 0. -1.
          6    1    1    2  501    0 -0.32128674730E+02 -0.14494597038E+02 -0.87659866818E+01  0.17677156900E+03  0.17300000000E+03 0. -1.
         -6    1    1    2    0  502  0.32128674730E+02  0.14494597038E+02 -0.59335678980E+02  0.18625806797E+03  0.17300000000E+03 0. -1.
</event>
<event>
 4    1  0.3065897E+000  0.1000000E+03  0.7546771E-02  0.1280296E+00
         21   -1    0    0  503  502  0.00000000000E+00  0.00000000000E+00  0.12850422290E+03  0.12850422290E+03  0.00000000000E+00 0. -1.
         21   -1    0    0  501  503 -0.00000000000E+00 -0.00000000000E+00 -0.58882165242E+03  0.58882165242E+03  0.00000000000E+00 0. -1.
          6    1    1    2  501    0  0.17861156845E+02  0.59712667697E+02 -0.49690374339E+03  0.52983672372E+03  0.17300000000E+03 0. -1.
         -6    1    1    2    0  502 -0.17861156845E+02 -0.59712667697E+02  0.36586313869E+02  0.18748915161E+03  0.17300000000E+03 0. -1.
</event>
<event>
 4    1  0.3065897E+000  0.1000000E+03  0.7546771E-02  0.1280296E+00
         21   -1    0    0  503  502  0.00000000000E+00  0.00000000000E+00  0.14792135678E+03  0.14792135678E+03  0.00000000000E+00 0.  1.
         21   -1    0    0  501  503 -0.00000000000E+00 -0.00000000000E+00 -0.44316666641E+03  0.44316666641E+03  0.00000000000E+00 0.  1.
          6    1    1    2  501    0  0.14927657162E+03  0.39994138314E+02 -0.27270335653E+03  0.35802115384E+03  0.17300000000E+03 0.  1.
         -6    1    1    2    0  502 -0.14927657162E+03 -0.39994138314E+02 -0.22541953103E+02  0.23306686934E+03  0.17300000000E+03 0.  1.
</event>
<event>
 4    1  0.3065897E+000  0.1000000E+03  0.7546771E-02  0.1280296E+00
         21   -1    0    0  501  502  0.00000000000E+00  0.00000000000E+00  0.29875241200E+03  0.29875241200E+03  0.00000000000E+00 0. -1.
         21   -1    0    0  502  503 -0.00000000000E+00 -0.00000000000E+00 -0.24532013645E+03  0.24532013645E+03  0.00000000000E+00 0. -1.
          6    1    1    2  501    0 -0.10710640673E+03 -0.14707762239E+03  0.12848679655E+03  0.28203096684E+03  0.17300000000E+03 0. -1.
         -6    1    1    2    0  503  0.10710640673E+03  0.14707762239E+03 -0.75054520994E+02  0.26204158161E+03  0.17300000000E+03 0. -1.
</event>
<event>
 4    1  0.3065897E+000  0.1000000E+03  0.7546771E-02  0.1280296E+00
         21   -1    0    0  501  502  0.00000000000E+00  0.00000000000E+00  0.14392585583E+04  0.14392585583E+04  0.00000000000E+00 0. -1.
         21   -1    0    0  502  503 -0.00000000000E+00 -0.00000000000E+00 -0.11298880612E+03  0.11298880612E+03  0.00000000000E+00 0. -1.
          6    1    1    2  501    0  0.69309113295E+01 -0.44858374069E+02  0.13587461308E+04  0.13704672048E+04  0.17300000000E+03 0. -1.
         -6    1    1    2    0  503 -0.69309113295E+01  0.44858374069E+02 -0.32476378701E+02  0.18178015961E+03  0.17300000000E+03 0. -1.
</event>
<event>
 4    1  0.3065897E+000  0.1000000E+03  0.7546771E-02  0.1280296E+00
         21   -1    0    0  501  502  0.00000000000E+00  0.00000000000E+00  0.20908149482E+03  0.20908149482E+03  0.00000000000E+00 0. -1.
         21   -1    0    0  502  503 -0.00000000000E+00 -0.00000000000E+00 -0.45115562309E+03  0.45115562309E+03  0.00000000000E+00 0. -1.
          6    1    1    2  501    0  0.63142702645E+02  0.36787154653E+02  0.14017425147E+03  0.23434614658E+03  0.17300000000E+03 0. -1.
         -6    1    1    2    0  503 -0.63142702645E+02 -0.36787154653E+02 -0.38224837974E+03  0.42589097133E+03  0.17300000000E+03 0. -1.
</event>
<event>
 4    1  0.3065897E+000  0.1000000E+03  0.7546771E-02  0.1280296E+00
         21   -1    0    0  501  502  0.00000000000E+00  0.00000000000E+00  0.33925709111E+03  0.33925709111E+03  0.00000000000E+00 0. -1.
         21   -1    0    0  502  503 -0.00000000000E+00 -0.00000000000E+00 -0.20859673118E+03  0.20859673118E+03  0.00000000000E+00 0. -1.
          6    1    1    2  501    0  0.51114859716E+02  0.52281001011E+02  0.25932366949E+03  0.32019337518E+03  0.17300000000E+03 0. -1.
         -6    1    1    2    0  503 -0.51114859716E+02 -0.52281001011E+02 -0.12866330956E+03  0.22766044711E+03  0.17300000000E+03 0. -1.
</event>
<event>
 4    1  0.3065897E+000  0.1000000E+03  0.7546771E-02  0.1280296E+00
         21   -1    0    0  503  502  0.00000000000E+00  0.00000000000E+00  0.80824114867E+02  0.80824114867E+02  0.00000000000E+00 0.  1.
         21   -1    0    0  501  503 -0.00000000000E+00 -0.00000000000E+00 -0.92949552703E+03  0.92949552703E+03  0.00000000000E+00 0.  1.
          6    1    1    2  501    0 -0.60853345759E+02  0.80971518553E+01 -0.79946539977E+03  0.82026984523E+03  0.17300000000E+03 0.  1.
         -6    1    1    2    0  502  0.60853345759E+02 -0.80971518553E+01 -0.49206012392E+02  0.19004979667E+03  0.17300000000E+03 0.  1.
</event>
<event>
 4    1  0.3065897E+000  0.1000000E+03  0.7546771E-02  0.1280296E+00
         21   -1    0    0  503  502  0.00000000000E+00  0.00000000000E+00  0.21467142389E+03  0.21467142389E+03  0.00000000000E+00 0.  1.
         21   -1    0    0  501  503 -0.00000000000E+00 -0.00000000000E+00 -0.30631482377E+03  0.30631482377E+03  0.00000000000E+00 0.  1.
          6    1    1    2  501    0  0.14040248014E+03  0.40020103508E+02 -0.16820222942E+03  0.28202030973E+03  0.17300000000E+03 0.  1.
         -6    1    1    2    0  502 -0.14040248014E+03 -0.40020103508E+02  0.76558829542E+02  0.23896593794E+03  0.17300000000E+03 0.  1.
</event>
<event>
 4    1  0.3065897E+000  0.1000000E+03  0.7546771E-02  0.1280296E+00
         21   -1    0    0  503  502  0.00000000000E+00  0.00000000000E+00  0.16527361468E+02  0.16527361468E+02  0.00000000000E+00 0.  1.
         21   -1    0    0  501  503 -0.00000000000E+00 -0.00000000000E+00 -0.28856440308E+04  0.28856440308E+04  0.00000000000E+00 0.  1.
          6    1    1    2  501    0 -0.11704858056E+03  0.52401814510E+02 -0.16756729271E+04  0.16894540773E+04  0.17300000000E+03 0.  1.
         -6    1    1    2    0  502  0.11704858056E+03 -0.52401814510E+02 -0.11934437422E+04  0.12127173150E+04  0.17300000000E+03 0.  1.
</event>
<event>
 4    1  0.3065897E+000  0.1000000E+03  0.7546771E-02  0.1280296E+00
         21   -1    0    0  503  502  0.00000000000E+00  0.00000000000E+00  0.53211397954E+02  0.53211397954E+02  0.00000000000E+00 0.  1.
         21   -1    0    0  501  503 -0.00000000000E+00 -0.00000000000E+00 -0.70559233288E+03  0.70559233288E+03  0.00000000000E+00 0.  1.
          6    1    1    2  501    0 -0.28449629212E+02 -0.79466475568E+02 -0.36963289324E+03  0.41675145819E+03  0.17300000000E+03 0.  1.
         -6    1    1    2    0  502  0.28449629212E+02  0.79466475568E+02 -0.28274804168E+03  0.34205227264E+03  0.17300000000E+03 0.  1.
</event>
