<event>
 4    1  0.6123996E+000  0.1000000E+03  0.7546771E-02  0.1280296E+00
         21   -1    0    0  503  502  0.00000000000E+00  0.00000000000E+00  0.10188476673E+03  0.10188476673E+03  0.00000000000E+00 0. -1.
         21   -1    0    0  501  503 -0.00000000000E+00 -0.00000000000E+00 -0.30586338435E+03  0.30586338435E+03  0.00000000000E+00 0. -1.
          6    1    1    2  501    0  0.10608604489E+02  0.32208836892E+02 -0.11256579778E+03  0.20916503172E+03  0.17300000000E+03 0. -1.
         -6    1    1    2    0  502 -0.10608604489E+02 -0.32208836892E+02 -0.91412819851E+02  0.19858311936E+03  0.17300000000E+03 0. -1.
</event>
<event>
 4    1  0.6123996E+000  0.1000000E+03  0.7546771E-02  0.1280296E+00
         21   -1    0    0  503  502  0.00000000000E+00  0.00000000000E+00  0.29541129177E+03  0.29541129177E+03  0.00000000000E+00 0. -1.
         21   -1    0    0  501  503 -0.00000000000E+00 -0.00000000000E+00 -0.27140794950E+03  0.27140794950E+03  0.00000000000E+00 0. -1.
          6    1    1    2  501    0  0.10840495280E+03 -0.13306161943E+03 -0.13231844562E+03  0.27729803354E+03  0.17300000000E+03 0. -1.
         -6    1    1    2    0  502 -0.10840495280E+03  0.13306161943E+03  0.15632178789E+03  0.28952120773E+03  0.17300000000E+03 0. -1.
</event>
<event>
 4    1  0.6123996E+000  0.1000000E+03  0.7546771E-02  0.1280296E+00
         21   -1    0    0  501  502  0.00000000000E+00  0.00000000000E+00  0.11128479689E+03  0.11128479689E+03  0.00000000000E+00 0.  1.
         21   -1    0    0  502  503 -0.00000000000E+00 -0.00000000000E+00 -0.62828522657E+03  0.62828522657E+03  0.00000000000E+00 0.  1.
          6    1    1    2  501    0 -0.80414662445E+02  0.92657595855E+02 -0.37658715105E+02  0.21540456548E+03  0.17300000000E+03 0.  1.
         -6    1    1    2    0  503  0.80414662445E+02 -0.92657595855E+02 -0.47934171458E+03  0.52416545798E+03  0.17300000000E+03 0.  1.
</event>
<event>
 4    1  0.6123996E+000  0.1000000E+03  0.7546771E-02  0.1280296E+00
         21   -1    0    0  503  502  0.00000000000E+00  0.00000000000E+00  0.25485131223E+03  0.25485131223E+03  0.00000000000E+00 0. -1.
         21   -1    0    0  501  503 -0.00000000000E+00 -0.00000000000E+00 -0.19274117681E+03  0.19274117681E+03  0.00000000000E+00 0. -1.
          6    1    1    2  501    0 -0.87854881803E+02 -0.83854372406E+02 -0.36239102592E+02  0.21445817444E+03  0.17300000000E+03 0. -1.
         -6    1    1    2    0  502  0.87854881803E+02  0.83854372406E+02  0.98349238011E+02  0.23313431460E+03  0.17300000000E+03 0. -1.
</event>
<event>
 4    1  0.6123996E+000  0.1000000E+03  0.7546771E-02  0.1280296E+00
         21   -1    0    0  501  502  0.00000000000E+00  0.00000000000E+00  0.20420803794E+03  0.20420803794E+03  0.00000000000E+00 0.  1.
         21   -1    0    0  502  503 -0.00000000000E+00 -0.00000000000E+00 -0.42411776634E+03  0.42411776634E+03  0.00000000000E+00 0.  1.
          6    1    1    2  501    0  0.24791220881E+02  0.20482835101E+03  0.16850825703E+02  0.26978177910E+03  0.17300000000E+03 0.  1.
         -6    1    1    2    0  503 -0.24791220881E+02 -0.20482835101E+03 -0.23676055410E+03  0.35854402517E+03  0.17300000000E+03 0.  1.
</event>
<event>
 4    1  0.6123996E+000  0.1000000E+03  0.7546771E-02  0.1280296E+00
         21   -1    0    0  501  502  0.00000000000E+00  0.00000000000E+00  0.26543266424E+03  0.26543266424E+03  0.00000000000E+00 0.  1.
         21   -1    0    0  502  503 -0.00000000000E+00 -0.00000000000E+00 -0.17325095802E+03  0.17325095802E+03  0.00000000000E+00 0.  1.
          6    1    1    2  501    0 -0.21219938162E+02 -0.12302508508E+03  0.23869003940E+02  0.21467227740E+03  0.17300000000E+03 0.  1.
         -6    1    1    2    0  503  0.21219938162E+02  0.12302508508E+03  0.68312702280E+02  0.22401134487E+03  0.17300000000E+03 0.  1.
</event>
<event>
 4    1  0.6123996E+000  0.1000000E+03  0.7546771E-02  0.1280296E+00
         21   -1    0    0  501  502  0.00000000000E+00  0.00000000000E+00  0.61666177227E+02  0.61666177227E+02  0.00000000000E+00 0.  1.
         21   -1    0    0  502  503 -0.00000000000E+00 -0.00000000000E+00 -0.71685081615E+03  0.71685081615E+03  0.00000000000E+00 0.  1.
          6    1    1    2  501    0 -0.82769311932E+02 -0.35918289555E+02 -0.18257243812E+03  0.26721260764E+03  0.17300000000E+03 0.  1.
         -6    1    1    2    0  503  0.82769311932E+02  0.35918289555E+02 -0.47261220081E+03  0.51130438574E+03  0.17300000000E+03 0.  1.
</event>
<event>
 4    1  0.6123996E+000  0.1000000E+03  0.7546771E-02  0.1280296E+00
         21   -1    0    0  503  502  0.00000000000E+00  0.00000000000E+00  0.55311089406E+03  0.55311089406E+03  0.00000000000E+00 0. -1.
         21   -1    0    0  501  503 -0.00000000000E+00 -0.00000000000E+00 -0.72684852512E+02  0.72684852512E+02  0.00000000000E+00 0. -1.
          6    1    1    2  501    0 -0.52084617351E+02  0.72386218164E+02  0.16502789434E+03  0.25517793371E+03  0.17300000000E+03 0.  1.
         -6    1    1    2    0  502  0.52084617351E+02 -0.72386218164E+02  0.31539814721E+03  0.37061781286E+03  0.17300000000E+03 0.  1.
</event>
<event>
 4    1  0.6123996E+000  0.1000000E+03  0.7546771E-02  0.1280296E+00
         21   -1    0    0  503  502  0.00000000000E+00  0.00000000000E+00  0.18889869696E+03  0.18889869696E+03  0.00000000000E+00 0.  1.
         21   -1    0    0  501  503 -0.00000000000E+00 -0.00000000000E+00 -0.45134767935E+03  0.45134767935E+03  0.00000000000E+00 0.  1.
          6    1    1    2  501    0  0.84671230685E+02  0.18053843749E+02 -0.37100791802E+03  0.41841490630E+03  0.17300000000E+03 0.  1.
         -6    1    1    2    0  502 -0.84671230685E+02 -0.18053843749E+02  0.10855893563E+03  0.22183147001E+03  0.17300000000E+03 0.  1.
</event>
<event>
 4    1  0.6123996E+000  0.1000000E+03  0.7546771E-02  0.1280296E+00
         21   -1    0    0  503  502  0.00000000000E+00  0.00000000000E+00  0.14154879679E+03  0.14154879679E+03  0.00000000000E+00 0.  1.
         21   -1    0    0  501  503 -0.00000000000E+00 -0.00000000000E+00 -0.57071782342E+03  0.57071782342E+03  0.00000000000E+00 0.  1.
          6    1    1    2  501    0  0.30720884865E+02 -0.72541477999E+02 -0.47934703908E+03  0.51566328420E+03  0.17300000000E+03 0.  1.
         -6    1    1    2    0  502 -0.30720884865E+02  0.72541477999E+02  0.50178012454E+02  0.19660333601E+03  0.17300000000E+03 0.  1.
</event>
<event>
 4    1  0.6123996E+000  0.1000000E+03  0.7546771E-02  0.1280296E+00
         21   -1    0    0  503  502  0.00000000000E+00  0.00000000000E+00  0.18121449784E+03  0.18121449784E+03  0.00000000000E+00 0. -1.
         21   -1    0    0  501  503 -0.00000000000E+00 -0.00000000000E+00 -0.26491852892E+03  0.26491852892E+03  0.00000000000E+00 0.  1.
          6    1    1    2  501    0  0.87011509351E+01  0.10165272685E+03 -0.13100865601E+03  0.23979419270E+03  0.17300000000E+03 0.  1.
         -6    1    1    2    0  502 -0.87011509351E+01 -0.10165272685E+03  0.47304624925E+02  0.20633883406E+03  0.17300000000E+03 0. -1.
</event>
<event>
 4    1  0.6123996E+000  0.1000000E+03  0.7546771E-02  0.1280296E+00
         21   -1    0    0  503  502  0.00000000000E+00  0.00000000000E+00  0.11380790423E+04  0.11380790423E+04  0.00000000000E+00 0. -1.
         21   -1    0    0  501  503 -0.00000000000E+00 -0.00000000000E+00 -0.43115023628E+02  0.43115023628E+02  0.00000000000E+00 0.  1.
          6    1    1    2  501    0  0.45238533866E+02  0.60900545134E+02  0.85593013195E+03  0.87652769045E+03  0.17300000000E+03 0.  1.
         -6    1    1    2    0  502 -0.45238533866E+02 -0.60900545134E+02  0.23903388670E+03  0.30466637546E+03  0.17300000000E+03 0. -1.
</event>
<event>
 4    1  0.6123996E+000  0.1000000E+03  0.7546771E-02  0.1280296E+00
         21   -1    0    0  501  502  0.00000000000E+00  0.00000000000E+00  0.14519400567E+03  0.14519400567E+03  0.00000000000E+00 0.  1.
         21   -1    0    0  502  503 -0.00000000000E+00 -0.00000000000E+00 -0.69841611218E+03  0.69841611218E+03  0.00000000000E+00 0. -1.
          6    1    1    2  501    0 -0.11033564241E+03  0.72776775171E+02  0.31213324612E+02  0.21994018420E+03  0.17300000000E+03 0.  1.
         -6    1    1    2    0  503  0.11033564241E+03 -0.72776775171E+02 -0.58443543112E+03  0.62366993365E+03  0.17300000000E+03 0. -1.
</event>
<event>
 4    1  0.6123996E+000  0.1000000E+03  0.7546771E-02  0.1280296E+00
         21   -1    0    0  501  502  0.00000000000E+00  0.00000000000E+00  0.47722398891E+03  0.47722398891E+03  0.00000000000E+00 0. -1.
         21   -1    0    0  502  503 -0.00000000000E+00 -0.00000000000E+00 -0.54815064203E+03  0.54815064203E+03  0.00000000000E+00 0. -1.
          6    1    1    2  501    0 -0.23545835647E+02 -0.73391831282E+02  0.44077827738E+03  0.47974499173E+03  0.17300000000E+03 0. -1.
         -6    1    1    2    0  503  0.23545835647E+02  0.73391831282E+02 -0.51170493050E+03  0.54562963920E+03  0.17300000000E+03 0. -1.
</event>
<event>
 4    1  0.6123996E+000  0.1000000E+03  0.7546771E-02  0.1280296E+00
         21   -1    0    0  503  502  0.00000000000E+00  0.00000000000E+00  0.17079170919E+04  0.17079170919E+04  0.00000000000E+00 0.  1.
         21   -1    0    0  501  503 -0.00000000000E+00 -0.00000000000E+00 -0.15032434686E+03  0.15032434686E+03  0.00000000000E+00 0.  1.
          6    1    1    2  501    0 -0.90774364425E+02  0.85939382856E+02 -0.63873830857E+02  0.22278785656E+03  0.17300000000E+03 0.  1.
         -6    1    1    2    0  502  0.90774364425E+02 -0.85939382856E+02  0.16214665759E+04  0.16354535822E+04  0.17300000000E+03 0.  1.
</event>
<event>
 4    1  0.6123996E+000  0.1000000E+03  0.7546771E-02  0.1280296E+00
         21   -1    0    0  501  502  0.00000000000E+00  0.00000000000E+00  0.79828356879E+02  0.79828356879E+02  0.00000000000E+00 0. -1.
         21   -1    0    0  502  503 -0.00000000000E+00 -0.00000000000E+00 -0.12836547437E+04  0.12836547437E+04  0.00000000000E+00 0.  1.
          6    1    1    2  501    0  0.11635943344E+03 -0.12416399657E+03 -0.15728733980E+03  0.28917905017E+03  0.17300000000E+03 0. -1.
         -6    1    1    2    0  503 -0.11635943344E+03  0.12416399657E+03 -0.10465390470E+04  0.10743040504E+04  0.17300000000E+03 0.  1.
</event>
<event>
 4    1  0.6123996E+000  0.1000000E+03  0.7546771E-02  0.1280296E+00
         21   -1    0    0  501  502  0.00000000000E+00  0.00000000000E+00  0.36660981125E+03  0.36660981125E+03  0.00000000000E+00 0. -1.
         21   -1    0    0  502  503 -0.00000000000E+00 -0.00000000000E+00 -0.43372992628E+03  0.43372992628E+03  0.00000000000E+00 0.  1.
          6    1    1    2  501    0  0.19350829507E+02 -0.19644308356E+03  0.26769499623E+03  0.37490525561E+03  0.17300000000E+03 0. -1.
         -6    1    1    2    0  503 -0.19350829507E+02  0.19644308356E+03 -0.33481511126E+03  0.42543448192E+03  0.17300000000E+03 0.  1.
</event>
<event>
 4    1  0.6123996E+000  0.1000000E+03  0.7546771E-02  0.1280296E+00
         21   -1    0    0  501  502  0.00000000000E+00  0.00000000000E+00  0.86993873374E+03  0.86993873374E+03  0.00000000000E+00 0. -1.
         21   -1    0    0  502  503 -0.00000000000E+00 -0.00000000000E+00 -0.60552416320E+02  0.60552416320E+02  0.00000000000E+00 0.  1.
          6    1    1    2  501    0  0.70215799577E+02 -0.94842178304E+02  0.59509465274E+03  0.63086602620E+03  0.17300000000E+03 0. -1.
         -6    1    1    2    0  503 -0.70215799577E+02  0.94842178304E+02  0.21429166468E+03  0.29962512386E+03  0.17300000000E+03 0.  1.
</event>
<event>
 4    1  0.6123996E+000  0.1000000E+03  0.7546771E-02  0.1280296E+00
         21   -1    0    0  501  502  0.00000000000E+00  0.00000000000E+00  0.11058006629E+03  0.11058006629E+03  0.00000000000E+00 0.  1.
         21   -1    0    0  502  503 -0.00000000000E+00 -0.00000000000E+00 -0.65436810254E+03  0.65436810254E+03  0.00000000000E+00 0.  1.
          6    1    1    2  501    0 -0.38698724306E+02 -0.15463923502E+02  0.14932668356E+02  0.17857409884E+03  0.17300000000E+03 0.  1.
         -6    1    1    2    0  503  0.38698724306E+02  0.15463923502E+02 -0.55872070461E+03  0.58637406998E+03  0.17300000000E+03 0.  1.
</event>
<event>
 4    1  0.6123996E+000  0.1000000E+03  0.7546771E-02  0.1280296E+00
         21   -1    0    0  501  502  0.00000000000E+00  0.00000000000E+00  0.11783237617E+04  0.11783237617E+04  0.00000000000E+00 0. -1.
         21   -1    0    0  502  503 -0.00000000000E+00 -0.00000000000E+00 -0.64184974604E+02  0.64184974604E+02  0.00000000000E+00 0. -1.
          6    1    1    2  501    0 -0.14363305633E+03 -0.62962580806E+02  0.88526524034E+03  0.91554261900E+03  0.17300000000E+03 0. -1.
         -6    1    1    2    0  503  0.14363305633E+03  0.62962580806E+02  0.22887354673E+03  0.32696611728E+03  0.17300000000E+03 0. -1.
</event>
<event>
 4    1  0.6123996E+000  0.1000000E+03  0.7546771E-02  0.1280296E+00
         21   -1    0    0  501  502  0.00000000000E+00  0.00000000000E+00  0.28987204657E+03  0.28987204657E+03  0.00000000000E+00 0. -1.
         21   -1    0    0  502  503 -0.00000000000E+00 -0.00000000000E+00 -0.28526876535E+03  0.28526876535E+03  0.00000000000E+00 0. -1.
          6    1    1    2  501    0  0.10152086275E+03  0.44924453177E+01 -0.20370440737E+03  0.28592158579E+03  0.17300000000E+03 0. -1.
         -6    1    1    2    0  503 -0.10152086275E+03 -0.44924453177E+01  0.20830768858E+03  0.28921922613E+03  0.17300000000E+03 0. -1.
</event>
<event>
 4    1  0.6123996E+000  0.1000000E+03  0.7546771E-02  0.1280296E+00
         21   -1    0    0  503  502  0.00000000000E+00  0.00000000000E+00  0.67343512658E+03  0.67343512658E+03  0.00000000000E+00 0. -1.
         21   -1    0    0  501  503 -0.00000000000E+00 -0.00000000000E+00 -0.27983208428E+03  0.27983208428E+03  0.00000000000E+00 0. -1.
          6    1    1    2  501    0  0.11244170112E+03  0.13760723080E+03 -0.19438939047E+03  0.31511128390E+03  0.17300000000E+03 0. -1.
         -6    1    1    2    0  502 -0.11244170112E+03 -0.13760723080E+03  0.58799243277E+03  0.63815592696E+03  0.17300000000E+03 0. -1.
</event>
<event>
 4    1  0.6123996E+000  0.1000000E+03  0.7546771E-02  0.1280296E+00
         21   -1    0    0  503  502  0.00000000000E+00  0.00000000000E+00  0.14857530209E+03  0.14857530209E+03  0.00000000000E+00 0. -1.
         21   -1    0    0  501  503 -0.00000000000E+00 -0.00000000000E+00 -0.55248664034E+03  0.55248664034E+03  0.00000000000E+00 0. -1.
          6    1    1    2  501    0 -0.32031252224E+02  0.21869008391E+03 -0.27229719717E+03  0.39105769077E+03  0.17300000000E+03 0. -1.
         -6    1    1    2    0  502  0.32031252224E+02 -0.21869008391E+03 -0.13161414108E+03  0.31000425167E+03  0.17300000000E+03 0. -1.
</event>
<event>
 4    1  0.6123996E+000  0.1000000E+03  0.7546771E-02  0.1280296E+00
         21   -1    0    0  503  502  0.00000000000E+00  0.00000000000E+00  0.62540148907E+02  0.62540148907E+02  0.00000000000E+00 0.  1.
         21   -1    0    0  501  503 -0.00000000000E+00 -0.00000000000E+00 -0.13324350634E+04  0.13324350634E+04  0.00000000000E+00 0. -1.
          6    1    1    2  501    0 -0.15300042363E+03 -0.68781641472E+02 -0.10189771577E+04  0.10470833261E+04  0.17300000000E+03 0. -1.
         -6    1    1    2    0  502  0.15300042363E+03  0.68781641472E+02 -0.25091775682E+03  0.34789188625E+03  0.17300000000E+03 0.  1.
</event>
<event>
 4    1  0.6123996E+000  0.1000000E+03  0.7546771E-02  0.1280296E+00
         21   -1    0    0  501  502  0.00000000000E+00  0.00000000000E+00  0.10083049354E+04  0.10083049354E+04  0.00000000000E+00 0.  1.
         21   -1    0    0  502  503 -0.00000000000E+00 -0.00000000000E+00 -0.89498305252E+02  0.89498305252E+02  0.00000000000E+00 0. -1.
          6    1    1    2  501    0  0.22203911810E+03 -0.10441000215E+03  0.47854683842E+03  0.56492379581E+03  0.17300000000E+03 0.  1.
         -6    1    1    2    0  503 -0.22203911810E+03  0.10441000215E+03  0.44025979174E+03  0.53287944484E+03  0.17300000000E+03 0. -1.
</event>
<event>
 4    1  0.6123996E+000  0.1000000E+03  0.7546771E-02  0.1280296E+00
         21   -1    0    0  503  502  0.00000000000E+00  0.00000000000E+00  0.28647427326E+03  0.28647427326E+03  0.00000000000E+00 0. -1.
         21   -1    0    0  501  503 -0.00000000000E+00 -0.00000000000E+00 -0.47849092232E+03  0.47849092232E+03  0.00000000000E+00 0. -1.
          6    1    1    2  501    0  0.28663124146E+02  0.15079237670E+03 -0.39468402279E+03  0.45745425280E+03  0.17300000000E+03 0. -1.
         -6    1    1    2    0  502 -0.28663124146E+02 -0.15079237670E+03  0.20266737373E+03  0.30751094279E+03  0.17300000000E+03 0. -1.
</event>
<event>
 4    1  0.6123996E+000  0.1000000E+03  0.7546771E-02  0.1280296E+00
         21   -1    0    0  503  502  0.00000000000E+00  0.00000000000E+00  0.16852086237E+03  0.16852086237E+03  0.00000000000E+00 0. -1.
         21   -1    0    0  501  503 -0.00000000000E+00 -0.00000000000E+00 -0.27743242897E+03  0.27743242897E+03  0.00000000000E+00 0. -1.
          6    1    1    2  501    0  0.20644233431E+02  0.38428034252E+02 -0.18042272657E+03  0.25374053372E+03  0.17300000000E+03 0. -1.
         -6    1    1    2    0  502 -0.20644233431E+02 -0.38428034252E+02  0.71511159969E+02  0.19221275762E+03  0.17300000000E+03 0. -1.
</event>
<event>
 4    1  0.6123996E+000  0.1000000E+03  0.7546771E-02  0.1280296E+00
         21   -1    0    0  501  502  0.00000000000E+00  0.00000000000E+00  0.23837634391E+03  0.23837634391E+03  0.00000000000E+00 0.  1.
         21   -1    0    0  502  503 -0.00000000000E+00 -0.00000000000E+00 -0.20751699529E+03  0.20751699529E+03  0.00000000000E+00 0. -1.
          6    1    1    2  501    0  0.63429663461E+02  0.23198206320E+01  0.14026589700E+03  0.23158632437E+03  0.17300000000E+03 0.  1.
         -6    1    1    2    0  503 -0.63429663461E+02 -0.23198206320E+01 -0.10940654838E+03  0.21430701482E+03  0.17300000000E+03 0. -1.
</event>
<event>
 4    1  0.6123996E+000  0.1000000E+03  0.7546771E-02  0.1280296E+00
         21   -1    0    0  503  502  0.00000000000E+00  0.00000000000E+00  0.20556743001E+02  0.20556743001E+02  0.00000000000E+00 0.  1.
         21   -1    0    0  501  503 -0.00000000000E+00 -0.00000000000E+00 -0.26556795291E+04  0.26556795291E+04  0.00000000000E+00 0. -1.
          6    1    1    2  501    0  0.50836669793E+02  0.14278894395E+03 -0.15530023868E+04  0.15699421845E+04  0.17300000000E+03 0.  1.
         -6    1    1    2    0  502 -0.50836669793E+02 -0.14278894395E+03 -0.10821203993E+04  0.11062940876E+04  0.17300000000E+03 0. -1.
</event>
<event>
 4    1  0.6123996E+000  0.1000000E+03  0.7546771E-02  0.1280296E+00
         21   -1    0    0  503  502  0.00000000000E+00  0.00000000000E+00  0.17795657678E+03  0.17795657678E+03  0.00000000000E+00 0.  1.
         21   -1    0    0  501  503 -0.00000000000E+00 -0.00000000000E+00 -0.37727223087E+03  0.37727223087E+03  0.00000000000E+00 0. -1.
          6    1    1    2  501    0  0.16525505564E+02 -0.10115693730E+03 -0.27473908847E+03  0.34046495419E+03  0.17300000000E+03 0.  1.
         -6    1    1    2    0  502 -0.16525505564E+02  0.10115693730E+03  0.75423434383E+02  0.21476385346E+03  0.17300000000E+03 0. -1.
</event>
<event>
 4    1  0.6123996E+000  0.1000000E+03  0.7546771E-02  0.1280296E+00
         21   -1    0    0  503  502  0.00000000000E+00  0.00000000000E+00  0.98846157230E+02  0.98846157230E+02  0.00000000000E+00 0. -1.
         21   -1    0    0  501  503 -0.00000000000E+00 -0.00000000000E+00 -0.18893908762E+04  0.18893908762E+04  0.00000000000E+00 0. -1.
          6    1    1    2  501    0  0.12169341452E+03  0.22374399291E+03 -0.15928544877E+04  0.16223393851E+04  0.17300000000E+03 0. -1.
         -6    1    1    2    0  502 -0.12169341452E+03 -0.22374399291E+03 -0.19769023126E+03  0.36589764831E+03  0.17300000000E+03 0. -1.
</event>
<event>
 4    1  0.6123996E+000  0.1000000E+03  0.7546771E-02  0.1280296E+00
         21   -1    0    0  503  502  0.00000000000E+00  0.00000000000E+00  0.43983435436E+03  0.43983435436E+03  0.00000000000E+00 0. -1.
         21   -1    0    0  501  503 -0.00000000000E+00 -0.00000000000E+00 -0.16770664522E+03  0.16770664522E+03  0.00000000000E+00 0. -1.
          6    1    1    2  501    0  0.17713072692E+03  0.13503177220E+02  0.12137574279E+02  0.24826185958E+03  0.17300000000E+03 0. -1.
         -6    1    1    2    0  502 -0.17713072692E+03 -0.13503177220E+02  0.25999013486E+03  0.35927914000E+03  0.17300000000E+03 0. -1.
</event>
<event>
 4    1  0.6123996E+000  0.1000000E+03  0.7546771E-02  0.1280296E+00
         21   -1    0    0  503  502  0.00000000000E+00  0.00000000000E+00  0.45261299893E+03  0.45261299893E+03  0.00000000000E+00 0. -1.
         21   -1    0    0  501  503 -0.00000000000E+00 -0.00000000000E+00 -0.11399730236E+03  0.11399730236E+03  0.00000000000E+00 0. -1.
          6    1    1    2  501    0  0.54846554737E+02  0.64890252100E+02  0.19388000201E+02  0.19371056743E+03  0.17300000000E+03 0. -1.
         -6    1    1    2    0  502 -0.54846554737E+02 -0.64890252100E+02  0.31922769637E+03  0.37289973386E+03  0.17300000000E+03 0. -1.
</event>
<event>
 4    1  0.6123996E+000  0.1000000E+03  0.7546771E-02  0.1280296E+00
         21   -1    0    0  503  502  0.00000000000E+00  0.00000000000E+00  0.29774876534E+04  0.29774876534E+04  0.00000000000E+00 0.  1.
         21   -1    0    0  501  503 -0.00000000000E+00 -0.00000000000E+00 -0.28660611415E+02  0.28660611415E+02  0.00000000000E+00 0.  1.
          6    1    1    2  501    0  0.17601351076E+03  0.17674737231E+02  0.67540483581E+03  0.71930094157E+03  0.17300000000E+03 0.  1.
         -6    1    1    2    0  502 -0.17601351076E+03 -0.17674737231E+02  0.22734222062E+04  0.22868473233E+04  0.17300000000E+03 0.  1.
</event>
<event>
 4    1  0.6123996E+000  0.1000000E+03  0.7546771E-02  0.1280296E+00
         21   -1    0    0  501  502  0.00000000000E+00  0.00000000000E+00  0.57019383663E+03  0.57019383663E+03  0.00000000000E+00 0. -1.
         21   -1    0    0  502  503 -0.00000000000E+00 -0.00000000000E+00 -0.19458447019E+03  0.19458447019E+03  0.00000000000E+00 0.  1.
          6    1    1    2  501    0 -0.22770662846E+03  0.41545716553E+02  0.37798951348E+03  0.47579557323E+03  0.17300000000E+03 0.  1.
         -6    1    1    2    0  503  0.22770662846E+03 -0.41545716553E+02 -0.23801470399E+01  0.28898273358E+03  0.17300000000E+03 0. -1.
</event>
<event>
 4    1  0.6123996E+000  0.1000000E+03  0.7546771E-02  0.1280296E+00
         21   -1    0    0  501  502  0.00000000000E+00  0.00000000000E+00  0.10447578389E+04  0.10447578389E+04  0.00000000000E+00 0. -1.
         21   -1    0    0  502  503 -0.00000000000E+00 -0.00000000000E+00 -0.63648952134E+02  0.63648952134E+02  0.00000000000E+00 0.  1.
          6    1    1    2  501    0  0.10097211470E+03  0.24572827812E+02  0.83555448723E+03  0.85958099848E+03  0.17300000000E+03 0.  1.
         -6    1    1    2    0  503 -0.10097211470E+03 -0.24572827812E+02  0.14555439952E+03  0.24882579254E+03  0.17300000000E+03 0. -1.
</event>
<event>
 4    1  0.6123996E+000  0.1000000E+03  0.7546771E-02  0.1280296E+00
         21   -1    0    0  503  502  0.00000000000E+00  0.00000000000E+00  0.39111482441E+03  0.39111482441E+03  0.00000000000E+00 0.  1.
         21   -1    0    0  501  503 -0.00000000000E+00 -0.00000000000E+00 -0.25304314630E+03  0.25304314630E+03  0.00000000000E+00 0.  1.
          6    1    1    2  501    0  0.96629214811E+02 -0.17464983213E+03 -0.10591077939E+03  0.28458015077E+03  0.17300000000E+03 0.  1.
         -6    1    1    2    0  502 -0.96629214811E+02  0.17464983213E+03  0.24398245751E+03  0.35957781994E+03  0.17300000000E+03 0.  1.
</event>
<event>
 4    1  0.6123996E+000  0.1000000E+03  0.7546771E-02  0.1280296E+00
         21   -1    0    0  503  502  0.00000000000E+00  0.00000000000E+00  0.86127829663E+02  0.86127829663E+02  0.00000000000E+00 0.  1.
         21   -1    0    0  501  503 -0.00000000000E+00 -0.00000000000E+00 -0.81554028374E+03  0.81554028374E+03  0.00000000000E+00 0.  1.
          6    1    1    2  501    0 -0.51197565876E+01 -0.68613810272E+02 -0.68556274843E+03  0.71039379847E+03  0.17300000000E+03 0.  1.
         -6    1    1    2    0  502  0.51197565876E+01  0.68613810272E+02 -0.43849705643E+02  0.19127431493E+03  0.17300000000E+03 0.  1.
</event>
<event>
 4    1  0.6123996E+000  0.1000000E+03  0.7546771E-02  0.1280296E+00
         21   -1    0    0  503  502  0.00000000000E+00  0.00000000000E+00  0.32415755500E+03  0.32415755500E+03  0.00000000000E+00 0.  1.
         21   -1    0    0  501  503 -0.00000000000E+00 -0.00000000000E+00 -0.16829371424E+03  0.16829371424E+03  0.00000000000E+00 0.  1.
          6    1    1    2  501    0  0.63350530657E+02  0.86723770372E+02 -0.42681967952E+02  0.20805060075E+03  0.17300000000E+03 0.  1.
         -6    1    1    2    0  502 -0.63350530657E+02 -0.86723770372E+02  0.19854580871E+03  0.28440066849E+03  0.17300000000E+03 0.  1.
</event>
<event>
 4    1  0.6123996E+000  0.1000000E+03  0.7546771E-02  0.1280296E+00
         21   -1    0    0  501  502  0.00000000000E+00  0.00000000000E+00  0.55272094262E+03  0.55272094262E+03  0.00000000000E+00 0.  1.
         21   -1    0    0  502  503 -0.00000000000E+00 -0.00000000000E+00 -0.37363971672E+03  0.37363971672E+03  0.00000000000E+00 0.  1.
          6    1    1    2  501    0  0.81198647655E+02 -0.26172231013E+03  0.41425291961E+03  0.52595272545E+03  0.17300000000E+03 0.  1.
         -6    1    1    2    0  503 -0.81198647655E+02  0.26172231013E+03 -0.23517169371E+03  0.40040793389E+03  0.17300000000E+03 0.  1.
</event>
<event>
 4    1  0.6123996E+000  0.1000000E+03  0.7546771E-02  0.1280296E+00
         21   -1    0    0  501  502  0.00000000000E+00  0.00000000000E+00  0.14206940427E+04  0.14206940427E+04  0.00000000000E+00 0.  1.
         21   -1    0    0  502  503 -0.00000000000E+00 -0.00000000000E+00 -0.42550328235E+03  0.42550328235E+03  0.00000000000E+00 0.  1.
          6    1    1    2  501    0  0.32185996721E+02 -0.98817277136E+02  0.13890542057E+04  0.14036386213E+04  0.17300000000E+03 0.  1.
         -6    1    1    2    0  503 -0.32185996721E+02  0.98817277136E+02 -0.39386344541E+03  0.44255870376E+03  0.17300000000E+03 0.  1.
</event>
<event>
 4    1  0.6123996E+000  0.1000000E+03  0.7546771E-02  0.1280296E+00
         21   -1    0    0  503  502  0.00000000000E+00  0.00000000000E+00  0.10335578674E+04  0.10335578674E+04  0.00000000000E+00 0.  1.
         21   -1    0    0  501  503 -0.00000000000E+00 -0.00000000000E+00 -0.58016150138E+02  0.58016150138E+02  0.00000000000E+00 0.  1.
          6    1    1    2  501    0  0.63610920876E+02 -0.16057416293E+03  0.51957693307E+03  0.57421215629E+03  0.17300000000E+03 0.  1.
         -6    1    1    2    0  502 -0.63610920876E+02  0.16057416293E+03  0.45596478424E+03  0.51736186129E+03  0.17300000000E+03 0.  1.
</event>
<event>
 4    1  0.6123996E+000  0.1000000E+03  0.7546771E-02  0.1280296E+00
         21   -1    0    0  501  502  0.00000000000E+00  0.00000000000E+00  0.39908249790E+03  0.39908249790E+03  0.00000000000E+00 0. -1.
         21   -1    0    0  502  503 -0.00000000000E+00 -0.00000000000E+00 -0.17522153302E+03  0.17522153302E+03  0.00000000000E+00 0. -1.
          6    1    1    2  501    0  0.63030246336E+02  0.53692236456E+02  0.30962010419E+03  0.36421048465E+03  0.17300000000E+03 0. -1.
         -6    1    1    2    0  503 -0.63030246336E+02 -0.53692236456E+02 -0.85759139311E+02  0.21009354627E+03  0.17300000000E+03 0. -1.
</event>
<event>
 4    1  0.6123996E+000  0.1000000E+03  0.7546771E-02  0.1280296E+00
         21   -1    0    0  501  502  0.00000000000E+00  0.00000000000E+00  0.29413099539E+03  0.29413099539E+03  0.00000000000E+00 0. -1.
         21   -1    0    0  502  503 -0.00000000000E+00 -0.00000000000E+00 -0.10481874457E+03  0.10481874457E+03  0.00000000000E+00 0. -1.
          6    1    1    2  501    0  0.27324129944E+02 -0.17688916747E+01  0.10864870295E+03  0.20611471977E+03  0.17300000000E+03 0. -1.
         -6    1    1    2    0  503 -0.27324129944E+02  0.17688916747E+01  0.80663547873E+02  0.19283502019E+03  0.17300000000E+03 0. -1.
</event>
<event>
 4    1  0.6123996E+000  0.1000000E+03  0.7546771E-02  0.1280296E+00
         21   -1    0    0  501  502  0.00000000000E+00  0.00000000000E+00  0.13335931168E+04  0.13335931168E+04  0.00000000000E+00 0. -1.
         21   -1    0    0  502  503 -0.00000000000E+00 -0.00000000000E+00 -0.70758470480E+02  0.70758470480E+02  0.00000000000E+00 0. -1.
          6    1    1    2  501    0  0.55946861747E+02 -0.41015764200E+02  0.11895622898E+04  0.12040763205E+04  0.17300000000E+03 0. -1.
         -6    1    1    2    0  503 -0.55946861747E+02  0.41015764200E+02  0.73272356500E+02  0.20027526677E+03  0.17300000000E+03 0. -1.
</event>
<event>
 4    1  0.6123996E+000  0.1000000E+03  0.7546771E-02  0.1280296E+00
         21   -1    0    0  503  502  0.00000000000E+00  0.00000000000E+00  0.23870067039E+03  0.23870067039E+03  0.00000000000E+00 0. -1.
         21   -1    0    0  501  503 -0.00000000000E+00 -0.00000000000E+00 -0.66608199611E+03  0.66608199611E+03  0.00000000000E+00 0. -1.
          6    1    1    2  501    0  0.11162708921E+03 -0.67140121186E+02 -0.59354776266E+03  0.63181987107E+03  0.17300000000E+03 0.  1.
         -6    1    1    2    0  502 -0.11162708921E+03  0.67140121186E+02  0.16616643695E+03  0.27296279543E+03  0.17300000000E+03 0.  1.
</event>
<event>
 4    1  0.6123996E+000  0.1000000E+03  0.7546771E-02  0.1280296E+00
         21   -1    0    0  501  502  0.00000000000E+00  0.00000000000E+00  0.48817480463E+03  0.48817480463E+03  0.00000000000E+00 0. -1.
         21   -1    0    0  502  503 -0.00000000000E+00 -0.00000000000E+00 -0.10425138271E+03  0.10425138271E+03  0.00000000000E+00 0.  1.
          6    1    1    2  501    0  0.38212665988E+02  0.51095796088E+01  0.37521137556E+03  0.41496854338E+03  0.17300000000E+03 0. -1.
         -6    1    1    2    0  503 -0.38212665988E+02 -0.51095796088E+01  0.87120463539E+01  0.17745764395E+03  0.17300000000E+03 0.  1.
</event>
<event>
 4    1  0.6123996E+000  0.1000000E+03  0.7546771E-02  0.1280296E+00
         21   -1    0    0  501  502  0.00000000000E+00  0.00000000000E+00  0.13974252972E+03  0.13974252972E+03  0.00000000000E+00 0. -1.
         21   -1    0    0  502  503 -0.00000000000E+00 -0.00000000000E+00 -0.34591753221E+03  0.34591753221E+03  0.00000000000E+00 0.  1.
          6    1    1    2  501    0  0.10840609213E+03 -0.78685279430E+02 -0.12695868463E+03  0.25296395319E+03  0.17300000000E+03 0. -1.
         -6    1    1    2    0  503 -0.10840609213E+03  0.78685279430E+02 -0.79216317855E+02  0.23269610874E+03  0.17300000000E+03 0.  1.
</event>
<event>
 4    1  0.6123996E+000  0.1000000E+03  0.7546771E-02  0.1280296E+00
         21   -1    0    0  501  502  0.00000000000E+00  0.00000000000E+00  0.59423609774E+03  0.59423609774E+03  0.00000000000E+00 0. -1.
         21   -1    0    0  502  503 -0.00000000000E+00 -0.00000000000E+00 -0.19908589771E+03  0.19908589771E+03  0.00000000000E+00 0.  1.
          6    1    1    2  501    0 -0.18444758378E+03 -0.88425831410E+02  0.44635170672E+03  0.52057553238E+03  0.17300000000E+03 0. -1.
         -6    1    1    2    0  503  0.18444758378E+03  0.88425831410E+02 -0.51201506691E+02  0.27274646306E+03  0.17300000000E+03 0.  1.
</event>
<event>
 4    1  0.6123996E+000  0.1000000E+03  0.7546771E-02  0.1280296E+00
         21   -1    0    0  501  502  0.00000000000E+00  0.00000000000E+00  0.18245941458E+03  0.18245941458E+03  0.00000000000E+00 0. -1.
         21   -1    0    0  502  503 -0.00000000000E+00 -0.00000000000E+00 -0.31921626185E+03  0.31921626185E+03  0.00000000000E+00 0.  1.
          6    1    1    2  501    0 -0.52318750527E+02  0.15327415393E+03 -0.11583528549E+03  0.26377458423E+03  0.17300000000E+03 0. -1.
         -6    1    1    2    0  503  0.52318750527E+02 -0.15327415393E+03 -0.20921561774E+02  0.23790109220E+03  0.17300000000E+03 0.  1.
</event>
<event>
 4    1  0.6123996E+000  0.1000000E+03  0.7546771E-02  0.1280296E+00
         21   -1    0    0  503  502  0.00000000000E+00  0.00000000000E+00  0.34252882785E+03  0.34252882785E+03  0.00000000000E+00 0.  1.
         21   -1    0    0  501  503 -0.00000000000E+00 -0.00000000000E+00 -0.16821811613E+03  0.16821811613E+03  0.00000000000E+00 0.  1.
          6    1    1    2  501    0 -0.96666063852E+01 -0.10218884387E+03 -0.52186154191E+02  0.20781818443E+03  0.17300000000E+03 0.  1.
         -6    1    1    2    0  502  0.96666063852E+01  0.10218884387E+03  0.22649686591E+03  0.30292875954E+03  0.17300000000E+03 0.  1.
</event>
<event>
 4    1  0.6123996E+000  0.1000000E+03  0.7546771E-02  0.1280296E+00
         21   -1    0    0  503  502  0.00000000000E+00  0.00000000000E+00  0.43788570432E+03  0.43788570432E+03  0.00000000000E+00 0.  1.
         21   -1    0    0  501  503 -0.00000000000E+00 -0.00000000000E+00 -0.13208641353E+03  0.13208641353E+03  0.00000000000E+00 0.  1.
          6    1    1    2  501    0 -0.15034574731E+01  0.55617510140E+02 -0.33765898714E+02  0.18483696528E+03  0.17300000000E+03 0.  1.
         -6    1    1    2    0  502  0.15034574731E+01 -0.55617510140E+02  0.33956518951E+03  0.38513515257E+03  0.17300000000E+03 0.  1.
</event>
<event>
 4    1  0.6123996E+000  0.1000000E+03  0.7546771E-02  0.1280296E+00
         21   -1    0    0  503  502  0.00000000000E+00  0.00000000000E+00  0.74227960440E+02  0.74227960440E+02  0.00000000000E+00 0. -1.
         21   -1    0    0  501  503 -0.00000000000E+00 -0.00000000000E+00 -0.72482302602E+03  0.72482302602E+03  0.00000000000E+00 0. -1.
          6    1    1    2  501    0 -0.12262074092E+03  0.92651710187E+02 -0.35269191850E+03  0.42183026786E+03  0.17300000000E+03 0. -1.
         -6    1    1    2    0  502  0.12262074092E+03 -0.92651710187E+02 -0.29790314708E+03  0.37722071860E+03  0.17300000000E+03 0. -1.
</event>
<event>
 4    1  0.6123996E+000  0.1000000E+03  0.7546771E-02  0.1280296E+00
         21   -1    0    0  503  502  0.00000000000E+00  0.00000000000E+00  0.12448353904E+03  0.12448353904E+03  0.00000000000E+00 0. -1.
         21   -1    0    0  501  503 -0.00000000000E+00 -0.00000000000E+00 -0.27036552679E+03  0.27036552679E+03  0.00000000000E+00 0. -1.
          6    1    1    2  501    0 -0.19886034581E+02 -0.50532705424E+02 -0.42923602322E+02  0.18633422747E+03  0.17300000000E+03 0. -1.
         -6    1    1    2    0  502  0.19886034581E+02  0.50532705424E+02 -0.10295838543E+03  0.20851483837E+03  0.17300000000E+03 0. -1.
</event>
<event>
 4    1  0.6123996E+000  0.1000000E+03  0.7546771E-02  0.1280296E+00
         21   -1    0    0  501  502  0.00000000000E+00  0.00000000000E+00  0.76877180498E+03  0.76877180498E+03  0.00000000000E+00 0. -1.
         21   -1    0    0  502  503 -0.00000000000E+00 -0.00000000000E+00 -0.82161235927E+02  0.82161235927E+02  0.00000000000E+00 0. -1.
          6    1    1    2  501    0 -0.36934353942E+02  0.31838227455E+02  0.64068132315E+03  0.66541669430E+03  0.17300000000E+03 0.  1.
         -6    1    1    2    0  503  0.36934353942E+02 -0.31838227455E+02  0.45929245910E+02  0.18551634661E+03  0.17300000000E+03 0.  1.
</event>
<event>
 4    1  0.6123996E+000  0.1000000E+03  0.7546771E-02  0.1280296E+00
         21   -1    0    0  501  502  0.00000000000E+00  0.00000000000E+00  0.68033086404E+02  0.68033086404E+02  0.00000000000E+00 0. -1.
         21   -1    0    0  502  503 -0.00000000000E+00 -0.00000000000E+00 -0.58591211209E+03  0.58591211209E+03  0.00000000000E+00 0. -1.
          6    1    1    2  501    0  0.86638975991E+02 -0.26056800286E+02 -0.19048549698E+03  0.27276178904E+03  0.17300000000E+03 0.  1.
         -6    1    1    2    0  503 -0.86638975991E+02  0.26056800286E+02 -0.32739352871E+03  0.38118340945E+03  0.17300000000E+03 0.  1.
</event>
<event>
 4    1  0.6123996E+000  0.1000000E+03  0.7546771E-02  0.1280296E+00
         21   -1    0    0  501  502  0.00000000000E+00  0.00000000000E+00  0.12611127844E+03  0.12611127844E+03  0.00000000000E+00 0.  1.
         21   -1    0    0  502  503 -0.00000000000E+00 -0.00000000000E+00 -0.37208612839E+03  0.37208612839E+03  0.00000000000E+00 0. -1.
          6    1    1    2  501    0 -0.52402493647E+02  0.71399016404E+02 -0.12981285795E+02  0.19478540670E+03  0.17300000000E+03 0.  1.
         -6    1    1    2    0  503  0.52402493647E+02 -0.71399016404E+02 -0.23299356416E+03  0.30341200013E+03  0.17300000000E+03 0. -1.
</event>
<event>
 4    1  0.6123996E+000  0.1000000E+03  0.7546771E-02  0.1280296E+00
         21   -1    0    0  501  502  0.00000000000E+00  0.00000000000E+00  0.17630952573E+04  0.17630952573E+04  0.00000000000E+00 0.  1.
         21   -1    0    0  502  503 -0.00000000000E+00 -0.00000000000E+00 -0.46373706859E+02  0.46373706859E+02  0.00000000000E+00 0. -1.
          6    1    1    2  501    0  0.12666444923E+02 -0.16877189941E+03  0.37654859548E+03  0.44761840625E+03  0.17300000000E+03 0.  1.
         -6    1    1    2    0  503 -0.12666444923E+02  0.16877189941E+03  0.13401729549E+04  0.13618505579E+04  0.17300000000E+03 0. -1.
</event>
<event>
 4    1  0.6123996E+000  0.1000000E+03  0.7546771E-02  0.1280296E+00
         21   -1    0    0  501  502  0.00000000000E+00  0.00000000000E+00  0.33301705306E+03  0.33301705306E+03  0.00000000000E+00 0.  1.
         21   -1    0    0  502  503 -0.00000000000E+00 -0.00000000000E+00 -0.24513232164E+03  0.24513232164E+03  0.00000000000E+00 0. -1.
          6    1    1    2  501    0 -0.13182546357E+03  0.10790882817E+03  0.19631850841E+03  0.31223744937E+03  0.17300000000E+03 0.  1.
         -6    1    1    2    0  503  0.13182546357E+03 -0.10790882817E+03 -0.10843377699E+03  0.26591192534E+03  0.17300000000E+03 0. -1.
</event>
<event>
 4    1  0.6123996E+000  0.1000000E+03  0.7546771E-02  0.1280296E+00
         21   -1    0    0  501  502  0.00000000000E+00  0.00000000000E+00  0.90745821957E+02  0.90745821957E+02  0.00000000000E+00 0.  1.
         21   -1    0    0  502  503 -0.00000000000E+00 -0.00000000000E+00 -0.46735251318E+03  0.46735251318E+03  0.00000000000E+00 0. -1.
          6    1    1    2  501    0 -0.63782128999E+01 -0.11152599279E+03 -0.19047107227E+03  0.28051195704E+03  0.17300000000E+03 0.  1.
         -6    1    1    2    0  503  0.63782128999E+01  0.11152599279E+03 -0.18613561895E+03  0.27758637810E+03  0.17300000000E+03 0. -1.
</event>
<event>
 4    1  0.6123996E+000  0.1000000E+03  0.7546771E-02  0.1280296E+00
         21   -1    0    0  501  502  0.00000000000E+00  0.00000000000E+00  0.17419063885E+04  0.17419063885E+04  0.00000000000E+00 0.  1.
         21   -1    0    0  502  503 -0.00000000000E+00 -0.00000000000E+00 -0.25399978477E+02  0.25399978477E+02  0.00000000000E+00 0. -1.
          6    1    1    2  501    0 -0.90345362122E+02 -0.57996160611E+02  0.10801338933E+04  0.10991560702E+04  0.17300000000E+03 0.  1.
         -6    1    1    2    0  503  0.90345362122E+02  0.57996160611E+02  0.63637251672E+03  0.66815029682E+03  0.17300000000E+03 0. -1.
</event>
<event>
 4    1  0.6123996E+000  0.1000000E+03  0.7546771E-02  0.1280296E+00
         21   -1    0    0  503  502  0.00000000000E+00  0.00000000000E+00  0.65362102599E+03  0.65362102599E+03  0.00000000000E+00 0. -1.
         21   -1    0    0  501  503 -0.00000000000E+00 -0.00000000000E+00 -0.15417371356E+03  0.15417371356E+03  0.00000000000E+00 0. -1.
          6    1    1    2  501    0  0.58174293008E+02  0.21750812450E+03  0.43032476820E+03  0.51556031531E+03  0.17300000000E+03 0. -1.
         -6    1    1    2    0  502 -0.58174293008E+02 -0.21750812450E+03  0.69122544232E+02  0.29223442424E+03  0.17300000000E+03 0. -1.
</event>
<event>
 4    1  0.6123996E+000  0.1000000E+03  0.7546771E-02  0.1280296E+00
         21   -1    0    0  503  502  0.00000000000E+00  0.00000000000E+00  0.22606588442E+03  0.22606588442E+03  0.00000000000E+00 0. -1.
         21   -1    0    0  501  503 -0.00000000000E+00 -0.00000000000E+00 -0.20545601121E+03  0.20545601121E+03  0.00000000000E+00 0. -1.
          6    1    1    2  501    0  0.10951993689E+03 -0.15531228435E+02 -0.55204976525E+02  0.21263213554E+03  0.17300000000E+03 0. -1.
         -6    1    1    2    0  502 -0.10951993689E+03  0.15531228435E+02  0.75814849728E+02  0.21888976009E+03  0.17300000000E+03 0. -1.
</event>
<event>
 4    1  0.6123996E+000  0.1000000E+03  0.7546771E-02  0.1280296E+00
         21   -1    0    0  501  502  0.00000000000E+00  0.00000000000E+00  0.14206296440E+03  0.14206296440E+03  0.00000000000E+00 0. -1.
         21   -1    0    0  502  503 -0.00000000000E+00 -0.00000000000E+00 -0.27302004647E+03  0.27302004647E+03  0.00000000000E+00 0. -1.
          6    1    1    2  501    0 -0.88682928738E+02 -0.19326603117E+02 -0.91694313538E+02  0.21581248011E+03  0.17300000000E+03 0. -1.
         -6    1    1    2    0  503  0.88682928738E+02  0.19326603117E+02 -0.39262768534E+02  0.19927053076E+03  0.17300000000E+03 0. -1.
</event>
<event>
 4    1  0.6123996E+000  0.1000000E+03  0.7546771E-02  0.1280296E+00
         21   -1    0    0  501  502  0.00000000000E+00  0.00000000000E+00  0.43655992066E+02  0.43655992066E+02  0.00000000000E+00 0. -1.
         21   -1    0    0  502  503 -0.00000000000E+00 -0.00000000000E+00 -0.94798331341E+03  0.94798331341E+03  0.00000000000E+00 0. -1.
          6    1    1    2  501    0 -0.41559198976E+02 -0.27319825992E+02 -0.22116855279E+03  0.28516323160E+03  0.17300000000E+03 0. -1.
         -6    1    1    2    0  503  0.41559198976E+02  0.27319825992E+02 -0.68315876855E+03  0.70647607388E+03  0.17300000000E+03 0. -1.
</event>
<event>
 4    1  0.6123996E+000  0.1000000E+03  0.7546771E-02  0.1280296E+00
         21   -1    0    0  501  502  0.00000000000E+00  0.00000000000E+00  0.59862374556E+03  0.59862374556E+03  0.00000000000E+00 0. -1.
         21   -1    0    0  502  503 -0.00000000000E+00 -0.00000000000E+00 -0.71703499378E+02  0.71703499378E+02  0.00000000000E+00 0. -1.
          6    1    1    2  501    0 -0.79206508523E+01 -0.50635702356E+02  0.42818192069E+03  0.46464552970E+03  0.17300000000E+03 0. -1.
         -6    1    1    2    0  503  0.79206508523E+01  0.50635702356E+02  0.98738325491E+02  0.20568171524E+03  0.17300000000E+03 0. -1.
</event>
<event>
 4    1  0.6123996E+000  0.1000000E+03  0.7546771E-02  0.1280296E+00
         21   -1    0    0  501  502  0.00000000000E+00  0.00000000000E+00  0.21491864922E+04  0.21491864922E+04  0.00000000000E+00 0. -1.
         21   -1    0    0  502  503 -0.00000000000E+00 -0.00000000000E+00 -0.27899680929E+02  0.27899680929E+02  0.00000000000E+00 0. -1.
          6    1    1    2  501    0 -0.10306640571E+03  0.62240085969E+02  0.16147330453E+04  0.16284312450E+04  0.17300000000E+03 0. -1.
         -6    1    1    2    0  503  0.10306640571E+03 -0.62240085969E+02  0.50655376604E+03  0.54865492814E+03  0.17300000000E+03 0. -1.
</event>
<event>
 4    1  0.6123996E+000  0.1000000E+03  0.7546771E-02  0.1280296E+00
         21   -1    0    0  501  502  0.00000000000E+00  0.00000000000E+00  0.71435502861E+03  0.71435502861E+03  0.00000000000E+00 0.  1.
         21   -1    0    0  502  503 -0.00000000000E+00 -0.00000000000E+00 -0.83156321313E+02  0.83156321313E+02  0.00000000000E+00 0.  1.
          6    1    1    2  501    0  0.15736221333E+03 -0.51149099517E+02  0.39048495479E+03  0.45802466799E+03  0.17300000000E+03 0.  1.
         -6    1    1    2    0  503 -0.15736221333E+03  0.51149099517E+02  0.24071375251E+03  0.33948668194E+03  0.17300000000E+03 0.  1.
</event>
<event>
 4    1  0.6123996E+000  0.1000000E+03  0.7546771E-02  0.1280296E+00
         21   -1    0    0  501  502  0.00000000000E+00  0.00000000000E+00  0.41940748320E+03  0.41940748320E+03  0.00000000000E+00 0.  1.
         21   -1    0    0  502  503 -0.00000000000E+00 -0.00000000000E+00 -0.10625242888E+03  0.10625242888E+03  0.00000000000E+00 0.  1.
          6    1    1    2  501    0 -0.14884030227E+02 -0.11947888908E+03  0.17116773027E+03  0.27152187974E+03  0.17300000000E+03 0.  1.
         -6    1    1    2    0  503  0.14884030227E+02  0.11947888908E+03  0.14198732406E+03  0.25413803235E+03  0.17300000000E+03 0.  1.
</event>
<event>
 4    1  0.6123996E+000  0.1000000E+03  0.7546771E-02  0.1280296E+00
         21   -1    0    0  501  502  0.00000000000E+00  0.00000000000E+00  0.10691654676E+04  0.10691654676E+04  0.00000000000E+00 0.  1.
         21   -1    0    0  502  503 -0.00000000000E+00 -0.00000000000E+00 -0.63735792726E+02  0.63735792726E+02  0.00000000000E+00 0.  1.
          6    1    1    2  501    0 -0.16039419050E+03  0.88380846850E+02  0.65112417284E+03  0.69816126997E+03  0.17300000000E+03 0.  1.
         -6    1    1    2    0  503  0.16039419050E+03 -0.88380846850E+02  0.35430550202E+03  0.43473999034E+03  0.17300000000E+03 0.  1.
</event>
<event>
 4    1  0.6123996E+000  0.1000000E+03  0.7546771E-02  0.1280296E+00
         21   -1    0    0  501  502  0.00000000000E+00  0.00000000000E+00  0.49723428105E+03  0.49723428105E+03  0.00000000000E+00 0.  1.
         21   -1    0    0  502  503 -0.00000000000E+00 -0.00000000000E+00 -0.98509555608E+02  0.98509555608E+02  0.00000000000E+00 0.  1.
          6    1    1    2  501    0  0.86702056833E+02  0.78445192516E+02  0.29810373853E+03  0.36395842319E+03  0.17300000000E+03 0.  1.
         -6    1    1    2    0  503 -0.86702056833E+02 -0.78445192516E+02  0.10062098691E+03  0.23178541347E+03  0.17300000000E+03 0.  1.
</event>
<event>
 4    1  0.6123996E+000  0.1000000E+03  0.7546771E-02  0.1280296E+00
         21   -1    0    0  501  502  0.00000000000E+00  0.00000000000E+00  0.12102895270E+03  0.12102895270E+03  0.00000000000E+00 0.  1.
         21   -1    0    0  502  503 -0.00000000000E+00 -0.00000000000E+00 -0.58467889837E+03  0.58467889837E+03  0.00000000000E+00 0.  1.
          6    1    1    2  501    0  0.32854896478E+01 -0.42645159631E+01  0.36121964966E+02  0.17681283011E+03  0.17300000000E+03 0.  1.
         -6    1    1    2    0  503 -0.32854896478E+01  0.42645159631E+01 -0.49977191063E+03  0.52889502096E+03  0.17300000000E+03 0.  1.
</event>
<event>
 4    1  0.6123996E+000  0.1000000E+03  0.7546771E-02  0.1280296E+00
         21   -1    0    0  501  502  0.00000000000E+00  0.00000000000E+00  0.44410496814E+03  0.44410496814E+03  0.00000000000E+00 0.  1.
         21   -1    0    0  502  503 -0.00000000000E+00 -0.00000000000E+00 -0.35345895151E+03  0.35345895151E+03  0.00000000000E+00 0.  1.
          6    1    1    2  501    0 -0.56832666498E+02  0.13795531586E+03  0.37113500095E+03  0.43581166814E+03  0.17300000000E+03 0.  1.
         -6    1    1    2    0  503  0.56832666498E+02 -0.13795531586E+03 -0.28048898431E+03  0.36175225151E+03  0.17300000000E+03 0.  1.
</event>
<event>
 4    1  0.6123996E+000  0.1000000E+03  0.7546771E-02  0.1280296E+00
         21   -1    0    0  501  502  0.00000000000E+00  0.00000000000E+00  0.43849545175E+03  0.43849545175E+03  0.00000000000E+00 0. -1.
         21   -1    0    0  502  503 -0.00000000000E+00 -0.00000000000E+00 -0.11923735688E+03  0.11923735688E+03  0.00000000000E+00 0. -1.
          6    1    1    2  501    0 -0.86172855980E+02 -0.70202923200E+02  0.28159739845E+03  0.34868367663E+03  0.17300000000E+03 0. -1.
         -6    1    1    2    0  503  0.86172855980E+02  0.70202923200E+02  0.37660696425E+02  0.20904913200E+03  0.17300000000E+03 0. -1.
</event>
<event>
 4    1  0.6123996E+000  0.1000000E+03  0.7546771E-02  0.1280296E+00
         21   -1    0    0  501  502  0.00000000000E+00  0.00000000000E+00  0.19916122864E+03  0.19916122864E+03  0.00000000000E+00 0. -1.
         21   -1    0    0  502  503 -0.00000000000E+00 -0.00000000000E+00 -0.30031327537E+03  0.30031327537E+03  0.00000000000E+00 0. -1.
          6    1    1    2  501    0 -0.13473783631E+03  0.85785857480E+02 -0.11806736401E+03  0.26340539160E+03  0.17300000000E+03 0. -1.
         -6    1    1    2    0  503  0.13473783631E+03 -0.85785857480E+02  0.16915317287E+02  0.23606911241E+03  0.17300000000E+03 0. -1.
</event>
<event>
 4    1  0.6123996E+000  0.1000000E+03  0.7546771E-02  0.1280296E+00
         21   -1    0    0  501  502  0.00000000000E+00  0.00000000000E+00  0.18003538711E+03  0.18003538711E+03  0.00000000000E+00 0. -1.
         21   -1    0    0  502  503 -0.00000000000E+00 -0.00000000000E+00 -0.50980169951E+03  0.50980169951E+03  0.00000000000E+00 0. -1.
          6    1    1    2  501    0 -0.13126769155E+03  0.54455703353E+01  0.75535299952E+02  0.22999009244E+03  0.17300000000E+03 0.  1.
         -6    1    1    2    0  503  0.13126769155E+03 -0.54455703353E+01 -0.40530161235E+03  0.45984699418E+03  0.17300000000E+03 0.  1.
</event>
<event>
 4    1  0.6123996E+000  0.1000000E+03  0.7546771E-02  0.1280296E+00
         21   -1    0    0  501  502  0.00000000000E+00  0.00000000000E+00  0.33199638089E+03  0.33199638089E+03  0.00000000000E+00 0. -1.
         21   -1    0    0  502  503 -0.00000000000E+00 -0.00000000000E+00 -0.15216223498E+03  0.15216223498E+03  0.00000000000E+00 0. -1.
          6    1    1    2  501    0 -0.38759770902E+02  0.59714558447E+01  0.23857526376E+03  0.29729637503E+03  0.17300000000E+03 0.  1.
         -6    1    1    2    0  503  0.38759770902E+02 -0.59714558447E+01 -0.58741117849E+02  0.18686224084E+03  0.17300000000E+03 0.  1.
</event>
<event>
 4    1  0.6123996E+000  0.1000000E+03  0.7546771E-02  0.1280296E+00
         21   -1    0    0  501  502  0.00000000000E+00  0.00000000000E+00  0.37475438385E+02  0.37475438385E+02  0.00000000000E+00 0. -1.
         21   -1    0    0  502  503 -0.00000000000E+00 -0.00000000000E+00 -0.20887884709E+04  0.20887884709E+04  0.00000000000E+00 0.  1.
          6    1    1    2  501    0 -0.19749225220E+03  0.93363187631E+02 -0.11209857733E+04  0.11551008520E+04  0.17300000000E+03 0. -1.
         -6    1    1    2    0  503  0.19749225220E+03 -0.93363187631E+02 -0.93032725926E+03  0.97116305727E+03  0.17300000000E+03 0. -1.
</event>
<event>
 4    1  0.6123996E+000  0.1000000E+03  0.7546771E-02  0.1280296E+00
         21   -1    0    0  503  502  0.00000000000E+00  0.00000000000E+00  0.10754248946E+04  0.10754248946E+04  0.00000000000E+00 0. -1.
         21   -1    0    0  501  503 -0.00000000000E+00 -0.00000000000E+00 -0.46606720911E+02  0.46606720911E+02  0.00000000000E+00 0. -1.
          6    1    1    2  501    0  0.78768140309E+02 -0.11444294885E+03  0.58922635307E+03  0.62961758522E+03  0.17300000000E+03 0. -1.
         -6    1    1    2    0  502 -0.78768140309E+02  0.11444294885E+03  0.43959182060E+03  0.49241403027E+03  0.17300000000E+03 0. -1.
</event>
<event>
 4    1  0.6123996E+000  0.1000000E+03  0.7546771E-02  0.1280296E+00
         21   -1    0    0  501  502  0.00000000000E+00  0.00000000000E+00  0.17622094769E+03  0.17622094769E+03  0.00000000000E+00 0. -1.
         21   -1    0    0  502  503 -0.00000000000E+00 -0.00000000000E+00 -0.22349630835E+03  0.22349630835E+03  0.00000000000E+00 0.  1.
          6    1    1    2  501    0  0.18772417228E+02 -0.90874716696E+02 -0.52913999481E+02  0.20332119694E+03  0.17300000000E+03 0. -1.
         -6    1    1    2    0  503 -0.18772417228E+02  0.90874716696E+02  0.56386388206E+01  0.19639605910E+03  0.17300000000E+03 0.  1.
</event>
<event>
 4    1  0.6123996E+000  0.1000000E+03  0.7546771E-02  0.1280296E+00
         21   -1    0    0  503  502  0.00000000000E+00  0.00000000000E+00  0.24574529647E+03  0.24574529647E+03  0.00000000000E+00 0.  1.
         21   -1    0    0  501  503 -0.00000000000E+00 -0.00000000000E+00 -0.76694882955E+03  0.76694882955E+03  0.00000000000E+00 0.  1.
          6    1    1    2  501    0 -0.39019803841E+03 -0.42632155747E+01 -0.35297343520E+03  0.55388801227E+03  0.17300000000E+03 0.  1.
         -6    1    1    2    0  502  0.39019803841E+03  0.42632155747E+01 -0.16823009788E+03  0.45880611375E+03  0.17300000000E+03 0.  1.
</event>
<event>
 4    1  0.6123996E+000  0.1000000E+03  0.7546771E-02  0.1280296E+00
         21   -1    0    0  503  502  0.00000000000E+00  0.00000000000E+00  0.99784629194E+03  0.99784629194E+03  0.00000000000E+00 0.  1.
         21   -1    0    0  501  503 -0.00000000000E+00 -0.00000000000E+00 -0.37178163547E+02  0.37178163547E+02  0.00000000000E+00 0.  1.
          6    1    1    2  501    0 -0.22952536745E+01  0.84425363271E+02  0.46417210467E+03  0.50251134604E+03  0.17300000000E+03 0.  1.
         -6    1    1    2    0  502  0.22952536745E+01 -0.84425363271E+02  0.49649602373E+03  0.53251310945E+03  0.17300000000E+03 0.  1.
</event>
<event>
 4    1  0.6123996E+000  0.1000000E+03  0.7546771E-02  0.1280296E+00
         21   -1    0    0  503  502  0.00000000000E+00  0.00000000000E+00  0.53058195608E+03  0.53058195608E+03  0.00000000000E+00 0.  1.
         21   -1    0    0  501  503 -0.00000000000E+00 -0.00000000000E+00 -0.11436144669E+03  0.11436144669E+03  0.00000000000E+00 0. -1.
          6    1    1    2  501    0 -0.20672326804E+02  0.14419656023E+03  0.80318713430E+02  0.24000018501E+03  0.17300000000E+03 0. -1.
         -6    1    1    2    0  502  0.20672326804E+02 -0.14419656023E+03  0.33590179597E+03  0.40494321776E+03  0.17300000000E+03 0.  1.
</event>
<event>
 4    1  0.6123996E+000  0.1000000E+03  0.7546771E-02  0.1280296E+00
         21   -1    0    0  503  502  0.00000000000E+00  0.00000000000E+00  0.95664427045E+02  0.95664427045E+02  0.00000000000E+00 0.  1.
         21   -1    0    0  501  503 -0.00000000000E+00 -0.00000000000E+00 -0.43177510612E+03  0.43177510612E+03  0.00000000000E+00 0. -1.
          6    1    1    2  501    0  0.34838941997E+02  0.68290802064E+02 -0.26427985701E+03  0.32503881052E+03  0.17300000000E+03 0. -1.
         -6    1    1    2    0  502 -0.34838941997E+02 -0.68290802064E+02 -0.71830822062E+02  0.20240072264E+03  0.17300000000E+03 0.  1.
</event>
<event>
 4    1  0.6123996E+000  0.1000000E+03  0.7546771E-02  0.1280296E+00
         21   -1    0    0  503  502  0.00000000000E+00  0.00000000000E+00  0.26918319564E+03  0.26918319564E+03  0.00000000000E+00 0.  1.
         21   -1    0    0  501  503 -0.00000000000E+00 -0.00000000000E+00 -0.45810407285E+03  0.45810407285E+03  0.00000000000E+00 0. -1.
          6    1    1    2  501    0  0.55348375915E+02 -0.19926038232E+03 -0.32743965418E+03  0.42416255116E+03  0.17300000000E+03 0. -1.
         -6    1    1    2    0  502 -0.55348375915E+02  0.19926038232E+03  0.13851877697E+03  0.30312471732E+03  0.17300000000E+03 0.  1.
</event>
<event>
 4    1  0.6123996E+000  0.1000000E+03  0.7546771E-02  0.1280296E+00
         21   -1    0    0  503  502  0.00000000000E+00  0.00000000000E+00  0.16301928532E+03  0.16301928532E+03  0.00000000000E+00 0.  1.
         21   -1    0    0  501  503 -0.00000000000E+00 -0.00000000000E+00 -0.66263843627E+03  0.66263843627E+03  0.00000000000E+00 0. -1.
          6    1    1    2  501    0 -0.58027076389E+02  0.89082182660E+02 -0.57442670950E+03  0.60926006061E+03  0.17300000000E+03 0. -1.
         -6    1    1    2    0  502  0.58027076389E+02 -0.89082182660E+02  0.74807558557E+02  0.21639766098E+03  0.17300000000E+03 0.  1.
</event>
<event>
 4    1  0.6123996E+000  0.1000000E+03  0.7546771E-02  0.1280296E+00
         21   -1    0    0  501  502  0.00000000000E+00  0.00000000000E+00  0.16215983471E+03  0.16215983471E+03  0.00000000000E+00 0.  1.
         21   -1    0    0  502  503 -0.00000000000E+00 -0.00000000000E+00 -0.24313043213E+03  0.24313043213E+03  0.00000000000E+00 0.  1.
          6    1    1    2  501    0 -0.78721173449E+02  0.29752187671E+02  0.96661166965E+01  0.19262567231E+03  0.17300000000E+03 0.  1.
         -6    1    1    2    0  503  0.78721173449E+02 -0.29752187671E+02 -0.90636714123E+02  0.21266459453E+03  0.17300000000E+03 0.  1.
</event>
<event>
 4    1  0.6123996E+000  0.1000000E+03  0.7546771E-02  0.1280296E+00
         21   -1    0    0  501  502  0.00000000000E+00  0.00000000000E+00  0.44957657271E+03  0.44957657271E+03  0.00000000000E+00 0.  1.
         21   -1    0    0  502  503 -0.00000000000E+00 -0.00000000000E+00 -0.18823563249E+03  0.18823563249E+03  0.00000000000E+00 0.  1.
          6    1    1    2  501    0 -0.45978838223E+02 -0.44964705136E+02  0.37717212814E+03  0.41990914793E+03  0.17300000000E+03 0.  1.
         -6    1    1    2    0  503  0.45978838223E+02  0.44964705136E+02 -0.11583118792E+03  0.21790305727E+03  0.17300000000E+03 0.  1.
</event>
<event>
 4    1  0.6123996E+000  0.1000000E+03  0.7546771E-02  0.1280296E+00
         21   -1    0    0  503  502  0.00000000000E+00  0.00000000000E+00  0.81630276264E+03  0.81630276264E+03  0.00000000000E+00 0.  1.
         21   -1    0    0  501  503 -0.00000000000E+00 -0.00000000000E+00 -0.64172825171E+02  0.64172825171E+02  0.00000000000E+00 0. -1.
          6    1    1    2  501    0 -0.36327435312E+02  0.53983259712E+02  0.11642047208E+03  0.21844129922E+03  0.17300000000E+03 0. -1.
         -6    1    1    2    0  502  0.36327435312E+02 -0.53983259712E+02  0.63570946538E+03  0.66203428859E+03  0.17300000000E+03 0.  1.
</event>
<event>
 4    1  0.6123996E+000  0.1000000E+03  0.7546771E-02  0.1280296E+00
         21   -1    0    0  503  502  0.00000000000E+00  0.00000000000E+00  0.13680276364E+04  0.13680276364E+04  0.00000000000E+00 0.  1.
         21   -1    0    0  501  503 -0.00000000000E+00 -0.00000000000E+00 -0.27663570583E+02  0.27663570583E+02  0.00000000000E+00 0. -1.
          6    1    1    2  501    0  0.17776901176E+01 -0.88920635074E+02  0.67858681390E+03  0.70591720727E+03  0.17300000000E+03 0. -1.
         -6    1    1    2    0  502 -0.17776901176E+01  0.88920635074E+02  0.66177725196E+03  0.68977399975E+03  0.17300000000E+03 0.  1.
</event>
<event>
 4    1  0.6123996E+000  0.1000000E+03  0.7546771E-02  0.1280296E+00
         21   -1    0    0  503  502  0.00000000000E+00  0.00000000000E+00  0.22795884184E+03  0.22795884184E+03  0.00000000000E+00 0.  1.
         21   -1    0    0  501  503 -0.00000000000E+00 -0.00000000000E+00 -0.26223155931E+03  0.26223155931E+03  0.00000000000E+00 0. -1.
          6    1    1    2  501    0  0.40212435981E+02  0.12762998496E+03 -0.12668642186E+03  0.25275462914E+03  0.17300000000E+03 0. -1.
         -6    1    1    2    0  502 -0.40212435981E+02 -0.12762998496E+03  0.92413704390E+02  0.23743577200E+03  0.17300000000E+03 0.  1.
</event>
<event>
 4    1  0.6123996E+000  0.1000000E+03  0.7546771E-02  0.1280296E+00
         21   -1    0    0  503  502  0.00000000000E+00  0.00000000000E+00  0.93660701635E+02  0.93660701635E+02  0.00000000000E+00 0.  1.
         21   -1    0    0  501  503 -0.00000000000E+00 -0.00000000000E+00 -0.75579819884E+03  0.75579819884E+03  0.00000000000E+00 0. -1.
          6    1    1    2  501    0 -0.39572327357E+02  0.60725329795E+02 -0.63229490055E+03  0.65952966274E+03  0.17300000000E+03 0. -1.
         -6    1    1    2    0  502  0.39572327357E+02 -0.60725329795E+02 -0.29842596653E+02  0.18992923773E+03  0.17300000000E+03 0.  1.
</event>
<event>
 4    1  0.6123996E+000  0.1000000E+03  0.7546771E-02  0.1280296E+00
         21   -1    0    0  503  502  0.00000000000E+00  0.00000000000E+00  0.11829919520E+03  0.11829919520E+03  0.00000000000E+00 0.  1.
         21   -1    0    0  501  503 -0.00000000000E+00 -0.00000000000E+00 -0.45995208263E+03  0.45995208263E+03  0.00000000000E+00 0.  1.
          6    1    1    2  501    0 -0.37657794077E+02  0.90538799058E+02 -0.32195952014E+03  0.37842081893E+03  0.17300000000E+03 0.  1.
         -6    1    1    2    0  502  0.37657794077E+02 -0.90538799058E+02 -0.19693367288E+02  0.19983045890E+03  0.17300000000E+03 0.  1.
</event>
<event>
 4    1  0.6123996E+000  0.1000000E+03  0.7546771E-02  0.1280296E+00
         21   -1    0    0  503  502  0.00000000000E+00  0.00000000000E+00  0.20485416140E+03  0.20485416140E+03  0.00000000000E+00 0.  1.
         21   -1    0    0  501  503 -0.00000000000E+00 -0.00000000000E+00 -0.17820983661E+03  0.17820983661E+03  0.00000000000E+00 0.  1.
          6    1    1    2  501    0 -0.53740437692E+01 -0.53005016576E+02  0.74623016814E+02  0.19579582929E+03  0.17300000000E+03 0.  1.
         -6    1    1    2    0  502  0.53740437692E+01  0.53005016576E+02 -0.47978692021E+02  0.18726816872E+03  0.17300000000E+03 0.  1.
</event>
<event>
 4    1  0.6123996E+000  0.1000000E+03  0.7546771E-02  0.1280296E+00
         21   -1    0    0  503  502  0.00000000000E+00  0.00000000000E+00  0.54855508763E+03  0.54855508763E+03  0.00000000000E+00 0.  1.
         21   -1    0    0  501  503 -0.00000000000E+00 -0.00000000000E+00 -0.24829762273E+03  0.24829762273E+03  0.00000000000E+00 0.  1.
          6    1    1    2  501    0  0.77004687338E+02 -0.38159127633E+02 -0.18936207989E+03  0.27050478405E+03  0.17300000000E+03 0.  1.
         -6    1    1    2    0  502 -0.77004687338E+02  0.38159127633E+02  0.48961954479E+03  0.52634792631E+03  0.17300000000E+03 0.  1.
</event>
<event>
 4    1  0.6123996E+000  0.1000000E+03  0.7546771E-02  0.1280296E+00
         21   -1    0    0  503  502  0.00000000000E+00  0.00000000000E+00  0.27888929168E+03  0.27888929168E+03  0.00000000000E+00 0.  1.
         21   -1    0    0  501  503 -0.00000000000E+00 -0.00000000000E+00 -0.30044438483E+03  0.30044438483E+03  0.00000000000E+00 0. -1.
          6    1    1    2  501    0 -0.13775605355E+03 -0.12109221007E+03  0.13152389573E+03  0.28437227146E+03  0.17300000000E+03 0. -1.
         -6    1    1    2    0  502  0.13775605355E+03  0.12109221007E+03 -0.15307898888E+03  0.29496140504E+03  0.17300000000E+03 0.  1.
</event>
<event>
 4    1  0.6123996E+000  0.1000000E+03  0.7546771E-02  0.1280296E+00
         21   -1    0    0  503  502  0.00000000000E+00  0.00000000000E+00  0.55826296497E+03  0.55826296497E+03  0.00000000000E+00 0.  1.
         21   -1    0    0  501  503 -0.00000000000E+00 -0.00000000000E+00 -0.48358906037E+03  0.48358906037E+03  0.00000000000E+00 0. -1.
          6    1    1    2  501    0  0.41842860555E+03  0.55175420846E+02 -0.21212996783E+03  0.50304567214E+03  0.17300000000E+03 0. -1.
         -6    1    1    2    0  502 -0.41842860555E+03 -0.55175420846E+02  0.28680387242E+03  0.53880635320E+03  0.17300000000E+03 0.  1.
</event>
<event>
 4    1  0.6123996E+000  0.1000000E+03  0.7546771E-02  0.1280296E+00
         21   -1    0    0  503  502  0.00000000000E+00  0.00000000000E+00  0.54884851889E+02  0.54884851889E+02  0.00000000000E+00 0.  1.
         21   -1    0    0  501  503 -0.00000000000E+00 -0.00000000000E+00 -0.72249938620E+03  0.72249938620E+03  0.00000000000E+00 0. -1.
          6    1    1    2  501    0  0.57042188794E+02  0.62889028079E+02 -0.43172316903E+03  0.47278191149E+03  0.17300000000E+03 0. -1.
         -6    1    1    2    0  502 -0.57042188794E+02 -0.62889028079E+02 -0.23589136528E+03  0.30460232660E+03  0.17300000000E+03 0.  1.
</event>
<event>
 4    1  0.6123996E+000  0.1000000E+03  0.7546771E-02  0.1280296E+00
         21   -1    0    0  503  502  0.00000000000E+00  0.00000000000E+00  0.52659297077E+02  0.52659297077E+02  0.00000000000E+00 0. -1.
         21   -1    0    0  501  503 -0.00000000000E+00 -0.00000000000E+00 -0.11103344200E+04  0.11103344200E+04  0.00000000000E+00 0. -1.
          6    1    1    2  501    0  0.24958564395E+02  0.56777810919E+02 -0.90673742294E+03  0.92517479641E+03  0.17300000000E+03 0. -1.
         -6    1    1    2    0  502 -0.24958564395E+02 -0.56777810919E+02 -0.15093769997E+03  0.23781892065E+03  0.17300000000E+03 0. -1.
</event>
<event>
 4    1  0.6123996E+000  0.1000000E+03  0.7546771E-02  0.1280296E+00
         21   -1    0    0  503  502  0.00000000000E+00  0.00000000000E+00  0.41935147856E+03  0.41935147856E+03  0.00000000000E+00 0. -1.
         21   -1    0    0  501  503 -0.00000000000E+00 -0.00000000000E+00 -0.30651984244E+03  0.30651984244E+03  0.00000000000E+00 0. -1.
          6    1    1    2  501    0 -0.15564116767E+03 -0.15472778812E+03 -0.17094900814E+03  0.32759338344E+03  0.17300000000E+03 0. -1.
         -6    1    1    2    0  502  0.15564116767E+03  0.15472778812E+03  0.28378064426E+03  0.39827793756E+03  0.17300000000E+03 0. -1.
</event>
<event>
 4    1  0.6123996E+000  0.1000000E+03  0.7546771E-02  0.1280296E+00
         21   -1    0    0  503  502  0.00000000000E+00  0.00000000000E+00  0.22863778616E+03  0.22863778616E+03  0.00000000000E+00 0. -1.
         21   -1    0    0  501  503 -0.00000000000E+00 -0.00000000000E+00 -0.37269893038E+03  0.37269893038E+03  0.00000000000E+00 0. -1.
          6    1    1    2  501    0  0.16879485884E+03  0.10085876315E+03 -0.20481537738E+03  0.33247937273E+03  0.17300000000E+03 0. -1.
         -6    1    1    2    0  502 -0.16879485884E+03 -0.10085876315E+03  0.60754233170E+02  0.26885734382E+03  0.17300000000E+03 0. -1.
</event>
<event>
 4    1  0.6123996E+000  0.1000000E+03  0.7546771E-02  0.1280296E+00
         21   -1    0    0  503  502  0.00000000000E+00  0.00000000000E+00  0.40580616705E+03  0.40580616705E+03  0.00000000000E+00 0. -1.
         21   -1    0    0  501  503 -0.00000000000E+00 -0.00000000000E+00 -0.95832567694E+02  0.95832567694E+02  0.00000000000E+00 0.  1.
          6    1    1    2  501    0 -0.54369043290E+02  0.77430331939E+02  0.15117163403E+03  0.24846189267E+03  0.17300000000E+03 0.  1.
         -6    1    1    2    0  502  0.54369043290E+02 -0.77430331939E+02  0.15880196533E+03  0.25317684208E+03  0.17300000000E+03 0. -1.
</event>
<event>
 4    1  0.6123996E+000  0.1000000E+03  0.7546771E-02  0.1280296E+00
         21   -1    0    0  503  502  0.00000000000E+00  0.00000000000E+00  0.14794753253E+04  0.14794753253E+04  0.00000000000E+00 0. -1.
         21   -1    0    0  501  503 -0.00000000000E+00 -0.00000000000E+00 -0.66982346227E+02  0.66982346227E+02  0.00000000000E+00 0.  1.
          6    1    1    2  501    0  0.32533246596E+02  0.11244967070E+03  0.12776569788E+03  0.24485998883E+03  0.17300000000E+03 0.  1.
         -6    1    1    2    0  502 -0.32533246596E+02 -0.11244967070E+03  0.12847272812E+04  0.13015976827E+04  0.17300000000E+03 0. -1.
</event>
<event>
 4    1  0.6123996E+000  0.1000000E+03  0.7546771E-02  0.1280296E+00
         21   -1    0    0  503  502  0.00000000000E+00  0.00000000000E+00  0.15754110786E+03  0.15754110786E+03  0.00000000000E+00 0. -1.
         21   -1    0    0  501  503 -0.00000000000E+00 -0.00000000000E+00 -0.10455827313E+04  0.10455827313E+04  0.00000000000E+00 0.  1.
          6    1    1    2  501    0 -0.62176618830E+01 -0.11769704500E+03 -0.95939296049E+03  0.98196492115E+03  0.17300000000E+03 0.  1.
         -6    1    1    2    0  502  0.62176618830E+01  0.11769704500E+03  0.71351337046E+02  0.22115891802E+03  0.17300000000E+03 0. -1.
</event>
<event>
 4    1  0.6123996E+000  0.1000000E+03  0.7546771E-02  0.1280296E+00
         21   -1    0    0  503  502  0.00000000000E+00  0.00000000000E+00  0.10625505656E+03  0.10625505656E+03  0.00000000000E+00 0. -1.
         21   -1    0    0  501  503 -0.00000000000E+00 -0.00000000000E+00 -0.82377180217E+03  0.82377180217E+03  0.00000000000E+00 0.  1.
          6    1    1    2  501    0  0.79600688335E+02  0.50569699434E+02 -0.70564256222E+03  0.73263496347E+03  0.17300000000E+03 0.  1.
         -6    1    1    2    0  502 -0.79600688335E+02 -0.50569699434E+02 -0.11874183392E+02  0.19739189526E+03  0.17300000000E+03 0. -1.
</event>
<event>
 4    1  0.6123996E+000  0.1000000E+03  0.7546771E-02  0.1280296E+00
         21   -1    0    0  501  502  0.00000000000E+00  0.00000000000E+00  0.12913803871E+04  0.12913803871E+04  0.00000000000E+00 0. -1.
         21   -1    0    0  502  503 -0.00000000000E+00 -0.00000000000E+00 -0.87415890802E+02  0.87415890802E+02  0.00000000000E+00 0.  1.
          6    1    1    2  501    0  0.83447964917E+02 -0.13410968694E+03  0.10961748534E+04  0.11209269736E+04  0.17300000000E+03 0.  1.
         -6    1    1    2    0  503 -0.83447964917E+02  0.13410968694E+03  0.10778964293E+03  0.25786930431E+03  0.17300000000E+03 0. -1.
</event>
<event>
 4    1  0.6123996E+000  0.1000000E+03  0.7546771E-02  0.1280296E+00
         21   -1    0    0  503  502  0.00000000000E+00  0.00000000000E+00  0.50948115869E+03  0.50948115869E+03  0.00000000000E+00 0.  1.
         21   -1    0    0  501  503 -0.00000000000E+00 -0.00000000000E+00 -0.15907105651E+03  0.15907105651E+03  0.00000000000E+00 0.  1.
          6    1    1    2  501    0  0.29581448298E+02 -0.22254456060E+03  0.14383886289E+03  0.31783606154E+03  0.17300000000E+03 0.  1.
         -6    1    1    2    0  502 -0.29581448298E+02  0.22254456060E+03  0.20657123929E+03  0.35071615366E+03  0.17300000000E+03 0.  1.
</event>
<event>
 4    1  0.6123996E+000  0.1000000E+03  0.7546771E-02  0.1280296E+00
         21   -1    0    0  501  502  0.00000000000E+00  0.00000000000E+00  0.20176303092E+03  0.20176303092E+03  0.00000000000E+00 0.  1.
         21   -1    0    0  502  503 -0.00000000000E+00 -0.00000000000E+00 -0.32028892470E+03  0.32028892470E+03  0.00000000000E+00 0. -1.
          6    1    1    2  501    0 -0.10394973495E+03  0.15312097984E+03 -0.37678282288E+02  0.25612542790E+03  0.17300000000E+03 0.  1.
         -6    1    1    2    0  503  0.10394973495E+03 -0.15312097984E+03 -0.80847611490E+02  0.26592652772E+03  0.17300000000E+03 0. -1.
</event>
<event>
 4    1  0.6123996E+000  0.1000000E+03  0.7546771E-02  0.1280296E+00
         21   -1    0    0  501  502  0.00000000000E+00  0.00000000000E+00  0.81997846514E+02  0.81997846514E+02  0.00000000000E+00 0.  1.
         21   -1    0    0  502  503 -0.00000000000E+00 -0.00000000000E+00 -0.61855830502E+03  0.61855830502E+03  0.00000000000E+00 0. -1.
          6    1    1    2  501    0  0.53631153840E+02 -0.37293993788E+02 -0.68347898315E+02  0.19714861866E+03  0.17300000000E+03 0.  1.
         -6    1    1    2    0  503 -0.53631153840E+02  0.37293993788E+02 -0.46821256019E+03  0.50340753288E+03  0.17300000000E+03 0. -1.
</event>
<event>
 4    1  0.6123996E+000  0.1000000E+03  0.7546771E-02  0.1280296E+00
         21   -1    0    0  501  502  0.00000000000E+00  0.00000000000E+00  0.86565650485E+02  0.86565650485E+02  0.00000000000E+00 0.  1.
         21   -1    0    0  502  503 -0.00000000000E+00 -0.00000000000E+00 -0.13478340518E+04  0.13478340518E+04  0.00000000000E+00 0. -1.
          6    1    1    2  501    0 -0.49461089567E+02  0.21887192734E+03 -0.23006746279E+03  0.36498131102E+03  0.17300000000E+03 0.  1.
         -6    1    1    2    0  503  0.49461089567E+02 -0.21887192734E+03 -0.10312009386E+04  0.10694183913E+04  0.17300000000E+03 0. -1.
</event>
<event>
 4    1  0.6123996E+000  0.1000000E+03  0.7546771E-02  0.1280296E+00
         21   -1    0    0  501  502  0.00000000000E+00  0.00000000000E+00  0.51427068216E+02  0.51427068216E+02  0.00000000000E+00 0.  1.
         21   -1    0    0  502  503 -0.00000000000E+00 -0.00000000000E+00 -0.69100557986E+03  0.69100557986E+03  0.00000000000E+00 0. -1.
          6    1    1    2  501    0 -0.45317619098E+02 -0.13217643467E+02 -0.20532117590E+03  0.27260626913E+03  0.17300000000E+03 0. -1.
         -6    1    1    2    0  503  0.45317619098E+02  0.13217643467E+02 -0.43425733575E+03  0.46982637895E+03  0.17300000000E+03 0.  1.
</event>
<event>
 4    1  0.6123996E+000  0.1000000E+03  0.7546771E-02  0.1280296E+00
         21   -1    0    0  501  502  0.00000000000E+00  0.00000000000E+00  0.16782459921E+04  0.16782459921E+04  0.00000000000E+00 0.  1.
         21   -1    0    0  502  503 -0.00000000000E+00 -0.00000000000E+00 -0.56782783311E+02  0.56782783311E+02  0.00000000000E+00 0. -1.
          6    1    1    2  501    0  0.18038315799E+03 -0.17563125871E+03  0.93584346312E+03  0.98443710321E+03  0.17300000000E+03 0. -1.
         -6    1    1    2    0  503 -0.18038315799E+03  0.17563125871E+03  0.68561974569E+03  0.75059167222E+03  0.17300000000E+03 0.  1.
</event>
<event>
 4    1  0.6123996E+000  0.1000000E+03  0.7546771E-02  0.1280296E+00
         21   -1    0    0  501  502  0.00000000000E+00  0.00000000000E+00  0.25309102939E+03  0.25309102939E+03  0.00000000000E+00 0.  1.
         21   -1    0    0  502  503 -0.00000000000E+00 -0.00000000000E+00 -0.18680752720E+03  0.18680752720E+03  0.00000000000E+00 0. -1.
          6    1    1    2  501    0 -0.29845336056E+02  0.64468150959E+02  0.14534358447E+03  0.23685574538E+03  0.17300000000E+03 0. -1.
         -6    1    1    2    0  503  0.29845336056E+02 -0.64468150959E+02 -0.79060082279E+02  0.20304281121E+03  0.17300000000E+03 0.  1.
</event>
<event>
 4    1  0.6123996E+000  0.1000000E+03  0.7546771E-02  0.1280296E+00
         21   -1    0    0  501  502  0.00000000000E+00  0.00000000000E+00  0.24263294810E+03  0.24263294810E+03  0.00000000000E+00 0.  1.
         21   -1    0    0  502  503 -0.00000000000E+00 -0.00000000000E+00 -0.24181453340E+03  0.24181453340E+03  0.00000000000E+00 0. -1.
          6    1    1    2  501    0  0.35877657733E+02  0.16391792212E+02  0.16529508774E+03  0.24250229526E+03  0.17300000000E+03 0. -1.
         -6    1    1    2    0  503 -0.35877657733E+02 -0.16391792212E+02 -0.16447667303E+03  0.24194518625E+03  0.17300000000E+03 0.  1.
</event>
<event>
 4    1  0.6123996E+000  0.1000000E+03  0.7546771E-02  0.1280296E+00
         21   -1    0    0  503  502  0.00000000000E+00  0.00000000000E+00  0.41613423262E+03  0.41613423262E+03  0.00000000000E+00 0.  1.
         21   -1    0    0  501  503 -0.00000000000E+00 -0.00000000000E+00 -0.28271009854E+03  0.28271009854E+03  0.00000000000E+00 0.  1.
          6    1    1    2  501    0 -0.29560499891E+03  0.55901376337E+01  0.48985274281E+02  0.34603774666E+03  0.17300000000E+03 0.  1.
         -6    1    1    2    0  502  0.29560499891E+03 -0.55901376337E+01  0.84438859799E+02  0.35280658449E+03  0.17300000000E+03 0.  1.
</event>
<event>
 4    1  0.6123996E+000  0.1000000E+03  0.7546771E-02  0.1280296E+00
         21   -1    0    0  503  502  0.00000000000E+00  0.00000000000E+00  0.29916601723E+03  0.29916601723E+03  0.00000000000E+00 0.  1.
         21   -1    0    0  501  503 -0.00000000000E+00 -0.00000000000E+00 -0.17791392150E+03  0.17791392150E+03  0.00000000000E+00 0.  1.
          6    1    1    2  501    0  0.26640436034E+02  0.65561617772E+02 -0.79201326401E+02  0.20300218881E+03  0.17300000000E+03 0.  1.
         -6    1    1    2    0  502 -0.26640436034E+02 -0.65561617772E+02  0.20045342213E+03  0.27407774992E+03  0.17300000000E+03 0.  1.
</event>
<event>
 4    1  0.6123996E+000  0.1000000E+03  0.7546771E-02  0.1280296E+00
         21   -1    0    0  503  502  0.00000000000E+00  0.00000000000E+00  0.68006334011E+02  0.68006334011E+02  0.00000000000E+00 0.  1.
         21   -1    0    0  501  503 -0.00000000000E+00 -0.00000000000E+00 -0.67081995705E+03  0.67081995705E+03  0.00000000000E+00 0.  1.
          6    1    1    2  501    0 -0.13947670848E+00  0.24675057429E+02 -0.51381242476E+03  0.54271639532E+03  0.17300000000E+03 0.  1.
         -6    1    1    2    0  502  0.13947670848E+00 -0.24675057429E+02 -0.89001198282E+02  0.19610989574E+03  0.17300000000E+03 0.  1.
</event>
<event>
 4    1  0.6123996E+000  0.1000000E+03  0.7546771E-02  0.1280296E+00
         21   -1    0    0  501  502  0.00000000000E+00  0.00000000000E+00  0.22032767746E+03  0.22032767746E+03  0.00000000000E+00 0.  1.
         21   -1    0    0  502  503 -0.00000000000E+00 -0.00000000000E+00 -0.30262152631E+03  0.30262152631E+03  0.00000000000E+00 0. -1.
          6    1    1    2  501    0 -0.35036201798E+02  0.16308459737E+03  0.54505302596E+02  0.24642229880E+03  0.17300000000E+03 0.  1.
         -6    1    1    2    0  503  0.35036201798E+02 -0.16308459737E+03 -0.13679915145E+03  0.27652690497E+03  0.17300000000E+03 0. -1.
</event>
<event>
 4    1  0.6123996E+000  0.1000000E+03  0.7546771E-02  0.1280296E+00
         21   -1    0    0  501  502  0.00000000000E+00  0.00000000000E+00  0.35584750052E+02  0.35584750052E+02  0.00000000000E+00 0.  1.
         21   -1    0    0  502  503 -0.00000000000E+00 -0.00000000000E+00 -0.98959693820E+03  0.98959693820E+03  0.00000000000E+00 0. -1.
          6    1    1    2  501    0 -0.36401855545E+02 -0.36656003875E+02 -0.61673785881E+03  0.64262224067E+03  0.17300000000E+03 0.  1.
         -6    1    1    2    0  503  0.36401855545E+02  0.36656003875E+02 -0.33727432933E+03  0.38255944758E+03  0.17300000000E+03 0. -1.
</event>
<event>
 4    1  0.6123996E+000  0.1000000E+03  0.7546771E-02  0.1280296E+00
         21   -1    0    0  501  502  0.00000000000E+00  0.00000000000E+00  0.72661102145E+02  0.72661102145E+02  0.00000000000E+00 0.  1.
         21   -1    0    0  502  503 -0.00000000000E+00 -0.00000000000E+00 -0.97309523871E+03  0.97309523871E+03  0.00000000000E+00 0. -1.
          6    1    1    2  501    0 -0.17114372939E+03 -0.10581938359E+03 -0.48366058166E+03  0.55167424836E+03  0.17300000000E+03 0.  1.
         -6    1    1    2    0  503  0.17114372939E+03  0.10581938359E+03 -0.41677355490E+03  0.49408209249E+03  0.17300000000E+03 0. -1.
</event>
<event>
 4    1  0.6123996E+000  0.1000000E+03  0.7546771E-02  0.1280296E+00
         21   -1    0    0  501  502  0.00000000000E+00  0.00000000000E+00  0.10349810732E+03  0.10349810732E+03  0.00000000000E+00 0.  1.
         21   -1    0    0  502  503 -0.00000000000E+00 -0.00000000000E+00 -0.44728847528E+03  0.44728847528E+03  0.00000000000E+00 0. -1.
          6    1    1    2  501    0  0.50292312576E+01 -0.12721487788E+03 -0.15592950685E+03  0.26542782338E+03  0.17300000000E+03 0.  1.
         -6    1    1    2    0  503 -0.50292312576E+01  0.12721487788E+03 -0.18786086111E+03  0.28535875921E+03  0.17300000000E+03 0. -1.
</event>
<event>
 4    1  0.6123996E+000  0.1000000E+03  0.7546771E-02  0.1280296E+00
         21   -1    0    0  501  502  0.00000000000E+00  0.00000000000E+00  0.44087668625E+03  0.44087668625E+03  0.00000000000E+00 0.  1.
         21   -1    0    0  502  503 -0.00000000000E+00 -0.00000000000E+00 -0.22986509995E+03  0.22986509995E+03  0.00000000000E+00 0. -1.
          6    1    1    2  501    0 -0.28008027102E+02  0.47124239698E+01  0.38543785634E+03  0.42343594276E+03  0.17300000000E+03 0.  1.
         -6    1    1    2    0  503  0.28008027102E+02 -0.47124239698E+01 -0.17442627003E+03  0.24730584344E+03  0.17300000000E+03 0. -1.
</event>
<event>
 4    1  0.6123996E+000  0.1000000E+03  0.7546771E-02  0.1280296E+00
         21   -1    0    0  501  502  0.00000000000E+00  0.00000000000E+00  0.16260290199E+03  0.16260290199E+03  0.00000000000E+00 0. -1.
         21   -1    0    0  502  503 -0.00000000000E+00 -0.00000000000E+00 -0.31684127509E+03  0.31684127509E+03  0.00000000000E+00 0.  1.
          6    1    1    2  501    0 -0.26824518695E+02  0.11682737938E+02  0.74959166766E+02  0.19079810757E+03  0.17300000000E+03 0.  1.
         -6    1    1    2    0  503  0.26824518695E+02 -0.11682737938E+02 -0.22919753986E+03  0.28864606952E+03  0.17300000000E+03 0.  1.
</event>
<event>
 4    1  0.6123996E+000  0.1000000E+03  0.7546771E-02  0.1280296E+00
         21   -1    0    0  501  502  0.00000000000E+00  0.00000000000E+00  0.13401888223E+03  0.13401888223E+03  0.00000000000E+00 0. -1.
         21   -1    0    0  502  503 -0.00000000000E+00 -0.00000000000E+00 -0.32392294953E+03  0.32392294953E+03  0.00000000000E+00 0.  1.
          6    1    1    2  501    0  0.97206818864E+02  0.59629389742E+02 -0.11897757005E+03  0.23893407444E+03  0.17300000000E+03 0.  1.
         -6    1    1    2    0  503 -0.97206818864E+02 -0.59629389742E+02 -0.70926497248E+02  0.21900775732E+03  0.17300000000E+03 0.  1.
</event>
<event>
 4    1  0.6123996E+000  0.1000000E+03  0.7546771E-02  0.1280296E+00
         21   -1    0    0  501  502  0.00000000000E+00  0.00000000000E+00  0.12463565162E+03  0.12463565162E+03  0.00000000000E+00 0. -1.
         21   -1    0    0  502  503 -0.00000000000E+00 -0.00000000000E+00 -0.55929170828E+03  0.55929170828E+03  0.00000000000E+00 0.  1.
          6    1    1    2  501    0  0.11746977447E+03  0.54912042469E+02 -0.21052856588E+02  0.21722500568E+03  0.17300000000E+03 0.  1.
         -6    1    1    2    0  503 -0.11746977447E+03 -0.54912042469E+02 -0.41360320007E+03  0.46670235422E+03  0.17300000000E+03 0.  1.
</event>
<event>
 4    1  0.6123996E+000  0.1000000E+03  0.7546771E-02  0.1280296E+00
         21   -1    0    0  503  502  0.00000000000E+00  0.00000000000E+00  0.36440787979E+03  0.36440787979E+03  0.00000000000E+00 0.  1.
         21   -1    0    0  501  503 -0.00000000000E+00 -0.00000000000E+00 -0.21648193576E+03  0.21648193576E+03  0.00000000000E+00 0.  1.
          6    1    1    2  501    0  0.12825924693E+03  0.78006827585E+02 -0.94130928929E+02  0.24763911515E+03  0.17300000000E+03 0.  1.
         -6    1    1    2    0  502 -0.12825924693E+03 -0.78006827585E+02  0.24205687295E+03  0.33325070040E+03  0.17300000000E+03 0.  1.
</event>
<event>
 4    1  0.6123996E+000  0.1000000E+03  0.7546771E-02  0.1280296E+00
         21   -1    0    0  503  502  0.00000000000E+00  0.00000000000E+00  0.17074884129E+03  0.17074884129E+03  0.00000000000E+00 0.  1.
         21   -1    0    0  501  503 -0.00000000000E+00 -0.00000000000E+00 -0.24814011690E+03  0.24814011690E+03  0.00000000000E+00 0. -1.
          6    1    1    2  501    0 -0.47765607473E+02  0.18526350283E+02 -0.13950611913E+03  0.22806958628E+03  0.17300000000E+03 0. -1.
         -6    1    1    2    0  502  0.47765607473E+02 -0.18526350283E+02  0.62114843520E+02  0.19081937191E+03  0.17300000000E+03 0.  1.
</event>
<event>
 4    1  0.6123996E+000  0.1000000E+03  0.7546771E-02  0.1280296E+00
         21   -1    0    0  503  502  0.00000000000E+00  0.00000000000E+00  0.33815290888E+03  0.33815290888E+03  0.00000000000E+00 0.  1.
         21   -1    0    0  501  503 -0.00000000000E+00 -0.00000000000E+00 -0.13688045255E+03  0.13688045255E+03  0.00000000000E+00 0. -1.
          6    1    1    2  501    0  0.11545858792E+03  0.24126320373E+02  0.46049784149E+02  0.21438831004E+03  0.17300000000E+03 0. -1.
         -6    1    1    2    0  502 -0.11545858792E+03 -0.24126320373E+02  0.15522267218E+03  0.26064505140E+03  0.17300000000E+03 0.  1.
</event>
<event>
 4    1  0.6123996E+000  0.1000000E+03  0.7546771E-02  0.1280296E+00
         21   -1    0    0  503  502  0.00000000000E+00  0.00000000000E+00  0.70133762795E+02  0.70133762795E+02  0.00000000000E+00 0.  1.
         21   -1    0    0  501  503 -0.00000000000E+00 -0.00000000000E+00 -0.46119151850E+03  0.46119151850E+03  0.00000000000E+00 0.  1.
          6    1    1    2  501    0 -0.56225327593E+01 -0.41718693038E+02 -0.15804187055E+03  0.23807203756E+03  0.17300000000E+03 0.  1.
         -6    1    1    2    0  502  0.56225327593E+01  0.41718693038E+02 -0.23301588516E+03  0.29325324373E+03  0.17300000000E+03 0.  1.
</event>
<event>
 4    1  0.6123996E+000  0.1000000E+03  0.7546771E-02  0.1280296E+00
         21   -1    0    0  503  502  0.00000000000E+00  0.00000000000E+00  0.73741701986E+02  0.73741701986E+02  0.00000000000E+00 0.  1.
         21   -1    0    0  501  503 -0.00000000000E+00 -0.00000000000E+00 -0.11959629467E+04  0.11959629467E+04  0.00000000000E+00 0.  1.
          6    1    1    2  501    0  0.20127504032E+03 -0.11819156831E+03 -0.69258591045E+03  0.75105601124E+03  0.17300000000E+03 0.  1.
         -6    1    1    2    0  502 -0.20127504032E+03  0.11819156831E+03 -0.42963533429E+03  0.51864863747E+03  0.17300000000E+03 0.  1.
</event>
<event>
 4    1  0.6123996E+000  0.1000000E+03  0.7546771E-02  0.1280296E+00
         21   -1    0    0  501  502  0.00000000000E+00  0.00000000000E+00  0.15485716816E+03  0.15485716816E+03  0.00000000000E+00 0.  1.
         21   -1    0    0  502  503 -0.00000000000E+00 -0.00000000000E+00 -0.28078276534E+03  0.28078276534E+03  0.00000000000E+00 0.  1.
          6    1    1    2  501    0  0.53268399069E+01  0.91484240779E+02  0.12033414916E+02  0.19614164425E+03  0.17300000000E+03 0.  1.
         -6    1    1    2    0  503 -0.53268399069E+01 -0.91484240779E+02 -0.13795901209E+03  0.23949828925E+03  0.17300000000E+03 0.  1.
</event>
<event>
 4    1  0.6123996E+000  0.1000000E+03  0.7546771E-02  0.1280296E+00
         21   -1    0    0  501  502  0.00000000000E+00  0.00000000000E+00  0.27422492134E+03  0.27422492134E+03  0.00000000000E+00 0.  1.
         21   -1    0    0  502  503 -0.00000000000E+00 -0.00000000000E+00 -0.11940290446E+03  0.11940290446E+03  0.00000000000E+00 0.  1.
          6    1    1    2  501    0 -0.27653768070E+02 -0.80287500839E+01  0.12587082314E+03  0.21587416667E+03  0.17300000000E+03 0.  1.
         -6    1    1    2    0  503  0.27653768070E+02  0.80287500839E+01  0.28951193737E+02  0.17775365913E+03  0.17300000000E+03 0.  1.
</event>
<event>
 4    1  0.6123996E+000  0.1000000E+03  0.7546771E-02  0.1280296E+00
         21   -1    0    0  501  502  0.00000000000E+00  0.00000000000E+00  0.30139341192E+03  0.30139341192E+03  0.00000000000E+00 0.  1.
         21   -1    0    0  502  503 -0.00000000000E+00 -0.00000000000E+00 -0.45531596397E+03  0.45531596397E+03  0.00000000000E+00 0.  1.
          6    1    1    2  501    0  0.28356309275E+03  0.14969027113E+03 -0.85609240716E+01  0.36444134543E+03  0.17300000000E+03 0.  1.
         -6    1    1    2    0  503 -0.28356309275E+03 -0.14969027113E+03 -0.14536162798E+03  0.39226803047E+03  0.17300000000E+03 0.  1.
</event>
<event>
 4    1  0.6123996E+000  0.1000000E+03  0.7546771E-02  0.1280296E+00
         21   -1    0    0  501  502  0.00000000000E+00  0.00000000000E+00  0.41086593410E+02  0.41086593410E+02  0.00000000000E+00 0. -1.
         21   -1    0    0  502  503 -0.00000000000E+00 -0.00000000000E+00 -0.11076463835E+04  0.11076463835E+04  0.00000000000E+00 0.  1.
          6    1    1    2  501    0 -0.81530983020E+02 -0.42674977491E+02 -0.30622380047E+03  0.36355256961E+03  0.17300000000E+03 0. -1.
         -6    1    1    2    0  503  0.81530983020E+02  0.42674977491E+02 -0.76033598962E+03  0.78518040730E+03  0.17300000000E+03 0.  1.
</event>
<event>
 4    1  0.6123996E+000  0.1000000E+03  0.7546771E-02  0.1280296E+00
         21   -1    0    0  501  502  0.00000000000E+00  0.00000000000E+00  0.45808615076E+02  0.45808615076E+02  0.00000000000E+00 0. -1.
         21   -1    0    0  502  503 -0.00000000000E+00 -0.00000000000E+00 -0.12070586791E+04  0.12070586791E+04  0.00000000000E+00 0.  1.
          6    1    1    2  501    0 -0.27493899994E+02 -0.55602922659E+01 -0.16297810236E+03  0.23932758562E+03  0.17300000000E+03 0. -1.
         -6    1    1    2    0  503  0.27493899994E+02  0.55602922659E+01 -0.99827196165E+03  0.10135397085E+04  0.17300000000E+03 0.  1.
</event>
<event>
 4    1  0.6123996E+000  0.1000000E+03  0.7546771E-02  0.1280296E+00
         21   -1    0    0  503  502  0.00000000000E+00  0.00000000000E+00  0.53039623103E+03  0.53039623103E+03  0.00000000000E+00 0. -1.
         21   -1    0    0  501  503 -0.00000000000E+00 -0.00000000000E+00 -0.13699067349E+03  0.13699067349E+03  0.00000000000E+00 0. -1.
          6    1    1    2  501    0  0.41908842017E+02 -0.14548029600E+03  0.22466578767E+02  0.23098617864E+03  0.17300000000E+03 0. -1.
         -6    1    1    2    0  502 -0.41908842017E+02  0.14548029600E+03  0.37093897877E+03  0.43640072587E+03  0.17300000000E+03 0. -1.
</event>
<event>
 4    1  0.6123996E+000  0.1000000E+03  0.7546771E-02  0.1280296E+00
         21   -1    0    0  503  502  0.00000000000E+00  0.00000000000E+00  0.11965633729E+03  0.11965633729E+03  0.00000000000E+00 0. -1.
         21   -1    0    0  501  503 -0.00000000000E+00 -0.00000000000E+00 -0.89557795632E+03  0.89557795632E+03  0.00000000000E+00 0. -1.
          6    1    1    2  501    0  0.20992083096E+03 -0.18195693775E+03 -0.37620279916E+03  0.49863075373E+03  0.17300000000E+03 0. -1.
         -6    1    1    2    0  502 -0.20992083096E+03  0.18195693775E+03 -0.39971881986E+03  0.51660353988E+03  0.17300000000E+03 0. -1.
</event>
<event>
 4    1  0.6123996E+000  0.1000000E+03  0.7546771E-02  0.1280296E+00
         21   -1    0    0  501  502  0.00000000000E+00  0.00000000000E+00  0.28804642154E+04  0.28804642154E+04  0.00000000000E+00 0.  1.
         21   -1    0    0  502  503 -0.00000000000E+00 -0.00000000000E+00 -0.12622159942E+02  0.12622159942E+02  0.00000000000E+00 0.  1.
          6    1    1    2  501    0 -0.20036529001E+02  0.77290462144E+02  0.14893596071E+04  0.15014980244E+04  0.17300000000E+03 0.  1.
         -6    1    1    2    0  503  0.20036529001E+02 -0.77290462144E+02  0.13784824484E+04  0.13915883510E+04  0.17300000000E+03 0.  1.
</event>
<event>
 4    1  0.6123996E+000  0.1000000E+03  0.7546771E-02  0.1280296E+00
         21   -1    0    0  501  502  0.00000000000E+00  0.00000000000E+00  0.49929947919E+03  0.49929947919E+03  0.00000000000E+00 0. -1.
         21   -1    0    0  502  503 -0.00000000000E+00 -0.00000000000E+00 -0.90913048483E+02  0.90913048483E+02  0.00000000000E+00 0. -1.
          6    1    1    2  501    0  0.90740758281E+02 -0.66289360940E+02  0.13043458422E+03  0.24407036967E+03  0.17300000000E+03 0.  1.
         -6    1    1    2    0  503 -0.90740758281E+02  0.66289360940E+02  0.27795184649E+03  0.34614215801E+03  0.17300000000E+03 0.  1.
</event>
<event>
 4    1  0.6123996E+000  0.1000000E+03  0.7546771E-02  0.1280296E+00
         21   -1    0    0  501  502  0.00000000000E+00  0.00000000000E+00  0.25659993311E+03  0.25659993311E+03  0.00000000000E+00 0. -1.
         21   -1    0    0  502  503 -0.00000000000E+00 -0.00000000000E+00 -0.15079253538E+03  0.15079253538E+03  0.00000000000E+00 0. -1.
          6    1    1    2  501    0 -0.14119868782E+01  0.92225824787E+02  0.36310625875E+02  0.19938670471E+03  0.17300000000E+03 0.  1.
         -6    1    1    2    0  503  0.14119868782E+01 -0.92225824787E+02  0.69496771852E+02  0.20800576377E+03  0.17300000000E+03 0.  1.
</event>
<event>
 4    1  0.6123996E+000  0.1000000E+03  0.7546771E-02  0.1280296E+00
         21   -1    0    0  501  502  0.00000000000E+00  0.00000000000E+00  0.22343275114E+03  0.22343275114E+03  0.00000000000E+00 0. -1.
         21   -1    0    0  502  503 -0.00000000000E+00 -0.00000000000E+00 -0.25948470127E+03  0.25948470127E+03  0.00000000000E+00 0. -1.
          6    1    1    2  501    0 -0.56947401837E+02 -0.10205911100E+03  0.10226516031E+03  0.23247845433E+03  0.17300000000E+03 0.  1.
         -6    1    1    2    0  503  0.56947401837E+02  0.10205911100E+03 -0.13831711044E+03  0.25043899807E+03  0.17300000000E+03 0.  1.
</event>
<event>
 4    1  0.6123996E+000  0.1000000E+03  0.7546771E-02  0.1280296E+00
         21   -1    0    0  501  502  0.00000000000E+00  0.00000000000E+00  0.84894971674E+03  0.84894971674E+03  0.00000000000E+00 0. -1.
         21   -1    0    0  502  503 -0.00000000000E+00 -0.00000000000E+00 -0.43902116143E+02  0.43902116143E+02  0.00000000000E+00 0.  1.
          6    1    1    2  501    0 -0.47648552121E+01 -0.79391792782E+02  0.47622885121E+03  0.51288271499E+03  0.17300000000E+03 0. -1.
         -6    1    1    2    0  503  0.47648552121E+01  0.79391792782E+02  0.32881874938E+03  0.37996911789E+03  0.17300000000E+03 0.  1.
</event>
<event>
 4    1  0.6123996E+000  0.1000000E+03  0.7546771E-02  0.1280296E+00
         21   -1    0    0  501  502  0.00000000000E+00  0.00000000000E+00  0.14411794050E+03  0.14411794050E+03  0.00000000000E+00 0. -1.
         21   -1    0    0  502  503 -0.00000000000E+00 -0.00000000000E+00 -0.75515027763E+03  0.75515027763E+03  0.00000000000E+00 0.  1.
          6    1    1    2  501    0 -0.94285911792E+02  0.89580859156E+02  0.33823264113E+02  0.21906066896E+03  0.17300000000E+03 0. -1.
         -6    1    1    2    0  503  0.94285911792E+02 -0.89580859156E+02 -0.64485560125E+03  0.68020754917E+03  0.17300000000E+03 0.  1.
</event>
<event>
 4    1  0.6123996E+000  0.1000000E+03  0.7546771E-02  0.1280296E+00
         21   -1    0    0  501  502  0.00000000000E+00  0.00000000000E+00  0.12880264670E+03  0.12880264670E+03  0.00000000000E+00 0. -1.
         21   -1    0    0  502  503 -0.00000000000E+00 -0.00000000000E+00 -0.38590629983E+03  0.38590629983E+03  0.00000000000E+00 0. -1.
          6    1    1    2  501    0 -0.57354824793E+02  0.12837047091E+03 -0.12524652890E+03  0.25570343512E+03  0.17300000000E+03 0.  1.
         -6    1    1    2    0  503  0.57354824793E+02 -0.12837047091E+03 -0.13185712423E+03  0.25900551141E+03  0.17300000000E+03 0.  1.
</event>
<event>
 4    1  0.6123996E+000  0.1000000E+03  0.7546771E-02  0.1280296E+00
         21   -1    0    0  501  502  0.00000000000E+00  0.00000000000E+00  0.70999703637E+03  0.70999703637E+03  0.00000000000E+00 0. -1.
         21   -1    0    0  502  503 -0.00000000000E+00 -0.00000000000E+00 -0.48769425329E+02  0.48769425329E+02  0.00000000000E+00 0. -1.
          6    1    1    2  501    0  0.21010788434E+01 -0.53335513899E+02  0.41826010661E+03  0.45576266670E+03  0.17300000000E+03 0.  1.
         -6    1    1    2    0  503 -0.21010788434E+01  0.53335513899E+02  0.24296750443E+03  0.30300379500E+03  0.17300000000E+03 0.  1.
</event>
<event>
 4    1  0.6123996E+000  0.1000000E+03  0.7546771E-02  0.1280296E+00
         21   -1    0    0  501  502  0.00000000000E+00  0.00000000000E+00  0.17416537092E+03  0.17416537092E+03  0.00000000000E+00 0. -1.
         21   -1    0    0  502  503 -0.00000000000E+00 -0.00000000000E+00 -0.48371828425E+03  0.48371828425E+03  0.00000000000E+00 0. -1.
          6    1    1    2  501    0  0.19146319402E+03  0.13049841502E+03 -0.12633141983E+03  0.31555763123E+03  0.17300000000E+03 0.  1.
         -6    1    1    2    0  503 -0.19146319402E+03 -0.13049841502E+03 -0.18322149350E+03  0.34232602394E+03  0.17300000000E+03 0.  1.
</event>
<event>
 4    1  0.6123996E+000  0.1000000E+03  0.7546771E-02  0.1280296E+00
         21   -1    0    0  501  502  0.00000000000E+00  0.00000000000E+00  0.46147959694E+02  0.46147959694E+02  0.00000000000E+00 0.  1.
         21   -1    0    0  502  503 -0.00000000000E+00 -0.00000000000E+00 -0.87306580834E+03  0.87306580834E+03  0.00000000000E+00 0. -1.
          6    1    1    2  501    0  0.76604632754E+02  0.63790373876E+02 -0.36632556398E+03  0.41720606465E+03  0.17300000000E+03 0.  1.
         -6    1    1    2    0  503 -0.76604632754E+02 -0.63790373876E+02 -0.46059228466E+03  0.50200770338E+03  0.17300000000E+03 0. -1.
</event>
<event>
 4    1  0.6123996E+000  0.1000000E+03  0.7546771E-02  0.1280296E+00
         21   -1    0    0  501  502  0.00000000000E+00  0.00000000000E+00  0.75815566356E+02  0.75815566356E+02  0.00000000000E+00 0.  1.
         21   -1    0    0  502  503 -0.00000000000E+00 -0.00000000000E+00 -0.24956631136E+04  0.24956631136E+04  0.00000000000E+00 0. -1.
          6    1    1    2  501    0  0.16751440082E+03  0.74753224257E+02 -0.16223838826E+03  0.29983230920E+03  0.17300000000E+03 0.  1.
         -6    1    1    2    0  503 -0.16751440082E+03 -0.74753224257E+02 -0.22576091590E+04  0.22716463708E+04  0.17300000000E+03 0. -1.
</event>
<event>
 4    1  0.6123996E+000  0.1000000E+03  0.7546771E-02  0.1280296E+00
         21   -1    0    0  501  502  0.00000000000E+00  0.00000000000E+00  0.31258693704E+03  0.31258693704E+03  0.00000000000E+00 0.  1.
         21   -1    0    0  502  503 -0.00000000000E+00 -0.00000000000E+00 -0.28713734479E+03  0.28713734479E+03  0.00000000000E+00 0. -1.
          6    1    1    2  501    0 -0.21634819181E+02  0.40637137091E+02  0.25316407170E+03  0.31006529878E+03  0.17300000000E+03 0.  1.
         -6    1    1    2    0  503  0.21634819181E+02 -0.40637137091E+02 -0.22771447944E+03  0.28965898305E+03  0.17300000000E+03 0. -1.
</event>
<event>
 4    1  0.6123996E+000  0.1000000E+03  0.7546771E-02  0.1280296E+00
         21   -1    0    0  503  502  0.00000000000E+00  0.00000000000E+00  0.73425044891E+02  0.73425044891E+02  0.00000000000E+00 0.  1.
         21   -1    0    0  501  503 -0.00000000000E+00 -0.00000000000E+00 -0.61078945122E+03  0.61078945122E+03  0.00000000000E+00 0.  1.
          6    1    1    2  501    0  0.11246264815E+03  0.11839135868E+02 -0.34324251250E+03  0.40066499067E+03  0.17300000000E+03 0.  1.
         -6    1    1    2    0  502 -0.11246264815E+03 -0.11839135868E+02 -0.19412189383E+03  0.28354950543E+03  0.17300000000E+03 0.  1.
</event>
<event>
 4    1  0.6123996E+000  0.1000000E+03  0.7546771E-02  0.1280296E+00
         21   -1    0    0  501  502  0.00000000000E+00  0.00000000000E+00  0.80176180936E+03  0.80176180936E+03  0.00000000000E+00 0.  1.
         21   -1    0    0  502  503 -0.00000000000E+00 -0.00000000000E+00 -0.55559800115E+02  0.55559800115E+02  0.00000000000E+00 0.  1.
          6    1    1    2  501    0  0.86028548136E+02  0.75891584467E+02  0.45060668313E+03  0.49612077820E+03  0.17300000000E+03 0.  1.
         -6    1    1    2    0  503 -0.86028548136E+02 -0.75891584467E+02  0.29559532612E+03  0.36120083127E+03  0.17300000000E+03 0.  1.
</event>
<event>
 4    1  0.6123996E+000  0.1000000E+03  0.7546771E-02  0.1280296E+00
         21   -1    0    0  501  502  0.00000000000E+00  0.00000000000E+00  0.23683680505E+03  0.23683680505E+03  0.00000000000E+00 0.  1.
         21   -1    0    0  502  503 -0.00000000000E+00 -0.00000000000E+00 -0.31352866137E+03  0.31352866137E+03  0.00000000000E+00 0.  1.
          6    1    1    2  501    0  0.68329904378E+02  0.71297569429E+02  0.14942638739E+03  0.24901719717E+03  0.17300000000E+03 0.  1.
         -6    1    1    2    0  503 -0.68329904378E+02 -0.71297569429E+02 -0.22611824372E+03  0.30134826925E+03  0.17300000000E+03 0.  1.
</event>
<event>
 4    1  0.6123996E+000  0.1000000E+03  0.7546771E-02  0.1280296E+00
         21   -1    0    0  501  502  0.00000000000E+00  0.00000000000E+00  0.31017155600E+02  0.31017155600E+02  0.00000000000E+00 0.  1.
         21   -1    0    0  502  503 -0.00000000000E+00 -0.00000000000E+00 -0.14117228177E+04  0.14117228177E+04  0.00000000000E+00 0.  1.
          6    1    1    2  501    0  0.56365838313E+01  0.29198468819E+02 -0.29768582315E+03  0.34558670542E+03  0.17300000000E+03 0.  1.
         -6    1    1    2    0  503 -0.56365838313E+01 -0.29198468819E+02 -0.10830198389E+04  0.10971532679E+04  0.17300000000E+03 0.  1.
</event>
<event>
 4    1  0.6123996E+000  0.1000000E+03  0.7546771E-02  0.1280296E+00
         21   -1    0    0  501  502  0.00000000000E+00  0.00000000000E+00  0.18409712529E+04  0.18409712529E+04  0.00000000000E+00 0. -1.
         21   -1    0    0  502  503 -0.00000000000E+00 -0.00000000000E+00 -0.78538833634E+02  0.78538833634E+02  0.00000000000E+00 0.  1.
          6    1    1    2  501    0 -0.48759419655E+02  0.11048411126E+03  0.16796822006E+04  0.16928808331E+04  0.17300000000E+03 0. -1.
         -6    1    1    2    0  503  0.48759419655E+02 -0.11048411126E+03  0.82750218646E+02  0.22662925348E+03  0.17300000000E+03 0. -1.
</event>
<event>
 4    1  0.6123996E+000  0.1000000E+03  0.7546771E-02  0.1280296E+00
         21   -1    0    0  501  502  0.00000000000E+00  0.00000000000E+00  0.12061250863E+03  0.12061250863E+03  0.00000000000E+00 0.  1.
         21   -1    0    0  502  503 -0.00000000000E+00 -0.00000000000E+00 -0.67747541572E+03  0.67747541572E+03  0.00000000000E+00 0. -1.
          6    1    1    2  501    0 -0.18818528093E+03 -0.80204039581E+02 -0.13927698008E+03  0.30194944130E+03  0.17300000000E+03 0. -1.
         -6    1    1    2    0  503  0.18818528093E+03  0.80204039581E+02 -0.41758592701E+03  0.49613848305E+03  0.17300000000E+03 0. -1.
</event>
<event>
 4    1  0.6123996E+000  0.1000000E+03  0.7546771E-02  0.1280296E+00
         21   -1    0    0  501  502  0.00000000000E+00  0.00000000000E+00  0.79532609316E+03  0.79532609316E+03  0.00000000000E+00 0.  1.
         21   -1    0    0  502  503 -0.00000000000E+00 -0.00000000000E+00 -0.37227325594E+03  0.37227325594E+03  0.00000000000E+00 0. -1.
          6    1    1    2  501    0  0.13958792161E+03  0.30452293149E+02  0.74338483453E+03  0.77650636972E+03  0.17300000000E+03 0. -1.
         -6    1    1    2    0  503 -0.13958792161E+03 -0.30452293149E+02 -0.32033199731E+03  0.39109297938E+03  0.17300000000E+03 0. -1.
</event>
<event>
 4    1  0.6123996E+000  0.1000000E+03  0.7546771E-02  0.1280296E+00
         21   -1    0    0  503  502  0.00000000000E+00  0.00000000000E+00  0.57517131486E+03  0.57517131486E+03  0.00000000000E+00 0. -1.
         21   -1    0    0  501  503 -0.00000000000E+00 -0.00000000000E+00 -0.92487203106E+02  0.92487203106E+02  0.00000000000E+00 0.  1.
          6    1    1    2  501    0 -0.39235134787E+02 -0.14422692503E+03  0.19729329223E+03  0.30198417983E+03  0.17300000000E+03 0.  1.
         -6    1    1    2    0  502  0.39235134787E+02  0.14422692503E+03  0.28539081952E+03  0.36567433814E+03  0.17300000000E+03 0. -1.
</event>
<event>
 4    1  0.6123996E+000  0.1000000E+03  0.7546771E-02  0.1280296E+00
         21   -1    0    0  503  502  0.00000000000E+00  0.00000000000E+00  0.41048496571E+02  0.41048496571E+02  0.00000000000E+00 0. -1.
         21   -1    0    0  501  503 -0.00000000000E+00 -0.00000000000E+00 -0.86277728022E+03  0.86277728022E+03  0.00000000000E+00 0.  1.
          6    1    1    2  501    0  0.45951254589E+02  0.37654087563E+02 -0.51710543816E+03  0.54850376688E+03  0.17300000000E+03 0.  1.
         -6    1    1    2    0  502 -0.45951254589E+02 -0.37654087563E+02 -0.30462334549E+03  0.35532200991E+03  0.17300000000E+03 0. -1.
</event>
<event>
 4    1  0.6123996E+000  0.1000000E+03  0.7546771E-02  0.1280296E+00
         21   -1    0    0  501  502  0.00000000000E+00  0.00000000000E+00  0.31086996707E+03  0.31086996707E+03  0.00000000000E+00 0.  1.
         21   -1    0    0  502  503 -0.00000000000E+00 -0.00000000000E+00 -0.29290606743E+03  0.29290606743E+03  0.00000000000E+00 0. -1.
          6    1    1    2  501    0 -0.80480921252E+02 -0.16647932916E+03  0.17317091867E+03  0.30677306400E+03  0.17300000000E+03 0. -1.
         -6    1    1    2    0  503  0.80480921252E+02  0.16647932916E+03 -0.15520701904E+03  0.29700297049E+03  0.17300000000E+03 0.  1.
</event>
<event>
 4    1  0.6123996E+000  0.1000000E+03  0.7546771E-02  0.1280296E+00
         21   -1    0    0  501  502  0.00000000000E+00  0.00000000000E+00  0.20420575424E+03  0.20420575424E+03  0.00000000000E+00 0.  1.
         21   -1    0    0  502  503 -0.00000000000E+00 -0.00000000000E+00 -0.73981048870E+03  0.73981048870E+03  0.00000000000E+00 0. -1.
          6    1    1    2  501    0 -0.27215828656E+02  0.15292034601E+03  0.11045216676E+03  0.25739855224E+03  0.17300000000E+03 0. -1.
         -6    1    1    2    0  503  0.27215828656E+02 -0.15292034601E+03 -0.64605690123E+03  0.68661769070E+03  0.17300000000E+03 0.  1.
</event>
<event>
 4    1  0.6123996E+000  0.1000000E+03  0.7546771E-02  0.1280296E+00
         21   -1    0    0  501  502  0.00000000000E+00  0.00000000000E+00  0.13773922145E+03  0.13773922145E+03  0.00000000000E+00 0.  1.
         21   -1    0    0  502  503 -0.00000000000E+00 -0.00000000000E+00 -0.64708986854E+03  0.64708986854E+03  0.00000000000E+00 0. -1.
          6    1    1    2  501    0 -0.11477129757E+03 -0.21942757431E+02  0.25843839699E+02  0.21035883485E+03  0.17300000000E+03 0. -1.
         -6    1    1    2    0  503  0.11477129757E+03  0.21942757431E+02 -0.53519448679E+03  0.57447025514E+03  0.17300000000E+03 0.  1.
</event>
<event>
 4    1  0.6123996E+000  0.1000000E+03  0.7546771E-02  0.1280296E+00
         21   -1    0    0  503  502  0.00000000000E+00  0.00000000000E+00  0.12342884817E+04  0.12342884817E+04  0.00000000000E+00 0. -1.
         21   -1    0    0  501  503 -0.00000000000E+00 -0.00000000000E+00 -0.61643765710E+02  0.61643765710E+02  0.00000000000E+00 0. -1.
          6    1    1    2  501    0  0.24275465952E+02  0.10310148464E+03  0.14723771181E+03  0.25065346230E+03  0.17300000000E+03 0. -1.
         -6    1    1    2    0  502 -0.24275465952E+02 -0.10310148464E+03  0.10254070041E+04  0.10452787851E+04  0.17300000000E+03 0. -1.
</event>
<event>
 4    1  0.6123996E+000  0.1000000E+03  0.7546771E-02  0.1280296E+00
         21   -1    0    0  503  502  0.00000000000E+00  0.00000000000E+00  0.22152669202E+04  0.22152669202E+04  0.00000000000E+00 0.  1.
         21   -1    0    0  501  503 -0.00000000000E+00 -0.00000000000E+00 -0.64019599886E+02  0.64019599886E+02  0.00000000000E+00 0.  1.
          6    1    1    2  501    0  0.98549516217E+02 -0.27257365762E+03  0.57029967367E+03  0.66270591047E+03  0.17300000000E+03 0.  1.
         -6    1    1    2    0  502 -0.98549516217E+02  0.27257365762E+03  0.15809476467E+04  0.16165806096E+04  0.17300000000E+03 0.  1.
</event>
<event>
 4    1  0.6123996E+000  0.1000000E+03  0.7546771E-02  0.1280296E+00
         21   -1    0    0  501  502  0.00000000000E+00  0.00000000000E+00  0.16354669009E+03  0.16354669009E+03  0.00000000000E+00 0.  1.
         21   -1    0    0  502  503 -0.00000000000E+00 -0.00000000000E+00 -0.28209438341E+03  0.28209438341E+03  0.00000000000E+00 0. -1.
          6    1    1    2  501    0  0.74239727633E+02 -0.82784062779E+02  0.50257336239E+01  0.20571581419E+03  0.17300000000E+03 0.  1.
         -6    1    1    2    0  503 -0.74239727633E+02  0.82784062779E+02 -0.12357342694E+03  0.23992525931E+03  0.17300000000E+03 0. -1.
</event>
<event>
 4    1  0.6123996E+000  0.1000000E+03  0.7546771E-02  0.1280296E+00
         21   -1    0    0  501  502  0.00000000000E+00  0.00000000000E+00  0.84305589654E+03  0.84305589654E+03  0.00000000000E+00 0.  1.
         21   -1    0    0  502  503 -0.00000000000E+00 -0.00000000000E+00 -0.44702606116E+02  0.44702606116E+02  0.00000000000E+00 0. -1.
          6    1    1    2  501    0  0.52727840627E+02  0.68922276846E+02  0.43364818201E+03  0.47487919641E+03  0.17300000000E+03 0.  1.
         -6    1    1    2    0  503 -0.52727840627E+02 -0.68922276846E+02  0.36470510842E+03  0.41287930625E+03  0.17300000000E+03 0. -1.
</event>
<event>
 4    1  0.6123996E+000  0.1000000E+03  0.7546771E-02  0.1280296E+00
         21   -1    0    0  503  502  0.00000000000E+00  0.00000000000E+00  0.65903466121E+02  0.65903466121E+02  0.00000000000E+00 0.  1.
         21   -1    0    0  501  503 -0.00000000000E+00 -0.00000000000E+00 -0.71578439874E+03  0.71578439874E+03  0.00000000000E+00 0.  1.
          6    1    1    2  501    0  0.82130880848E+02  0.10200742943E+02 -0.50840508899E+03  0.54337304980E+03  0.17300000000E+03 0.  1.
         -6    1    1    2    0  502 -0.82130880848E+02 -0.10200742943E+02 -0.14147584364E+03  0.23831481506E+03  0.17300000000E+03 0.  1.
</event>
<event>
 4    1  0.6123996E+000  0.1000000E+03  0.7546771E-02  0.1280296E+00
         21   -1    0    0  501  502  0.00000000000E+00  0.00000000000E+00  0.11006504806E+03  0.11006504806E+03  0.00000000000E+00 0. -1.
         21   -1    0    0  502  503 -0.00000000000E+00 -0.00000000000E+00 -0.10606020116E+04  0.10606020116E+04  0.00000000000E+00 0. -1.
          6    1    1    2  501    0  0.16896313888E+03 -0.10056150325E+03 -0.99363310024E+02  0.28011288013E+03  0.17300000000E+03 0. -1.
         -6    1    1    2    0  503 -0.16896313888E+03  0.10056150325E+03 -0.85117365356E+03  0.89055417957E+03  0.17300000000E+03 0. -1.
</event>
<event>
 4    1  0.6123996E+000  0.1000000E+03  0.7546771E-02  0.1280296E+00
         21   -1    0    0  501  502  0.00000000000E+00  0.00000000000E+00  0.25005462395E+03  0.25005462395E+03  0.00000000000E+00 0. -1.
         21   -1    0    0  502  503 -0.00000000000E+00 -0.00000000000E+00 -0.22988874640E+03  0.22988874640E+03  0.00000000000E+00 0. -1.
          6    1    1    2  501    0 -0.11264685777E+03 -0.38653836299E+02 -0.10565797983E+03  0.23510857562E+03  0.17300000000E+03 0. -1.
         -6    1    1    2    0  503  0.11264685777E+03  0.38653836299E+02  0.12582385738E+03  0.24483479474E+03  0.17300000000E+03 0. -1.
</event>
<event>
 4    1  0.6123996E+000  0.1000000E+03  0.7546771E-02  0.1280296E+00
         21   -1    0    0  501  502  0.00000000000E+00  0.00000000000E+00  0.20709875624E+03  0.20709875624E+03  0.00000000000E+00 0. -1.
         21   -1    0    0  502  503 -0.00000000000E+00 -0.00000000000E+00 -0.16286802302E+03  0.16286802302E+03  0.00000000000E+00 0. -1.
          6    1    1    2  501    0 -0.14071298298E+02 -0.49020582363E+02  0.57002938391E+02  0.18915431244E+03  0.17300000000E+03 0. -1.
         -6    1    1    2    0  503  0.14071298298E+02  0.49020582363E+02 -0.12772205170E+02  0.18081246682E+03  0.17300000000E+03 0. -1.
</event>
<event>
 4    1  0.6123996E+000  0.1000000E+03  0.7546771E-02  0.1280296E+00
         21   -1    0    0  501  502  0.00000000000E+00  0.00000000000E+00  0.75733830928E+03  0.75733830928E+03  0.00000000000E+00 0.  1.
         21   -1    0    0  502  503 -0.00000000000E+00 -0.00000000000E+00 -0.45362055571E+02  0.45362055571E+02  0.00000000000E+00 0.  1.
          6    1    1    2  501    0 -0.42389957496E+02  0.19721339716E+02  0.45846260000E+03  0.49224261836E+03  0.17300000000E+03 0.  1.
         -6    1    1    2    0  503  0.42389957496E+02 -0.19721339716E+02  0.25351365371E+03  0.31045774649E+03  0.17300000000E+03 0.  1.
</event>
<event>
 4    1  0.6123996E+000  0.1000000E+03  0.7546771E-02  0.1280296E+00
         21   -1    0    0  503  502  0.00000000000E+00  0.00000000000E+00  0.35446850911E+03  0.35446850911E+03  0.00000000000E+00 0.  1.
         21   -1    0    0  501  503 -0.00000000000E+00 -0.00000000000E+00 -0.25467295788E+03  0.25467295788E+03  0.00000000000E+00 0.  1.
          6    1    1    2  501    0 -0.15730185618E+02 -0.22528542945E+03 -0.48088349380E+02  0.28851768197E+03  0.17300000000E+03 0.  1.
         -6    1    1    2    0  502  0.15730185618E+02  0.22528542945E+03  0.14788390061E+03  0.32062378502E+03  0.17300000000E+03 0.  1.
</event>
<event>
 4    1  0.6123996E+000  0.1000000E+03  0.7546771E-02  0.1280296E+00
         21   -1    0    0  503  502  0.00000000000E+00  0.00000000000E+00  0.13207022462E+04  0.13207022462E+04  0.00000000000E+00 0.  1.
         21   -1    0    0  501  503 -0.00000000000E+00 -0.00000000000E+00 -0.14207566683E+03  0.14207566683E+03  0.00000000000E+00 0.  1.
          6    1    1    2  501    0 -0.10270444025E+03 -0.26586058598E+02 -0.56845307470E+02  0.21074963711E+03  0.17300000000E+03 0.  1.
         -6    1    1    2    0  502  0.10270444025E+03  0.26586058598E+02  0.12354718868E+04  0.12520282759E+04  0.17300000000E+03 0.  1.
</event>
<event>
 4    1  0.6123996E+000  0.1000000E+03  0.7546771E-02  0.1280296E+00
         21   -1    0    0  501  502  0.00000000000E+00  0.00000000000E+00  0.25919985073E+04  0.25919985073E+04  0.00000000000E+00 0.  1.
         21   -1    0    0  502  503 -0.00000000000E+00 -0.00000000000E+00 -0.84826683165E+02  0.84826683165E+02  0.00000000000E+00 0.  1.
          6    1    1    2  501    0 -0.70966961973E+02 -0.11522921068E+03  0.24360825288E+04  0.24459642614E+04  0.17300000000E+03 0.  1.
         -6    1    1    2    0  503  0.70966961973E+02  0.11522921068E+03  0.71089295351E+02  0.23086092913E+03  0.17300000000E+03 0.  1.
</event>
<event>
 4    1  0.6123996E+000  0.1000000E+03  0.7546771E-02  0.1280296E+00
         21   -1    0    0  501  502  0.00000000000E+00  0.00000000000E+00  0.31346970121E+03  0.31346970121E+03  0.00000000000E+00 0.  1.
         21   -1    0    0  502  503 -0.00000000000E+00 -0.00000000000E+00 -0.18457150199E+03  0.18457150199E+03  0.00000000000E+00 0.  1.
          6    1    1    2  501    0 -0.23732938401E+02 -0.29929861182E+02  0.23288250941E+03  0.29261290496E+03  0.17300000000E+03 0.  1.
         -6    1    1    2    0  503  0.23732938401E+02  0.29929861182E+02 -0.10398431018E+03  0.20542829825E+03  0.17300000000E+03 0.  1.
</event>
<event>
 4    1  0.6123996E+000  0.1000000E+03  0.7546771E-02  0.1280296E+00
         21   -1    0    0  503  502  0.00000000000E+00  0.00000000000E+00  0.12167637679E+03  0.12167637679E+03  0.00000000000E+00 0. -1.
         21   -1    0    0  501  503 -0.00000000000E+00 -0.00000000000E+00 -0.26051988659E+03  0.26051988659E+03  0.00000000000E+00 0.  1.
          6    1    1    2  501    0  0.21601090957E+02  0.25258126581E+01 -0.10807842620E+03  0.20514125151E+03  0.17300000000E+03 0.  1.
         -6    1    1    2    0  502 -0.21601090957E+02 -0.25258126581E+01 -0.30765083602E+02  0.17705501187E+03  0.17300000000E+03 0. -1.
</event>
<event>
 4    1  0.6123996E+000  0.1000000E+03  0.7546771E-02  0.1280296E+00
         21   -1    0    0  501  502  0.00000000000E+00  0.00000000000E+00  0.19796927212E+03  0.19796927212E+03  0.00000000000E+00 0. -1.
         21   -1    0    0  502  503 -0.00000000000E+00 -0.00000000000E+00 -0.20261961544E+04  0.20261961544E+04  0.00000000000E+00 0. -1.
          6    1    1    2  501    0 -0.98830443379E+02 -0.30449255153E+03 -0.39040474207E+01  0.36390577361E+03  0.17300000000E+03 0. -1.
         -6    1    1    2    0  503  0.98830443379E+02  0.30449255153E+03 -0.18243228348E+04  0.18602596529E+04  0.17300000000E+03 0. -1.
</event>
<event>
 4    1  0.6123996E+000  0.1000000E+03  0.7546771E-02  0.1280296E+00
         21   -1    0    0  501  502  0.00000000000E+00  0.00000000000E+00  0.12150287403E+03  0.12150287403E+03  0.00000000000E+00 0. -1.
         21   -1    0    0  502  503 -0.00000000000E+00 -0.00000000000E+00 -0.68933822538E+03  0.68933822538E+03  0.00000000000E+00 0. -1.
          6    1    1    2  501    0 -0.12458010182E+03 -0.13176557856E+03 -0.81178059043E+02  0.26344116370E+03  0.17300000000E+03 0. -1.
         -6    1    1    2    0  503  0.12458010182E+03  0.13176557856E+03 -0.48665729231E+03  0.54739993571E+03  0.17300000000E+03 0. -1.
</event>
<event>
 4    1  0.6123996E+000  0.1000000E+03  0.7546771E-02  0.1280296E+00
         21   -1    0    0  503  502  0.00000000000E+00  0.00000000000E+00  0.31323484077E+03  0.31323484077E+03  0.00000000000E+00 0. -1.
         21   -1    0    0  501  503 -0.00000000000E+00 -0.00000000000E+00 -0.44265094895E+03  0.44265094895E+03  0.00000000000E+00 0. -1.
          6    1    1    2  501    0 -0.23678311537E+03 -0.19654462399E+03 -0.18492581943E+03  0.39852552194E+03  0.17300000000E+03 0. -1.
         -6    1    1    2    0  502  0.23678311537E+03  0.19654462399E+03  0.55509711261E+02  0.35736026778E+03  0.17300000000E+03 0. -1.
</event>
<event>
 4    1  0.6123996E+000  0.1000000E+03  0.7546771E-02  0.1280296E+00
         21   -1    0    0  501  502  0.00000000000E+00  0.00000000000E+00  0.36808658221E+03  0.36808658221E+03  0.00000000000E+00 0. -1.
         21   -1    0    0  502  503 -0.00000000000E+00 -0.00000000000E+00 -0.49034287139E+03  0.49034287139E+03  0.00000000000E+00 0.  1.
          6    1    1    2  501    0 -0.35403576111E+02  0.14807816080E+03  0.29944944965E+03  0.37786178400E+03  0.17300000000E+03 0.  1.
         -6    1    1    2    0  503  0.35403576111E+02 -0.14807816080E+03 -0.42170573883E+03  0.48056766961E+03  0.17300000000E+03 0. -1.
</event>
<event>
 4    1  0.6123996E+000  0.1000000E+03  0.7546771E-02  0.1280296E+00
         21   -1    0    0  501  502  0.00000000000E+00  0.00000000000E+00  0.10606894174E+03  0.10606894174E+03  0.00000000000E+00 0. -1.
         21   -1    0    0  502  503 -0.00000000000E+00 -0.00000000000E+00 -0.62449962267E+03  0.62449962267E+03  0.00000000000E+00 0.  1.
          6    1    1    2  501    0  0.12954392718E+03 -0.99174409005E+02 -0.11947612868E+03  0.26612165976E+03  0.17300000000E+03 0.  1.
         -6    1    1    2    0  503 -0.12954392718E+03  0.99174409005E+02 -0.39895455226E+03  0.46444690465E+03  0.17300000000E+03 0. -1.
</event>
<event>
 4    1  0.6123996E+000  0.1000000E+03  0.7546771E-02  0.1280296E+00
         21   -1    0    0  501  502  0.00000000000E+00  0.00000000000E+00  0.13101308392E+04  0.13101308392E+04  0.00000000000E+00 0. -1.
         21   -1    0    0  502  503 -0.00000000000E+00 -0.00000000000E+00 -0.28875644914E+02  0.28875644914E+02  0.00000000000E+00 0.  1.
          6    1    1    2  501    0 -0.81351537191E+02  0.23393475981E+02  0.54720986551E+03  0.58011461301E+03  0.17300000000E+03 0.  1.
         -6    1    1    2    0  503  0.81351537191E+02 -0.23393475981E+02  0.73404532874E+03  0.75889187106E+03  0.17300000000E+03 0. -1.
</event>
<event>
 4    1  0.6123996E+000  0.1000000E+03  0.7546771E-02  0.1280296E+00
         21   -1    0    0  501  502  0.00000000000E+00  0.00000000000E+00  0.13718426702E+03  0.13718426702E+03  0.00000000000E+00 0. -1.
         21   -1    0    0  502  503 -0.00000000000E+00 -0.00000000000E+00 -0.26722340802E+03  0.26722340802E+03  0.00000000000E+00 0.  1.
          6    1    1    2  501    0 -0.72154783753E+02  0.70111674281E+01 -0.24468304011E+02  0.18916439197E+03  0.17300000000E+03 0.  1.
         -6    1    1    2    0  503  0.72154783753E+02 -0.70111674281E+01 -0.10557083698E+03  0.21524328307E+03  0.17300000000E+03 0. -1.
</event>
<event>
 4    1  0.6123996E+000  0.1000000E+03  0.7546771E-02  0.1280296E+00
         21   -1    0    0  501  502  0.00000000000E+00  0.00000000000E+00  0.96621896125E+02  0.96621896125E+02  0.00000000000E+00 0.  1.
         21   -1    0    0  502  503 -0.00000000000E+00 -0.00000000000E+00 -0.58213062565E+03  0.58213062565E+03  0.00000000000E+00 0. -1.
          6    1    1    2  501    0 -0.15939943963E+03  0.30153526584E+02 -0.24220325905E+03  0.33898205736E+03  0.17300000000E+03 0. -1.
         -6    1    1    2    0  503  0.15939943963E+03 -0.30153526584E+02 -0.24330547047E+03  0.33977046441E+03  0.17300000000E+03 0. -1.
</event>
<event>
 4    1  0.6123996E+000  0.1000000E+03  0.7546771E-02  0.1280296E+00
         21   -1    0    0  503  502  0.00000000000E+00  0.00000000000E+00  0.19466682435E+03  0.19466682435E+03  0.00000000000E+00 0.  1.
         21   -1    0    0  501  503 -0.00000000000E+00 -0.00000000000E+00 -0.22714643685E+04  0.22714643685E+04  0.00000000000E+00 0.  1.
          6    1    1    2  501    0  0.20145819759E+03  0.41618911869E+02 -0.21662409228E+04  0.21828527835E+04  0.17300000000E+03 0.  1.
         -6    1    1    2    0  502 -0.20145819759E+03 -0.41618911869E+02  0.89443378611E+02  0.28327840930E+03  0.17300000000E+03 0.  1.
</event>
<event>
 4    1  0.6123996E+000  0.1000000E+03  0.7546771E-02  0.1280296E+00
         21   -1    0    0  503  502  0.00000000000E+00  0.00000000000E+00  0.70222405794E+03  0.70222405794E+03  0.00000000000E+00 0.  1.
         21   -1    0    0  501  503 -0.00000000000E+00 -0.00000000000E+00 -0.77872128549E+02  0.77872128549E+02  0.00000000000E+00 0.  1.
          6    1    1    2  501    0 -0.76871966218E+01 -0.60019755218E+01  0.50247924516E+02  0.18041333271E+03  0.17300000000E+03 0.  1.
         -6    1    1    2    0  502  0.76871966218E+01  0.60019755218E+01  0.57410400487E+03  0.59968285378E+03  0.17300000000E+03 0.  1.
</event>
<event>
 4    1  0.6123996E+000  0.1000000E+03  0.7546771E-02  0.1280296E+00
         21   -1    0    0  503  502  0.00000000000E+00  0.00000000000E+00  0.12634353413E+04  0.12634353413E+04  0.00000000000E+00 0.  1.
         21   -1    0    0  501  503 -0.00000000000E+00 -0.00000000000E+00 -0.25822065497E+02  0.25822065497E+02  0.00000000000E+00 0.  1.
          6    1    1    2  501    0  0.89260298145E+01  0.50526270752E+02  0.59049443110E+03  0.61745060629E+03  0.17300000000E+03 0.  1.
         -6    1    1    2    0  502 -0.89260298145E+01 -0.50526270752E+02  0.64711884474E+03  0.67180680055E+03  0.17300000000E+03 0.  1.
</event>
<event>
 4    1  0.6123996E+000  0.1000000E+03  0.7546771E-02  0.1280296E+00
         21   -1    0    0  503  502  0.00000000000E+00  0.00000000000E+00  0.10089218454E+03  0.10089218454E+03  0.00000000000E+00 0.  1.
         21   -1    0    0  501  503 -0.00000000000E+00 -0.00000000000E+00 -0.87725757871E+03  0.87725757871E+03  0.00000000000E+00 0.  1.
          6    1    1    2  501    0 -0.39878843692E+01  0.23874035271E+03 -0.32311603504E+03  0.43743094464E+03  0.17300000000E+03 0.  1.
         -6    1    1    2    0  502  0.39878843692E+01 -0.23874035271E+03 -0.45324935914E+03  0.54071881860E+03  0.17300000000E+03 0.  1.
</event>
<event>
 4    1  0.6123996E+000  0.1000000E+03  0.7546771E-02  0.1280296E+00
         21   -1    0    0  501  502  0.00000000000E+00  0.00000000000E+00  0.40936066239E+02  0.40936066239E+02  0.00000000000E+00 0. -1.
         21   -1    0    0  502  503 -0.00000000000E+00 -0.00000000000E+00 -0.83829574949E+03  0.83829574949E+03  0.00000000000E+00 0. -1.
          6    1    1    2  501    0  0.11293534236E+02 -0.32712919577E+02 -0.26464832451E+03  0.31806511077E+03  0.17300000000E+03 0.  1.
         -6    1    1    2    0  503 -0.11293534236E+02  0.32712919577E+02 -0.53271135875E+03  0.56116670496E+03  0.17300000000E+03 0.  1.
</event>
<event>
 4    1  0.6123996E+000  0.1000000E+03  0.7546771E-02  0.1280296E+00
         21   -1    0    0  503  502  0.00000000000E+00  0.00000000000E+00  0.80332247678E+03  0.80332247678E+03  0.00000000000E+00 0.  1.
         21   -1    0    0  501  503 -0.00000000000E+00 -0.00000000000E+00 -0.55700800512E+02  0.55700800512E+02  0.00000000000E+00 0. -1.
          6    1    1    2  501    0  0.47019503455E+02 -0.71890089695E+02  0.19869791884E+03  0.27710806854E+03  0.17300000000E+03 0. -1.
         -6    1    1    2    0  502 -0.47019503455E+02  0.71890089695E+02  0.54892375743E+03  0.58191520875E+03  0.17300000000E+03 0.  1.
</event>
<event>
 4    1  0.6123996E+000  0.1000000E+03  0.7546771E-02  0.1280296E+00
         21   -1    0    0  503  502  0.00000000000E+00  0.00000000000E+00  0.10734731640E+03  0.10734731640E+03  0.00000000000E+00 0.  1.
         21   -1    0    0  501  503 -0.00000000000E+00 -0.00000000000E+00 -0.59859228823E+03  0.59859228823E+03  0.00000000000E+00 0. -1.
          6    1    1    2  501    0  0.71109323146E+02 -0.34254003025E+02 -0.47903128122E+03  0.51539289960E+03  0.17300000000E+03 0. -1.
         -6    1    1    2    0  502 -0.71109323146E+02  0.34254003025E+02 -0.12213690611E+02  0.19054670504E+03  0.17300000000E+03 0.  1.
</event>
<event>
 4    1  0.6123996E+000  0.1000000E+03  0.7546771E-02  0.1280296E+00
         21   -1    0    0  503  502  0.00000000000E+00  0.00000000000E+00  0.23261335209E+03  0.23261335209E+03  0.00000000000E+00 0.  1.
         21   -1    0    0  501  503 -0.00000000000E+00 -0.00000000000E+00 -0.71873829179E+03  0.71873829179E+03  0.00000000000E+00 0. -1.
          6    1    1    2  501    0  0.74595327961E+02 -0.46651350612E+02 -0.66173450492E+03  0.68961030044E+03  0.17300000000E+03 0. -1.
         -6    1    1    2    0  502 -0.74595327961E+02  0.46651350612E+02  0.17560956523E+03  0.26174134344E+03  0.17300000000E+03 0. -1.
</event>
<event>
 4    1  0.6123996E+000  0.1000000E+03  0.7546771E-02  0.1280296E+00
         21   -1    0    0  503  502  0.00000000000E+00  0.00000000000E+00  0.34165939141E+02  0.34165939141E+02  0.00000000000E+00 0.  1.
         21   -1    0    0  501  503 -0.00000000000E+00 -0.00000000000E+00 -0.16317608284E+04  0.16317608284E+04  0.00000000000E+00 0. -1.
          6    1    1    2  501    0 -0.31489507433E+02 -0.11097089473E+03 -0.40413545734E+03  0.45448937989E+03  0.17300000000E+03 0. -1.
         -6    1    1    2    0  502  0.31489507433E+02  0.11097089473E+03 -0.11934594319E+04  0.12114373876E+04  0.17300000000E+03 0. -1.
</event>
<event>
 4    1  0.6123996E+000  0.1000000E+03  0.7546771E-02  0.1280296E+00
         21   -1    0    0  501  502  0.00000000000E+00  0.00000000000E+00  0.40025207714E+03  0.40025207714E+03  0.00000000000E+00 0. -1.
         21   -1    0    0  502  503 -0.00000000000E+00 -0.00000000000E+00 -0.36209838184E+03  0.36209838184E+03  0.00000000000E+00 0.  1.
          6    1    1    2  501    0  0.24724859668E+03  0.63378433704E+02  0.24263470948E+03  0.39236373005E+03  0.17300000000E+03 0. -1.
         -6    1    1    2    0  503 -0.24724859668E+03 -0.63378433704E+02 -0.20448101418E+03  0.36998672892E+03  0.17300000000E+03 0.  1.
</event>
<event>
 4    1  0.6123996E+000  0.1000000E+03  0.7546771E-02  0.1280296E+00
         21   -1    0    0  503  502  0.00000000000E+00  0.00000000000E+00  0.13748677758E+04  0.13748677758E+04  0.00000000000E+00 0.  1.
         21   -1    0    0  501  503 -0.00000000000E+00 -0.00000000000E+00 -0.30469504229E+02  0.30469504229E+02  0.00000000000E+00 0. -1.
          6    1    1    2  501    0 -0.65533582179E+02 -0.17243862804E+02  0.37746053666E+03  0.42071065822E+03  0.17300000000E+03 0. -1.
         -6    1    1    2    0  502  0.65533582179E+02  0.17243862804E+02  0.96693773493E+03  0.98462662184E+03  0.17300000000E+03 0.  1.
</event>
<event>
 4    1  0.6123996E+000  0.1000000E+03  0.7546771E-02  0.1280296E+00
         21   -1    0    0  503  502  0.00000000000E+00  0.00000000000E+00  0.52050893320E+03  0.52050893320E+03  0.00000000000E+00 0. -1.
         21   -1    0    0  501  503 -0.00000000000E+00 -0.00000000000E+00 -0.11380698497E+03  0.11380698497E+03  0.00000000000E+00 0. -1.
          6    1    1    2  501    0  0.71833829961E+02  0.14656829568E+03  0.27063662212E+03  0.36029924460E+03  0.17300000000E+03 0. -1.
         -6    1    1    2    0  502 -0.71833829961E+02 -0.14656829568E+03  0.13606532612E+03  0.27401667357E+03  0.17300000000E+03 0. -1.
</event>
<event>
 4    1  0.6123996E+000  0.1000000E+03  0.7546771E-02  0.1280296E+00
         21   -1    0    0  503  502  0.00000000000E+00  0.00000000000E+00  0.55271817960E+03  0.55271817960E+03  0.00000000000E+00 0. -1.
         21   -1    0    0  501  503 -0.00000000000E+00 -0.00000000000E+00 -0.18046588331E+03  0.18046588331E+03  0.00000000000E+00 0. -1.
          6    1    1    2  501    0 -0.87985953581E+02 -0.68033725398E+02 -0.92081943242E+02  0.22534018747E+03  0.17300000000E+03 0. -1.
         -6    1    1    2    0  502  0.87985953581E+02  0.68033725398E+02  0.46433423953E+03  0.50784387544E+03  0.17300000000E+03 0. -1.
</event>
<event>
 4    1  0.6123996E+000  0.1000000E+03  0.7546771E-02  0.1280296E+00
         21   -1    0    0  501  502  0.00000000000E+00  0.00000000000E+00  0.71278382225E+03  0.71278382225E+03  0.00000000000E+00 0. -1.
         21   -1    0    0  502  503 -0.00000000000E+00 -0.00000000000E+00 -0.81494726987E+02  0.81494726987E+02  0.00000000000E+00 0. -1.
          6    1    1    2  501    0  0.38501494462E+02 -0.85744690421E+02  0.54470730823E+03  0.57919734863E+03  0.17300000000E+03 0. -1.
         -6    1    1    2    0  503 -0.38501494462E+02  0.85744690421E+02  0.86581787029E+02  0.21508120061E+03  0.17300000000E+03 0. -1.
</event>
<event>
 4    1  0.6123996E+000  0.1000000E+03  0.7546771E-02  0.1280296E+00
         21   -1    0    0  503  502  0.00000000000E+00  0.00000000000E+00  0.41270772595E+03  0.41270772595E+03  0.00000000000E+00 0.  1.
         21   -1    0    0  501  503 -0.00000000000E+00 -0.00000000000E+00 -0.42056145782E+03  0.42056145782E+03  0.00000000000E+00 0.  1.
          6    1    1    2  501    0  0.11729258316E+03  0.82829994221E+02 -0.35468680436E+03  0.41994057579E+03  0.17300000000E+03 0.  1.
         -6    1    1    2    0  502 -0.11729258316E+03 -0.82829994221E+02  0.34683307249E+03  0.41332860799E+03  0.17300000000E+03 0.  1.
</event>
<event>
 4    1  0.6123996E+000  0.1000000E+03  0.7546771E-02  0.1280296E+00
         21   -1    0    0  501  502  0.00000000000E+00  0.00000000000E+00  0.85356032985E+02  0.85356032985E+02  0.00000000000E+00 0. -1.
         21   -1    0    0  502  503 -0.00000000000E+00 -0.00000000000E+00 -0.74126984404E+03  0.74126984404E+03  0.00000000000E+00 0.  1.
          6    1    1    2  501    0  0.10440386465E+03  0.14980275032E+03 -0.33017501983E+03  0.41507297513E+03  0.17300000000E+03 0.  1.
         -6    1    1    2    0  503 -0.10440386465E+03 -0.14980275032E+03 -0.32573879122E+03  0.41155290190E+03  0.17300000000E+03 0. -1.
</event>
<event>
 4    1  0.6123996E+000  0.1000000E+03  0.7546771E-02  0.1280296E+00
         21   -1    0    0  501  502  0.00000000000E+00  0.00000000000E+00  0.27996810273E+03  0.27996810273E+03  0.00000000000E+00 0. -1.
         21   -1    0    0  502  503 -0.00000000000E+00 -0.00000000000E+00 -0.25999853824E+03  0.25999853824E+03  0.00000000000E+00 0. -1.
          6    1    1    2  501    0 -0.18160758386E+03  0.62527825938E+02  0.87311570838E+02  0.27284309398E+03  0.17300000000E+03 0. -1.
         -6    1    1    2    0  503  0.18160758386E+03 -0.62527825938E+02 -0.67342006348E+02  0.26712354698E+03  0.17300000000E+03 0. -1.
</event>
<event>
 4    1  0.6123996E+000  0.1000000E+03  0.7546771E-02  0.1280296E+00
         21   -1    0    0  503  502  0.00000000000E+00  0.00000000000E+00  0.32328113534E+02  0.32328113534E+02  0.00000000000E+00 0. -1.
         21   -1    0    0  501  503 -0.00000000000E+00 -0.00000000000E+00 -0.16856272555E+04  0.16856272555E+04  0.00000000000E+00 0. -1.
          6    1    1    2  501    0 -0.99517624926E+02  0.64273347234E+02 -0.12042315551E+04  0.12223491560E+04  0.17300000000E+03 0. -1.
         -6    1    1    2    0  502  0.99517624926E+02 -0.64273347234E+02 -0.44906758681E+03  0.49560621299E+03  0.17300000000E+03 0. -1.
</event>
<event>
 4    1  0.6123996E+000  0.1000000E+03  0.7546771E-02  0.1280296E+00
         21   -1    0    0  503  502  0.00000000000E+00  0.00000000000E+00  0.59886563617E+02  0.59886563617E+02  0.00000000000E+00 0. -1.
         21   -1    0    0  501  503 -0.00000000000E+00 -0.00000000000E+00 -0.10021587914E+04  0.10021587914E+04  0.00000000000E+00 0. -1.
          6    1    1    2  501    0 -0.65718828083E+02  0.13828829007E+03 -0.64782224141E+03  0.68778286690E+03  0.17300000000E+03 0. -1.
         -6    1    1    2    0  502  0.65718828083E+02 -0.13828829007E+03 -0.29444998637E+03  0.37426248812E+03  0.17300000000E+03 0. -1.
</event>
<event>
 4    1  0.6123996E+000  0.1000000E+03  0.7546771E-02  0.1280296E+00
         21   -1    0    0  503  502  0.00000000000E+00  0.00000000000E+00  0.21840691617E+03  0.21840691617E+03  0.00000000000E+00 0. -1.
         21   -1    0    0  501  503 -0.00000000000E+00 -0.00000000000E+00 -0.86553964600E+03  0.86553964600E+03  0.00000000000E+00 0. -1.
          6    1    1    2  501    0  0.23144666840E+03 -0.23790407307E+03 -0.59934148708E+03  0.70661526054E+03  0.17300000000E+03 0. -1.
         -6    1    1    2    0  502 -0.23144666840E+03  0.23790407307E+03 -0.47791242746E+02  0.37733130162E+03  0.17300000000E+03 0. -1.
</event>
<event>
 4    1  0.6123996E+000  0.1000000E+03  0.7546771E-02  0.1280296E+00
         21   -1    0    0  501  502  0.00000000000E+00  0.00000000000E+00  0.15423962428E+03  0.15423962428E+03  0.00000000000E+00 0. -1.
         21   -1    0    0  502  503 -0.00000000000E+00 -0.00000000000E+00 -0.29494969950E+03  0.29494969950E+03  0.00000000000E+00 0.  1.
          6    1    1    2  501    0 -0.11899379579E+03  0.37102483868E+02 -0.64801725591E+02  0.22285506812E+03  0.17300000000E+03 0. -1.
         -6    1    1    2    0  503  0.11899379579E+03 -0.37102483868E+02 -0.75908349622E+02  0.22633425567E+03  0.17300000000E+03 0.  1.
</event>
<event>
 4    1  0.6123996E+000  0.1000000E+03  0.7546771E-02  0.1280296E+00
         21   -1    0    0  501  502  0.00000000000E+00  0.00000000000E+00  0.24638758214E+03  0.24638758214E+03  0.00000000000E+00 0. -1.
         21   -1    0    0  502  503 -0.00000000000E+00 -0.00000000000E+00 -0.13602460954E+03  0.13602460954E+03  0.00000000000E+00 0.  1.
          6    1    1    2  501    0  0.38534469356E+01 -0.50350456078E+02  0.88794895099E+02  0.20090682138E+03  0.17300000000E+03 0. -1.
         -6    1    1    2    0  503 -0.38534469356E+01  0.50350456078E+02  0.21568077494E+02  0.18150537030E+03  0.17300000000E+03 0.  1.
</event>
<event>
 4    1  0.6123996E+000  0.1000000E+03  0.7546771E-02  0.1280296E+00
         21   -1    0    0  501  502  0.00000000000E+00  0.00000000000E+00  0.74818753252E+03  0.74818753252E+03  0.00000000000E+00 0. -1.
         21   -1    0    0  502  503 -0.00000000000E+00 -0.00000000000E+00 -0.21421329908E+03  0.21421329908E+03  0.00000000000E+00 0. -1.
          6    1    1    2  501    0  0.22250654608E+02  0.24859258095E+03 -0.46564870551E+02  0.30723061388E+03  0.17300000000E+03 0. -1.
         -6    1    1    2    0  503 -0.22250654608E+02 -0.24859258095E+03  0.58053910398E+03  0.65517021772E+03  0.17300000000E+03 0. -1.
</event>
<event>
 4    1  0.6123996E+000  0.1000000E+03  0.7546771E-02  0.1280296E+00
         21   -1    0    0  503  502  0.00000000000E+00  0.00000000000E+00  0.40517899031E+02  0.40517899031E+02  0.00000000000E+00 0.  1.
         21   -1    0    0  501  503 -0.00000000000E+00 -0.00000000000E+00 -0.16298704263E+04  0.16298704263E+04  0.00000000000E+00 0. -1.
          6    1    1    2  501    0  0.17160921155E+03  0.81479898602E+02 -0.80965111257E+03  0.84944253452E+03  0.17300000000E+03 0.  1.
         -6    1    1    2    0  502 -0.17160921155E+03 -0.81479898602E+02 -0.77970141465E+03  0.82094579076E+03  0.17300000000E+03 0. -1.
</event>
<event>
 4    1  0.6123996E+000  0.1000000E+03  0.7546771E-02  0.1280296E+00
         21   -1    0    0  501  502  0.00000000000E+00  0.00000000000E+00  0.11966831194E+04  0.11966831194E+04  0.00000000000E+00 0.  1.
         21   -1    0    0  502  503 -0.00000000000E+00 -0.00000000000E+00 -0.36548149243E+02  0.36548149243E+02  0.00000000000E+00 0.  1.
          6    1    1    2  501    0 -0.10575133104E+03 -0.44353882045E+02  0.50449635909E+03  0.54552377328E+03  0.17300000000E+03 0.  1.
         -6    1    1    2    0  503  0.10575133104E+03  0.44353882045E+02  0.65563861107E+03  0.68770749537E+03  0.17300000000E+03 0.  1.
</event>
<event>
 4    1  0.6123996E+000  0.1000000E+03  0.7546771E-02  0.1280296E+00
         21   -1    0    0  501  502  0.00000000000E+00  0.00000000000E+00  0.26290708248E+03  0.26290708248E+03  0.00000000000E+00 0.  1.
         21   -1    0    0  502  503 -0.00000000000E+00 -0.00000000000E+00 -0.12756260532E+03  0.12756260532E+03  0.00000000000E+00 0.  1.
          6    1    1    2  501    0  0.73961197720E+01  0.29094443965E+02  0.12313895525E+03  0.21446069933E+03  0.17300000000E+03 0.  1.
         -6    1    1    2    0  503 -0.73961197720E+01 -0.29094443965E+02  0.12205521917E+02  0.17600898847E+03  0.17300000000E+03 0.  1.
</event>
<event>
 4    1  0.6123996E+000  0.1000000E+03  0.7546771E-02  0.1280296E+00
         21   -1    0    0  501  502  0.00000000000E+00  0.00000000000E+00  0.63197042101E+02  0.63197042101E+02  0.00000000000E+00 0.  1.
         21   -1    0    0  502  503 -0.00000000000E+00 -0.00000000000E+00 -0.13467986433E+04  0.13467986433E+04  0.00000000000E+00 0. -1.
          6    1    1    2  501    0  0.15409450743E+03 -0.11278787816E+03 -0.31118528851E+03  0.40401919071E+03  0.17300000000E+03 0. -1.
         -6    1    1    2    0  503 -0.15409450743E+03  0.11278787816E+03 -0.97241631264E+03  0.10059764946E+04  0.17300000000E+03 0.  1.
</event>
<event>
 4    1  0.6123996E+000  0.1000000E+03  0.7546771E-02  0.1280296E+00
         21   -1    0    0  501  502  0.00000000000E+00  0.00000000000E+00  0.42280600246E+03  0.42280600246E+03  0.00000000000E+00 0.  1.
         21   -1    0    0  502  503 -0.00000000000E+00 -0.00000000000E+00 -0.10360157857E+03  0.10360157857E+03  0.00000000000E+00 0. -1.
          6    1    1    2  501    0 -0.23434127681E+02  0.21559303290E+02  0.16987035349E+02  0.17672442182E+03  0.17300000000E+03 0. -1.
         -6    1    1    2    0  503  0.23434127681E+02 -0.21559303290E+02  0.30221738854E+03  0.34968315921E+03  0.17300000000E+03 0.  1.
</event>
<event>
 4    1  0.6123996E+000  0.1000000E+03  0.7546771E-02  0.1280296E+00
         21   -1    0    0  501  502  0.00000000000E+00  0.00000000000E+00  0.83914333757E+02  0.83914333757E+02  0.00000000000E+00 0. -1.
         21   -1    0    0  502  503 -0.00000000000E+00 -0.00000000000E+00 -0.88582825133E+03  0.88582825133E+03  0.00000000000E+00 0.  1.
          6    1    1    2  501    0 -0.71943212931E+02  0.58135329414E+02 -0.64233762782E+02  0.20642315445E+03  0.17300000000E+03 0. -1.
         -6    1    1    2    0  503  0.71943212931E+02 -0.58135329414E+02 -0.73768015479E+03  0.76331943064E+03  0.17300000000E+03 0.  1.
</event>
<event>
 4    1  0.6123996E+000  0.1000000E+03  0.7546771E-02  0.1280296E+00
         21   -1    0    0  501  502  0.00000000000E+00  0.00000000000E+00  0.43794933178E+03  0.43794933178E+03  0.00000000000E+00 0. -1.
         21   -1    0    0  502  503 -0.00000000000E+00 -0.00000000000E+00 -0.85421703802E+02  0.85421703802E+02  0.00000000000E+00 0.  1.
          6    1    1    2  501    0 -0.40377631856E+02  0.35029104302E+02  0.84262944364E+02  0.19971638665E+03  0.17300000000E+03 0. -1.
         -6    1    1    2    0  503  0.40377631856E+02 -0.35029104302E+02  0.26826468362E+03  0.32365464894E+03  0.17300000000E+03 0.  1.
</event>
<event>
 4    1  0.6123996E+000  0.1000000E+03  0.7546771E-02  0.1280296E+00
         21   -1    0    0  501  502  0.00000000000E+00  0.00000000000E+00  0.19500964402E+03  0.19500964402E+03  0.00000000000E+00 0. -1.
         21   -1    0    0  502  503 -0.00000000000E+00 -0.00000000000E+00 -0.23659260733E+03  0.23659260733E+03  0.00000000000E+00 0.  1.
          6    1    1    2  501    0 -0.11917221507E+03 -0.43182257655E+02 -0.88145263660E+01  0.21464719913E+03  0.17300000000E+03 0. -1.
         -6    1    1    2    0  503  0.11917221507E+03  0.43182257655E+02 -0.32768436947E+02  0.21695505221E+03  0.17300000000E+03 0.  1.
</event>
<event>
 4    1  0.6123996E+000  0.1000000E+03  0.7546771E-02  0.1280296E+00
         21   -1    0    0  501  502  0.00000000000E+00  0.00000000000E+00  0.34536011658E+02  0.34536011658E+02  0.00000000000E+00 0. -1.
         21   -1    0    0  502  503 -0.00000000000E+00 -0.00000000000E+00 -0.22323617478E+04  0.22323617478E+04  0.00000000000E+00 0. -1.
          6    1    1    2  501    0  0.18671434894E+02  0.68209502678E+02 -0.26067276914E+03  0.32074982667E+03  0.17300000000E+03 0. -1.
         -6    1    1    2    0  503 -0.18671434894E+02 -0.68209502678E+02 -0.19371529670E+04  0.19461479327E+04  0.17300000000E+03 0. -1.
</event>
<event>
 4    1  0.6123996E+000  0.1000000E+03  0.7546771E-02  0.1280296E+00
         21   -1    0    0  501  502  0.00000000000E+00  0.00000000000E+00  0.49869473779E+02  0.49869473779E+02  0.00000000000E+00 0. -1.
         21   -1    0    0  502  503 -0.00000000000E+00 -0.00000000000E+00 -0.89805141889E+03  0.89805141889E+03  0.00000000000E+00 0. -1.
          6    1    1    2  501    0  0.84742719909E+02  0.63194616989E+02 -0.28820195639E+03  0.35236948770E+03  0.17300000000E+03 0. -1.
         -6    1    1    2    0  503 -0.84742719909E+02 -0.63194616989E+02 -0.55997998872E+03  0.59555140497E+03  0.17300000000E+03 0. -1.
</event>
<event>
 4    1  0.6123996E+000  0.1000000E+03  0.7546771E-02  0.1280296E+00
         21   -1    0    0  503  502  0.00000000000E+00  0.00000000000E+00  0.90728957974E+02  0.90728957974E+02  0.00000000000E+00 0.  1.
         21   -1    0    0  501  503 -0.00000000000E+00 -0.00000000000E+00 -0.35551912928E+03  0.35551912928E+03  0.00000000000E+00 0. -1.
          6    1    1    2  501    0  0.32964599657E+02 -0.59220970160E+01 -0.17552329319E+03  0.24871502270E+03  0.17300000000E+03 0. -1.
         -6    1    1    2    0  502 -0.32964599657E+02  0.59220970160E+01 -0.89266878117E+02  0.19753306455E+03  0.17300000000E+03 0. -1.
</event>
<event>
 4    1  0.6123996E+000  0.1000000E+03  0.7546771E-02  0.1280296E+00
         21   -1    0    0  503  502  0.00000000000E+00  0.00000000000E+00  0.22813414225E+03  0.22813414225E+03  0.00000000000E+00 0.  1.
         21   -1    0    0  501  503 -0.00000000000E+00 -0.00000000000E+00 -0.48227460157E+03  0.48227460157E+03  0.00000000000E+00 0.  1.
          6    1    1    2  501    0 -0.13805790051E+03 -0.57172946586E+02 -0.38444768707E+03  0.44727816156E+03  0.17300000000E+03 0.  1.
         -6    1    1    2    0  502  0.13805790051E+03  0.57172946586E+02  0.13030722775E+03  0.26313058226E+03  0.17300000000E+03 0.  1.
</event>
<event>
 4    1  0.6123996E+000  0.1000000E+03  0.7546771E-02  0.1280296E+00
         21   -1    0    0  503  502  0.00000000000E+00  0.00000000000E+00  0.14115068685E+03  0.14115068685E+03  0.00000000000E+00 0.  1.
         21   -1    0    0  501  503 -0.00000000000E+00 -0.00000000000E+00 -0.46124704601E+03  0.46124704601E+03  0.00000000000E+00 0.  1.
          6    1    1    2  501    0  0.66251549817E+02  0.26323836187E+02 -0.36482740578E+03  0.41001249763E+03  0.17300000000E+03 0.  1.
         -6    1    1    2    0  502 -0.66251549817E+02 -0.26323836187E+02  0.44731046618E+02  0.19238523523E+03  0.17300000000E+03 0.  1.
</event>
<event>
 4    1  0.6123996E+000  0.1000000E+03  0.7546771E-02  0.1280296E+00
         21   -1    0    0  503  502  0.00000000000E+00  0.00000000000E+00  0.12604331575E+03  0.12604331575E+03  0.00000000000E+00 0.  1.
         21   -1    0    0  501  503 -0.00000000000E+00 -0.00000000000E+00 -0.93763105608E+03  0.93763105608E+03  0.00000000000E+00 0.  1.
          6    1    1    2  501    0 -0.13274858813E+03  0.36125823508E+02 -0.81312766691E+03  0.84263447916E+03  0.17300000000E+03 0.  1.
         -6    1    1    2    0  502  0.13274858813E+03 -0.36125823508E+02  0.15399265841E+01  0.22103989267E+03  0.17300000000E+03 0.  1.
</event>
<event>
 4    1  0.6123996E+000  0.1000000E+03  0.7546771E-02  0.1280296E+00
         21   -1    0    0  503  502  0.00000000000E+00  0.00000000000E+00  0.81000937784E+03  0.81000937784E+03  0.00000000000E+00 0. -1.
         21   -1    0    0  501  503 -0.00000000000E+00 -0.00000000000E+00 -0.63064442619E+02  0.63064442619E+02  0.00000000000E+00 0.  1.
          6    1    1    2  501    0 -0.76126030287E+02  0.12391034983E+03  0.37772282125E+03  0.44017323519E+03  0.17300000000E+03 0.  1.
         -6    1    1    2    0  502  0.76126030287E+02 -0.12391034983E+03  0.36922211397E+03  0.43290058527E+03  0.17300000000E+03 0. -1.
</event>
<event>
 4    1  0.6123996E+000  0.1000000E+03  0.7546771E-02  0.1280296E+00
         21   -1    0    0  503  502  0.00000000000E+00  0.00000000000E+00  0.50930421361E+03  0.50930421361E+03  0.00000000000E+00 0. -1.
         21   -1    0    0  501  503 -0.00000000000E+00 -0.00000000000E+00 -0.19114370062E+03  0.19114370062E+03  0.00000000000E+00 0.  1.
          6    1    1    2  501    0 -0.15601025712E+03  0.95974517132E+02 -0.47501101115E+02  0.25638966998E+03  0.17300000000E+03 0.  1.
         -6    1    1    2    0  502  0.15601025712E+03 -0.95974517132E+02  0.36566161410E+03  0.44405824426E+03  0.17300000000E+03 0. -1.
</event>
<event>
 4    1  0.6123996E+000  0.1000000E+03  0.7546771E-02  0.1280296E+00
         21   -1    0    0  503  502  0.00000000000E+00  0.00000000000E+00  0.31121308967E+03  0.31121308967E+03  0.00000000000E+00 0. -1.
         21   -1    0    0  501  503 -0.00000000000E+00 -0.00000000000E+00 -0.50856052185E+03  0.50856052185E+03  0.00000000000E+00 0. -1.
          6    1    1    2  501    0  0.27340541513E+03 -0.21002349047E+03 -0.19899607107E+03  0.43403781387E+03  0.17300000000E+03 0.  1.
         -6    1    1    2    0  502 -0.27340541513E+03  0.21002349047E+03  0.16486388920E+01  0.38573579764E+03  0.17300000000E+03 0.  1.
</event>
<event>
 4    1  0.6123996E+000  0.1000000E+03  0.7546771E-02  0.1280296E+00
         21   -1    0    0  503  502  0.00000000000E+00  0.00000000000E+00  0.15808598198E+04  0.15808598198E+04  0.00000000000E+00 0. -1.
         21   -1    0    0  501  503 -0.00000000000E+00 -0.00000000000E+00 -0.42335065406E+02  0.42335065406E+02  0.00000000000E+00 0. -1.
          6    1    1    2  501    0 -0.83806856447E+02  0.88672975237E+02  0.30277341999E+03  0.36944178104E+03  0.17300000000E+03 0.  1.
         -6    1    1    2    0  502  0.83806856447E+02 -0.88672975237E+02  0.12357513344E+04  0.12537531041E+04  0.17300000000E+03 0.  1.
</event>
<event>
 4    1  0.6123996E+000  0.1000000E+03  0.7546771E-02  0.1280296E+00
         21   -1    0    0  503  502  0.00000000000E+00  0.00000000000E+00  0.12670911153E+03  0.12670911153E+03  0.00000000000E+00 0. -1.
         21   -1    0    0  501  503 -0.00000000000E+00 -0.00000000000E+00 -0.65687688028E+03  0.65687688028E+03  0.00000000000E+00 0.  1.
          6    1    1    2  501    0  0.15140903307E+03 -0.17024353900E+03 -0.31581929218E+03  0.42612015110E+03  0.17300000000E+03 0. -1.
         -6    1    1    2    0  502 -0.15140903307E+03  0.17024353900E+03 -0.21434847657E+03  0.35746584070E+03  0.17300000000E+03 0.  1.
</event>
<event>
 4    1  0.6123996E+000  0.1000000E+03  0.7546771E-02  0.1280296E+00
         21   -1    0    0  503  502  0.00000000000E+00  0.00000000000E+00  0.67705353547E+02  0.67705353547E+02  0.00000000000E+00 0. -1.
         21   -1    0    0  501  503 -0.00000000000E+00 -0.00000000000E+00 -0.62221142288E+03  0.62221142288E+03  0.00000000000E+00 0.  1.
          6    1    1    2  501    0 -0.50125453767E+02  0.70032093003E+01 -0.44223804477E+03  0.47756161309E+03  0.17300000000E+03 0. -1.
         -6    1    1    2    0  502  0.50125453767E+02 -0.70032093003E+01 -0.11226802456E+03  0.21235516334E+03  0.17300000000E+03 0.  1.
</event>
<event>
 4    1  0.6123996E+000  0.1000000E+03  0.7546771E-02  0.1280296E+00
         21   -1    0    0  503  502  0.00000000000E+00  0.00000000000E+00  0.38518098464E+03  0.38518098464E+03  0.00000000000E+00 0. -1.
         21   -1    0    0  501  503 -0.00000000000E+00 -0.00000000000E+00 -0.25480287308E+03  0.25480287308E+03  0.00000000000E+00 0.  1.
          6    1    1    2  501    0 -0.17015677220E+03  0.13852309824E+03 -0.79529447356E+02  0.29050973971E+03  0.17300000000E+03 0. -1.
         -6    1    1    2    0  502  0.17015677220E+03 -0.13852309824E+03  0.20990755892E+03  0.34947411801E+03  0.17300000000E+03 0.  1.
</event>
<event>
 4    1  0.6123996E+000  0.1000000E+03  0.7546771E-02  0.1280296E+00
         21   -1    0    0  503  502  0.00000000000E+00  0.00000000000E+00  0.18334678359E+04  0.18334678359E+04  0.00000000000E+00 0. -1.
         21   -1    0    0  501  503 -0.00000000000E+00 -0.00000000000E+00 -0.39940410362E+02  0.39940410362E+02  0.00000000000E+00 0.  1.
          6    1    1    2  501    0 -0.22198579153E+02  0.15788354108E+03  0.43390444161E+03  0.49358084840E+03  0.17300000000E+03 0. -1.
         -6    1    1    2    0  502  0.22198579153E+02 -0.15788354108E+03  0.13596229840E+04  0.13798273979E+04  0.17300000000E+03 0.  1.
</event>
<event>
 4    1  0.6123996E+000  0.1000000E+03  0.7546771E-02  0.1280296E+00
         21   -1    0    0  503  502  0.00000000000E+00  0.00000000000E+00  0.70120115766E+03  0.70120115766E+03  0.00000000000E+00 0.  1.
         21   -1    0    0  501  503 -0.00000000000E+00 -0.00000000000E+00 -0.15262050866E+03  0.15262050866E+03  0.00000000000E+00 0.  1.
          6    1    1    2  501    0  0.16908607067E+03 -0.66488787374E+02  0.30994394953E+00  0.25087836536E+03  0.17300000000E+03 0.  1.
         -6    1    1    2    0  502 -0.16908607067E+03  0.66488787374E+02  0.54827070506E+03  0.60294330095E+03  0.17300000000E+03 0.  1.
</event>
<event>
 4    1  0.6123996E+000  0.1000000E+03  0.7546771E-02  0.1280296E+00
         21   -1    0    0  501  502  0.00000000000E+00  0.00000000000E+00  0.11872424572E+03  0.11872424572E+03  0.00000000000E+00 0. -1.
         21   -1    0    0  502  503 -0.00000000000E+00 -0.00000000000E+00 -0.38907454627E+03  0.38907454627E+03  0.00000000000E+00 0.  1.
          6    1    1    2  501    0  0.11388046980E+03  0.31374258002E+02 -0.78391104450E+02  0.22366776863E+03  0.17300000000E+03 0. -1.
         -6    1    1    2    0  503 -0.11388046980E+03 -0.31374258002E+02 -0.19195919610E+03  0.28413102336E+03  0.17300000000E+03 0.  1.
</event>
<event>
 4    1  0.6123996E+000  0.1000000E+03  0.7546771E-02  0.1280296E+00
         21   -1    0    0  501  502  0.00000000000E+00  0.00000000000E+00  0.39780385297E+02  0.39780385297E+02  0.00000000000E+00 0. -1.
         21   -1    0    0  502  503 -0.00000000000E+00 -0.00000000000E+00 -0.11911840224E+04  0.11911840224E+04  0.00000000000E+00 0.  1.
          6    1    1    2  501    0  0.12036753470E+03  0.57106891667E+01 -0.42250310935E+03  0.47218516790E+03  0.17300000000E+03 0. -1.
         -6    1    1    2    0  503 -0.12036753470E+03 -0.57106891667E+01 -0.72890052775E+03  0.75877923978E+03  0.17300000000E+03 0.  1.
</event>
<event>
 4    1  0.6123996E+000  0.1000000E+03  0.7546771E-02  0.1280296E+00
         21   -1    0    0  501  502  0.00000000000E+00  0.00000000000E+00  0.97423146365E+02  0.97423146365E+02  0.00000000000E+00 0. -1.
         21   -1    0    0  502  503 -0.00000000000E+00 -0.00000000000E+00 -0.37739466779E+03  0.37739466779E+03  0.00000000000E+00 0. -1.
          6    1    1    2  501    0  0.52544601248E+02 -0.18347756060E+02 -0.64262881798E+02  0.19275967745E+03  0.17300000000E+03 0. -1.
         -6    1    1    2    0  503 -0.52544601248E+02  0.18347756060E+02 -0.21570863962E+03  0.28205813670E+03  0.17300000000E+03 0. -1.
</event>
<event>
 4    1  0.6123996E+000  0.1000000E+03  0.7546771E-02  0.1280296E+00
         21   -1    0    0  501  502  0.00000000000E+00  0.00000000000E+00  0.38700442667E+03  0.38700442667E+03  0.00000000000E+00 0. -1.
         21   -1    0    0  502  503 -0.00000000000E+00 -0.00000000000E+00 -0.98564896357E+02  0.98564896357E+02  0.00000000000E+00 0. -1.
          6    1    1    2  501    0  0.57536157865E+02  0.34571806634E+02  0.21994042309E+03  0.28776450265E+03  0.17300000000E+03 0. -1.
         -6    1    1    2    0  503 -0.57536157865E+02 -0.34571806634E+02  0.68499107229E+02  0.19780482038E+03  0.17300000000E+03 0. -1.
</event>
<event>
 4    1  0.6123996E+000  0.1000000E+03  0.7546771E-02  0.1280296E+00
         21   -1    0    0  501  502  0.00000000000E+00  0.00000000000E+00  0.15053534731E+04  0.15053534731E+04  0.00000000000E+00 0. -1.
         21   -1    0    0  502  503 -0.00000000000E+00 -0.00000000000E+00 -0.45460591981E+02  0.45460591981E+02  0.00000000000E+00 0. -1.
          6    1    1    2  501    0 -0.89492418415E+01  0.53381591967E+02  0.12890199601E+04  0.13017031692E+04  0.17300000000E+03 0. -1.
         -6    1    1    2    0  503  0.89492418415E+01 -0.53381591967E+02  0.17087292105E+03  0.24911089586E+03  0.17300000000E+03 0. -1.
</event>
<event>
 4    1  0.6123996E+000  0.1000000E+03  0.7546771E-02  0.1280296E+00
         21   -1    0    0  503  502  0.00000000000E+00  0.00000000000E+00  0.13257398396E+03  0.13257398396E+03  0.00000000000E+00 0.  1.
         21   -1    0    0  501  503 -0.00000000000E+00 -0.00000000000E+00 -0.53272190818E+03  0.53272190818E+03  0.00000000000E+00 0.  1.
          6    1    1    2  501    0 -0.69216052086E+02  0.14226508973E+03 -0.35674270880E+03  0.42687770838E+03  0.17300000000E+03 0.  1.
         -6    1    1    2    0  502  0.69216052086E+02 -0.14226508973E+03 -0.43405215409E+02  0.23841818376E+03  0.17300000000E+03 0.  1.
</event>
<event>
 4    1  0.6123996E+000  0.1000000E+03  0.7546771E-02  0.1280296E+00
         21   -1    0    0  503  502  0.00000000000E+00  0.00000000000E+00  0.22595398864E+03  0.22595398864E+03  0.00000000000E+00 0.  1.
         21   -1    0    0  501  503 -0.00000000000E+00 -0.00000000000E+00 -0.21906542165E+03  0.21906542165E+03  0.00000000000E+00 0.  1.
          6    1    1    2  501    0 -0.88130153843E+02 -0.93372068530E+02  0.58988660602E+02  0.22336949048E+03  0.17300000000E+03 0.  1.
         -6    1    1    2    0  502  0.88130153843E+02  0.93372068530E+02 -0.52100093618E+02  0.22164991981E+03  0.17300000000E+03 0.  1.
</event>
<event>
 4    1  0.6123996E+000  0.1000000E+03  0.7546771E-02  0.1280296E+00
         21   -1    0    0  503  502  0.00000000000E+00  0.00000000000E+00  0.75788398118E+02  0.75788398118E+02  0.00000000000E+00 0.  1.
         21   -1    0    0  501  503 -0.00000000000E+00 -0.00000000000E+00 -0.79000958188E+03  0.79000958188E+03  0.00000000000E+00 0.  1.
          6    1    1    2  501    0  0.53355324657E+01 -0.94199358242E+01 -0.66265646329E+03  0.68495240086E+03  0.17300000000E+03 0.  1.
         -6    1    1    2    0  502 -0.53355324657E+01  0.94199358242E+01 -0.51564720470E+02  0.18084557914E+03  0.17300000000E+03 0.  1.
</event>
<event>
 4    1  0.6123996E+000  0.1000000E+03  0.7546771E-02  0.1280296E+00
         21   -1    0    0  501  502  0.00000000000E+00  0.00000000000E+00  0.82739721168E+03  0.82739721168E+03  0.00000000000E+00 0. -1.
         21   -1    0    0  502  503 -0.00000000000E+00 -0.00000000000E+00 -0.70642197808E+02  0.70642197808E+02  0.00000000000E+00 0. -1.
          6    1    1    2  501    0 -0.13628617127E+03  0.96972121793E+02  0.42164223901E+03  0.48547779620E+03  0.17300000000E+03 0. -1.
         -6    1    1    2    0  503  0.13628617127E+03 -0.96972121793E+02  0.33511277487E+03  0.41256161330E+03  0.17300000000E+03 0. -1.
</event>
<event>
 4    1  0.6123996E+000  0.1000000E+03  0.7546771E-02  0.1280296E+00
         21   -1    0    0  501  502  0.00000000000E+00  0.00000000000E+00  0.33440766704E+02  0.33440766704E+02  0.00000000000E+00 0. -1.
         21   -1    0    0  502  503 -0.00000000000E+00 -0.00000000000E+00 -0.11965016384E+04  0.11965016384E+04  0.00000000000E+00 0. -1.
          6    1    1    2  501    0  0.63446092394E+02  0.64244392202E+02 -0.71660056832E+03  0.74269652152E+03  0.17300000000E+03 0. -1.
         -6    1    1    2    0  503 -0.63446092394E+02 -0.64244392202E+02 -0.44646030334E+03  0.48724588354E+03  0.17300000000E+03 0. -1.
</event>
<event>
 4    1  0.6123996E+000  0.1000000E+03  0.7546771E-02  0.1280296E+00
         21   -1    0    0  501  502  0.00000000000E+00  0.00000000000E+00  0.23288072101E+04  0.23288072101E+04  0.00000000000E+00 0.  1.
         21   -1    0    0  502  503 -0.00000000000E+00 -0.00000000000E+00 -0.33930680931E+02  0.33930680931E+02  0.00000000000E+00 0. -1.
          6    1    1    2  501    0 -0.12260060824E+03  0.11477090560E+03  0.17548000660E+04  0.17712864087E+04  0.17300000000E+03 0. -1.
         -6    1    1    2    0  503  0.12260060824E+03 -0.11477090560E+03  0.54007646312E+03  0.59145148231E+03  0.17300000000E+03 0.  1.
</event>
<event>
 4    1  0.6123996E+000  0.1000000E+03  0.7546771E-02  0.1280296E+00
         21   -1    0    0  503  502  0.00000000000E+00  0.00000000000E+00  0.43928626478E+03  0.43928626478E+03  0.00000000000E+00 0. -1.
         21   -1    0    0  501  503 -0.00000000000E+00 -0.00000000000E+00 -0.10215807097E+03  0.10215807097E+03  0.00000000000E+00 0. -1.
          6    1    1    2  501    0 -0.76703664157E+02 -0.88744590212E+02  0.21262246706E+03  0.29815493939E+03  0.17300000000E+03 0. -1.
         -6    1    1    2    0  502  0.76703664157E+02  0.88744590212E+02  0.12450572675E+03  0.24328939636E+03  0.17300000000E+03 0. -1.
</event>
<event>
 4    1  0.6123996E+000  0.1000000E+03  0.7546771E-02  0.1280296E+00
         21   -1    0    0  503  502  0.00000000000E+00  0.00000000000E+00  0.68525707074E+02  0.68525707074E+02  0.00000000000E+00 0. -1.
         21   -1    0    0  501  503 -0.00000000000E+00 -0.00000000000E+00 -0.90378944654E+03  0.90378944654E+03  0.00000000000E+00 0. -1.
          6    1    1    2  501    0 -0.44020744096E+02 -0.17019942295E+03 -0.48236785954E+03  0.54176878961E+03  0.17300000000E+03 0. -1.
         -6    1    1    2    0  502  0.44020744096E+02  0.17019942295E+03 -0.35289587992E+03  0.43054636400E+03  0.17300000000E+03 0. -1.
</event>
<event>
 4    1  0.6123996E+000  0.1000000E+03  0.7546771E-02  0.1280296E+00
         21   -1    0    0  503  502  0.00000000000E+00  0.00000000000E+00  0.66833387868E+03  0.66833387868E+03  0.00000000000E+00 0.  1.
         21   -1    0    0  501  503 -0.00000000000E+00 -0.00000000000E+00 -0.46200752620E+02  0.46200752620E+02  0.00000000000E+00 0. -1.
          6    1    1    2  501    0  0.21444203686E+01  0.19766309317E+02  0.26324519353E+03  0.31563006422E+03  0.17300000000E+03 0. -1.
         -6    1    1    2    0  502 -0.21444203686E+01 -0.19766309317E+02  0.35888793253E+03  0.39890456708E+03  0.17300000000E+03 0.  1.
</event>
<event>
 4    1  0.6123996E+000  0.1000000E+03  0.7546771E-02  0.1280296E+00
         21   -1    0    0  501  502  0.00000000000E+00  0.00000000000E+00  0.87563951624E+03  0.87563951624E+03  0.00000000000E+00 0.  1.
         21   -1    0    0  502  503 -0.00000000000E+00 -0.00000000000E+00 -0.60819280859E+02  0.60819280859E+02  0.00000000000E+00 0. -1.
          6    1    1    2  501    0 -0.11771485824E+03 -0.28593913810E+01  0.60477154738E+03  0.63995514569E+03  0.17300000000E+03 0.  1.
         -6    1    1    2    0  503  0.11771485824E+03  0.28593913810E+01  0.21004868800E+03  0.29650365141E+03  0.17300000000E+03 0.  1.
</event>
<event>
 4    1  0.6123996E+000  0.1000000E+03  0.7546771E-02  0.1280296E+00
         21   -1    0    0  503  502  0.00000000000E+00  0.00000000000E+00  0.15734157786E+03  0.15734157786E+03  0.00000000000E+00 0. -1.
         21   -1    0    0  501  503 -0.00000000000E+00 -0.00000000000E+00 -0.53211503248E+03  0.53211503248E+03  0.00000000000E+00 0. -1.
          6    1    1    2  501    0  0.21748734826E+03 -0.85644175664E+00 -0.28339009256E+03  0.39691362374E+03  0.17300000000E+03 0. -1.
         -6    1    1    2    0  502 -0.21748734826E+03  0.85644175664E+00 -0.91383362060E+02  0.29254298660E+03  0.17300000000E+03 0. -1.
</event>
<event>
 4    1  0.6123996E+000  0.1000000E+03  0.7546771E-02  0.1280296E+00
         21   -1    0    0  503  502  0.00000000000E+00  0.00000000000E+00  0.13848847330E+04  0.13848847330E+04  0.00000000000E+00 0. -1.
         21   -1    0    0  501  503 -0.00000000000E+00 -0.00000000000E+00 -0.48988390870E+02  0.48988390870E+02  0.00000000000E+00 0. -1.
          6    1    1    2  501    0 -0.91613159292E+02  0.16901827294E+01  0.19504298148E+03  0.27634506020E+03  0.17300000000E+03 0. -1.
         -6    1    1    2    0  502  0.91613159292E+02 -0.16901827294E+01  0.11408533607E+04  0.11575280637E+04  0.17300000000E+03 0. -1.
</event>
<event>
 4    1  0.6123996E+000  0.1000000E+03  0.7546771E-02  0.1280296E+00
         21   -1    0    0  503  502  0.00000000000E+00  0.00000000000E+00  0.84035199617E+03  0.84035199617E+03  0.00000000000E+00 0. -1.
         21   -1    0    0  501  503 -0.00000000000E+00 -0.00000000000E+00 -0.13349349802E+03  0.13349349802E+03  0.00000000000E+00 0. -1.
          6    1    1    2  501    0 -0.10669117585E+03  0.10792231364E+01 -0.33583763280E+02  0.20601223479E+03  0.17300000000E+03 0. -1.
         -6    1    1    2    0  502  0.10669117585E+03 -0.10792231364E+01  0.74044226143E+03  0.76783325940E+03  0.17300000000E+03 0. -1.
</event>
<event>
 4    1  0.6123996E+000  0.1000000E+03  0.7546771E-02  0.1280296E+00
         21   -1    0    0  503  502  0.00000000000E+00  0.00000000000E+00  0.83089795064E+02  0.83089795064E+02  0.00000000000E+00 0.  1.
         21   -1    0    0  501  503 -0.00000000000E+00 -0.00000000000E+00 -0.63386135858E+03  0.63386135858E+03  0.00000000000E+00 0.  1.
          6    1    1    2  501    0  0.13060564221E+03 -0.74186061165E+02 -0.29616749159E+03  0.37444036712E+03  0.17300000000E+03 0.  1.
         -6    1    1    2    0  502 -0.13060564221E+03  0.74186061165E+02 -0.25460407192E+03  0.34251078653E+03  0.17300000000E+03 0.  1.
</event>
<event>
 4    1  0.6123996E+000  0.1000000E+03  0.7546771E-02  0.1280296E+00
         21   -1    0    0  503  502  0.00000000000E+00  0.00000000000E+00  0.43510019808E+03  0.43510019808E+03  0.00000000000E+00 0.  1.
         21   -1    0    0  501  503 -0.00000000000E+00 -0.00000000000E+00 -0.13033155551E+03  0.13033155551E+03  0.00000000000E+00 0.  1.
          6    1    1    2  501    0 -0.11826154097E+03 -0.66303568716E+02  0.26117095207E+03  0.34135204921E+03  0.17300000000E+03 0.  1.
         -6    1    1    2    0  502  0.11826154097E+03  0.66303568716E+02  0.43597690501E+02  0.22407970438E+03  0.17300000000E+03 0.  1.
</event>
<event>
 4    1  0.6123996E+000  0.1000000E+03  0.7546771E-02  0.1280296E+00
         21   -1    0    0  501  502  0.00000000000E+00  0.00000000000E+00  0.39882262562E+02  0.39882262562E+02  0.00000000000E+00 0. -1.
         21   -1    0    0  502  503 -0.00000000000E+00 -0.00000000000E+00 -0.14192233524E+04  0.14192233524E+04  0.00000000000E+00 0.  1.
          6    1    1    2  501    0  0.73508457585E+02 -0.86646495357E+02 -0.32993945033E+03  0.38948703365E+03  0.17300000000E+03 0. -1.
         -6    1    1    2    0  503 -0.73508457585E+02  0.86646495357E+02 -0.10494016395E+04  0.10696185813E+04  0.17300000000E+03 0. -1.
</event>
<event>
 4    1  0.6123996E+000  0.1000000E+03  0.7546771E-02  0.1280296E+00
         21   -1    0    0  501  502  0.00000000000E+00  0.00000000000E+00  0.24106516993E+03  0.24106516993E+03  0.00000000000E+00 0. -1.
         21   -1    0    0  502  503 -0.00000000000E+00 -0.00000000000E+00 -0.14990775128E+03  0.14990775128E+03  0.00000000000E+00 0.  1.
          6    1    1    2  501    0 -0.67091445405E+02 -0.40811036535E+02  0.52222049625E+02  0.19703539077E+03  0.17300000000E+03 0. -1.
         -6    1    1    2    0  503  0.67091445405E+02  0.40811036535E+02  0.38935369028E+02  0.19393753043E+03  0.17300000000E+03 0. -1.
</event>
<event>
 4    1  0.6123996E+000  0.1000000E+03  0.7546771E-02  0.1280296E+00
         21   -1    0    0  503  502  0.00000000000E+00  0.00000000000E+00  0.93125627712E+03  0.93125627712E+03  0.00000000000E+00 0. -1.
         21   -1    0    0  501  503 -0.00000000000E+00 -0.00000000000E+00 -0.38174773256E+02  0.38174773256E+02  0.00000000000E+00 0.  1.
          6    1    1    2  501    0 -0.57184523001E+02  0.46438491351E+02  0.41065158265E+03  0.45165288163E+03  0.17300000000E+03 0.  1.
         -6    1    1    2    0  502  0.57184523001E+02 -0.46438491351E+02  0.48242992121E+03  0.51777816875E+03  0.17300000000E+03 0. -1.
</event>
<event>
 4    1  0.6123996E+000  0.1000000E+03  0.7546771E-02  0.1280296E+00
         21   -1    0    0  501  502  0.00000000000E+00  0.00000000000E+00  0.98511245221E+02  0.98511245221E+02  0.00000000000E+00 0.  1.
         21   -1    0    0  502  503 -0.00000000000E+00 -0.00000000000E+00 -0.66781665135E+03  0.66781665135E+03  0.00000000000E+00 0.  1.
          6    1    1    2  501    0 -0.25128533243E+02 -0.85278546671E+02 -0.34883107913E+02  0.19760998184E+03  0.17300000000E+03 0.  1.
         -6    1    1    2    0  503  0.25128533243E+02  0.85278546671E+02 -0.53442229822E+03  0.56871791473E+03  0.17300000000E+03 0.  1.
</event>
<event>
 4    1  0.6123996E+000  0.1000000E+03  0.7546771E-02  0.1280296E+00
         21   -1    0    0  501  502  0.00000000000E+00  0.00000000000E+00  0.86757840787E+03  0.86757840787E+03  0.00000000000E+00 0.  1.
         21   -1    0    0  502  503 -0.00000000000E+00 -0.00000000000E+00 -0.35379116658E+02  0.35379116658E+02  0.00000000000E+00 0.  1.
          6    1    1    2  501    0 -0.16855098329E+02 -0.14979046664E+02  0.45738682640E+03  0.48953056609E+03  0.17300000000E+03 0.  1.
         -6    1    1    2    0  503  0.16855098329E+02  0.14979046664E+02  0.37481246481E+03  0.41342695843E+03  0.17300000000E+03 0.  1.
</event>
<event>
 4    1  0.6123996E+000  0.1000000E+03  0.7546771E-02  0.1280296E+00
         21   -1    0    0  501  502  0.00000000000E+00  0.00000000000E+00  0.71525964549E+02  0.71525964549E+02  0.00000000000E+00 0.  1.
         21   -1    0    0  502  503 -0.00000000000E+00 -0.00000000000E+00 -0.69282538220E+03  0.69282538220E+03  0.00000000000E+00 0.  1.
          6    1    1    2  501    0 -0.13300657209E+03 -0.38783329171E+02 -0.34629587030E+03  0.41115048903E+03  0.17300000000E+03 0.  1.
         -6    1    1    2    0  503  0.13300657209E+03  0.38783329171E+02 -0.27500354734E+03  0.35320085772E+03  0.17300000000E+03 0.  1.
</event>
<event>
 4    1  0.6123996E+000  0.1000000E+03  0.7546771E-02  0.1280296E+00
         21   -1    0    0  501  502  0.00000000000E+00  0.00000000000E+00  0.86467613291E+03  0.86467613291E+03  0.00000000000E+00 0.  1.
         21   -1    0    0  502  503 -0.00000000000E+00 -0.00000000000E+00 -0.51753911000E+02  0.51753911000E+02  0.00000000000E+00 0.  1.
          6    1    1    2  501    0 -0.58186106021E+02  0.57013026295E+02  0.60243009123E+03  0.63204993705E+03  0.17300000000E+03 0.  1.
         -6    1    1    2    0  503  0.58186106021E+02 -0.57013026295E+02  0.21049213068E+03  0.28438010686E+03  0.17300000000E+03 0.  1.
</event>
<event>
 4    1  0.6123996E+000  0.1000000E+03  0.7546771E-02  0.1280296E+00
         21   -1    0    0  503  502  0.00000000000E+00  0.00000000000E+00  0.13093198249E+03  0.13093198249E+03  0.00000000000E+00 0. -1.
         21   -1    0    0  501  503 -0.00000000000E+00 -0.00000000000E+00 -0.79298733806E+03  0.79298733806E+03  0.00000000000E+00 0. -1.
          6    1    1    2  501    0  0.13934313966E+03 -0.20599934132E+03 -0.48837974759E+03  0.57471385667E+03  0.17300000000E+03 0. -1.
         -6    1    1    2    0  502 -0.13934313966E+03  0.20599934132E+03 -0.17367560798E+03  0.34920546388E+03  0.17300000000E+03 0. -1.
</event>
<event>
 4    1  0.6123996E+000  0.1000000E+03  0.7546771E-02  0.1280296E+00
         21   -1    0    0  501  502  0.00000000000E+00  0.00000000000E+00  0.77438363138E+03  0.77438363138E+03  0.00000000000E+00 0.  1.
         21   -1    0    0  502  503 -0.00000000000E+00 -0.00000000000E+00 -0.13775461313E+03  0.13775461313E+03  0.00000000000E+00 0. -1.
          6    1    1    2  501    0 -0.83943441137E+02 -0.22975576231E+03  0.13672396879E+03  0.32932758049E+03  0.17300000000E+03 0. -1.
         -6    1    1    2    0  503  0.83943441137E+02  0.22975576231E+03  0.49990504946E+03  0.58281066402E+03  0.17300000000E+03 0.  1.
</event>
<event>
 4    1  0.6123996E+000  0.1000000E+03  0.7546771E-02  0.1280296E+00
         21   -1    0    0  501  502  0.00000000000E+00  0.00000000000E+00  0.47051511796E+03  0.47051511796E+03  0.00000000000E+00 0.  1.
         21   -1    0    0  502  503 -0.00000000000E+00 -0.00000000000E+00 -0.84509202596E+02  0.84509202596E+02  0.00000000000E+00 0. -1.
          6    1    1    2  501    0 -0.19901335132E+02  0.72077913222E+02  0.28365084104E+03  0.34055555837E+03  0.17300000000E+03 0. -1.
         -6    1    1    2    0  503  0.19901335132E+02 -0.72077913222E+02  0.10235507433E+03  0.21446876219E+03  0.17300000000E+03 0.  1.
</event>
<event>
 4    1  0.6123996E+000  0.1000000E+03  0.7546771E-02  0.1280296E+00
         21   -1    0    0  501  502  0.00000000000E+00  0.00000000000E+00  0.65487269796E+02  0.65487269796E+02  0.00000000000E+00 0.  1.
         21   -1    0    0  502  503 -0.00000000000E+00 -0.00000000000E+00 -0.61225334293E+03  0.61225334293E+03  0.00000000000E+00 0. -1.
          6    1    1    2  501    0  0.29221827481E+02 -0.86013119657E+02 -0.19935124879E+03  0.27914528896E+03  0.17300000000E+03 0. -1.
         -6    1    1    2    0  503 -0.29221827481E+02  0.86013119657E+02 -0.34741482435E+03  0.39859532377E+03  0.17300000000E+03 0.  1.
</event>
<event>
 4    1  0.6123996E+000  0.1000000E+03  0.7546771E-02  0.1280296E+00
         21   -1    0    0  503  502  0.00000000000E+00  0.00000000000E+00  0.61118928630E+03  0.61118928630E+03  0.00000000000E+00 0. -1.
         21   -1    0    0  501  503 -0.00000000000E+00 -0.00000000000E+00 -0.69946993583E+02  0.69946993583E+02  0.00000000000E+00 0. -1.
          6    1    1    2  501    0  0.14450012519E+02 -0.78629599400E+02  0.13853664965E+03  0.23561158728E+03  0.17300000000E+03 0. -1.
         -6    1    1    2    0  502 -0.14450012519E+02  0.78629599400E+02  0.40270564307E+03  0.44552469261E+03  0.17300000000E+03 0. -1.
</event>
<event>
 4    1  0.6123996E+000  0.1000000E+03  0.7546771E-02  0.1280296E+00
         21   -1    0    0  503  502  0.00000000000E+00  0.00000000000E+00  0.37255185232E+03  0.37255185232E+03  0.00000000000E+00 0. -1.
         21   -1    0    0  501  503 -0.00000000000E+00 -0.00000000000E+00 -0.93378613162E+02  0.93378613162E+02  0.00000000000E+00 0. -1.
          6    1    1    2  501    0  0.64745401470E+02 -0.21322297296E+02  0.15780572800E+03  0.24388164171E+03  0.17300000000E+03 0. -1.
         -6    1    1    2    0  502 -0.64745401470E+02  0.21322297296E+02  0.12136751115E+03  0.22204882377E+03  0.17300000000E+03 0. -1.
</event>
<event>
 4    1  0.6123996E+000  0.1000000E+03  0.7546771E-02  0.1280296E+00
         21   -1    0    0  501  502  0.00000000000E+00  0.00000000000E+00  0.20365321448E+03  0.20365321448E+03  0.00000000000E+00 0.  1.
         21   -1    0    0  502  503 -0.00000000000E+00 -0.00000000000E+00 -0.12539511459E+04  0.12539511459E+04  0.00000000000E+00 0. -1.
          6    1    1    2  501    0 -0.60233697408E+02 -0.39066319395E+03 -0.14577692517E+03  0.45544016218E+03  0.17300000000E+03 0. -1.
         -6    1    1    2    0  503  0.60233697408E+02  0.39066319395E+03 -0.90452100628E+03  0.10021641982E+04  0.17300000000E+03 0. -1.
</event>
<event>
 4    1  0.6123996E+000  0.1000000E+03  0.7546771E-02  0.1280296E+00
         21   -1    0    0  501  502  0.00000000000E+00  0.00000000000E+00  0.25180169037E+03  0.25180169037E+03  0.00000000000E+00 0.  1.
         21   -1    0    0  502  503 -0.00000000000E+00 -0.00000000000E+00 -0.31528175854E+03  0.31528175854E+03  0.00000000000E+00 0. -1.
          6    1    1    2  501    0  0.10958324482E+03  0.35297748327E+01  0.16297417478E+03  0.26174515946E+03  0.17300000000E+03 0. -1.
         -6    1    1    2    0  503 -0.10958324482E+03 -0.35297748327E+01 -0.22645424295E+03  0.30533828945E+03  0.17300000000E+03 0. -1.
</event>
<event>
 4    1  0.6123996E+000  0.1000000E+03  0.7546771E-02  0.1280296E+00
         21   -1    0    0  501  502  0.00000000000E+00  0.00000000000E+00  0.15162439519E+04  0.15162439519E+04  0.00000000000E+00 0.  1.
         21   -1    0    0  502  503 -0.00000000000E+00 -0.00000000000E+00 -0.20153390597E+03  0.20153390597E+03  0.00000000000E+00 0. -1.
          6    1    1    2  501    0  0.14280945717E+03 -0.83075331672E+02  0.14316564512E+04  0.14515044767E+04  0.17300000000E+03 0. -1.
         -6    1    1    2    0  503 -0.14280945717E+03  0.83075331672E+02 -0.11694640527E+03  0.26627338112E+03  0.17300000000E+03 0. -1.
</event>
<event>
 4    1  0.6123996E+000  0.1000000E+03  0.7546771E-02  0.1280296E+00
         21   -1    0    0  501  502  0.00000000000E+00  0.00000000000E+00  0.12410253255E+03  0.12410253255E+03  0.00000000000E+00 0.  1.
         21   -1    0    0  502  503 -0.00000000000E+00 -0.00000000000E+00 -0.11510406836E+04  0.11510406836E+04  0.00000000000E+00 0. -1.
          6    1    1    2  501    0 -0.25762853745E+02  0.12493292369E+03  0.10958458444E+02  0.21522325122E+03  0.17300000000E+03 0. -1.
         -6    1    1    2    0  503  0.25762853745E+02 -0.12493292369E+03 -0.10378966095E+04  0.10599199649E+04  0.17300000000E+03 0. -1.
</event>
<event>
 4    1  0.6123996E+000  0.1000000E+03  0.7546771E-02  0.1280296E+00
         21   -1    0    0  501  502  0.00000000000E+00  0.00000000000E+00  0.29492055430E+02  0.29492055430E+02  0.00000000000E+00 0.  1.
         21   -1    0    0  502  503 -0.00000000000E+00 -0.00000000000E+00 -0.11986541911E+04  0.11986541911E+04  0.00000000000E+00 0. -1.
          6    1    1    2  501    0 -0.26860979945E+02  0.63687339468E+02 -0.50168643960E+03  0.53515967069E+03  0.17300000000E+03 0. -1.
         -6    1    1    2    0  503  0.26860979945E+02 -0.63687339468E+02 -0.66747569607E+03  0.69298657584E+03  0.17300000000E+03 0.  1.
</event>
<event>
 4    1  0.6123996E+000  0.1000000E+03  0.7546771E-02  0.1280296E+00
         21   -1    0    0  501  502  0.00000000000E+00  0.00000000000E+00  0.96435044218E+02  0.96435044218E+02  0.00000000000E+00 0.  1.
         21   -1    0    0  502  503 -0.00000000000E+00 -0.00000000000E+00 -0.40700851818E+03  0.40700851818E+03  0.00000000000E+00 0. -1.
          6    1    1    2  501    0  0.29560927324E+02 -0.53536703731E+02 -0.60367974608E+02  0.19316655877E+03  0.17300000000E+03 0. -1.
         -6    1    1    2    0  503 -0.29560927324E+02  0.53536703731E+02 -0.25020549935E+03  0.31027700362E+03  0.17300000000E+03 0.  1.
</event>
<event>
 4    1  0.6123996E+000  0.1000000E+03  0.7546771E-02  0.1280296E+00
         21   -1    0    0  503  502  0.00000000000E+00  0.00000000000E+00  0.53294994904E+03  0.53294994904E+03  0.00000000000E+00 0. -1.
         21   -1    0    0  501  503 -0.00000000000E+00 -0.00000000000E+00 -0.53938655837E+03  0.53938655837E+03  0.00000000000E+00 0. -1.
          6    1    1    2  501    0  0.12273448812E+03 -0.55379317983E+02 -0.49251886797E+03  0.53910523902E+03  0.17300000000E+03 0. -1.
         -6    1    1    2    0  502 -0.12273448812E+03  0.55379317983E+02  0.48608225863E+03  0.53323126839E+03  0.17300000000E+03 0. -1.
</event>
<event>
 4    1  0.6123996E+000  0.1000000E+03  0.7546771E-02  0.1280296E+00
         21   -1    0    0  503  502  0.00000000000E+00  0.00000000000E+00  0.77719733373E+03  0.77719733373E+03  0.00000000000E+00 0. -1.
         21   -1    0    0  501  503 -0.00000000000E+00 -0.00000000000E+00 -0.50879753532E+03  0.50879753532E+03  0.00000000000E+00 0. -1.
          6    1    1    2  501    0 -0.42318189687E+03 -0.11599215175E+03 -0.29106199647E+03  0.55424108734E+03  0.17300000000E+03 0. -1.
         -6    1    1    2    0  502  0.42318189687E+03  0.11599215175E+03  0.55946179489E+03  0.73175378171E+03  0.17300000000E+03 0. -1.
</event>
<event>
 4    1  0.6123996E+000  0.1000000E+03  0.7546771E-02  0.1280296E+00
         21   -1    0    0  503  502  0.00000000000E+00  0.00000000000E+00  0.15134676786E+03  0.15134676786E+03  0.00000000000E+00 0. -1.
         21   -1    0    0  501  503 -0.00000000000E+00 -0.00000000000E+00 -0.27203343868E+03  0.27203343868E+03  0.00000000000E+00 0. -1.
          6    1    1    2  501    0 -0.41876758972E+02  0.32879507475E+02 -0.15600552564E+03  0.23895909479E+03  0.17300000000E+03 0. -1.
         -6    1    1    2    0  502  0.41876758972E+02 -0.32879507475E+02  0.35318854813E+02  0.18442111175E+03  0.17300000000E+03 0. -1.
</event>
<event>
 4    1  0.6123996E+000  0.1000000E+03  0.7546771E-02  0.1280296E+00
         21   -1    0    0  501  502  0.00000000000E+00  0.00000000000E+00  0.14308600231E+03  0.14308600231E+03  0.00000000000E+00 0.  1.
         21   -1    0    0  502  503 -0.00000000000E+00 -0.00000000000E+00 -0.37348628278E+03  0.37348628278E+03  0.00000000000E+00 0. -1.
          6    1    1    2  501    0 -0.36628559352E+02 -0.36044277045E+02  0.46211532111E+02  0.18629371156E+03  0.17300000000E+03 0.  1.
         -6    1    1    2    0  503  0.36628559352E+02  0.36044277045E+02 -0.27661181259E+03  0.33027857353E+03  0.17300000000E+03 0. -1.
</event>
<event>
 4    1  0.6123996E+000  0.1000000E+03  0.7546771E-02  0.1280296E+00
         21   -1    0    0  501  502  0.00000000000E+00  0.00000000000E+00  0.20377978589E+03  0.20377978589E+03  0.00000000000E+00 0.  1.
         21   -1    0    0  502  503 -0.00000000000E+00 -0.00000000000E+00 -0.13433271707E+04  0.13433271707E+04  0.00000000000E+00 0. -1.
          6    1    1    2  501    0  0.60550437817E+02 -0.12993454072E+03  0.12882667622E+03  0.25898774662E+03  0.17300000000E+03 0.  1.
         -6    1    1    2    0  503 -0.60550437817E+02  0.12993454072E+03 -0.12683740610E+04  0.12881192100E+04  0.17300000000E+03 0. -1.
</event>
<event>
 4    1  0.6123996E+000  0.1000000E+03  0.7546771E-02  0.1280296E+00
         21   -1    0    0  501  502  0.00000000000E+00  0.00000000000E+00  0.13206556296E+03  0.13206556296E+03  0.00000000000E+00 0.  1.
         21   -1    0    0  502  503 -0.00000000000E+00 -0.00000000000E+00 -0.31516911314E+03  0.31516911314E+03  0.00000000000E+00 0. -1.
          6    1    1    2  501    0  0.97244068039E+02  0.30331241545E+02 -0.13133770891E+03  0.23990620410E+03  0.17300000000E+03 0.  1.
         -6    1    1    2    0  503 -0.97244068039E+02 -0.30331241545E+02 -0.51765841272E+02  0.20732847201E+03  0.17300000000E+03 0. -1.
</event>
<event>
 4    1  0.6123996E+000  0.1000000E+03  0.7546771E-02  0.1280296E+00
         21   -1    0    0  501  502  0.00000000000E+00  0.00000000000E+00  0.18608078074E+03  0.18608078074E+03  0.00000000000E+00 0.  1.
         21   -1    0    0  502  503 -0.00000000000E+00 -0.00000000000E+00 -0.23591931033E+03  0.23591931033E+03  0.00000000000E+00 0. -1.
          6    1    1    2  501    0  0.11034391842E+03 -0.40515347872E+02 -0.12431235295E+02  0.20952519981E+03  0.17300000000E+03 0.  1.
         -6    1    1    2    0  503 -0.11034391842E+03  0.40515347872E+02 -0.37407294290E+02  0.21247489125E+03  0.17300000000E+03 0. -1.
</event>
<event>
 4    1  0.6123996E+000  0.1000000E+03  0.7546771E-02  0.1280296E+00
         21   -1    0    0  501  502  0.00000000000E+00  0.00000000000E+00  0.73719609603E+02  0.73719609603E+02  0.00000000000E+00 0. -1.
         21   -1    0    0  502  503 -0.00000000000E+00 -0.00000000000E+00 -0.52141314868E+03  0.52141314868E+03  0.00000000000E+00 0. -1.
          6    1    1    2  501    0  0.23466537882E+02 -0.41179936296E+02 -0.10373394467E+03  0.20721051332E+03  0.17300000000E+03 0. -1.
         -6    1    1    2    0  503 -0.23466537882E+02  0.41179936296E+02 -0.34395959440E+03  0.38792224496E+03  0.17300000000E+03 0. -1.
</event>
<event>
 4    1  0.6123996E+000  0.1000000E+03  0.7546771E-02  0.1280296E+00
         21   -1    0    0  501  502  0.00000000000E+00  0.00000000000E+00  0.21959826475E+03  0.21959826475E+03  0.00000000000E+00 0. -1.
         21   -1    0    0  502  503 -0.00000000000E+00 -0.00000000000E+00 -0.21105823136E+03  0.21105823136E+03  0.00000000000E+00 0. -1.
          6    1    1    2  501    0 -0.91916296753E+02 -0.76409233887E+02  0.50453168048E+02  0.21624407228E+03  0.17300000000E+03 0. -1.
         -6    1    1    2    0  503  0.91916296753E+02  0.76409233887E+02 -0.41913134654E+02  0.21441242382E+03  0.17300000000E+03 0. -1.
</event>
<event>
 4    1  0.6123996E+000  0.1000000E+03  0.7546771E-02  0.1280296E+00
         21   -1    0    0  501  502  0.00000000000E+00  0.00000000000E+00  0.52284209023E+03  0.52284209023E+03  0.00000000000E+00 0. -1.
         21   -1    0    0  502  503 -0.00000000000E+00 -0.00000000000E+00 -0.67313364875E+02  0.67313364875E+02  0.00000000000E+00 0. -1.
          6    1    1    2  501    0  0.43507325684E+02 -0.37430203210E+02  0.29760089968E+03  0.34898309843E+03  0.17300000000E+03 0. -1.
         -6    1    1    2    0  503 -0.43507325684E+02  0.37430203210E+02  0.15792782567E+03  0.24117235667E+03  0.17300000000E+03 0. -1.
</event>
<event>
 4    1  0.6123996E+000  0.1000000E+03  0.7546771E-02  0.1280296E+00
         21   -1    0    0  503  502  0.00000000000E+00  0.00000000000E+00  0.38390323023E+03  0.38390323023E+03  0.00000000000E+00 0. -1.
         21   -1    0    0  501  503 -0.00000000000E+00 -0.00000000000E+00 -0.98241298608E+02  0.98241298608E+02  0.00000000000E+00 0.  1.
          6    1    1    2  501    0  0.29840956979E+02 -0.49287203606E+02  0.59870705866E+02  0.19191980766E+03  0.17300000000E+03 0.  1.
         -6    1    1    2    0  502 -0.29840956979E+02  0.49287203606E+02  0.22579122576E+03  0.29022472118E+03  0.17300000000E+03 0. -1.
</event>
<event>
 4    1  0.6123996E+000  0.1000000E+03  0.7546771E-02  0.1280296E+00
         21   -1    0    0  503  502  0.00000000000E+00  0.00000000000E+00  0.17862979776E+03  0.17862979776E+03  0.00000000000E+00 0. -1.
         21   -1    0    0  501  503 -0.00000000000E+00 -0.00000000000E+00 -0.43994380378E+03  0.43994380378E+03  0.00000000000E+00 0.  1.
          6    1    1    2  501    0 -0.42427254730E+02  0.63256747020E+02 -0.35905621944E+03  0.40577315917E+03  0.17300000000E+03 0.  1.
         -6    1    1    2    0  502  0.42427254730E+02 -0.63256747020E+02  0.97742213413E+02  0.21280044236E+03  0.17300000000E+03 0. -1.
</event>
<event>
 4    1  0.6123996E+000  0.1000000E+03  0.7546771E-02  0.1280296E+00
         21   -1    0    0  503  502  0.00000000000E+00  0.00000000000E+00  0.25730049780E+04  0.25730049780E+04  0.00000000000E+00 0. -1.
         21   -1    0    0  501  503 -0.00000000000E+00 -0.00000000000E+00 -0.21115131548E+02  0.21115131548E+02  0.00000000000E+00 0.  1.
          6    1    1    2  501    0 -0.69153075487E+01 -0.11615242489E+03  0.69600847070E+03  0.72656451783E+03  0.17300000000E+03 0.  1.
         -6    1    1    2    0  502  0.69153075487E+01  0.11615242489E+03  0.18558813757E+04  0.18675555917E+04  0.17300000000E+03 0. -1.
</event>
<event>
 4    1  0.6123996E+000  0.1000000E+03  0.7546771E-02  0.1280296E+00
         21   -1    0    0  503  502  0.00000000000E+00  0.00000000000E+00  0.19411270785E+03  0.19411270785E+03  0.00000000000E+00 0. -1.
         21   -1    0    0  501  503 -0.00000000000E+00 -0.00000000000E+00 -0.45227012451E+03  0.45227012451E+03  0.00000000000E+00 0.  1.
          6    1    1    2  501    0  0.50106003163E+02 -0.11541006348E+03 -0.35270629626E+03  0.41250554630E+03  0.17300000000E+03 0.  1.
         -6    1    1    2    0  502 -0.50106003163E+02  0.11541006348E+03  0.94548879598E+02  0.23387728607E+03  0.17300000000E+03 0. -1.
</event>
<event>
 4    1  0.6123996E+000  0.1000000E+03  0.7546771E-02  0.1280296E+00
         21   -1    0    0  501  502  0.00000000000E+00  0.00000000000E+00  0.79075906742E+03  0.79075906742E+03  0.00000000000E+00 0. -1.
         21   -1    0    0  502  503 -0.00000000000E+00 -0.00000000000E+00 -0.53563491781E+02  0.53563491781E+02  0.00000000000E+00 0. -1.
          6    1    1    2  501    0 -0.10140929981E+03  0.13855590272E+02  0.27799328946E+03  0.34305260887E+03  0.17300000000E+03 0. -1.
         -6    1    1    2    0  503  0.10140929981E+03 -0.13855590272E+02  0.45920228618E+03  0.50126995033E+03  0.17300000000E+03 0. -1.
</event>
<event>
 4    1  0.6123996E+000  0.1000000E+03  0.7546771E-02  0.1280296E+00
         21   -1    0    0  501  502  0.00000000000E+00  0.00000000000E+00  0.11130152117E+03  0.11130152117E+03  0.00000000000E+00 0. -1.
         21   -1    0    0  502  503 -0.00000000000E+00 -0.00000000000E+00 -0.36541926782E+03  0.36541926782E+03  0.00000000000E+00 0. -1.
          6    1    1    2  501    0  0.42965223164E+02 -0.66454956303E+02 -0.20617200590E+03  0.28053193692E+03  0.17300000000E+03 0. -1.
         -6    1    1    2    0  503 -0.42965223164E+02  0.66454956303E+02 -0.47945740747E+02  0.19618885207E+03  0.17300000000E+03 0. -1.
</event>
<event>
 4    1  0.6123996E+000  0.1000000E+03  0.7546771E-02  0.1280296E+00
         21   -1    0    0  501  502  0.00000000000E+00  0.00000000000E+00  0.35185523667E+03  0.35185523667E+03  0.00000000000E+00 0. -1.
         21   -1    0    0  502  503 -0.00000000000E+00 -0.00000000000E+00 -0.16314439674E+03  0.16314439674E+03  0.00000000000E+00 0. -1.
          6    1    1    2  501    0 -0.10412287420E+03  0.16792999148E+02  0.23178370064E+03  0.30785753464E+03  0.17300000000E+03 0. -1.
         -6    1    1    2    0  503  0.10412287420E+03 -0.16792999148E+02 -0.43072860710E+02  0.20714209877E+03  0.17300000000E+03 0. -1.
</event>
<event>
 4    1  0.6123996E+000  0.1000000E+03  0.7546771E-02  0.1280296E+00
         21   -1    0    0  503  502  0.00000000000E+00  0.00000000000E+00  0.15553259861E+03  0.15553259861E+03  0.00000000000E+00 0. -1.
         21   -1    0    0  501  503 -0.00000000000E+00 -0.00000000000E+00 -0.27592267794E+03  0.27592267794E+03  0.00000000000E+00 0. -1.
          6    1    1    2  501    0  0.66679216780E+02 -0.36925770751E+02 -0.14841216440E+03  0.24034309026E+03  0.17300000000E+03 0. -1.
         -6    1    1    2    0  502 -0.66679216780E+02  0.36925770751E+02  0.28022085064E+02  0.19111218629E+03  0.17300000000E+03 0. -1.
</event>
<event>
 4    1  0.6123996E+000  0.1000000E+03  0.7546771E-02  0.1280296E+00
         21   -1    0    0  503  502  0.00000000000E+00  0.00000000000E+00  0.16853020077E+03  0.16853020077E+03  0.00000000000E+00 0. -1.
         21   -1    0    0  501  503 -0.00000000000E+00 -0.00000000000E+00 -0.21999085108E+03  0.21999085108E+03  0.00000000000E+00 0. -1.
          6    1    1    2  501    0  0.25803136788E+02 -0.80119659738E+02 -0.33619072990E+02  0.19530541163E+03  0.17300000000E+03 0. -1.
         -6    1    1    2    0  502 -0.25803136788E+02  0.80119659738E+02 -0.17841577316E+02  0.19321564022E+03  0.17300000000E+03 0. -1.
</event>
<event>
 4    1  0.6123996E+000  0.1000000E+03  0.7546771E-02  0.1280296E+00
         21   -1    0    0  501  502  0.00000000000E+00  0.00000000000E+00  0.63107817789E+02  0.63107817789E+02  0.00000000000E+00 0.  1.
         21   -1    0    0  502  503 -0.00000000000E+00 -0.00000000000E+00 -0.69296848397E+03  0.69296848397E+03  0.00000000000E+00 0. -1.
          6    1    1    2  501    0  0.62688813917E+02 -0.45040457378E+02 -0.15482286190E+03  0.24465822847E+03  0.17300000000E+03 0. -1.
         -6    1    1    2    0  503 -0.62688813917E+02  0.45040457378E+02 -0.47503780428E+03  0.51141807329E+03  0.17300000000E+03 0. -1.
</event>
<event>
 4    1  0.6123996E+000  0.1000000E+03  0.7546771E-02  0.1280296E+00
         21   -1    0    0  501  502  0.00000000000E+00  0.00000000000E+00  0.65884034679E+03  0.65884034679E+03  0.00000000000E+00 0.  1.
         21   -1    0    0  502  503 -0.00000000000E+00 -0.00000000000E+00 -0.53015790050E+02  0.53015790050E+02  0.00000000000E+00 0. -1.
          6    1    1    2  501    0 -0.86213769881E+01 -0.55550298286E+02  0.22122541824E+03  0.28640853593E+03  0.17300000000E+03 0. -1.
         -6    1    1    2    0  503  0.86213769881E+01  0.55550298286E+02  0.38459913851E+03  0.42544760091E+03  0.17300000000E+03 0. -1.
</event>
<event>
 4    1  0.6123996E+000  0.1000000E+03  0.7546771E-02  0.1280296E+00
         21   -1    0    0  501  502  0.00000000000E+00  0.00000000000E+00  0.35334880547E+03  0.35334880547E+03  0.00000000000E+00 0.  1.
         21   -1    0    0  502  503 -0.00000000000E+00 -0.00000000000E+00 -0.14727232560E+03  0.14727232560E+03  0.00000000000E+00 0.  1.
          6    1    1    2  501    0 -0.22030213587E+02  0.18044943433E+02  0.26317528651E+03  0.31622963448E+03  0.17300000000E+03 0.  1.
         -6    1    1    2    0  503  0.22030213587E+02 -0.18044943433E+02 -0.57098806641E+02  0.18439149659E+03  0.17300000000E+03 0.  1.
</event>
<event>
 4    1  0.6123996E+000  0.1000000E+03  0.7546771E-02  0.1280296E+00
         21   -1    0    0  503  502  0.00000000000E+00  0.00000000000E+00  0.12174776921E+03  0.12174776921E+03  0.00000000000E+00 0.  1.
         21   -1    0    0  501  503 -0.00000000000E+00 -0.00000000000E+00 -0.29233347057E+03  0.29233347057E+03  0.00000000000E+00 0.  1.
          6    1    1    2  501    0  0.41614084418E+02  0.17506458633E+02 -0.15135676228E+03  0.23425643557E+03  0.17300000000E+03 0.  1.
         -6    1    1    2    0  502 -0.41614084418E+02 -0.17506458633E+02 -0.19228939080E+02  0.17982480422E+03  0.17300000000E+03 0.  1.
</event>
<event>
 4    1  0.6123996E+000  0.1000000E+03  0.7546771E-02  0.1280296E+00
         21   -1    0    0  503  502  0.00000000000E+00  0.00000000000E+00  0.11911333669E+04  0.11911333669E+04  0.00000000000E+00 0.  1.
         21   -1    0    0  501  503 -0.00000000000E+00 -0.00000000000E+00 -0.50945154459E+02  0.50945154459E+02  0.00000000000E+00 0.  1.
          6    1    1    2  501    0 -0.11683312445E+03 -0.10279580553E+03  0.36626762427E+03  0.43393309299E+03  0.17300000000E+03 0.  1.
         -6    1    1    2    0  502  0.11683312445E+03  0.10279580553E+03  0.77392058820E+03  0.80814542840E+03  0.17300000000E+03 0.  1.
</event>
<event>
 4    1  0.6123996E+000  0.1000000E+03  0.7546771E-02  0.1280296E+00
         21   -1    0    0  501  502  0.00000000000E+00  0.00000000000E+00  0.15754104647E+04  0.15754104647E+04  0.00000000000E+00 0.  1.
         21   -1    0    0  502  503 -0.00000000000E+00 -0.00000000000E+00 -0.28706182131E+02  0.28706182131E+02  0.00000000000E+00 0. -1.
          6    1    1    2  501    0  0.62996201637E+02 -0.78068503600E+02  0.10461539395E+04  0.10650963702E+04  0.17300000000E+03 0.  1.
         -6    1    1    2    0  503 -0.62996201637E+02  0.78068503600E+02  0.50055034304E+03  0.53902027661E+03  0.17300000000E+03 0.  1.
</event>
<event>
 4    1  0.6123996E+000  0.1000000E+03  0.7546771E-02  0.1280296E+00
         21   -1    0    0  501  502  0.00000000000E+00  0.00000000000E+00  0.54933037623E+03  0.54933037623E+03  0.00000000000E+00 0. -1.
         21   -1    0    0  502  503 -0.00000000000E+00 -0.00000000000E+00 -0.87646823606E+02  0.87646823606E+02  0.00000000000E+00 0.  1.
          6    1    1    2  501    0 -0.57329732042E+02  0.94867130695E+02  0.11905392048E+03  0.23746432710E+03  0.17300000000E+03 0.  1.
         -6    1    1    2    0  503  0.57329732042E+02 -0.94867130695E+02  0.34262963215E+03  0.39951287274E+03  0.17300000000E+03 0. -1.
</event>
<event>
 4    1  0.6123996E+000  0.1000000E+03  0.7546771E-02  0.1280296E+00
         21   -1    0    0  501  502  0.00000000000E+00  0.00000000000E+00  0.32309991846E+02  0.32309991846E+02  0.00000000000E+00 0. -1.
         21   -1    0    0  502  503 -0.00000000000E+00 -0.00000000000E+00 -0.16902972924E+04  0.16902972924E+04  0.00000000000E+00 0.  1.
          6    1    1    2  501    0 -0.10445556860E+02 -0.73468454520E+02 -0.31859990352E+03  0.37005624166E+03  0.17300000000E+03 0.  1.
         -6    1    1    2    0  503  0.10445556860E+02  0.73468454520E+02 -0.13393873971E+04  0.13525510426E+04  0.17300000000E+03 0. -1.
</event>
<event>
 4    1  0.6123996E+000  0.1000000E+03  0.7546771E-02  0.1280296E+00
         21   -1    0    0  503  502  0.00000000000E+00  0.00000000000E+00  0.11972324468E+03  0.11972324468E+03  0.00000000000E+00 0.  1.
         21   -1    0    0  501  503 -0.00000000000E+00 -0.00000000000E+00 -0.36398260501E+03  0.36398260501E+03  0.00000000000E+00 0.  1.
          6    1    1    2  501    0 -0.11520308050E+03  0.22882317795E+01 -0.14445108448E+03  0.25312467593E+03  0.17300000000E+03 0.  1.
         -6    1    1    2    0  502  0.11520308050E+03 -0.22882317795E+01 -0.99808275849E+02  0.23058117375E+03  0.17300000000E+03 0.  1.
</event>
<event>
 4    1  0.6123996E+000  0.1000000E+03  0.7546771E-02  0.1280296E+00
         21   -1    0    0  503  502  0.00000000000E+00  0.00000000000E+00  0.13619907748E+03  0.13619907748E+03  0.00000000000E+00 0.  1.
         21   -1    0    0  501  503 -0.00000000000E+00 -0.00000000000E+00 -0.30033789815E+03  0.30033789815E+03  0.00000000000E+00 0.  1.
          6    1    1    2  501    0  0.96653393831E+02 -0.35952223094E+02 -0.62102782039E+02  0.21076099360E+03  0.17300000000E+03 0.  1.
         -6    1    1    2    0  502 -0.96653393831E+02  0.35952223094E+02 -0.10203603863E+03  0.22577598203E+03  0.17300000000E+03 0.  1.
</event>
<event>
 4    1  0.6123996E+000  0.1000000E+03  0.7546771E-02  0.1280296E+00
         21   -1    0    0  501  502  0.00000000000E+00  0.00000000000E+00  0.28341071094E+03  0.28341071094E+03  0.00000000000E+00 0. -1.
         21   -1    0    0  502  503 -0.00000000000E+00 -0.00000000000E+00 -0.43702408157E+03  0.43702408157E+03  0.00000000000E+00 0.  1.
          6    1    1    2  501    0  0.17359621476E+03  0.11416945003E+03  0.15379161640E+03  0.31104850165E+03  0.17300000000E+03 0.  1.
         -6    1    1    2    0  503 -0.17359621476E+03 -0.11416945003E+03 -0.30740498703E+03  0.40938629087E+03  0.17300000000E+03 0. -1.
</event>
<event>
 4    1  0.6123996E+000  0.1000000E+03  0.7546771E-02  0.1280296E+00
         21   -1    0    0  501  502  0.00000000000E+00  0.00000000000E+00  0.32897004198E+03  0.32897004198E+03  0.00000000000E+00 0. -1.
         21   -1    0    0  502  503 -0.00000000000E+00 -0.00000000000E+00 -0.24500063984E+03  0.24500063984E+03  0.00000000000E+00 0.  1.
          6    1    1    2  501    0 -0.74677004818E+02  0.20711846786E+03 -0.53665741487E+01  0.28005805630E+03  0.17300000000E+03 0.  1.
         -6    1    1    2    0  503  0.74677004818E+02 -0.20711846786E+03  0.89335976291E+02  0.29391262552E+03  0.17300000000E+03 0. -1.
</event>
<event>
 4    1  0.6123996E+000  0.1000000E+03  0.7546771E-02  0.1280296E+00
         21   -1    0    0  501  502  0.00000000000E+00  0.00000000000E+00  0.10246418647E+03  0.10246418647E+03  0.00000000000E+00 0. -1.
         21   -1    0    0  502  503 -0.00000000000E+00 -0.00000000000E+00 -0.98288002952E+03  0.98288002952E+03  0.00000000000E+00 0. -1.
          6    1    1    2  501    0 -0.15169882875E+03 -0.66637301222E+02 -0.84261027390E+02  0.25393303309E+03  0.17300000000E+03 0. -1.
         -6    1    1    2    0  503  0.15169882875E+03  0.66637301222E+02 -0.79615481565E+03  0.83141118290E+03  0.17300000000E+03 0. -1.
</event>
<event>
 4    1  0.6123996E+000  0.1000000E+03  0.7546771E-02  0.1280296E+00
         21   -1    0    0  501  502  0.00000000000E+00  0.00000000000E+00  0.10674782235E+04  0.10674782235E+04  0.00000000000E+00 0. -1.
         21   -1    0    0  502  503 -0.00000000000E+00 -0.00000000000E+00 -0.43492652610E+02  0.43492652610E+02  0.00000000000E+00 0. -1.
          6    1    1    2  501    0 -0.14697077905E+02 -0.85087510705E+02  0.75714238106E+03  0.78144063996E+03  0.17300000000E+03 0. -1.
         -6    1    1    2    0  503  0.14697077905E+02  0.85087510705E+02  0.26684318979E+03  0.32953023612E+03  0.17300000000E+03 0. -1.
</event>
<event>
 4    1  0.6123996E+000  0.1000000E+03  0.7546771E-02  0.1280296E+00
         21   -1    0    0  501  502  0.00000000000E+00  0.00000000000E+00  0.56692547717E+02  0.56692547717E+02  0.00000000000E+00 0. -1.
         21   -1    0    0  502  503 -0.00000000000E+00 -0.00000000000E+00 -0.64675714668E+03  0.64675714668E+03  0.00000000000E+00 0. -1.
          6    1    1    2  501    0 -0.25272740720E+02 -0.78010118980E+02 -0.30166026364E+03  0.35728448713E+03  0.17300000000E+03 0. -1.
         -6    1    1    2    0  503  0.25272740720E+02  0.78010118980E+02 -0.28840433532E+03  0.34616520726E+03  0.17300000000E+03 0. -1.
</event>
<event>
 4    1  0.6123996E+000  0.1000000E+03  0.7546771E-02  0.1280296E+00
         21   -1    0    0  501  502  0.00000000000E+00  0.00000000000E+00  0.63611082915E+03  0.63611082915E+03  0.00000000000E+00 0. -1.
         21   -1    0    0  502  503 -0.00000000000E+00 -0.00000000000E+00 -0.61915115102E+02  0.61915115102E+02  0.00000000000E+00 0. -1.
          6    1    1    2  501    0  0.76211147912E+02 -0.21592853485E+02  0.38629330881E+03  0.43061108999E+03  0.17300000000E+03 0. -1.
         -6    1    1    2    0  503 -0.76211147912E+02  0.21592853485E+02  0.18790240523E+03  0.26741485426E+03  0.17300000000E+03 0. -1.
</event>
<event>
 4    1  0.6123996E+000  0.1000000E+03  0.7546771E-02  0.1280296E+00
         21   -1    0    0  501  502  0.00000000000E+00  0.00000000000E+00  0.13397896041E+04  0.13397896041E+04  0.00000000000E+00 0. -1.
         21   -1    0    0  502  503 -0.00000000000E+00 -0.00000000000E+00 -0.49707313978E+02  0.49707313978E+02  0.00000000000E+00 0. -1.
          6    1    1    2  501    0  0.15750941441E+03 -0.89640280738E+02  0.81151410997E+03  0.84931074775E+03  0.17300000000E+03 0. -1.
         -6    1    1    2    0  503 -0.15750941441E+03  0.89640280738E+02  0.47856818012E+03  0.54018617030E+03  0.17300000000E+03 0. -1.
</event>
<event>
 4    1  0.6123996E+000  0.1000000E+03  0.7546771E-02  0.1280296E+00
         21   -1    0    0  503  502  0.00000000000E+00  0.00000000000E+00  0.15606816622E+04  0.15606816622E+04  0.00000000000E+00 0.  1.
         21   -1    0    0  501  503 -0.00000000000E+00 -0.00000000000E+00 -0.43533121346E+02  0.43533121346E+02  0.00000000000E+00 0.  1.
          6    1    1    2  501    0  0.68417528543E+02  0.16322391604E+03  0.50688942844E+03  0.56408235006E+03  0.17300000000E+03 0.  1.
         -6    1    1    2    0  502 -0.68417528543E+02 -0.16322391604E+03  0.10102591124E+04  0.10401324335E+04  0.17300000000E+03 0.  1.
</event>
<event>
 4    1  0.6123996E+000  0.1000000E+03  0.7546771E-02  0.1280296E+00
         21   -1    0    0  503  502  0.00000000000E+00  0.00000000000E+00  0.54973506967E+03  0.54973506967E+03  0.00000000000E+00 0.  1.
         21   -1    0    0  501  503 -0.00000000000E+00 -0.00000000000E+00 -0.88860085576E+02  0.88860085576E+02  0.00000000000E+00 0.  1.
          6    1    1    2  501    0  0.92770534925E+02  0.39037518973E+02  0.36588313769E+03  0.41704888261E+03  0.17300000000E+03 0.  1.
         -6    1    1    2    0  502 -0.92770534925E+02 -0.39037518973E+02  0.94991846406E+02  0.22154627264E+03  0.17300000000E+03 0.  1.
</event>
<event>
 4    1  0.6123996E+000  0.1000000E+03  0.7546771E-02  0.1280296E+00
         21   -1    0    0  503  502  0.00000000000E+00  0.00000000000E+00  0.23158810424E+03  0.23158810424E+03  0.00000000000E+00 0.  1.
         21   -1    0    0  501  503 -0.00000000000E+00 -0.00000000000E+00 -0.21648696709E+03  0.21648696709E+03  0.00000000000E+00 0.  1.
          6    1    1    2  501    0  0.82626020193E+02 -0.84110399046E+02  0.87000915952E+02  0.22671519097E+03  0.17300000000E+03 0.  1.
         -6    1    1    2    0  502 -0.82626020193E+02  0.84110399046E+02 -0.71899778801E+02  0.22135988036E+03  0.17300000000E+03 0.  1.
</event>
<event>
 4    1  0.6123996E+000  0.1000000E+03  0.7546771E-02  0.1280296E+00
         21   -1    0    0  503  502  0.00000000000E+00  0.00000000000E+00  0.18241350762E+03  0.18241350762E+03  0.00000000000E+00 0.  1.
         21   -1    0    0  501  503 -0.00000000000E+00 -0.00000000000E+00 -0.42426566591E+03  0.42426566591E+03  0.00000000000E+00 0.  1.
          6    1    1    2  501    0  0.55831352932E+02  0.85617730944E+01 -0.35035486653E+03  0.39480118595E+03  0.17300000000E+03 0.  1.
         -6    1    1    2    0  502 -0.55831352932E+02 -0.85617730944E+01  0.10850270823E+03  0.21187798758E+03  0.17300000000E+03 0.  1.
</event>
<event>
 4    1  0.6123996E+000  0.1000000E+03  0.7546771E-02  0.1280296E+00
         21   -1    0    0  503  502  0.00000000000E+00  0.00000000000E+00  0.25473449926E+03  0.25473449926E+03  0.00000000000E+00 0.  1.
         21   -1    0    0  501  503 -0.00000000000E+00 -0.00000000000E+00 -0.59947065240E+03  0.59947065240E+03  0.00000000000E+00 0.  1.
          6    1    1    2  501    0  0.70416317631E+02  0.27788017566E+03 -0.39259618308E+03  0.51598121359E+03  0.17300000000E+03 0.  1.
         -6    1    1    2    0  502 -0.70416317631E+02 -0.27788017566E+03  0.47860029938E+02  0.33822393806E+03  0.17300000000E+03 0.  1.
</event>
<event>
 4    1  0.6123996E+000  0.1000000E+03  0.7546771E-02  0.1280296E+00
         21   -1    0    0  503  502  0.00000000000E+00  0.00000000000E+00  0.14972002657E+03  0.14972002657E+03  0.00000000000E+00 0.  1.
         21   -1    0    0  501  503 -0.00000000000E+00 -0.00000000000E+00 -0.34874264665E+03  0.34874264665E+03  0.00000000000E+00 0.  1.
          6    1    1    2  501    0 -0.99157470526E+02  0.11102812239E+03 -0.11172097445E+03  0.25410632431E+03  0.17300000000E+03 0.  1.
         -6    1    1    2    0  502  0.99157470526E+02 -0.11102812239E+03 -0.87301645631E+02  0.24435634891E+03  0.17300000000E+03 0.  1.
</event>
<event>
 4    1  0.6123996E+000  0.1000000E+03  0.7546771E-02  0.1280296E+00
         21   -1    0    0  501  502  0.00000000000E+00  0.00000000000E+00  0.20114310545E+03  0.20114310545E+03  0.00000000000E+00 0. -1.
         21   -1    0    0  502  503 -0.00000000000E+00 -0.00000000000E+00 -0.18032757245E+03  0.18032757245E+03  0.00000000000E+00 0. -1.
          6    1    1    2  501    0  0.19582812739E+02  0.11654047046E+02  0.86832470513E+02  0.19490557022E+03  0.17300000000E+03 0. -1.
         -6    1    1    2    0  503 -0.19582812739E+02 -0.11654047046E+02 -0.66016937508E+02  0.18656510768E+03  0.17300000000E+03 0. -1.
</event>
<event>
 4    1  0.6123996E+000  0.1000000E+03  0.7546771E-02  0.1280296E+00
         21   -1    0    0  501  502  0.00000000000E+00  0.00000000000E+00  0.17193563125E+03  0.17193563125E+03  0.00000000000E+00 0. -1.
         21   -1    0    0  502  503 -0.00000000000E+00 -0.00000000000E+00 -0.30104121285E+03  0.30104121285E+03  0.00000000000E+00 0. -1.
          6    1    1    2  501    0  0.13414629289E+03 -0.35167960761E+02 -0.11563045106E+02  0.22202413691E+03  0.17300000000E+03 0. -1.
         -6    1    1    2    0  503 -0.13414629289E+03  0.35167960761E+02 -0.11754253649E+03  0.25095270719E+03  0.17300000000E+03 0. -1.
</event>
<event>
 4    1  0.6123996E+000  0.1000000E+03  0.7546771E-02  0.1280296E+00
         21   -1    0    0  501  502  0.00000000000E+00  0.00000000000E+00  0.11295620761E+04  0.11295620761E+04  0.00000000000E+00 0. -1.
         21   -1    0    0  502  503 -0.00000000000E+00 -0.00000000000E+00 -0.42316224880E+02  0.42316224880E+02  0.00000000000E+00 0. -1.
          6    1    1    2  501    0 -0.86084166357E+02 -0.87525892103E+02  0.40184469219E+03  0.45440006836E+03  0.17300000000E+03 0. -1.
         -6    1    1    2    0  503  0.86084166357E+02  0.87525892103E+02  0.68540115908E+03  0.71747823267E+03  0.17300000000E+03 0. -1.
</event>
<event>
 4    1  0.6123996E+000  0.1000000E+03  0.7546771E-02  0.1280296E+00
         21   -1    0    0  503  502  0.00000000000E+00  0.00000000000E+00  0.17919010088E+03  0.17919010088E+03  0.00000000000E+00 0.  1.
         21   -1    0    0  501  503 -0.00000000000E+00 -0.00000000000E+00 -0.25793362301E+03  0.25793362301E+03  0.00000000000E+00 0. -1.
          6    1    1    2  501    0  0.15570440164E+02  0.11697228430E+03  0.10070366369E+02  0.20965535095E+03  0.17300000000E+03 0. -1.
         -6    1    1    2    0  502 -0.15570440164E+02 -0.11697228430E+03 -0.88813888499E+02  0.22746837295E+03  0.17300000000E+03 0. -1.
</event>
<event>
 4    1  0.6123996E+000  0.1000000E+03  0.7546771E-02  0.1280296E+00
         21   -1    0    0  503  502  0.00000000000E+00  0.00000000000E+00  0.10790581629E+03  0.10790581629E+03  0.00000000000E+00 0.  1.
         21   -1    0    0  501  503 -0.00000000000E+00 -0.00000000000E+00 -0.14570222368E+04  0.14570222368E+04  0.00000000000E+00 0. -1.
          6    1    1    2  501    0  0.23054982421E+03 -0.24147704785E+03 -0.42629122446E+03  0.56843433582E+03  0.17300000000E+03 0. -1.
         -6    1    1    2    0  502 -0.23054982421E+03  0.24147704785E+03 -0.92282519601E+03  0.99649371723E+03  0.17300000000E+03 0. -1.
</event>
<event>
 4    1  0.6123996E+000  0.1000000E+03  0.7546771E-02  0.1280296E+00
         21   -1    0    0  503  502  0.00000000000E+00  0.00000000000E+00  0.12128336260E+03  0.12128336260E+03  0.00000000000E+00 0. -1.
         21   -1    0    0  501  503 -0.00000000000E+00 -0.00000000000E+00 -0.42872403660E+03  0.42872403660E+03  0.00000000000E+00 0. -1.
          6    1    1    2  501    0 -0.49898910402E+02 -0.81204294720E+02 -0.29114167174E+03  0.35181886215E+03  0.17300000000E+03 0. -1.
         -6    1    1    2    0  502  0.49898910402E+02  0.81204294720E+02 -0.16299002256E+02  0.19818853704E+03  0.17300000000E+03 0. -1.
</event>
<event>
 4    1  0.6123996E+000  0.1000000E+03  0.7546771E-02  0.1280296E+00
         21   -1    0    0  503  502  0.00000000000E+00  0.00000000000E+00  0.62425996611E+03  0.62425996611E+03  0.00000000000E+00 0. -1.
         21   -1    0    0  501  503 -0.00000000000E+00 -0.00000000000E+00 -0.19144242765E+03  0.19144242765E+03  0.00000000000E+00 0. -1.
          6    1    1    2  501    0 -0.29594044596E+01 -0.23595748127E+03 -0.79887429375E+00  0.29259926392E+03  0.17300000000E+03 0. -1.
         -6    1    1    2    0  502  0.29594044596E+01  0.23595748127E+03  0.43361641275E+03  0.52310312984E+03  0.17300000000E+03 0. -1.
</event>
<event>
 4    1  0.6123996E+000  0.1000000E+03  0.7546771E-02  0.1280296E+00
         21   -1    0    0  503  502  0.00000000000E+00  0.00000000000E+00  0.40823815424E+03  0.40823815424E+03  0.00000000000E+00 0. -1.
         21   -1    0    0  501  503 -0.00000000000E+00 -0.00000000000E+00 -0.32670812809E+03  0.32670812809E+03  0.00000000000E+00 0. -1.
          6    1    1    2  501    0  0.10202384371E+03 -0.14432630272E+03 -0.22961701168E+03  0.33747876732E+03  0.17300000000E+03 0. -1.
         -6    1    1    2    0  502 -0.10202384371E+03  0.14432630272E+03  0.31114703782E+03  0.39746751501E+03  0.17300000000E+03 0. -1.
</event>
<event>
 4    1  0.6123996E+000  0.1000000E+03  0.7546771E-02  0.1280296E+00
         21   -1    0    0  501  502  0.00000000000E+00  0.00000000000E+00  0.16375790750E+03  0.16375790750E+03  0.00000000000E+00 0.  1.
         21   -1    0    0  502  503 -0.00000000000E+00 -0.00000000000E+00 -0.41660468947E+03  0.41660468947E+03  0.00000000000E+00 0.  1.
          6    1    1    2  501    0 -0.10408500261E+02 -0.37321632004E+02  0.86676545589E+02  0.19733997225E+03  0.17300000000E+03 0.  1.
         -6    1    1    2    0  503  0.10408500261E+02  0.37321632004E+02 -0.33952332756E+03  0.38302262472E+03  0.17300000000E+03 0.  1.
</event>
<event>
 4    1  0.6123996E+000  0.1000000E+03  0.7546771E-02  0.1280296E+00
         21   -1    0    0  501  502  0.00000000000E+00  0.00000000000E+00  0.70469846659E+02  0.70469846659E+02  0.00000000000E+00 0.  1.
         21   -1    0    0  502  503 -0.00000000000E+00 -0.00000000000E+00 -0.70424131774E+03  0.70424131774E+03  0.00000000000E+00 0.  1.
          6    1    1    2  501    0  0.42854424157E+02 -0.97436247769E+02 -0.15782242692E+03  0.25722994088E+03  0.17300000000E+03 0.  1.
         -6    1    1    2    0  503 -0.42854424157E+02  0.97436247769E+02 -0.47594904416E+03  0.51748122351E+03  0.17300000000E+03 0.  1.
</event>
<event>
 4    1  0.6123996E+000  0.1000000E+03  0.7546771E-02  0.1280296E+00
         21   -1    0    0  501  502  0.00000000000E+00  0.00000000000E+00  0.96773140585E+03  0.96773140585E+03  0.00000000000E+00 0.  1.
         21   -1    0    0  502  503 -0.00000000000E+00 -0.00000000000E+00 -0.83343328994E+02  0.83343328994E+02  0.00000000000E+00 0.  1.
          6    1    1    2  501    0 -0.25932053815E+02 -0.25663934677E+01  0.85616989163E+03  0.87386208358E+03  0.17300000000E+03 0.  1.
         -6    1    1    2    0  503  0.25932053815E+02  0.25663934677E+01  0.28218185230E+02  0.17721265126E+03  0.17300000000E+03 0.  1.
</event>
<event>
 4    1  0.6123996E+000  0.1000000E+03  0.7546771E-02  0.1280296E+00
         21   -1    0    0  503  502  0.00000000000E+00  0.00000000000E+00  0.69657852427E+03  0.69657852427E+03  0.00000000000E+00 0.  1.
         21   -1    0    0  501  503 -0.00000000000E+00 -0.00000000000E+00 -0.11460758207E+03  0.11460758207E+03  0.00000000000E+00 0.  1.
          6    1    1    2  501    0  0.13757198549E+03  0.36805838044E+02  0.43917368563E+02  0.22833846844E+03  0.17300000000E+03 0.  1.
         -6    1    1    2    0  502 -0.13757198549E+03 -0.36805838044E+02  0.53805357364E+03  0.58284763790E+03  0.17300000000E+03 0.  1.
</event>
<event>
 4    1  0.6123996E+000  0.1000000E+03  0.7546771E-02  0.1280296E+00
         21   -1    0    0  503  502  0.00000000000E+00  0.00000000000E+00  0.15865231760E+04  0.15865231760E+04  0.00000000000E+00 0.  1.
         21   -1    0    0  501  503 -0.00000000000E+00 -0.00000000000E+00 -0.87954347275E+02  0.87954347275E+02  0.00000000000E+00 0.  1.
          6    1    1    2  501    0  0.21984112114E+03  0.23229316206E+03  0.94107335236E+03  0.10088797184E+04  0.17300000000E+03 0.  1.
         -6    1    1    2    0  502 -0.21984112114E+03 -0.23229316206E+03  0.55749547637E+03  0.66559780488E+03  0.17300000000E+03 0.  1.
</event>
<event>
 4    1  0.6123996E+000  0.1000000E+03  0.7546771E-02  0.1280296E+00
         21   -1    0    0  503  502  0.00000000000E+00  0.00000000000E+00  0.50408843927E+02  0.50408843927E+02  0.00000000000E+00 0.  1.
         21   -1    0    0  501  503 -0.00000000000E+00 -0.00000000000E+00 -0.10841673923E+04  0.10841673923E+04  0.00000000000E+00 0.  1.
          6    1    1    2  501    0 -0.17980326948E+02 -0.15388470956E+03 -0.58193940115E+03  0.62656704558E+03  0.17300000000E+03 0.  1.
         -6    1    1    2    0  502  0.17980326948E+02  0.15388470956E+03 -0.45181914727E+03  0.50800919069E+03  0.17300000000E+03 0.  1.
</event>
<event>
 4    1  0.6123996E+000  0.1000000E+03  0.7546771E-02  0.1280296E+00
         21   -1    0    0  503  502  0.00000000000E+00  0.00000000000E+00  0.15839186911E+04  0.15839186911E+04  0.00000000000E+00 0.  1.
         21   -1    0    0  501  503 -0.00000000000E+00 -0.00000000000E+00 -0.24529749575E+02  0.24529749575E+02  0.00000000000E+00 0.  1.
          6    1    1    2  501    0 -0.78574431728E+02  0.17032819466E+02  0.57732829123E+03  0.60803043848E+03  0.17300000000E+03 0.  1.
         -6    1    1    2    0  502  0.78574431728E+02 -0.17032819466E+02  0.98206065025E+03  0.10004180022E+04  0.17300000000E+03 0.  1.
</event>
<event>
 4    1  0.6123996E+000  0.1000000E+03  0.7546771E-02  0.1280296E+00
         21   -1    0    0  501  502  0.00000000000E+00  0.00000000000E+00  0.24258657296E+03  0.24258657296E+03  0.00000000000E+00 0. -1.
         21   -1    0    0  502  503 -0.00000000000E+00 -0.00000000000E+00 -0.23743578980E+03  0.23743578980E+03  0.00000000000E+00 0.  1.
          6    1    1    2  501    0  0.11720294320E+03  0.11342554327E+03  0.35255259255E+02  0.24036184611E+03  0.17300000000E+03 0. -1.
         -6    1    1    2    0  503 -0.11720294320E+03 -0.11342554327E+03 -0.30104476094E+02  0.23966051665E+03  0.17300000000E+03 0.  1.
</event>
<event>
 4    1  0.6123996E+000  0.1000000E+03  0.7546771E-02  0.1280296E+00
         21   -1    0    0  501  502  0.00000000000E+00  0.00000000000E+00  0.13198201624E+03  0.13198201624E+03  0.00000000000E+00 0. -1.
         21   -1    0    0  502  503 -0.00000000000E+00 -0.00000000000E+00 -0.24230706486E+03  0.24230706486E+03  0.00000000000E+00 0. -1.
          6    1    1    2  501    0 -0.13243475870E+01  0.29229825747E+02 -0.91339117585E+02  0.19780791443E+03  0.17300000000E+03 0. -1.
         -6    1    1    2    0  503  0.13243475870E+01 -0.29229825747E+02 -0.18985931037E+02  0.17648116666E+03  0.17300000000E+03 0. -1.
</event>
<event>
 4    1  0.6123996E+000  0.1000000E+03  0.7546771E-02  0.1280296E+00
         21   -1    0    0  501  502  0.00000000000E+00  0.00000000000E+00  0.44097636869E+03  0.44097636869E+03  0.00000000000E+00 0. -1.
         21   -1    0    0  502  503 -0.00000000000E+00 -0.00000000000E+00 -0.10281463233E+03  0.10281463233E+03  0.00000000000E+00 0. -1.
          6    1    1    2  501    0 -0.48779575184E+01  0.70722852712E+02  0.29920434391E+03  0.35281405270E+03  0.17300000000E+03 0. -1.
         -6    1    1    2    0  503  0.48779575184E+01 -0.70722852712E+02  0.38957392442E+02  0.19097694832E+03  0.17300000000E+03 0. -1.
</event>
<event>
 4    1  0.6123996E+000  0.1000000E+03  0.7546771E-02  0.1280296E+00
         21   -1    0    0  501  502  0.00000000000E+00  0.00000000000E+00  0.60764232522E+03  0.60764232522E+03  0.00000000000E+00 0. -1.
         21   -1    0    0  502  503 -0.00000000000E+00 -0.00000000000E+00 -0.52699024965E+02  0.52699024965E+02  0.00000000000E+00 0. -1.
          6    1    1    2  501    0 -0.18392533563E+02  0.99067276304E+01  0.35257148898E+03  0.39328371869E+03  0.17300000000E+03 0. -1.
         -6    1    1    2    0  503  0.18392533563E+02 -0.99067276304E+01  0.20237181128E+03  0.26705763150E+03  0.17300000000E+03 0. -1.
</event>
<event>
 4    1  0.6123996E+000  0.1000000E+03  0.7546771E-02  0.1280296E+00
         21   -1    0    0  503  502  0.00000000000E+00  0.00000000000E+00  0.37630994117E+03  0.37630994117E+03  0.00000000000E+00 0. -1.
         21   -1    0    0  501  503 -0.00000000000E+00 -0.00000000000E+00 -0.46437496312E+03  0.46437496312E+03  0.00000000000E+00 0. -1.
          6    1    1    2  501    0  0.18608180073E+03 -0.18857468627E+03 -0.31873440357E+03  0.44911854658E+03  0.17300000000E+03 0. -1.
         -6    1    1    2    0  502 -0.18608180073E+03  0.18857468627E+03  0.23066938162E+03  0.39156635771E+03  0.17300000000E+03 0. -1.
</event>
<event>
 4    1  0.6123996E+000  0.1000000E+03  0.7546771E-02  0.1280296E+00
         21   -1    0    0  503  502  0.00000000000E+00  0.00000000000E+00  0.10340243866E+04  0.10340243866E+04  0.00000000000E+00 0. -1.
         21   -1    0    0  501  503 -0.00000000000E+00 -0.00000000000E+00 -0.40199143848E+02  0.40199143848E+02  0.00000000000E+00 0. -1.
          6    1    1    2  501    0 -0.13302129655E+02 -0.32264247709E+02  0.22799204149E+03  0.28831805236E+03  0.17300000000E+03 0. -1.
         -6    1    1    2    0  502  0.13302129655E+02  0.32264247709E+02  0.76583320129E+03  0.78590547811E+03  0.17300000000E+03 0. -1.
</event>
<event>
 4    1  0.6123996E+000  0.1000000E+03  0.7546771E-02  0.1280296E+00
         21   -1    0    0  501  502  0.00000000000E+00  0.00000000000E+00  0.58231548126E+03  0.58231548126E+03  0.00000000000E+00 0.  1.
         21   -1    0    0  502  503 -0.00000000000E+00 -0.00000000000E+00 -0.89067886296E+02  0.89067886296E+02  0.00000000000E+00 0.  1.
          6    1    1    2  501    0 -0.19921158031E+02 -0.25592194198E+02  0.45964163001E+03  0.49219024876E+03  0.17300000000E+03 0.  1.
         -6    1    1    2    0  503  0.19921158031E+02  0.25592194198E+02  0.33605964952E+02  0.17919311879E+03  0.17300000000E+03 0.  1.
</event>
<event>
 4    1  0.6123996E+000  0.1000000E+03  0.7546771E-02  0.1280296E+00
         21   -1    0    0  501  502  0.00000000000E+00  0.00000000000E+00  0.97704023345E+02  0.97704023345E+02  0.00000000000E+00 0.  1.
         21   -1    0    0  502  503 -0.00000000000E+00 -0.00000000000E+00 -0.18948931461E+04  0.18948931461E+04  0.00000000000E+00 0.  1.
          6    1    1    2  501    0 -0.18146707942E+03 -0.14420226804E+03 -0.16095866042E+03  0.33100043109E+03  0.17300000000E+03 0.  1.
         -6    1    1    2    0  503  0.18146707942E+03  0.14420226804E+03 -0.16362304623E+04  0.16615967384E+04  0.17300000000E+03 0.  1.
</event>
<event>
 4    1  0.6123996E+000  0.1000000E+03  0.7546771E-02  0.1280296E+00
         21   -1    0    0  501  502  0.00000000000E+00  0.00000000000E+00  0.11469051250E+04  0.11469051250E+04  0.00000000000E+00 0.  1.
         21   -1    0    0  502  503 -0.00000000000E+00 -0.00000000000E+00 -0.23435909430E+03  0.23435909430E+03  0.00000000000E+00 0.  1.
          6    1    1    2  501    0 -0.66847687748E+01 -0.11877205084E+02  0.11070671977E+04  0.11205857996E+04  0.17300000000E+03 0.  1.
         -6    1    1    2    0  503  0.66847687748E+01  0.11877205084E+02 -0.19452116693E+03  0.26067841974E+03  0.17300000000E+03 0.  1.
</event>
<event>
 4    1  0.6123996E+000  0.1000000E+03  0.7546771E-02  0.1280296E+00
         21   -1    0    0  501  502  0.00000000000E+00  0.00000000000E+00  0.12658289506E+03  0.12658289506E+03  0.00000000000E+00 0.  1.
         21   -1    0    0  502  503 -0.00000000000E+00 -0.00000000000E+00 -0.42250739148E+03  0.42250739148E+03  0.00000000000E+00 0.  1.
          6    1    1    2  501    0 -0.93472090919E+02 -0.94060089772E+02 -0.56244075147E+02  0.22511492233E+03  0.17300000000E+03 0.  1.
         -6    1    1    2    0  503  0.93472090919E+02  0.94060089772E+02 -0.23968042128E+03  0.32397536421E+03  0.17300000000E+03 0.  1.
</event>
<event>
 4    1  0.6123996E+000  0.1000000E+03  0.7546771E-02  0.1280296E+00
         21   -1    0    0  501  502  0.00000000000E+00  0.00000000000E+00  0.11919661458E+03  0.11919661458E+03  0.00000000000E+00 0.  1.
         21   -1    0    0  502  503 -0.00000000000E+00 -0.00000000000E+00 -0.31179676772E+03  0.31179676772E+03  0.00000000000E+00 0.  1.
          6    1    1    2  501    0  0.16512040603E+01 -0.80384483300E+02 -0.65246985673E+02  0.20161984220E+03  0.17300000000E+03 0.  1.
         -6    1    1    2    0  503 -0.16512040603E+01  0.80384483300E+02 -0.12735316747E+03  0.22937354009E+03  0.17300000000E+03 0.  1.
</event>
<event>
 4    1  0.6123996E+000  0.1000000E+03  0.7546771E-02  0.1280296E+00
         21   -1    0    0  503  502  0.00000000000E+00  0.00000000000E+00  0.10600807949E+04  0.10600807949E+04  0.00000000000E+00 0. -1.
         21   -1    0    0  501  503 -0.00000000000E+00 -0.00000000000E+00 -0.23463210839E+03  0.23463210839E+03  0.00000000000E+00 0. -1.
          6    1    1    2  501    0  0.14438878807E+03  0.78376023204E+02 -0.15575520392E+03  0.28492035147E+03  0.17300000000E+03 0. -1.
         -6    1    1    2    0  502 -0.14438878807E+03 -0.78376023204E+02  0.98120389042E+03  0.10097925518E+04  0.17300000000E+03 0. -1.
</event>
<event>
 4    1  0.6123996E+000  0.1000000E+03  0.7546771E-02  0.1280296E+00
         21   -1    0    0  503  502  0.00000000000E+00  0.00000000000E+00  0.60526055578E+03  0.60526055578E+03  0.00000000000E+00 0.  1.
         21   -1    0    0  501  503 -0.00000000000E+00 -0.00000000000E+00 -0.11077545227E+03  0.11077545227E+03  0.00000000000E+00 0.  1.
          6    1    1    2  501    0 -0.18559528049E+03  0.51086542521E+02  0.23621868234E+03  0.35040506397E+03  0.17300000000E+03 0.  1.
         -6    1    1    2    0  502  0.18559528049E+03 -0.51086542521E+02  0.25826642117E+03  0.36563094408E+03  0.17300000000E+03 0.  1.
</event>
<event>
 4    1  0.6123996E+000  0.1000000E+03  0.7546771E-02  0.1280296E+00
         21   -1    0    0  503  502  0.00000000000E+00  0.00000000000E+00  0.10354131292E+04  0.10354131292E+04  0.00000000000E+00 0.  1.
         21   -1    0    0  501  503 -0.00000000000E+00 -0.00000000000E+00 -0.53830901299E+02  0.53830901299E+02  0.00000000000E+00 0.  1.
          6    1    1    2  501    0  0.10031753574E+03 -0.23391551900E+02  0.20640532874E+03  0.28834516194E+03  0.17300000000E+03 0.  1.
         -6    1    1    2    0  502 -0.10031753574E+03  0.23391551900E+02  0.77517689915E+03  0.80089886855E+03  0.17300000000E+03 0.  1.
</event>
<event>
 4    1  0.6123996E+000  0.1000000E+03  0.7546771E-02  0.1280296E+00
         21   -1    0    0  501  502  0.00000000000E+00  0.00000000000E+00  0.10675236277E+03  0.10675236277E+03  0.00000000000E+00 0.  1.
         21   -1    0    0  502  503 -0.00000000000E+00 -0.00000000000E+00 -0.49753599918E+03  0.49753599918E+03  0.00000000000E+00 0. -1.
          6    1    1    2  501    0 -0.42596517413E+00  0.13715026817E+03 -0.10868744512E+03  0.24607384711E+03  0.17300000000E+03 0.  1.
         -6    1    1    2    0  503  0.42596517413E+00 -0.13715026817E+03 -0.28209619129E+03  0.35821451484E+03  0.17300000000E+03 0. -1.
</event>
<event>
 4    1  0.6123996E+000  0.1000000E+03  0.7546771E-02  0.1280296E+00
         21   -1    0    0  501  502  0.00000000000E+00  0.00000000000E+00  0.79645170352E+03  0.79645170352E+03  0.00000000000E+00 0.  1.
         21   -1    0    0  502  503 -0.00000000000E+00 -0.00000000000E+00 -0.10229256628E+03  0.10229256628E+03  0.00000000000E+00 0. -1.
          6    1    1    2  501    0 -0.22410916883E+03 -0.30270562056E+02  0.37860070931E+03  0.47371797894E+03  0.17300000000E+03 0.  1.
         -6    1    1    2    0  503  0.22410916883E+03  0.30270562056E+02  0.31555842793E+03  0.42502629085E+03  0.17300000000E+03 0. -1.
</event>
<event>
 4    1  0.6123996E+000  0.1000000E+03  0.7546771E-02  0.1280296E+00
         21   -1    0    0  503  502  0.00000000000E+00  0.00000000000E+00  0.99869499449E+02  0.99869499449E+02  0.00000000000E+00 0.  1.
         21   -1    0    0  501  503 -0.00000000000E+00 -0.00000000000E+00 -0.61015002060E+03  0.61015002060E+03  0.00000000000E+00 0. -1.
          6    1    1    2  501    0  0.55205831154E+02  0.27561835581E+02 -0.49232258325E+03  0.52546918516E+03  0.17300000000E+03 0.  1.
         -6    1    1    2    0  502 -0.55205831154E+02 -0.27561835581E+02 -0.17957937901E+02  0.18455033489E+03  0.17300000000E+03 0. -1.
</event>
<event>
 4    1  0.6123996E+000  0.1000000E+03  0.7546771E-02  0.1280296E+00
         21   -1    0    0  503  502  0.00000000000E+00  0.00000000000E+00  0.88949560225E+02  0.88949560225E+02  0.00000000000E+00 0.  1.
         21   -1    0    0  501  503 -0.00000000000E+00 -0.00000000000E+00 -0.10484875888E+04  0.10484875888E+04  0.00000000000E+00 0. -1.
          6    1    1    2  501    0  0.10311570075E+03  0.16172467353E+03 -0.78318727039E+03  0.82468116158E+03  0.17300000000E+03 0.  1.
         -6    1    1    2    0  502 -0.10311570075E+03 -0.16172467353E+03 -0.17635075818E+03  0.31275598744E+03  0.17300000000E+03 0. -1.
</event>
<event>
 4    1  0.6123996E+000  0.1000000E+03  0.7546771E-02  0.1280296E+00
         21   -1    0    0  503  502  0.00000000000E+00  0.00000000000E+00  0.41597219303E+03  0.41597219303E+03  0.00000000000E+00 0. -1.
         21   -1    0    0  501  503 -0.00000000000E+00 -0.00000000000E+00 -0.22247860282E+03  0.22247860282E+03  0.00000000000E+00 0.  1.
          6    1    1    2  501    0  0.13905913166E+03 -0.75508868233E+02 -0.10666752704E+03  0.25757715855E+03  0.17300000000E+03 0.  1.
         -6    1    1    2    0  502 -0.13905913166E+03  0.75508868233E+02  0.30016111726E+03  0.38087363731E+03  0.17300000000E+03 0. -1.
</event>
<event>
 4    1  0.6123996E+000  0.1000000E+03  0.7546771E-02  0.1280296E+00
         21   -1    0    0  503  502  0.00000000000E+00  0.00000000000E+00  0.30117533485E+04  0.30117533485E+04  0.00000000000E+00 0. -1.
         21   -1    0    0  501  503 -0.00000000000E+00 -0.00000000000E+00 -0.69248842720E+02  0.69248842720E+02  0.00000000000E+00 0.  1.
          6    1    1    2  501    0  0.10995446697E+02  0.19655086571E+03  0.20965361956E+03  0.33561403852E+03  0.17300000000E+03 0.  1.
         -6    1    1    2    0  502 -0.10995446697E+02 -0.19655086571E+03  0.27328508862E+04  0.27453881527E+04  0.17300000000E+03 0. -1.
</event>
<event>
 4    1  0.6123996E+000  0.1000000E+03  0.7546771E-02  0.1280296E+00
         21   -1    0    0  503  502  0.00000000000E+00  0.00000000000E+00  0.27434239853E+03  0.27434239853E+03  0.00000000000E+00 0. -1.
         21   -1    0    0  501  503 -0.00000000000E+00 -0.00000000000E+00 -0.19809200792E+03  0.19809200792E+03  0.00000000000E+00 0.  1.
          6    1    1    2  501    0 -0.68354248373E+02  0.11256394290E+03 -0.47093765945E+02  0.22246295715E+03  0.17300000000E+03 0.  1.
         -6    1    1    2    0  502  0.68354248373E+02 -0.11256394290E+03  0.12334415656E+03  0.24997144931E+03  0.17300000000E+03 0. -1.
</event>
<event>
 4    1  0.6123996E+000  0.1000000E+03  0.7546771E-02  0.1280296E+00
         21   -1    0    0  503  502  0.00000000000E+00  0.00000000000E+00  0.10257041996E+03  0.10257041996E+03  0.00000000000E+00 0.  1.
         21   -1    0    0  501  503 -0.00000000000E+00 -0.00000000000E+00 -0.91523029642E+03  0.91523029642E+03  0.00000000000E+00 0.  1.
          6    1    1    2  501    0  0.48712710480E+02  0.18681521702E+03 -0.67759767648E+03  0.72549325610E+03  0.17300000000E+03 0.  1.
         -6    1    1    2    0  502 -0.48712710480E+02 -0.18681521702E+03 -0.13506219999E+03  0.29230746029E+03  0.17300000000E+03 0.  1.
</event>
<event>
 4    1  0.6123996E+000  0.1000000E+03  0.7546771E-02  0.1280296E+00
         21   -1    0    0  503  502  0.00000000000E+00  0.00000000000E+00  0.19321147859E+03  0.19321147859E+03  0.00000000000E+00 0.  1.
         21   -1    0    0  501  503 -0.00000000000E+00 -0.00000000000E+00 -0.33374507644E+03  0.33374507644E+03  0.00000000000E+00 0.  1.
          6    1    1    2  501    0  0.12464196024E+03 -0.47739848256E+02 -0.20451063204E+03  0.29927965180E+03  0.17300000000E+03 0.  1.
         -6    1    1    2    0  502 -0.12464196024E+03  0.47739848256E+02  0.63977034195E+02  0.22767690324E+03  0.17300000000E+03 0.  1.
</event>
<event>
 4    1  0.6123996E+000  0.1000000E+03  0.7546771E-02  0.1280296E+00
         21   -1    0    0  501  502  0.00000000000E+00  0.00000000000E+00  0.28000717383E+03  0.28000717383E+03  0.00000000000E+00 0. -1.
         21   -1    0    0  502  503 -0.00000000000E+00 -0.00000000000E+00 -0.11257483499E+03  0.11257483499E+03  0.00000000000E+00 0. -1.
          6    1    1    2  501    0  0.11081067294E+02  0.25344770813E+02  0.51910169411E+02  0.18272606040E+03  0.17300000000E+03 0. -1.
         -6    1    1    2    0  503 -0.11081067294E+02 -0.25344770813E+02  0.11552216943E+03  0.20985594843E+03  0.17300000000E+03 0. -1.
</event>
<event>
 4    1  0.6123996E+000  0.1000000E+03  0.7546771E-02  0.1280296E+00
         21   -1    0    0  501  502  0.00000000000E+00  0.00000000000E+00  0.11649328551E+04  0.11649328551E+04  0.00000000000E+00 0. -1.
         21   -1    0    0  502  503 -0.00000000000E+00 -0.00000000000E+00 -0.42634442533E+02  0.42634442533E+02  0.00000000000E+00 0. -1.
          6    1    1    2  501    0 -0.97541258211E+00 -0.11158537984E+03  0.79239072590E+03  0.81869671485E+03  0.17300000000E+03 0. -1.
         -6    1    1    2    0  503  0.97541258211E+00  0.11158537984E+03  0.32990768663E+03  0.38887058274E+03  0.17300000000E+03 0. -1.
</event>
<event>
 4    1  0.6123996E+000  0.1000000E+03  0.7546771E-02  0.1280296E+00
         21   -1    0    0  501  502  0.00000000000E+00  0.00000000000E+00  0.78603299152E+03  0.78603299152E+03  0.00000000000E+00 0. -1.
         21   -1    0    0  502  503 -0.00000000000E+00 -0.00000000000E+00 -0.20390338498E+03  0.20390338498E+03  0.00000000000E+00 0. -1.
          6    1    1    2  501    0  0.31420076662E+03  0.73403131777E+02  0.49132312170E+03  0.61272959078E+03  0.17300000000E+03 0. -1.
         -6    1    1    2    0  503 -0.31420076662E+03 -0.73403131777E+02  0.90806484840E+02  0.37720678571E+03  0.17300000000E+03 0. -1.
</event>
<event>
 4    1  0.6123996E+000  0.1000000E+03  0.7546771E-02  0.1280296E+00
         21   -1    0    0  501  502  0.00000000000E+00  0.00000000000E+00  0.20525030071E+04  0.20525030071E+04  0.00000000000E+00 0. -1.
         21   -1    0    0  502  503 -0.00000000000E+00 -0.00000000000E+00 -0.48053413825E+02  0.48053413825E+02  0.00000000000E+00 0. -1.
          6    1    1    2  501    0 -0.48236475314E+02  0.17278340536E+03  0.16413194766E+04  0.16601323703E+04  0.17300000000E+03 0. -1.
         -6    1    1    2    0  503  0.48236475314E+02 -0.17278340536E+03  0.36313011670E+03  0.44042405063E+03  0.17300000000E+03 0. -1.
</event>
<event>
 4    1  0.6123996E+000  0.1000000E+03  0.7546771E-02  0.1280296E+00
         21   -1    0    0  501  502  0.00000000000E+00  0.00000000000E+00  0.46840174712E+02  0.46840174712E+02  0.00000000000E+00 0. -1.
         21   -1    0    0  502  503 -0.00000000000E+00 -0.00000000000E+00 -0.73275178583E+03  0.73275178583E+03  0.00000000000E+00 0. -1.
          6    1    1    2  501    0  0.21226821641E+02  0.62789961978E+02 -0.34348969001E+03  0.39026571003E+03  0.17300000000E+03 0. -1.
         -6    1    1    2    0  503 -0.21226821641E+02 -0.62789961978E+02 -0.34242192111E+03  0.38932625051E+03  0.17300000000E+03 0. -1.
</event>
<event>
 4    1  0.6123996E+000  0.1000000E+03  0.7546771E-02  0.1280296E+00
         21   -1    0    0  501  502  0.00000000000E+00  0.00000000000E+00  0.38977571518E+03  0.38977571518E+03  0.00000000000E+00 0. -1.
         21   -1    0    0  502  503 -0.00000000000E+00 -0.00000000000E+00 -0.11028923597E+03  0.11028923597E+03  0.00000000000E+00 0. -1.
          6    1    1    2  501    0  0.41832673682E+02  0.62826488193E+02  0.24321412871E+03  0.30786239233E+03  0.17300000000E+03 0. -1.
         -6    1    1    2    0  503 -0.41832673682E+02 -0.62826488193E+02  0.36272350494E+02  0.19220255882E+03  0.17300000000E+03 0. -1.
</event>
<event>
 4    1  0.6123996E+000  0.1000000E+03  0.7546771E-02  0.1280296E+00
         21   -1    0    0  501  502  0.00000000000E+00  0.00000000000E+00  0.12992024594E+03  0.12992024594E+03  0.00000000000E+00 0. -1.
         21   -1    0    0  502  503 -0.00000000000E+00 -0.00000000000E+00 -0.41477549757E+03  0.41477549757E+03  0.00000000000E+00 0. -1.
          6    1    1    2  501    0 -0.31704761633E+02 -0.22379153381E+02  0.33370186473E+02  0.18041227165E+03  0.17300000000E+03 0. -1.
         -6    1    1    2    0  503  0.31704761633E+02  0.22379153381E+02 -0.31822543811E+03  0.36428347186E+03  0.17300000000E+03 0. -1.
</event>
<event>
 4    1  0.6123996E+000  0.1000000E+03  0.7546771E-02  0.1280296E+00
         21   -1    0    0  501  502  0.00000000000E+00  0.00000000000E+00  0.38816450452E+03  0.38816450452E+03  0.00000000000E+00 0. -1.
         21   -1    0    0  502  503 -0.00000000000E+00 -0.00000000000E+00 -0.11979352109E+03  0.11979352109E+03  0.00000000000E+00 0.  1.
          6    1    1    2  501    0 -0.69596647445E+02  0.10396880181E+03  0.98511664379E+02  0.23513135287E+03  0.17300000000E+03 0. -1.
         -6    1    1    2    0  503  0.69596647445E+02 -0.10396880181E+03  0.16985931905E+03  0.27282667273E+03  0.17300000000E+03 0.  1.
</event>
<event>
 4    1  0.6123996E+000  0.1000000E+03  0.7546771E-02  0.1280296E+00
         21   -1    0    0  503  502  0.00000000000E+00  0.00000000000E+00  0.19000465022E+03  0.19000465022E+03  0.00000000000E+00 0.  1.
         21   -1    0    0  501  503 -0.00000000000E+00 -0.00000000000E+00 -0.99168836867E+03  0.99168836867E+03  0.00000000000E+00 0.  1.
          6    1    1    2  501    0  0.32081835171E+02  0.16865559456E+03 -0.88976161713E+03  0.92253926151E+03  0.17300000000E+03 0.  1.
         -6    1    1    2    0  502 -0.32081835171E+02 -0.16865559456E+03  0.88077898679E+02  0.25915375737E+03  0.17300000000E+03 0.  1.
</event>
<event>
 4    1  0.6123996E+000  0.1000000E+03  0.7546771E-02  0.1280296E+00
         21   -1    0    0  501  502  0.00000000000E+00  0.00000000000E+00  0.67692486938E+03  0.67692486938E+03  0.00000000000E+00 0. -1.
         21   -1    0    0  502  503 -0.00000000000E+00 -0.00000000000E+00 -0.19372246453E+03  0.19372246453E+03  0.00000000000E+00 0. -1.
          6    1    1    2  501    0 -0.76816029748E+02 -0.20859633556E+03  0.51518435341E+03  0.58716015842E+03  0.17300000000E+03 0. -1.
         -6    1    1    2    0  503  0.76816029748E+02  0.20859633556E+03 -0.31981948565E+02  0.28348717549E+03  0.17300000000E+03 0. -1.
</event>
<event>
 4    1  0.6123996E+000  0.1000000E+03  0.7546771E-02  0.1280296E+00
         21   -1    0    0  501  502  0.00000000000E+00  0.00000000000E+00  0.10112255205E+03  0.10112255205E+03  0.00000000000E+00 0. -1.
         21   -1    0    0  502  503 -0.00000000000E+00 -0.00000000000E+00 -0.38449323064E+03  0.38449323064E+03  0.00000000000E+00 0. -1.
          6    1    1    2  501    0  0.78987926571E+02  0.50152249205E+02 -0.12437587596E+03  0.23270732512E+03  0.17300000000E+03 0. -1.
         -6    1    1    2    0  503 -0.78987926571E+02 -0.50152249205E+02 -0.15899480263E+03  0.25290845756E+03  0.17300000000E+03 0. -1.
</event>
<event>
 4    1  0.6123996E+000  0.1000000E+03  0.7546771E-02  0.1280296E+00
         21   -1    0    0  501  502  0.00000000000E+00  0.00000000000E+00  0.22099198789E+04  0.22099198789E+04  0.00000000000E+00 0. -1.
         21   -1    0    0  502  503 -0.00000000000E+00 -0.00000000000E+00 -0.23211901018E+02  0.23211901018E+02  0.00000000000E+00 0. -1.
          6    1    1    2  501    0  0.74293252025E+02  0.11833173192E+03  0.13051434190E+04  0.13239525030E+04  0.17300000000E+03 0. -1.
         -6    1    1    2    0  503 -0.74293252025E+02 -0.11833173192E+03  0.88156455886E+03  0.90917927689E+03  0.17300000000E+03 0. -1.
</event>
<event>
 4    1  0.6123996E+000  0.1000000E+03  0.7546771E-02  0.1280296E+00
         21   -1    0    0  503  502  0.00000000000E+00  0.00000000000E+00  0.30694437931E+03  0.30694437931E+03  0.00000000000E+00 0.  1.
         21   -1    0    0  501  503 -0.00000000000E+00 -0.00000000000E+00 -0.26631718722E+03  0.26631718722E+03  0.00000000000E+00 0. -1.
          6    1    1    2  501    0 -0.14553101124E+03 -0.17446032358E+03  0.34487268866E+02  0.28763527504E+03  0.17300000000E+03 0.  1.
         -6    1    1    2    0  502  0.14553101124E+03  0.17446032358E+03  0.61399232288E+01  0.28562629149E+03  0.17300000000E+03 0. -1.
</event>
<event>
 4    1  0.6123996E+000  0.1000000E+03  0.7546771E-02  0.1280296E+00
         21   -1    0    0  503  502  0.00000000000E+00  0.00000000000E+00  0.85019045712E+03  0.85019045712E+03  0.00000000000E+00 0.  1.
         21   -1    0    0  501  503 -0.00000000000E+00 -0.00000000000E+00 -0.94019488408E+02  0.94019488408E+02  0.00000000000E+00 0. -1.
          6    1    1    2  501    0  0.15386850895E+03  0.67651850759E+02  0.13180335176E+03  0.27486981371E+03  0.17300000000E+03 0.  1.
         -6    1    1    2    0  502 -0.15386850895E+03 -0.67651850759E+02  0.62436761696E+03  0.66934013182E+03  0.17300000000E+03 0. -1.
</event>
<event>
 4    1  0.6123996E+000  0.1000000E+03  0.7546771E-02  0.1280296E+00
         21   -1    0    0  503  502  0.00000000000E+00  0.00000000000E+00  0.55186532413E+02  0.55186532413E+02  0.00000000000E+00 0. -1.
         21   -1    0    0  501  503 -0.00000000000E+00 -0.00000000000E+00 -0.58439176372E+03  0.58439176372E+03  0.00000000000E+00 0.  1.
          6    1    1    2  501    0 -0.40499253358E+02  0.25975971179E+02 -0.26002287736E+03  0.31599974264E+03  0.17300000000E+03 0.  1.
         -6    1    1    2    0  502  0.40499253358E+02 -0.25975971179E+02 -0.26918235395E+03  0.32357855349E+03  0.17300000000E+03 0.  1.
</event>
<event>
 4    1  0.6123996E+000  0.1000000E+03  0.7546771E-02  0.1280296E+00
         21   -1    0    0  503  502  0.00000000000E+00  0.00000000000E+00  0.50950738214E+02  0.50950738214E+02  0.00000000000E+00 0. -1.
         21   -1    0    0  501  503 -0.00000000000E+00 -0.00000000000E+00 -0.16190709286E+04  0.16190709286E+04  0.00000000000E+00 0.  1.
          6    1    1    2  501    0  0.52113138833E+01  0.19433612988E+03 -0.11373869742E+04  0.11667783929E+04  0.17300000000E+03 0.  1.
         -6    1    1    2    0  502 -0.52113138833E+01 -0.19433612988E+03 -0.43073321621E+03  0.50324327389E+03  0.17300000000E+03 0.  1.
</event>
<event>
 4    1  0.6123996E+000  0.1000000E+03  0.7546771E-02  0.1280296E+00
         21   -1    0    0  503  502  0.00000000000E+00  0.00000000000E+00  0.15348846295E+04  0.15348846295E+04  0.00000000000E+00 0. -1.
         21   -1    0    0  501  503 -0.00000000000E+00 -0.00000000000E+00 -0.56350331418E+02  0.56350331418E+02  0.00000000000E+00 0.  1.
          6    1    1    2  501    0  0.79526372320E+02  0.12798938285E+03  0.24148485734E+03  0.33309107214E+03  0.17300000000E+03 0.  1.
         -6    1    1    2    0  502 -0.79526372320E+02 -0.12798938285E+03  0.12370494407E+04  0.12581438888E+04  0.17300000000E+03 0.  1.
</event>
<event>
 4    1  0.6123996E+000  0.1000000E+03  0.7546771E-02  0.1280296E+00
         21   -1    0    0  501  502  0.00000000000E+00  0.00000000000E+00  0.10353336760E+04  0.10353336760E+04  0.00000000000E+00 0. -1.
         21   -1    0    0  502  503 -0.00000000000E+00 -0.00000000000E+00 -0.48739320748E+02  0.48739320748E+02  0.00000000000E+00 0.  1.
          6    1    1    2  501    0 -0.47310638712E+02  0.12311359675E+03  0.62844844875E+03  0.66503511710E+03  0.17300000000E+03 0. -1.
         -6    1    1    2    0  503  0.47310638712E+02 -0.12311359675E+03  0.35814590653E+03  0.41903787968E+03  0.17300000000E+03 0.  1.
</event>
<event>
 4    1  0.6123996E+000  0.1000000E+03  0.7546771E-02  0.1280296E+00
         21   -1    0    0  501  502  0.00000000000E+00  0.00000000000E+00  0.14394599083E+03  0.14394599083E+03  0.00000000000E+00 0. -1.
         21   -1    0    0  502  503 -0.00000000000E+00 -0.00000000000E+00 -0.32942270048E+03  0.32942270048E+03  0.00000000000E+00 0.  1.
          6    1    1    2  501    0  0.47765629514E+02 -0.90314352144E+02 -0.18401174767E+03  0.27244735427E+03  0.17300000000E+03 0. -1.
         -6    1    1    2    0  503 -0.47765629514E+02  0.90314352144E+02 -0.14649619849E+01  0.20092133704E+03  0.17300000000E+03 0.  1.
</event>
<event>
 4    1  0.6123996E+000  0.1000000E+03  0.7546771E-02  0.1280296E+00
         21   -1    0    0  501  502  0.00000000000E+00  0.00000000000E+00  0.19557551014E+03  0.19557551014E+03  0.00000000000E+00 0.  1.
         21   -1    0    0  502  503 -0.00000000000E+00 -0.00000000000E+00 -0.19988155345E+03  0.19988155345E+03  0.00000000000E+00 0. -1.
          6    1    1    2  501    0  0.80782367558E+02 -0.21306487646E+02  0.44574254536E+02  0.19721972896E+03  0.17300000000E+03 0.  1.
         -6    1    1    2    0  503 -0.80782367558E+02  0.21306487646E+02 -0.48880297851E+02  0.19823733463E+03  0.17300000000E+03 0. -1.
</event>
<event>
 4    1  0.6123996E+000  0.1000000E+03  0.7546771E-02  0.1280296E+00
         21   -1    0    0  501  502  0.00000000000E+00  0.00000000000E+00  0.10823941960E+03  0.10823941960E+03  0.00000000000E+00 0.  1.
         21   -1    0    0  502  503 -0.00000000000E+00 -0.00000000000E+00 -0.46703227766E+03  0.46703227766E+03  0.00000000000E+00 0. -1.
          6    1    1    2  501    0 -0.11942303527E+02 -0.11172478263E+03 -0.64990808076E+02  0.21628187812E+03  0.17300000000E+03 0.  1.
         -6    1    1    2    0  503  0.11942303527E+02  0.11172478263E+03 -0.29380204999E+03  0.35898981914E+03  0.17300000000E+03 0. -1.
</event>
<event>
 4    1  0.6123996E+000  0.1000000E+03  0.7546771E-02  0.1280296E+00
         21   -1    0    0  501  502  0.00000000000E+00  0.00000000000E+00  0.19377405247E+03  0.19377405247E+03  0.00000000000E+00 0.  1.
         21   -1    0    0  502  503 -0.00000000000E+00 -0.00000000000E+00 -0.10147766713E+04  0.10147766713E+04  0.00000000000E+00 0. -1.
          6    1    1    2  501    0 -0.97510922761E+02  0.34927293461E+02  0.12768968325E+03  0.23866702976E+03  0.17300000000E+03 0. -1.
         -6    1    1    2    0  503  0.97510922761E+02 -0.34927293461E+02 -0.94869230203E+03  0.96988369396E+03  0.17300000000E+03 0.  1.
</event>
<event>
 4    1  0.6123996E+000  0.1000000E+03  0.7546771E-02  0.1280296E+00
         21   -1    0    0  503  502  0.00000000000E+00  0.00000000000E+00  0.67808939098E+02  0.67808939098E+02  0.00000000000E+00 0. -1.
         21   -1    0    0  501  503 -0.00000000000E+00 -0.00000000000E+00 -0.69470536049E+03  0.69470536049E+03  0.00000000000E+00 0.  1.
          6    1    1    2  501    0 -0.11126827516E+03  0.58229670924E+02 -0.37933636345E+03  0.43542668760E+03  0.17300000000E+03 0.  1.
         -6    1    1    2    0  502  0.11126827516E+03 -0.58229670924E+02 -0.24756005793E+03  0.32708761199E+03  0.17300000000E+03 0.  1.
</event>
<event>
 4    1  0.6123996E+000  0.1000000E+03  0.7546771E-02  0.1280296E+00
         21   -1    0    0  503  502  0.00000000000E+00  0.00000000000E+00  0.30732802697E+02  0.30732802697E+02  0.00000000000E+00 0. -1.
         21   -1    0    0  501  503 -0.00000000000E+00 -0.00000000000E+00 -0.11630701867E+04  0.11630701867E+04  0.00000000000E+00 0.  1.
          6    1    1    2  501    0 -0.62757464651E+02  0.38981666382E+02 -0.62584989197E+03  0.65350987519E+03  0.17300000000E+03 0.  1.
         -6    1    1    2    0  502  0.62757464651E+02 -0.38981666382E+02 -0.50648749207E+03  0.54029311425E+03  0.17300000000E+03 0.  1.
</event>
<event>
 4    1  0.6123996E+000  0.1000000E+03  0.7546771E-02  0.1280296E+00
         21   -1    0    0  501  502  0.00000000000E+00  0.00000000000E+00  0.88797570456E+03  0.88797570456E+03  0.00000000000E+00 0.  1.
         21   -1    0    0  502  503 -0.00000000000E+00 -0.00000000000E+00 -0.10034885811E+03  0.10034885811E+03  0.00000000000E+00 0. -1.
          6    1    1    2  501    0 -0.12567191893E+03 -0.20719524229E+03  0.35849985473E+03  0.46601979086E+03  0.17300000000E+03 0.  1.
         -6    1    1    2    0  503  0.12567191893E+03  0.20719524229E+03  0.42912699171E+03  0.52230477181E+03  0.17300000000E+03 0. -1.
</event>
<event>
 4    1  0.6123996E+000  0.1000000E+03  0.7546771E-02  0.1280296E+00
         21   -1    0    0  501  502  0.00000000000E+00  0.00000000000E+00  0.13671772328E+03  0.13671772328E+03  0.00000000000E+00 0.  1.
         21   -1    0    0  502  503 -0.00000000000E+00 -0.00000000000E+00 -0.30071049996E+03  0.30071049996E+03  0.00000000000E+00 0. -1.
          6    1    1    2  501    0 -0.99103251721E+02 -0.26903595064E+01 -0.12169923671E+03  0.23359879441E+03  0.17300000000E+03 0.  1.
         -6    1    1    2    0  503  0.99103251721E+02  0.26903595064E+01 -0.42293539973E+02  0.20382942884E+03  0.17300000000E+03 0. -1.
</event>
<event>
 4    1  0.6123996E+000  0.1000000E+03  0.7546771E-02  0.1280296E+00
         21   -1    0    0  501  502  0.00000000000E+00  0.00000000000E+00  0.50164317961E+03  0.50164317961E+03  0.00000000000E+00 0.  1.
         21   -1    0    0  502  503 -0.00000000000E+00 -0.00000000000E+00 -0.20707370888E+03  0.20707370888E+03  0.00000000000E+00 0.  1.
          6    1    1    2  501    0 -0.13545235037E+03  0.87857649353E+02  0.38786949887E+03  0.45435454650E+03  0.17300000000E+03 0.  1.
         -6    1    1    2    0  503  0.13545235037E+03 -0.87857649353E+02 -0.93300028143E+02  0.25436234199E+03  0.17300000000E+03 0.  1.
</event>
<event>
 4    1  0.6123996E+000  0.1000000E+03  0.7546771E-02  0.1280296E+00
         21   -1    0    0  501  502  0.00000000000E+00  0.00000000000E+00  0.23135746244E+03  0.23135746244E+03  0.00000000000E+00 0.  1.
         21   -1    0    0  502  503 -0.00000000000E+00 -0.00000000000E+00 -0.17691515433E+03  0.17691515433E+03  0.00000000000E+00 0.  1.
          6    1    1    2  501    0  0.10426414000E+03  0.10743214006E+02  0.23285540087E+02  0.20361150241E+03  0.17300000000E+03 0.  1.
         -6    1    1    2    0  503 -0.10426414000E+03 -0.10743214006E+02  0.31156768020E+02  0.20466111436E+03  0.17300000000E+03 0.  1.
</event>
<event>
 4    1  0.6123996E+000  0.1000000E+03  0.7546771E-02  0.1280296E+00
         21   -1    0    0  501  502  0.00000000000E+00  0.00000000000E+00  0.17530160492E+03  0.17530160492E+03  0.00000000000E+00 0. -1.
         21   -1    0    0  502  503 -0.00000000000E+00 -0.00000000000E+00 -0.19375493721E+03  0.19375493721E+03  0.00000000000E+00 0.  1.
          6    1    1    2  501    0 -0.46891273281E+02  0.23293759395E+02 -0.45260079977E+02  0.18632999108E+03  0.17300000000E+03 0.  1.
         -6    1    1    2    0  503  0.46891273281E+02 -0.23293759395E+02  0.26806747690E+02  0.18272655105E+03  0.17300000000E+03 0. -1.
</event>
<event>
 4    1  0.6123996E+000  0.1000000E+03  0.7546771E-02  0.1280296E+00
         21   -1    0    0  503  502  0.00000000000E+00  0.00000000000E+00  0.47460494113E+03  0.47460494113E+03  0.00000000000E+00 0. -1.
         21   -1    0    0  501  503 -0.00000000000E+00 -0.00000000000E+00 -0.10414510029E+03  0.10414510029E+03  0.00000000000E+00 0. -1.
          6    1    1    2  501    0 -0.12022723996E+03 -0.26017660839E+02  0.99213656401E+02  0.23431572188E+03  0.17300000000E+03 0. -1.
         -6    1    1    2    0  502  0.12022723996E+03  0.26017660839E+02  0.27124618444E+03  0.34443431954E+03  0.17300000000E+03 0. -1.
</event>
<event>
 4    1  0.6123996E+000  0.1000000E+03  0.7546771E-02  0.1280296E+00
         21   -1    0    0  503  502  0.00000000000E+00  0.00000000000E+00  0.85807825114E+02  0.85807825114E+02  0.00000000000E+00 0. -1.
         21   -1    0    0  501  503 -0.00000000000E+00 -0.00000000000E+00 -0.11089655141E+04  0.11089655141E+04  0.00000000000E+00 0. -1.
          6    1    1    2  501    0 -0.15759801692E+02 -0.64690907282E+01 -0.10050762224E+04  0.10199987418E+04  0.17300000000E+03 0. -1.
         -6    1    1    2    0  502  0.15759801692E+02  0.64690907282E+01 -0.18081466666E+02  0.17477459747E+03  0.17300000000E+03 0. -1.
</event>
<event>
 4    1  0.6123996E+000  0.1000000E+03  0.7546771E-02  0.1280296E+00
         21   -1    0    0  503  502  0.00000000000E+00  0.00000000000E+00  0.46559843338E+02  0.46559843338E+02  0.00000000000E+00 0. -1.
         21   -1    0    0  501  503 -0.00000000000E+00 -0.00000000000E+00 -0.90541406875E+03  0.90541406875E+03  0.00000000000E+00 0. -1.
          6    1    1    2  501    0  0.39839081335E+02 -0.49176039140E+02 -0.63963124999E+03  0.66562945487E+03  0.17300000000E+03 0. -1.
         -6    1    1    2    0  502 -0.39839081335E+02  0.49176039140E+02 -0.21922297542E+03  0.28634445722E+03  0.17300000000E+03 0. -1.
</event>
<event>
 4    1  0.6123996E+000  0.1000000E+03  0.7546771E-02  0.1280296E+00
         21   -1    0    0  503  502  0.00000000000E+00  0.00000000000E+00  0.14772320386E+03  0.14772320386E+03  0.00000000000E+00 0. -1.
         21   -1    0    0  501  503 -0.00000000000E+00 -0.00000000000E+00 -0.37583259603E+03  0.37583259603E+03  0.00000000000E+00 0. -1.
          6    1    1    2  501    0  0.52039754851E+02 -0.39903876464E+02 -0.27615975737E+03  0.33240587695E+03  0.17300000000E+03 0. -1.
         -6    1    1    2    0  502 -0.52039754851E+02  0.39903876464E+02  0.48050365198E+02  0.19114992293E+03  0.17300000000E+03 0. -1.
</event>
<event>
 4    1  0.6123996E+000  0.1000000E+03  0.7546771E-02  0.1280296E+00
         21   -1    0    0  503  502  0.00000000000E+00  0.00000000000E+00  0.13102034644E+03  0.13102034644E+03  0.00000000000E+00 0.  1.
         21   -1    0    0  501  503 -0.00000000000E+00 -0.00000000000E+00 -0.35901226255E+03  0.35901226255E+03  0.00000000000E+00 0.  1.
          6    1    1    2  501    0 -0.11690881786E+03 -0.27480616737E+02 -0.17254616371E+03  0.27225729486E+03  0.17300000000E+03 0.  1.
         -6    1    1    2    0  502  0.11690881786E+03  0.27480616737E+02 -0.55445752397E+02  0.21777531414E+03  0.17300000000E+03 0.  1.
</event>
<event>
 4    1  0.6123996E+000  0.1000000E+03  0.7546771E-02  0.1280296E+00
         21   -1    0    0  503  502  0.00000000000E+00  0.00000000000E+00  0.43902119376E+03  0.43902119376E+03  0.00000000000E+00 0.  1.
         21   -1    0    0  501  503 -0.00000000000E+00 -0.00000000000E+00 -0.25510387328E+03  0.25510387328E+03  0.00000000000E+00 0.  1.
          6    1    1    2  501    0 -0.62559547222E+02  0.62040885454E+02 -0.19073316982E+03  0.27215971503E+03  0.17300000000E+03 0.  1.
         -6    1    1    2    0  502  0.62559547222E+02 -0.62040885454E+02  0.37465049030E+03  0.42196535201E+03  0.17300000000E+03 0.  1.
</event>
<event>
 4    1  0.6123996E+000  0.1000000E+03  0.7546771E-02  0.1280296E+00
         21   -1    0    0  501  502  0.00000000000E+00  0.00000000000E+00  0.55221769847E+03  0.55221769847E+03  0.00000000000E+00 0.  1.
         21   -1    0    0  502  503 -0.00000000000E+00 -0.00000000000E+00 -0.60149743441E+03  0.60149743441E+03  0.00000000000E+00 0.  1.
          6    1    1    2  501    0 -0.92437284799E+02 -0.94044252649E+02  0.50955128723E+03  0.55404014962E+03  0.17300000000E+03 0.  1.
         -6    1    1    2    0  503  0.92437284799E+02  0.94044252649E+02 -0.55883102317E+03  0.59967498325E+03  0.17300000000E+03 0.  1.
</event>
<event>
 4    1  0.6123996E+000  0.1000000E+03  0.7546771E-02  0.1280296E+00
         21   -1    0    0  501  502  0.00000000000E+00  0.00000000000E+00  0.13389723934E+04  0.13389723934E+04  0.00000000000E+00 0.  1.
         21   -1    0    0  502  503 -0.00000000000E+00 -0.00000000000E+00 -0.27770696680E+02  0.27770696680E+02  0.00000000000E+00 0.  1.
          6    1    1    2  501    0 -0.43763088376E+01 -0.84936181552E+02  0.67218115231E+03  0.69927806239E+03  0.17300000000E+03 0.  1.
         -6    1    1    2    0  503  0.43763088376E+01  0.84936181552E+02  0.63902054442E+03  0.66746502770E+03  0.17300000000E+03 0.  1.
</event>
<event>
 4    1  0.6123996E+000  0.1000000E+03  0.7546771E-02  0.1280296E+00
         21   -1    0    0  501  502  0.00000000000E+00  0.00000000000E+00  0.10308027534E+03  0.10308027534E+03  0.00000000000E+00 0.  1.
         21   -1    0    0  502  503 -0.00000000000E+00 -0.00000000000E+00 -0.38422314635E+03  0.38422314635E+03  0.00000000000E+00 0.  1.
          6    1    1    2  501    0  0.50236695444E+02  0.66170926484E+02 -0.76082810771E+02  0.20644590375E+03  0.17300000000E+03 0.  1.
         -6    1    1    2    0  503 -0.50236695444E+02 -0.66170926484E+02 -0.20506006024E+03  0.28085751794E+03  0.17300000000E+03 0.  1.
</event>
<event>
 4    1  0.6123996E+000  0.1000000E+03  0.7546771E-02  0.1280296E+00
         21   -1    0    0  503  502  0.00000000000E+00  0.00000000000E+00  0.11558050104E+04  0.11558050104E+04  0.00000000000E+00 0. -1.
         21   -1    0    0  501  503 -0.00000000000E+00 -0.00000000000E+00 -0.48063289559E+02  0.48063289559E+02  0.00000000000E+00 0. -1.
          6    1    1    2  501    0  0.10808754695E+02 -0.10240898786E+03  0.24089472802E+03  0.31394856260E+03  0.17300000000E+03 0. -1.
         -6    1    1    2    0  502 -0.10808754695E+02  0.10240898786E+03  0.86684699279E+03  0.88991973733E+03  0.17300000000E+03 0. -1.
</event>
<event>
 4    1  0.6123996E+000  0.1000000E+03  0.7546771E-02  0.1280296E+00
         21   -1    0    0  501  502  0.00000000000E+00  0.00000000000E+00  0.40487809427E+03  0.40487809427E+03  0.00000000000E+00 0.  1.
         21   -1    0    0  502  503 -0.00000000000E+00 -0.00000000000E+00 -0.12810069511E+03  0.12810069511E+03  0.00000000000E+00 0.  1.
          6    1    1    2  501    0 -0.50286849673E+02  0.13884701363E+03  0.12510323625E+03  0.25959021585E+03  0.17300000000E+03 0.  1.
         -6    1    1    2    0  503  0.50286849673E+02 -0.13884701363E+03  0.15167416291E+03  0.27338857353E+03  0.17300000000E+03 0.  1.
</event>
<event>
 4    1  0.6123996E+000  0.1000000E+03  0.7546771E-02  0.1280296E+00
         21   -1    0    0  501  502  0.00000000000E+00  0.00000000000E+00  0.11027506817E+03  0.11027506817E+03  0.00000000000E+00 0.  1.
         21   -1    0    0  502  503 -0.00000000000E+00 -0.00000000000E+00 -0.28738332853E+03  0.28738332853E+03  0.00000000000E+00 0.  1.
          6    1    1    2  501    0 -0.14545323806E+02 -0.38371998810E+02 -0.78674891448E+02  0.19442920378E+03  0.17300000000E+03 0.  1.
         -6    1    1    2    0  503  0.14545323806E+02  0.38371998810E+02 -0.98433368912E+02  0.20322919291E+03  0.17300000000E+03 0.  1.
</event>
<event>
 4    1  0.6123996E+000  0.1000000E+03  0.7546771E-02  0.1280296E+00
         21   -1    0    0  501  502  0.00000000000E+00  0.00000000000E+00  0.14319046218E+03  0.14319046218E+03  0.00000000000E+00 0.  1.
         21   -1    0    0  502  503 -0.00000000000E+00 -0.00000000000E+00 -0.50708655061E+03  0.50708655061E+03  0.00000000000E+00 0.  1.
          6    1    1    2  501    0 -0.14828051399E+03 -0.13557386961E+03 -0.12391011868E+03  0.29266038758E+03  0.17300000000E+03 0.  1.
         -6    1    1    2    0  503  0.14828051399E+03  0.13557386961E+03 -0.23998596975E+03  0.35761662521E+03  0.17300000000E+03 0.  1.
</event>
<event>
 4    1  0.6123996E+000  0.1000000E+03  0.7546771E-02  0.1280296E+00
         21   -1    0    0  503  502  0.00000000000E+00  0.00000000000E+00  0.19449696534E+03  0.19449696534E+03  0.00000000000E+00 0. -1.
         21   -1    0    0  501  503 -0.00000000000E+00 -0.00000000000E+00 -0.30845148071E+03  0.30845148071E+03  0.00000000000E+00 0. -1.
          6    1    1    2  501    0 -0.58938033884E+02 -0.14103425670E+03  0.27058784341E+02  0.23243392870E+03  0.17300000000E+03 0. -1.
         -6    1    1    2    0  502  0.58938033884E+02  0.14103425670E+03 -0.14101329971E+03  0.27051451735E+03  0.17300000000E+03 0. -1.
</event>
<event>
 4    1  0.6123996E+000  0.1000000E+03  0.7546771E-02  0.1280296E+00
         21   -1    0    0  503  502  0.00000000000E+00  0.00000000000E+00  0.16107086839E+03  0.16107086839E+03  0.00000000000E+00 0.  1.
         21   -1    0    0  501  503 -0.00000000000E+00 -0.00000000000E+00 -0.46953793082E+03  0.46953793082E+03  0.00000000000E+00 0.  1.
          6    1    1    2  501    0 -0.17351943702E+02  0.46316382553E+01 -0.39846729822E+03  0.43477319349E+03  0.17300000000E+03 0.  1.
         -6    1    1    2    0  502  0.17351943702E+02 -0.46316382553E+01  0.90000235790E+02  0.19583560571E+03  0.17300000000E+03 0.  1.
</event>
<event>
 4    1  0.6123996E+000  0.1000000E+03  0.7546771E-02  0.1280296E+00
         21   -1    0    0  503  502  0.00000000000E+00  0.00000000000E+00  0.83702678277E+02  0.83702678277E+02  0.00000000000E+00 0.  1.
         21   -1    0    0  501  503 -0.00000000000E+00 -0.00000000000E+00 -0.56977957457E+03  0.56977957457E+03  0.00000000000E+00 0.  1.
          6    1    1    2  501    0 -0.13237708693E+03  0.92996940429E+01 -0.26153892667E+03  0.34050225787E+03  0.17300000000E+03 0.  1.
         -6    1    1    2    0  502  0.13237708693E+03 -0.92996940429E+01 -0.22453796963E+03  0.31297999498E+03  0.17300000000E+03 0.  1.
</event>
<event>
 4    1  0.6123996E+000  0.1000000E+03  0.7546771E-02  0.1280296E+00
         21   -1    0    0  503  502  0.00000000000E+00  0.00000000000E+00  0.25388097532E+03  0.25388097532E+03  0.00000000000E+00 0.  1.
         21   -1    0    0  501  503 -0.00000000000E+00 -0.00000000000E+00 -0.31644332419E+03  0.31644332419E+03  0.00000000000E+00 0.  1.
          6    1    1    2  501    0 -0.56153618045E+02  0.13252183452E+03 -0.20464884559E+03  0.30417990638E+03  0.17300000000E+03 0.  1.
         -6    1    1    2    0  502  0.56153618045E+02 -0.13252183452E+03  0.14208649672E+03  0.26614439313E+03  0.17300000000E+03 0.  1.
</event>
<event>
 4    1  0.6123996E+000  0.1000000E+03  0.7546771E-02  0.1280296E+00
         21   -1    0    0  503  502  0.00000000000E+00  0.00000000000E+00  0.74295874788E+02  0.74295874788E+02  0.00000000000E+00 0.  1.
         21   -1    0    0  501  503 -0.00000000000E+00 -0.00000000000E+00 -0.89606535761E+03  0.89606535761E+03  0.00000000000E+00 0.  1.
          6    1    1    2  501    0 -0.18086261426E+03 -0.62003313616E+02 -0.42865067937E+03  0.50022604997E+03  0.17300000000E+03 0.  1.
         -6    1    1    2    0  502  0.18086261426E+03  0.62003313616E+02 -0.39311880344E+03  0.47013518243E+03  0.17300000000E+03 0.  1.
</event>
<event>
 4    1  0.6123996E+000  0.1000000E+03  0.7546771E-02  0.1280296E+00
         21   -1    0    0  503  502  0.00000000000E+00  0.00000000000E+00  0.67079129610E+03  0.67079129610E+03  0.00000000000E+00 0.  1.
         21   -1    0    0  501  503 -0.00000000000E+00 -0.00000000000E+00 -0.21620127561E+03  0.21620127561E+03  0.00000000000E+00 0.  1.
          6    1    1    2  501    0 -0.29941623805E+02  0.57833601836E+02 -0.16044996706E+03  0.24477421896E+03  0.17300000000E+03 0.  1.
         -6    1    1    2    0  502  0.29941623805E+02 -0.57833601836E+02  0.61503998755E+03  0.64221835276E+03  0.17300000000E+03 0.  1.
</event>
<event>
 4    1  0.6123996E+000  0.1000000E+03  0.7546771E-02  0.1280296E+00
         21   -1    0    0  503  502  0.00000000000E+00  0.00000000000E+00  0.58642817418E+03  0.58642817418E+03  0.00000000000E+00 0.  1.
         21   -1    0    0  501  503 -0.00000000000E+00 -0.00000000000E+00 -0.64548701409E+02  0.64548701409E+02  0.00000000000E+00 0.  1.
          6    1    1    2  501    0 -0.28195866468E+02 -0.80756684722E+02  0.21970458603E+03  0.29243076810E+03  0.17300000000E+03 0.  1.
         -6    1    1    2    0  502  0.28195866468E+02  0.80756684722E+02  0.30217488674E+03  0.35854610748E+03  0.17300000000E+03 0.  1.
</event>
<event>
 4    1  0.6123996E+000  0.1000000E+03  0.7546771E-02  0.1280296E+00
         21   -1    0    0  501  502  0.00000000000E+00  0.00000000000E+00  0.17940631260E+03  0.17940631260E+03  0.00000000000E+00 0. -1.
         21   -1    0    0  502  503 -0.00000000000E+00 -0.00000000000E+00 -0.25528164807E+03  0.25528164807E+03  0.00000000000E+00 0.  1.
          6    1    1    2  501    0  0.15828941554E+02  0.64998587651E+02  0.70472917864E+02  0.19842077497E+03  0.17300000000E+03 0. -1.
         -6    1    1    2    0  503 -0.15828941554E+02 -0.64998587651E+02 -0.14634825334E+03  0.23626718571E+03  0.17300000000E+03 0. -1.
</event>
<event>
 4    1  0.6123996E+000  0.1000000E+03  0.7546771E-02  0.1280296E+00
         21   -1    0    0  501  502  0.00000000000E+00  0.00000000000E+00  0.57364128792E+03  0.57364128792E+03  0.00000000000E+00 0. -1.
         21   -1    0    0  502  503 -0.00000000000E+00 -0.00000000000E+00 -0.18020268353E+03  0.18020268353E+03  0.00000000000E+00 0.  1.
          6    1    1    2  501    0 -0.13191052675E+03 -0.16489475861E+03  0.39585028502E+03  0.48085040983E+03  0.17300000000E+03 0. -1.
         -6    1    1    2    0  503  0.13191052675E+03  0.16489475861E+03 -0.24116806214E+01  0.27299356162E+03  0.17300000000E+03 0. -1.
</event>
<event>
 4    1  0.6123996E+000  0.1000000E+03  0.7546771E-02  0.1280296E+00
         21   -1    0    0  503  502  0.00000000000E+00  0.00000000000E+00  0.72539745636E+02  0.72539745636E+02  0.00000000000E+00 0.  1.
         21   -1    0    0  501  503 -0.00000000000E+00 -0.00000000000E+00 -0.14085753635E+04  0.14085753635E+04  0.00000000000E+00 0. -1.
          6    1    1    2  501    0  0.23243305039E+03 -0.20555645340E+02 -0.97712097961E+03  0.10193831793E+04  0.17300000000E+03 0. -1.
         -6    1    1    2    0  502 -0.23243305039E+03  0.20555645340E+02 -0.35891463826E+03  0.46173192983E+03  0.17300000000E+03 0. -1.
</event>
<event>
 4    1  0.6123996E+000  0.1000000E+03  0.7546771E-02  0.1280296E+00
         21   -1    0    0  503  502  0.00000000000E+00  0.00000000000E+00  0.43507395122E+03  0.43507395122E+03  0.00000000000E+00 0.  1.
         21   -1    0    0  501  503 -0.00000000000E+00 -0.00000000000E+00 -0.74021813710E+02  0.74021813710E+02  0.00000000000E+00 0.  1.
          6    1    1    2  501    0  0.40491843237E+02 -0.54071820424E+01  0.14557575554E+03  0.22976102277E+03  0.17300000000E+03 0. -1.
         -6    1    1    2    0  502 -0.40491843237E+02  0.54071820424E+01  0.21547638197E+03  0.27933474215E+03  0.17300000000E+03 0. -1.
</event>
<event>
 4    1  0.6123996E+000  0.1000000E+03  0.7546771E-02  0.1280296E+00
         21   -1    0    0  503  502  0.00000000000E+00  0.00000000000E+00  0.51071044894E+03  0.51071044894E+03  0.00000000000E+00 0.  1.
         21   -1    0    0  501  503 -0.00000000000E+00 -0.00000000000E+00 -0.15988506885E+03  0.15988506885E+03  0.00000000000E+00 0.  1.
          6    1    1    2  501    0 -0.13034214568E+03  0.10778393302E+03 -0.30012442603E+01  0.24195962189E+03  0.17300000000E+03 0. -1.
         -6    1    1    2    0  502  0.13034214568E+03 -0.10778393302E+03  0.35382662435E+03  0.42863589590E+03  0.17300000000E+03 0. -1.
</event>
<event>
 4    1  0.6123996E+000  0.1000000E+03  0.7546771E-02  0.1280296E+00
         21   -1    0    0  503  502  0.00000000000E+00  0.00000000000E+00  0.70981088197E+03  0.70981088197E+03  0.00000000000E+00 0.  1.
         21   -1    0    0  501  503 -0.00000000000E+00 -0.00000000000E+00 -0.93253100783E+02  0.93253100783E+02  0.00000000000E+00 0.  1.
          6    1    1    2  501    0 -0.72618594726E+02  0.32765462735E+02  0.38337696690E+02  0.19428282177E+03  0.17300000000E+03 0. -1.
         -6    1    1    2    0  502  0.72618594726E+02 -0.32765462735E+02  0.57822008450E+03  0.60878116098E+03  0.17300000000E+03 0. -1.
</event>
<event>
 4    1  0.6123996E+000  0.1000000E+03  0.7546771E-02  0.1280296E+00
         21   -1    0    0  501  502  0.00000000000E+00  0.00000000000E+00  0.28821068388E+03  0.28821068388E+03  0.00000000000E+00 0. -1.
         21   -1    0    0  502  503 -0.00000000000E+00 -0.00000000000E+00 -0.49940184420E+03  0.49940184420E+03  0.00000000000E+00 0.  1.
          6    1    1    2  501    0  0.18354912216E+02 -0.19076889575E+03  0.18295368594E+03  0.31643439381E+03  0.17300000000E+03 0.  1.
         -6    1    1    2    0  503 -0.18354912216E+02  0.19076889575E+03 -0.39414484626E+03  0.47117813427E+03  0.17300000000E+03 0.  1.
</event>
<event>
 4    1  0.6123996E+000  0.1000000E+03  0.7546771E-02  0.1280296E+00
         21   -1    0    0  501  502  0.00000000000E+00  0.00000000000E+00  0.89727725637E+02  0.89727725637E+02  0.00000000000E+00 0. -1.
         21   -1    0    0  502  503 -0.00000000000E+00 -0.00000000000E+00 -0.62049086788E+03  0.62049086788E+03  0.00000000000E+00 0.  1.
          6    1    1    2  501    0 -0.15766038222E+03  0.13032499438E+01 -0.22054071928E+03  0.32159866828E+03  0.17300000000E+03 0.  1.
         -6    1    1    2    0  503  0.15766038222E+03 -0.13032499438E+01 -0.31022242297E+03  0.38861992524E+03  0.17300000000E+03 0.  1.
</event>
<event>
 4    1  0.6123996E+000  0.1000000E+03  0.7546771E-02  0.1280296E+00
         21   -1    0    0  503  502  0.00000000000E+00  0.00000000000E+00  0.86709352806E+03  0.86709352806E+03  0.00000000000E+00 0.  1.
         21   -1    0    0  501  503 -0.00000000000E+00 -0.00000000000E+00 -0.14421582813E+03  0.14421582813E+03  0.00000000000E+00 0. -1.
          6    1    1    2  501    0  0.13011248104E+03  0.18578063165E+03  0.62601018493E+02  0.29204723648E+03  0.17300000000E+03 0.  1.
         -6    1    1    2    0  502 -0.13011248104E+03 -0.18578063165E+03  0.66027668143E+03  0.71926211971E+03  0.17300000000E+03 0.  1.
</event>
<event>
 4    1  0.6123996E+000  0.1000000E+03  0.7546771E-02  0.1280296E+00
         21   -1    0    0  503  502  0.00000000000E+00  0.00000000000E+00  0.11542376958E+04  0.11542376958E+04  0.00000000000E+00 0.  1.
         21   -1    0    0  501  503 -0.00000000000E+00 -0.00000000000E+00 -0.78595051580E+02  0.78595051580E+02  0.00000000000E+00 0. -1.
          6    1    1    2  501    0  0.17123815354E+03  0.18653762785E+02  0.17679896274E+03  0.30142551538E+03  0.17300000000E+03 0.  1.
         -6    1    1    2    0  502 -0.17123815354E+03 -0.18653762785E+02  0.89884368147E+03  0.93140723200E+03  0.17300000000E+03 0.  1.
</event>
<event>
 4    1  0.6123996E+000  0.1000000E+03  0.7546771E-02  0.1280296E+00
         21   -1    0    0  503  502  0.00000000000E+00  0.00000000000E+00  0.38910344423E+03  0.38910344423E+03  0.00000000000E+00 0.  1.
         21   -1    0    0  501  503 -0.00000000000E+00 -0.00000000000E+00 -0.13782533370E+03  0.13782533370E+03  0.00000000000E+00 0. -1.
          6    1    1    2  501    0  0.11264473958E+03 -0.11426064159E+02  0.69699400195E+01  0.20687429121E+03  0.17300000000E+03 0.  1.
         -6    1    1    2    0  502 -0.11264473958E+03  0.11426064159E+02  0.24430817051E+03  0.32005448673E+03  0.17300000000E+03 0.  1.
</event>
<event>
 4    1  0.6123996E+000  0.1000000E+03  0.7546771E-02  0.1280296E+00
         21   -1    0    0  503  502  0.00000000000E+00  0.00000000000E+00  0.59655731843E+02  0.59655731843E+02  0.00000000000E+00 0. -1.
         21   -1    0    0  501  503 -0.00000000000E+00 -0.00000000000E+00 -0.72309185866E+03  0.72309185866E+03  0.00000000000E+00 0.  1.
          6    1    1    2  501    0 -0.67551510858E+02  0.89530963570E+02 -0.37896211250E+03  0.43141660001E+03  0.17300000000E+03 0. -1.
         -6    1    1    2    0  502  0.67551510858E+02 -0.89530963570E+02 -0.28447401432E+03  0.35133099049E+03  0.17300000000E+03 0.  1.
</event>
<event>
 4    1  0.6123996E+000  0.1000000E+03  0.7546771E-02  0.1280296E+00
         21   -1    0    0  503  502  0.00000000000E+00  0.00000000000E+00  0.18588414108E+03  0.18588414108E+03  0.00000000000E+00 0. -1.
         21   -1    0    0  501  503 -0.00000000000E+00 -0.00000000000E+00 -0.28630799607E+03  0.28630799607E+03  0.00000000000E+00 0.  1.
          6    1    1    2  501    0 -0.13422739702E+03 -0.66992078495E+02 -0.78907357613E+02  0.24219889301E+03  0.17300000000E+03 0. -1.
         -6    1    1    2    0  502  0.13422739702E+03  0.66992078495E+02 -0.21516497381E+02  0.22999324414E+03  0.17300000000E+03 0.  1.
</event>
<event>
 4    1  0.6123996E+000  0.1000000E+03  0.7546771E-02  0.1280296E+00
         21   -1    0    0  503  502  0.00000000000E+00  0.00000000000E+00  0.93749656874E+02  0.93749656874E+02  0.00000000000E+00 0. -1.
         21   -1    0    0  501  503 -0.00000000000E+00 -0.00000000000E+00 -0.42971518456E+03  0.42971518456E+03  0.00000000000E+00 0.  1.
          6    1    1    2  501    0  0.74515799151E+02  0.56492682268E+02 -0.22034869595E+03  0.29534145540E+03  0.17300000000E+03 0. -1.
         -6    1    1    2    0  502 -0.74515799151E+02 -0.56492682268E+02 -0.11561683174E+03  0.22812338603E+03  0.17300000000E+03 0.  1.
</event>
<event>
 4    1  0.6123996E+000  0.1000000E+03  0.7546771E-02  0.1280296E+00
         21   -1    0    0  501  502  0.00000000000E+00  0.00000000000E+00  0.19116677304E+03  0.19116677304E+03  0.00000000000E+00 0.  1.
         21   -1    0    0  502  503 -0.00000000000E+00 -0.00000000000E+00 -0.73921857918E+03  0.73921857918E+03  0.00000000000E+00 0. -1.
          6    1    1    2  501    0  0.22521946735E+03 -0.10434354873E+03  0.20572799212E+01  0.30256340994E+03  0.17300000000E+03 0.  1.
         -6    1    1    2    0  503 -0.22521946735E+03  0.10434354873E+03 -0.55010908606E+03  0.62782194227E+03  0.17300000000E+03 0. -1.
</event>
<event>
 4    1  0.6123996E+000  0.1000000E+03  0.7546771E-02  0.1280296E+00
         21   -1    0    0  501  502  0.00000000000E+00  0.00000000000E+00  0.43759168492E+03  0.43759168492E+03  0.00000000000E+00 0. -1.
         21   -1    0    0  502  503 -0.00000000000E+00 -0.00000000000E+00 -0.19457765396E+03  0.19457765396E+03  0.00000000000E+00 0. -1.
          6    1    1    2  501    0 -0.15247687991E+03  0.17722221526E+03  0.95881002381E+02  0.30623370015E+03  0.17300000000E+03 0. -1.
         -6    1    1    2    0  503  0.15247687991E+03 -0.17722221526E+03  0.14713302858E+03  0.32593563872E+03  0.17300000000E+03 0. -1.
</event>
<event>
 4    1  0.6123996E+000  0.1000000E+03  0.7546771E-02  0.1280296E+00
         21   -1    0    0  501  502  0.00000000000E+00  0.00000000000E+00  0.30701943100E+03  0.30701943100E+03  0.00000000000E+00 0. -1.
         21   -1    0    0  502  503 -0.00000000000E+00 -0.00000000000E+00 -0.15361258663E+03  0.15361258663E+03  0.00000000000E+00 0. -1.
          6    1    1    2  501    0  0.12791006676E+03 -0.19622736952E+02  0.53299017116E+02  0.22252150954E+03  0.17300000000E+03 0. -1.
         -6    1    1    2    0  503 -0.12791006676E+03  0.19622736952E+02  0.10010782725E+03  0.23811050809E+03  0.17300000000E+03 0. -1.
</event>
<event>
 4    1  0.6123996E+000  0.1000000E+03  0.7546771E-02  0.1280296E+00
         21   -1    0    0  501  502  0.00000000000E+00  0.00000000000E+00  0.28385756202E+03  0.28385756202E+03  0.00000000000E+00 0. -1.
         21   -1    0    0  502  503 -0.00000000000E+00 -0.00000000000E+00 -0.18364987024E+03  0.18364987024E+03  0.00000000000E+00 0. -1.
          6    1    1    2  501    0  0.46572252449E+02  0.10486340642E+03  0.14742413453E+03  0.25461379410E+03  0.17300000000E+03 0. -1.
         -6    1    1    2    0  503 -0.46572252449E+02 -0.10486340642E+03 -0.47216442751E+02  0.21289363816E+03  0.17300000000E+03 0. -1.
</event>
<event>
 4    1  0.6123996E+000  0.1000000E+03  0.7546771E-02  0.1280296E+00
         21   -1    0    0  501  502  0.00000000000E+00  0.00000000000E+00  0.31531347512E+04  0.31531347512E+04  0.00000000000E+00 0. -1.
         21   -1    0    0  502  503 -0.00000000000E+00 -0.00000000000E+00 -0.10338111385E+02  0.10338111385E+02  0.00000000000E+00 0. -1.
          6    1    1    2  501    0  0.30575150383E+02  0.41622064409E+02  0.15810836320E+04  0.15913584409E+04  0.17300000000E+03 0. -1.
         -6    1    1    2    0  503 -0.30575150383E+02 -0.41622064409E+02  0.15617130078E+04  0.15721144216E+04  0.17300000000E+03 0. -1.
</event>
<event>
 4    1  0.6123996E+000  0.1000000E+03  0.7546771E-02  0.1280296E+00
         21   -1    0    0  501  502  0.00000000000E+00  0.00000000000E+00  0.91620468338E+02  0.91620468338E+02  0.00000000000E+00 0. -1.
         21   -1    0    0  502  503 -0.00000000000E+00 -0.00000000000E+00 -0.88668160367E+03  0.88668160367E+03  0.00000000000E+00 0. -1.
          6    1    1    2  501    0 -0.14117706220E+03  0.15133153340E+02 -0.94639557723E+02  0.24299304745E+03  0.17300000000E+03 0. -1.
         -6    1    1    2    0  503  0.14117706220E+03 -0.15133153340E+02 -0.70042157761E+03  0.73530902456E+03  0.17300000000E+03 0. -1.
</event>
<event>
 4    1  0.6123996E+000  0.1000000E+03  0.7546771E-02  0.1280296E+00
         21   -1    0    0  503  502  0.00000000000E+00  0.00000000000E+00  0.48933602875E+03  0.48933602875E+03  0.00000000000E+00 0. -1.
         21   -1    0    0  501  503 -0.00000000000E+00 -0.00000000000E+00 -0.62445083083E+02  0.62445083083E+02  0.00000000000E+00 0. -1.
          6    1    1    2  501    0 -0.19523729221E+02 -0.15054739063E+02  0.22046975955E+03  0.28132496520E+03  0.17300000000E+03 0. -1.
         -6    1    1    2    0  502  0.19523729221E+02  0.15054739063E+02  0.20642118612E+03  0.27045614663E+03  0.17300000000E+03 0. -1.
</event>
<event>
 4    1  0.6123996E+000  0.1000000E+03  0.7546771E-02  0.1280296E+00
         21   -1    0    0  501  502  0.00000000000E+00  0.00000000000E+00  0.84486708086E+03  0.84486708086E+03  0.00000000000E+00 0. -1.
         21   -1    0    0  502  503 -0.00000000000E+00 -0.00000000000E+00 -0.98801047361E+02  0.98801047361E+02  0.00000000000E+00 0.  1.
          6    1    1    2  501    0  0.11223796806E+03  0.34681731361E+01  0.70345097617E+03  0.73306320708E+03  0.17300000000E+03 0. -1.
         -6    1    1    2    0  503 -0.11223796806E+03 -0.34681731361E+01  0.42615057334E+02  0.21060492115E+03  0.17300000000E+03 0.  1.
</event>
<event>
 4    1  0.6123996E+000  0.1000000E+03  0.7546771E-02  0.1280296E+00
         21   -1    0    0  501  502  0.00000000000E+00  0.00000000000E+00  0.82387885622E+02  0.82387885622E+02  0.00000000000E+00 0. -1.
         21   -1    0    0  502  503 -0.00000000000E+00 -0.00000000000E+00 -0.60823754672E+03  0.60823754672E+03  0.00000000000E+00 0.  1.
          6    1    1    2  501    0 -0.85484114211E+02  0.11145112990E+03 -0.23007438943E+03  0.32030003561E+03  0.17300000000E+03 0. -1.
         -6    1    1    2    0  503  0.85484114211E+02 -0.11145112990E+03 -0.29577527167E+03  0.37032539673E+03  0.17300000000E+03 0.  1.
</event>
<event>
 4    1  0.6123996E+000  0.1000000E+03  0.7546771E-02  0.1280296E+00
         21   -1    0    0  501  502  0.00000000000E+00  0.00000000000E+00  0.16454987431E+03  0.16454987431E+03  0.00000000000E+00 0. -1.
         21   -1    0    0  502  503 -0.00000000000E+00 -0.00000000000E+00 -0.33122579038E+03  0.33122579038E+03  0.00000000000E+00 0. -1.
          6    1    1    2  501    0 -0.33278020107E+01 -0.15471643728E+03 -0.56773498767E+02  0.23895706809E+03  0.17300000000E+03 0. -1.
         -6    1    1    2    0  503  0.33278020107E+01  0.15471643728E+03 -0.10990241730E+03  0.25681859660E+03  0.17300000000E+03 0. -1.
</event>
<event>
 4    1  0.6123996E+000  0.1000000E+03  0.7546771E-02  0.1280296E+00
         21   -1    0    0  503  502  0.00000000000E+00  0.00000000000E+00  0.54096787143E+02  0.54096787143E+02  0.00000000000E+00 0.  1.
         21   -1    0    0  501  503 -0.00000000000E+00 -0.00000000000E+00 -0.59261343942E+03  0.59261343942E+03  0.00000000000E+00 0. -1.
          6    1    1    2  501    0 -0.23474448749E+02 -0.21016026414E+02 -0.20836879410E+03  0.27265230141E+03  0.17300000000E+03 0.  1.
         -6    1    1    2    0  502  0.23474448749E+02  0.21016026414E+02 -0.33014785818E+03  0.37405792516E+03  0.17300000000E+03 0. -1.
</event>
<event>
 4    1  0.6123996E+000  0.1000000E+03  0.7546771E-02  0.1280296E+00
         21   -1    0    0  501  502  0.00000000000E+00  0.00000000000E+00  0.77443904084E+02  0.77443904084E+02  0.00000000000E+00 0.  1.
         21   -1    0    0  502  503 -0.00000000000E+00 -0.00000000000E+00 -0.77668522601E+03  0.77668522601E+03  0.00000000000E+00 0.  1.
          6    1    1    2  501    0 -0.35816728255E+02  0.13237739997E+03 -0.16358557944E+03  0.27476509212E+03  0.17300000000E+03 0.  1.
         -6    1    1    2    0  503  0.35816728255E+02 -0.13237739997E+03 -0.53565574249E+03  0.57936403798E+03  0.17300000000E+03 0.  1.
</event>
<event>
 4    1  0.6123996E+000  0.1000000E+03  0.7546771E-02  0.1280296E+00
         21   -1    0    0  501  502  0.00000000000E+00  0.00000000000E+00  0.26870964364E+03  0.26870964364E+03  0.00000000000E+00 0.  1.
         21   -1    0    0  502  503 -0.00000000000E+00 -0.00000000000E+00 -0.11504367238E+03  0.11504367238E+03  0.00000000000E+00 0.  1.
          6    1    1    2  501    0 -0.24926413439E+02 -0.11050818436E+01  0.97590797924E+02  0.20018868882E+03  0.17300000000E+03 0.  1.
         -6    1    1    2    0  503  0.24926413439E+02  0.11050818436E+01  0.56075173335E+02  0.18356462720E+03  0.17300000000E+03 0.  1.
</event>
<event>
 4    1  0.6123996E+000  0.1000000E+03  0.7546771E-02  0.1280296E+00
         21   -1    0    0  501  502  0.00000000000E+00  0.00000000000E+00  0.12873337498E+03  0.12873337498E+03  0.00000000000E+00 0. -1.
         21   -1    0    0  502  503 -0.00000000000E+00 -0.00000000000E+00 -0.41886951183E+03  0.41886951183E+03  0.00000000000E+00 0. -1.
          6    1    1    2  501    0  0.32914772834E+02  0.13425206004E+03 -0.62644919871E+02  0.23013123187E+03  0.17300000000E+03 0. -1.
         -6    1    1    2    0  503 -0.32914772834E+02 -0.13425206004E+03 -0.22749121698E+03  0.31747165495E+03  0.17300000000E+03 0. -1.
</event>
<event>
 4    1  0.6123996E+000  0.1000000E+03  0.7546771E-02  0.1280296E+00
         21   -1    0    0  501  502  0.00000000000E+00  0.00000000000E+00  0.14132615102E+03  0.14132615102E+03  0.00000000000E+00 0.  1.
         21   -1    0    0  502  503 -0.00000000000E+00 -0.00000000000E+00 -0.45019218459E+03  0.45019218459E+03  0.00000000000E+00 0.  1.
          6    1    1    2  501    0  0.74852698804E+02 -0.96348778525E+02  0.63757963279E+01  0.21179155890E+03  0.17300000000E+03 0.  1.
         -6    1    1    2    0  503 -0.74852698804E+02  0.96348778525E+02 -0.31524182989E+03  0.37972677672E+03  0.17300000000E+03 0.  1.
</event>
<event>
 4    1  0.6123996E+000  0.1000000E+03  0.7546771E-02  0.1280296E+00
         21   -1    0    0  501  502  0.00000000000E+00  0.00000000000E+00  0.95683834586E+03  0.95683834586E+03  0.00000000000E+00 0.  1.
         21   -1    0    0  502  503 -0.00000000000E+00 -0.00000000000E+00 -0.16862956959E+03  0.16862956959E+03  0.00000000000E+00 0.  1.
          6    1    1    2  501    0  0.53381023204E+02  0.26138014847E+02  0.89510058777E+03  0.91360100245E+03  0.17300000000E+03 0.  1.
         -6    1    1    2    0  503 -0.53381023204E+02 -0.26138014847E+02 -0.10689181149E+03  0.21186691300E+03  0.17300000000E+03 0.  1.
</event>
<event>
 4    1  0.6123996E+000  0.1000000E+03  0.7546771E-02  0.1280296E+00
         21   -1    0    0  501  502  0.00000000000E+00  0.00000000000E+00  0.26197417601E+03  0.26197417601E+03  0.00000000000E+00 0.  1.
         21   -1    0    0  502  503 -0.00000000000E+00 -0.00000000000E+00 -0.31588160044E+03  0.31588160044E+03  0.00000000000E+00 0.  1.
          6    1    1    2  501    0 -0.29422562678E+01  0.41953220592E+02  0.19998970511E+03  0.26775662782E+03  0.17300000000E+03 0.  1.
         -6    1    1    2    0  503  0.29422562678E+01 -0.41953220592E+02 -0.25389712955E+03  0.31009914863E+03  0.17300000000E+03 0.  1.
</event>
<event>
 4    1  0.6123996E+000  0.1000000E+03  0.7546771E-02  0.1280296E+00
         21   -1    0    0  501  502  0.00000000000E+00  0.00000000000E+00  0.31137593600E+03  0.31137593600E+03  0.00000000000E+00 0.  1.
         21   -1    0    0  502  503 -0.00000000000E+00 -0.00000000000E+00 -0.19824137896E+03  0.19824137896E+03  0.00000000000E+00 0.  1.
          6    1    1    2  501    0  0.17771865464E+03  0.97813472210E+01  0.67755161668E+02  0.25729235685E+03  0.17300000000E+03 0.  1.
         -6    1    1    2    0  503 -0.17771865464E+03 -0.97813472210E+01  0.45379395369E+02  0.25232495811E+03  0.17300000000E+03 0.  1.
</event>
<event>
 4    1  0.6123996E+000  0.1000000E+03  0.7546771E-02  0.1280296E+00
         21   -1    0    0  501  502  0.00000000000E+00  0.00000000000E+00  0.19256851438E+03  0.19256851438E+03  0.00000000000E+00 0.  1.
         21   -1    0    0  502  503 -0.00000000000E+00 -0.00000000000E+00 -0.56604736272E+03  0.56604736272E+03  0.00000000000E+00 0.  1.
          6    1    1    2  501    0 -0.12758345523E+03 -0.58598094151E+02  0.93177691972E+02  0.24150022146E+03  0.17300000000E+03 0.  1.
         -6    1    1    2    0  503  0.12758345523E+03  0.58598094151E+02 -0.46665654031E+03  0.51711565563E+03  0.17300000000E+03 0.  1.
</event>
<event>
 4    1  0.6123996E+000  0.1000000E+03  0.7546771E-02  0.1280296E+00
         21   -1    0    0  501  502  0.00000000000E+00  0.00000000000E+00  0.57671920084E+02  0.57671920084E+02  0.00000000000E+00 0.  1.
         21   -1    0    0  502  503 -0.00000000000E+00 -0.00000000000E+00 -0.17817954787E+04  0.17817954787E+04  0.00000000000E+00 0.  1.
          6    1    1    2  501    0 -0.63903822868E+02 -0.92419624571E+02 -0.15806773902E+03  0.25988361953E+03  0.17300000000E+03 0.  1.
         -6    1    1    2    0  503  0.63903822868E+02  0.92419624571E+02 -0.15660558196E+04  0.15795837792E+04  0.17300000000E+03 0.  1.
</event>
<event>
 4    1  0.6123996E+000  0.1000000E+03  0.7546771E-02  0.1280296E+00
         21   -1    0    0  501  502  0.00000000000E+00  0.00000000000E+00  0.21364910439E+03  0.21364910439E+03  0.00000000000E+00 0.  1.
         21   -1    0    0  502  503 -0.00000000000E+00 -0.00000000000E+00 -0.19686206505E+03  0.19686206505E+03  0.00000000000E+00 0. -1.
          6    1    1    2  501    0  0.16029623530E+02  0.14112407782E+02  0.11653162540E+03  0.20967767788E+03  0.17300000000E+03 0.  1.
         -6    1    1    2    0  503 -0.16029623530E+02 -0.14112407782E+02 -0.99744586051E+02  0.20083349156E+03  0.17300000000E+03 0. -1.
</event>
<event>
 4    1  0.6123996E+000  0.1000000E+03  0.7546771E-02  0.1280296E+00
         21   -1    0    0  501  502  0.00000000000E+00  0.00000000000E+00  0.38191938501E+03  0.38191938501E+03  0.00000000000E+00 0.  1.
         21   -1    0    0  502  503 -0.00000000000E+00 -0.00000000000E+00 -0.11769829137E+03  0.11769829137E+03  0.00000000000E+00 0. -1.
          6    1    1    2  501    0 -0.17651912863E+02 -0.91737543015E+01  0.27460804653E+03  0.32516815191E+03  0.17300000000E+03 0.  1.
         -6    1    1    2    0  503  0.17651912863E+02  0.91737543015E+01 -0.10386952899E+02  0.17444952447E+03  0.17300000000E+03 0. -1.
</event>
<event>
 4    1  0.6123996E+000  0.1000000E+03  0.7546771E-02  0.1280296E+00
         21   -1    0    0  503  502  0.00000000000E+00  0.00000000000E+00  0.10798018965E+03  0.10798018965E+03  0.00000000000E+00 0.  1.
         21   -1    0    0  501  503 -0.00000000000E+00 -0.00000000000E+00 -0.38757310063E+03  0.38757310063E+03  0.00000000000E+00 0.  1.
          6    1    1    2  501    0  0.41168461804E+02  0.22155334423E+02 -0.25930280903E+03  0.31520255053E+03  0.17300000000E+03 0.  1.
         -6    1    1    2    0  502 -0.41168461804E+02 -0.22155334423E+02 -0.20290101955E+02  0.18035073975E+03  0.17300000000E+03 0.  1.
</event>
<event>
 4    1  0.6123996E+000  0.1000000E+03  0.7546771E-02  0.1280296E+00
         21   -1    0    0  503  502  0.00000000000E+00  0.00000000000E+00  0.43782719526E+03  0.43782719526E+03  0.00000000000E+00 0.  1.
         21   -1    0    0  501  503 -0.00000000000E+00 -0.00000000000E+00 -0.17173492505E+03  0.17173492505E+03  0.00000000000E+00 0.  1.
          6    1    1    2  501    0  0.18327354967E+03 -0.10519709855E+03  0.16039876932E+03  0.31672131086E+03  0.17300000000E+03 0.  1.
         -6    1    1    2    0  502 -0.18327354967E+03  0.10519709855E+03  0.10569350088E+03  0.29284080945E+03  0.17300000000E+03 0.  1.
</event>
<event>
 4    1  0.6123996E+000  0.1000000E+03  0.7546771E-02  0.1280296E+00
         21   -1    0    0  503  502  0.00000000000E+00  0.00000000000E+00  0.11999789045E+03  0.11999789045E+03  0.00000000000E+00 0.  1.
         21   -1    0    0  501  503 -0.00000000000E+00 -0.00000000000E+00 -0.93174155223E+03  0.93174155223E+03  0.00000000000E+00 0.  1.
          6    1    1    2  501    0  0.10260517592E+03  0.32493254072E+02 -0.82284100761E+03  0.84769095636E+03  0.17300000000E+03 0.  1.
         -6    1    1    2    0  502 -0.10260517592E+03 -0.32493254072E+02  0.11097345837E+02  0.20404848632E+03  0.17300000000E+03 0.  1.
</event>
<event>
 4    1  0.6123996E+000  0.1000000E+03  0.7546771E-02  0.1280296E+00
         21   -1    0    0  503  502  0.00000000000E+00  0.00000000000E+00  0.51160806073E+02  0.51160806073E+02  0.00000000000E+00 0.  1.
         21   -1    0    0  501  503 -0.00000000000E+00 -0.00000000000E+00 -0.23379705924E+04  0.23379705924E+04  0.00000000000E+00 0.  1.
          6    1    1    2  501    0 -0.25681935935E+03 -0.15045334358E+03 -0.12574949424E+04  0.13037695050E+04  0.17300000000E+03 0.  1.
         -6    1    1    2    0  502  0.25681935935E+03  0.15045334358E+03 -0.10293148440E+04  0.10853618935E+04  0.17300000000E+03 0.  1.
</event>
<event>
 4    1  0.6123996E+000  0.1000000E+03  0.7546771E-02  0.1280296E+00
         21   -1    0    0  501  502  0.00000000000E+00  0.00000000000E+00  0.80645651285E+03  0.80645651285E+03  0.00000000000E+00 0.  1.
         21   -1    0    0  502  503 -0.00000000000E+00 -0.00000000000E+00 -0.85087666526E+02  0.85087666526E+02  0.00000000000E+00 0.  1.
          6    1    1    2  501    0  0.66403285482E+02  0.56947092491E+02  0.66048806202E+03  0.68835009097E+03  0.17300000000E+03 0.  1.
         -6    1    1    2    0  503 -0.66403285482E+02 -0.56947092491E+02  0.60880784303E+02  0.20319408841E+03  0.17300000000E+03 0.  1.
</event>
<event>
 4    1  0.6123996E+000  0.1000000E+03  0.7546771E-02  0.1280296E+00
         21   -1    0    0  501  502  0.00000000000E+00  0.00000000000E+00  0.18287291818E+03  0.18287291818E+03  0.00000000000E+00 0.  1.
         21   -1    0    0  502  503 -0.00000000000E+00 -0.00000000000E+00 -0.26859345275E+03  0.26859345275E+03  0.00000000000E+00 0. -1.
          6    1    1    2  501    0  0.10955451950E+03  0.68498895070E+02  0.80169902166E+01  0.21607305131E+03  0.17300000000E+03 0.  1.
         -6    1    1    2    0  503 -0.10955451950E+03 -0.68498895070E+02 -0.93737524796E+02  0.23539331962E+03  0.17300000000E+03 0. -1.
</event>
<event>
 4    1  0.6123996E+000  0.1000000E+03  0.7546771E-02  0.1280296E+00
         21   -1    0    0  501  502  0.00000000000E+00  0.00000000000E+00  0.67074270364E+02  0.67074270364E+02  0.00000000000E+00 0.  1.
         21   -1    0    0  502  503 -0.00000000000E+00 -0.00000000000E+00 -0.68487919842E+03  0.68487919842E+03  0.00000000000E+00 0. -1.
          6    1    1    2  501    0  0.56056412691E+02 -0.68502815211E+02 -0.15030785585E+03  0.24567541315E+03  0.17300000000E+03 0.  1.
         -6    1    1    2    0  503 -0.56056412691E+02  0.68502815211E+02 -0.46749707221E+03  0.50627805563E+03  0.17300000000E+03 0. -1.
</event>
<event>
 4    1  0.6123996E+000  0.1000000E+03  0.7546771E-02  0.1280296E+00
         21   -1    0    0  503  502  0.00000000000E+00  0.00000000000E+00  0.12774305835E+03  0.12774305835E+03  0.00000000000E+00 0. -1.
         21   -1    0    0  501  503 -0.00000000000E+00 -0.00000000000E+00 -0.80680036339E+03  0.80680036339E+03  0.00000000000E+00 0.  1.
          6    1    1    2  501    0  0.13034532039E+02  0.64555662805E+02 -0.72129878856E+03  0.74467326728E+03  0.17300000000E+03 0.  1.
         -6    1    1    2    0  502 -0.13034532039E+02 -0.64555662805E+02  0.42241483512E+02  0.18987015446E+03  0.17300000000E+03 0. -1.
</event>
<event>
 4    1  0.6123996E+000  0.1000000E+03  0.7546771E-02  0.1280296E+00
         21   -1    0    0  503  502  0.00000000000E+00  0.00000000000E+00  0.14718152295E+03  0.14718152295E+03  0.00000000000E+00 0.  1.
         21   -1    0    0  501  503 -0.00000000000E+00 -0.00000000000E+00 -0.33407121578E+03  0.33407121578E+03  0.00000000000E+00 0. -1.
          6    1    1    2  501    0  0.11435288239E+03 -0.64743282020E+02 -0.45257563082E+02  0.22191331932E+03  0.17300000000E+03 0. -1.
         -6    1    1    2    0  502 -0.11435288239E+03  0.64743282020E+02 -0.14163212975E+03  0.25933941940E+03  0.17300000000E+03 0.  1.
</event>
<event>
 4    1  0.6123996E+000  0.1000000E+03  0.7546771E-02  0.1280296E+00
         21   -1    0    0  503  502  0.00000000000E+00  0.00000000000E+00  0.58260285242E+03  0.58260285242E+03  0.00000000000E+00 0.  1.
         21   -1    0    0  501  503 -0.00000000000E+00 -0.00000000000E+00 -0.12854534809E+03  0.12854534809E+03  0.00000000000E+00 0. -1.
          6    1    1    2  501    0  0.89599122146E+02  0.19195510675E+03  0.23915639721E+03  0.36331742048E+03  0.17300000000E+03 0. -1.
         -6    1    1    2    0  502 -0.89599122146E+02 -0.19195510675E+03  0.21490110712E+03  0.34783078003E+03  0.17300000000E+03 0.  1.
</event>
<event>
 4    1  0.6123996E+000  0.1000000E+03  0.7546771E-02  0.1280296E+00
         21   -1    0    0  503  502  0.00000000000E+00  0.00000000000E+00  0.62708699754E+02  0.62708699754E+02  0.00000000000E+00 0. -1.
         21   -1    0    0  501  503 -0.00000000000E+00 -0.00000000000E+00 -0.75802152762E+03  0.75802152762E+03  0.00000000000E+00 0. -1.
          6    1    1    2  501    0 -0.72300285673E+02 -0.99040693888E+02 -0.44305915139E+03  0.49118917128E+03  0.17300000000E+03 0. -1.
         -6    1    1    2    0  502  0.72300285673E+02  0.99040693888E+02 -0.25225367648E+03  0.32954105609E+03  0.17300000000E+03 0. -1.
</event>
<event>
 4    1  0.6123996E+000  0.1000000E+03  0.7546771E-02  0.1280296E+00
         21   -1    0    0  503  502  0.00000000000E+00  0.00000000000E+00  0.70287876848E+03  0.70287876848E+03  0.00000000000E+00 0. -1.
         21   -1    0    0  501  503 -0.00000000000E+00 -0.00000000000E+00 -0.11512440838E+03  0.11512440838E+03  0.00000000000E+00 0. -1.
          6    1    1    2  501    0 -0.78940370104E+02 -0.19463918618E+03  0.17467332969E+03  0.32335084187E+03  0.17300000000E+03 0. -1.
         -6    1    1    2    0  502  0.78940370104E+02  0.19463918618E+03  0.41308103041E+03  0.49465233500E+03  0.17300000000E+03 0. -1.
</event>
<event>
 4    1  0.6123996E+000  0.1000000E+03  0.7546771E-02  0.1280296E+00
         21   -1    0    0  501  502  0.00000000000E+00  0.00000000000E+00  0.72545697044E+02  0.72545697044E+02  0.00000000000E+00 0. -1.
         21   -1    0    0  502  503 -0.00000000000E+00 -0.00000000000E+00 -0.12319099151E+04  0.12319099151E+04  0.00000000000E+00 0.  1.
          6    1    1    2  501    0  0.16655261581E+03  0.16085437547E+03 -0.41314106593E+03  0.50421071419E+03  0.17300000000E+03 0.  1.
         -6    1    1    2    0  503 -0.16655261581E+03 -0.16085437547E+03 -0.74622315214E+03  0.80024489798E+03  0.17300000000E+03 0. -1.
</event>
<event>
 4    1  0.6123996E+000  0.1000000E+03  0.7546771E-02  0.1280296E+00
         21   -1    0    0  501  502  0.00000000000E+00  0.00000000000E+00  0.74016322611E+03  0.74016322611E+03  0.00000000000E+00 0. -1.
         21   -1    0    0  502  503 -0.00000000000E+00 -0.00000000000E+00 -0.16306401668E+03  0.16306401668E+03  0.00000000000E+00 0.  1.
          6    1    1    2  501    0 -0.59023226334E+01 -0.27459028240E+02  0.67848074776E+03  0.70075242470E+03  0.17300000000E+03 0.  1.
         -6    1    1    2    0  503  0.59023226334E+01  0.27459028240E+02 -0.10138153833E+03  0.20247481809E+03  0.17300000000E+03 0.  1.
</event>
<event>
 4    1  0.6123996E+000  0.1000000E+03  0.7546771E-02  0.1280296E+00
         21   -1    0    0  501  502  0.00000000000E+00  0.00000000000E+00  0.11425085143E+04  0.11425085143E+04  0.00000000000E+00 0. -1.
         21   -1    0    0  502  503 -0.00000000000E+00 -0.00000000000E+00 -0.44624470776E+02  0.44624470776E+02  0.00000000000E+00 0.  1.
          6    1    1    2  501    0  0.79477956327E+02 -0.99073021568E+02  0.73338055204E+03  0.76413889003E+03  0.17300000000E+03 0.  1.
         -6    1    1    2    0  503 -0.79477956327E+02  0.99073021568E+02  0.36450349152E+03  0.42299409509E+03  0.17300000000E+03 0.  1.
</event>
<event>
 4    1  0.6123996E+000  0.1000000E+03  0.7546771E-02  0.1280296E+00
         21   -1    0    0  501  502  0.00000000000E+00  0.00000000000E+00  0.17849184661E+03  0.17849184661E+03  0.00000000000E+00 0. -1.
         21   -1    0    0  502  503 -0.00000000000E+00 -0.00000000000E+00 -0.18918443437E+03  0.18918443437E+03  0.00000000000E+00 0.  1.
          6    1    1    2  501    0  0.31485410930E+02 -0.49905414510E+02 -0.24248667361E+02  0.18438785038E+03  0.17300000000E+03 0. -1.
         -6    1    1    2    0  503 -0.31485410930E+02  0.49905414510E+02  0.13556079604E+02  0.18328843060E+03  0.17300000000E+03 0.  1.
</event>
<event>
 4    1  0.6123996E+000  0.1000000E+03  0.7546771E-02  0.1280296E+00
         21   -1    0    0  501  502  0.00000000000E+00  0.00000000000E+00  0.27667169048E+04  0.27667169048E+04  0.00000000000E+00 0.  1.
         21   -1    0    0  502  503 -0.00000000000E+00 -0.00000000000E+00 -0.57156274465E+02  0.57156274465E+02  0.00000000000E+00 0.  1.
          6    1    1    2  501    0 -0.75814443482E+02  0.44739842277E+02  0.25870802930E+04  0.25943521206E+04  0.17300000000E+03 0.  1.
         -6    1    1    2    0  503  0.75814443482E+02 -0.44739842277E+02  0.12248033733E+03  0.22952105864E+03  0.17300000000E+03 0.  1.
</event>
<event>
 4    1  0.6123996E+000  0.1000000E+03  0.7546771E-02  0.1280296E+00
         21   -1    0    0  503  502  0.00000000000E+00  0.00000000000E+00  0.43997704299E+03  0.43997704299E+03  0.00000000000E+00 0. -1.
         21   -1    0    0  501  503 -0.00000000000E+00 -0.00000000000E+00 -0.10681402113E+03  0.10681402113E+03  0.00000000000E+00 0. -1.
          6    1    1    2  501    0 -0.22895206789E+02  0.15571336004E+02  0.55700183636E+01  0.17529027955E+03  0.17300000000E+03 0. -1.
         -6    1    1    2    0  502  0.22895206789E+02 -0.15571336004E+02  0.32759300350E+03  0.37150078458E+03  0.17300000000E+03 0. -1.
</event>
<event>
 4    1  0.6123996E+000  0.1000000E+03  0.7546771E-02  0.1280296E+00
         21   -1    0    0  503  502  0.00000000000E+00  0.00000000000E+00  0.99892437312E+02  0.99892437312E+02  0.00000000000E+00 0. -1.
         21   -1    0    0  501  503 -0.00000000000E+00 -0.00000000000E+00 -0.45218969853E+03  0.45218969853E+03  0.00000000000E+00 0. -1.
          6    1    1    2  501    0  0.84333776344E+02  0.32446659085E+02 -0.28540631929E+03  0.34576110048E+03  0.17300000000E+03 0. -1.
         -6    1    1    2    0  502 -0.84333776344E+02 -0.32446659085E+02 -0.66890941926E+02  0.20632103536E+03  0.17300000000E+03 0. -1.
</event>
<event>
 4    1  0.6123996E+000  0.1000000E+03  0.7546771E-02  0.1280296E+00
         21   -1    0    0  503  502  0.00000000000E+00  0.00000000000E+00  0.23373582849E+03  0.23373582849E+03  0.00000000000E+00 0. -1.
         21   -1    0    0  501  503 -0.00000000000E+00 -0.00000000000E+00 -0.19164629264E+03  0.19164629264E+03  0.00000000000E+00 0. -1.
          6    1    1    2  501    0  0.68330278481E+02 -0.67200519884E+02 -0.54697113948E+02  0.20519676192E+03  0.17300000000E+03 0. -1.
         -6    1    1    2    0  502 -0.68330278481E+02  0.67200519884E+02  0.96786649799E+02  0.22018535921E+03  0.17300000000E+03 0. -1.
</event>
<event>
 4    1  0.6123996E+000  0.1000000E+03  0.7546771E-02  0.1280296E+00
         21   -1    0    0  503  502  0.00000000000E+00  0.00000000000E+00  0.10192311819E+03  0.10192311819E+03  0.00000000000E+00 0. -1.
         21   -1    0    0  501  503 -0.00000000000E+00 -0.00000000000E+00 -0.11363052999E+04  0.11363052999E+04  0.00000000000E+00 0. -1.
          6    1    1    2  501    0 -0.11245766012E+03 -0.11670232115E+03 -0.96139784408E+03  0.99019239125E+03  0.17300000000E+03 0. -1.
         -6    1    1    2    0  502  0.11245766012E+03  0.11670232115E+03 -0.72984337659E+02  0.24803602687E+03  0.17300000000E+03 0. -1.
</event>
<event>
 4    1  0.6123996E+000  0.1000000E+03  0.7546771E-02  0.1280296E+00
         21   -1    0    0  503  502  0.00000000000E+00  0.00000000000E+00  0.10330759191E+03  0.10330759191E+03  0.00000000000E+00 0. -1.
         21   -1    0    0  501  503 -0.00000000000E+00 -0.00000000000E+00 -0.29688560337E+03  0.29688560337E+03  0.00000000000E+00 0. -1.
          6    1    1    2  501    0  0.10807876332E+02 -0.10205061591E+02 -0.70720020515E+02  0.18748673226E+03  0.17300000000E+03 0. -1.
         -6    1    1    2    0  502 -0.10807876332E+02  0.10205061591E+02 -0.12285799095E+03  0.21270646302E+03  0.17300000000E+03 0. -1.
</event>
<event>
 4    1  0.6123996E+000  0.1000000E+03  0.7546771E-02  0.1280296E+00
         21   -1    0    0  501  502  0.00000000000E+00  0.00000000000E+00  0.26654384439E+03  0.26654384439E+03  0.00000000000E+00 0. -1.
         21   -1    0    0  502  503 -0.00000000000E+00 -0.00000000000E+00 -0.25677556172E+03  0.25677556172E+03  0.00000000000E+00 0. -1.
          6    1    1    2  501    0  0.15012113218E+03 -0.10918784753E+03  0.68571017454E+02  0.26284848261E+03  0.17300000000E+03 0. -1.
         -6    1    1    2    0  503 -0.15012113218E+03  0.10918784753E+03 -0.58802734787E+02  0.26047092351E+03  0.17300000000E+03 0. -1.
</event>
<event>
 4    1  0.6123996E+000  0.1000000E+03  0.7546771E-02  0.1280296E+00
         21   -1    0    0  501  502  0.00000000000E+00  0.00000000000E+00  0.64040215995E+03  0.64040215995E+03  0.00000000000E+00 0. -1.
         21   -1    0    0  502  503 -0.00000000000E+00 -0.00000000000E+00 -0.11358594729E+03  0.11358594729E+03  0.00000000000E+00 0. -1.
          6    1    1    2  501    0  0.15991790737E+03  0.29517548439E+01  0.44688391654E+03  0.50518975130E+03  0.17300000000E+03 0. -1.
         -6    1    1    2    0  503 -0.15991790737E+03 -0.29517548439E+01  0.79932296118E+02  0.24879835594E+03  0.17300000000E+03 0. -1.
</event>
<event>
 4    1  0.6123996E+000  0.1000000E+03  0.7546771E-02  0.1280296E+00
         21   -1    0    0  501  502  0.00000000000E+00  0.00000000000E+00  0.21202536927E+03  0.21202536927E+03  0.00000000000E+00 0. -1.
         21   -1    0    0  502  503 -0.00000000000E+00 -0.00000000000E+00 -0.61299488042E+03  0.61299488042E+03  0.00000000000E+00 0. -1.
          6    1    1    2  501    0 -0.22116462664E+03  0.21537825506E+03 -0.12170837986E+03  0.37422388294E+03  0.17300000000E+03 0. -1.
         -6    1    1    2    0  503  0.22116462664E+03 -0.21537825506E+03 -0.27926113129E+03  0.45079636676E+03  0.17300000000E+03 0. -1.
</event>
<event>
 4    1  0.6123996E+000  0.1000000E+03  0.7546771E-02  0.1280296E+00
         21   -1    0    0  501  502  0.00000000000E+00  0.00000000000E+00  0.26510463353E+03  0.26510463353E+03  0.00000000000E+00 0.  1.
         21   -1    0    0  502  503 -0.00000000000E+00 -0.00000000000E+00 -0.13222655641E+03  0.13222655641E+03  0.00000000000E+00 0. -1.
          6    1    1    2  501    0 -0.58362464180E+02  0.37872438528E+02  0.84332714518E+02  0.20464971430E+03  0.17300000000E+03 0.  1.
         -6    1    1    2    0  503  0.58362464180E+02 -0.37872438528E+02  0.48545362593E+02  0.19268147564E+03  0.17300000000E+03 0. -1.
</event>
<event>
 4    1  0.6123996E+000  0.1000000E+03  0.7546771E-02  0.1280296E+00
         21   -1    0    0  503  502  0.00000000000E+00  0.00000000000E+00  0.32907259014E+03  0.32907259014E+03  0.00000000000E+00 0. -1.
         21   -1    0    0  501  503 -0.00000000000E+00 -0.00000000000E+00 -0.15923484766E+03  0.15923484766E+03  0.00000000000E+00 0.  1.
          6    1    1    2  501    0  0.11055824795E+03  0.99033999238E+02  0.62546743931E+02  0.23637249072E+03  0.17300000000E+03 0.  1.
         -6    1    1    2    0  502 -0.11055824795E+03 -0.99033999238E+02  0.10729099855E+03  0.25193494709E+03  0.17300000000E+03 0. -1.
</event>
<event>
 4    1  0.6123996E+000  0.1000000E+03  0.7546771E-02  0.1280296E+00
         21   -1    0    0  503  502  0.00000000000E+00  0.00000000000E+00  0.94311487062E+03  0.94311487062E+03  0.00000000000E+00 0. -1.
         21   -1    0    0  501  503 -0.00000000000E+00 -0.00000000000E+00 -0.96908072307E+02  0.96908072307E+02  0.00000000000E+00 0.  1.
          6    1    1    2  501    0 -0.10111274189E+03  0.96964125980E+02  0.71259775904E+02  0.23373656958E+03  0.17300000000E+03 0.  1.
         -6    1    1    2    0  502  0.10111274189E+03 -0.96964125980E+02  0.77494702241E+03  0.80628637334E+03  0.17300000000E+03 0. -1.
</event>
<event>
 4    1  0.6123996E+000  0.1000000E+03  0.7546771E-02  0.1280296E+00
         21   -1    0    0  501  502  0.00000000000E+00  0.00000000000E+00  0.14828377263E+04  0.14828377263E+04  0.00000000000E+00 0.  1.
         21   -1    0    0  502  503 -0.00000000000E+00 -0.00000000000E+00 -0.33267785935E+02  0.33267785935E+02  0.00000000000E+00 0. -1.
          6    1    1    2  501    0  0.51372522887E+02  0.88126505761E+02  0.10485074787E+04  0.10675684288E+04  0.17300000000E+03 0.  1.
         -6    1    1    2    0  503 -0.51372522887E+02 -0.88126505761E+02  0.40106246166E+03  0.44853708350E+03  0.17300000000E+03 0. -1.
</event>
<event>
 4    1  0.6123996E+000  0.1000000E+03  0.7546771E-02  0.1280296E+00
         21   -1    0    0  501  502  0.00000000000E+00  0.00000000000E+00  0.59822352149E+02  0.59822352149E+02  0.00000000000E+00 0.  1.
         21   -1    0    0  502  503 -0.00000000000E+00 -0.00000000000E+00 -0.56211603944E+03  0.56211603944E+03  0.00000000000E+00 0. -1.
          6    1    1    2  501    0 -0.46594000486E+02 -0.92103890224E+01 -0.18674531857E+03  0.25895684226E+03  0.17300000000E+03 0.  1.
         -6    1    1    2    0  503  0.46594000486E+02  0.92103890224E+01 -0.31554836872E+03  0.36298154932E+03  0.17300000000E+03 0. -1.
</event>
<event>
 4    1  0.6123996E+000  0.1000000E+03  0.7546771E-02  0.1280296E+00
         21   -1    0    0  501  502  0.00000000000E+00  0.00000000000E+00  0.39731370999E+03  0.39731370999E+03  0.00000000000E+00 0.  1.
         21   -1    0    0  502  503 -0.00000000000E+00 -0.00000000000E+00 -0.13100055547E+03  0.13100055547E+03  0.00000000000E+00 0. -1.
          6    1    1    2  501    0 -0.58192090091E+01 -0.12618218745E+03  0.22405848918E+03  0.30997905445E+03  0.17300000000E+03 0.  1.
         -6    1    1    2    0  503  0.58192090091E+01  0.12618218745E+03  0.42254665333E+02  0.21833521101E+03  0.17300000000E+03 0. -1.
</event>
<event>
 4    1  0.6123996E+000  0.1000000E+03  0.7546771E-02  0.1280296E+00
         21   -1    0    0  501  502  0.00000000000E+00  0.00000000000E+00  0.25408170686E+03  0.25408170686E+03  0.00000000000E+00 0.  1.
         21   -1    0    0  502  503 -0.00000000000E+00 -0.00000000000E+00 -0.19021382462E+03  0.19021382462E+03  0.00000000000E+00 0. -1.
          6    1    1    2  501    0  0.35101815317E+02  0.59148032781E+01  0.16420358440E+03  0.24116164592E+03  0.17300000000E+03 0.  1.
         -6    1    1    2    0  503 -0.35101815317E+02 -0.59148032781E+01 -0.10033570215E+03  0.20313388556E+03  0.17300000000E+03 0. -1.
</event>
<event>
 4    1  0.6123996E+000  0.1000000E+03  0.7546771E-02  0.1280296E+00
         21   -1    0    0  503  502  0.00000000000E+00  0.00000000000E+00  0.27450353304E+03  0.27450353304E+03  0.00000000000E+00 0.  1.
         21   -1    0    0  501  503 -0.00000000000E+00 -0.00000000000E+00 -0.32492004412E+03  0.32492004412E+03  0.00000000000E+00 0. -1.
          6    1    1    2  501    0 -0.11212589069E+02 -0.20903429308E+03 -0.14991454216E+03  0.31020062506E+03  0.17300000000E+03 0. -1.
         -6    1    1    2    0  502  0.11212589069E+02  0.20903429308E+03  0.99498031082E+02  0.28922295211E+03  0.17300000000E+03 0.  1.
</event>
<event>
 4    1  0.6123996E+000  0.1000000E+03  0.7546771E-02  0.1280296E+00
         21   -1    0    0  503  502  0.00000000000E+00  0.00000000000E+00  0.66300350702E+02  0.66300350702E+02  0.00000000000E+00 0.  1.
         21   -1    0    0  501  503 -0.00000000000E+00 -0.00000000000E+00 -0.63275588302E+03  0.63275588302E+03  0.00000000000E+00 0. -1.
          6    1    1    2  501    0 -0.61322079960E+02 -0.80976235608E+02 -0.35369996180E+03  0.40663277193E+03  0.17300000000E+03 0. -1.
         -6    1    1    2    0  502  0.61322079960E+02  0.80976235608E+02 -0.21275557051E+03  0.29242346180E+03  0.17300000000E+03 0.  1.
</event>
<event>
 4    1  0.6123996E+000  0.1000000E+03  0.7546771E-02  0.1280296E+00
         21   -1    0    0  503  502  0.00000000000E+00  0.00000000000E+00  0.28057628533E+04  0.28057628533E+04  0.00000000000E+00 0. -1.
         21   -1    0    0  501  503 -0.00000000000E+00 -0.00000000000E+00 -0.99180243937E+03  0.99180243937E+03  0.00000000000E+00 0. -1.
          6    1    1    2  501    0  0.49340771975E+03 -0.48433825322E+03 -0.80977619243E+03  0.10787498335E+04  0.17300000000E+03 0. -1.
         -6    1    1    2    0  502 -0.49340771975E+03  0.48433825322E+03  0.26237366064E+04  0.27188154592E+04  0.17300000000E+03 0. -1.
</event>
<event>
 4    1  0.6123996E+000  0.1000000E+03  0.7546771E-02  0.1280296E+00
         21   -1    0    0  503  502  0.00000000000E+00  0.00000000000E+00  0.97109378553E+03  0.97109378553E+03  0.00000000000E+00 0. -1.
         21   -1    0    0  501  503 -0.00000000000E+00 -0.00000000000E+00 -0.51594004052E+02  0.51594004052E+02  0.00000000000E+00 0. -1.
          6    1    1    2  501    0 -0.26255558555E+02 -0.11067775606E+03  0.26544083816E+03  0.33664039954E+03  0.17300000000E+03 0. -1.
         -6    1    1    2    0  502  0.26255558555E+02  0.11067775606E+03  0.65405894332E+03  0.68604739004E+03  0.17300000000E+03 0. -1.
</event>
<event>
 4    1  0.6123996E+000  0.1000000E+03  0.7546771E-02  0.1280296E+00
         21   -1    0    0  501  502  0.00000000000E+00  0.00000000000E+00  0.33124064428E+03  0.33124064428E+03  0.00000000000E+00 0. -1.
         21   -1    0    0  502  503 -0.00000000000E+00 -0.00000000000E+00 -0.25178349846E+03  0.25178349846E+03  0.00000000000E+00 0.  1.
          6    1    1    2  501    0 -0.16919264111E+03  0.15035466965E+03 -0.80378328110E+01  0.28500225130E+03  0.17300000000E+03 0. -1.
         -6    1    1    2    0  503  0.16919264111E+03 -0.15035466965E+03  0.87494978627E+02  0.29802189144E+03  0.17300000000E+03 0.  1.
</event>
<event>
 4    1  0.6123996E+000  0.1000000E+03  0.7546771E-02  0.1280296E+00
         21   -1    0    0  501  502  0.00000000000E+00  0.00000000000E+00  0.65195075152E+02  0.65195075152E+02  0.00000000000E+00 0. -1.
         21   -1    0    0  502  503 -0.00000000000E+00 -0.00000000000E+00 -0.53114948859E+03  0.53114948859E+03  0.00000000000E+00 0.  1.
          6    1    1    2  501    0 -0.51487665252E+01 -0.24507184286E+02 -0.13072632773E+03  0.21827845665E+03  0.17300000000E+03 0. -1.
         -6    1    1    2    0  503  0.51487665252E+01  0.24507184286E+02 -0.33522808571E+03  0.37806610708E+03  0.17300000000E+03 0.  1.
</event>
<event>
 4    1  0.6123996E+000  0.1000000E+03  0.7546771E-02  0.1280296E+00
         21   -1    0    0  501  502  0.00000000000E+00  0.00000000000E+00  0.68261391391E+02  0.68261391391E+02  0.00000000000E+00 0. -1.
         21   -1    0    0  502  503 -0.00000000000E+00 -0.00000000000E+00 -0.82072545517E+03  0.82072545517E+03  0.00000000000E+00 0.  1.
          6    1    1    2  501    0 -0.12530137482E+03  0.99695679412E+02 -0.41629833091E+03  0.47840669241E+03  0.17300000000E+03 0. -1.
         -6    1    1    2    0  503  0.12530137482E+03 -0.99695679412E+02 -0.33616573287E+03  0.41058015415E+03  0.17300000000E+03 0.  1.
</event>
<event>
 4    1  0.6123996E+000  0.1000000E+03  0.7546771E-02  0.1280296E+00
         21   -1    0    0  503  502  0.00000000000E+00  0.00000000000E+00  0.35161781597E+03  0.35161781597E+03  0.00000000000E+00 0. -1.
         21   -1    0    0  501  503 -0.00000000000E+00 -0.00000000000E+00 -0.97564410413E+02  0.97564410413E+02  0.00000000000E+00 0. -1.
          6    1    1    2  501    0 -0.40623321964E+02  0.36396240347E+02  0.81632609959E+02  0.19891662476E+03  0.17300000000E+03 0. -1.
         -6    1    1    2    0  502  0.40623321964E+02 -0.36396240347E+02  0.17242079559E+03  0.25026560162E+03  0.17300000000E+03 0. -1.
</event>
<event>
 4    1  0.6123996E+000  0.1000000E+03  0.7546771E-02  0.1280296E+00
         21   -1    0    0  503  502  0.00000000000E+00  0.00000000000E+00  0.43650103833E+02  0.43650103833E+02  0.00000000000E+00 0.  1.
         21   -1    0    0  501  503 -0.00000000000E+00 -0.00000000000E+00 -0.10101820379E+04  0.10101820379E+04  0.00000000000E+00 0.  1.
          6    1    1    2  501    0 -0.39460015860E+02  0.11160617950E+03 -0.45227675612E+03  0.49849402833E+03  0.17300000000E+03 0.  1.
         -6    1    1    2    0  502  0.39460015860E+02 -0.11160617950E+03 -0.51425517797E+03  0.55533811342E+03  0.17300000000E+03 0.  1.
</event>
<event>
 4    1  0.6123996E+000  0.1000000E+03  0.7546771E-02  0.1280296E+00
         21   -1    0    0  503  502  0.00000000000E+00  0.00000000000E+00  0.17090653876E+04  0.17090653876E+04  0.00000000000E+00 0.  1.
         21   -1    0    0  501  503 -0.00000000000E+00 -0.00000000000E+00 -0.46235680997E+02  0.46235680997E+02  0.00000000000E+00 0.  1.
          6    1    1    2  501    0 -0.19088237433E+03 -0.39531556954E+02  0.50259491945E+03  0.56615322828E+03  0.17300000000E+03 0.  1.
         -6    1    1    2    0  502  0.19088237433E+03  0.39531556954E+02  0.11602347871E+04  0.11891478403E+04  0.17300000000E+03 0.  1.
</event>
<event>
 4    1  0.6123996E+000  0.1000000E+03  0.7546771E-02  0.1280296E+00
         21   -1    0    0  503  502  0.00000000000E+00  0.00000000000E+00  0.51357248818E+03  0.51357248818E+03  0.00000000000E+00 0.  1.
         21   -1    0    0  501  503 -0.00000000000E+00 -0.00000000000E+00 -0.11077612098E+03  0.11077612098E+03  0.00000000000E+00 0.  1.
          6    1    1    2  501    0  0.13306802163E+03  0.94824581983E+02  0.18014203668E+03  0.29846097418E+03  0.17300000000E+03 0.  1.
         -6    1    1    2    0  502 -0.13306802163E+03 -0.94824581983E+02  0.22265433052E+03  0.32588763497E+03  0.17300000000E+03 0.  1.
</event>
<event>
 4    1  0.6123996E+000  0.1000000E+03  0.7546771E-02  0.1280296E+00
         21   -1    0    0  503  502  0.00000000000E+00  0.00000000000E+00  0.25658744414E+02  0.25658744414E+02  0.00000000000E+00 0.  1.
         21   -1    0    0  501  503 -0.00000000000E+00 -0.00000000000E+00 -0.15132001121E+04  0.15132001121E+04  0.00000000000E+00 0.  1.
          6    1    1    2  501    0 -0.90990405908E+00 -0.73361628097E+02 -0.97528038252E+03  0.99321879811E+03  0.17300000000E+03 0.  1.
         -6    1    1    2    0  502  0.90990405908E+00  0.73361628097E+02 -0.51226098512E+03  0.54564005836E+03  0.17300000000E+03 0.  1.
</event>
<event>
 4    1  0.6123996E+000  0.1000000E+03  0.7546771E-02  0.1280296E+00
         21   -1    0    0  501  502  0.00000000000E+00  0.00000000000E+00  0.18558882263E+03  0.18558882263E+03  0.00000000000E+00 0. -1.
         21   -1    0    0  502  503 -0.00000000000E+00 -0.00000000000E+00 -0.24927039532E+03  0.24927039532E+03  0.00000000000E+00 0.  1.
          6    1    1    2  501    0  0.74773949590E+02  0.87356517106E+02  0.24538834235E+02  0.20917327507E+03  0.17300000000E+03 0. -1.
         -6    1    1    2    0  503 -0.74773949590E+02 -0.87356517106E+02 -0.88220406924E+02  0.22568594289E+03  0.17300000000E+03 0. -1.
</event>
<event>
 4    1  0.6123996E+000  0.1000000E+03  0.7546771E-02  0.1280296E+00
         21   -1    0    0  501  502  0.00000000000E+00  0.00000000000E+00  0.24566282629E+03  0.24566282629E+03  0.00000000000E+00 0. -1.
         21   -1    0    0  502  503 -0.00000000000E+00 -0.00000000000E+00 -0.25893003246E+03  0.25893003246E+03  0.00000000000E+00 0.  1.
          6    1    1    2  501    0 -0.14547003414E+03 -0.91513172166E+01  0.10491821784E+03  0.24936340925E+03  0.17300000000E+03 0.  1.
         -6    1    1    2    0  503  0.14547003414E+03  0.91513172166E+01 -0.11818542402E+03  0.25522944950E+03  0.17300000000E+03 0.  1.
</event>
<event>
 4    1  0.6123996E+000  0.1000000E+03  0.7546771E-02  0.1280296E+00
         21   -1    0    0  501  502  0.00000000000E+00  0.00000000000E+00  0.14329449044E+03  0.14329449044E+03  0.00000000000E+00 0. -1.
         21   -1    0    0  502  503 -0.00000000000E+00 -0.00000000000E+00 -0.23778479006E+03  0.23778479006E+03  0.00000000000E+00 0.  1.
          6    1    1    2  501    0  0.32751808532E+02 -0.44241416600E+02 -0.81701802105E+02  0.19908332018E+03  0.17300000000E+03 0.  1.
         -6    1    1    2    0  503 -0.32751808532E+02  0.44241416600E+02 -0.12788497516E+02  0.18199596032E+03  0.17300000000E+03 0.  1.
</event>
<event>
 4    1  0.6123996E+000  0.1000000E+03  0.7546771E-02  0.1280296E+00
         21   -1    0    0  501  502  0.00000000000E+00  0.00000000000E+00  0.29175414048E+03  0.29175414048E+03  0.00000000000E+00 0. -1.
         21   -1    0    0  502  503 -0.00000000000E+00 -0.00000000000E+00 -0.31989174147E+03  0.31989174147E+03  0.00000000000E+00 0.  1.
          6    1    1    2  501    0  0.52716287909E+02  0.17144592349E+03  0.16283302519E+03  0.29768491024E+03  0.17300000000E+03 0.  1.
         -6    1    1    2    0  503 -0.52716287909E+02 -0.17144592349E+03 -0.19097062619E+03  0.31396097171E+03  0.17300000000E+03 0.  1.
</event>
<event>
 4    1  0.6123996E+000  0.1000000E+03  0.7546771E-02  0.1280296E+00
         21   -1    0    0  501  502  0.00000000000E+00  0.00000000000E+00  0.13262842891E+04  0.13262842891E+04  0.00000000000E+00 0. -1.
         21   -1    0    0  502  503 -0.00000000000E+00 -0.00000000000E+00 -0.36737865754E+02  0.36737865754E+02  0.00000000000E+00 0.  1.
          6    1    1    2  501    0 -0.39885367018E+02  0.41526953894E+02  0.26063238154E+03  0.31807792867E+03  0.17300000000E+03 0.  1.
         -6    1    1    2    0  503  0.39885367018E+02 -0.41526953894E+02  0.10289140418E+04  0.10449442262E+04  0.17300000000E+03 0.  1.
</event>
<event>
 4    1  0.6123996E+000  0.1000000E+03  0.7546771E-02  0.1280296E+00
         21   -1    0    0  503  502  0.00000000000E+00  0.00000000000E+00  0.10521928749E+03  0.10521928749E+03  0.00000000000E+00 0.  1.
         21   -1    0    0  501  503 -0.00000000000E+00 -0.00000000000E+00 -0.10597670241E+04  0.10597670241E+04  0.00000000000E+00 0.  1.
          6    1    1    2  501    0 -0.10592066434E+03  0.22279996721E+03 -0.72836534492E+03  0.78822844925E+03  0.17300000000E+03 0.  1.
         -6    1    1    2    0  502  0.10592066434E+03 -0.22279996721E+03 -0.22618239170E+03  0.37675786235E+03  0.17300000000E+03 0.  1.
</event>
<event>
 4    1  0.6123996E+000  0.1000000E+03  0.7546771E-02  0.1280296E+00
         21   -1    0    0  503  502  0.00000000000E+00  0.00000000000E+00  0.44154771522E+03  0.44154771522E+03  0.00000000000E+00 0.  1.
         21   -1    0    0  501  503 -0.00000000000E+00 -0.00000000000E+00 -0.25321916801E+03  0.25321916801E+03  0.00000000000E+00 0.  1.
          6    1    1    2  501    0 -0.11444393042E+03 -0.17921918600E+02 -0.17766284899E+03  0.27370001149E+03  0.17300000000E+03 0.  1.
         -6    1    1    2    0  502  0.11444393042E+03  0.17921918600E+02  0.36599139620E+03  0.42106687173E+03  0.17300000000E+03 0.  1.
</event>
<event>
 4    1  0.6123996E+000  0.1000000E+03  0.7546771E-02  0.1280296E+00
         21   -1    0    0  503  502  0.00000000000E+00  0.00000000000E+00  0.31716592985E+02  0.31716592985E+02  0.00000000000E+00 0.  1.
         21   -1    0    0  501  503 -0.00000000000E+00 -0.00000000000E+00 -0.13158797739E+04  0.13158797739E+04  0.00000000000E+00 0.  1.
          6    1    1    2  501    0 -0.18768159708E+02 -0.10701790119E+03 -0.63854740422E+03  0.67043035613E+03  0.17300000000E+03 0.  1.
         -6    1    1    2    0  502  0.18768159708E+02  0.10701790119E+03 -0.64561577670E+03  0.67716601075E+03  0.17300000000E+03 0.  1.
</event>
<event>
 4    1  0.6123996E+000  0.1000000E+03  0.7546771E-02  0.1280296E+00
         21   -1    0    0  503  502  0.00000000000E+00  0.00000000000E+00  0.16490786553E+03  0.16490786553E+03  0.00000000000E+00 0.  1.
         21   -1    0    0  501  503 -0.00000000000E+00 -0.00000000000E+00 -0.26320261575E+03  0.26320261575E+03  0.00000000000E+00 0.  1.
          6    1    1    2  501    0  0.28324548286E+01 -0.11552080402E+03 -0.60500686290E+02  0.21666197637E+03  0.17300000000E+03 0.  1.
         -6    1    1    2    0  502 -0.28324548286E+01  0.11552080402E+03 -0.37794063925E+02  0.21144850491E+03  0.17300000000E+03 0.  1.
</event>
<event>
 4    1  0.6123996E+000  0.1000000E+03  0.7546771E-02  0.1280296E+00
         21   -1    0    0  501  502  0.00000000000E+00  0.00000000000E+00  0.93882680631E+02  0.93882680631E+02  0.00000000000E+00 0.  1.
         21   -1    0    0  502  503 -0.00000000000E+00 -0.00000000000E+00 -0.11571093348E+04  0.11571093348E+04  0.00000000000E+00 0.  1.
          6    1    1    2  501    0 -0.24883201299E+02  0.10545893469E+03 -0.40523097831E+02  0.20811506930E+03  0.17300000000E+03 0. -1.
         -6    1    1    2    0  503  0.24883201299E+02 -0.10545893469E+03 -0.10227035563E+04  0.10428769461E+04  0.17300000000E+03 0. -1.
</event>
<event>
 4    1  0.6123996E+000  0.1000000E+03  0.7546771E-02  0.1280296E+00
         21   -1    0    0  501  502  0.00000000000E+00  0.00000000000E+00  0.92771320568E+03  0.92771320568E+03  0.00000000000E+00 0. -1.
         21   -1    0    0  502  503 -0.00000000000E+00 -0.00000000000E+00 -0.69856256504E+02  0.69856256504E+02  0.00000000000E+00 0.  1.
          6    1    1    2  501    0 -0.46424903335E+02 -0.15340429051E+03  0.61675103811E+03  0.66030219673E+03  0.17300000000E+03 0. -1.
         -6    1    1    2    0  503  0.46424903335E+02  0.15340429051E+03  0.24110591107E+03  0.33726726545E+03  0.17300000000E+03 0.  1.
</event>
<event>
 4    1  0.6123996E+000  0.1000000E+03  0.7546771E-02  0.1280296E+00
         21   -1    0    0  501  502  0.00000000000E+00  0.00000000000E+00  0.16183626618E+04  0.16183626618E+04  0.00000000000E+00 0. -1.
         21   -1    0    0  502  503 -0.00000000000E+00 -0.00000000000E+00 -0.38833829290E+02  0.38833829290E+02  0.00000000000E+00 0. -1.
          6    1    1    2  501    0 -0.13557512980E+03  0.11694187358E+03  0.88681662376E+03  0.92110191716E+03  0.17300000000E+03 0. -1.
         -6    1    1    2    0  503  0.13557512980E+03 -0.11694187358E+03  0.69271220872E+03  0.73609457390E+03  0.17300000000E+03 0. -1.
</event>
<event>
 4    1  0.6123996E+000  0.1000000E+03  0.7546771E-02  0.1280296E+00
         21   -1    0    0  501  502  0.00000000000E+00  0.00000000000E+00  0.19430987830E+03  0.19430987830E+03  0.00000000000E+00 0. -1.
         21   -1    0    0  502  503 -0.00000000000E+00 -0.00000000000E+00 -0.29537923960E+03  0.29537923960E+03  0.00000000000E+00 0. -1.
          6    1    1    2  501    0 -0.65158281490E+02  0.12028451756E+03  0.45076811081E+02  0.22511082984E+03  0.17300000000E+03 0. -1.
         -6    1    1    2    0  503  0.65158281490E+02 -0.12028451756E+03 -0.14614617239E+03  0.26457828806E+03  0.17300000000E+03 0. -1.
</event>
<event>
 4    1  0.6123996E+000  0.1000000E+03  0.7546771E-02  0.1280296E+00
         21   -1    0    0  501  502  0.00000000000E+00  0.00000000000E+00  0.63596980302E+03  0.63596980302E+03  0.00000000000E+00 0. -1.
         21   -1    0    0  502  503 -0.00000000000E+00 -0.00000000000E+00 -0.15424987074E+03  0.15424987074E+03  0.00000000000E+00 0. -1.
          6    1    1    2  501    0 -0.81934314271E+02 -0.16009198678E+03  0.47963553573E+03  0.54066803422E+03  0.17300000000E+03 0. -1.
         -6    1    1    2    0  503  0.81934314271E+02  0.16009198678E+03  0.20843965464E+01  0.24955163954E+03  0.17300000000E+03 0. -1.
</event>
<event>
 4    1  0.6123996E+000  0.1000000E+03  0.7546771E-02  0.1280296E+00
         21   -1    0    0  501  502  0.00000000000E+00  0.00000000000E+00  0.12139031489E+03  0.12139031489E+03  0.00000000000E+00 0. -1.
         21   -1    0    0  502  503 -0.00000000000E+00 -0.00000000000E+00 -0.66416974614E+03  0.66416974614E+03  0.00000000000E+00 0. -1.
          6    1    1    2  501    0  0.15162157159E+03  0.16642632678E+02 -0.42292178707E+02  0.23448604772E+03  0.17300000000E+03 0. -1.
         -6    1    1    2    0  503 -0.15162157159E+03 -0.16642632678E+02 -0.50048725254E+03  0.55107401331E+03  0.17300000000E+03 0. -1.
</event>
<event>
 4    1  0.6123996E+000  0.1000000E+03  0.7546771E-02  0.1280296E+00
         21   -1    0    0  503  502  0.00000000000E+00  0.00000000000E+00  0.10615384259E+04  0.10615384259E+04  0.00000000000E+00 0.  1.
         21   -1    0    0  501  503 -0.00000000000E+00 -0.00000000000E+00 -0.36133071610E+02  0.36133071610E+02  0.00000000000E+00 0.  1.
          6    1    1    2  501    0 -0.50495900137E+02 -0.73256093066E+02  0.44933286278E+03  0.48963794040E+03  0.17300000000E+03 0.  1.
         -6    1    1    2    0  502  0.50495900137E+02  0.73256093066E+02  0.57607249152E+03  0.60803355712E+03  0.17300000000E+03 0.  1.
</event>
<event>
 4    1  0.6123996E+000  0.1000000E+03  0.7546771E-02  0.1280296E+00
         21   -1    0    0  503  502  0.00000000000E+00  0.00000000000E+00  0.38893553170E+03  0.38893553170E+03  0.00000000000E+00 0.  1.
         21   -1    0    0  501  503 -0.00000000000E+00 -0.00000000000E+00 -0.95417046377E+02  0.95417046377E+02  0.00000000000E+00 0.  1.
          6    1    1    2  501    0 -0.27581101399E+01 -0.11069852480E+02  0.41190864835E+02  0.17820167270E+03  0.17300000000E+03 0.  1.
         -6    1    1    2    0  502  0.27581101399E+01  0.11069852480E+02  0.25232762049E+03  0.30615090538E+03  0.17300000000E+03 0.  1.
</event>
<event>
 4    1  0.6123996E+000  0.1000000E+03  0.7546771E-02  0.1280296E+00
         21   -1    0    0  501  502  0.00000000000E+00  0.00000000000E+00  0.85040516186E+02  0.85040516186E+02  0.00000000000E+00 0. -1.
         21   -1    0    0  502  503 -0.00000000000E+00 -0.00000000000E+00 -0.69839893095E+03  0.69839893095E+03  0.00000000000E+00 0. -1.
          6    1    1    2  501    0 -0.43651317221E+02  0.12735386705E+03 -0.13552266424E+03  0.25772046382E+03  0.17300000000E+03 0. -1.
         -6    1    1    2    0  503  0.43651317221E+02 -0.12735386705E+03 -0.47783575053E+03  0.52571898332E+03  0.17300000000E+03 0. -1.
</event>
<event>
 4    1  0.6123996E+000  0.1000000E+03  0.7546771E-02  0.1280296E+00
         21   -1    0    0  503  502  0.00000000000E+00  0.00000000000E+00  0.99207081378E+02  0.99207081378E+02  0.00000000000E+00 0.  1.
         21   -1    0    0  501  503 -0.00000000000E+00 -0.00000000000E+00 -0.53587319457E+03  0.53587319457E+03  0.00000000000E+00 0. -1.
          6    1    1    2  501    0  0.64007178092E+02  0.94206592149E+02 -0.35784266812E+03  0.41346363320E+03  0.17300000000E+03 0. -1.
         -6    1    1    2    0  502 -0.64007178092E+02 -0.94206592149E+02 -0.78823445079E+02  0.22161664275E+03  0.17300000000E+03 0.  1.
</event>
<event>
 4    1  0.6123996E+000  0.1000000E+03  0.7546771E-02  0.1280296E+00
         21   -1    0    0  503  502  0.00000000000E+00  0.00000000000E+00  0.17728175761E+03  0.17728175761E+03  0.00000000000E+00 0. -1.
         21   -1    0    0  501  503 -0.00000000000E+00 -0.00000000000E+00 -0.56348594690E+03  0.56348594690E+03  0.00000000000E+00 0. -1.
          6    1    1    2  501    0 -0.12748067451E+03  0.25264021945E+02 -0.46308260852E+03  0.51113999599E+03  0.17300000000E+03 0. -1.
         -6    1    1    2    0  502  0.12748067451E+03 -0.25264021945E+02  0.76878419229E+02  0.22962770852E+03  0.17300000000E+03 0. -1.
</event>
<event>
 4    1  0.6123996E+000  0.1000000E+03  0.7546771E-02  0.1280296E+00
         21   -1    0    0  503  502  0.00000000000E+00  0.00000000000E+00  0.11320296744E+03  0.11320296744E+03  0.00000000000E+00 0. -1.
         21   -1    0    0  501  503 -0.00000000000E+00 -0.00000000000E+00 -0.12528445834E+04  0.12528445834E+04  0.00000000000E+00 0. -1.
          6    1    1    2  501    0  0.23826361654E+03 -0.21976313492E+03 -0.71972411267E+03  0.80808241213E+03  0.17300000000E+03 0. -1.
         -6    1    1    2    0  502 -0.23826361654E+03  0.21976313492E+03 -0.41991750331E+03  0.55796513871E+03  0.17300000000E+03 0. -1.
</event>
<event>
 4    1  0.6123996E+000  0.1000000E+03  0.7546771E-02  0.1280296E+00
         21   -1    0    0  503  502  0.00000000000E+00  0.00000000000E+00  0.80455488011E+02  0.80455488011E+02  0.00000000000E+00 0. -1.
         21   -1    0    0  501  503 -0.00000000000E+00 -0.00000000000E+00 -0.43961467538E+03  0.43961467538E+03  0.00000000000E+00 0. -1.
          6    1    1    2  501    0  0.51974538674E+01 -0.27145283402E+01 -0.28124127399E+03  0.33024239035E+03  0.17300000000E+03 0. -1.
         -6    1    1    2    0  502 -0.51974538674E+01  0.27145283402E+01 -0.77917913378E+02  0.18982777304E+03  0.17300000000E+03 0. -1.
</event>
<event>
 4    1  0.6123996E+000  0.1000000E+03  0.7546771E-02  0.1280296E+00
         21   -1    0    0  503  502  0.00000000000E+00  0.00000000000E+00  0.20680000104E+03  0.20680000104E+03  0.00000000000E+00 0. -1.
         21   -1    0    0  501  503 -0.00000000000E+00 -0.00000000000E+00 -0.34388463055E+03  0.34388463055E+03  0.00000000000E+00 0. -1.
          6    1    1    2  501    0  0.14521038305E+03  0.10206486775E+03 -0.17014317446E+03  0.30063431672E+03  0.17300000000E+03 0. -1.
         -6    1    1    2    0  502 -0.14521038305E+03 -0.10206486775E+03  0.33058544951E+02  0.25005031487E+03  0.17300000000E+03 0. -1.
</event>
<event>
 4    1  0.6123996E+000  0.1000000E+03  0.7546771E-02  0.1280296E+00
         21   -1    0    0  503  502  0.00000000000E+00  0.00000000000E+00  0.11387594538E+04  0.11387594538E+04  0.00000000000E+00 0.  1.
         21   -1    0    0  501  503 -0.00000000000E+00 -0.00000000000E+00 -0.40883295917E+02  0.40883295917E+02  0.00000000000E+00 0.  1.
          6    1    1    2  501    0  0.22397961918E+02 -0.40505054462E+02  0.87793321989E+03  0.89601231394E+03  0.17300000000E+03 0.  1.
         -6    1    1    2    0  502 -0.22397961918E+02  0.40505054462E+02  0.21994293804E+03  0.28363043583E+03  0.17300000000E+03 0.  1.
</event>
<event>
 4    1  0.6123996E+000  0.1000000E+03  0.7546771E-02  0.1280296E+00
         21   -1    0    0  503  502  0.00000000000E+00  0.00000000000E+00  0.11978616070E+03  0.11978616070E+03  0.00000000000E+00 0. -1.
         21   -1    0    0  501  503 -0.00000000000E+00 -0.00000000000E+00 -0.60923128810E+03  0.60923128810E+03  0.00000000000E+00 0. -1.
          6    1    1    2  501    0 -0.10548608902E+03  0.15251595177E+03 -0.37028901371E+03  0.44881107851E+03  0.17300000000E+03 0. -1.
         -6    1    1    2    0  502  0.10548608902E+03 -0.15251595177E+03 -0.11915611369E+03  0.28020637029E+03  0.17300000000E+03 0. -1.
</event>
<event>
 4    1  0.6123996E+000  0.1000000E+03  0.7546771E-02  0.1280296E+00
         21   -1    0    0  503  502  0.00000000000E+00  0.00000000000E+00  0.40690935803E+03  0.40690935803E+03  0.00000000000E+00 0. -1.
         21   -1    0    0  501  503 -0.00000000000E+00 -0.00000000000E+00 -0.10343569685E+03  0.10343569685E+03  0.00000000000E+00 0. -1.
          6    1    1    2  501    0  0.14102909308E+02 -0.37884977556E+01  0.15788467490E+02  0.17433163933E+03  0.17300000000E+03 0. -1.
         -6    1    1    2    0  502 -0.14102909308E+02  0.37884977556E+01  0.28768519368E+03  0.33601341555E+03  0.17300000000E+03 0. -1.
</event>
<event>
 4    1  0.6123996E+000  0.1000000E+03  0.7546771E-02  0.1280296E+00
         21   -1    0    0  503  502  0.00000000000E+00  0.00000000000E+00  0.58305566166E+03  0.58305566166E+03  0.00000000000E+00 0.  1.
         21   -1    0    0  501  503 -0.00000000000E+00 -0.00000000000E+00 -0.13564988504E+03  0.13564988504E+03  0.00000000000E+00 0.  1.
          6    1    1    2  501    0 -0.34320700047E+02 -0.96373695946E+02 -0.27655203665E+02  0.20287831331E+03  0.17300000000E+03 0.  1.
         -6    1    1    2    0  502  0.34320700047E+02  0.96373695946E+02  0.47506098029E+03  0.51582723339E+03  0.17300000000E+03 0.  1.
</event>
<event>
 4    1  0.6123996E+000  0.1000000E+03  0.7546771E-02  0.1280296E+00
         21   -1    0    0  503  502  0.00000000000E+00  0.00000000000E+00  0.21147381003E+03  0.21147381003E+03  0.00000000000E+00 0.  1.
         21   -1    0    0  501  503 -0.00000000000E+00 -0.00000000000E+00 -0.70113216546E+03  0.70113216546E+03  0.00000000000E+00 0.  1.
          6    1    1    2  501    0  0.65708445168E+02 -0.32074856676E+03 -0.36993056832E+03  0.52342608669E+03  0.17300000000E+03 0.  1.
         -6    1    1    2    0  502 -0.65708445168E+02  0.32074856676E+03 -0.11972778711E+03  0.38917988881E+03  0.17300000000E+03 0.  1.
</event>
<event>
 4    1  0.6123996E+000  0.1000000E+03  0.7546771E-02  0.1280296E+00
         21   -1    0    0  503  502  0.00000000000E+00  0.00000000000E+00  0.15139549603E+04  0.15139549603E+04  0.00000000000E+00 0.  1.
         21   -1    0    0  501  503 -0.00000000000E+00 -0.00000000000E+00 -0.37027269511E+02  0.37027269511E+02  0.00000000000E+00 0.  1.
          6    1    1    2  501    0  0.86245463540E+01 -0.10031983325E+03  0.32428682506E+03  0.38108974882E+03  0.17300000000E+03 0.  1.
         -6    1    1    2    0  502 -0.86245463540E+01  0.10031983325E+03  0.11526408657E+04  0.11698924810E+04  0.17300000000E+03 0.  1.
</event>
<event>
 4    1  0.6123996E+000  0.1000000E+03  0.7546771E-02  0.1280296E+00
         21   -1    0    0  503  502  0.00000000000E+00  0.00000000000E+00  0.19426532392E+02  0.19426532392E+02  0.00000000000E+00 0.  1.
         21   -1    0    0  501  503 -0.00000000000E+00 -0.00000000000E+00 -0.23196027528E+04  0.23196027528E+04  0.00000000000E+00 0.  1.
          6    1    1    2  501    0  0.31494483475E+02  0.94693810277E+02 -0.15463799893E+04  0.15592238106E+04  0.17300000000E+03 0.  1.
         -6    1    1    2    0  502 -0.31494483475E+02 -0.94693810277E+02 -0.75379623114E+03  0.77980547464E+03  0.17300000000E+03 0.  1.
</event>
<event>
 4    1  0.6123996E+000  0.1000000E+03  0.7546771E-02  0.1280296E+00
         21   -1    0    0  503  502  0.00000000000E+00  0.00000000000E+00  0.51042584851E+02  0.51042584851E+02  0.00000000000E+00 0.  1.
         21   -1    0    0  501  503 -0.00000000000E+00 -0.00000000000E+00 -0.82718163077E+03  0.82718163077E+03  0.00000000000E+00 0.  1.
          6    1    1    2  501    0  0.12217177509E+02  0.43020635653E+02 -0.60487393219E+03  0.63071507700E+03  0.17300000000E+03 0.  1.
         -6    1    1    2    0  502 -0.12217177509E+02 -0.43020635653E+02 -0.17126511373E+03  0.24750913862E+03  0.17300000000E+03 0.  1.
</event>
<event>
 4    1  0.6123996E+000  0.1000000E+03  0.7546771E-02  0.1280296E+00
         21   -1    0    0  503  502  0.00000000000E+00  0.00000000000E+00  0.34797210155E+03  0.34797210155E+03  0.00000000000E+00 0.  1.
         21   -1    0    0  501  503 -0.00000000000E+00 -0.00000000000E+00 -0.11336399940E+03  0.11336399940E+03  0.00000000000E+00 0.  1.
          6    1    1    2  501    0 -0.36361440238E+01 -0.60584771991E+02  0.28590567402E+02  0.18555364907E+03  0.17300000000E+03 0.  1.
         -6    1    1    2    0  502  0.36361440238E+01  0.60584771991E+02  0.20601753475E+03  0.27578245188E+03  0.17300000000E+03 0.  1.
</event>
<event>
 4    1  0.6123996E+000  0.1000000E+03  0.7546771E-02  0.1280296E+00
         21   -1    0    0  501  502  0.00000000000E+00  0.00000000000E+00  0.17324571896E+04  0.17324571896E+04  0.00000000000E+00 0. -1.
         21   -1    0    0  502  503 -0.00000000000E+00 -0.00000000000E+00 -0.33381894661E+02  0.33381894661E+02  0.00000000000E+00 0.  1.
          6    1    1    2  501    0 -0.94054587746E+02  0.77329173983E+02  0.12693923463E+04  0.12869001498E+04  0.17300000000E+03 0. -1.
         -6    1    1    2    0  503  0.94054587746E+02 -0.77329173983E+02  0.42968294865E+03  0.47893893451E+03  0.17300000000E+03 0.  1.
</event>
<event>
 4    1  0.6123996E+000  0.1000000E+03  0.7546771E-02  0.1280296E+00
         21   -1    0    0  501  502  0.00000000000E+00  0.00000000000E+00  0.92786329948E+02  0.92786329948E+02  0.00000000000E+00 0. -1.
         21   -1    0    0  502  503 -0.00000000000E+00 -0.00000000000E+00 -0.56586343804E+03  0.56586343804E+03  0.00000000000E+00 0. -1.
          6    1    1    2  501    0 -0.87414411798E+02 -0.72070062842E+02 -0.94695975104E+02  0.22744603986E+03  0.17300000000E+03 0. -1.
         -6    1    1    2    0  503  0.87414411798E+02  0.72070062842E+02 -0.37838113299E+03  0.43120372812E+03  0.17300000000E+03 0. -1.
</event>
<event>
 4    1  0.6123996E+000  0.1000000E+03  0.7546771E-02  0.1280296E+00
         21   -1    0    0  501  502  0.00000000000E+00  0.00000000000E+00  0.21706831172E+03  0.21706831172E+03  0.00000000000E+00 0. -1.
         21   -1    0    0  502  503 -0.00000000000E+00 -0.00000000000E+00 -0.49665195993E+03  0.49665195993E+03  0.00000000000E+00 0. -1.
          6    1    1    2  501    0  0.20415445377E+03 -0.17901546180E+03 -0.20983173864E+03  0.38429667588E+03  0.17300000000E+03 0. -1.
         -6    1    1    2    0  503 -0.20415445377E+03  0.17901546180E+03 -0.69751909577E+02  0.32942359576E+03  0.17300000000E+03 0. -1.
</event>
<event>
 4    1  0.6123996E+000  0.1000000E+03  0.7546771E-02  0.1280296E+00
         21   -1    0    0  501  502  0.00000000000E+00  0.00000000000E+00  0.34404215249E+02  0.34404215249E+02  0.00000000000E+00 0. -1.
         21   -1    0    0  502  503 -0.00000000000E+00 -0.00000000000E+00 -0.13167980384E+04  0.13167980384E+04  0.00000000000E+00 0. -1.
          6    1    1    2  501    0 -0.33870102471E+01  0.72945525267E+02 -0.32311973977E+03  0.37372167147E+03  0.17300000000E+03 0. -1.
         -6    1    1    2    0  503  0.33870102471E+01 -0.72945525267E+02 -0.95927408334E+03  0.97748058214E+03  0.17300000000E+03 0. -1.
</event>
<event>
 4    1  0.6123996E+000  0.1000000E+03  0.7546771E-02  0.1280296E+00
         21   -1    0    0  501  502  0.00000000000E+00  0.00000000000E+00  0.10781556016E+03  0.10781556016E+03  0.00000000000E+00 0. -1.
         21   -1    0    0  502  503 -0.00000000000E+00 -0.00000000000E+00 -0.43218454877E+03  0.43218454877E+03  0.00000000000E+00 0. -1.
          6    1    1    2  501    0 -0.57609702127E+02 -0.10450013016E+03 -0.22381824510E+03  0.30702241257E+03  0.17300000000E+03 0. -1.
         -6    1    1    2    0  503  0.57609702127E+02  0.10450013016E+03 -0.10055074350E+03  0.23297769636E+03  0.17300000000E+03 0. -1.
</event>
<event>
 4    1  0.6123996E+000  0.1000000E+03  0.7546771E-02  0.1280296E+00
         21   -1    0    0  501  502  0.00000000000E+00  0.00000000000E+00  0.58176647943E+02  0.58176647943E+02  0.00000000000E+00 0. -1.
         21   -1    0    0  502  503 -0.00000000000E+00 -0.00000000000E+00 -0.63312982073E+03  0.63312982073E+03  0.00000000000E+00 0. -1.
          6    1    1    2  501    0  0.82095599504E+02 -0.78979491354E+01 -0.30569328396E+03  0.36080389261E+03  0.17300000000E+03 0. -1.
         -6    1    1    2    0  503 -0.82095599504E+02  0.78979491354E+01 -0.26925988882E+03  0.33050257607E+03  0.17300000000E+03 0. -1.
</event>
<event>
 4    1  0.6123996E+000  0.1000000E+03  0.7546771E-02  0.1280296E+00
         21   -1    0    0  503  502  0.00000000000E+00  0.00000000000E+00  0.49216665035E+03  0.49216665035E+03  0.00000000000E+00 0. -1.
         21   -1    0    0  501  503 -0.00000000000E+00 -0.00000000000E+00 -0.95330816926E+02  0.95330816926E+02  0.00000000000E+00 0.  1.
          6    1    1    2  501    0 -0.40061329343E+02 -0.10533591871E+02  0.36601889564E+03  0.40695785855E+03  0.17300000000E+03 0. -1.
         -6    1    1    2    0  502  0.40061329343E+02  0.10533591871E+02  0.30816937784E+02  0.18053960873E+03  0.17300000000E+03 0.  1.
</event>
<event>
 4    1  0.6123996E+000  0.1000000E+03  0.7546771E-02  0.1280296E+00
         21   -1    0    0  503  502  0.00000000000E+00  0.00000000000E+00  0.79464399293E+02  0.79464399293E+02  0.00000000000E+00 0. -1.
         21   -1    0    0  501  503 -0.00000000000E+00 -0.00000000000E+00 -0.45612676403E+03  0.45612676403E+03  0.00000000000E+00 0.  1.
          6    1    1    2  501    0  0.74883543696E+02  0.17675096024E+02 -0.16030868983E+03  0.24808835154E+03  0.17300000000E+03 0. -1.
         -6    1    1    2    0  502 -0.74883543696E+02 -0.17675096024E+02 -0.21635367490E+03  0.28750281177E+03  0.17300000000E+03 0.  1.
</event>
<event>
 4    1  0.6123996E+000  0.1000000E+03  0.7546771E-02  0.1280296E+00
         21   -1    0    0  501  502  0.00000000000E+00  0.00000000000E+00  0.12832937430E+03  0.12832937430E+03  0.00000000000E+00 0. -1.
         21   -1    0    0  502  503 -0.00000000000E+00 -0.00000000000E+00 -0.28211229059E+03  0.28211229059E+03  0.00000000000E+00 0.  1.
          6    1    1    2  501    0  0.23078126113E+02  0.49982938588E+02 -0.13831680785E+03  0.22823547793E+03  0.17300000000E+03 0.  1.
         -6    1    1    2    0  503 -0.23078126113E+02 -0.49982938588E+02 -0.15466108446E+02  0.18220618696E+03  0.17300000000E+03 0. -1.
</event>
<event>
 4    1  0.6123996E+000  0.1000000E+03  0.7546771E-02  0.1280296E+00
         21   -1    0    0  501  502  0.00000000000E+00  0.00000000000E+00  0.20621325340E+03  0.20621325340E+03  0.00000000000E+00 0.  1.
         21   -1    0    0  502  503 -0.00000000000E+00 -0.00000000000E+00 -0.26188916244E+03  0.26188916244E+03  0.00000000000E+00 0.  1.
          6    1    1    2  501    0  0.12751661209E+03 -0.78055102398E+02  0.13967000431E+02  0.22907894375E+03  0.17300000000E+03 0.  1.
         -6    1    1    2    0  503 -0.12751661209E+03  0.78055102398E+02 -0.69642909466E+02  0.23902347209E+03  0.17300000000E+03 0.  1.
</event>
<event>
 4    1  0.6123996E+000  0.1000000E+03  0.7546771E-02  0.1280296E+00
         21   -1    0    0  503  502  0.00000000000E+00  0.00000000000E+00  0.13577407882E+03  0.13577407882E+03  0.00000000000E+00 0.  1.
         21   -1    0    0  501  503 -0.00000000000E+00 -0.00000000000E+00 -0.78662999973E+03  0.78662999973E+03  0.00000000000E+00 0.  1.
          6    1    1    2  501    0 -0.24675567704E+03 -0.86634349776E+02 -0.45539204171E+03  0.55290576626E+03  0.17300000000E+03 0.  1.
         -6    1    1    2    0  502  0.24675567704E+03  0.86634349776E+02 -0.19546387920E+03  0.36949831229E+03  0.17300000000E+03 0.  1.
</event>
<event>
 4    1  0.6123996E+000  0.1000000E+03  0.7546771E-02  0.1280296E+00
         21   -1    0    0  503  502  0.00000000000E+00  0.00000000000E+00  0.31149002491E+04  0.31149002491E+04  0.00000000000E+00 0.  1.
         21   -1    0    0  501  503 -0.00000000000E+00 -0.00000000000E+00 -0.15695695615E+02  0.15695695615E+02  0.00000000000E+00 0.  1.
          6    1    1    2  501    0 -0.99558328261E+02 -0.78634038887E+02  0.11705932679E+04  0.11900893965E+04  0.17300000000E+03 0.  1.
         -6    1    1    2    0  502  0.99558328261E+02  0.78634038887E+02  0.19286112856E+04  0.19405065482E+04  0.17300000000E+03 0.  1.
</event>
<event>
 4    1  0.6123996E+000  0.1000000E+03  0.7546771E-02  0.1280296E+00
         21   -1    0    0  503  502  0.00000000000E+00  0.00000000000E+00  0.29279252875E+02  0.29279252875E+02  0.00000000000E+00 0.  1.
         21   -1    0    0  501  503 -0.00000000000E+00 -0.00000000000E+00 -0.14745151641E+04  0.14745151641E+04  0.00000000000E+00 0.  1.
          6    1    1    2  501    0  0.94586338460E+02 -0.13749397971E+02 -0.95455672797E+03  0.97480416919E+03  0.17300000000E+03 0.  1.
         -6    1    1    2    0  502 -0.94586338460E+02  0.13749397971E+02 -0.49067918329E+03  0.52899024781E+03  0.17300000000E+03 0.  1.
</event>
<event>
 4    1  0.6123996E+000  0.1000000E+03  0.7546771E-02  0.1280296E+00
         21   -1    0    0  503  502  0.00000000000E+00  0.00000000000E+00  0.31396660293E+03  0.31396660293E+03  0.00000000000E+00 0.  1.
         21   -1    0    0  501  503 -0.00000000000E+00 -0.00000000000E+00 -0.12403923471E+03  0.12403923471E+03  0.00000000000E+00 0.  1.
          6    1    1    2  501    0  0.39764462770E+02  0.80217283442E+02  0.13004246064E+03  0.23421371999E+03  0.17300000000E+03 0.  1.
         -6    1    1    2    0  502 -0.39764462770E+02 -0.80217283442E+02  0.59884907575E+02  0.20379211765E+03  0.17300000000E+03 0.  1.
</event>
<event>
 4    1  0.6123996E+000  0.1000000E+03  0.7546771E-02  0.1280296E+00
         21   -1    0    0  503  502  0.00000000000E+00  0.00000000000E+00  0.99889935579E+02  0.99889935579E+02  0.00000000000E+00 0.  1.
         21   -1    0    0  501  503 -0.00000000000E+00 -0.00000000000E+00 -0.39537406887E+03  0.39537406887E+03  0.00000000000E+00 0.  1.
          6    1    1    2  501    0  0.52418849240E+02 -0.67450649555E+02 -0.20707852564E+03  0.28303328720E+03  0.17300000000E+03 0.  1.
         -6    1    1    2    0  502 -0.52418849240E+02  0.67450649555E+02 -0.88405607655E+02  0.21223071725E+03  0.17300000000E+03 0.  1.
</event>
<event>
 4    1  0.6123996E+000  0.1000000E+03  0.7546771E-02  0.1280296E+00
         21   -1    0    0  503  502  0.00000000000E+00  0.00000000000E+00  0.61238550501E+03  0.61238550501E+03  0.00000000000E+00 0.  1.
         21   -1    0    0  501  503 -0.00000000000E+00 -0.00000000000E+00 -0.11794372871E+03  0.11794372871E+03  0.00000000000E+00 0.  1.
          6    1    1    2  501    0  0.19561862408E+03  0.35621494370E+02  0.17580589511E+03  0.31681579775E+03  0.17300000000E+03 0.  1.
         -6    1    1    2    0  502 -0.19561862408E+03 -0.35621494370E+02  0.31863588119E+03  0.41351343597E+03  0.17300000000E+03 0.  1.
</event>
<event>
 4    1  0.6123996E+000  0.1000000E+03  0.7546771E-02  0.1280296E+00
         21   -1    0    0  501  502  0.00000000000E+00  0.00000000000E+00  0.81127590758E+03  0.81127590758E+03  0.00000000000E+00 0.  1.
         21   -1    0    0  502  503 -0.00000000000E+00 -0.00000000000E+00 -0.80755618565E+02  0.80755618565E+02  0.00000000000E+00 0. -1.
          6    1    1    2  501    0  0.10406679415E+03  0.77319994504E+02  0.60404237119E+03  0.64156407738E+03  0.17300000000E+03 0. -1.
         -6    1    1    2    0  503 -0.10406679415E+03 -0.77319994504E+02  0.12647791783E+03  0.25046744877E+03  0.17300000000E+03 0.  1.
</event>
<event>
 4    1  0.6123996E+000  0.1000000E+03  0.7546771E-02  0.1280296E+00
         21   -1    0    0  501  502  0.00000000000E+00  0.00000000000E+00  0.28801703806E+03  0.28801703806E+03  0.00000000000E+00 0.  1.
         21   -1    0    0  502  503 -0.00000000000E+00 -0.00000000000E+00 -0.53156705375E+03  0.53156705375E+03  0.00000000000E+00 0. -1.
          6    1    1    2  501    0 -0.30056793031E+03  0.12373761224E+03  0.16847473702E+02  0.36859858218E+03  0.17300000000E+03 0. -1.
         -6    1    1    2    0  503  0.30056793031E+03 -0.12373761224E+03 -0.26039748939E+03  0.45098550963E+03  0.17300000000E+03 0.  1.
</event>
<event>
 4    1  0.6123996E+000  0.1000000E+03  0.7546771E-02  0.1280296E+00
         21   -1    0    0  501  502  0.00000000000E+00  0.00000000000E+00  0.19876225983E+03  0.19876225983E+03  0.00000000000E+00 0. -1.
         21   -1    0    0  502  503 -0.00000000000E+00 -0.00000000000E+00 -0.47818362461E+03  0.47818362461E+03  0.00000000000E+00 0. -1.
          6    1    1    2  501    0  0.15248778652E+03  0.17531043271E+01  0.84915616618E+02  0.24575447170E+03  0.17300000000E+03 0. -1.
         -6    1    1    2    0  503 -0.15248778652E+03 -0.17531043271E+01 -0.36433698139E+03  0.43119141274E+03  0.17300000000E+03 0. -1.
</event>
<event>
 4    1  0.6123996E+000  0.1000000E+03  0.7546771E-02  0.1280296E+00
         21   -1    0    0  501  502  0.00000000000E+00  0.00000000000E+00  0.77556999922E+03  0.77556999922E+03  0.00000000000E+00 0. -1.
         21   -1    0    0  502  503 -0.00000000000E+00 -0.00000000000E+00 -0.13608680049E+03  0.13608680049E+03  0.00000000000E+00 0. -1.
          6    1    1    2  501    0  0.39977168449E+02  0.58069669832E+02  0.69266992606E+03  0.71741960318E+03  0.17300000000E+03 0. -1.
         -6    1    1    2    0  503 -0.39977168449E+02 -0.58069669832E+02 -0.53186727341E+02  0.19423719653E+03  0.17300000000E+03 0. -1.
</event>
<event>
 4    1  0.6123996E+000  0.1000000E+03  0.7546771E-02  0.1280296E+00
         21   -1    0    0  501  502  0.00000000000E+00  0.00000000000E+00  0.11828108339E+04  0.11828108339E+04  0.00000000000E+00 0. -1.
         21   -1    0    0  502  503 -0.00000000000E+00 -0.00000000000E+00 -0.33091562155E+02  0.33091562155E+02  0.00000000000E+00 0. -1.
          6    1    1    2  501    0  0.91892587357E+02  0.96106107448E+01  0.49499619745E+03  0.53243482882E+03  0.17300000000E+03 0. -1.
         -6    1    1    2    0  503 -0.91892587357E+02 -0.96106107448E+01  0.65472307433E+03  0.68346756727E+03  0.17300000000E+03 0. -1.
</event>
<event>
 4    1  0.6123996E+000  0.1000000E+03  0.7546771E-02  0.1280296E+00
         21   -1    0    0  501  502  0.00000000000E+00  0.00000000000E+00  0.34692326931E+03  0.34692326931E+03  0.00000000000E+00 0.  1.
         21   -1    0    0  502  503 -0.00000000000E+00 -0.00000000000E+00 -0.31774650484E+03  0.31774650484E+03  0.00000000000E+00 0. -1.
          6    1    1    2  501    0  0.23758068968E+03 -0.15485888738E+02  0.16842550876E+03  0.33908781880E+03  0.17300000000E+03 0.  1.
         -6    1    1    2    0  503 -0.23758068968E+03  0.15485888738E+02 -0.13924874429E+03  0.32558195535E+03  0.17300000000E+03 0. -1.
</event>
<event>
 4    1  0.6123996E+000  0.1000000E+03  0.7546771E-02  0.1280296E+00
         21   -1    0    0  503  502  0.00000000000E+00  0.00000000000E+00  0.45395869903E+03  0.45395869903E+03  0.00000000000E+00 0.  1.
         21   -1    0    0  501  503 -0.00000000000E+00 -0.00000000000E+00 -0.85618304463E+02  0.85618304463E+02  0.00000000000E+00 0. -1.
          6    1    1    2  501    0  0.26156001699E+02  0.40985478658E+02  0.73213290382E+02  0.19404414903E+03  0.17300000000E+03 0.  1.
         -6    1    1    2    0  502 -0.26156001699E+02 -0.40985478658E+02  0.29512710418E+03  0.34553285445E+03  0.17300000000E+03 0. -1.
</event>
<event>
 4    1  0.6123996E+000  0.1000000E+03  0.7546771E-02  0.1280296E+00
         21   -1    0    0  501  502  0.00000000000E+00  0.00000000000E+00  0.85178911076E+02  0.85178911076E+02  0.00000000000E+00 0.  1.
         21   -1    0    0  502  503 -0.00000000000E+00 -0.00000000000E+00 -0.68075515228E+03  0.68075515228E+03  0.00000000000E+00 0.  1.
          6    1    1    2  501    0 -0.47020147445E+02 -0.13772721137E+03 -0.16589899910E+03  0.28041247640E+03  0.17300000000E+03 0.  1.
         -6    1    1    2    0  503  0.47020147445E+02  0.13772721137E+03 -0.42967724210E+03  0.48552158695E+03  0.17300000000E+03 0.  1.
</event>
<event>
 4    1  0.6123996E+000  0.1000000E+03  0.7546771E-02  0.1280296E+00
         21   -1    0    0  501  502  0.00000000000E+00  0.00000000000E+00  0.44063628439E+03  0.44063628439E+03  0.00000000000E+00 0.  1.
         21   -1    0    0  502  503 -0.00000000000E+00 -0.00000000000E+00 -0.23764017495E+03  0.23764017495E+03  0.00000000000E+00 0.  1.
          6    1    1    2  501    0 -0.15143911110E+02 -0.15800473254E+03  0.33488125119E+03  0.40898567939E+03  0.17300000000E+03 0.  1.
         -6    1    1    2    0  503  0.15143911110E+02  0.15800473254E+03 -0.13188514175E+03  0.26929077994E+03  0.17300000000E+03 0.  1.
</event>
<event>
 4    1  0.6123996E+000  0.1000000E+03  0.7546771E-02  0.1280296E+00
         21   -1    0    0  503  502  0.00000000000E+00  0.00000000000E+00  0.14469522407E+04  0.14469522407E+04  0.00000000000E+00 0.  1.
         21   -1    0    0  501  503 -0.00000000000E+00 -0.00000000000E+00 -0.60287389683E+02  0.60287389683E+02  0.00000000000E+00 0. -1.
          6    1    1    2  501    0 -0.23378591426E+02  0.59995780121E+02  0.10503633008E+03  0.21238569351E+03  0.17300000000E+03 0.  1.
         -6    1    1    2    0  502  0.23378591426E+02 -0.59995780121E+02  0.12816285210E+04  0.12948539369E+04  0.17300000000E+03 0. -1.
</event>
<event>
 4    1  0.6123996E+000  0.1000000E+03  0.7546771E-02  0.1280296E+00
         21   -1    0    0  503  502  0.00000000000E+00  0.00000000000E+00  0.36597246574E+03  0.36597246574E+03  0.00000000000E+00 0.  1.
         21   -1    0    0  501  503 -0.00000000000E+00 -0.00000000000E+00 -0.26552554323E+03  0.26552554323E+03  0.00000000000E+00 0. -1.
          6    1    1    2  501    0  0.10389716357E+03  0.22177725431E+03 -0.36118179315E+02  0.30201538703E+03  0.17300000000E+03 0.  1.
         -6    1    1    2    0  502 -0.10389716357E+03 -0.22177725431E+03  0.13656510182E+03  0.32948262194E+03  0.17300000000E+03 0. -1.
</event>
<event>
 4    1  0.6123996E+000  0.1000000E+03  0.7546771E-02  0.1280296E+00
         21   -1    0    0  503  502  0.00000000000E+00  0.00000000000E+00  0.16436050157E+03  0.16436050157E+03  0.00000000000E+00 0.  1.
         21   -1    0    0  501  503 -0.00000000000E+00 -0.00000000000E+00 -0.42986282446E+03  0.42986282446E+03  0.00000000000E+00 0. -1.
          6    1    1    2  501    0 -0.17288405227E+03 -0.42690096784E+02 -0.23886444174E+03  0.34452367324E+03  0.17300000000E+03 0. -1.
         -6    1    1    2    0  502  0.17288405227E+03  0.42690096784E+02 -0.26637881156E+02  0.24969965280E+03  0.17300000000E+03 0.  1.
</event>
<event>
 4    1  0.6123996E+000  0.1000000E+03  0.7546771E-02  0.1280296E+00
         21   -1    0    0  503  502  0.00000000000E+00  0.00000000000E+00  0.11422444745E+03  0.11422444745E+03  0.00000000000E+00 0.  1.
         21   -1    0    0  501  503 -0.00000000000E+00 -0.00000000000E+00 -0.36187320930E+03  0.36187320930E+03  0.00000000000E+00 0. -1.
          6    1    1    2  501    0  0.24860763589E+02  0.57104092100E+02 -0.22540583483E+03  0.29088782250E+03  0.17300000000E+03 0. -1.
         -6    1    1    2    0  502 -0.24860763589E+02 -0.57104092100E+02 -0.22242927025E+02  0.18520983425E+03  0.17300000000E+03 0.  1.
</event>
<event>
 4    1  0.6123996E+000  0.1000000E+03  0.7546771E-02  0.1280296E+00
         21   -1    0    0  501  502  0.00000000000E+00  0.00000000000E+00  0.28632269059E+03  0.28632269059E+03  0.00000000000E+00 0. -1.
         21   -1    0    0  502  503 -0.00000000000E+00 -0.00000000000E+00 -0.39008431594E+03  0.39008431594E+03  0.00000000000E+00 0.  1.
          6    1    1    2  501    0  0.77191925490E+02 -0.12516674308E+03  0.19628222786E+03  0.30013500280E+03  0.17300000000E+03 0.  1.
         -6    1    1    2    0  503 -0.77191925490E+02  0.12516674308E+03 -0.30004385321E+03  0.37627200372E+03  0.17300000000E+03 0.  1.
</event>
<event>
 4    1  0.6123996E+000  0.1000000E+03  0.7546771E-02  0.1280296E+00
         21   -1    0    0  501  502  0.00000000000E+00  0.00000000000E+00  0.12866317172E+03  0.12866317172E+03  0.00000000000E+00 0. -1.
         21   -1    0    0  502  503 -0.00000000000E+00 -0.00000000000E+00 -0.57569562471E+03  0.57569562471E+03  0.00000000000E+00 0.  1.
          6    1    1    2  501    0 -0.61039808794E+02 -0.18640133537E+03 -0.32095939015E+03  0.41402324356E+03  0.17300000000E+03 0.  1.
         -6    1    1    2    0  503  0.61039808794E+02  0.18640133537E+03 -0.12607306284E+03  0.29033555287E+03  0.17300000000E+03 0.  1.
</event>
<event>
 4    1  0.6123996E+000  0.1000000E+03  0.7546771E-02  0.1280296E+00
         21   -1    0    0  501  502  0.00000000000E+00  0.00000000000E+00  0.49636712345E+03  0.49636712345E+03  0.00000000000E+00 0. -1.
         21   -1    0    0  502  503 -0.00000000000E+00 -0.00000000000E+00 -0.10045767170E+03  0.10045767170E+03  0.00000000000E+00 0.  1.
          6    1    1    2  501    0  0.13742927028E+03 -0.28015419270E+02  0.17627363299E+03  0.28403003668E+03  0.17300000000E+03 0.  1.
         -6    1    1    2    0  503 -0.13742927028E+03  0.28015419270E+02  0.21963581875E+03  0.31279475847E+03  0.17300000000E+03 0.  1.
</event>
<event>
 4    1  0.6123996E+000  0.1000000E+03  0.7546771E-02  0.1280296E+00
         21   -1    0    0  501  502  0.00000000000E+00  0.00000000000E+00  0.39779685367E+03  0.39779685367E+03  0.00000000000E+00 0. -1.
         21   -1    0    0  502  503 -0.00000000000E+00 -0.00000000000E+00 -0.86892757579E+02  0.86892757579E+02  0.00000000000E+00 0.  1.
          6    1    1    2  501    0 -0.52009729811E+02  0.23550603055E+02  0.20382268419E+03  0.27337214469E+03  0.17300000000E+03 0.  1.
         -6    1    1    2    0  503  0.52009729811E+02 -0.23550603055E+02  0.10708141190E+03  0.21131746656E+03  0.17300000000E+03 0.  1.
</event>
<event>
 4    1  0.6123996E+000  0.1000000E+03  0.7546771E-02  0.1280296E+00
         21   -1    0    0  501  502  0.00000000000E+00  0.00000000000E+00  0.24658790715E+03  0.24658790715E+03  0.00000000000E+00 0.  1.
         21   -1    0    0  502  503 -0.00000000000E+00 -0.00000000000E+00 -0.15094674320E+03  0.15094674320E+03  0.00000000000E+00 0.  1.
          6    1    1    2  501    0  0.76440387900E+02 -0.32586187639E+01  0.87399993884E+01  0.18936509469E+03  0.17300000000E+03 0.  1.
         -6    1    1    2    0  503 -0.76440387900E+02  0.32586187639E+01  0.86901164568E+02  0.20816955566E+03  0.17300000000E+03 0.  1.
</event>
<event>
 4    1  0.6123996E+000  0.1000000E+03  0.7546771E-02  0.1280296E+00
         21   -1    0    0  501  502  0.00000000000E+00  0.00000000000E+00  0.18340242474E+03  0.18340242474E+03  0.00000000000E+00 0.  1.
         21   -1    0    0  502  503 -0.00000000000E+00 -0.00000000000E+00 -0.33162982137E+03  0.33162982137E+03  0.00000000000E+00 0.  1.
          6    1    1    2  501    0 -0.10067458308E+03 -0.12376200162E+03  0.29033498347E+01  0.23535044968E+03  0.17300000000E+03 0.  1.
         -6    1    1    2    0  503  0.10067458308E+03  0.12376200162E+03 -0.15113074646E+03  0.27968179642E+03  0.17300000000E+03 0.  1.
</event>
<event>
 4    1  0.6123996E+000  0.1000000E+03  0.7546771E-02  0.1280296E+00
         21   -1    0    0  501  502  0.00000000000E+00  0.00000000000E+00  0.19192507811E+03  0.19192507811E+03  0.00000000000E+00 0.  1.
         21   -1    0    0  502  503 -0.00000000000E+00 -0.00000000000E+00 -0.35476709202E+03  0.35476709202E+03  0.00000000000E+00 0.  1.
          6    1    1    2  501    0 -0.16459826642E+03  0.99629925940E+02 -0.46036241193E+02  0.26280610144E+03  0.17300000000E+03 0.  1.
         -6    1    1    2    0  503  0.16459826642E+03 -0.99629925940E+02 -0.11680577272E+03  0.28388606868E+03  0.17300000000E+03 0.  1.
</event>
<event>
 4    1  0.6123996E+000  0.1000000E+03  0.7546771E-02  0.1280296E+00
         21   -1    0    0  501  502  0.00000000000E+00  0.00000000000E+00  0.31065057745E+03  0.31065057745E+03  0.00000000000E+00 0. -1.
         21   -1    0    0  502  503 -0.00000000000E+00 -0.00000000000E+00 -0.39487548304E+03  0.39487548304E+03  0.00000000000E+00 0. -1.
          6    1    1    2  501    0 -0.18103945629E+03 -0.19681505810E+03  0.10463475642E+03  0.33524451387E+03  0.17300000000E+03 0. -1.
         -6    1    1    2    0  503  0.18103945629E+03  0.19681505810E+03 -0.18885966201E+03  0.37028154661E+03  0.17300000000E+03 0. -1.
</event>
<event>
 4    1  0.6123996E+000  0.1000000E+03  0.7546771E-02  0.1280296E+00
         21   -1    0    0  501  502  0.00000000000E+00  0.00000000000E+00  0.22605783135E+03  0.22605783135E+03  0.00000000000E+00 0. -1.
         21   -1    0    0  502  503 -0.00000000000E+00 -0.00000000000E+00 -0.19970019286E+03  0.19970019286E+03  0.00000000000E+00 0. -1.
          6    1    1    2  501    0 -0.37042116437E+02 -0.77322184105E+02  0.10202817989E+03  0.21837945882E+03  0.17300000000E+03 0. -1.
         -6    1    1    2    0  503  0.37042116437E+02  0.77322184105E+02 -0.75670541404E+02  0.20737856539E+03  0.17300000000E+03 0. -1.
</event>
<event>
 4    1  0.6123996E+000  0.1000000E+03  0.7546771E-02  0.1280296E+00
         21   -1    0    0  501  502  0.00000000000E+00  0.00000000000E+00  0.31965864660E+03  0.31965864660E+03  0.00000000000E+00 0. -1.
         21   -1    0    0  502  503 -0.00000000000E+00 -0.00000000000E+00 -0.25385501699E+03  0.25385501699E+03  0.00000000000E+00 0. -1.
          6    1    1    2  501    0  0.22602952426E+03 -0.91335069265E+01  0.26135194280E+02  0.28598044543E+03  0.17300000000E+03 0. -1.
         -6    1    1    2    0  503 -0.22602952426E+03  0.91335069265E+01  0.39668435335E+02  0.28753321816E+03  0.17300000000E+03 0. -1.
</event>
<event>
 4    1  0.6123996E+000  0.1000000E+03  0.7546771E-02  0.1280296E+00
         21   -1    0    0  501  502  0.00000000000E+00  0.00000000000E+00  0.75916188755E+02  0.75916188755E+02  0.00000000000E+00 0. -1.
         21   -1    0    0  502  503 -0.00000000000E+00 -0.00000000000E+00 -0.51929927009E+03  0.51929927009E+03  0.00000000000E+00 0. -1.
          6    1    1    2  501    0  0.61665513387E+02  0.75378569263E+02 -0.22634947046E+03  0.30107747678E+03  0.17300000000E+03 0. -1.
         -6    1    1    2    0  503 -0.61665513387E+02 -0.75378569263E+02 -0.21703361088E+03  0.29413798207E+03  0.17300000000E+03 0. -1.
</event>
<event>
 4    1  0.6123996E+000  0.1000000E+03  0.7546771E-02  0.1280296E+00
         21   -1    0    0  501  502  0.00000000000E+00  0.00000000000E+00  0.17568446532E+03  0.17568446532E+03  0.00000000000E+00 0.  1.
         21   -1    0    0  502  503 -0.00000000000E+00 -0.00000000000E+00 -0.20530365370E+03  0.20530365370E+03  0.00000000000E+00 0. -1.
          6    1    1    2  501    0  0.47727908159E+02 -0.38581032825E+02 -0.63673120526E+02  0.19429286036E+03  0.17300000000E+03 0. -1.
         -6    1    1    2    0  503 -0.47727908159E+02  0.38581032825E+02  0.34053932138E+02  0.18669525866E+03  0.17300000000E+03 0. -1.
</event>
<event>
 4    1  0.6123996E+000  0.1000000E+03  0.7546771E-02  0.1280296E+00
         21   -1    0    0  501  502  0.00000000000E+00  0.00000000000E+00  0.27635651223E+02  0.27635651223E+02  0.00000000000E+00 0.  1.
         21   -1    0    0  502  503 -0.00000000000E+00 -0.00000000000E+00 -0.19319879269E+04  0.19319879269E+04  0.00000000000E+00 0. -1.
          6    1    1    2  501    0 -0.91710270049E+02 -0.15969230546E+02 -0.43636374168E+03  0.47854791298E+03  0.17300000000E+03 0. -1.
         -6    1    1    2    0  503  0.91710270049E+02  0.15969230546E+02 -0.14679885340E+04  0.14810756652E+04  0.17300000000E+03 0. -1.
</event>
<event>
 4    1  0.6123996E+000  0.1000000E+03  0.7546771E-02  0.1280296E+00
         21   -1    0    0  501  502  0.00000000000E+00  0.00000000000E+00  0.13765956977E+03  0.13765956977E+03  0.00000000000E+00 0.  1.
         21   -1    0    0  502  503 -0.00000000000E+00 -0.00000000000E+00 -0.42578679325E+03  0.42578679325E+03  0.00000000000E+00 0. -1.
          6    1    1    2  501    0 -0.12911860318E+02 -0.30378485529E+02  0.49239544210E+02  0.18287455054E+03  0.17300000000E+03 0. -1.
         -6    1    1    2    0  503  0.12911860318E+02  0.30378485529E+02 -0.33736676769E+03  0.38057181249E+03  0.17300000000E+03 0. -1.
</event>
<event>
 4    1  0.6123996E+000  0.1000000E+03  0.7546771E-02  0.1280296E+00
         21   -1    0    0  501  502  0.00000000000E+00  0.00000000000E+00  0.26639314185E+03  0.26639314185E+03  0.00000000000E+00 0.  1.
         21   -1    0    0  502  503 -0.00000000000E+00 -0.00000000000E+00 -0.13888959140E+03  0.13888959140E+03  0.00000000000E+00 0. -1.
          6    1    1    2  501    0 -0.27834749895E+02  0.33304278387E+02  0.13962001045E+03  0.22650981343E+03  0.17300000000E+03 0.  1.
         -6    1    1    2    0  503  0.27834749895E+02 -0.33304278387E+02 -0.12116459994E+02  0.17877291983E+03  0.17300000000E+03 0. -1.
</event>
<event>
 4    1  0.6123996E+000  0.1000000E+03  0.7546771E-02  0.1280296E+00
         21   -1    0    0  501  502  0.00000000000E+00  0.00000000000E+00  0.32010613755E+03  0.32010613755E+03  0.00000000000E+00 0.  1.
         21   -1    0    0  502  503 -0.00000000000E+00 -0.00000000000E+00 -0.20076629661E+03  0.20076629661E+03  0.00000000000E+00 0. -1.
          6    1    1    2  501    0  0.16977055048E+03 -0.66117144631E+02  0.94417402549E+02  0.26839739665E+03  0.17300000000E+03 0.  1.
         -6    1    1    2    0  503 -0.16977055048E+03  0.66117144631E+02  0.24922438393E+02  0.25247503750E+03  0.17300000000E+03 0. -1.
</event>
<event>
 4    1  0.6123996E+000  0.1000000E+03  0.7546771E-02  0.1280296E+00
         21   -1    0    0  501  502  0.00000000000E+00  0.00000000000E+00  0.11093361989E+03  0.11093361989E+03  0.00000000000E+00 0. -1.
         21   -1    0    0  502  503 -0.00000000000E+00 -0.00000000000E+00 -0.20787254927E+04  0.20787254927E+04  0.00000000000E+00 0. -1.
          6    1    1    2  501    0 -0.32232460053E+02 -0.14061057693E+03 -0.16987861681E+02  0.22589345557E+03  0.17300000000E+03 0. -1.
         -6    1    1    2    0  503  0.32232460053E+02  0.14061057693E+03 -0.19508040111E+04  0.19637656570E+04  0.17300000000E+03 0. -1.
</event>
<event>
 4    1  0.6123996E+000  0.1000000E+03  0.7546771E-02  0.1280296E+00
         21   -1    0    0  501  502  0.00000000000E+00  0.00000000000E+00  0.88762856567E+02  0.88762856567E+02  0.00000000000E+00 0. -1.
         21   -1    0    0  502  503 -0.00000000000E+00 -0.00000000000E+00 -0.14052464508E+04  0.14052464508E+04  0.00000000000E+00 0. -1.
          6    1    1    2  501    0  0.26661642291E+03 -0.15945638153E+02 -0.98224698480E+03  0.10325099125E+04  0.17300000000E+03 0. -1.
         -6    1    1    2    0  503 -0.26661642291E+03  0.15945638153E+02 -0.33423660942E+03  0.46149939482E+03  0.17300000000E+03 0. -1.
</event>
<event>
 4    1  0.6123996E+000  0.1000000E+03  0.7546771E-02  0.1280296E+00
         21   -1    0    0  501  502  0.00000000000E+00  0.00000000000E+00  0.49035817266E+03  0.49035817266E+03  0.00000000000E+00 0. -1.
         21   -1    0    0  502  503 -0.00000000000E+00 -0.00000000000E+00 -0.17601316566E+03  0.17601316566E+03  0.00000000000E+00 0. -1.
          6    1    1    2  501    0  0.48456859592E+02  0.35474671414E+02  0.41770801680E+03  0.45608717023E+03  0.17300000000E+03 0. -1.
         -6    1    1    2    0  503 -0.48456859592E+02 -0.35474671414E+02 -0.10336300980E+03  0.21028416809E+03  0.17300000000E+03 0. -1.
</event>
<event>
 4    1  0.6123996E+000  0.1000000E+03  0.7546771E-02  0.1280296E+00
         21   -1    0    0  501  502  0.00000000000E+00  0.00000000000E+00  0.77769270937E+03  0.77769270937E+03  0.00000000000E+00 0. -1.
         21   -1    0    0  502  503 -0.00000000000E+00 -0.00000000000E+00 -0.25767970843E+03  0.25767970843E+03  0.00000000000E+00 0. -1.
          6    1    1    2  501    0 -0.19607965555E+02  0.10992930356E+03  0.71967830212E+03  0.74855512999E+03  0.17300000000E+03 0. -1.
         -6    1    1    2    0  503  0.19607965555E+02 -0.10992930356E+03 -0.19966530117E+03  0.28681728781E+03  0.17300000000E+03 0. -1.
</event>
<event>
 4    1  0.6123996E+000  0.1000000E+03  0.7546771E-02  0.1280296E+00
         21   -1    0    0  503  502  0.00000000000E+00  0.00000000000E+00  0.21149025182E+03  0.21149025182E+03  0.00000000000E+00 0.  1.
         21   -1    0    0  501  503 -0.00000000000E+00 -0.00000000000E+00 -0.17049409441E+03  0.17049409441E+03  0.00000000000E+00 0.  1.
          6    1    1    2  501    0 -0.45111166947E+02 -0.46701855062E+02 -0.23491091709E+02  0.18627107140E+03  0.17300000000E+03 0.  1.
         -6    1    1    2    0  502  0.45111166947E+02  0.46701855062E+02  0.64487249119E+02  0.19571327484E+03  0.17300000000E+03 0.  1.
</event>
<event>
 4    1  0.6123996E+000  0.1000000E+03  0.7546771E-02  0.1280296E+00
         21   -1    0    0  503  502  0.00000000000E+00  0.00000000000E+00  0.19662151205E+03  0.19662151205E+03  0.00000000000E+00 0.  1.
         21   -1    0    0  501  503 -0.00000000000E+00 -0.00000000000E+00 -0.24961485353E+03  0.24961485353E+03  0.00000000000E+00 0.  1.
          6    1    1    2  501    0 -0.36553089533E+02 -0.10047901019E+03 -0.11497774998E+03  0.23362586080E+03  0.17300000000E+03 0.  1.
         -6    1    1    2    0  502  0.36553089533E+02  0.10047901019E+03  0.61984408498E+02  0.21261050477E+03  0.17300000000E+03 0.  1.
</event>
<event>
 4    1  0.6123996E+000  0.1000000E+03  0.7546771E-02  0.1280296E+00
         21   -1    0    0  503  502  0.00000000000E+00  0.00000000000E+00  0.28357821048E+02  0.28357821048E+02  0.00000000000E+00 0. -1.
         21   -1    0    0  501  503 -0.00000000000E+00 -0.00000000000E+00 -0.12990702544E+04  0.12990702544E+04  0.00000000000E+00 0. -1.
          6    1    1    2  501    0  0.62510802826E+02  0.49824052114E+02 -0.55651889907E+03  0.58824512039E+03  0.17300000000E+03 0.  1.
         -6    1    1    2    0  502 -0.62510802826E+02 -0.49824052114E+02 -0.71419353428E+03  0.73918295506E+03  0.17300000000E+03 0.  1.
</event>
<event>
 4    1  0.6123996E+000  0.1000000E+03  0.7546771E-02  0.1280296E+00
         21   -1    0    0  503  502  0.00000000000E+00  0.00000000000E+00  0.60890677461E+03  0.60890677461E+03  0.00000000000E+00 0. -1.
         21   -1    0    0  501  503 -0.00000000000E+00 -0.00000000000E+00 -0.11037867166E+03  0.11037867166E+03  0.00000000000E+00 0. -1.
          6    1    1    2  501    0 -0.56266598721E+01 -0.24119875263E+02 -0.16377661436E+02  0.17552964273E+03  0.17300000000E+03 0.  1.
         -6    1    1    2    0  502  0.56266598721E+01  0.24119875263E+02  0.51490576439E+03  0.54375580354E+03  0.17300000000E+03 0.  1.
</event>
<event>
 4    1  0.6123996E+000  0.1000000E+03  0.7546771E-02  0.1280296E+00
         21   -1    0    0  501  502  0.00000000000E+00  0.00000000000E+00  0.10203418655E+04  0.10203418655E+04  0.00000000000E+00 0.  1.
         21   -1    0    0  502  503 -0.00000000000E+00 -0.00000000000E+00 -0.35034608184E+02  0.35034608184E+02  0.00000000000E+00 0.  1.
          6    1    1    2  501    0  0.66787721895E+02  0.35568045848E+02  0.46579757670E+03  0.50261522872E+03  0.17300000000E+03 0.  1.
         -6    1    1    2    0  503 -0.66787721895E+02 -0.35568045848E+02  0.51950968062E+03  0.55276124497E+03  0.17300000000E+03 0.  1.
</event>
<event>
 4    1  0.6123996E+000  0.1000000E+03  0.7546771E-02  0.1280296E+00
         21   -1    0    0  501  502  0.00000000000E+00  0.00000000000E+00  0.11651435598E+03  0.11651435598E+03  0.00000000000E+00 0.  1.
         21   -1    0    0  502  503 -0.00000000000E+00 -0.00000000000E+00 -0.44252764926E+03  0.44252764926E+03  0.00000000000E+00 0. -1.
          6    1    1    2  501    0  0.96736406932E+02 -0.11078369854E+03 -0.16186257702E+03  0.27885382215E+03  0.17300000000E+03 0. -1.
         -6    1    1    2    0  503 -0.96736406932E+02  0.11078369854E+03 -0.16415071626E+03  0.28018818308E+03  0.17300000000E+03 0. -1.
</event>
<event>
 4    1  0.6123996E+000  0.1000000E+03  0.7546771E-02  0.1280296E+00
         21   -1    0    0  501  502  0.00000000000E+00  0.00000000000E+00  0.19909840954E+03  0.19909840954E+03  0.00000000000E+00 0.  1.
         21   -1    0    0  502  503 -0.00000000000E+00 -0.00000000000E+00 -0.29194009922E+03  0.29194009922E+03  0.00000000000E+00 0. -1.
          6    1    1    2  501    0 -0.13338794953E+03 -0.59614482860E+02  0.37861514913E+02  0.22958381031E+03  0.17300000000E+03 0. -1.
         -6    1    1    2    0  503  0.13338794953E+03  0.59614482860E+02 -0.13070320460E+03  0.26145469845E+03  0.17300000000E+03 0. -1.
</event>
<event>
 4    1  0.6123996E+000  0.1000000E+03  0.7546771E-02  0.1280296E+00
         21   -1    0    0  501  502  0.00000000000E+00  0.00000000000E+00  0.75397289259E+03  0.75397289259E+03  0.00000000000E+00 0.  1.
         21   -1    0    0  502  503 -0.00000000000E+00 -0.00000000000E+00 -0.16840083880E+03  0.16840083880E+03  0.00000000000E+00 0.  1.
          6    1    1    2  501    0  0.12800492071E+03  0.12456222174E+03  0.62311729555E+03  0.67089877838E+03  0.17300000000E+03 0.  1.
         -6    1    1    2    0  503 -0.12800492071E+03 -0.12456222174E+03 -0.37545241770E+02  0.25147495301E+03  0.17300000000E+03 0.  1.
</event>
<event>
 4    1  0.6123996E+000  0.1000000E+03  0.7546771E-02  0.1280296E+00
         21   -1    0    0  501  502  0.00000000000E+00  0.00000000000E+00  0.15507950448E+03  0.15507950448E+03  0.00000000000E+00 0. -1.
         21   -1    0    0  502  503 -0.00000000000E+00 -0.00000000000E+00 -0.28102281101E+03  0.28102281101E+03  0.00000000000E+00 0.  1.
          6    1    1    2  501    0 -0.67561233575E+02 -0.94970296442E+02 -0.54358396697E+02  0.21556370933E+03  0.17300000000E+03 0. -1.
         -6    1    1    2    0  503  0.67561233575E+02  0.94970296442E+02 -0.71584909834E+02  0.22053860615E+03  0.17300000000E+03 0.  1.
</event>
<event>
 4    1  0.6123996E+000  0.1000000E+03  0.7546771E-02  0.1280296E+00
         21   -1    0    0  503  502  0.00000000000E+00  0.00000000000E+00  0.14137226562E+04  0.14137226562E+04  0.00000000000E+00 0.  1.
         21   -1    0    0  501  503 -0.00000000000E+00 -0.00000000000E+00 -0.16879987334E+03  0.16879987334E+03  0.00000000000E+00 0.  1.
          6    1    1    2  501    0 -0.65360505529E+02 -0.11392129331E+03 -0.86279567623E+02  0.23371611100E+03  0.17300000000E+03 0. -1.
         -6    1    1    2    0  502  0.65360505529E+02  0.11392129331E+03  0.13312023505E+04  0.13488064186E+04  0.17300000000E+03 0. -1.
</event>
<event>
 4    1  0.6123996E+000  0.1000000E+03  0.7546771E-02  0.1280296E+00
         21   -1    0    0  503  502  0.00000000000E+00  0.00000000000E+00  0.24234099548E+03  0.24234099548E+03  0.00000000000E+00 0.  1.
         21   -1    0    0  501  503 -0.00000000000E+00 -0.00000000000E+00 -0.18742721259E+03  0.18742721259E+03  0.00000000000E+00 0. -1.
          6    1    1    2  501    0  0.10035490958E+03 -0.82472423557E+00 -0.46775690648E+02  0.20539900994E+03  0.17300000000E+03 0.  1.
         -6    1    1    2    0  502 -0.10035490958E+03  0.82472423557E+00  0.10168947353E+03  0.22436919814E+03  0.17300000000E+03 0. -1.
</event>
<event>
 4    1  0.6123996E+000  0.1000000E+03  0.7546771E-02  0.1280296E+00
         21   -1    0    0  503  502  0.00000000000E+00  0.00000000000E+00  0.57285754188E+02  0.57285754188E+02  0.00000000000E+00 0.  1.
         21   -1    0    0  501  503 -0.00000000000E+00 -0.00000000000E+00 -0.13581847460E+04  0.13581847460E+04  0.00000000000E+00 0. -1.
          6    1    1    2  501    0 -0.53641418380E+02  0.92376378680E+02 -0.11349622835E+04  0.11530304341E+04  0.17300000000E+03 0.  1.
         -6    1    1    2    0  502  0.53641418380E+02 -0.92376378680E+02 -0.16593670835E+03  0.26244006607E+03  0.17300000000E+03 0. -1.
</event>
<event>
 4    1  0.6123996E+000  0.1000000E+03  0.7546771E-02  0.1280296E+00
         21   -1    0    0  503  502  0.00000000000E+00  0.00000000000E+00  0.11622400448E+03  0.11622400448E+03  0.00000000000E+00 0. -1.
         21   -1    0    0  501  503 -0.00000000000E+00 -0.00000000000E+00 -0.35028254425E+03  0.35028254425E+03  0.00000000000E+00 0.  1.
          6    1    1    2  501    0 -0.15596519990E+02 -0.21275770208E+02 -0.23313059426E+03  0.29150434613E+03  0.17300000000E+03 0. -1.
         -6    1    1    2    0  502  0.15596519990E+02  0.21275770208E+02 -0.92794550885E+00  0.17500220260E+03  0.17300000000E+03 0.  1.
</event>
<event>
 4    1  0.6123996E+000  0.1000000E+03  0.7546771E-02  0.1280296E+00
         21   -1    0    0  503  502  0.00000000000E+00  0.00000000000E+00  0.10604328253E+04  0.10604328253E+04  0.00000000000E+00 0.  1.
         21   -1    0    0  501  503 -0.00000000000E+00 -0.00000000000E+00 -0.33686425037E+02  0.33686425037E+02  0.00000000000E+00 0.  1.
          6    1    1    2  501    0  0.48836188531E+02  0.29946937949E+02  0.36832129633E+03  0.41093961811E+03  0.17300000000E+03 0.  1.
         -6    1    1    2    0  502 -0.48836188531E+02 -0.29946937949E+02  0.65842510397E+03  0.68317963227E+03  0.17300000000E+03 0.  1.
</event>
<event>
 4    1  0.6123996E+000  0.1000000E+03  0.7546771E-02  0.1280296E+00
         21   -1    0    0  503  502  0.00000000000E+00  0.00000000000E+00  0.34122864009E+03  0.34122864009E+03  0.00000000000E+00 0.  1.
         21   -1    0    0  501  503 -0.00000000000E+00 -0.00000000000E+00 -0.48705355730E+03  0.48705355730E+03  0.00000000000E+00 0.  1.
          6    1    1    2  501    0 -0.55391567480E+02  0.86266141684E+02 -0.43316268952E+03  0.47756569029E+03  0.17300000000E+03 0.  1.
         -6    1    1    2    0  502  0.55391567480E+02 -0.86266141684E+02  0.28733777232E+03  0.35071650710E+03  0.17300000000E+03 0.  1.
</event>
<event>
 4    1  0.6123996E+000  0.1000000E+03  0.7546771E-02  0.1280296E+00
         21   -1    0    0  503  502  0.00000000000E+00  0.00000000000E+00  0.65116751174E+02  0.65116751174E+02  0.00000000000E+00 0.  1.
         21   -1    0    0  501  503 -0.00000000000E+00 -0.00000000000E+00 -0.11180197731E+04  0.11180197731E+04  0.00000000000E+00 0.  1.
          6    1    1    2  501    0 -0.13842198368E+03  0.47888240802E+02 -0.84732379316E+03  0.87712059583E+03  0.17300000000E+03 0.  1.
         -6    1    1    2    0  502  0.13842198368E+03 -0.47888240802E+02 -0.20557922881E+03  0.30601592849E+03  0.17300000000E+03 0.  1.
</event>
<event>
 4    1  0.6123996E+000  0.1000000E+03  0.7546771E-02  0.1280296E+00
         21   -1    0    0  503  502  0.00000000000E+00  0.00000000000E+00  0.10838793154E+03  0.10838793154E+03  0.00000000000E+00 0.  1.
         21   -1    0    0  501  503 -0.00000000000E+00 -0.00000000000E+00 -0.45428948954E+03  0.45428948954E+03  0.00000000000E+00 0.  1.
          6    1    1    2  501    0 -0.86773791990E+02 -0.10853766098E+03 -0.17373569349E+03  0.28182123061E+03  0.17300000000E+03 0.  1.
         -6    1    1    2    0  502  0.86773791990E+02  0.10853766098E+03 -0.17216586451E+03  0.28085619048E+03  0.17300000000E+03 0.  1.
</event>
<event>
 4    1  0.6123996E+000  0.1000000E+03  0.7546771E-02  0.1280296E+00
         21   -1    0    0  501  502  0.00000000000E+00  0.00000000000E+00  0.64178795367E+02  0.64178795367E+02  0.00000000000E+00 0.  1.
         21   -1    0    0  502  503 -0.00000000000E+00 -0.00000000000E+00 -0.11606107830E+04  0.11606107830E+04  0.00000000000E+00 0. -1.
          6    1    1    2  501    0  0.26283604235E+02  0.19257787833E+03 -0.73298298310E+03  0.77779825186E+03  0.17300000000E+03 0.  1.
         -6    1    1    2    0  503 -0.26283604235E+02 -0.19257787833E+03 -0.36344900449E+03  0.44699132647E+03  0.17300000000E+03 0. -1.
</event>
<event>
 4    1  0.6123996E+000  0.1000000E+03  0.7546771E-02  0.1280296E+00
         21   -1    0    0  501  502  0.00000000000E+00  0.00000000000E+00  0.10124747192E+03  0.10124747192E+03  0.00000000000E+00 0.  1.
         21   -1    0    0  502  503 -0.00000000000E+00 -0.00000000000E+00 -0.59535217604E+03  0.59535217604E+03  0.00000000000E+00 0. -1.
          6    1    1    2  501    0 -0.57375716088E+02  0.10125993527E+02 -0.14141901274E+02  0.18309424326E+03  0.17300000000E+03 0.  1.
         -6    1    1    2    0  503  0.57375716088E+02 -0.10125993527E+02 -0.47996280285E+03  0.51350540471E+03  0.17300000000E+03 0. -1.
</event>
<event>
 4    1  0.6123996E+000  0.1000000E+03  0.7546771E-02  0.1280296E+00
         21   -1    0    0  501  502  0.00000000000E+00  0.00000000000E+00  0.11495963872E+03  0.11495963872E+03  0.00000000000E+00 0.  1.
         21   -1    0    0  502  503 -0.00000000000E+00 -0.00000000000E+00 -0.28038716857E+03  0.28038716857E+03  0.00000000000E+00 0. -1.
          6    1    1    2  501    0  0.21608195879E+02 -0.36801796668E+02 -0.58518263406E+02  0.18754912295E+03  0.17300000000E+03 0.  1.
         -6    1    1    2    0  503 -0.21608195879E+02  0.36801796668E+02 -0.10690926645E+03  0.20779768435E+03  0.17300000000E+03 0. -1.
</event>
<event>
 4    1  0.6123996E+000  0.1000000E+03  0.7546771E-02  0.1280296E+00
         21   -1    0    0  503  502  0.00000000000E+00  0.00000000000E+00  0.17367423110E+03  0.17367423110E+03  0.00000000000E+00 0. -1.
         21   -1    0    0  501  503 -0.00000000000E+00 -0.00000000000E+00 -0.50964450280E+03  0.50964450280E+03  0.00000000000E+00 0.  1.
          6    1    1    2  501    0 -0.40887622364E+02 -0.78165832520E+01 -0.44180064556E+03  0.47628742064E+03  0.17300000000E+03 0. -1.
         -6    1    1    2    0  502  0.40887622364E+02  0.78165832520E+01  0.10583037387E+03  0.20703131326E+03  0.17300000000E+03 0.  1.
</event>
<event>
 4    1  0.6123996E+000  0.1000000E+03  0.7546771E-02  0.1280296E+00
         21   -1    0    0  501  502  0.00000000000E+00  0.00000000000E+00  0.64256395019E+03  0.64256395019E+03  0.00000000000E+00 0. -1.
         21   -1    0    0  502  503 -0.00000000000E+00 -0.00000000000E+00 -0.86616315827E+02  0.86616315827E+02  0.00000000000E+00 0.  1.
          6    1    1    2  501    0 -0.53481879197E+02 -0.14669053519E+03  0.33473723706E+03  0.40786816791E+03  0.17300000000E+03 0. -1.
         -6    1    1    2    0  503  0.53481879197E+02  0.14669053519E+03  0.22121039731E+03  0.32131209811E+03  0.17300000000E+03 0.  1.
</event>
<event>
 4    1  0.6123996E+000  0.1000000E+03  0.7546771E-02  0.1280296E+00
         21   -1    0    0  503  502  0.00000000000E+00  0.00000000000E+00  0.13033933810E+04  0.13033933810E+04  0.00000000000E+00 0. -1.
         21   -1    0    0  501  503 -0.00000000000E+00 -0.00000000000E+00 -0.43916744831E+02  0.43916744831E+02  0.00000000000E+00 0.  1.
          6    1    1    2  501    0 -0.20977168589E+02  0.10087274299E+03  0.26590980926E+03  0.33354516716E+03  0.17300000000E+03 0. -1.
         -6    1    1    2    0  502  0.20977168589E+02 -0.10087274299E+03  0.99356682691E+03  0.10137649587E+04  0.17300000000E+03 0.  1.
</event>
<event>
 4    1  0.6123996E+000  0.1000000E+03  0.7546771E-02  0.1280296E+00
         21   -1    0    0  503  502  0.00000000000E+00  0.00000000000E+00  0.57831185650E+03  0.57831185650E+03  0.00000000000E+00 0. -1.
         21   -1    0    0  501  503 -0.00000000000E+00 -0.00000000000E+00 -0.95973564544E+02  0.95973564544E+02  0.00000000000E+00 0.  1.
          6    1    1    2  501    0 -0.30509159925E+02 -0.61821904944E+02  0.34675546415E+02  0.18943112281E+03  0.17300000000E+03 0. -1.
         -6    1    1    2    0  502  0.30509159925E+02  0.61821904944E+02  0.44766274554E+03  0.48485429823E+03  0.17300000000E+03 0.  1.
</event>
<event>
 4    1  0.6123996E+000  0.1000000E+03  0.7546771E-02  0.1280296E+00
         21   -1    0    0  503  502  0.00000000000E+00  0.00000000000E+00  0.49056111648E+03  0.49056111648E+03  0.00000000000E+00 0. -1.
         21   -1    0    0  501  503 -0.00000000000E+00 -0.00000000000E+00 -0.24763907369E+03  0.24763907369E+03  0.00000000000E+00 0.  1.
          6    1    1    2  501    0 -0.27937880843E+03  0.10080979308E+03  0.60278261728E+02  0.34896647664E+03  0.17300000000E+03 0. -1.
         -6    1    1    2    0  502  0.27937880843E+03 -0.10080979308E+03  0.18264378106E+03  0.38923371352E+03  0.17300000000E+03 0.  1.
</event>
<event>
 4    1  0.6123996E+000  0.1000000E+03  0.7546771E-02  0.1280296E+00
         21   -1    0    0  503  502  0.00000000000E+00  0.00000000000E+00  0.28948996849E+03  0.28948996849E+03  0.00000000000E+00 0.  1.
         21   -1    0    0  501  503 -0.00000000000E+00 -0.00000000000E+00 -0.55094829747E+03  0.55094829747E+03  0.00000000000E+00 0.  1.
          6    1    1    2  501    0  0.32066799541E+03 -0.46073426894E+02 -0.29581021361E+03  0.47157545146E+03  0.17300000000E+03 0.  1.
         -6    1    1    2    0  502 -0.32066799541E+03  0.46073426894E+02  0.34351884619E+02  0.36886281450E+03  0.17300000000E+03 0.  1.
</event>
<event>
 4    1  0.6123996E+000  0.1000000E+03  0.7546771E-02  0.1280296E+00
         21   -1    0    0  503  502  0.00000000000E+00  0.00000000000E+00  0.68028547818E+03  0.68028547818E+03  0.00000000000E+00 0. -1.
         21   -1    0    0  501  503 -0.00000000000E+00 -0.00000000000E+00 -0.21206818628E+03  0.21206818628E+03  0.00000000000E+00 0.  1.
          6    1    1    2  501    0 -0.30212932606E+02 -0.29438472062E+02 -0.15999706733E+03  0.23938986296E+03  0.17300000000E+03 0.  1.
         -6    1    1    2    0  502  0.30212932606E+02  0.29438472062E+02  0.62821435923E+03  0.65296380150E+03  0.17300000000E+03 0. -1.
</event>
<event>
 4    1  0.6123996E+000  0.1000000E+03  0.7546771E-02  0.1280296E+00
         21   -1    0    0  503  502  0.00000000000E+00  0.00000000000E+00  0.28450797265E+03  0.28450797265E+03  0.00000000000E+00 0. -1.
         21   -1    0    0  501  503 -0.00000000000E+00 -0.00000000000E+00 -0.66408322084E+03  0.66408322084E+03  0.00000000000E+00 0.  1.
          6    1    1    2  501    0 -0.38091714123E+03 -0.47705584596E+02 -0.30748326172E+03  0.52139106966E+03  0.17300000000E+03 0.  1.
         -6    1    1    2    0  502  0.38091714123E+03  0.47705584596E+02 -0.72091986475E+02  0.42720012383E+03  0.17300000000E+03 0. -1.
</event>
<event>
 4    1  0.6123996E+000  0.1000000E+03  0.7546771E-02  0.1280296E+00
         21   -1    0    0  503  502  0.00000000000E+00  0.00000000000E+00  0.27213387342E+03  0.27213387342E+03  0.00000000000E+00 0. -1.
         21   -1    0    0  501  503 -0.00000000000E+00 -0.00000000000E+00 -0.75488804308E+03  0.75488804308E+03  0.00000000000E+00 0. -1.
          6    1    1    2  501    0  0.10954866986E+03  0.20594566340E+03 -0.63562194838E+03  0.69882672288E+03  0.17300000000E+03 0. -1.
         -6    1    1    2    0  502 -0.10954866986E+03 -0.20594566340E+03  0.15286777873E+03  0.32819519362E+03  0.17300000000E+03 0. -1.
</event>
<event>
 4    1  0.6123996E+000  0.1000000E+03  0.7546771E-02  0.1280296E+00
         21   -1    0    0  503  502  0.00000000000E+00  0.00000000000E+00  0.66964544739E+03  0.66964544739E+03  0.00000000000E+00 0. -1.
         21   -1    0    0  501  503 -0.00000000000E+00 -0.00000000000E+00 -0.18810418271E+03  0.18810418271E+03  0.00000000000E+00 0. -1.
          6    1    1    2  501    0  0.22498807123E+02 -0.17093073190E+03 -0.70401237727E+02  0.25418270143E+03  0.17300000000E+03 0. -1.
         -6    1    1    2    0  502 -0.22498807123E+02  0.17093073190E+03  0.55194250240E+03  0.60356692868E+03  0.17300000000E+03 0. -1.
</event>
<event>
 4    1  0.6123996E+000  0.1000000E+03  0.7546771E-02  0.1280296E+00
         21   -1    0    0  501  502  0.00000000000E+00  0.00000000000E+00  0.14609401158E+04  0.14609401158E+04  0.00000000000E+00 0.  1.
         21   -1    0    0  502  503 -0.00000000000E+00 -0.00000000000E+00 -0.53670678423E+02  0.53670678423E+02  0.00000000000E+00 0.  1.
          6    1    1    2  501    0 -0.28218347175E+02 -0.18403219913E+03  0.10215311585E+04  0.10526723295E+04  0.17300000000E+03 0.  1.
         -6    1    1    2    0  503  0.28218347175E+02  0.18403219913E+03  0.38573827891E+03  0.46193846479E+03  0.17300000000E+03 0.  1.
</event>
<event>
 4    1  0.6123996E+000  0.1000000E+03  0.7546771E-02  0.1280296E+00
         21   -1    0    0  501  502  0.00000000000E+00  0.00000000000E+00  0.41991624618E+03  0.41991624618E+03  0.00000000000E+00 0.  1.
         21   -1    0    0  502  503 -0.00000000000E+00 -0.00000000000E+00 -0.15323717186E+03  0.15323717186E+03  0.00000000000E+00 0.  1.
          6    1    1    2  501    0  0.25085146237E+02 -0.51916557083E+01  0.34092108308E+03  0.38316106631E+03  0.17300000000E+03 0.  1.
         -6    1    1    2    0  503 -0.25085146237E+02  0.51916557083E+01 -0.74242008758E+02  0.18999235173E+03  0.17300000000E+03 0.  1.
</event>
<event>
 4    1  0.6123996E+000  0.1000000E+03  0.7546771E-02  0.1280296E+00
         21   -1    0    0  503  502  0.00000000000E+00  0.00000000000E+00  0.47769884520E+03  0.47769884520E+03  0.00000000000E+00 0. -1.
         21   -1    0    0  501  503 -0.00000000000E+00 -0.00000000000E+00 -0.27796286237E+03  0.27796286237E+03  0.00000000000E+00 0. -1.
          6    1    1    2  501    0 -0.11046349137E+03 -0.14669660102E+03 -0.17275646285E+03  0.30577094553E+03  0.17300000000E+03 0. -1.
         -6    1    1    2    0  502  0.11046349137E+03  0.14669660102E+03  0.37249244568E+03  0.44989076203E+03  0.17300000000E+03 0. -1.
</event>
<event>
 4    1  0.6123996E+000  0.1000000E+03  0.7546771E-02  0.1280296E+00
         21   -1    0    0  501  502  0.00000000000E+00  0.00000000000E+00  0.37985373935E+03  0.37985373935E+03  0.00000000000E+00 0. -1.
         21   -1    0    0  502  503 -0.00000000000E+00 -0.00000000000E+00 -0.25847485336E+03  0.25847485336E+03  0.00000000000E+00 0. -1.
          6    1    1    2  501    0 -0.12577906553E+03  0.24293870231E+02  0.29261164386E+03  0.36326455866E+03  0.17300000000E+03 0. -1.
         -6    1    1    2    0  503  0.12577906553E+03 -0.24293870231E+02 -0.17123275787E+03  0.27506403404E+03  0.17300000000E+03 0. -1.
</event>
<event>
 4    1  0.6123996E+000  0.1000000E+03  0.7546771E-02  0.1280296E+00
         21   -1    0    0  501  502  0.00000000000E+00  0.00000000000E+00  0.32206274645E+03  0.32206274645E+03  0.00000000000E+00 0.  1.
         21   -1    0    0  502  503 -0.00000000000E+00 -0.00000000000E+00 -0.13323515019E+03  0.13323515019E+03  0.00000000000E+00 0.  1.
          6    1    1    2  501    0 -0.68905231292E+02 -0.17278916006E+02  0.19230601088E+03  0.26824819414E+03  0.17300000000E+03 0.  1.
         -6    1    1    2    0  503  0.68905231292E+02  0.17278916006E+02 -0.34784146098E+01  0.18704970250E+03  0.17300000000E+03 0.  1.
</event>
<event>
 4    1  0.6123996E+000  0.1000000E+03  0.7546771E-02  0.1280296E+00
         21   -1    0    0  503  502  0.00000000000E+00  0.00000000000E+00  0.54261419760E+03  0.54261419760E+03  0.00000000000E+00 0.  1.
         21   -1    0    0  501  503 -0.00000000000E+00 -0.00000000000E+00 -0.10079679085E+03  0.10079679085E+03  0.00000000000E+00 0. -1.
          6    1    1    2  501    0  0.66674946030E+02 -0.14074757995E+03  0.18986357351E+03  0.30038742689E+03  0.17300000000E+03 0. -1.
         -6    1    1    2    0  502 -0.66674946030E+02  0.14074757995E+03  0.25195383324E+03  0.34302356155E+03  0.17300000000E+03 0. -1.
</event>
<event>
 4    1  0.6123996E+000  0.1000000E+03  0.7546771E-02  0.1280296E+00
         21   -1    0    0  501  502  0.00000000000E+00  0.00000000000E+00  0.27779274870E+04  0.27779274870E+04  0.00000000000E+00 0.  1.
         21   -1    0    0  502  503 -0.00000000000E+00 -0.00000000000E+00 -0.23659606098E+02  0.23659606098E+02  0.00000000000E+00 0. -1.
          6    1    1    2  501    0  0.25346396801E+02  0.12662876180E+03  0.21326358191E+04  0.21435348890E+04  0.17300000000E+03 0. -1.
         -6    1    1    2    0  503 -0.25346396801E+02 -0.12662876180E+03  0.62163206174E+03  0.65805220410E+03  0.17300000000E+03 0.  1.
</event>
<event>
 4    1  0.6123996E+000  0.1000000E+03  0.7546771E-02  0.1280296E+00
         21   -1    0    0  501  502  0.00000000000E+00  0.00000000000E+00  0.81015932446E+03  0.81015932446E+03  0.00000000000E+00 0. -1.
         21   -1    0    0  502  503 -0.00000000000E+00 -0.00000000000E+00 -0.24121662999E+03  0.24121662999E+03  0.00000000000E+00 0. -1.
          6    1    1    2  501    0 -0.21939068171E+03  0.49813083103E+02  0.68752591884E+03  0.74379735382E+03  0.17300000000E+03 0. -1.
         -6    1    1    2    0  503  0.21939068171E+03 -0.49813083103E+02 -0.11858322437E+03  0.30757860064E+03  0.17300000000E+03 0. -1.
</event>
<event>
 4    1  0.6123996E+000  0.1000000E+03  0.7546771E-02  0.1280296E+00
         21   -1    0    0  501  502  0.00000000000E+00  0.00000000000E+00  0.26615784788E+03  0.26615784788E+03  0.00000000000E+00 0. -1.
         21   -1    0    0  502  503 -0.00000000000E+00 -0.00000000000E+00 -0.44316119419E+03  0.44316119419E+03  0.00000000000E+00 0. -1.
          6    1    1    2  501    0 -0.27072034845E+03  0.10281729955E+03 -0.15511422881E+03  0.37128200620E+03  0.17300000000E+03 0. -1.
         -6    1    1    2    0  503  0.27072034845E+03 -0.10281729955E+03 -0.21889117499E+02  0.33803703587E+03  0.17300000000E+03 0. -1.
</event>
<event>
 4    1  0.6123996E+000  0.1000000E+03  0.7546771E-02  0.1280296E+00
         21   -1    0    0  501  502  0.00000000000E+00  0.00000000000E+00  0.14945687544E+03  0.14945687544E+03  0.00000000000E+00 0. -1.
         21   -1    0    0  502  503 -0.00000000000E+00 -0.00000000000E+00 -0.11983427649E+04  0.11983427649E+04  0.00000000000E+00 0.  1.
          6    1    1    2  501    0  0.62016474969E+02  0.40495133487E+02  0.79163106924E+02  0.20416095734E+03  0.17300000000E+03 0. -1.
         -6    1    1    2    0  503 -0.62016474969E+02 -0.40495133487E+02 -0.11280489964E+04  0.11436386830E+04  0.17300000000E+03 0.  1.
</event>
<event>
 4    1  0.6123996E+000  0.1000000E+03  0.7546771E-02  0.1280296E+00
         21   -1    0    0  503  502  0.00000000000E+00  0.00000000000E+00  0.42954523168E+02  0.42954523168E+02  0.00000000000E+00 0. -1.
         21   -1    0    0  501  503 -0.00000000000E+00 -0.00000000000E+00 -0.94760226950E+03  0.94760226950E+03  0.00000000000E+00 0. -1.
          6    1    1    2  501    0 -0.10034745400E+02 -0.26069018016E+02 -0.69774543978E+03  0.71941503220E+03  0.17300000000E+03 0. -1.
         -6    1    1    2    0  502  0.10034745400E+02  0.26069018016E+02 -0.20690230655E+03  0.27114176047E+03  0.17300000000E+03 0. -1.
</event>
<event>
 4    1  0.6123996E+000  0.1000000E+03  0.7546771E-02  0.1280296E+00
         21   -1    0    0  501  502  0.00000000000E+00  0.00000000000E+00  0.60100060349E+02  0.60100060349E+02  0.00000000000E+00 0.  1.
         21   -1    0    0  502  503 -0.00000000000E+00 -0.00000000000E+00 -0.60798157602E+03  0.60798157602E+03  0.00000000000E+00 0.  1.
          6    1    1    2  501    0 -0.24021349207E+02 -0.95444103063E+01 -0.40865249370E+03  0.44451544585E+03  0.17300000000E+03 0.  1.
         -6    1    1    2    0  503  0.24021349207E+02  0.95444103063E+01 -0.13922902196E+03  0.22356619052E+03  0.17300000000E+03 0.  1.
</event>
<event>
 4    1  0.6123996E+000  0.1000000E+03  0.7546771E-02  0.1280296E+00
         21   -1    0    0  501  502  0.00000000000E+00  0.00000000000E+00  0.10024227347E+03  0.10024227347E+03  0.00000000000E+00 0.  1.
         21   -1    0    0  502  503 -0.00000000000E+00 -0.00000000000E+00 -0.65318870078E+03  0.65318870078E+03  0.00000000000E+00 0.  1.
          6    1    1    2  501    0 -0.15284199085E+03 -0.62193863560E+01 -0.11420451148E+03  0.25762574672E+03  0.17300000000E+03 0.  1.
         -6    1    1    2    0  503  0.15284199085E+03  0.62193863560E+01 -0.43874191583E+03  0.49580522753E+03  0.17300000000E+03 0.  1.
</event>
<event>
 4    1  0.6123996E+000  0.1000000E+03  0.7546771E-02  0.1280296E+00
         21   -1    0    0  501  502  0.00000000000E+00  0.00000000000E+00  0.14718387653E+03  0.14718387653E+03  0.00000000000E+00 0.  1.
         21   -1    0    0  502  503 -0.00000000000E+00 -0.00000000000E+00 -0.70465805922E+03  0.70465805922E+03  0.00000000000E+00 0.  1.
          6    1    1    2  501    0 -0.12954402120E+03 -0.90236840808E+02  0.13604566599E+02  0.23460269628E+03  0.17300000000E+03 0.  1.
         -6    1    1    2    0  503  0.12954402120E+03  0.90236840808E+02 -0.57107874928E+03  0.61723923948E+03  0.17300000000E+03 0.  1.
</event>
<event>
 4    1  0.6123996E+000  0.1000000E+03  0.7546771E-02  0.1280296E+00
         21   -1    0    0  503  502  0.00000000000E+00  0.00000000000E+00  0.17266857886E+03  0.17266857886E+03  0.00000000000E+00 0.  1.
         21   -1    0    0  501  503 -0.00000000000E+00 -0.00000000000E+00 -0.64519982883E+03  0.64519982883E+03  0.00000000000E+00 0.  1.
          6    1    1    2  501    0 -0.24461062226E+03  0.11078089486E+03 -0.35486130202E+03  0.47745398402E+03  0.17300000000E+03 0.  1.
         -6    1    1    2    0  502  0.24461062226E+03 -0.11078089486E+03 -0.11766994795E+03  0.34041442366E+03  0.17300000000E+03 0.  1.
</event>
<event>
 4    1  0.6123996E+000  0.1000000E+03  0.7546771E-02  0.1280296E+00
         21   -1    0    0  503  502  0.00000000000E+00  0.00000000000E+00  0.30617241136E+02  0.30617241136E+02  0.00000000000E+00 0.  1.
         21   -1    0    0  501  503 -0.00000000000E+00 -0.00000000000E+00 -0.33943322770E+04  0.33943322770E+04  0.00000000000E+00 0.  1.
          6    1    1    2  501    0 -0.36981033934E+02  0.35189245635E+02 -0.31011872624E+04  0.31064283858E+04  0.17300000000E+03 0.  1.
         -6    1    1    2    0  502  0.36981033934E+02 -0.35189245635E+02 -0.26252777347E+03  0.31852113230E+03  0.17300000000E+03 0.  1.
</event>
<event>
 4    1  0.6123996E+000  0.1000000E+03  0.7546771E-02  0.1280296E+00
         21   -1    0    0  503  502  0.00000000000E+00  0.00000000000E+00  0.15334334734E+04  0.15334334734E+04  0.00000000000E+00 0. -1.
         21   -1    0    0  501  503 -0.00000000000E+00 -0.00000000000E+00 -0.26445729757E+02  0.26445729757E+02  0.00000000000E+00 0. -1.
          6    1    1    2  501    0 -0.74627767938E+02  0.70586233495E+02  0.72061937793E+03  0.74817979654E+03  0.17300000000E+03 0. -1.
         -6    1    1    2    0  502  0.74627767938E+02 -0.70586233495E+02  0.78636836576E+03  0.81169940666E+03  0.17300000000E+03 0. -1.
</event>
<event>
 4    1  0.6123996E+000  0.1000000E+03  0.7546771E-02  0.1280296E+00
         21   -1    0    0  503  502  0.00000000000E+00  0.00000000000E+00  0.17060659666E+03  0.17060659666E+03  0.00000000000E+00 0. -1.
         21   -1    0    0  501  503 -0.00000000000E+00 -0.00000000000E+00 -0.38118900747E+03  0.38118900747E+03  0.00000000000E+00 0. -1.
          6    1    1    2  501    0 -0.82250023946E+02 -0.15996702554E+03 -0.16202399515E+03  0.29754880390E+03  0.17300000000E+03 0. -1.
         -6    1    1    2    0  502  0.82250023946E+02  0.15996702554E+03 -0.48558415661E+02  0.25424680024E+03  0.17300000000E+03 0. -1.
</event>
<event>
 4    1  0.6123996E+000  0.1000000E+03  0.7546771E-02  0.1280296E+00
         21   -1    0    0  503  502  0.00000000000E+00  0.00000000000E+00  0.30441726585E+03  0.30441726585E+03  0.00000000000E+00 0. -1.
         21   -1    0    0  501  503 -0.00000000000E+00 -0.00000000000E+00 -0.13041138192E+03  0.13041138192E+03  0.00000000000E+00 0. -1.
          6    1    1    2  501    0 -0.98323931401E+02  0.99840316582E+01  0.88954884769E+02  0.21819543510E+03  0.17300000000E+03 0. -1.
         -6    1    1    2    0  502  0.98323931401E+02 -0.99840316582E+01  0.85050999165E+02  0.21663321267E+03  0.17300000000E+03 0. -1.
</event>
<event>
 4    1  0.6123996E+000  0.1000000E+03  0.7546771E-02  0.1280296E+00
         21   -1    0    0  501  502  0.00000000000E+00  0.00000000000E+00  0.34707060794E+03  0.34707060794E+03  0.00000000000E+00 0. -1.
         21   -1    0    0  502  503 -0.00000000000E+00 -0.00000000000E+00 -0.14209741222E+03  0.14209741222E+03  0.00000000000E+00 0. -1.
          6    1    1    2  501    0 -0.87305244528E+02  0.41150332752E+02  0.21302457270E+03  0.29090208694E+03  0.17300000000E+03 0. -1.
         -6    1    1    2    0  503  0.87305244528E+02 -0.41150332752E+02 -0.80513769806E+01  0.19826593323E+03  0.17300000000E+03 0. -1.
</event>
<event>
 4    1  0.6123996E+000  0.1000000E+03  0.7546771E-02  0.1280296E+00
         21   -1    0    0  501  502  0.00000000000E+00  0.00000000000E+00  0.58183559106E+02  0.58183559106E+02  0.00000000000E+00 0. -1.
         21   -1    0    0  502  503 -0.00000000000E+00 -0.00000000000E+00 -0.67501407583E+03  0.67501407583E+03  0.00000000000E+00 0. -1.
          6    1    1    2  501    0  0.73731072768E+02 -0.62406959386E+02 -0.30129355927E+03  0.36060741608E+03  0.17300000000E+03 0. -1.
         -6    1    1    2    0  503 -0.73731072768E+02  0.62406959386E+02 -0.31553695745E+03  0.37259021886E+03  0.17300000000E+03 0. -1.
</event>
<event>
 4    1  0.6123996E+000  0.1000000E+03  0.7546771E-02  0.1280296E+00
         21   -1    0    0  503  502  0.00000000000E+00  0.00000000000E+00  0.49364803393E+03  0.49364803393E+03  0.00000000000E+00 0. -1.
         21   -1    0    0  501  503 -0.00000000000E+00 -0.00000000000E+00 -0.27608426332E+03  0.27608426332E+03  0.00000000000E+00 0.  1.
          6    1    1    2  501    0  0.17710328406E+03 -0.23288906362E+02 -0.17567531368E+03  0.30446471425E+03  0.17300000000E+03 0.  1.
         -6    1    1    2    0  502 -0.17710328406E+03  0.23288906362E+02  0.39323908428E+03  0.46526758300E+03  0.17300000000E+03 0. -1.
</event>
<event>
 4    1  0.6123996E+000  0.1000000E+03  0.7546771E-02  0.1280296E+00
         21   -1    0    0  503  502  0.00000000000E+00  0.00000000000E+00  0.10600962511E+03  0.10600962511E+03  0.00000000000E+00 0. -1.
         21   -1    0    0  501  503 -0.00000000000E+00 -0.00000000000E+00 -0.11198901200E+04  0.11198901200E+04  0.00000000000E+00 0.  1.
          6    1    1    2  501    0 -0.27921086616E+02  0.11392007658E+03 -0.99423312824E+03  0.10159654936E+04  0.17300000000E+03 0.  1.
         -6    1    1    2    0  502  0.27921086616E+02 -0.11392007658E+03 -0.19647366625E+02  0.20993425147E+03  0.17300000000E+03 0. -1.
</event>
<event>
 4    1  0.6123996E+000  0.1000000E+03  0.7546771E-02  0.1280296E+00
         21   -1    0    0  501  502  0.00000000000E+00  0.00000000000E+00  0.16005123355E+03  0.16005123355E+03  0.00000000000E+00 0. -1.
         21   -1    0    0  502  503 -0.00000000000E+00 -0.00000000000E+00 -0.75656212689E+03  0.75656212689E+03  0.00000000000E+00 0. -1.
          6    1    1    2  501    0 -0.37270447877E+01 -0.25756546664E+03 -0.90820771443E+02  0.32331296447E+03  0.17300000000E+03 0. -1.
         -6    1    1    2    0  503  0.37270447877E+01  0.25756546664E+03 -0.50569012190E+03  0.59330039597E+03  0.17300000000E+03 0. -1.
</event>
<event>
 4    1  0.6123996E+000  0.1000000E+03  0.7546771E-02  0.1280296E+00
         21   -1    0    0  501  502  0.00000000000E+00  0.00000000000E+00  0.13720996573E+03  0.13720996573E+03  0.00000000000E+00 0. -1.
         21   -1    0    0  502  503 -0.00000000000E+00 -0.00000000000E+00 -0.29793040239E+03  0.29793040239E+03  0.00000000000E+00 0. -1.
          6    1    1    2  501    0  0.34776892377E+02 -0.98525972387E+02 -0.74157895794E+02  0.21527933711E+03  0.17300000000E+03 0. -1.
         -6    1    1    2    0  503 -0.34776892377E+02  0.98525972387E+02 -0.86562540863E+02  0.21986103101E+03  0.17300000000E+03 0. -1.
</event>
<event>
 4    1  0.6123996E+000  0.1000000E+03  0.7546771E-02  0.1280296E+00
         21   -1    0    0  503  502  0.00000000000E+00  0.00000000000E+00  0.66219641788E+02  0.66219641788E+02  0.00000000000E+00 0.  1.
         21   -1    0    0  501  503 -0.00000000000E+00 -0.00000000000E+00 -0.10415298315E+04  0.10415298315E+04  0.00000000000E+00 0.  1.
          6    1    1    2  501    0 -0.12817045679E+03  0.12271214027E+03 -0.67096827234E+03  0.71527152736E+03  0.17300000000E+03 0.  1.
         -6    1    1    2    0  502  0.12817045679E+03 -0.12271214027E+03 -0.30434191732E+03  0.39247794588E+03  0.17300000000E+03 0.  1.
</event>
<event>
 4    1  0.6123996E+000  0.1000000E+03  0.7546771E-02  0.1280296E+00
         21   -1    0    0  503  502  0.00000000000E+00  0.00000000000E+00  0.10977474890E+03  0.10977474890E+03  0.00000000000E+00 0.  1.
         21   -1    0    0  501  503 -0.00000000000E+00 -0.00000000000E+00 -0.28826499666E+03  0.28826499666E+03  0.00000000000E+00 0.  1.
          6    1    1    2  501    0 -0.27277171071E+02  0.16004818960E+02 -0.11916144285E+03  0.21243504361E+03  0.17300000000E+03 0.  1.
         -6    1    1    2    0  502  0.27277171071E+02 -0.16004818960E+02 -0.59328804904E+02  0.18560470194E+03  0.17300000000E+03 0.  1.
</event>
<event>
 4    1  0.6123996E+000  0.1000000E+03  0.7546771E-02  0.1280296E+00
         21   -1    0    0  503  502  0.00000000000E+00  0.00000000000E+00  0.20912143610E+03  0.20912143610E+03  0.00000000000E+00 0.  1.
         21   -1    0    0  501  503 -0.00000000000E+00 -0.00000000000E+00 -0.16333678758E+03  0.16333678758E+03  0.00000000000E+00 0.  1.
          6    1    1    2  501    0 -0.32800934456E+02 -0.20631100970E+02 -0.29724347519E+02  0.17976117619E+03  0.17300000000E+03 0.  1.
         -6    1    1    2    0  502  0.32800934456E+02  0.20631100970E+02  0.75508996036E+02  0.19269704749E+03  0.17300000000E+03 0.  1.
</event>
<event>
 4    1  0.6123996E+000  0.1000000E+03  0.7546771E-02  0.1280296E+00
         21   -1    0    0  503  502  0.00000000000E+00  0.00000000000E+00  0.18036266976E+04  0.18036266976E+04  0.00000000000E+00 0.  1.
         21   -1    0    0  501  503 -0.00000000000E+00 -0.00000000000E+00 -0.26263328321E+02  0.26263328321E+02  0.00000000000E+00 0.  1.
          6    1    1    2  501    0 -0.12253216818E+03 -0.43200537707E+02  0.98814697262E+03  0.10115551681E+04  0.17300000000E+03 0.  1.
         -6    1    1    2    0  502  0.12253216818E+03  0.43200537707E+02  0.78921639662E+03  0.81833485774E+03  0.17300000000E+03 0.  1.
</event>
<event>
 4    1  0.6123996E+000  0.1000000E+03  0.7546771E-02  0.1280296E+00
         21   -1    0    0  501  502  0.00000000000E+00  0.00000000000E+00  0.12219035957E+03  0.12219035957E+03  0.00000000000E+00 0.  1.
         21   -1    0    0  502  503 -0.00000000000E+00 -0.00000000000E+00 -0.43842336816E+03  0.43842336816E+03  0.00000000000E+00 0.  1.
          6    1    1    2  501    0 -0.14363872850E+03 -0.44804286573E+02 -0.11976941634E+03  0.25867590052E+03  0.17300000000E+03 0.  1.
         -6    1    1    2    0  503  0.14363872850E+03  0.44804286573E+02 -0.19646359225E+03  0.30193782721E+03  0.17300000000E+03 0.  1.
</event>
<event>
 4    1  0.6123996E+000  0.1000000E+03  0.7546771E-02  0.1280296E+00
         21   -1    0    0  501  502  0.00000000000E+00  0.00000000000E+00  0.42429669111E+03  0.42429669111E+03  0.00000000000E+00 0.  1.
         21   -1    0    0  502  503 -0.00000000000E+00 -0.00000000000E+00 -0.97905028869E+02  0.97905028869E+02  0.00000000000E+00 0.  1.
          6    1    1    2  501    0 -0.58311231585E+02 -0.61499060466E+02  0.77935764577E+02  0.20781077346E+03  0.17300000000E+03 0.  1.
         -6    1    1    2    0  503  0.58311231585E+02  0.61499060466E+02  0.24845589766E+03  0.31439094652E+03  0.17300000000E+03 0.  1.
</event>
<event>
 4    1  0.6123996E+000  0.1000000E+03  0.7546771E-02  0.1280296E+00
         21   -1    0    0  503  502  0.00000000000E+00  0.00000000000E+00  0.36587288117E+03  0.36587288117E+03  0.00000000000E+00 0.  1.
         21   -1    0    0  501  503 -0.00000000000E+00 -0.00000000000E+00 -0.13971681801E+03  0.13971681801E+03  0.00000000000E+00 0.  1.
          6    1    1    2  501    0 -0.10205602380E+03  0.56663696896E+02  0.15839819616E+02  0.20929908367E+03  0.17300000000E+03 0.  1.
         -6    1    1    2    0  502  0.10205602380E+03 -0.56663696896E+02  0.21031624355E+03  0.29629061551E+03  0.17300000000E+03 0.  1.
</event>
<event>
 4    1  0.6123996E+000  0.1000000E+03  0.7546771E-02  0.1280296E+00
         21   -1    0    0  503  502  0.00000000000E+00  0.00000000000E+00  0.42142618061E+03  0.42142618061E+03  0.00000000000E+00 0.  1.
         21   -1    0    0  501  503 -0.00000000000E+00 -0.00000000000E+00 -0.17162481316E+03  0.17162481316E+03  0.00000000000E+00 0.  1.
          6    1    1    2  501    0  0.92692451347E+02 -0.29842530710E+02 -0.75137518387E+02  0.21226661029E+03  0.17300000000E+03 0.  1.
         -6    1    1    2    0  502 -0.92692451347E+02  0.29842530710E+02  0.32493888584E+03  0.38078438348E+03  0.17300000000E+03 0.  1.
</event>
<event>
 4    1  0.6123996E+000  0.1000000E+03  0.7546771E-02  0.1280296E+00
         21   -1    0    0  503  502  0.00000000000E+00  0.00000000000E+00  0.11034427438E+03  0.11034427438E+03  0.00000000000E+00 0.  1.
         21   -1    0    0  501  503 -0.00000000000E+00 -0.00000000000E+00 -0.33881790986E+03  0.33881790986E+03  0.00000000000E+00 0.  1.
          6    1    1    2  501    0 -0.18219747595E+00  0.84378974720E+02 -0.13558332510E+03  0.23543933957E+03  0.17300000000E+03 0.  1.
         -6    1    1    2    0  502  0.18219747595E+00 -0.84378974720E+02 -0.92890310392E+02  0.21372284467E+03  0.17300000000E+03 0.  1.
</event>
<event>
 4    1  0.6123996E+000  0.1000000E+03  0.7546771E-02  0.1280296E+00
         21   -1    0    0  501  502  0.00000000000E+00  0.00000000000E+00  0.82505879290E+02  0.82505879290E+02  0.00000000000E+00 0. -1.
         21   -1    0    0  502  503 -0.00000000000E+00 -0.00000000000E+00 -0.10488018931E+04  0.10488018931E+04  0.00000000000E+00 0.  1.
          6    1    1    2  501    0  0.20063606679E+03 -0.54797887962E+02 -0.26100533522E+03  0.37591278887E+03  0.17300000000E+03 0.  1.
         -6    1    1    2    0  503 -0.20063606679E+03  0.54797887962E+02 -0.70529067856E+03  0.75539498349E+03  0.17300000000E+03 0. -1.
</event>
<event>
 4    1  0.6123996E+000  0.1000000E+03  0.7546771E-02  0.1280296E+00
         21   -1    0    0  501  502  0.00000000000E+00  0.00000000000E+00  0.19410614943E+03  0.19410614943E+03  0.00000000000E+00 0. -1.
         21   -1    0    0  502  503 -0.00000000000E+00 -0.00000000000E+00 -0.21349958816E+03  0.21349958816E+03  0.00000000000E+00 0.  1.
          6    1    1    2  501    0  0.14810545603E+02 -0.10099860223E+03  0.23393941562E+02  0.20222845105E+03  0.17300000000E+03 0.  1.
         -6    1    1    2    0  503 -0.14810545603E+02  0.10099860223E+03 -0.42787380285E+02  0.20537728654E+03  0.17300000000E+03 0. -1.
</event>
<event>
 4    1  0.6123996E+000  0.1000000E+03  0.7546771E-02  0.1280296E+00
         21   -1    0    0  503  502  0.00000000000E+00  0.00000000000E+00  0.11538751888E+03  0.11538751888E+03  0.00000000000E+00 0.  1.
         21   -1    0    0  501  503 -0.00000000000E+00 -0.00000000000E+00 -0.39249805109E+03  0.39249805109E+03  0.00000000000E+00 0.  1.
          6    1    1    2  501    0 -0.12240375666E+03  0.16500639781E+02 -0.15080736766E+03  0.26062772857E+03  0.17300000000E+03 0.  1.
         -6    1    1    2    0  502  0.12240375666E+03 -0.16500639781E+02 -0.12630316455E+03  0.24725784140E+03  0.17300000000E+03 0.  1.
</event>
<event>
 4    1  0.6123996E+000  0.1000000E+03  0.7546771E-02  0.1280296E+00
         21   -1    0    0  503  502  0.00000000000E+00  0.00000000000E+00  0.37806446028E+03  0.37806446028E+03  0.00000000000E+00 0. -1.
         21   -1    0    0  501  503 -0.00000000000E+00 -0.00000000000E+00 -0.60632396389E+03  0.60632396389E+03  0.00000000000E+00 0. -1.
          6    1    1    2  501    0  0.28014244203E+03  0.34213733516E+03 -0.17719014497E+03  0.50681662504E+03  0.17300000000E+03 0. -1.
         -6    1    1    2    0  502 -0.28014244203E+03 -0.34213733516E+03 -0.51069358637E+02  0.47757179914E+03  0.17300000000E+03 0. -1.
</event>
<event>
 4    1  0.6123996E+000  0.1000000E+03  0.7546771E-02  0.1280296E+00
         21   -1    0    0  501  502  0.00000000000E+00  0.00000000000E+00  0.72274308875E+03  0.72274308875E+03  0.00000000000E+00 0.  1.
         21   -1    0    0  502  503 -0.00000000000E+00 -0.00000000000E+00 -0.22788697747E+03  0.22788697747E+03  0.00000000000E+00 0. -1.
          6    1    1    2  501    0  0.72814895306E+02  0.39380268859E+02  0.66632029342E+03  0.69337186847E+03  0.17300000000E+03 0. -1.
         -6    1    1    2    0  503 -0.72814895306E+02 -0.39380268859E+02 -0.17146418214E+03  0.25725819775E+03  0.17300000000E+03 0.  1.
</event>
<event>
 4    1  0.6123996E+000  0.1000000E+03  0.7546771E-02  0.1280296E+00
         21   -1    0    0  503  502  0.00000000000E+00  0.00000000000E+00  0.15320064974E+03  0.15320064974E+03  0.00000000000E+00 0.  1.
         21   -1    0    0  501  503 -0.00000000000E+00 -0.00000000000E+00 -0.26978803920E+03  0.26978803920E+03  0.00000000000E+00 0.  1.
          6    1    1    2  501    0 -0.57967988142E+02 -0.51573860926E+02 -0.13461595631E+03  0.23253087209E+03  0.17300000000E+03 0. -1.
         -6    1    1    2    0  502  0.57967988142E+02  0.51573860926E+02  0.18028566844E+02  0.19045781686E+03  0.17300000000E+03 0. -1.
</event>
<event>
 4    1  0.6123996E+000  0.1000000E+03  0.7546771E-02  0.1280296E+00
         21   -1    0    0  503  502  0.00000000000E+00  0.00000000000E+00  0.20727776282E+03  0.20727776282E+03  0.00000000000E+00 0. -1.
         21   -1    0    0  501  503 -0.00000000000E+00 -0.00000000000E+00 -0.24401983711E+03  0.24401983711E+03  0.00000000000E+00 0. -1.
          6    1    1    2  501    0  0.12903623810E+03 -0.62549680284E+02 -0.89550752089E+01  0.22488220610E+03  0.17300000000E+03 0. -1.
         -6    1    1    2    0  502 -0.12903623810E+03  0.62549680284E+02 -0.27786999074E+02  0.22641539383E+03  0.17300000000E+03 0. -1.
</event>
<event>
 4    1  0.6123996E+000  0.1000000E+03  0.7546771E-02  0.1280296E+00
         21   -1    0    0  503  502  0.00000000000E+00  0.00000000000E+00  0.91648928836E+02  0.91648928836E+02  0.00000000000E+00 0.  1.
         21   -1    0    0  501  503 -0.00000000000E+00 -0.00000000000E+00 -0.47226872278E+03  0.47226872278E+03  0.00000000000E+00 0. -1.
          6    1    1    2  501    0 -0.10810787936E+03  0.12933143603E+02 -0.24278796896E+03  0.31737923319E+03  0.17300000000E+03 0. -1.
         -6    1    1    2    0  502  0.10810787936E+03 -0.12933143603E+02 -0.13783182498E+03  0.24653841843E+03  0.17300000000E+03 0.  1.
</event>
<event>
 4    1  0.6123996E+000  0.1000000E+03  0.7546771E-02  0.1280296E+00
         21   -1    0    0  503  502  0.00000000000E+00  0.00000000000E+00  0.40722306919E+03  0.40722306919E+03  0.00000000000E+00 0.  1.
         21   -1    0    0  501  503 -0.00000000000E+00 -0.00000000000E+00 -0.12766991291E+03  0.12766991291E+03  0.00000000000E+00 0. -1.
          6    1    1    2  501    0 -0.81833163637E+02  0.74295344228E+01 -0.53522423587E+01  0.19159726290E+03  0.17300000000E+03 0. -1.
         -6    1    1    2    0  502  0.81833163637E+02 -0.74295344228E+01  0.28490539864E+03  0.34329571921E+03  0.17300000000E+03 0.  1.
</event>
<event>
 4    1  0.6123996E+000  0.1000000E+03  0.7546771E-02  0.1280296E+00
         21   -1    0    0  503  502  0.00000000000E+00  0.00000000000E+00  0.77174805613E+02  0.77174805613E+02  0.00000000000E+00 0.  1.
         21   -1    0    0  501  503 -0.00000000000E+00 -0.00000000000E+00 -0.40887498905E+03  0.40887498905E+03  0.00000000000E+00 0. -1.
          6    1    1    2  501    0 -0.88240022030E+01 -0.35089781024E+02 -0.19019657878E+03  0.25963993207E+03  0.17300000000E+03 0. -1.
         -6    1    1    2    0  502  0.88240022030E+01  0.35089781024E+02 -0.14150360466E+03  0.22640986259E+03  0.17300000000E+03 0.  1.
</event>
<event>
 4    1  0.6123996E+000  0.1000000E+03  0.7546771E-02  0.1280296E+00
         21   -1    0    0  501  502  0.00000000000E+00  0.00000000000E+00  0.62300388300E+03  0.62300388300E+03  0.00000000000E+00 0. -1.
         21   -1    0    0  502  503 -0.00000000000E+00 -0.00000000000E+00 -0.11690136957E+03  0.11690136957E+03  0.00000000000E+00 0.  1.
          6    1    1    2  501    0  0.95163279259E+02 -0.15628170952E+02  0.50433547589E+03  0.54183351842E+03  0.17300000000E+03 0. -1.
         -6    1    1    2    0  503 -0.95163279259E+02  0.15628170952E+02  0.17670375487E+01  0.19807173415E+03  0.17300000000E+03 0.  1.
</event>
<event>
 4    1  0.6123996E+000  0.1000000E+03  0.7546771E-02  0.1280296E+00
         21   -1    0    0  501  502  0.00000000000E+00  0.00000000000E+00  0.16844935763E+03  0.16844935763E+03  0.00000000000E+00 0. -1.
         21   -1    0    0  502  503 -0.00000000000E+00 -0.00000000000E+00 -0.19640380659E+03  0.19640380659E+03  0.00000000000E+00 0. -1.
          6    1    1    2  501    0 -0.35424356414E+02  0.12245713151E+02  0.27982134961E+02  0.17921172505E+03  0.17300000000E+03 0. -1.
         -6    1    1    2    0  503  0.35424356414E+02 -0.12245713151E+02 -0.55936583922E+02  0.18564143917E+03  0.17300000000E+03 0. -1.
</event>
<event>
 4    1  0.6123996E+000  0.1000000E+03  0.7546771E-02  0.1280296E+00
         21   -1    0    0  501  502  0.00000000000E+00  0.00000000000E+00  0.42115624996E+03  0.42115624996E+03  0.00000000000E+00 0. -1.
         21   -1    0    0  502  503 -0.00000000000E+00 -0.00000000000E+00 -0.50753833295E+03  0.50753833295E+03  0.00000000000E+00 0. -1.
          6    1    1    2  501    0 -0.56122284669E+02 -0.33345427127E+03  0.22155197937E+03  0.43972234584E+03  0.17300000000E+03 0. -1.
         -6    1    1    2    0  503  0.56122284669E+02  0.33345427127E+03 -0.30793406237E+03  0.48897223708E+03  0.17300000000E+03 0. -1.
</event>
<event>
 4    1  0.6123996E+000  0.1000000E+03  0.7546771E-02  0.1280296E+00
         21   -1    0    0  501  502  0.00000000000E+00  0.00000000000E+00  0.16462515270E+04  0.16462515270E+04  0.00000000000E+00 0. -1.
         21   -1    0    0  502  503 -0.00000000000E+00 -0.00000000000E+00 -0.34168561881E+02  0.34168561881E+02  0.00000000000E+00 0. -1.
          6    1    1    2  501    0 -0.80464550742E+01 -0.11815104280E+02  0.13785548294E+04  0.13894411682E+04  0.17300000000E+03 0. -1.
         -6    1    1    2    0  503  0.80464550742E+01  0.11815104280E+02  0.23352813572E+03  0.29097892071E+03  0.17300000000E+03 0. -1.
</event>
<event>
 4    1  0.6123996E+000  0.1000000E+03  0.7546771E-02  0.1280296E+00
         21   -1    0    0  501  502  0.00000000000E+00  0.00000000000E+00  0.88014640912E+02  0.88014640912E+02  0.00000000000E+00 0. -1.
         21   -1    0    0  502  503 -0.00000000000E+00 -0.00000000000E+00 -0.59337371411E+03  0.59337371411E+03  0.00000000000E+00 0.  1.
          6    1    1    2  501    0  0.72841719771E+02 -0.79479952498E+02 -0.98659058639E+02  0.22646321741E+03  0.17300000000E+03 0. -1.
         -6    1    1    2    0  503 -0.72841719771E+02  0.79479952498E+02 -0.40670001456E+03  0.45492513761E+03  0.17300000000E+03 0.  1.
</event>
<event>
 4    1  0.6123996E+000  0.1000000E+03  0.7546771E-02  0.1280296E+00
         21   -1    0    0  501  502  0.00000000000E+00  0.00000000000E+00  0.25267259163E+03  0.25267259163E+03  0.00000000000E+00 0. -1.
         21   -1    0    0  502  503 -0.00000000000E+00 -0.00000000000E+00 -0.13023074802E+03  0.13023074802E+03  0.00000000000E+00 0. -1.
          6    1    1    2  501    0 -0.20049878654E+02 -0.50741553141E+02  0.61015828016E+02  0.19138608653E+03  0.17300000000E+03 0. -1.
         -6    1    1    2    0  503  0.20049878654E+02  0.50741553141E+02  0.61426015593E+02  0.19151725312E+03  0.17300000000E+03 0. -1.
</event>
<event>
 4    1  0.6123996E+000  0.1000000E+03  0.7546771E-02  0.1280296E+00
         21   -1    0    0  501  502  0.00000000000E+00  0.00000000000E+00  0.17316342395E+03  0.17316342395E+03  0.00000000000E+00 0.  1.
         21   -1    0    0  502  503 -0.00000000000E+00 -0.00000000000E+00 -0.28996955017E+03  0.28996955017E+03  0.00000000000E+00 0.  1.
          6    1    1    2  501    0  0.57658317614E+02  0.61960464872E+02  0.59963958766E+02  0.20171330434E+03  0.17300000000E+03 0.  1.
         -6    1    1    2    0  503 -0.57658317614E+02 -0.61960464872E+02 -0.17677008499E+03  0.26141966978E+03  0.17300000000E+03 0.  1.
</event>
<event>
 4    1  0.6123996E+000  0.1000000E+03  0.7546771E-02  0.1280296E+00
         21   -1    0    0  501  502  0.00000000000E+00  0.00000000000E+00  0.11639697230E+03  0.11639697230E+03  0.00000000000E+00 0.  1.
         21   -1    0    0  502  503 -0.00000000000E+00 -0.00000000000E+00 -0.63998754816E+03  0.63998754816E+03  0.00000000000E+00 0.  1.
          6    1    1    2  501    0  0.28746122907E+02 -0.38536760223E+02  0.23031381919E+02  0.18102725216E+03  0.17300000000E+03 0.  1.
         -6    1    1    2    0  503 -0.28746122907E+02  0.38536760223E+02 -0.54662195777E+03  0.57535726830E+03  0.17300000000E+03 0.  1.
</event>
<event>
 4    1  0.6123996E+000  0.1000000E+03  0.7546771E-02  0.1280296E+00
         21   -1    0    0  501  502  0.00000000000E+00  0.00000000000E+00  0.71331494058E+03  0.71331494058E+03  0.00000000000E+00 0.  1.
         21   -1    0    0  502  503 -0.00000000000E+00 -0.00000000000E+00 -0.63245136593E+02  0.63245136593E+02  0.00000000000E+00 0.  1.
          6    1    1    2  501    0  0.80773646021E+02 -0.24307700050E+02  0.48924994173E+03  0.52574685131E+03  0.17300000000E+03 0.  1.
         -6    1    1    2    0  503 -0.80773646021E+02  0.24307700050E+02  0.16081986225E+03  0.25081322586E+03  0.17300000000E+03 0.  1.
</event>
<event>
 4    1  0.6123996E+000  0.1000000E+03  0.7546771E-02  0.1280296E+00
         21   -1    0    0  501  502  0.00000000000E+00  0.00000000000E+00  0.47779163013E+03  0.47779163013E+03  0.00000000000E+00 0.  1.
         21   -1    0    0  502  503 -0.00000000000E+00 -0.00000000000E+00 -0.16359512252E+03  0.16359512252E+03  0.00000000000E+00 0.  1.
          6    1    1    2  501    0 -0.21130485479E+03  0.56571221670E+02  0.13458153766E+03  0.30966309928E+03  0.17300000000E+03 0.  1.
         -6    1    1    2    0  503  0.21130485479E+03 -0.56571221670E+02  0.17961496995E+03  0.33172365337E+03  0.17300000000E+03 0.  1.
</event>
<event>
 4    1  0.6123996E+000  0.1000000E+03  0.7546771E-02  0.1280296E+00
         21   -1    0    0  501  502  0.00000000000E+00  0.00000000000E+00  0.48543389752E+03  0.48543389752E+03  0.00000000000E+00 0.  1.
         21   -1    0    0  502  503 -0.00000000000E+00 -0.00000000000E+00 -0.76052747338E+02  0.76052747338E+02  0.00000000000E+00 0. -1.
          6    1    1    2  501    0  0.17017077158E+02  0.77441742241E+02  0.24342487972E+03  0.30898458930E+03  0.17300000000E+03 0.  1.
         -6    1    1    2    0  503 -0.17017077158E+02 -0.77441742241E+02  0.16595627046E+03  0.25250205556E+03  0.17300000000E+03 0. -1.
</event>
<event>
 4    1  0.6123996E+000  0.1000000E+03  0.7546771E-02  0.1280296E+00
         21   -1    0    0  501  502  0.00000000000E+00  0.00000000000E+00  0.11958241147E+03  0.11958241147E+03  0.00000000000E+00 0.  1.
         21   -1    0    0  502  503 -0.00000000000E+00 -0.00000000000E+00 -0.27086739125E+03  0.27086739125E+03  0.00000000000E+00 0. -1.
          6    1    1    2  501    0 -0.57934177199E+00 -0.36184842442E+02 -0.38820650224E+02  0.18095778884E+03  0.17300000000E+03 0.  1.
         -6    1    1    2    0  503  0.57934177199E+00  0.36184842442E+02 -0.11246432956E+03  0.20949201389E+03  0.17300000000E+03 0. -1.
</event>
<event>
 4    1  0.6123996E+000  0.1000000E+03  0.7546771E-02  0.1280296E+00
         21   -1    0    0  501  502  0.00000000000E+00  0.00000000000E+00  0.37565227060E+03  0.37565227060E+03  0.00000000000E+00 0.  1.
         21   -1    0    0  502  503 -0.00000000000E+00 -0.00000000000E+00 -0.34674421192E+03  0.34674421192E+03  0.00000000000E+00 0.  1.
          6    1    1    2  501    0  0.23656188762E+02 -0.10461584915E+03  0.31272340923E+03  0.37313405344E+03  0.17300000000E+03 0.  1.
         -6    1    1    2    0  503 -0.23656188762E+02  0.10461584915E+03 -0.28381535055E+03  0.34926242908E+03  0.17300000000E+03 0.  1.
</event>
<event>
 4    1  0.6123996E+000  0.1000000E+03  0.7546771E-02  0.1280296E+00
         21   -1    0    0  501  502  0.00000000000E+00  0.00000000000E+00  0.23889071899E+03  0.23889071899E+03  0.00000000000E+00 0.  1.
         21   -1    0    0  502  503 -0.00000000000E+00 -0.00000000000E+00 -0.16125154558E+03  0.16125154558E+03  0.00000000000E+00 0.  1.
          6    1    1    2  501    0  0.79160598812E+02  0.20864077600E+02  0.83145144774E+02  0.20867157266E+03  0.17300000000E+03 0.  1.
         -6    1    1    2    0  503 -0.79160598812E+02 -0.20864077600E+02 -0.55059713594E+01  0.19147069191E+03  0.17300000000E+03 0.  1.
</event>
<event>
 4    1  0.6123996E+000  0.1000000E+03  0.7546771E-02  0.1280296E+00
         21   -1    0    0  503  502  0.00000000000E+00  0.00000000000E+00  0.74422869808E+03  0.74422869808E+03  0.00000000000E+00 0. -1.
         21   -1    0    0  501  503 -0.00000000000E+00 -0.00000000000E+00 -0.72252154023E+02  0.72252154023E+02  0.00000000000E+00 0.  1.
          6    1    1    2  501    0  0.90596046815E+02  0.11970339080E+03  0.39962466878E+03  0.46061417842E+03  0.17300000000E+03 0.  1.
         -6    1    1    2    0  502 -0.90596046815E+02 -0.11970339080E+03  0.27235187528E+03  0.35586667368E+03  0.17300000000E+03 0. -1.
</event>
<event>
 4    1  0.6123996E+000  0.1000000E+03  0.7546771E-02  0.1280296E+00
         21   -1    0    0  503  502  0.00000000000E+00  0.00000000000E+00  0.53677481156E+02  0.53677481156E+02  0.00000000000E+00 0. -1.
         21   -1    0    0  501  503 -0.00000000000E+00 -0.00000000000E+00 -0.82086349049E+03  0.82086349049E+03  0.00000000000E+00 0.  1.
          6    1    1    2  501    0  0.19716380786E+02 -0.71129555874E+02 -0.57772491151E+03  0.60757157831E+03  0.17300000000E+03 0.  1.
         -6    1    1    2    0  502 -0.19716380786E+02  0.71129555874E+02 -0.18946109782E+03  0.26696939334E+03  0.17300000000E+03 0. -1.
</event>
<event>
 4    1  0.6123996E+000  0.1000000E+03  0.7546771E-02  0.1280296E+00
         21   -1    0    0  503  502  0.00000000000E+00  0.00000000000E+00  0.22879708089E+03  0.22879708089E+03  0.00000000000E+00 0. -1.
         21   -1    0    0  501  503 -0.00000000000E+00 -0.00000000000E+00 -0.14332561855E+03  0.14332561855E+03  0.00000000000E+00 0.  1.
          6    1    1    2  501    0  0.34026664941E+02  0.33627526150E+02  0.18100901176E+02  0.18040306834E+03  0.17300000000E+03 0.  1.
         -6    1    1    2    0  502 -0.34026664941E+02 -0.33627526150E+02  0.67370561165E+02  0.19171963111E+03  0.17300000000E+03 0. -1.
</event>
<event>
 4    1  0.6123996E+000  0.1000000E+03  0.7546771E-02  0.1280296E+00
         21   -1    0    0  501  502  0.00000000000E+00  0.00000000000E+00  0.95838772508E+03  0.95838772508E+03  0.00000000000E+00 0.  1.
         21   -1    0    0  502  503 -0.00000000000E+00 -0.00000000000E+00 -0.59554384489E+02  0.59554384489E+02  0.00000000000E+00 0.  1.
          6    1    1    2  501    0 -0.15484939550E+02  0.69421388677E+02  0.76604120295E+03  0.78854754909E+03  0.17300000000E+03 0.  1.
         -6    1    1    2    0  503  0.15484939550E+02 -0.69421388677E+02  0.13279213764E+03  0.22939456048E+03  0.17300000000E+03 0.  1.
</event>
<event>
 4    1  0.6123996E+000  0.1000000E+03  0.7546771E-02  0.1280296E+00
         21   -1    0    0  501  502  0.00000000000E+00  0.00000000000E+00  0.59046012399E+03  0.59046012399E+03  0.00000000000E+00 0.  1.
         21   -1    0    0  502  503 -0.00000000000E+00 -0.00000000000E+00 -0.87603211360E+02  0.87603211360E+02  0.00000000000E+00 0.  1.
          6    1    1    2  501    0 -0.18869913424E+02  0.18176384292E+01  0.46968905020E+03  0.50089537961E+03  0.17300000000E+03 0.  1.
         -6    1    1    2    0  503  0.18869913424E+02 -0.18176384292E+01  0.33167862433E+02  0.17716795574E+03  0.17300000000E+03 0.  1.
</event>
<event>
 4    1  0.6123996E+000  0.1000000E+03  0.7546771E-02  0.1280296E+00
         21   -1    0    0  503  502  0.00000000000E+00  0.00000000000E+00  0.15369823625E+03  0.15369823625E+03  0.00000000000E+00 0.  1.
         21   -1    0    0  501  503 -0.00000000000E+00 -0.00000000000E+00 -0.13182817281E+04  0.13182817281E+04  0.00000000000E+00 0.  1.
          6    1    1    2  501    0 -0.25851669515E+03  0.60921176136E+02 -0.11048619888E+04  0.11494308529E+04  0.17300000000E+03 0.  1.
         -6    1    1    2    0  502  0.25851669515E+03 -0.60921176136E+02 -0.59721503099E+02  0.32254911146E+03  0.17300000000E+03 0.  1.
</event>
<event>
 4    1  0.6123996E+000  0.1000000E+03  0.7546771E-02  0.1280296E+00
         21   -1    0    0  503  502  0.00000000000E+00  0.00000000000E+00  0.26825184945E+03  0.26825184945E+03  0.00000000000E+00 0.  1.
         21   -1    0    0  501  503 -0.00000000000E+00 -0.00000000000E+00 -0.14862155047E+03  0.14862155047E+03  0.00000000000E+00 0.  1.
          6    1    1    2  501    0 -0.42364591572E+02  0.69554921634E+02 -0.21051883300E+00  0.19121111385E+03  0.17300000000E+03 0.  1.
         -6    1    1    2    0  502  0.42364591572E+02 -0.69554921634E+02  0.11984081781E+03  0.22566228607E+03  0.17300000000E+03 0.  1.
</event>
<event>
 4    1  0.6123996E+000  0.1000000E+03  0.7546771E-02  0.1280296E+00
         21   -1    0    0  503  502  0.00000000000E+00  0.00000000000E+00  0.14105812659E+03  0.14105812659E+03  0.00000000000E+00 0.  1.
         21   -1    0    0  501  503 -0.00000000000E+00 -0.00000000000E+00 -0.64097357461E+03  0.64097357461E+03  0.00000000000E+00 0.  1.
          6    1    1    2  501    0 -0.15127275860E+03  0.57076799970E+02 -0.49094977873E+03  0.54507054022E+03  0.17300000000E+03 0.  1.
         -6    1    1    2    0  502  0.15127275860E+03 -0.57076799970E+02 -0.89656692944E+01  0.23696116098E+03  0.17300000000E+03 0.  1.
</event>
<event>
 4    1  0.6123996E+000  0.1000000E+03  0.7546771E-02  0.1280296E+00
         21   -1    0    0  501  502  0.00000000000E+00  0.00000000000E+00  0.99623977143E+03  0.99623977143E+03  0.00000000000E+00 0.  1.
         21   -1    0    0  502  503 -0.00000000000E+00 -0.00000000000E+00 -0.50085138595E+02  0.50085138595E+02  0.00000000000E+00 0.  1.
          6    1    1    2  501    0  0.60787418902E+02 -0.23231649798E+02  0.76684619525E+03  0.78880726861E+03  0.17300000000E+03 0.  1.
         -6    1    1    2    0  503 -0.60787418902E+02  0.23231649798E+02  0.17930843759E+03  0.25751764142E+03  0.17300000000E+03 0.  1.
</event>
<event>
 4    1  0.6123996E+000  0.1000000E+03  0.7546771E-02  0.1280296E+00
         21   -1    0    0  501  502  0.00000000000E+00  0.00000000000E+00  0.17786841061E+03  0.17786841061E+03  0.00000000000E+00 0.  1.
         21   -1    0    0  502  503 -0.00000000000E+00 -0.00000000000E+00 -0.39488423564E+03  0.39488423564E+03  0.00000000000E+00 0.  1.
          6    1    1    2  501    0 -0.16871610231E+03  0.27033805262E+02  0.54011624762E+01  0.24321620497E+03  0.17300000000E+03 0.  1.
         -6    1    1    2    0  503  0.16871610231E+03 -0.27033805262E+02 -0.22241698750E+03  0.32953644129E+03  0.17300000000E+03 0.  1.
</event>
<event>
 4    1  0.6123996E+000  0.1000000E+03  0.7546771E-02  0.1280296E+00
         21   -1    0    0  501  502  0.00000000000E+00  0.00000000000E+00  0.25124535860E+03  0.25124535860E+03  0.00000000000E+00 0.  1.
         21   -1    0    0  502  503 -0.00000000000E+00 -0.00000000000E+00 -0.21524994248E+03  0.21524994248E+03  0.00000000000E+00 0. -1.
          6    1    1    2  501    0 -0.10572093381E+03  0.34396897592E+01  0.13219246655E+03  0.24205907445E+03  0.17300000000E+03 0.  1.
         -6    1    1    2    0  503  0.10572093381E+03 -0.34396897592E+01 -0.96197050432E+02  0.22443622663E+03  0.17300000000E+03 0. -1.
</event>
<event>
 4    1  0.6123996E+000  0.1000000E+03  0.7546771E-02  0.1280296E+00
         21   -1    0    0  501  502  0.00000000000E+00  0.00000000000E+00  0.16875816335E+02  0.16875816335E+02  0.00000000000E+00 0.  1.
         21   -1    0    0  502  503 -0.00000000000E+00 -0.00000000000E+00 -0.18859751079E+04  0.18859751079E+04  0.00000000000E+00 0. -1.
          6    1    1    2  501    0 -0.17774610339E+02  0.38489284470E+02 -0.88095125774E+03  0.89877777025E+03  0.17300000000E+03 0.  1.
         -6    1    1    2    0  503  0.17774610339E+02 -0.38489284470E+02 -0.98814803386E+03  0.10040731540E+04  0.17300000000E+03 0. -1.
</event>
<event>
 4    1  0.6123996E+000  0.1000000E+03  0.7546771E-02  0.1280296E+00
         21   -1    0    0  501  502  0.00000000000E+00  0.00000000000E+00  0.22448604423E+03  0.22448604423E+03  0.00000000000E+00 0.  1.
         21   -1    0    0  502  503 -0.00000000000E+00 -0.00000000000E+00 -0.22446947984E+03  0.22446947984E+03  0.00000000000E+00 0. -1.
          6    1    1    2  501    0 -0.12368324955E+03  0.27415317801E+02  0.66432070970E+02  0.22448021277E+03  0.17300000000E+03 0.  1.
         -6    1    1    2    0  503  0.12368324955E+03 -0.27415317801E+02 -0.66415506585E+02  0.22447531130E+03  0.17300000000E+03 0. -1.
</event>
<event>
 4    1  0.6123996E+000  0.1000000E+03  0.7546771E-02  0.1280296E+00
         21   -1    0    0  501  502  0.00000000000E+00  0.00000000000E+00  0.26638321095E+03  0.26638321095E+03  0.00000000000E+00 0.  1.
         21   -1    0    0  502  503 -0.00000000000E+00 -0.00000000000E+00 -0.21393127523E+03  0.21393127523E+03  0.00000000000E+00 0. -1.
          6    1    1    2  501    0  0.54792470789E+02  0.84600156119E+02  0.15700540576E+03  0.25443879167E+03  0.17300000000E+03 0.  1.
         -6    1    1    2    0  503 -0.54792470789E+02 -0.84600156119E+02 -0.10455347003E+03  0.22587569450E+03  0.17300000000E+03 0. -1.
</event>
<event>
 4    1  0.6123996E+000  0.1000000E+03  0.7546771E-02  0.1280296E+00
         21   -1    0    0  501  502  0.00000000000E+00  0.00000000000E+00  0.14627078290E+03  0.14627078290E+03  0.00000000000E+00 0.  1.
         21   -1    0    0  502  503 -0.00000000000E+00 -0.00000000000E+00 -0.17255918722E+04  0.17255918722E+04  0.00000000000E+00 0.  1.
          6    1    1    2  501    0 -0.43177261986E+03 -0.83590839841E+02 -0.47208917639E+03  0.66799117826E+03  0.17300000000E+03 0.  1.
         -6    1    1    2    0  503  0.43177261986E+03  0.83590839841E+02 -0.11072319129E+04  0.12038714768E+04  0.17300000000E+03 0.  1.
</event>
<event>
 4    1  0.6123996E+000  0.1000000E+03  0.7546771E-02  0.1280296E+00
         21   -1    0    0  501  502  0.00000000000E+00  0.00000000000E+00  0.81876864658E+03  0.81876864658E+03  0.00000000000E+00 0.  1.
         21   -1    0    0  502  503 -0.00000000000E+00 -0.00000000000E+00 -0.12942943892E+03  0.12942943892E+03  0.00000000000E+00 0.  1.
          6    1    1    2  501    0  0.13840064874E+03 -0.17312291128E+03  0.58360977947E+03  0.64780834872E+03  0.17300000000E+03 0.  1.
         -6    1    1    2    0  503 -0.13840064874E+03  0.17312291128E+03  0.10572942819E+03  0.30038973679E+03  0.17300000000E+03 0.  1.
</event>
<event>
 4    1  0.6123996E+000  0.1000000E+03  0.7546771E-02  0.1280296E+00
         21   -1    0    0  503  502  0.00000000000E+00  0.00000000000E+00  0.40758223713E+03  0.40758223713E+03  0.00000000000E+00 0.  1.
         21   -1    0    0  501  503 -0.00000000000E+00 -0.00000000000E+00 -0.89151080253E+02  0.89151080253E+02  0.00000000000E+00 0.  1.
          6    1    1    2  501    0  0.21566723618E+02  0.70062961144E+02  0.11732965688E+03  0.22151566643E+03  0.17300000000E+03 0.  1.
         -6    1    1    2    0  502 -0.21566723618E+02 -0.70062961144E+02  0.20110150000E+03  0.27521765095E+03  0.17300000000E+03 0.  1.
</event>
<event>
 4    1  0.6123996E+000  0.1000000E+03  0.7546771E-02  0.1280296E+00
         21   -1    0    0  503  502  0.00000000000E+00  0.00000000000E+00  0.49337886810E+03  0.49337886810E+03  0.00000000000E+00 0.  1.
         21   -1    0    0  501  503 -0.00000000000E+00 -0.00000000000E+00 -0.26591350762E+03  0.26591350762E+03  0.00000000000E+00 0.  1.
          6    1    1    2  501    0  0.57184074916E+02 -0.13201972537E+03 -0.18377592877E+03  0.29051991034E+03  0.17300000000E+03 0.  1.
         -6    1    1    2    0  502 -0.57184074916E+02  0.13201972537E+03  0.41124128925E+03  0.46877246538E+03  0.17300000000E+03 0.  1.
</event>
<event>
 4    1  0.6123996E+000  0.1000000E+03  0.7546771E-02  0.1280296E+00
         21   -1    0    0  503  502  0.00000000000E+00  0.00000000000E+00  0.64516863218E+02  0.64516863218E+02  0.00000000000E+00 0.  1.
         21   -1    0    0  501  503 -0.00000000000E+00 -0.00000000000E+00 -0.59768226437E+03  0.59768226437E+03  0.00000000000E+00 0.  1.
          6    1    1    2  501    0  0.21050068351E+02  0.81229754246E+02 -0.33382051227E+03  0.38523565874E+03  0.17300000000E+03 0.  1.
         -6    1    1    2    0  502 -0.21050068351E+02 -0.81229754246E+02 -0.19934488888E+03  0.27696346884E+03  0.17300000000E+03 0.  1.
</event>
<event>
 4    1  0.6123996E+000  0.1000000E+03  0.7546771E-02  0.1280296E+00
         21   -1    0    0  503  502  0.00000000000E+00  0.00000000000E+00  0.35959861715E+03  0.35959861715E+03  0.00000000000E+00 0.  1.
         21   -1    0    0  501  503 -0.00000000000E+00 -0.00000000000E+00 -0.24247322993E+03  0.24247322993E+03  0.00000000000E+00 0.  1.
          6    1    1    2  501    0 -0.69070411176E+02  0.14881645634E+03 -0.11903411190E+03  0.26648673358E+03  0.17300000000E+03 0.  1.
         -6    1    1    2    0  502  0.69070411176E+02 -0.14881645634E+03  0.23615949911E+03  0.33558511350E+03  0.17300000000E+03 0.  1.
</event>
<event>
 4    1  0.6123996E+000  0.1000000E+03  0.7546771E-02  0.1280296E+00
         21   -1    0    0  503  502  0.00000000000E+00  0.00000000000E+00  0.42628622543E+03  0.42628622543E+03  0.00000000000E+00 0.  1.
         21   -1    0    0  501  503 -0.00000000000E+00 -0.00000000000E+00 -0.15061115131E+03  0.15061115131E+03  0.00000000000E+00 0.  1.
          6    1    1    2  501    0  0.10417949309E+03  0.41452828419E+02 -0.29867764832E+02  0.20830935442E+03  0.17300000000E+03 0.  1.
         -6    1    1    2    0  502 -0.10417949309E+03 -0.41452828419E+02  0.30554283895E+03  0.36858802232E+03  0.17300000000E+03 0.  1.
</event>
<event>
 4    1  0.6123996E+000  0.1000000E+03  0.7546771E-02  0.1280296E+00
         21   -1    0    0  501  502  0.00000000000E+00  0.00000000000E+00  0.44769327485E+03  0.44769327485E+03  0.00000000000E+00 0. -1.
         21   -1    0    0  502  503 -0.00000000000E+00 -0.00000000000E+00 -0.75625604870E+02  0.75625604870E+02  0.00000000000E+00 0. -1.
          6    1    1    2  501    0 -0.39020413109E+02 -0.43559646657E+01  0.11656450570E+03  0.21226834681E+03  0.17300000000E+03 0.  1.
         -6    1    1    2    0  503  0.39020413109E+02  0.43559646657E+01  0.25550316429E+03  0.31105053292E+03  0.17300000000E+03 0.  1.
</event>
<event>
 4    1  0.6123996E+000  0.1000000E+03  0.7546771E-02  0.1280296E+00
         21   -1    0    0  501  502  0.00000000000E+00  0.00000000000E+00  0.91241932736E+03  0.91241932736E+03  0.00000000000E+00 0. -1.
         21   -1    0    0  502  503 -0.00000000000E+00 -0.00000000000E+00 -0.39233596807E+02  0.39233596807E+02  0.00000000000E+00 0. -1.
          6    1    1    2  501    0 -0.15825513798E+02 -0.74187092681E+02  0.46348245399E+03  0.50049890785E+03  0.17300000000E+03 0.  1.
         -6    1    1    2    0  503  0.15825513798E+02  0.74187092681E+02  0.40970327656E+03  0.45115401631E+03  0.17300000000E+03 0.  1.
</event>
<event>
 4    1  0.6123996E+000  0.1000000E+03  0.7546771E-02  0.1280296E+00
         21   -1    0    0  501  502  0.00000000000E+00  0.00000000000E+00  0.62691962440E+03  0.62691962440E+03  0.00000000000E+00 0.  1.
         21   -1    0    0  502  503 -0.00000000000E+00 -0.00000000000E+00 -0.18661630018E+03  0.18661630018E+03  0.00000000000E+00 0.  1.
          6    1    1    2  501    0  0.14185745267E+03 -0.10724224360E+03  0.50016426109E+03  0.55831686681E+03  0.17300000000E+03 0.  1.
         -6    1    1    2    0  503 -0.14185745267E+03  0.10724224360E+03 -0.59860936869E+02  0.25521905778E+03  0.17300000000E+03 0.  1.
</event>
<event>
 4    1  0.6123996E+000  0.1000000E+03  0.7546771E-02  0.1280296E+00
         21   -1    0    0  503  502  0.00000000000E+00  0.00000000000E+00  0.80893817751E+03  0.80893817751E+03  0.00000000000E+00 0. -1.
         21   -1    0    0  501  503 -0.00000000000E+00 -0.00000000000E+00 -0.14028624816E+03  0.14028624816E+03  0.00000000000E+00 0. -1.
          6    1    1    2  501    0 -0.32650575539E+02  0.10199798979E+03 -0.43937059931E+02  0.20815646817E+03  0.17300000000E+03 0. -1.
         -6    1    1    2    0  502  0.32650575539E+02 -0.10199798979E+03  0.71258898927E+03  0.74106795750E+03  0.17300000000E+03 0. -1.
</event>
<event>
 4    1  0.6123996E+000  0.1000000E+03  0.7546771E-02  0.1280296E+00
         21   -1    0    0  503  502  0.00000000000E+00  0.00000000000E+00  0.16288548261E+04  0.16288548261E+04  0.00000000000E+00 0. -1.
         21   -1    0    0  501  503 -0.00000000000E+00 -0.00000000000E+00 -0.47201115006E+02  0.47201115006E+02  0.00000000000E+00 0. -1.
          6    1    1    2  501    0 -0.14865479307E+03 -0.76022281661E+02  0.37338335290E+03  0.44409656949E+03  0.17300000000E+03 0. -1.
         -6    1    1    2    0  502  0.14865479307E+03  0.76022281661E+02  0.12082703582E+04  0.12319593716E+04  0.17300000000E+03 0. -1.
</event>
<event>
 4    1  0.6123996E+000  0.1000000E+03  0.7546771E-02  0.1280296E+00
         21   -1    0    0  503  502  0.00000000000E+00  0.00000000000E+00  0.17520027295E+04  0.17520027295E+04  0.00000000000E+00 0.  1.
         21   -1    0    0  501  503 -0.00000000000E+00 -0.00000000000E+00 -0.35043126152E+03  0.35043126152E+03  0.00000000000E+00 0.  1.
          6    1    1    2  501    0 -0.33806601016E+03  0.23622897723E+03 -0.16237071050E+03  0.47580038307E+03  0.17300000000E+03 0.  1.
         -6    1    1    2    0  502  0.33806601016E+03 -0.23622897723E+03  0.15639421785E+04  0.16266336080E+04  0.17300000000E+03 0.  1.
</event>
<event>
 4    1  0.6123996E+000  0.1000000E+03  0.7546771E-02  0.1280296E+00
         21   -1    0    0  503  502  0.00000000000E+00  0.00000000000E+00  0.17789574002E+02  0.17789574002E+02  0.00000000000E+00 0.  1.
         21   -1    0    0  501  503 -0.00000000000E+00 -0.00000000000E+00 -0.20236384456E+04  0.20236384456E+04  0.00000000000E+00 0.  1.
          6    1    1    2  501    0 -0.35611156972E+02  0.67352188175E+02 -0.91515282360E+03  0.93447213029E+03  0.17300000000E+03 0.  1.
         -6    1    1    2    0  502  0.35611156972E+02 -0.67352188175E+02 -0.10906960480E+04  0.11069558893E+04  0.17300000000E+03 0.  1.
</event>
<event>
 4    1  0.6123996E+000  0.1000000E+03  0.7546771E-02  0.1280296E+00
         21   -1    0    0  503  502  0.00000000000E+00  0.00000000000E+00  0.13578158574E+03  0.13578158574E+03  0.00000000000E+00 0. -1.
         21   -1    0    0  501  503 -0.00000000000E+00 -0.00000000000E+00 -0.57219940037E+03  0.57219940037E+03  0.00000000000E+00 0.  1.
          6    1    1    2  501    0  0.30444111958E+02  0.34797738052E+02 -0.48948429670E+03  0.52121166837E+03  0.17300000000E+03 0.  1.
         -6    1    1    2    0  502 -0.30444111958E+02 -0.34797738052E+02  0.53066482074E+02  0.18676931773E+03  0.17300000000E+03 0. -1.
</event>
<event>
 4    1  0.6123996E+000  0.1000000E+03  0.7546771E-02  0.1280296E+00
         21   -1    0    0  501  502  0.00000000000E+00  0.00000000000E+00  0.10858932515E+03  0.10858932515E+03  0.00000000000E+00 0.  1.
         21   -1    0    0  502  503 -0.00000000000E+00 -0.00000000000E+00 -0.40692720032E+03  0.40692720032E+03  0.00000000000E+00 0. -1.
          6    1    1    2  501    0 -0.54891372180E+02 -0.10477723540E+03 -0.16922836577E+03  0.26936698309E+03  0.17300000000E+03 0.  1.
         -6    1    1    2    0  503  0.54891372180E+02  0.10477723540E+03 -0.12910950941E+03  0.24614954239E+03  0.17300000000E+03 0. -1.
</event>
<event>
 4    1  0.6123996E+000  0.1000000E+03  0.7546771E-02  0.1280296E+00
         21   -1    0    0  501  502  0.00000000000E+00  0.00000000000E+00  0.69915680675E+03  0.69915680675E+03  0.00000000000E+00 0.  1.
         21   -1    0    0  502  503 -0.00000000000E+00 -0.00000000000E+00 -0.13866948975E+03  0.13866948975E+03  0.00000000000E+00 0. -1.
          6    1    1    2  501    0  0.27025454043E+02 -0.15059531010E+03  0.56121122204E+03  0.60687425249E+03  0.17300000000E+03 0.  1.
         -6    1    1    2    0  503 -0.27025454043E+02  0.15059531010E+03 -0.72390504836E+00  0.23095204400E+03  0.17300000000E+03 0. -1.
</event>
<event>
 4    1  0.6123996E+000  0.1000000E+03  0.7546771E-02  0.1280296E+00
         21   -1    0    0  503  502  0.00000000000E+00  0.00000000000E+00  0.13659370005E+04  0.13659370005E+04  0.00000000000E+00 0.  1.
         21   -1    0    0  501  503 -0.00000000000E+00 -0.00000000000E+00 -0.47601670627E+03  0.47601670627E+03  0.00000000000E+00 0.  1.
          6    1    1    2  501    0  0.16294642908E+02  0.78737198782E+03  0.43613751842E+03  0.91671429441E+03  0.17300000000E+03 0.  1.
         -6    1    1    2    0  502 -0.16294642908E+02 -0.78737198782E+03  0.45378277585E+03  0.92523941240E+03  0.17300000000E+03 0.  1.
</event>
<event>
 4    1  0.6123996E+000  0.1000000E+03  0.7546771E-02  0.1280296E+00
         21   -1    0    0  503  502  0.00000000000E+00  0.00000000000E+00  0.13333039308E+03  0.13333039308E+03  0.00000000000E+00 0.  1.
         21   -1    0    0  501  503 -0.00000000000E+00 -0.00000000000E+00 -0.54577943659E+03  0.54577943659E+03  0.00000000000E+00 0.  1.
          6    1    1    2  501    0  0.19066506164E+02 -0.36513971047E+02 -0.46154509543E+03  0.49462074042E+03  0.17300000000E+03 0.  1.
         -6    1    1    2    0  502 -0.19066506164E+02  0.36513971047E+02  0.49096051920E+02  0.18448908925E+03  0.17300000000E+03 0.  1.
</event>
<event>
 4    1  0.6123996E+000  0.1000000E+03  0.7546771E-02  0.1280296E+00
         21   -1    0    0  501  502  0.00000000000E+00  0.00000000000E+00  0.19572090496E+04  0.19572090496E+04  0.00000000000E+00 0. -1.
         21   -1    0    0  502  503 -0.00000000000E+00 -0.00000000000E+00 -0.17874994892E+03  0.17874994892E+03  0.00000000000E+00 0.  1.
          6    1    1    2  501    0 -0.12826157410E+03 -0.32323711781E+01  0.18838845206E+04  0.18961569994E+04  0.17300000000E+03 0. -1.
         -6    1    1    2    0  503  0.12826157410E+03  0.32323711781E+01 -0.10542541989E+03  0.23980199910E+03  0.17300000000E+03 0.  1.
</event>
<event>
 4    1  0.6123996E+000  0.1000000E+03  0.7546771E-02  0.1280296E+00
         21   -1    0    0  503  502  0.00000000000E+00  0.00000000000E+00  0.11384282692E+04  0.11384282692E+04  0.00000000000E+00 0. -1.
         21   -1    0    0  501  503 -0.00000000000E+00 -0.00000000000E+00 -0.29181074768E+02  0.29181074768E+02  0.00000000000E+00 0. -1.
          6    1    1    2  501    0  0.38601833828E+02  0.16718702385E+02  0.67958140706E+03  0.70251655170E+03  0.17300000000E+03 0. -1.
         -6    1    1    2    0  502 -0.38601833828E+02 -0.16718702385E+02  0.42966578735E+03  0.46509279225E+03  0.17300000000E+03 0. -1.
</event>
<event>
 4    1  0.6123996E+000  0.1000000E+03  0.7546771E-02  0.1280296E+00
         21   -1    0    0  503  502  0.00000000000E+00  0.00000000000E+00  0.32011503778E+04  0.32011503778E+04  0.00000000000E+00 0. -1.
         21   -1    0    0  501  503 -0.00000000000E+00 -0.00000000000E+00 -0.16564458140E+02  0.16564458140E+02  0.00000000000E+00 0. -1.
          6    1    1    2  501    0  0.11175535499E+03  0.55146890214E+02  0.98456992163E+03  0.10073913686E+04  0.17300000000E+03 0. -1.
         -6    1    1    2    0  502 -0.11175535499E+03 -0.55146890214E+02  0.22000159980E+04  0.22103234674E+04  0.17300000000E+03 0. -1.
</event>
<event>
 4    1  0.6123996E+000  0.1000000E+03  0.7546771E-02  0.1280296E+00
         21   -1    0    0  503  502  0.00000000000E+00  0.00000000000E+00  0.13623169853E+04  0.13623169853E+04  0.00000000000E+00 0.  1.
         21   -1    0    0  501  503 -0.00000000000E+00 -0.00000000000E+00 -0.75366194046E+02  0.75366194046E+02  0.00000000000E+00 0.  1.
          6    1    1    2  501    0 -0.49010687860E+01 -0.26677267011E+03  0.55509677130E+03  0.63972892970E+03  0.17300000000E+03 0.  1.
         -6    1    1    2    0  502  0.49010687860E+01  0.26677267011E+03  0.73185401996E+03  0.79795424964E+03  0.17300000000E+03 0.  1.
</event>
<event>
 4    1  0.6123996E+000  0.1000000E+03  0.7546771E-02  0.1280296E+00
         21   -1    0    0  503  502  0.00000000000E+00  0.00000000000E+00  0.84347255053E+03  0.84347255053E+03  0.00000000000E+00 0.  1.
         21   -1    0    0  501  503 -0.00000000000E+00 -0.00000000000E+00 -0.20679278423E+03  0.20679278423E+03  0.00000000000E+00 0.  1.
          6    1    1    2  501    0  0.33695707200E+03  0.15275975179E+03  0.20858419802E+03  0.45859783885E+03  0.17300000000E+03 0.  1.
         -6    1    1    2    0  502 -0.33695707200E+03 -0.15275975179E+03  0.42809556828E+03  0.59166749591E+03  0.17300000000E+03 0.  1.
</event>
<event>
 4    1  0.6123996E+000  0.1000000E+03  0.7546771E-02  0.1280296E+00
         21   -1    0    0  503  502  0.00000000000E+00  0.00000000000E+00  0.77163012914E+02  0.77163012914E+02  0.00000000000E+00 0.  1.
         21   -1    0    0  501  503 -0.00000000000E+00 -0.00000000000E+00 -0.76603176376E+03  0.76603176376E+03  0.00000000000E+00 0.  1.
          6    1    1    2  501    0 -0.90750781558E+02  0.14441642136E+03 -0.32812000048E+03  0.40826895771E+03  0.17300000000E+03 0.  1.
         -6    1    1    2    0  502  0.90750781558E+02 -0.14441642136E+03 -0.36074875037E+03  0.43492581897E+03  0.17300000000E+03 0.  1.
</event>
<event>
 4    1  0.6123996E+000  0.1000000E+03  0.7546771E-02  0.1280296E+00
         21   -1    0    0  503  502  0.00000000000E+00  0.00000000000E+00  0.14410478249E+04  0.14410478249E+04  0.00000000000E+00 0.  1.
         21   -1    0    0  501  503 -0.00000000000E+00 -0.00000000000E+00 -0.31345037848E+02  0.31345037848E+02  0.00000000000E+00 0.  1.
          6    1    1    2  501    0  0.20937611508E+02 -0.12158013100E+03  0.68913458550E+03  0.72114879793E+03  0.17300000000E+03 0.  1.
         -6    1    1    2    0  502 -0.20937611508E+02  0.12158013100E+03  0.72056820155E+03  0.75124406481E+03  0.17300000000E+03 0.  1.
</event>
<event>
 4    1  0.6123996E+000  0.1000000E+03  0.7546771E-02  0.1280296E+00
         21   -1    0    0  503  502  0.00000000000E+00  0.00000000000E+00  0.25278104381E+03  0.25278104381E+03  0.00000000000E+00 0.  1.
         21   -1    0    0  501  503 -0.00000000000E+00 -0.00000000000E+00 -0.27260499782E+03  0.27260499782E+03  0.00000000000E+00 0.  1.
          6    1    1    2  501    0 -0.18696782937E+03  0.35347874854E+02 -0.62617663128E+02  0.26468172058E+03  0.17300000000E+03 0.  1.
         -6    1    1    2    0  502  0.18696782937E+03 -0.35347874854E+02  0.42793709123E+02  0.26070432105E+03  0.17300000000E+03 0.  1.
</event>
<event>
 4    1  0.6123996E+000  0.1000000E+03  0.7546771E-02  0.1280296E+00
         21   -1    0    0  503  502  0.00000000000E+00  0.00000000000E+00  0.76760068910E+03  0.76760068910E+03  0.00000000000E+00 0.  1.
         21   -1    0    0  501  503 -0.00000000000E+00 -0.00000000000E+00 -0.69657243200E+02  0.69657243200E+02  0.00000000000E+00 0. -1.
          6    1    1    2  501    0  0.62131940668E+02 -0.46629163113E+02  0.10943995335E+03  0.21895378575E+03  0.17300000000E+03 0. -1.
         -6    1    1    2    0  502 -0.62131940668E+02  0.46629163113E+02  0.58850349255E+03  0.61830414655E+03  0.17300000000E+03 0.  1.
</event>
<event>
 4    1  0.6123996E+000  0.1000000E+03  0.7546771E-02  0.1280296E+00
         21   -1    0    0  503  502  0.00000000000E+00  0.00000000000E+00  0.26715153919E+03  0.26715153919E+03  0.00000000000E+00 0.  1.
         21   -1    0    0  501  503 -0.00000000000E+00 -0.00000000000E+00 -0.24147424933E+03  0.24147424933E+03  0.00000000000E+00 0. -1.
          6    1    1    2  501    0 -0.15603476450E+03  0.38897370751E+02 -0.80668832092E+02  0.24959229486E+03  0.17300000000E+03 0. -1.
         -6    1    1    2    0  502  0.15603476450E+03 -0.38897370751E+02  0.10634612195E+03  0.25903349366E+03  0.17300000000E+03 0.  1.
</event>
<event>
 4    1  0.6123996E+000  0.1000000E+03  0.7546771E-02  0.1280296E+00
         21   -1    0    0  503  502  0.00000000000E+00  0.00000000000E+00  0.54952531885E+03  0.54952531885E+03  0.00000000000E+00 0.  1.
         21   -1    0    0  501  503 -0.00000000000E+00 -0.00000000000E+00 -0.10907484163E+03  0.10907484163E+03  0.00000000000E+00 0. -1.
          6    1    1    2  501    0  0.43709137993E+02  0.41689851178E+02  0.18398044713E+01  0.18325096812E+03  0.17300000000E+03 0. -1.
         -6    1    1    2    0  502 -0.43709137993E+02 -0.41689851178E+02  0.43861067274E+03  0.47534919236E+03  0.17300000000E+03 0.  1.
</event>
<event>
 4    1  0.6123996E+000  0.1000000E+03  0.7546771E-02  0.1280296E+00
         21   -1    0    0  503  502  0.00000000000E+00  0.00000000000E+00  0.13582839502E+03  0.13582839502E+03  0.00000000000E+00 0.  1.
         21   -1    0    0  501  503 -0.00000000000E+00 -0.00000000000E+00 -0.52011345724E+03  0.52011345724E+03  0.00000000000E+00 0.  1.
          6    1    1    2  501    0  0.82104110030E+02  0.16100246906E+03 -0.30288260645E+03  0.39284825725E+03  0.17300000000E+03 0.  1.
         -6    1    1    2    0  502 -0.82104110030E+02 -0.16100246906E+03 -0.81402455767E+02  0.26309359501E+03  0.17300000000E+03 0.  1.
</event>
<event>
 4    1  0.6123996E+000  0.1000000E+03  0.7546771E-02  0.1280296E+00
         21   -1    0    0  503  502  0.00000000000E+00  0.00000000000E+00  0.28654355496E+03  0.28654355496E+03  0.00000000000E+00 0.  1.
         21   -1    0    0  501  503 -0.00000000000E+00 -0.00000000000E+00 -0.33427552874E+03  0.33427552874E+03  0.00000000000E+00 0. -1.
          6    1    1    2  501    0  0.23438918137E+03 -0.10013904591E+03 -0.53777025252E+02  0.31270926642E+03  0.17300000000E+03 0. -1.
         -6    1    1    2    0  502 -0.23438918137E+03  0.10013904591E+03  0.60450514641E+01  0.30810981728E+03  0.17300000000E+03 0.  1.
</event>
<event>
 4    1  0.6123996E+000  0.1000000E+03  0.7546771E-02  0.1280296E+00
         21   -1    0    0  503  502  0.00000000000E+00  0.00000000000E+00  0.55452158522E+03  0.55452158522E+03  0.00000000000E+00 0.  1.
         21   -1    0    0  501  503 -0.00000000000E+00 -0.00000000000E+00 -0.11914670475E+03  0.11914670475E+03  0.00000000000E+00 0. -1.
          6    1    1    2  501    0  0.13711679664E+03 -0.68772295810E+02  0.70534300635E+02  0.24173277014E+03  0.17300000000E+03 0. -1.
         -6    1    1    2    0  502 -0.13711679664E+03  0.68772295810E+02  0.36484057984E+03  0.43193551983E+03  0.17300000000E+03 0.  1.
</event>
<event>
 4    1  0.6123996E+000  0.1000000E+03  0.7546771E-02  0.1280296E+00
         21   -1    0    0  503  502  0.00000000000E+00  0.00000000000E+00  0.16993160505E+03  0.16993160505E+03  0.00000000000E+00 0.  1.
         21   -1    0    0  501  503 -0.00000000000E+00 -0.00000000000E+00 -0.56466895061E+03  0.56466895061E+03  0.00000000000E+00 0. -1.
          6    1    1    2  501    0 -0.30882158896E+02 -0.10333913854E+03 -0.47391022071E+03  0.51589977959E+03  0.17300000000E+03 0. -1.
         -6    1    1    2    0  502  0.30882158896E+02  0.10333913854E+03  0.79172875147E+02  0.21870077606E+03  0.17300000000E+03 0.  1.
</event>
<event>
 4    1  0.6123996E+000  0.1000000E+03  0.7546771E-02  0.1280296E+00
         21   -1    0    0  503  502  0.00000000000E+00  0.00000000000E+00  0.16317757815E+04  0.16317757815E+04  0.00000000000E+00 0.  1.
         21   -1    0    0  501  503 -0.00000000000E+00 -0.00000000000E+00 -0.23866632468E+02  0.23866632468E+02  0.00000000000E+00 0. -1.
          6    1    1    2  501    0  0.69621134303E+02  0.96797994199E+01  0.53617048443E+03  0.56775750918E+03  0.17300000000E+03 0.  1.
         -6    1    1    2    0  502 -0.69621134303E+02 -0.96797994199E+01  0.10717386646E+04  0.10878849048E+04  0.17300000000E+03 0. -1.
</event>
<event>
 4    1  0.6123996E+000  0.1000000E+03  0.7546771E-02  0.1280296E+00
         21   -1    0    0  503  502  0.00000000000E+00  0.00000000000E+00  0.15453443225E+04  0.15453443225E+04  0.00000000000E+00 0.  1.
         21   -1    0    0  501  503 -0.00000000000E+00 -0.00000000000E+00 -0.19992952079E+02  0.19992952079E+02  0.00000000000E+00 0. -1.
          6    1    1    2  501    0  0.18964814764E+02  0.10980330026E+02  0.66443629020E+03  0.68693872768E+03  0.17300000000E+03 0.  1.
         -6    1    1    2    0  502 -0.18964814764E+02 -0.10980330026E+02  0.86091508019E+03  0.87839854687E+03  0.17300000000E+03 0. -1.
</event>
<event>
 4    1  0.6123996E+000  0.1000000E+03  0.7546771E-02  0.1280296E+00
         21   -1    0    0  503  502  0.00000000000E+00  0.00000000000E+00  0.16312318246E+03  0.16312318246E+03  0.00000000000E+00 0.  1.
         21   -1    0    0  501  503 -0.00000000000E+00 -0.00000000000E+00 -0.24420870164E+03  0.24420870164E+03  0.00000000000E+00 0. -1.
          6    1    1    2  501    0  0.65496761898E+02 -0.42458887654E+02 -0.10356586716E+03  0.21621163660E+03  0.17300000000E+03 0.  1.
         -6    1    1    2    0  502 -0.65496761898E+02  0.42458887654E+02  0.22480347987E+02  0.19112024750E+03  0.17300000000E+03 0. -1.
</event>
<event>
 4    1  0.6123996E+000  0.1000000E+03  0.7546771E-02  0.1280296E+00
         21   -1    0    0  501  502  0.00000000000E+00  0.00000000000E+00  0.90375495832E+03  0.90375495832E+03  0.00000000000E+00 0. -1.
         21   -1    0    0  502  503 -0.00000000000E+00 -0.00000000000E+00 -0.23997568495E+03  0.23997568495E+03  0.00000000000E+00 0. -1.
          6    1    1    2  501    0 -0.19966549418E+03 -0.30340105863E+03  0.61995515240E+03  0.73904797065E+03  0.17300000000E+03 0. -1.
         -6    1    1    2    0  503  0.19966549418E+03  0.30340105863E+03  0.43824120971E+02  0.40468267262E+03  0.17300000000E+03 0. -1.
</event>
<event>
 4    1  0.6123996E+000  0.1000000E+03  0.7546771E-02  0.1280296E+00
         21   -1    0    0  501  502  0.00000000000E+00  0.00000000000E+00  0.51480558492E+03  0.51480558492E+03  0.00000000000E+00 0. -1.
         21   -1    0    0  502  503 -0.00000000000E+00 -0.00000000000E+00 -0.62942060103E+02  0.62942060103E+02  0.00000000000E+00 0. -1.
          6    1    1    2  501    0 -0.25321525961E+02 -0.42656555323E+02  0.22010954765E+03  0.28432019688E+03  0.17300000000E+03 0. -1.
         -6    1    1    2    0  503  0.25321525961E+02  0.42656555323E+02  0.23175397716E+03  0.29342744814E+03  0.17300000000E+03 0. -1.
</event>
<event>
 4    1  0.6123996E+000  0.1000000E+03  0.7546771E-02  0.1280296E+00
         21   -1    0    0  503  502  0.00000000000E+00  0.00000000000E+00  0.82406957686E+03  0.82406957686E+03  0.00000000000E+00 0.  1.
         21   -1    0    0  501  503 -0.00000000000E+00 -0.00000000000E+00 -0.89676290508E+02  0.89676290508E+02  0.00000000000E+00 0. -1.
          6    1    1    2  501    0  0.19550376384E+03 -0.53435356879E+02  0.27679377852E+03  0.38421459481E+03  0.17300000000E+03 0. -1.
         -6    1    1    2    0  502 -0.19550376384E+03  0.53435356879E+02  0.45759950783E+03  0.52953127255E+03  0.17300000000E+03 0.  1.
</event>
<event>
 4    1  0.6123996E+000  0.1000000E+03  0.7546771E-02  0.1280296E+00
         21   -1    0    0  503  502  0.00000000000E+00  0.00000000000E+00  0.49422119551E+03  0.49422119551E+03  0.00000000000E+00 0. -1.
         21   -1    0    0  501  503 -0.00000000000E+00 -0.00000000000E+00 -0.92066838513E+02  0.92066838513E+02  0.00000000000E+00 0. -1.
          6    1    1    2  501    0  0.36888500289E+02 -0.70076433473E+02  0.68541875800E+02  0.20223366861E+03  0.17300000000E+03 0. -1.
         -6    1    1    2    0  502 -0.36888500289E+02  0.70076433473E+02  0.33361248119E+03  0.38405436541E+03  0.17300000000E+03 0. -1.
</event>
<event>
 4    1  0.6123996E+000  0.1000000E+03  0.7546771E-02  0.1280296E+00
         21   -1    0    0  501  502  0.00000000000E+00  0.00000000000E+00  0.12090805346E+03  0.12090805346E+03  0.00000000000E+00 0. -1.
         21   -1    0    0  502  503 -0.00000000000E+00 -0.00000000000E+00 -0.41092801949E+03  0.41092801949E+03  0.00000000000E+00 0. -1.
          6    1    1    2  501    0  0.99544003864E+02  0.99030118199E+02 -0.13750892865E+03  0.26182757394E+03  0.17300000000E+03 0. -1.
         -6    1    1    2    0  503 -0.99544003864E+02 -0.99030118199E+02 -0.15251103737E+03  0.27000849901E+03  0.17300000000E+03 0. -1.
</event>
<event>
 4    1  0.6123996E+000  0.1000000E+03  0.7546771E-02  0.1280296E+00
         21   -1    0    0  501  502  0.00000000000E+00  0.00000000000E+00  0.29492471761E+03  0.29492471761E+03  0.00000000000E+00 0. -1.
         21   -1    0    0  502  503 -0.00000000000E+00 -0.00000000000E+00 -0.13991380928E+03  0.13991380928E+03  0.00000000000E+00 0. -1.
          6    1    1    2  501    0  0.84784172690E+02  0.52581456133E+02  0.11729294563E+03  0.23160267823E+03  0.17300000000E+03 0. -1.
         -6    1    1    2    0  503 -0.84784172690E+02 -0.52581456133E+02  0.37717962694E+02  0.20323584865E+03  0.17300000000E+03 0. -1.
</event>
<event>
 4    1  0.6123996E+000  0.1000000E+03  0.7546771E-02  0.1280296E+00
         21   -1    0    0  501  502  0.00000000000E+00  0.00000000000E+00  0.22212320450E+04  0.22212320450E+04  0.00000000000E+00 0.  1.
         21   -1    0    0  502  503 -0.00000000000E+00 -0.00000000000E+00 -0.56941280767E+02  0.56941280767E+02  0.00000000000E+00 0.  1.
          6    1    1    2  501    0 -0.99820690876E+02  0.36713003491E+01  0.20245508404E+04  0.20343826469E+04  0.17300000000E+03 0.  1.
         -6    1    1    2    0  503  0.99820690876E+02 -0.36713003491E+01  0.13973992383E+03  0.24379067883E+03  0.17300000000E+03 0.  1.
</event>
<event>
 4    1  0.6123996E+000  0.1000000E+03  0.7546771E-02  0.1280296E+00
         21   -1    0    0  501  502  0.00000000000E+00  0.00000000000E+00  0.53342483840E+03  0.53342483840E+03  0.00000000000E+00 0.  1.
         21   -1    0    0  502  503 -0.00000000000E+00 -0.00000000000E+00 -0.17650238818E+03  0.17650238818E+03  0.00000000000E+00 0.  1.
          6    1    1    2  501    0 -0.64218492147E+02  0.56555458293E+02  0.45440785563E+03  0.49369832272E+03  0.17300000000E+03 0.  1.
         -6    1    1    2    0  503  0.64218492147E+02 -0.56555458293E+02 -0.97485405411E+02  0.21622890386E+03  0.17300000000E+03 0.  1.
</event>
<event>
 4    1  0.6123996E+000  0.1000000E+03  0.7546771E-02  0.1280296E+00
         21   -1    0    0  501  502  0.00000000000E+00  0.00000000000E+00  0.45805569389E+03  0.45805569389E+03  0.00000000000E+00 0.  1.
         21   -1    0    0  502  503 -0.00000000000E+00 -0.00000000000E+00 -0.30758880232E+03  0.30758880232E+03  0.00000000000E+00 0.  1.
          6    1    1    2  501    0 -0.11402001173E+03  0.18161919976E+03  0.33521045986E+03  0.43391375778E+03  0.17300000000E+03 0.  1.
         -6    1    1    2    0  503  0.11402001173E+03 -0.18161919976E+03 -0.18474356829E+03  0.33173073843E+03  0.17300000000E+03 0.  1.
</event>
<event>
 4    1  0.6123996E+000  0.1000000E+03  0.7546771E-02  0.1280296E+00
         21   -1    0    0  501  502  0.00000000000E+00  0.00000000000E+00  0.54856647916E+03  0.54856647916E+03  0.00000000000E+00 0.  1.
         21   -1    0    0  502  503 -0.00000000000E+00 -0.00000000000E+00 -0.70156930412E+02  0.70156930412E+02  0.00000000000E+00 0.  1.
          6    1    1    2  501    0 -0.23230980608E+02  0.39590221621E+02  0.36584905623E+03  0.40728564430E+03  0.17300000000E+03 0.  1.
         -6    1    1    2    0  503  0.23230980608E+02 -0.39590221621E+02  0.11256049252E+03  0.21143776527E+03  0.17300000000E+03 0.  1.
</event>
<event>
 4    1  0.6123996E+000  0.1000000E+03  0.7546771E-02  0.1280296E+00
         21   -1    0    0  501  502  0.00000000000E+00  0.00000000000E+00  0.13774578325E+04  0.13774578325E+04  0.00000000000E+00 0. -1.
         21   -1    0    0  502  503 -0.00000000000E+00 -0.00000000000E+00 -0.29669067261E+02  0.29669067261E+02  0.00000000000E+00 0. -1.
          6    1    1    2  501    0 -0.15122237863E+02 -0.35982077382E+02  0.10115965081E+04  0.10270247743E+04  0.17300000000E+03 0. -1.
         -6    1    1    2    0  503  0.15122237863E+02  0.35982077382E+02  0.33619225720E+03  0.38010212545E+03  0.17300000000E+03 0. -1.
</event>
<event>
 4    1  0.6123996E+000  0.1000000E+03  0.7546771E-02  0.1280296E+00
         21   -1    0    0  501  502  0.00000000000E+00  0.00000000000E+00  0.11520520928E+03  0.11520520928E+03  0.00000000000E+00 0.  1.
         21   -1    0    0  502  503 -0.00000000000E+00 -0.00000000000E+00 -0.95665724743E+03  0.95665724743E+03  0.00000000000E+00 0. -1.
          6    1    1    2  501    0  0.92826835558E+01 -0.85596239311E+02  0.15055941792E+02  0.19382612255E+03  0.17300000000E+03 0.  1.
         -6    1    1    2    0  503 -0.92826835558E+01  0.85596239311E+02 -0.85650797995E+03  0.87803633416E+03  0.17300000000E+03 0. -1.
</event>
<event>
 4    1  0.6123996E+000  0.1000000E+03  0.7546771E-02  0.1280296E+00
         21   -1    0    0  503  502  0.00000000000E+00  0.00000000000E+00  0.79394541027E+03  0.79394541027E+03  0.00000000000E+00 0. -1.
         21   -1    0    0  501  503 -0.00000000000E+00 -0.00000000000E+00 -0.67907466185E+02  0.67907466185E+02  0.00000000000E+00 0. -1.
          6    1    1    2  501    0  0.13396006029E+00  0.88748230321E+02  0.12746478715E+03  0.23249201770E+03  0.17300000000E+03 0. -1.
         -6    1    1    2    0  502 -0.13396006029E+00 -0.88748230321E+02  0.59857315693E+03  0.62936085875E+03  0.17300000000E+03 0. -1.
</event>
<event>
 4    1  0.6123996E+000  0.1000000E+03  0.7546771E-02  0.1280296E+00
         21   -1    0    0  503  502  0.00000000000E+00  0.00000000000E+00  0.49654546557E+03  0.49654546557E+03  0.00000000000E+00 0. -1.
         21   -1    0    0  501  503 -0.00000000000E+00 -0.00000000000E+00 -0.95199104269E+02  0.95199104269E+02  0.00000000000E+00 0. -1.
          6    1    1    2  501    0 -0.70499967208E+02 -0.11028073986E+03  0.22037473320E+03  0.30923471667E+03  0.17300000000E+03 0. -1.
         -6    1    1    2    0  502  0.70499967208E+02  0.11028073986E+03  0.18097162810E+03  0.28250985317E+03  0.17300000000E+03 0. -1.
</event>
<event>
 4    1  0.6123996E+000  0.1000000E+03  0.7546771E-02  0.1280296E+00
         21   -1    0    0  503  502  0.00000000000E+00  0.00000000000E+00  0.57382345456E+03  0.57382345456E+03  0.00000000000E+00 0. -1.
         21   -1    0    0  501  503 -0.00000000000E+00 -0.00000000000E+00 -0.10083165818E+03  0.10083165818E+03  0.00000000000E+00 0. -1.
          6    1    1    2  501    0 -0.12460807447E+03  0.10250044267E+03  0.17541513430E+03  0.29450463886E+03  0.17300000000E+03 0. -1.
         -6    1    1    2    0  502  0.12460807447E+03 -0.10250044267E+03  0.29757666208E+03  0.38015047387E+03  0.17300000000E+03 0. -1.
</event>
<event>
 4    1  0.6123996E+000  0.1000000E+03  0.7546771E-02  0.1280296E+00
         21   -1    0    0  501  502  0.00000000000E+00  0.00000000000E+00  0.76283503096E+03  0.76283503096E+03  0.00000000000E+00 0.  1.
         21   -1    0    0  502  503 -0.00000000000E+00 -0.00000000000E+00 -0.78136872292E+02  0.78136872292E+02  0.00000000000E+00 0.  1.
          6    1    1    2  501    0 -0.85038307088E+02  0.24510573268E+02  0.59690127562E+03  0.62773594346E+03  0.17300000000E+03 0.  1.
         -6    1    1    2    0  503  0.85038307088E+02 -0.24510573268E+02  0.87796883044E+02  0.21323595979E+03  0.17300000000E+03 0.  1.
</event>
<event>
 4    1  0.6123996E+000  0.1000000E+03  0.7546771E-02  0.1280296E+00
         21   -1    0    0  503  502  0.00000000000E+00  0.00000000000E+00  0.38318095447E+03  0.38318095447E+03  0.00000000000E+00 0.  1.
         21   -1    0    0  501  503 -0.00000000000E+00 -0.00000000000E+00 -0.68012753541E+03  0.68012753541E+03  0.00000000000E+00 0.  1.
          6    1    1    2  501    0 -0.38914238100E+03 -0.28117754656E+03 -0.13410628876E+03  0.52764202076E+03  0.17300000000E+03 0.  1.
         -6    1    1    2    0  502  0.38914238100E+03  0.28117754656E+03 -0.16284029218E+03  0.53566646912E+03  0.17300000000E+03 0.  1.
</event>
<event>
 4    1  0.6123996E+000  0.1000000E+03  0.7546771E-02  0.1280296E+00
         21   -1    0    0  503  502  0.00000000000E+00  0.00000000000E+00  0.55090411327E+03  0.55090411327E+03  0.00000000000E+00 0.  1.
         21   -1    0    0  501  503 -0.00000000000E+00 -0.00000000000E+00 -0.15643503733E+03  0.15643503733E+03  0.00000000000E+00 0.  1.
          6    1    1    2  501    0 -0.12984651757E+03 -0.12626726388E+03  0.12755462514E+02  0.25078923796E+03  0.17300000000E+03 0.  1.
         -6    1    1    2    0  502  0.12984651757E+03  0.12626726388E+03  0.38171361343E+03  0.45654991264E+03  0.17300000000E+03 0.  1.
</event>
<event>
 4    1  0.6123996E+000  0.1000000E+03  0.7546771E-02  0.1280296E+00
         21   -1    0    0  503  502  0.00000000000E+00  0.00000000000E+00  0.14031887025E+03  0.14031887025E+03  0.00000000000E+00 0.  1.
         21   -1    0    0  501  503 -0.00000000000E+00 -0.00000000000E+00 -0.21379225284E+03  0.21379225284E+03  0.00000000000E+00 0.  1.
          6    1    1    2  501    0 -0.54274964711E+01  0.57989317064E+01 -0.39441698678E+02  0.17761681486E+03  0.17300000000E+03 0.  1.
         -6    1    1    2    0  502  0.54274964711E+01 -0.57989317064E+01 -0.34031683905E+02  0.17649430823E+03  0.17300000000E+03 0.  1.
</event>
<event>
 4    1  0.6123996E+000  0.1000000E+03  0.7546771E-02  0.1280296E+00
         21   -1    0    0  503  502  0.00000000000E+00  0.00000000000E+00  0.47898094891E+03  0.47898094891E+03  0.00000000000E+00 0.  1.
         21   -1    0    0  501  503 -0.00000000000E+00 -0.00000000000E+00 -0.80048193363E+02  0.80048193363E+02  0.00000000000E+00 0. -1.
          6    1    1    2  501    0  0.56275423878E+02  0.18878372122E+02  0.99652623219E+02  0.20828576903E+03  0.17300000000E+03 0. -1.
         -6    1    1    2    0  502 -0.56275423878E+02 -0.18878372122E+02  0.29928013232E+03  0.35074337324E+03  0.17300000000E+03 0.  1.
</event>
<event>
 4    1  0.6123996E+000  0.1000000E+03  0.7546771E-02  0.1280296E+00
         21   -1    0    0  503  502  0.00000000000E+00  0.00000000000E+00  0.35357347238E+03  0.35357347238E+03  0.00000000000E+00 0.  1.
         21   -1    0    0  501  503 -0.00000000000E+00 -0.00000000000E+00 -0.19003963516E+03  0.19003963516E+03  0.00000000000E+00 0. -1.
          6    1    1    2  501    0  0.12675477648E+03  0.51691946317E+01 -0.70801042822E+02  0.22590989708E+03  0.17300000000E+03 0. -1.
         -6    1    1    2    0  502 -0.12675477648E+03 -0.51691946317E+01  0.23433488004E+03  0.31770321046E+03  0.17300000000E+03 0.  1.
</event>
<event>
 4    1  0.6123996E+000  0.1000000E+03  0.7546771E-02  0.1280296E+00
         21   -1    0    0  503  502  0.00000000000E+00  0.00000000000E+00  0.70225520733E+03  0.70225520733E+03  0.00000000000E+00 0.  1.
         21   -1    0    0  501  503 -0.00000000000E+00 -0.00000000000E+00 -0.37655329355E+03  0.37655329355E+03  0.00000000000E+00 0. -1.
          6    1    1    2  501    0  0.12337903419E+03  0.31251844027E+02 -0.32725380866E+03  0.39143724800E+03  0.17300000000E+03 0. -1.
         -6    1    1    2    0  502 -0.12337903419E+03 -0.31251844027E+02  0.65295572244E+03  0.68737125289E+03  0.17300000000E+03 0.  1.
</event>
<event>
 4    1  0.6123996E+000  0.1000000E+03  0.7546771E-02  0.1280296E+00
         21   -1    0    0  501  502  0.00000000000E+00  0.00000000000E+00  0.94911570062E+02  0.94911570062E+02  0.00000000000E+00 0. -1.
         21   -1    0    0  502  503 -0.00000000000E+00 -0.00000000000E+00 -0.57090639545E+03  0.57090639545E+03  0.00000000000E+00 0. -1.
          6    1    1    2  501    0  0.79434845357E+02  0.97232851130E+02 -0.10620170463E+03  0.23868792190E+03  0.17300000000E+03 0. -1.
         -6    1    1    2    0  503 -0.79434845357E+02 -0.97232851130E+02 -0.36979312076E+03  0.42713004361E+03  0.17300000000E+03 0. -1.
</event>
<event>
 4    1  0.6123996E+000  0.1000000E+03  0.7546771E-02  0.1280296E+00
         21   -1    0    0  501  502  0.00000000000E+00  0.00000000000E+00  0.30352076037E+03  0.30352076037E+03  0.00000000000E+00 0. -1.
         21   -1    0    0  502  503 -0.00000000000E+00 -0.00000000000E+00 -0.19493607740E+03  0.19493607740E+03  0.00000000000E+00 0. -1.
          6    1    1    2  501    0 -0.38503641750E+02  0.16496647991E+03  0.78138984592E+02  0.25442321206E+03  0.17300000000E+03 0. -1.
         -6    1    1    2    0  503  0.38503641750E+02 -0.16496647991E+03  0.30445698378E+02  0.24403362570E+03  0.17300000000E+03 0. -1.
</event>
<event>
 4    1  0.6123996E+000  0.1000000E+03  0.7546771E-02  0.1280296E+00
         21   -1    0    0  501  502  0.00000000000E+00  0.00000000000E+00  0.44847867255E+03  0.44847867255E+03  0.00000000000E+00 0. -1.
         21   -1    0    0  502  503 -0.00000000000E+00 -0.00000000000E+00 -0.56802119139E+03  0.56802119139E+03  0.00000000000E+00 0. -1.
          6    1    1    2  501    0  0.57677952736E+02  0.42133243077E+03  0.15138094115E+03  0.48341798972E+03  0.17300000000E+03 0. -1.
         -6    1    1    2    0  503 -0.57677952736E+02 -0.42133243077E+03 -0.27092345999E+03  0.53308187422E+03  0.17300000000E+03 0. -1.
</event>
<event>
 4    1  0.6123996E+000  0.1000000E+03  0.7546771E-02  0.1280296E+00
         21   -1    0    0  501  502  0.00000000000E+00  0.00000000000E+00  0.40843331743E+03  0.40843331743E+03  0.00000000000E+00 0. -1.
         21   -1    0    0  502  503 -0.00000000000E+00 -0.00000000000E+00 -0.17727943184E+03  0.17727943184E+03  0.00000000000E+00 0. -1.
          6    1    1    2  501    0 -0.69641750125E+02  0.14007495415E+03  0.26162101131E+03  0.35049325200E+03  0.17300000000E+03 0. -1.
         -6    1    1    2    0  503  0.69641750125E+02 -0.14007495415E+03 -0.30467125723E+02  0.23521949726E+03  0.17300000000E+03 0. -1.
</event>
<event>
 4    1  0.6123996E+000  0.1000000E+03  0.7546771E-02  0.1280296E+00
         21   -1    0    0  501  502  0.00000000000E+00  0.00000000000E+00  0.22098234848E+03  0.22098234848E+03  0.00000000000E+00 0. -1.
         21   -1    0    0  502  503 -0.00000000000E+00 -0.00000000000E+00 -0.29899528487E+03  0.29899528487E+03  0.00000000000E+00 0. -1.
          6    1    1    2  501    0 -0.82283341579E+02  0.77962295878E+02  0.11536789451E+03  0.23682782557E+03  0.17300000000E+03 0. -1.
         -6    1    1    2    0  503  0.82283341579E+02 -0.77962295878E+02 -0.19338083091E+03  0.28314980777E+03  0.17300000000E+03 0. -1.
</event>
<event>
 4    1  0.6123996E+000  0.1000000E+03  0.7546771E-02  0.1280296E+00
         21   -1    0    0  503  502  0.00000000000E+00  0.00000000000E+00  0.67541171028E+03  0.67541171028E+03  0.00000000000E+00 0. -1.
         21   -1    0    0  501  503 -0.00000000000E+00 -0.00000000000E+00 -0.63815207186E+02  0.63815207186E+02  0.00000000000E+00 0. -1.
          6    1    1    2  501    0 -0.71765146726E+02 -0.43780047760E+02  0.16668583362E+03  0.25451934307E+03  0.17300000000E+03 0. -1.
         -6    1    1    2    0  502  0.71765146726E+02  0.43780047760E+02  0.44491066948E+03  0.48470757440E+03  0.17300000000E+03 0. -1.
</event>
<event>
 4    1  0.6123996E+000  0.1000000E+03  0.7546771E-02  0.1280296E+00
         21   -1    0    0  503  502  0.00000000000E+00  0.00000000000E+00  0.31861629450E+03  0.31861629450E+03  0.00000000000E+00 0. -1.
         21   -1    0    0  501  503 -0.00000000000E+00 -0.00000000000E+00 -0.18379161542E+03  0.18379161542E+03  0.00000000000E+00 0. -1.
          6    1    1    2  501    0  0.16399538859E+03 -0.39326280826E+02  0.53142662638E+02  0.24737458729E+03  0.17300000000E+03 0. -1.
         -6    1    1    2    0  502 -0.16399538859E+03  0.39326280826E+02  0.81682016445E+02  0.25503332263E+03  0.17300000000E+03 0. -1.
</event>
<event>
 4    1  0.6123996E+000  0.1000000E+03  0.7546771E-02  0.1280296E+00
         21   -1    0    0  503  502  0.00000000000E+00  0.00000000000E+00  0.13433753342E+04  0.13433753342E+04  0.00000000000E+00 0. -1.
         21   -1    0    0  501  503 -0.00000000000E+00 -0.00000000000E+00 -0.26645494308E+02  0.26645494308E+02  0.00000000000E+00 0. -1.
          6    1    1    2  501    0  0.50581390579E+02 -0.27169479203E+02  0.47484250415E+03  0.50862664246E+03  0.17300000000E+03 0. -1.
         -6    1    1    2    0  502 -0.50581390579E+02  0.27169479203E+02  0.84188733571E+03  0.86139418602E+03  0.17300000000E+03 0. -1.
</event>
<event>
 4    1  0.6123996E+000  0.1000000E+03  0.7546771E-02  0.1280296E+00
         21   -1    0    0  503  502  0.00000000000E+00  0.00000000000E+00  0.65147104290E+03  0.65147104290E+03  0.00000000000E+00 0. -1.
         21   -1    0    0  501  503 -0.00000000000E+00 -0.00000000000E+00 -0.89470973111E+02  0.89470973111E+02  0.00000000000E+00 0. -1.
          6    1    1    2  501    0 -0.15365917587E+03 -0.39655375354E+02  0.36746523563E+03  0.43605434354E+03  0.17300000000E+03 0. -1.
         -6    1    1    2    0  502  0.15365917587E+03  0.39655375354E+02  0.19453483416E+03  0.30488767247E+03  0.17300000000E+03 0. -1.
</event>
<event>
 4    1  0.6123996E+000  0.1000000E+03  0.7546771E-02  0.1280296E+00
         21   -1    0    0  503  502  0.00000000000E+00  0.00000000000E+00  0.24808822545E+03  0.24808822545E+03  0.00000000000E+00 0. -1.
         21   -1    0    0  501  503 -0.00000000000E+00 -0.00000000000E+00 -0.18632952134E+03  0.18632952134E+03  0.00000000000E+00 0. -1.
          6    1    1    2  501    0  0.94076877606E+02 -0.16937942152E+02 -0.54604547615E+02  0.20505611282E+03  0.17300000000E+03 0. -1.
         -6    1    1    2    0  502 -0.94076877606E+02  0.16937942152E+02  0.11636325173E+03  0.22936163397E+03  0.17300000000E+03 0. -1.
</event>
<event>
 4    1  0.6123996E+000  0.1000000E+03  0.7546771E-02  0.1280296E+00
         21   -1    0    0  501  502  0.00000000000E+00  0.00000000000E+00  0.35001317381E+03  0.35001317381E+03  0.00000000000E+00 0.  1.
         21   -1    0    0  502  503 -0.00000000000E+00 -0.00000000000E+00 -0.29716824907E+03  0.29716824907E+03  0.00000000000E+00 0. -1.
          6    1    1    2  501    0  0.11872876823E+03 -0.93111860882E+02  0.25371503153E+03  0.34215004935E+03  0.17300000000E+03 0.  1.
         -6    1    1    2    0  503 -0.11872876823E+03  0.93111860882E+02 -0.20087010679E+03  0.30503137354E+03  0.17300000000E+03 0. -1.
</event>
<event>
 4    1  0.6123996E+000  0.1000000E+03  0.7546771E-02  0.1280296E+00
         21   -1    0    0  501  502  0.00000000000E+00  0.00000000000E+00  0.13169045618E+04  0.13169045618E+04  0.00000000000E+00 0.  1.
         21   -1    0    0  502  503 -0.00000000000E+00 -0.00000000000E+00 -0.60987212829E+02  0.60987212829E+02  0.00000000000E+00 0. -1.
          6    1    1    2  501    0 -0.61665545580E+02 -0.23543412184E+02  0.11495153882E+04  0.11643330965E+04  0.17300000000E+03 0.  1.
         -6    1    1    2    0  503  0.61665545580E+02  0.23543412184E+02  0.10640196076E+03  0.21355867817E+03  0.17300000000E+03 0. -1.
</event>
<event>
 4    1  0.6123996E+000  0.1000000E+03  0.7546771E-02  0.1280296E+00
         21   -1    0    0  501  502  0.00000000000E+00  0.00000000000E+00  0.45332983997E+03  0.45332983997E+03  0.00000000000E+00 0.  1.
         21   -1    0    0  502  503 -0.00000000000E+00 -0.00000000000E+00 -0.66875955767E+02  0.66875955767E+02  0.00000000000E+00 0. -1.
          6    1    1    2  501    0 -0.90849979567E+01  0.16889244624E+02  0.18653252901E+03  0.25512970848E+03  0.17300000000E+03 0.  1.
         -6    1    1    2    0  503  0.90849979567E+01 -0.16889244624E+02  0.19992135520E+03  0.26507608726E+03  0.17300000000E+03 0. -1.
</event>
<event>
 4    1  0.6123996E+000  0.1000000E+03  0.7546771E-02  0.1280296E+00
         21   -1    0    0  501  502  0.00000000000E+00  0.00000000000E+00  0.75401344008E+03  0.75401344008E+03  0.00000000000E+00 0.  1.
         21   -1    0    0  502  503 -0.00000000000E+00 -0.00000000000E+00 -0.64191258751E+02  0.64191258751E+02  0.00000000000E+00 0.  1.
          6    1    1    2  501    0 -0.12118861364E+03  0.41638394749E+02  0.42913872879E+03  0.48011403286E+03  0.17300000000E+03 0.  1.
         -6    1    1    2    0  503  0.12118861364E+03 -0.41638394749E+02  0.26068345253E+03  0.33809066597E+03  0.17300000000E+03 0.  1.
</event>
<event>
 4    1  0.6123996E+000  0.1000000E+03  0.7546771E-02  0.1280296E+00
         21   -1    0    0  503  502  0.00000000000E+00  0.00000000000E+00  0.95257694332E+02  0.95257694332E+02  0.00000000000E+00 0.  1.
         21   -1    0    0  501  503 -0.00000000000E+00 -0.00000000000E+00 -0.51750898901E+03  0.51750898901E+03  0.00000000000E+00 0.  1.
          6    1    1    2  501    0  0.48749987785E+02  0.35823257519E+02 -0.38407322534E+03  0.42555976022E+03  0.17300000000E+03 0.  1.
         -6    1    1    2    0  502 -0.48749987785E+02 -0.35823257519E+02 -0.38178069333E+02  0.18720692313E+03  0.17300000000E+03 0.  1.
</event>
<event>
 4    1  0.6123996E+000  0.1000000E+03  0.7546771E-02  0.1280296E+00
         21   -1    0    0  503  502  0.00000000000E+00  0.00000000000E+00  0.62741215484E+03  0.62741215484E+03  0.00000000000E+00 0. -1.
         21   -1    0    0  501  503 -0.00000000000E+00 -0.00000000000E+00 -0.80141620772E+02  0.80141620772E+02  0.00000000000E+00 0. -1.
          6    1    1    2  501    0  0.54751317085E+02  0.69564621892E+02  0.97131210587E+02  0.21725656587E+03  0.17300000000E+03 0. -1.
         -6    1    1    2    0  502 -0.54751317085E+02 -0.69564621892E+02  0.45013932348E+03  0.49029720975E+03  0.17300000000E+03 0. -1.
</event>
<event>
 4    1  0.6123996E+000  0.1000000E+03  0.7546771E-02  0.1280296E+00
         21   -1    0    0  503  502  0.00000000000E+00  0.00000000000E+00  0.52411772580E+03  0.52411772580E+03  0.00000000000E+00 0. -1.
         21   -1    0    0  501  503 -0.00000000000E+00 -0.00000000000E+00 -0.18248398622E+03  0.18248398622E+03  0.00000000000E+00 0. -1.
          6    1    1    2  501    0 -0.85746088626E+01  0.17347074164E+03 -0.44574521351E+02  0.24916161437E+03  0.17300000000E+03 0. -1.
         -6    1    1    2    0  502  0.85746088626E+01 -0.17347074164E+03  0.38620826094E+03  0.45744009765E+03  0.17300000000E+03 0. -1.
</event>
<event>
 4    1  0.6123996E+000  0.1000000E+03  0.7546771E-02  0.1280296E+00
         21   -1    0    0  503  502  0.00000000000E+00  0.00000000000E+00  0.20281811039E+04  0.20281811039E+04  0.00000000000E+00 0. -1.
         21   -1    0    0  501  503 -0.00000000000E+00 -0.00000000000E+00 -0.97969746507E+02  0.97969746507E+02  0.00000000000E+00 0. -1.
          6    1    1    2  501    0 -0.28832725715E+03  0.10381948496E+03  0.31259069264E+03  0.47069420413E+03  0.17300000000E+03 0. -1.
         -6    1    1    2    0  502  0.28832725715E+03 -0.10381948496E+03  0.16176206648E+04  0.16554566463E+04  0.17300000000E+03 0. -1.
</event>
<event>
 4    1  0.6123996E+000  0.1000000E+03  0.7546771E-02  0.1280296E+00
         21   -1    0    0  503  502  0.00000000000E+00  0.00000000000E+00  0.35547018539E+03  0.35547018539E+03  0.00000000000E+00 0. -1.
         21   -1    0    0  501  503 -0.00000000000E+00 -0.00000000000E+00 -0.82600603258E+03  0.82600603258E+03  0.00000000000E+00 0. -1.
          6    1    1    2  501    0  0.17194606844E+03  0.16161174222E+03 -0.73247981513E+03  0.78875819188E+03  0.17300000000E+03 0. -1.
         -6    1    1    2    0  502 -0.17194606844E+03 -0.16161174222E+03  0.26194396794E+03  0.39271802609E+03  0.17300000000E+03 0. -1.
</event>
<event>
 4    1  0.6123996E+000  0.1000000E+03  0.7546771E-02  0.1280296E+00
         21   -1    0    0  503  502  0.00000000000E+00  0.00000000000E+00  0.60288189192E+02  0.60288189192E+02  0.00000000000E+00 0.  1.
         21   -1    0    0  501  503 -0.00000000000E+00 -0.00000000000E+00 -0.12638502325E+04  0.12638502325E+04  0.00000000000E+00 0. -1.
          6    1    1    2  501    0 -0.10831175768E+03  0.47600766283E+02 -0.10326369089E+04  0.10536912524E+04  0.17300000000E+03 0. -1.
         -6    1    1    2    0  502  0.10831175768E+03 -0.47600766283E+02 -0.17092513445E+03  0.27044716931E+03  0.17300000000E+03 0.  1.
</event>
<event>
 4    1  0.6123996E+000  0.1000000E+03  0.7546771E-02  0.1280296E+00
         21   -1    0    0  501  502  0.00000000000E+00  0.00000000000E+00  0.30738513734E+03  0.30738513734E+03  0.00000000000E+00 0. -1.
         21   -1    0    0  502  503 -0.00000000000E+00 -0.00000000000E+00 -0.11450786925E+03  0.11450786925E+03  0.00000000000E+00 0.  1.
          6    1    1    2  501    0 -0.70535224378E+02 -0.14501791429E+02  0.86164401089E+02  0.20624942145E+03  0.17300000000E+03 0. -1.
         -6    1    1    2    0  503  0.70535224378E+02  0.14501791429E+02  0.10671286700E+03  0.21564358515E+03  0.17300000000E+03 0. -1.
</event>
<event>
 4    1  0.6123996E+000  0.1000000E+03  0.7546771E-02  0.1280296E+00
         21   -1    0    0  501  502  0.00000000000E+00  0.00000000000E+00  0.11162984236E+03  0.11162984236E+03  0.00000000000E+00 0. -1.
         21   -1    0    0  502  503 -0.00000000000E+00 -0.00000000000E+00 -0.12352035278E+04  0.12352035278E+04  0.00000000000E+00 0.  1.
          6    1    1    2  501    0  0.11616125268E+03 -0.33940483406E+02 -0.78103955211E+01  0.21127090504E+03  0.17300000000E+03 0. -1.
         -6    1    1    2    0  503 -0.11616125268E+03  0.33940483406E+02 -0.11157632899E+04  0.11355624651E+04  0.17300000000E+03 0. -1.
</event>
<event>
 4    1  0.6123996E+000  0.1000000E+03  0.7546771E-02  0.1280296E+00
         21   -1    0    0  501  502  0.00000000000E+00  0.00000000000E+00  0.20487905788E+03  0.20487905788E+03  0.00000000000E+00 0. -1.
         21   -1    0    0  502  503 -0.00000000000E+00 -0.00000000000E+00 -0.20671546094E+03  0.20671546094E+03  0.00000000000E+00 0.  1.
          6    1    1    2  501    0  0.55451506694E+02  0.62074818442E+02 -0.75043943259E+02  0.20612798475E+03  0.17300000000E+03 0. -1.
         -6    1    1    2    0  503 -0.55451506694E+02 -0.62074818442E+02  0.73207540197E+02  0.20546653407E+03  0.17300000000E+03 0. -1.
</event>
<event>
 4    1  0.6123996E+000  0.1000000E+03  0.7546771E-02  0.1280296E+00
         21   -1    0    0  503  502  0.00000000000E+00  0.00000000000E+00  0.34204291528E+03  0.34204291528E+03  0.00000000000E+00 0.  1.
         21   -1    0    0  501  503 -0.00000000000E+00 -0.00000000000E+00 -0.17362412903E+03  0.17362412903E+03  0.00000000000E+00 0. -1.
          6    1    1    2  501    0 -0.67911515483E+02 -0.89147189483E+02 -0.53328000967E+02  0.21291329459E+03  0.17300000000E+03 0. -1.
         -6    1    1    2    0  502  0.67911515483E+02  0.89147189483E+02  0.22174678722E+03  0.30275374972E+03  0.17300000000E+03 0.  1.
</event>
<event>
 4    1  0.6123996E+000  0.1000000E+03  0.7546771E-02  0.1280296E+00
         21   -1    0    0  503  502  0.00000000000E+00  0.00000000000E+00  0.72754253210E+03  0.72754253210E+03  0.00000000000E+00 0.  1.
         21   -1    0    0  501  503 -0.00000000000E+00 -0.00000000000E+00 -0.45926349389E+03  0.45926349389E+03  0.00000000000E+00 0. -1.
          6    1    1    2  501    0 -0.39338613056E+02 -0.64284621597E+02 -0.42675308830E+03  0.46661251315E+03  0.17300000000E+03 0. -1.
         -6    1    1    2    0  502  0.39338613056E+02  0.64284621597E+02  0.69503212651E+03  0.72019351284E+03  0.17300000000E+03 0.  1.
</event>
<event>
 4    1  0.6123996E+000  0.1000000E+03  0.7546771E-02  0.1280296E+00
         21   -1    0    0  503  502  0.00000000000E+00  0.00000000000E+00  0.71471801811E+03  0.71471801811E+03  0.00000000000E+00 0.  1.
         21   -1    0    0  501  503 -0.00000000000E+00 -0.00000000000E+00 -0.11769696410E+03  0.11769696410E+03  0.00000000000E+00 0. -1.
          6    1    1    2  501    0 -0.16667497834E+03  0.13393366243E+03  0.43059819297E+03  0.51094283254E+03  0.17300000000E+03 0. -1.
         -6    1    1    2    0  502  0.16667497834E+03 -0.13393366243E+03  0.16642286104E+03  0.32147214967E+03  0.17300000000E+03 0.  1.
</event>
<event>
 4    1  0.6123996E+000  0.1000000E+03  0.7546771E-02  0.1280296E+00
         21   -1    0    0  501  502  0.00000000000E+00  0.00000000000E+00  0.12683730948E+03  0.12683730948E+03  0.00000000000E+00 0.  1.
         21   -1    0    0  502  503 -0.00000000000E+00 -0.00000000000E+00 -0.45679102928E+03  0.45679102928E+03  0.00000000000E+00 0.  1.
          6    1    1    2  501    0 -0.53080946645E+02 -0.13498379904E+03 -0.63756118769E+02  0.23458912077E+03  0.17300000000E+03 0.  1.
         -6    1    1    2    0  503  0.53080946645E+02  0.13498379904E+03 -0.26619760103E+03  0.34903921799E+03  0.17300000000E+03 0.  1.
</event>
<event>
 4    1  0.6123996E+000  0.1000000E+03  0.7546771E-02  0.1280296E+00
         21   -1    0    0  503  502  0.00000000000E+00  0.00000000000E+00  0.24748073680E+03  0.24748073680E+03  0.00000000000E+00 0. -1.
         21   -1    0    0  501  503 -0.00000000000E+00 -0.00000000000E+00 -0.20893789532E+03  0.20893789532E+03  0.00000000000E+00 0. -1.
          6    1    1    2  501    0  0.24891085797E+02  0.98707463262E+02 -0.87959039748E+02  0.21915410589E+03  0.17300000000E+03 0. -1.
         -6    1    1    2    0  502 -0.24891085797E+02 -0.98707463262E+02  0.12650188123E+03  0.23726452624E+03  0.17300000000E+03 0. -1.
</event>
<event>
 4    1  0.6123996E+000  0.1000000E+03  0.7546771E-02  0.1280296E+00
         21   -1    0    0  503  502  0.00000000000E+00  0.00000000000E+00  0.42630193850E+03  0.42630193850E+03  0.00000000000E+00 0. -1.
         21   -1    0    0  501  503 -0.00000000000E+00 -0.00000000000E+00 -0.89058960254E+02  0.89058960254E+02  0.00000000000E+00 0. -1.
          6    1    1    2  501    0 -0.13703273396E+02 -0.41720545239E+02  0.65260728848E+02  0.19004301178E+03  0.17300000000E+03 0. -1.
         -6    1    1    2    0  502  0.13703273396E+02  0.41720545239E+02  0.27198224940E+03  0.32531788697E+03  0.17300000000E+03 0. -1.
</event>
<event>
 4    1  0.6123996E+000  0.1000000E+03  0.7546771E-02  0.1280296E+00
         21   -1    0    0  503  502  0.00000000000E+00  0.00000000000E+00  0.19478801581E+03  0.19478801581E+03  0.00000000000E+00 0. -1.
         21   -1    0    0  501  503 -0.00000000000E+00 -0.00000000000E+00 -0.34893262194E+03  0.34893262194E+03  0.00000000000E+00 0. -1.
          6    1    1    2  501    0  0.10136159706E+03  0.15704034425E+03 -0.13516055465E+03  0.28832831740E+03  0.17300000000E+03 0. -1.
         -6    1    1    2    0  502 -0.10136159706E+03 -0.15704034425E+03 -0.18984051486E+02  0.25539232035E+03  0.17300000000E+03 0. -1.
</event>
<event>
 4    1  0.6123996E+000  0.1000000E+03  0.7546771E-02  0.1280296E+00
         21   -1    0    0  503  502  0.00000000000E+00  0.00000000000E+00  0.13769432784E+03  0.13769432784E+03  0.00000000000E+00 0. -1.
         21   -1    0    0  501  503 -0.00000000000E+00 -0.00000000000E+00 -0.25822806594E+03  0.25822806594E+03  0.00000000000E+00 0. -1.
          6    1    1    2  501    0 -0.50556839485E+01 -0.74175003864E+02 -0.70767764402E+02  0.20115806625E+03  0.17300000000E+03 0. -1.
         -6    1    1    2    0  502  0.50556839485E+01  0.74175003864E+02 -0.49765973700E+02  0.19476432753E+03  0.17300000000E+03 0. -1.
</event>
<event>
 4    1  0.6123996E+000  0.1000000E+03  0.7546771E-02  0.1280296E+00
         21   -1    0    0  501  502  0.00000000000E+00  0.00000000000E+00  0.26786609045E+03  0.26786609045E+03  0.00000000000E+00 0.  1.
         21   -1    0    0  502  503 -0.00000000000E+00 -0.00000000000E+00 -0.19452915587E+03  0.19452915587E+03  0.00000000000E+00 0.  1.
          6    1    1    2  501    0 -0.19651528092E+01 -0.94871187060E+02  0.15291952577E+03  0.24963530464E+03  0.17300000000E+03 0.  1.
         -6    1    1    2    0  503  0.19651528092E+01  0.94871187060E+02 -0.79582591196E+02  0.21275994167E+03  0.17300000000E+03 0.  1.
</event>
<event>
 4    1  0.6123996E+000  0.1000000E+03  0.7546771E-02  0.1280296E+00
         21   -1    0    0  501  502  0.00000000000E+00  0.00000000000E+00  0.27843122553E+03  0.27843122553E+03  0.00000000000E+00 0.  1.
         21   -1    0    0  502  503 -0.00000000000E+00 -0.00000000000E+00 -0.17363176020E+03  0.17363176020E+03  0.00000000000E+00 0.  1.
          6    1    1    2  501    0  0.17703903939E+02 -0.93170010806E+02  0.15218207386E+03  0.24916352609E+03  0.17300000000E+03 0.  1.
         -6    1    1    2    0  503 -0.17703903939E+02  0.93170010806E+02 -0.47382608536E+02  0.20289945963E+03  0.17300000000E+03 0.  1.
</event>
<event>
 4    1  0.6123996E+000  0.1000000E+03  0.7546771E-02  0.1280296E+00
         21   -1    0    0  501  502  0.00000000000E+00  0.00000000000E+00  0.26598802211E+03  0.26598802211E+03  0.00000000000E+00 0.  1.
         21   -1    0    0  502  503 -0.00000000000E+00 -0.00000000000E+00 -0.20089197195E+03  0.20089197195E+03  0.00000000000E+00 0.  1.
          6    1    1    2  501    0  0.82706633935E+02 -0.10882437948E+03  0.10267889174E+03  0.24321818944E+03  0.17300000000E+03 0.  1.
         -6    1    1    2    0  503 -0.82706633935E+02  0.10882437948E+03 -0.37582841578E+02  0.22366180462E+03  0.17300000000E+03 0.  1.
</event>
<event>
 4    1  0.6123996E+000  0.1000000E+03  0.7546771E-02  0.1280296E+00
         21   -1    0    0  503  502  0.00000000000E+00  0.00000000000E+00  0.21507670390E+03  0.21507670390E+03  0.00000000000E+00 0.  1.
         21   -1    0    0  501  503 -0.00000000000E+00 -0.00000000000E+00 -0.63157926681E+03  0.63157926681E+03  0.00000000000E+00 0.  1.
          6    1    1    2  501    0  0.12086864746E+03 -0.60774013323E+02 -0.54821609665E+03  0.59056972430E+03  0.17300000000E+03 0. -1.
         -6    1    1    2    0  502 -0.12086864746E+03  0.60774013323E+02  0.13171353374E+03  0.25608624642E+03  0.17300000000E+03 0. -1.
</event>
<event>
 4    1  0.6123996E+000  0.1000000E+03  0.7546771E-02  0.1280296E+00
         21   -1    0    0  503  502  0.00000000000E+00  0.00000000000E+00  0.18327856835E+04  0.18327856835E+04  0.00000000000E+00 0.  1.
         21   -1    0    0  501  503 -0.00000000000E+00 -0.00000000000E+00 -0.40833001147E+02  0.40833001147E+02  0.00000000000E+00 0.  1.
          6    1    1    2  501    0  0.42337935086E+02 -0.55603953366E+01  0.18516163562E+03  0.25697713916E+03  0.17300000000E+03 0. -1.
         -6    1    1    2    0  502 -0.42337935086E+02  0.55603953366E+01  0.16067910468E+04  0.16166415455E+04  0.17300000000E+03 0. -1.
</event>
<event>
 4    1  0.6123996E+000  0.1000000E+03  0.7546771E-02  0.1280296E+00
         21   -1    0    0  503  502  0.00000000000E+00  0.00000000000E+00  0.47403711975E+03  0.47403711975E+03  0.00000000000E+00 0.  1.
         21   -1    0    0  501  503 -0.00000000000E+00 -0.00000000000E+00 -0.23671825103E+03  0.23671825103E+03  0.00000000000E+00 0. -1.
          6    1    1    2  501    0  0.14924406452E+02 -0.32589160712E+02 -0.18327255833E+03  0.25456359115E+03  0.17300000000E+03 0. -1.
         -6    1    1    2    0  502 -0.14924406452E+02  0.32589160712E+02  0.42059142704E+03  0.45619177963E+03  0.17300000000E+03 0.  1.
</event>
<event>
 4    1  0.6123996E+000  0.1000000E+03  0.7546771E-02  0.1280296E+00
         21   -1    0    0  503  502  0.00000000000E+00  0.00000000000E+00  0.50349006609E+03  0.50349006609E+03  0.00000000000E+00 0.  1.
         21   -1    0    0  501  503 -0.00000000000E+00 -0.00000000000E+00 -0.29606085853E+03  0.29606085853E+03  0.00000000000E+00 0. -1.
          6    1    1    2  501    0 -0.22223598656E+03 -0.92040150499E+02 -0.15259801904E+03  0.33327973002E+03  0.17300000000E+03 0. -1.
         -6    1    1    2    0  502  0.22223598656E+03  0.92040150499E+02  0.36002722660E+03  0.46627119461E+03  0.17300000000E+03 0.  1.
</event>
<event>
 4    1  0.6123996E+000  0.1000000E+03  0.7546771E-02  0.1280296E+00
         21   -1    0    0  503  502  0.00000000000E+00  0.00000000000E+00  0.12238693139E+03  0.12238693139E+03  0.00000000000E+00 0.  1.
         21   -1    0    0  501  503 -0.00000000000E+00 -0.00000000000E+00 -0.56679676200E+03  0.56679676200E+03  0.00000000000E+00 0.  1.
          6    1    1    2  501    0  0.18682561553E+03  0.49807391612E+02 -0.16289568851E+03  0.30634717595E+03  0.17300000000E+03 0.  1.
         -6    1    1    2    0  502 -0.18682561553E+03 -0.49807391612E+02 -0.28151414210E+03  0.38283651743E+03  0.17300000000E+03 0.  1.
</event>
<event>
 4    1  0.6123996E+000  0.1000000E+03  0.7546771E-02  0.1280296E+00
         21   -1    0    0  503  502  0.00000000000E+00  0.00000000000E+00  0.53700171956E+03  0.53700171956E+03  0.00000000000E+00 0.  1.
         21   -1    0    0  501  503 -0.00000000000E+00 -0.00000000000E+00 -0.19313866939E+03  0.19313866939E+03  0.00000000000E+00 0.  1.
          6    1    1    2  501    0  0.46592283208E+01  0.23691479760E+03  0.21388816055E+02  0.29417139763E+03  0.17300000000E+03 0.  1.
         -6    1    1    2    0  502 -0.46592283208E+01 -0.23691479760E+03  0.32247423411E+03  0.43596899132E+03  0.17300000000E+03 0.  1.
</event>
<event>
 4    1  0.6123996E+000  0.1000000E+03  0.7546771E-02  0.1280296E+00
         21   -1    0    0  503  502  0.00000000000E+00  0.00000000000E+00  0.39360519803E+02  0.39360519803E+02  0.00000000000E+00 0. -1.
         21   -1    0    0  501  503 -0.00000000000E+00 -0.00000000000E+00 -0.82788626478E+03  0.82788626478E+03  0.00000000000E+00 0. -1.
          6    1    1    2  501    0  0.13874968050E+02 -0.43641971262E+02 -0.33742325484E+03  0.38194317548E+03  0.17300000000E+03 0.  1.
         -6    1    1    2    0  502 -0.13874968050E+02  0.43641971262E+02 -0.45110249014E+03  0.48530360909E+03  0.17300000000E+03 0.  1.
</event>
<event>
 4    1  0.6123996E+000  0.1000000E+03  0.7546771E-02  0.1280296E+00
         21   -1    0    0  503  502  0.00000000000E+00  0.00000000000E+00  0.56411849854E+03  0.56411849854E+03  0.00000000000E+00 0. -1.
         21   -1    0    0  501  503 -0.00000000000E+00 -0.00000000000E+00 -0.58698856971E+02  0.58698856971E+02  0.00000000000E+00 0. -1.
          6    1    1    2  501    0  0.37593252558E+02  0.35468581427E+01  0.18095112846E+03  0.25317611209E+03  0.17300000000E+03 0.  1.
         -6    1    1    2    0  502 -0.37593252558E+02 -0.35468581427E+01  0.32446851311E+03  0.36964124342E+03  0.17300000000E+03 0.  1.
</event>
<event>
 4    1  0.6123996E+000  0.1000000E+03  0.7546771E-02  0.1280296E+00
         21   -1    0    0  503  502  0.00000000000E+00  0.00000000000E+00  0.45373628352E+02  0.45373628352E+02  0.00000000000E+00 0.  1.
         21   -1    0    0  501  503 -0.00000000000E+00 -0.00000000000E+00 -0.89409588193E+03  0.89409588193E+03  0.00000000000E+00 0.  1.
          6    1    1    2  501    0 -0.99107705174E+02  0.49360927081E+01 -0.49002184927E+03  0.52905303609E+03  0.17300000000E+03 0.  1.
         -6    1    1    2    0  502  0.99107705174E+02 -0.49360927081E+01 -0.35870040431E+03  0.41041647419E+03  0.17300000000E+03 0.  1.
</event>
<event>
 4    1  0.6123996E+000  0.1000000E+03  0.7546771E-02  0.1280296E+00
         21   -1    0    0  503  502  0.00000000000E+00  0.00000000000E+00  0.16381863366E+03  0.16381863366E+03  0.00000000000E+00 0.  1.
         21   -1    0    0  501  503 -0.00000000000E+00 -0.00000000000E+00 -0.37700645368E+03  0.37700645368E+03  0.00000000000E+00 0.  1.
          6    1    1    2  501    0  0.50113634095E+02  0.92127601902E+02 -0.26364636370E+03  0.33232104425E+03  0.17300000000E+03 0.  1.
         -6    1    1    2    0  502 -0.50113634095E+02 -0.92127601902E+02  0.50458543694E+02  0.20850404309E+03  0.17300000000E+03 0.  1.
</event>
<event>
 4    1  0.6123996E+000  0.1000000E+03  0.7546771E-02  0.1280296E+00
         21   -1    0    0  503  502  0.00000000000E+00  0.00000000000E+00  0.38723165855E+02  0.38723165855E+02  0.00000000000E+00 0.  1.
         21   -1    0    0  501  503 -0.00000000000E+00 -0.00000000000E+00 -0.16190339381E+04  0.16190339381E+04  0.00000000000E+00 0.  1.
          6    1    1    2  501    0 -0.72810713100E+01  0.94294835942E+02 -0.13010763834E+04  0.13159305778E+04  0.17300000000E+03 0.  1.
         -6    1    1    2    0  502  0.72810713100E+01 -0.94294835942E+02 -0.27923438883E+03  0.34182652617E+03  0.17300000000E+03 0.  1.
</event>
<event>
 4    1  0.6123996E+000  0.1000000E+03  0.7546771E-02  0.1280296E+00
         21   -1    0    0  501  502  0.00000000000E+00  0.00000000000E+00  0.84179895427E+03  0.84179895427E+03  0.00000000000E+00 0. -1.
         21   -1    0    0  502  503 -0.00000000000E+00 -0.00000000000E+00 -0.11314217917E+03  0.11314217917E+03  0.00000000000E+00 0.  1.
          6    1    1    2  501    0  0.72989379896E+02  0.15388625088E+03  0.65912100063E+03  0.70240865688E+03  0.17300000000E+03 0. -1.
         -6    1    1    2    0  503 -0.72989379896E+02 -0.15388625088E+03  0.69535774468E+02  0.25253247656E+03  0.17300000000E+03 0.  1.
</event>
<event>
 4    1  0.6123996E+000  0.1000000E+03  0.7546771E-02  0.1280296E+00
         21   -1    0    0  501  502  0.00000000000E+00  0.00000000000E+00  0.67042882434E+02  0.67042882434E+02  0.00000000000E+00 0. -1.
         21   -1    0    0  502  503 -0.00000000000E+00 -0.00000000000E+00 -0.67374003652E+03  0.67374003652E+03  0.00000000000E+00 0.  1.
          6    1    1    2  501    0 -0.11333767969E+03 -0.48647011277E+02 -0.31265446322E+03  0.37801292929E+03  0.17300000000E+03 0. -1.
         -6    1    1    2    0  503  0.11333767969E+03  0.48647011277E+02 -0.29404269087E+03  0.36276998966E+03  0.17300000000E+03 0.  1.
</event>
<event>
 4    1  0.6123996E+000  0.1000000E+03  0.7546771E-02  0.1280296E+00
         21   -1    0    0  501  502  0.00000000000E+00  0.00000000000E+00  0.18712372096E+04  0.18712372096E+04  0.00000000000E+00 0.  1.
         21   -1    0    0  502  503 -0.00000000000E+00 -0.00000000000E+00 -0.82284848077E+02  0.82284848077E+02  0.00000000000E+00 0.  1.
          6    1    1    2  501    0 -0.77872737249E+02  0.15465261583E+03  0.16579170365E+04  0.16758876736E+04  0.17300000000E+03 0.  1.
         -6    1    1    2    0  503  0.77872737249E+02 -0.15465261583E+03  0.13103532503E+03  0.27763438403E+03  0.17300000000E+03 0.  1.
</event>
<event>
 4    1  0.6123996E+000  0.1000000E+03  0.7546771E-02  0.1280296E+00
         21   -1    0    0  501  502  0.00000000000E+00  0.00000000000E+00  0.35465392547E+02  0.35465392547E+02  0.00000000000E+00 0. -1.
         21   -1    0    0  502  503 -0.00000000000E+00 -0.00000000000E+00 -0.11386358469E+04  0.11386358469E+04  0.00000000000E+00 0.  1.
          6    1    1    2  501    0 -0.51784517375E+02 -0.74069732566E+02 -0.41193443816E+03  0.45583653086E+03  0.17300000000E+03 0.  1.
         -6    1    1    2    0  503  0.51784517375E+02  0.74069732566E+02 -0.69123601617E+03  0.71826470857E+03  0.17300000000E+03 0. -1.
</event>
<event>
 4    1  0.6123996E+000  0.1000000E+03  0.7546771E-02  0.1280296E+00
         21   -1    0    0  501  502  0.00000000000E+00  0.00000000000E+00  0.21645886904E+02  0.21645886904E+02  0.00000000000E+00 0. -1.
         21   -1    0    0  502  503 -0.00000000000E+00 -0.00000000000E+00 -0.19815258892E+04  0.19815258892E+04  0.00000000000E+00 0.  1.
          6    1    1    2  501    0 -0.40609263251E+02  0.41465380488E+02 -0.50623340530E+03  0.53811685598E+03  0.17300000000E+03 0.  1.
         -6    1    1    2    0  503  0.40609263251E+02 -0.41465380488E+02 -0.14536465970E+04  0.14650549201E+04  0.17300000000E+03 0. -1.
</event>
<event>
 4    1  0.6123996E+000  0.1000000E+03  0.7546771E-02  0.1280296E+00
         21   -1    0    0  501  502  0.00000000000E+00  0.00000000000E+00  0.82914506285E+03  0.82914506285E+03  0.00000000000E+00 0. -1.
         21   -1    0    0  502  503 -0.00000000000E+00 -0.00000000000E+00 -0.53388072979E+02  0.53388072979E+02  0.00000000000E+00 0.  1.
          6    1    1    2  501    0  0.40126008210E+02 -0.29165298946E+02  0.61644488837E+03  0.64217911177E+03  0.17300000000E+03 0.  1.
         -6    1    1    2    0  503 -0.40126008210E+02  0.29165298946E+02  0.15931210151E+03  0.24035402407E+03  0.17300000000E+03 0. -1.
</event>
<event>
 4    1  0.6123996E+000  0.1000000E+03  0.7546771E-02  0.1280296E+00
         21   -1    0    0  503  502  0.00000000000E+00  0.00000000000E+00  0.17388369028E+02  0.17388369028E+02  0.00000000000E+00 0.  1.
         21   -1    0    0  501  503 -0.00000000000E+00 -0.00000000000E+00 -0.20401097892E+04  0.20401097892E+04  0.00000000000E+00 0.  1.
          6    1    1    2  501    0 -0.67959519760E+02 -0.29319098996E+02 -0.10560946117E+04  0.10727268687E+04  0.17300000000E+03 0.  1.
         -6    1    1    2    0  502  0.67959519760E+02  0.29319098996E+02 -0.96662680843E+03  0.98477128952E+03  0.17300000000E+03 0.  1.
</event>
<event>
 4    1  0.6123996E+000  0.1000000E+03  0.7546771E-02  0.1280296E+00
         21   -1    0    0  503  502  0.00000000000E+00  0.00000000000E+00  0.45503332034E+03  0.45503332034E+03  0.00000000000E+00 0.  1.
         21   -1    0    0  501  503 -0.00000000000E+00 -0.00000000000E+00 -0.71750582788E+02  0.71750582788E+02  0.00000000000E+00 0.  1.
          6    1    1    2  501    0  0.34936276435E+02 -0.33955737614E+02  0.21877066738E+03  0.28313095987E+03  0.17300000000E+03 0.  1.
         -6    1    1    2    0  502 -0.34936276435E+02  0.33955737614E+02  0.16451207017E+03  0.24365294326E+03  0.17300000000E+03 0.  1.
</event>
<event>
 4    1  0.6123996E+000  0.1000000E+03  0.7546771E-02  0.1280296E+00
         21   -1    0    0  501  502  0.00000000000E+00  0.00000000000E+00  0.51662542629E+02  0.51662542629E+02  0.00000000000E+00 0. -1.
         21   -1    0    0  502  503 -0.00000000000E+00 -0.00000000000E+00 -0.90429468188E+03  0.90429468188E+03  0.00000000000E+00 0.  1.
          6    1    1    2  501    0 -0.20244970333E+02  0.74195328745E+02 -0.19571178141E+03  0.27229929675E+03  0.17300000000E+03 0.  1.
         -6    1    1    2    0  503  0.20244970333E+02 -0.74195328745E+02 -0.65692035785E+03  0.68365792776E+03  0.17300000000E+03 0. -1.
</event>
<event>
 4    1  0.6123996E+000  0.1000000E+03  0.7546771E-02  0.1280296E+00
         21   -1    0    0  501  502  0.00000000000E+00  0.00000000000E+00  0.10052940646E+04  0.10052940646E+04  0.00000000000E+00 0. -1.
         21   -1    0    0  502  503 -0.00000000000E+00 -0.00000000000E+00 -0.18480608237E+03  0.18480608237E+03  0.00000000000E+00 0.  1.
          6    1    1    2  501    0  0.86545019536E+02  0.12130906851E+03  0.91494309887E+03  0.94300360799E+03  0.17300000000E+03 0.  1.
         -6    1    1    2    0  503 -0.86545019536E+02 -0.12130906851E+03 -0.94455116649E+02  0.24709653897E+03  0.17300000000E+03 0. -1.
</event>
<event>
 4    1  0.6123996E+000  0.1000000E+03  0.7546771E-02  0.1280296E+00
         21   -1    0    0  501  502  0.00000000000E+00  0.00000000000E+00  0.18650891358E+03  0.18650891358E+03  0.00000000000E+00 0. -1.
         21   -1    0    0  502  503 -0.00000000000E+00 -0.00000000000E+00 -0.45515113968E+03  0.45515113968E+03  0.00000000000E+00 0.  1.
          6    1    1    2  501    0 -0.33313800495E+02 -0.10161477279E+03  0.95409380611E+02  0.22464932954E+03  0.17300000000E+03 0.  1.
         -6    1    1    2    0  503  0.33313800495E+02  0.10161477279E+03 -0.36405160671E+03  0.41701072372E+03  0.17300000000E+03 0. -1.
</event>
<event>
 4    1  0.6123996E+000  0.1000000E+03  0.7546771E-02  0.1280296E+00
         21   -1    0    0  501  502  0.00000000000E+00  0.00000000000E+00  0.34077938177E+02  0.34077938177E+02  0.00000000000E+00 0. -1.
         21   -1    0    0  502  503 -0.00000000000E+00 -0.00000000000E+00 -0.90126088468E+03  0.90126088468E+03  0.00000000000E+00 0. -1.
          6    1    1    2  501    0 -0.98521941938E+01  0.75110491108E+01 -0.50060535077E+03  0.52980014988E+03  0.17300000000E+03 0. -1.
         -6    1    1    2    0  503  0.98521941938E+01 -0.75110491108E+01 -0.36657759573E+03  0.40553867298E+03  0.17300000000E+03 0. -1.
</event>
<event>
 4    1  0.6123996E+000  0.1000000E+03  0.7546771E-02  0.1280296E+00
         21   -1    0    0  501  502  0.00000000000E+00  0.00000000000E+00  0.13420509632E+04  0.13420509632E+04  0.00000000000E+00 0. -1.
         21   -1    0    0  502  503 -0.00000000000E+00 -0.00000000000E+00 -0.29004359606E+02  0.29004359606E+02  0.00000000000E+00 0. -1.
          6    1    1    2  501    0 -0.29946822483E+02 -0.33841035645E+02  0.94628139639E+03  0.96302622447E+03  0.17300000000E+03 0. -1.
         -6    1    1    2    0  503  0.29946822483E+02  0.33841035645E+02  0.36676520720E+03  0.40802909833E+03  0.17300000000E+03 0. -1.
</event>
<event>
 4    1  0.6123996E+000  0.1000000E+03  0.7546771E-02  0.1280296E+00
         21   -1    0    0  501  502  0.00000000000E+00  0.00000000000E+00  0.62685578943E+03  0.62685578943E+03  0.00000000000E+00 0.  1.
         21   -1    0    0  502  503 -0.00000000000E+00 -0.00000000000E+00 -0.16902328391E+03  0.16902328391E+03  0.00000000000E+00 0.  1.
          6    1    1    2  501    0  0.11756926754E+01  0.10765624827E+03  0.53923934234E+03  0.57645409043E+03  0.17300000000E+03 0.  1.
         -6    1    1    2    0  503 -0.11756926754E+01 -0.10765624827E+03 -0.81406836827E+02  0.21942498291E+03  0.17300000000E+03 0.  1.
</event>
<event>
 4    1  0.6123996E+000  0.1000000E+03  0.7546771E-02  0.1280296E+00
         21   -1    0    0  501  502  0.00000000000E+00  0.00000000000E+00  0.29484192144E+03  0.29484192144E+03  0.00000000000E+00 0.  1.
         21   -1    0    0  502  503 -0.00000000000E+00 -0.00000000000E+00 -0.76766717730E+03  0.76766717730E+03  0.00000000000E+00 0.  1.
          6    1    1    2  501    0 -0.22963928599E+03 -0.21788334591E+03  0.10993991147E+03  0.37712483109E+03  0.17300000000E+03 0.  1.
         -6    1    1    2    0  503  0.22963928599E+03  0.21788334591E+03 -0.58276516733E+03  0.68538426765E+03  0.17300000000E+03 0.  1.
</event>
<event>
 4    1  0.6123996E+000  0.1000000E+03  0.7546771E-02  0.1280296E+00
         21   -1    0    0  501  502  0.00000000000E+00  0.00000000000E+00  0.46512423901E+03  0.46512423901E+03  0.00000000000E+00 0.  1.
         21   -1    0    0  502  503 -0.00000000000E+00 -0.00000000000E+00 -0.70064296593E+03  0.70064296593E+03  0.00000000000E+00 0.  1.
          6    1    1    2  501    0 -0.20672792955E+02 -0.10009119834E+03  0.42782348145E+03  0.47266007197E+03  0.17300000000E+03 0.  1.
         -6    1    1    2    0  503  0.20672792955E+02  0.10009119834E+03 -0.66334220838E+03  0.69310713297E+03  0.17300000000E+03 0.  1.
</event>
<event>
 4    1  0.6123996E+000  0.1000000E+03  0.7546771E-02  0.1280296E+00
         21   -1    0    0  501  502  0.00000000000E+00  0.00000000000E+00  0.80126940194E+02  0.80126940194E+02  0.00000000000E+00 0.  1.
         21   -1    0    0  502  503 -0.00000000000E+00 -0.00000000000E+00 -0.60570680021E+03  0.60570680021E+03  0.00000000000E+00 0.  1.
          6    1    1    2  501    0  0.16470513624E+02  0.12626595693E+03 -0.18669197108E+03  0.28460017879E+03  0.17300000000E+03 0.  1.
         -6    1    1    2    0  503 -0.16470513624E+02 -0.12626595693E+03 -0.33888788893E+03  0.40123356161E+03  0.17300000000E+03 0.  1.
</event>
<event>
 4    1  0.6123996E+000  0.1000000E+03  0.7546771E-02  0.1280296E+00
         21   -1    0    0  501  502  0.00000000000E+00  0.00000000000E+00  0.35417476320E+03  0.35417476320E+03  0.00000000000E+00 0.  1.
         21   -1    0    0  502  503 -0.00000000000E+00 -0.00000000000E+00 -0.21661996325E+03  0.21661996325E+03  0.00000000000E+00 0.  1.
          6    1    1    2  501    0 -0.12946112827E+03 -0.79360228913E+02  0.22751442809E+03  0.32365111564E+03  0.17300000000E+03 0.  1.
         -6    1    1    2    0  503  0.12946112827E+03  0.79360228913E+02 -0.89959628149E+02  0.24714361081E+03  0.17300000000E+03 0.  1.
</event>
<event>
 4    1  0.6123996E+000  0.1000000E+03  0.7546771E-02  0.1280296E+00
         21   -1    0    0  501  502  0.00000000000E+00  0.00000000000E+00  0.67778318033E+03  0.67778318033E+03  0.00000000000E+00 0.  1.
         21   -1    0    0  502  503 -0.00000000000E+00 -0.00000000000E+00 -0.14874285988E+03  0.14874285988E+03  0.00000000000E+00 0.  1.
          6    1    1    2  501    0 -0.66574717952E+02 -0.21584681142E+03  0.81077440385E+02  0.29584555161E+03  0.17300000000E+03 0.  1.
         -6    1    1    2    0  503  0.66574717952E+02  0.21584681142E+03  0.44796288006E+03  0.53068048860E+03  0.17300000000E+03 0.  1.
</event>
<event>
 4    1  0.6123996E+000  0.1000000E+03  0.7546771E-02  0.1280296E+00
         21   -1    0    0  501  502  0.00000000000E+00  0.00000000000E+00  0.62744955298E+02  0.62744955298E+02  0.00000000000E+00 0. -1.
         21   -1    0    0  502  503 -0.00000000000E+00 -0.00000000000E+00 -0.51908752440E+03  0.51908752440E+03  0.00000000000E+00 0.  1.
          6    1    1    2  501    0 -0.16021626752E+02 -0.34012462268E+02 -0.17169270488E+03  0.24661898755E+03  0.17300000000E+03 0.  1.
         -6    1    1    2    0  503  0.16021626752E+02  0.34012462268E+02 -0.28464986423E+03  0.33521349215E+03  0.17300000000E+03 0. -1.
</event>
<event>
 4    1  0.6123996E+000  0.1000000E+03  0.7546771E-02  0.1280296E+00
         21   -1    0    0  501  502  0.00000000000E+00  0.00000000000E+00  0.22019785116E+04  0.22019785116E+04  0.00000000000E+00 0. -1.
         21   -1    0    0  502  503 -0.00000000000E+00 -0.00000000000E+00 -0.16452031669E+02  0.16452031669E+02  0.00000000000E+00 0. -1.
          6    1    1    2  501    0  0.78107003626E+02 -0.39906646106E+01  0.11712519420E+04  0.11865398186E+04  0.17300000000E+03 0. -1.
         -6    1    1    2    0  503 -0.78107003626E+02  0.39906646106E+01  0.10142745379E+04  0.10318907247E+04  0.17300000000E+03 0. -1.
</event>
<event>
 4    1  0.6123996E+000  0.1000000E+03  0.7546771E-02  0.1280296E+00
         21   -1    0    0  501  502  0.00000000000E+00  0.00000000000E+00  0.63298343125E+02  0.63298343125E+02  0.00000000000E+00 0. -1.
         21   -1    0    0  502  503 -0.00000000000E+00 -0.00000000000E+00 -0.18731213238E+04  0.18731213238E+04  0.00000000000E+00 0. -1.
          6    1    1    2  501    0  0.11049645208E+03 -0.14985174444E+03 -0.25167194545E+03  0.35767692036E+03  0.17300000000E+03 0. -1.
         -6    1    1    2    0  503 -0.11049645208E+03  0.14985174444E+03 -0.15581510352E+04  0.15787427465E+04  0.17300000000E+03 0. -1.
</event>
<event>
 4    1  0.6123996E+000  0.1000000E+03  0.7546771E-02  0.1280296E+00
         21   -1    0    0  501  502  0.00000000000E+00  0.00000000000E+00  0.14818638834E+03  0.14818638834E+03  0.00000000000E+00 0.  1.
         21   -1    0    0  502  503 -0.00000000000E+00 -0.00000000000E+00 -0.75981016384E+03  0.75981016384E+03  0.00000000000E+00 0. -1.
          6    1    1    2  501    0  0.96191417787E+02 -0.12994626656E+03  0.15865463243E+02  0.23731736972E+03  0.17300000000E+03 0.  1.
         -6    1    1    2    0  503 -0.96191417787E+02  0.12994626656E+03 -0.62748923874E+03  0.67067918246E+03  0.17300000000E+03 0. -1.
</event>
<event>
 4    1  0.6123996E+000  0.1000000E+03  0.7546771E-02  0.1280296E+00
         21   -1    0    0  501  502  0.00000000000E+00  0.00000000000E+00  0.19649310690E+04  0.19649310690E+04  0.00000000000E+00 0.  1.
         21   -1    0    0  502  503 -0.00000000000E+00 -0.00000000000E+00 -0.83780489411E+02  0.83780489411E+02  0.00000000000E+00 0. -1.
          6    1    1    2  501    0  0.49944210488E+02 -0.16938402755E+03  0.17528328304E+04  0.17701800203E+04  0.17300000000E+03 0.  1.
         -6    1    1    2    0  503 -0.49944210488E+02  0.16938402755E+03  0.12831774914E+03  0.27853153806E+03  0.17300000000E+03 0. -1.
</event>
<event>
 4    1  0.6123996E+000  0.1000000E+03  0.7546771E-02  0.1280296E+00
         21   -1    0    0  503  502  0.00000000000E+00  0.00000000000E+00  0.69994424747E+03  0.69994424747E+03  0.00000000000E+00 0.  1.
         21   -1    0    0  501  503 -0.00000000000E+00 -0.00000000000E+00 -0.19277470696E+03  0.19277470696E+03  0.00000000000E+00 0.  1.
          6    1    1    2  501    0 -0.91446243407E+01 -0.16086408635E+02 -0.13952938990E+03  0.22302432007E+03  0.17300000000E+03 0.  1.
         -6    1    1    2    0  502  0.91446243407E+01  0.16086408635E+02  0.64669893041E+03  0.66969463436E+03  0.17300000000E+03 0.  1.
</event>
<event>
 4    1  0.6123996E+000  0.1000000E+03  0.7546771E-02  0.1280296E+00
         21   -1    0    0  503  502  0.00000000000E+00  0.00000000000E+00  0.23121320837E+03  0.23121320837E+03  0.00000000000E+00 0.  1.
         21   -1    0    0  501  503 -0.00000000000E+00 -0.00000000000E+00 -0.18329992309E+03  0.18329992309E+03  0.00000000000E+00 0.  1.
          6    1    1    2  501    0  0.27118754343E+02 -0.69961374078E+02 -0.59198210108E+02  0.19764475399E+03  0.17300000000E+03 0.  1.
         -6    1    1    2    0  502 -0.27118754343E+02  0.69961374078E+02  0.10711149539E+03  0.21686837747E+03  0.17300000000E+03 0.  1.
</event>
<event>
 4    1  0.6123996E+000  0.1000000E+03  0.7546771E-02  0.1280296E+00
         21   -1    0    0  503  502  0.00000000000E+00  0.00000000000E+00  0.78854953079E+03  0.78854953079E+03  0.00000000000E+00 0.  1.
         21   -1    0    0  501  503 -0.00000000000E+00 -0.00000000000E+00 -0.55390862880E+02  0.55390862880E+02  0.00000000000E+00 0. -1.
          6    1    1    2  501    0 -0.46103692627E+01  0.71299084074E+02  0.55430397363E+03  0.58505274128E+03  0.17300000000E+03 0. -1.
         -6    1    1    2    0  502  0.46103692627E+01 -0.71299084074E+02  0.17885469428E+03  0.25888765239E+03  0.17300000000E+03 0.  1.
</event>
<event>
 4    1  0.6123996E+000  0.1000000E+03  0.7546771E-02  0.1280296E+00
         21   -1    0    0  503  502  0.00000000000E+00  0.00000000000E+00  0.11724706083E+03  0.11724706083E+03  0.00000000000E+00 0. -1.
         21   -1    0    0  501  503 -0.00000000000E+00 -0.00000000000E+00 -0.30516081285E+03  0.30516081285E+03  0.00000000000E+00 0. -1.
          6    1    1    2  501    0 -0.42223751878E+02  0.52798790569E+02 -0.13389911402E+03  0.22897277184E+03  0.17300000000E+03 0. -1.
         -6    1    1    2    0  502  0.42223751878E+02 -0.52798790569E+02 -0.54014637997E+02  0.19343510185E+03  0.17300000000E+03 0. -1.
</event>
<event>
 4    1  0.6123996E+000  0.1000000E+03  0.7546771E-02  0.1280296E+00
         21   -1    0    0  501  502  0.00000000000E+00  0.00000000000E+00  0.15224663398E+03  0.15224663398E+03  0.00000000000E+00 0.  1.
         21   -1    0    0  502  503 -0.00000000000E+00 -0.00000000000E+00 -0.13876961149E+04  0.13876961149E+04  0.00000000000E+00 0.  1.
          6    1    1    2  501    0 -0.79154217413E+02 -0.33230723081E+02  0.80982040802E+02  0.20942006118E+03  0.17300000000E+03 0.  1.
         -6    1    1    2    0  503  0.79154217413E+02  0.33230723081E+02 -0.13164315217E+04  0.13305226877E+04  0.17300000000E+03 0.  1.
</event>
<event>
 4    1  0.6123996E+000  0.1000000E+03  0.7546771E-02  0.1280296E+00
         21   -1    0    0  501  502  0.00000000000E+00  0.00000000000E+00  0.18954637826E+03  0.18954637826E+03  0.00000000000E+00 0.  1.
         21   -1    0    0  502  503 -0.00000000000E+00 -0.00000000000E+00 -0.39182684399E+03  0.39182684399E+03  0.00000000000E+00 0.  1.
          6    1    1    2  501    0  0.16011556755E+02  0.12664927102E+03  0.77483760067E+02  0.22853695735E+03  0.17300000000E+03 0.  1.
         -6    1    1    2    0  503 -0.16011556755E+02 -0.12664927102E+03 -0.27976422580E+03  0.35283626491E+03  0.17300000000E+03 0.  1.
</event>
<event>
 4    1  0.6123996E+000  0.1000000E+03  0.7546771E-02  0.1280296E+00
         21   -1    0    0  503  502  0.00000000000E+00  0.00000000000E+00  0.27404454938E+03  0.27404454938E+03  0.00000000000E+00 0.  1.
         21   -1    0    0  501  503 -0.00000000000E+00 -0.00000000000E+00 -0.14655311106E+03  0.14655311106E+03  0.00000000000E+00 0. -1.
          6    1    1    2  501    0  0.80789159481E+02 -0.58293640788E+02  0.45328017391E+02  0.20471606192E+03  0.17300000000E+03 0.  1.
         -6    1    1    2    0  502 -0.80789159481E+02  0.58293640788E+02  0.82163420927E+02  0.21588159853E+03  0.17300000000E+03 0. -1.
</event>
<event>
 4    1  0.6123996E+000  0.1000000E+03  0.7546771E-02  0.1280296E+00
         21   -1    0    0  503  502  0.00000000000E+00  0.00000000000E+00  0.33096629142E+03  0.33096629142E+03  0.00000000000E+00 0.  1.
         21   -1    0    0  501  503 -0.00000000000E+00 -0.00000000000E+00 -0.30954616087E+03  0.30954616087E+03  0.00000000000E+00 0. -1.
          6    1    1    2  501    0  0.11710438856E+03  0.15501024780E+03 -0.17588486901E+03  0.31401608540E+03  0.17300000000E+03 0.  1.
         -6    1    1    2    0  502 -0.11710438856E+03 -0.15501024780E+03  0.19730499955E+03  0.32649636689E+03  0.17300000000E+03 0. -1.
</event>
<event>
 4    1  0.6123996E+000  0.1000000E+03  0.7546771E-02  0.1280296E+00
         21   -1    0    0  503  502  0.00000000000E+00  0.00000000000E+00  0.78851743620E+03  0.78851743620E+03  0.00000000000E+00 0.  1.
         21   -1    0    0  501  503 -0.00000000000E+00 -0.00000000000E+00 -0.57579625091E+02  0.57579625091E+02  0.00000000000E+00 0. -1.
          6    1    1    2  501    0 -0.23105387662E+02  0.32713226815E+02  0.13164930975E+03  0.22105328522E+03  0.17300000000E+03 0.  1.
         -6    1    1    2    0  502  0.23105387662E+02 -0.32713226815E+02  0.59928850135E+03  0.62504377607E+03  0.17300000000E+03 0. -1.
</event>
<event>
 4    1  0.6123996E+000  0.1000000E+03  0.7546771E-02  0.1280296E+00
         21   -1    0    0  501  502  0.00000000000E+00  0.00000000000E+00  0.10982439260E+03  0.10982439260E+03  0.00000000000E+00 0. -1.
         21   -1    0    0  502  503 -0.00000000000E+00 -0.00000000000E+00 -0.88885417596E+03  0.88885417596E+03  0.00000000000E+00 0.  1.
          6    1    1    2  501    0 -0.73096266181E+02  0.10120430333E+03 -0.24706770206E+02  0.21476684948E+03  0.17300000000E+03 0. -1.
         -6    1    1    2    0  503  0.73096266181E+02 -0.10120430333E+03 -0.75432301315E+03  0.78391171908E+03  0.17300000000E+03 0.  1.
</event>
<event>
 4    1  0.6123996E+000  0.1000000E+03  0.7546771E-02  0.1280296E+00
         21   -1    0    0  503  502  0.00000000000E+00  0.00000000000E+00  0.59239184808E+03  0.59239184808E+03  0.00000000000E+00 0.  1.
         21   -1    0    0  501  503 -0.00000000000E+00 -0.00000000000E+00 -0.60131148119E+02  0.60131148119E+02  0.00000000000E+00 0. -1.
          6    1    1    2  501    0  0.34342207687E+02  0.19488736698E+02  0.15499698937E+03  0.23561040894E+03  0.17300000000E+03 0. -1.
         -6    1    1    2    0  502 -0.34342207687E+02 -0.19488736698E+02  0.37726371059E+03  0.41691258726E+03  0.17300000000E+03 0.  1.
</event>
<event>
 4    1  0.6123996E+000  0.1000000E+03  0.7546771E-02  0.1280296E+00
         21   -1    0    0  501  502  0.00000000000E+00  0.00000000000E+00  0.10572847039E+03  0.10572847039E+03  0.00000000000E+00 0. -1.
         21   -1    0    0  502  503 -0.00000000000E+00 -0.00000000000E+00 -0.96901046884E+03  0.96901046884E+03  0.00000000000E+00 0. -1.
          6    1    1    2  501    0 -0.10461213719E+03  0.81404371626E+02 -0.38084584327E+02  0.22124603167E+03  0.17300000000E+03 0. -1.
         -6    1    1    2    0  503  0.10461213719E+03 -0.81404371626E+02 -0.82519741413E+03  0.85349290755E+03  0.17300000000E+03 0. -1.
</event>
<event>
 4    1  0.6123996E+000  0.1000000E+03  0.7546771E-02  0.1280296E+00
         21   -1    0    0  501  502  0.00000000000E+00  0.00000000000E+00  0.12841419047E+03  0.12841419047E+03  0.00000000000E+00 0. -1.
         21   -1    0    0  502  503 -0.00000000000E+00 -0.00000000000E+00 -0.42772257145E+03  0.42772257145E+03  0.00000000000E+00 0. -1.
          6    1    1    2  501    0  0.60736454155E+02  0.41370346706E+02  0.16438387722E+02  0.18867867670E+03  0.17300000000E+03 0. -1.
         -6    1    1    2    0  503 -0.60736454155E+02 -0.41370346706E+02 -0.31574676870E+03  0.36745808522E+03  0.17300000000E+03 0. -1.
</event>
<event>
 4    1  0.6123996E+000  0.1000000E+03  0.7546771E-02  0.1280296E+00
         21   -1    0    0  501  502  0.00000000000E+00  0.00000000000E+00  0.13924594904E+03  0.13924594904E+03  0.00000000000E+00 0.  1.
         21   -1    0    0  502  503 -0.00000000000E+00 -0.00000000000E+00 -0.56854377362E+03  0.56854377362E+03  0.00000000000E+00 0. -1.
          6    1    1    2  501    0 -0.85501017398E+02  0.11818109551E+03 -0.43296296051E+01  0.22632927563E+03  0.17300000000E+03 0. -1.
         -6    1    1    2    0  503  0.85501017398E+02 -0.11818109551E+03 -0.42496819497E+03  0.48146044703E+03  0.17300000000E+03 0. -1.
</event>
<event>
 4    1  0.6123996E+000  0.1000000E+03  0.7546771E-02  0.1280296E+00
         21   -1    0    0  503  502  0.00000000000E+00  0.00000000000E+00  0.97123819347E+02  0.97123819347E+02  0.00000000000E+00 0.  1.
         21   -1    0    0  501  503 -0.00000000000E+00 -0.00000000000E+00 -0.57438472304E+03  0.57438472304E+03  0.00000000000E+00 0. -1.
          6    1    1    2  501    0  0.38490240654E+02  0.87375983207E+02 -0.42256055652E+03  0.46647881516E+03  0.17300000000E+03 0.  1.
         -6    1    1    2    0  502 -0.38490240654E+02 -0.87375983207E+02 -0.54700347176E+02  0.20502972723E+03  0.17300000000E+03 0. -1.
</event>
<event>
 4    1  0.6123996E+000  0.1000000E+03  0.7546771E-02  0.1280296E+00
         21   -1    0    0  503  502  0.00000000000E+00  0.00000000000E+00  0.45687282722E+02  0.45687282722E+02  0.00000000000E+00 0. -1.
         21   -1    0    0  501  503 -0.00000000000E+00 -0.00000000000E+00 -0.82245953272E+03  0.82245953272E+03  0.00000000000E+00 0. -1.
          6    1    1    2  501    0 -0.44112527666E+02  0.73375023325E+02 -0.42826366112E+03  0.46975373610E+03  0.17300000000E+03 0. -1.
         -6    1    1    2    0  502  0.44112527666E+02 -0.73375023325E+02 -0.34850858888E+03  0.39839307934E+03  0.17300000000E+03 0. -1.
</event>
<event>
 4    1  0.6123996E+000  0.1000000E+03  0.7546771E-02  0.1280296E+00
         21   -1    0    0  503  502  0.00000000000E+00  0.00000000000E+00  0.65551614515E+03  0.65551614515E+03  0.00000000000E+00 0. -1.
         21   -1    0    0  501  503 -0.00000000000E+00 -0.00000000000E+00 -0.10442543685E+04  0.10442543685E+04  0.00000000000E+00 0. -1.
          6    1    1    2  501    0 -0.21021075490E+03  0.18046594888E+03 -0.97522210417E+03  0.10284666609E+04  0.17300000000E+03 0. -1.
         -6    1    1    2    0  502  0.21021075490E+03 -0.18046594888E+03  0.58648388084E+03  0.67130385271E+03  0.17300000000E+03 0. -1.
</event>
<event>
 4    1  0.6123996E+000  0.1000000E+03  0.7546771E-02  0.1280296E+00
         21   -1    0    0  503  502  0.00000000000E+00  0.00000000000E+00  0.48167485853E+03  0.48167485853E+03  0.00000000000E+00 0. -1.
         21   -1    0    0  501  503 -0.00000000000E+00 -0.00000000000E+00 -0.64760733128E+02  0.64760733128E+02  0.00000000000E+00 0. -1.
          6    1    1    2  501    0  0.24159031796E+02 -0.16187090289E+02  0.17679420634E+03  0.24905997692E+03  0.17300000000E+03 0. -1.
         -6    1    1    2    0  502 -0.24159031796E+02  0.16187090289E+02  0.24011991906E+03  0.29737561474E+03  0.17300000000E+03 0. -1.
</event>
<event>
 4    1  0.6123996E+000  0.1000000E+03  0.7546771E-02  0.1280296E+00
         21   -1    0    0  501  502  0.00000000000E+00  0.00000000000E+00  0.64867747821E+02  0.64867747821E+02  0.00000000000E+00 0. -1.
         21   -1    0    0  502  503 -0.00000000000E+00 -0.00000000000E+00 -0.67819924776E+03  0.67819924776E+03  0.00000000000E+00 0.  1.
          6    1    1    2  501    0 -0.37215427649E+02  0.70693948588E+02 -0.15141569656E+03  0.24338926761E+03  0.17300000000E+03 0. -1.
         -6    1    1    2    0  503  0.37215427649E+02 -0.70693948588E+02 -0.46191580337E+03  0.49967772797E+03  0.17300000000E+03 0.  1.
</event>
<event>
 4    1  0.6123996E+000  0.1000000E+03  0.7546771E-02  0.1280296E+00
         21   -1    0    0  501  502  0.00000000000E+00  0.00000000000E+00  0.15035808504E+04  0.15035808504E+04  0.00000000000E+00 0. -1.
         21   -1    0    0  502  503 -0.00000000000E+00 -0.00000000000E+00 -0.26558078207E+02  0.26558078207E+02  0.00000000000E+00 0.  1.
          6    1    1    2  501    0  0.39867060036E+02  0.60430416156E+02  0.47431075239E+03  0.51004010383E+03  0.17300000000E+03 0. -1.
         -6    1    1    2    0  503 -0.39867060036E+02 -0.60430416156E+02  0.10027120198E+04  0.10200988248E+04  0.17300000000E+03 0.  1.
</event>
<event>
 4    1  0.6123996E+000  0.1000000E+03  0.7546771E-02  0.1280296E+00
         21   -1    0    0  503  502  0.00000000000E+00  0.00000000000E+00  0.89014742579E+03  0.89014742579E+03  0.00000000000E+00 0. -1.
         21   -1    0    0  501  503 -0.00000000000E+00 -0.00000000000E+00 -0.12196631398E+03  0.12196631398E+03  0.00000000000E+00 0. -1.
          6    1    1    2  501    0 -0.76391861664E+02 -0.93206452416E+02 -0.48032960098E+01  0.21089151465E+03  0.17300000000E+03 0.  1.
         -6    1    1    2    0  502  0.76391861664E+02  0.93206452416E+02  0.77298440782E+03  0.80122222512E+03  0.17300000000E+03 0.  1.
</event>
<event>
 4    1  0.6123996E+000  0.1000000E+03  0.7546771E-02  0.1280296E+00
         21   -1    0    0  503  502  0.00000000000E+00  0.00000000000E+00  0.49402952414E+03  0.49402952414E+03  0.00000000000E+00 0. -1.
         21   -1    0    0  501  503 -0.00000000000E+00 -0.00000000000E+00 -0.19510209476E+03  0.19510209476E+03  0.00000000000E+00 0. -1.
          6    1    1    2  501    0  0.83049055017E+02 -0.90307533813E+02 -0.10216821614E+03  0.23541440184E+03  0.17300000000E+03 0.  1.
         -6    1    1    2    0  502 -0.83049055017E+02  0.90307533813E+02  0.40109564552E+03  0.45371721706E+03  0.17300000000E+03 0.  1.
</event>
<event>
 4    1  0.6123996E+000  0.1000000E+03  0.7546771E-02  0.1280296E+00
         21   -1    0    0  501  502  0.00000000000E+00  0.00000000000E+00  0.25950896605E+03  0.25950896605E+03  0.00000000000E+00 0.  1.
         21   -1    0    0  502  503 -0.00000000000E+00 -0.00000000000E+00 -0.16772999539E+03  0.16772999539E+03  0.00000000000E+00 0.  1.
          6    1    1    2  501    0 -0.94917252232E+02  0.44211062784E+02  0.98444150871E+02  0.22490921209E+03  0.17300000000E+03 0.  1.
         -6    1    1    2    0  503  0.94917252232E+02 -0.44211062784E+02 -0.66651802151E+01  0.20232974935E+03  0.17300000000E+03 0.  1.
</event>
<event>
 4    1  0.6123996E+000  0.1000000E+03  0.7546771E-02  0.1280296E+00
         21   -1    0    0  501  502  0.00000000000E+00  0.00000000000E+00  0.55678917666E+02  0.55678917666E+02  0.00000000000E+00 0.  1.
         21   -1    0    0  502  503 -0.00000000000E+00 -0.00000000000E+00 -0.62360181015E+03  0.62360181015E+03  0.00000000000E+00 0.  1.
          6    1    1    2  501    0 -0.45950567464E+02  0.28554097468E+02 -0.20523165222E+03  0.27381713278E+03  0.17300000000E+03 0.  1.
         -6    1    1    2    0  503  0.45950567464E+02 -0.28554097468E+02 -0.36269124027E+03  0.40546359504E+03  0.17300000000E+03 0.  1.
</event>
<event>
 4    1  0.6123996E+000  0.1000000E+03  0.7546771E-02  0.1280296E+00
         21   -1    0    0  501  502  0.00000000000E+00  0.00000000000E+00  0.78388276111E+03  0.78388276111E+03  0.00000000000E+00 0.  1.
         21   -1    0    0  502  503 -0.00000000000E+00 -0.00000000000E+00 -0.64527963495E+02  0.64527963495E+02  0.00000000000E+00 0.  1.
          6    1    1    2  501    0 -0.54671345643E+02  0.84249126621E+02  0.55356137853E+03  0.58859669653E+03  0.17300000000E+03 0.  1.
         -6    1    1    2    0  503  0.54671345643E+02 -0.84249126621E+02  0.16579341909E+03  0.25981402807E+03  0.17300000000E+03 0.  1.
</event>
<event>
 4    1  0.6123996E+000  0.1000000E+03  0.7546771E-02  0.1280296E+00
         21   -1    0    0  503  502  0.00000000000E+00  0.00000000000E+00  0.26688055204E+03  0.26688055204E+03  0.00000000000E+00 0. -1.
         21   -1    0    0  501  503 -0.00000000000E+00 -0.00000000000E+00 -0.41827311152E+03  0.41827311152E+03  0.00000000000E+00 0.  1.
          6    1    1    2  501    0  0.19236757554E+03 -0.32935935436E+02 -0.28981867434E+03  0.38988963048E+03  0.17300000000E+03 0. -1.
         -6    1    1    2    0  502 -0.19236757554E+03  0.32935935436E+02  0.13842611486E+03  0.29526403309E+03  0.17300000000E+03 0.  1.
</event>
<event>
 4    1  0.6123996E+000  0.1000000E+03  0.7546771E-02  0.1280296E+00
         21   -1    0    0  503  502  0.00000000000E+00  0.00000000000E+00  0.53298914922E+03  0.53298914922E+03  0.00000000000E+00 0. -1.
         21   -1    0    0  501  503 -0.00000000000E+00 -0.00000000000E+00 -0.17037098063E+03  0.17037098063E+03  0.00000000000E+00 0.  1.
          6    1    1    2  501    0  0.74923969268E+02 -0.19274247938E+03  0.24239036553E+02  0.27070241118E+03  0.17300000000E+03 0. -1.
         -6    1    1    2    0  502 -0.74923969268E+02  0.19274247938E+03  0.33837913204E+03  0.43265771867E+03  0.17300000000E+03 0.  1.
</event>
<event>
 4    1  0.6123996E+000  0.1000000E+03  0.7546771E-02  0.1280296E+00
         21   -1    0    0  503  502  0.00000000000E+00  0.00000000000E+00  0.56185790359E+03  0.56185790359E+03  0.00000000000E+00 0. -1.
         21   -1    0    0  501  503 -0.00000000000E+00 -0.00000000000E+00 -0.79126587005E+02  0.79126587005E+02  0.00000000000E+00 0.  1.
          6    1    1    2  501    0 -0.47056317397E+02  0.10936806120E+03  0.21279824518E+03  0.29897786368E+03  0.17300000000E+03 0. -1.
         -6    1    1    2    0  502  0.47056317397E+02 -0.10936806120E+03  0.26993307141E+03  0.34200662692E+03  0.17300000000E+03 0.  1.
</event>
<event>
 4    1  0.6123996E+000  0.1000000E+03  0.7546771E-02  0.1280296E+00
         21   -1    0    0  503  502  0.00000000000E+00  0.00000000000E+00  0.15157615530E+03  0.15157615530E+03  0.00000000000E+00 0. -1.
         21   -1    0    0  501  503 -0.00000000000E+00 -0.00000000000E+00 -0.39878325631E+03  0.39878325631E+03  0.00000000000E+00 0.  1.
          6    1    1    2  501    0 -0.92034106720E+02 -0.36351937747E+02 -0.28473593584E+03  0.34755617292E+03  0.17300000000E+03 0. -1.
         -6    1    1    2    0  502  0.92034106720E+02  0.36351937747E+02  0.37528834826E+02  0.20280323868E+03  0.17300000000E+03 0.  1.
</event>
<event>
 4    1  0.6123996E+000  0.1000000E+03  0.7546771E-02  0.1280296E+00
         21   -1    0    0  503  502  0.00000000000E+00  0.00000000000E+00  0.28592090452E+02  0.28592090452E+02  0.00000000000E+00 0.  1.
         21   -1    0    0  501  503 -0.00000000000E+00 -0.00000000000E+00 -0.17764203634E+04  0.17764203634E+04  0.00000000000E+00 0. -1.
          6    1    1    2  501    0 -0.95069606574E+02  0.27362209139E+02 -0.12953573015E+04  0.13105977488E+04  0.17300000000E+03 0.  1.
         -6    1    1    2    0  502  0.95069606574E+02 -0.27362209139E+02 -0.45247097151E+03  0.49441470512E+03  0.17300000000E+03 0. -1.
</event>
<event>
 4    1  0.6123996E+000  0.1000000E+03  0.7546771E-02  0.1280296E+00
         21   -1    0    0  503  502  0.00000000000E+00  0.00000000000E+00  0.51210290763E+02  0.51210290763E+02  0.00000000000E+00 0.  1.
         21   -1    0    0  501  503 -0.00000000000E+00 -0.00000000000E+00 -0.11535058132E+04  0.11535058132E+04  0.00000000000E+00 0. -1.
          6    1    1    2  501    0 -0.75150300668E+02 -0.36338954698E+00 -0.93103164106E+03  0.94994558602E+03  0.17300000000E+03 0.  1.
         -6    1    1    2    0  502  0.75150300668E+02  0.36338954698E+00 -0.17126388134E+03  0.25477051790E+03  0.17300000000E+03 0. -1.
</event>
<event>
 4    1  0.6123996E+000  0.1000000E+03  0.7546771E-02  0.1280296E+00
         21   -1    0    0  503  502  0.00000000000E+00  0.00000000000E+00  0.11023509313E+03  0.11023509313E+03  0.00000000000E+00 0.  1.
         21   -1    0    0  501  503 -0.00000000000E+00 -0.00000000000E+00 -0.48334688612E+03  0.48334688612E+03  0.00000000000E+00 0. -1.
          6    1    1    2  501    0 -0.93782292830E+02 -0.11125357008E+03 -0.24659314835E+03  0.33452900639E+03  0.17300000000E+03 0.  1.
         -6    1    1    2    0  502  0.93782292830E+02  0.11125357008E+03 -0.12651864465E+03  0.25905297286E+03  0.17300000000E+03 0. -1.
</event>
<event>
 4    1  0.6123996E+000  0.1000000E+03  0.7546771E-02  0.1280296E+00
         21   -1    0    0  503  502  0.00000000000E+00  0.00000000000E+00  0.14022774888E+04  0.14022774888E+04  0.00000000000E+00 0. -1.
         21   -1    0    0  501  503 -0.00000000000E+00 -0.00000000000E+00 -0.35263287265E+02  0.35263287265E+02  0.00000000000E+00 0. -1.
          6    1    1    2  501    0  0.83873681540E+02 -0.30139960269E+02  0.33572739968E+03  0.38805295844E+03  0.17300000000E+03 0.  1.
         -6    1    1    2    0  502 -0.83873681540E+02  0.30139960269E+02  0.10312868019E+04  0.10494878177E+04  0.17300000000E+03 0.  1.
</event>
<event>
 4    1  0.6123996E+000  0.1000000E+03  0.7546771E-02  0.1280296E+00
         21   -1    0    0  503  502  0.00000000000E+00  0.00000000000E+00  0.49079482596E+03  0.49079482596E+03  0.00000000000E+00 0. -1.
         21   -1    0    0  501  503 -0.00000000000E+00 -0.00000000000E+00 -0.59439169417E+03  0.59439169417E+03  0.00000000000E+00 0. -1.
          6    1    1    2  501    0 -0.25289579963E+03  0.12351786699E+03 -0.48105556593E+03  0.58357210904E+03  0.17300000000E+03 0.  1.
         -6    1    1    2    0  502  0.25289579963E+03 -0.12351786699E+03  0.37745869771E+03  0.50161441110E+03  0.17300000000E+03 0.  1.
</event>
<event>
 4    1  0.6123996E+000  0.1000000E+03  0.7546771E-02  0.1280296E+00
         21   -1    0    0  503  502  0.00000000000E+00  0.00000000000E+00  0.65050214166E+03  0.65050214166E+03  0.00000000000E+00 0. -1.
         21   -1    0    0  501  503 -0.00000000000E+00 -0.00000000000E+00 -0.26361344557E+03  0.26361344557E+03  0.00000000000E+00 0. -1.
          6    1    1    2  501    0 -0.14458371330E+03 -0.91466503163E+02 -0.17639843975E+03  0.30052617340E+03  0.17300000000E+03 0.  1.
         -6    1    1    2    0  502  0.14458371330E+03  0.91466503163E+02  0.56328713585E+03  0.61358941383E+03  0.17300000000E+03 0.  1.
</event>
<event>
 4    1  0.6123996E+000  0.1000000E+03  0.7546771E-02  0.1280296E+00
         21   -1    0    0  501  502  0.00000000000E+00  0.00000000000E+00  0.89864475815E+03  0.89864475815E+03  0.00000000000E+00 0. -1.
         21   -1    0    0  502  503 -0.00000000000E+00 -0.00000000000E+00 -0.38690757834E+02  0.38690757834E+02  0.00000000000E+00 0. -1.
          6    1    1    2  501    0 -0.56634949378E+02 -0.31089558749E+02  0.49484933113E+03  0.52818456875E+03  0.17300000000E+03 0. -1.
         -6    1    1    2    0  503  0.56634949378E+02  0.31089558749E+02  0.36510466919E+03  0.40915094723E+03  0.17300000000E+03 0. -1.
</event>
<event>
 4    1  0.6123996E+000  0.1000000E+03  0.7546771E-02  0.1280296E+00
         21   -1    0    0  501  502  0.00000000000E+00  0.00000000000E+00  0.67011315212E+02  0.67011315212E+02  0.00000000000E+00 0. -1.
         21   -1    0    0  502  503 -0.00000000000E+00 -0.00000000000E+00 -0.18190590729E+04  0.18190590729E+04  0.00000000000E+00 0. -1.
          6    1    1    2  501    0  0.51525915914E+02 -0.80262255934E+02 -0.98465031224E+02  0.22072904683E+03  0.17300000000E+03 0. -1.
         -6    1    1    2    0  503 -0.51525915914E+02  0.80262255934E+02 -0.16535827265E+04  0.16653413413E+04  0.17300000000E+03 0. -1.
</event>
<event>
 4    1  0.6123996E+000  0.1000000E+03  0.7546771E-02  0.1280296E+00
         21   -1    0    0  503  502  0.00000000000E+00  0.00000000000E+00  0.71192582171E+03  0.71192582171E+03  0.00000000000E+00 0.  1.
         21   -1    0    0  501  503 -0.00000000000E+00 -0.00000000000E+00 -0.15902129686E+03  0.15902129686E+03  0.00000000000E+00 0. -1.
          6    1    1    2  501    0 -0.16047868874E+03  0.23366014659E+03  0.20637277926E+03  0.39098490720E+03  0.17300000000E+03 0. -1.
         -6    1    1    2    0  502  0.16047868874E+03 -0.23366014659E+03  0.34653174559E+03  0.47996221137E+03  0.17300000000E+03 0.  1.
</event>
<event>
 4    1  0.6123996E+000  0.1000000E+03  0.7546771E-02  0.1280296E+00
         21   -1    0    0  501  502  0.00000000000E+00  0.00000000000E+00  0.13438359268E+03  0.13438359268E+03  0.00000000000E+00 0. -1.
         21   -1    0    0  502  503 -0.00000000000E+00 -0.00000000000E+00 -0.43698865247E+03  0.43698865247E+03  0.00000000000E+00 0. -1.
          6    1    1    2  501    0  0.18002009714E+02 -0.18708269522E+02  0.46392876875E+02  0.18098444885E+03  0.17300000000E+03 0. -1.
         -6    1    1    2    0  503 -0.18002009714E+02  0.18708269522E+02 -0.34899793666E+03  0.39038779629E+03  0.17300000000E+03 0. -1.
</event>
<event>
 4    1  0.6123996E+000  0.1000000E+03  0.7546771E-02  0.1280296E+00
         21   -1    0    0  501  502  0.00000000000E+00  0.00000000000E+00  0.15623468175E+03  0.15623468175E+03  0.00000000000E+00 0.  1.
         21   -1    0    0  502  503 -0.00000000000E+00 -0.00000000000E+00 -0.96978204440E+03  0.96978204440E+03  0.00000000000E+00 0.  1.
          6    1    1    2  501    0  0.77658177669E+02 -0.80000739534E+02  0.71094639020E+02  0.21774838365E+03  0.17300000000E+03 0.  1.
         -6    1    1    2    0  503 -0.77658177669E+02  0.80000739534E+02 -0.88464200167E+03  0.90826834251E+03  0.17300000000E+03 0.  1.
</event>
<event>
 4    1  0.6123996E+000  0.1000000E+03  0.7546771E-02  0.1280296E+00
         21   -1    0    0  503  502  0.00000000000E+00  0.00000000000E+00  0.57135960863E+03  0.57135960863E+03  0.00000000000E+00 0. -1.
         21   -1    0    0  501  503 -0.00000000000E+00 -0.00000000000E+00 -0.17246842354E+03  0.17246842354E+03  0.00000000000E+00 0. -1.
          6    1    1    2  501    0 -0.10075675270E+03  0.17840242587E+03  0.60955886867E+01  0.26822659259E+03  0.17300000000E+03 0. -1.
         -6    1    1    2    0  502  0.10075675270E+03 -0.17840242587E+03  0.39279559641E+03  0.47560143958E+03  0.17300000000E+03 0. -1.
</event>
<event>
 4    1  0.6123996E+000  0.1000000E+03  0.7546771E-02  0.1280296E+00
         21   -1    0    0  503  502  0.00000000000E+00  0.00000000000E+00  0.12877342596E+03  0.12877342596E+03  0.00000000000E+00 0. -1.
         21   -1    0    0  501  503 -0.00000000000E+00 -0.00000000000E+00 -0.31652129103E+03  0.31652129103E+03  0.00000000000E+00 0. -1.
          6    1    1    2  501    0  0.17870402550E+02  0.49925477965E+02  0.48796699431E+01  0.18101026439E+03  0.17300000000E+03 0. -1.
         -6    1    1    2    0  502 -0.17870402550E+02 -0.49925477965E+02 -0.19262753501E+03  0.26428445259E+03  0.17300000000E+03 0. -1.
</event>
<event>
 4    1  0.6123996E+000  0.1000000E+03  0.7546771E-02  0.1280296E+00
         21   -1    0    0  503  502  0.00000000000E+00  0.00000000000E+00  0.51852880325E+03  0.51852880325E+03  0.00000000000E+00 0.  1.
         21   -1    0    0  501  503 -0.00000000000E+00 -0.00000000000E+00 -0.11707776629E+03  0.11707776629E+03  0.00000000000E+00 0. -1.
          6    1    1    2  501    0  0.13477505742E+03 -0.20712015512E+02  0.58340807536E+02  0.22787266952E+03  0.17300000000E+03 0. -1.
         -6    1    1    2    0  502 -0.13477505742E+03  0.20712015512E+02  0.34311022943E+03  0.40773390002E+03  0.17300000000E+03 0.  1.
</event>
<event>
 4    1  0.6123996E+000  0.1000000E+03  0.7546771E-02  0.1280296E+00
         21   -1    0    0  503  502  0.00000000000E+00  0.00000000000E+00  0.74792629832E+02  0.74792629832E+02  0.00000000000E+00 0.  1.
         21   -1    0    0  501  503 -0.00000000000E+00 -0.00000000000E+00 -0.61291628900E+03  0.61291628900E+03  0.00000000000E+00 0. -1.
          6    1    1    2  501    0 -0.69194242630E+02 -0.97233100324E+02 -0.20342188715E+03  0.29249202243E+03  0.17300000000E+03 0. -1.
         -6    1    1    2    0  502  0.69194242630E+02  0.97233100324E+02 -0.33470177202E+03  0.39521689640E+03  0.17300000000E+03 0.  1.
</event>
<event>
 4    1  0.6123996E+000  0.1000000E+03  0.7546771E-02  0.1280296E+00
         21   -1    0    0  503  502  0.00000000000E+00  0.00000000000E+00  0.20529200113E+04  0.20529200113E+04  0.00000000000E+00 0.  1.
         21   -1    0    0  501  503 -0.00000000000E+00 -0.00000000000E+00 -0.71433393330E+02  0.71433393330E+02  0.00000000000E+00 0.  1.
          6    1    1    2  501    0 -0.10922557511E+03  0.10301196688E+03  0.13954442315E+03  0.26822255239E+03  0.17300000000E+03 0.  1.
         -6    1    1    2    0  502  0.10922557511E+03 -0.10301196688E+03  0.18419421948E+04  0.18561308522E+04  0.17300000000E+03 0.  1.
</event>
<event>
 4    1  0.6123996E+000  0.1000000E+03  0.7546771E-02  0.1280296E+00
         21   -1    0    0  503  502  0.00000000000E+00  0.00000000000E+00  0.26092654815E+03  0.26092654815E+03  0.00000000000E+00 0.  1.
         21   -1    0    0  501  503 -0.00000000000E+00 -0.00000000000E+00 -0.35287375627E+03  0.35287375627E+03  0.00000000000E+00 0.  1.
          6    1    1    2  501    0  0.17914800730E+03 -0.14058029377E+03 -0.14856245740E+03  0.32226794949E+03  0.17300000000E+03 0.  1.
         -6    1    1    2    0  502 -0.17914800730E+03  0.14058029377E+03  0.56615249280E+02  0.29153235493E+03  0.17300000000E+03 0.  1.
</event>
<event>
 4    1  0.6123996E+000  0.1000000E+03  0.7546771E-02  0.1280296E+00
         21   -1    0    0  503  502  0.00000000000E+00  0.00000000000E+00  0.43059527767E+02  0.43059527767E+02  0.00000000000E+00 0.  1.
         21   -1    0    0  501  503 -0.00000000000E+00 -0.00000000000E+00 -0.11352771209E+04  0.11352771209E+04  0.00000000000E+00 0.  1.
          6    1    1    2  501    0 -0.99893207073E+02  0.40977290733E+02 -0.77374796126E+03  0.80017041855E+03  0.17300000000E+03 0.  1.
         -6    1    1    2    0  502  0.99893207073E+02 -0.40977290733E+02 -0.31846963189E+03  0.37816623013E+03  0.17300000000E+03 0.  1.
</event>
<event>
 4    1  0.6123996E+000  0.1000000E+03  0.7546771E-02  0.1280296E+00
         21   -1    0    0  503  502  0.00000000000E+00  0.00000000000E+00  0.23221005764E+04  0.23221005764E+04  0.00000000000E+00 0. -1.
         21   -1    0    0  501  503 -0.00000000000E+00 -0.00000000000E+00 -0.30416406420E+02  0.30416406420E+02  0.00000000000E+00 0.  1.
          6    1    1    2  501    0  0.15516714904E+03 -0.14607430952E+02  0.57885612304E+03  0.62393399680E+03  0.17300000000E+03 0.  1.
         -6    1    1    2    0  502 -0.15516714904E+03  0.14607430952E+02  0.17128280469E+04  0.17285829860E+04  0.17300000000E+03 0. -1.
</event>
<event>
 4    1  0.6123996E+000  0.1000000E+03  0.7546771E-02  0.1280296E+00
         21   -1    0    0  503  502  0.00000000000E+00  0.00000000000E+00  0.31993410031E+02  0.31993410031E+02  0.00000000000E+00 0. -1.
         21   -1    0    0  501  503 -0.00000000000E+00 -0.00000000000E+00 -0.96693526312E+03  0.96693526312E+03  0.00000000000E+00 0. -1.
          6    1    1    2  501    0  0.11389742724E+02  0.10607124056E+02 -0.54597873489E+03  0.57294329237E+03  0.17300000000E+03 0. -1.
         -6    1    1    2    0  502 -0.11389742724E+02 -0.10607124056E+02 -0.38896311820E+03  0.42598538078E+03  0.17300000000E+03 0. -1.
</event>
<event>
 4    1  0.6123996E+000  0.1000000E+03  0.7546771E-02  0.1280296E+00
         21   -1    0    0  503  502  0.00000000000E+00  0.00000000000E+00  0.85455131927E+03  0.85455131927E+03  0.00000000000E+00 0. -1.
         21   -1    0    0  501  503 -0.00000000000E+00 -0.00000000000E+00 -0.75802866458E+02  0.75802866458E+02  0.00000000000E+00 0. -1.
          6    1    1    2  501    0 -0.15983101990E+03  0.72475693049E+02  0.27306317120E+03  0.36781948898E+03  0.17300000000E+03 0. -1.
         -6    1    1    2    0  502  0.15983101990E+03 -0.72475693049E+02  0.50568528161E+03  0.56253469675E+03  0.17300000000E+03 0. -1.
</event>
<event>
 4    1  0.6123996E+000  0.1000000E+03  0.7546771E-02  0.1280296E+00
         21   -1    0    0  503  502  0.00000000000E+00  0.00000000000E+00  0.72208876671E+03  0.72208876671E+03  0.00000000000E+00 0. -1.
         21   -1    0    0  501  503 -0.00000000000E+00 -0.00000000000E+00 -0.15020598809E+03  0.15020598809E+03  0.00000000000E+00 0. -1.
          6    1    1    2  501    0 -0.30818192621E+02  0.88632503180E+02 -0.63759412953E+02  0.20688099081E+03  0.17300000000E+03 0. -1.
         -6    1    1    2    0  502  0.30818192621E+02 -0.88632503180E+02  0.63564219157E+03  0.66541376400E+03  0.17300000000E+03 0. -1.
</event>
<event>
 4    1  0.6123996E+000  0.1000000E+03  0.7546771E-02  0.1280296E+00
         21   -1    0    0  503  502  0.00000000000E+00  0.00000000000E+00  0.11084314963E+03  0.11084314963E+03  0.00000000000E+00 0. -1.
         21   -1    0    0  501  503 -0.00000000000E+00 -0.00000000000E+00 -0.39361284188E+03  0.39361284188E+03  0.00000000000E+00 0. -1.
          6    1    1    2  501    0  0.76577986064E+02  0.66817476127E+02 -0.71268809028E+02  0.21292488395E+03  0.17300000000E+03 0. -1.
         -6    1    1    2    0  502 -0.76577986064E+02 -0.66817476127E+02 -0.21150088323E+03  0.29153110755E+03  0.17300000000E+03 0. -1.
</event>
<event>
 4    1  0.6123996E+000  0.1000000E+03  0.7546771E-02  0.1280296E+00
         21   -1    0    0  501  502  0.00000000000E+00  0.00000000000E+00  0.82893517999E+03  0.82893517999E+03  0.00000000000E+00 0. -1.
         21   -1    0    0  502  503 -0.00000000000E+00 -0.00000000000E+00 -0.43875646908E+02  0.43875646908E+02  0.00000000000E+00 0. -1.
          6    1    1    2  501    0 -0.50186658296E+02 -0.17838844060E+02  0.25515118175E+03  0.31283869737E+03  0.17300000000E+03 0. -1.
         -6    1    1    2    0  503  0.50186658296E+02  0.17838844060E+02  0.52990835133E+03  0.55997212952E+03  0.17300000000E+03 0. -1.
</event>
<event>
 4    1  0.6123996E+000  0.1000000E+03  0.7546771E-02  0.1280296E+00
         21   -1    0    0  501  502  0.00000000000E+00  0.00000000000E+00  0.13785178104E+03  0.13785178104E+03  0.00000000000E+00 0. -1.
         21   -1    0    0  502  503 -0.00000000000E+00 -0.00000000000E+00 -0.11816069769E+04  0.11816069769E+04  0.00000000000E+00 0. -1.
          6    1    1    2  501    0  0.12720011091E+03  0.27546310525E+03 -0.19130011145E+03  0.39822672338E+03  0.17300000000E+03 0. -1.
         -6    1    1    2    0  503 -0.12720011091E+03 -0.27546310525E+03 -0.85245508439E+03  0.92123203454E+03  0.17300000000E+03 0. -1.
</event>
<event>
 4    1  0.6123996E+000  0.1000000E+03  0.7546771E-02  0.1280296E+00
         21   -1    0    0  501  502  0.00000000000E+00  0.00000000000E+00  0.71739538932E+03  0.71739538932E+03  0.00000000000E+00 0. -1.
         21   -1    0    0  502  503 -0.00000000000E+00 -0.00000000000E+00 -0.10079396802E+03  0.10079396802E+03  0.00000000000E+00 0. -1.
          6    1    1    2  501    0  0.65615377612E+02 -0.14684985862E+03  0.50377924962E+03  0.55641063173E+03  0.17300000000E+03 0. -1.
         -6    1    1    2    0  503 -0.65615377612E+02  0.14684985862E+03  0.11282217168E+03  0.26177872560E+03  0.17300000000E+03 0. -1.
</event>
<event>
 4    1  0.6123996E+000  0.1000000E+03  0.7546771E-02  0.1280296E+00
         21   -1    0    0  501  502  0.00000000000E+00  0.00000000000E+00  0.12147354155E+03  0.12147354155E+03  0.00000000000E+00 0.  1.
         21   -1    0    0  502  503 -0.00000000000E+00 -0.00000000000E+00 -0.12219170323E+04  0.12219170323E+04  0.00000000000E+00 0. -1.
          6    1    1    2  501    0 -0.96131901893E+02 -0.22337023384E+03 -0.12542670679E+03  0.32372281770E+03  0.17300000000E+03 0.  1.
         -6    1    1    2    0  503  0.96131901893E+02  0.22337023384E+03 -0.97501678396E+03  0.10196677562E+04  0.17300000000E+03 0. -1.
</event>
<event>
 4    1  0.6123996E+000  0.1000000E+03  0.7546771E-02  0.1280296E+00
         21   -1    0    0  501  502  0.00000000000E+00  0.00000000000E+00  0.28880874544E+03  0.28880874544E+03  0.00000000000E+00 0.  1.
         21   -1    0    0  502  503 -0.00000000000E+00 -0.00000000000E+00 -0.17009814715E+03  0.17009814715E+03  0.00000000000E+00 0. -1.
          6    1    1    2  501    0  0.20742165825E+02  0.35028994807E+02  0.19645895242E+03  0.26491958762E+03  0.17300000000E+03 0.  1.
         -6    1    1    2    0  503 -0.20742165825E+02 -0.35028994807E+02 -0.77748354122E+02  0.19398730497E+03  0.17300000000E+03 0. -1.
</event>
<event>
 4    1  0.6123996E+000  0.1000000E+03  0.7546771E-02  0.1280296E+00
         21   -1    0    0  501  502  0.00000000000E+00  0.00000000000E+00  0.11505683496E+04  0.11505683496E+04  0.00000000000E+00 0.  1.
         21   -1    0    0  502  503 -0.00000000000E+00 -0.00000000000E+00 -0.30995581181E+02  0.30995581181E+02  0.00000000000E+00 0. -1.
          6    1    1    2  501    0  0.31983872901E+02 -0.67522286884E+02  0.59826780629E+03  0.62724444628E+03  0.17300000000E+03 0.  1.
         -6    1    1    2    0  503 -0.31983872901E+02  0.67522286884E+02  0.52130496214E+03  0.55431948451E+03  0.17300000000E+03 0.  1.
</event>
<event>
 4    1  0.6123996E+000  0.1000000E+03  0.7546771E-02  0.1280296E+00
         21   -1    0    0  501  502  0.00000000000E+00  0.00000000000E+00  0.99584291067E+03  0.99584291067E+03  0.00000000000E+00 0.  1.
         21   -1    0    0  502  503 -0.00000000000E+00 -0.00000000000E+00 -0.41377526888E+03  0.41377526888E+03  0.00000000000E+00 0. -1.
          6    1    1    2  501    0  0.22719953732E+03  0.54248448997E+03  0.49998784954E+03  0.79109158844E+03  0.17300000000E+03 0.  1.
         -6    1    1    2    0  503 -0.22719953732E+03 -0.54248448997E+03  0.82079792257E+02  0.61852659111E+03  0.17300000000E+03 0.  1.
</event>
<event>
 4    1  0.6123996E+000  0.1000000E+03  0.7546771E-02  0.1280296E+00
         21   -1    0    0  501  502  0.00000000000E+00  0.00000000000E+00  0.43588181192E+03  0.43588181192E+03  0.00000000000E+00 0. -1.
         21   -1    0    0  502  503 -0.00000000000E+00 -0.00000000000E+00 -0.10191647480E+03  0.10191647480E+03  0.00000000000E+00 0. -1.
          6    1    1    2  501    0  0.11700627993E+03 -0.27831654788E+02  0.16005715629E+03  0.26459849552E+03  0.17300000000E+03 0.  1.
         -6    1    1    2    0  503 -0.11700627993E+03  0.27831654788E+02  0.17390818083E+03  0.27319979120E+03  0.17300000000E+03 0.  1.
</event>
<event>
 4    1  0.6123996E+000  0.1000000E+03  0.7546771E-02  0.1280296E+00
         21   -1    0    0  503  502  0.00000000000E+00  0.00000000000E+00  0.33119870044E+03  0.33119870044E+03  0.00000000000E+00 0.  1.
         21   -1    0    0  501  503 -0.00000000000E+00 -0.00000000000E+00 -0.32962246308E+03  0.32962246308E+03  0.00000000000E+00 0.  1.
          6    1    1    2  501    0  0.10183936504E+03  0.14936093234E+03 -0.21499383595E+03  0.32989588339E+03  0.17300000000E+03 0.  1.
         -6    1    1    2    0  502 -0.10183936504E+03 -0.14936093234E+03  0.21657007331E+03  0.33092528014E+03  0.17300000000E+03 0.  1.
</event>
<event>
 4    1  0.6123996E+000  0.1000000E+03  0.7546771E-02  0.1280296E+00
         21   -1    0    0  501  502  0.00000000000E+00  0.00000000000E+00  0.92905609069E+02  0.92905609069E+02  0.00000000000E+00 0. -1.
         21   -1    0    0  502  503 -0.00000000000E+00 -0.00000000000E+00 -0.71760917077E+03  0.71760917077E+03  0.00000000000E+00 0.  1.
          6    1    1    2  501    0  0.75476796170E+02 -0.14386081480E+03 -0.47201289438E+03  0.52831605433E+03  0.17300000000E+03 0. -1.
         -6    1    1    2    0  503 -0.75476796170E+02  0.14386081480E+03 -0.15269066732E+03  0.28219872551E+03  0.17300000000E+03 0.  1.
</event>
<event>
 4    1  0.6123996E+000  0.1000000E+03  0.7546771E-02  0.1280296E+00
         21   -1    0    0  501  502  0.00000000000E+00  0.00000000000E+00  0.65209627412E+03  0.65209627412E+03  0.00000000000E+00 0. -1.
         21   -1    0    0  502  503 -0.00000000000E+00 -0.00000000000E+00 -0.58643279868E+02  0.58643279868E+02  0.00000000000E+00 0.  1.
          6    1    1    2  501    0 -0.65972612209E+02 -0.45025603791E+02  0.37661072991E+03  0.42207147788E+03  0.17300000000E+03 0. -1.
         -6    1    1    2    0  503  0.65972612209E+02  0.45025603791E+02  0.21684226435E+03  0.28866807611E+03  0.17300000000E+03 0.  1.
</event>
<event>
 4    1  0.6123996E+000  0.1000000E+03  0.7546771E-02  0.1280296E+00
         21   -1    0    0  501  502  0.00000000000E+00  0.00000000000E+00  0.74387231427E+03  0.74387231427E+03  0.00000000000E+00 0. -1.
         21   -1    0    0  502  503 -0.00000000000E+00 -0.00000000000E+00 -0.16366052480E+03  0.16366052480E+03  0.00000000000E+00 0.  1.
          6    1    1    2  501    0  0.12871500903E+02  0.24142485097E+03  0.52764579426E+03  0.60563249450E+03  0.17300000000E+03 0. -1.
         -6    1    1    2    0  503 -0.12871500903E+02 -0.24142485097E+03  0.52565995212E+02  0.30190034457E+03  0.17300000000E+03 0.  1.
</event>
<event>
 4    1  0.6123996E+000  0.1000000E+03  0.7546771E-02  0.1280296E+00
         21   -1    0    0  501  502  0.00000000000E+00  0.00000000000E+00  0.93435114333E+02  0.93435114333E+02  0.00000000000E+00 0.  1.
         21   -1    0    0  502  503 -0.00000000000E+00 -0.00000000000E+00 -0.71291490657E+03  0.71291490657E+03  0.00000000000E+00 0.  1.
          6    1    1    2  501    0 -0.14642213421E+01  0.12161343630E+03 -0.78615551468E+02  0.22561333464E+03  0.17300000000E+03 0.  1.
         -6    1    1    2    0  503  0.14642213421E+01 -0.12161343630E+03 -0.54086424077E+03  0.58073668626E+03  0.17300000000E+03 0.  1.
</event>
<event>
 4    1  0.6123996E+000  0.1000000E+03  0.7546771E-02  0.1280296E+00
         21   -1    0    0  501  502  0.00000000000E+00  0.00000000000E+00  0.36016431230E+03  0.36016431230E+03  0.00000000000E+00 0.  1.
         21   -1    0    0  502  503 -0.00000000000E+00 -0.00000000000E+00 -0.13065372863E+03  0.13065372863E+03  0.00000000000E+00 0.  1.
          6    1    1    2  501    0 -0.98396398156E+02 -0.65186846590E-01  0.21237544390E+03  0.29105701261E+03  0.17300000000E+03 0.  1.
         -6    1    1    2    0  503  0.98396398156E+02  0.65186846590E-01  0.17135139775E+02  0.19976102832E+03  0.17300000000E+03 0.  1.
</event>
<event>
 4    1  0.6123996E+000  0.1000000E+03  0.7546771E-02  0.1280296E+00
         21   -1    0    0  501  502  0.00000000000E+00  0.00000000000E+00  0.10735298513E+03  0.10735298513E+03  0.00000000000E+00 0.  1.
         21   -1    0    0  502  503 -0.00000000000E+00 -0.00000000000E+00 -0.49865901759E+03  0.49865901759E+03  0.00000000000E+00 0.  1.
          6    1    1    2  501    0 -0.10555043565E+03 -0.58494150391E+02 -0.32017680932E+03  0.38341185339E+03  0.17300000000E+03 0.  1.
         -6    1    1    2    0  503  0.10555043565E+03  0.58494150391E+02 -0.71129223142E+02  0.22260014933E+03  0.17300000000E+03 0.  1.
</event>
<event>
 4    1  0.6123996E+000  0.1000000E+03  0.7546771E-02  0.1280296E+00
         21   -1    0    0  501  502  0.00000000000E+00  0.00000000000E+00  0.41203916953E+03  0.41203916953E+03  0.00000000000E+00 0.  1.
         21   -1    0    0  502  503 -0.00000000000E+00 -0.00000000000E+00 -0.16614077457E+03  0.16614077457E+03  0.00000000000E+00 0.  1.
          6    1    1    2  501    0  0.17810801099E+03  0.39365317615E+02  0.42849815181E+02  0.25502391745E+03  0.17300000000E+03 0.  1.
         -6    1    1    2    0  503 -0.17810801099E+03 -0.39365317615E+02  0.20304857978E+03  0.32315602665E+03  0.17300000000E+03 0.  1.
</event>
<event>
 4    1  0.6123996E+000  0.1000000E+03  0.7546771E-02  0.1280296E+00
         21   -1    0    0  503  502  0.00000000000E+00  0.00000000000E+00  0.15248889148E+04  0.15248889148E+04  0.00000000000E+00 0. -1.
         21   -1    0    0  501  503 -0.00000000000E+00 -0.00000000000E+00 -0.39057077320E+02  0.39057077320E+02  0.00000000000E+00 0.  1.
          6    1    1    2  501    0 -0.45819542802E+02  0.93023960357E+02  0.30268995256E+03  0.36373492420E+03  0.17300000000E+03 0.  1.
         -6    1    1    2    0  502  0.45819542802E+02 -0.93023960357E+02  0.11831418849E+04  0.12002110679E+04  0.17300000000E+03 0. -1.
</event>
<event>
 4    1  0.6123996E+000  0.1000000E+03  0.7546771E-02  0.1280296E+00
         21   -1    0    0  503  502  0.00000000000E+00  0.00000000000E+00  0.22652913046E+03  0.22652913046E+03  0.00000000000E+00 0.  1.
         21   -1    0    0  501  503 -0.00000000000E+00 -0.00000000000E+00 -0.14664992123E+03  0.14664992123E+03  0.00000000000E+00 0. -1.
          6    1    1    2  501    0 -0.47923272982E+01 -0.13435455459E+02 -0.16948707768E+02  0.17441254702E+03  0.17300000000E+03 0.  1.
         -6    1    1    2    0  502  0.47923272982E+01  0.13435455459E+02  0.96827916999E+02  0.19876650466E+03  0.17300000000E+03 0.  1.
</event>
<event>
 4    1  0.6123996E+000  0.1000000E+03  0.7546771E-02  0.1280296E+00
         21   -1    0    0  501  502  0.00000000000E+00  0.00000000000E+00  0.97388062332E+02  0.97388062332E+02  0.00000000000E+00 0. -1.
         21   -1    0    0  502  503 -0.00000000000E+00 -0.00000000000E+00 -0.11149257258E+04  0.11149257258E+04  0.00000000000E+00 0. -1.
          6    1    1    2  501    0 -0.95107356239E+02  0.13321974352E+03 -0.89860122557E+02  0.25455205932E+03  0.17300000000E+03 0. -1.
         -6    1    1    2    0  503  0.95107356239E+02 -0.13321974352E+03 -0.92767754089E+03  0.95776172880E+03  0.17300000000E+03 0. -1.
</event>
<event>
 4    1  0.6123996E+000  0.1000000E+03  0.7546771E-02  0.1280296E+00
         21   -1    0    0  501  502  0.00000000000E+00  0.00000000000E+00  0.87061594163E+02  0.87061594163E+02  0.00000000000E+00 0. -1.
         21   -1    0    0  502  503 -0.00000000000E+00 -0.00000000000E+00 -0.85044398302E+03  0.85044398302E+03  0.00000000000E+00 0. -1.
          6    1    1    2  501    0  0.16516486884E+03 -0.11764351516E+03 -0.28745223865E+03  0.39201686196E+03  0.17300000000E+03 0. -1.
         -6    1    1    2    0  503 -0.16516486884E+03  0.11764351516E+03 -0.47593015021E+03  0.54548871522E+03  0.17300000000E+03 0. -1.
</event>
<event>
 4    1  0.6123996E+000  0.1000000E+03  0.7546771E-02  0.1280296E+00
         21   -1    0    0  501  502  0.00000000000E+00  0.00000000000E+00  0.12708808266E+04  0.12708808266E+04  0.00000000000E+00 0. -1.
         21   -1    0    0  502  503 -0.00000000000E+00 -0.00000000000E+00 -0.46108463652E+02  0.46108463652E+02  0.00000000000E+00 0.  1.
          6    1    1    2  501    0 -0.10661753975E+03 -0.71725954171E+02  0.91232367380E+03  0.93743020970E+03  0.17300000000E+03 0.  1.
         -6    1    1    2    0  503  0.10661753975E+03  0.71725954171E+02  0.31244868919E+03  0.37955908059E+03  0.17300000000E+03 0. -1.
</event>
<event>
 4    1  0.6123996E+000  0.1000000E+03  0.7546771E-02  0.1280296E+00
         21   -1    0    0  501  502  0.00000000000E+00  0.00000000000E+00  0.45140391981E+02  0.45140391981E+02  0.00000000000E+00 0. -1.
         21   -1    0    0  502  503 -0.00000000000E+00 -0.00000000000E+00 -0.75656950114E+03  0.75656950114E+03  0.00000000000E+00 0.  1.
          6    1    1    2  501    0  0.67428804277E+01  0.52474217811E+02 -0.27386622336E+03  0.32822357969E+03  0.17300000000E+03 0.  1.
         -6    1    1    2    0  503 -0.67428804277E+01 -0.52474217811E+02 -0.43756288580E+03  0.47348631343E+03  0.17300000000E+03 0. -1.
</event>
<event>
 4    1  0.6123996E+000  0.1000000E+03  0.7546771E-02  0.1280296E+00
         21   -1    0    0  501  502  0.00000000000E+00  0.00000000000E+00  0.28560464890E+03  0.28560464890E+03  0.00000000000E+00 0. -1.
         21   -1    0    0  502  503 -0.00000000000E+00 -0.00000000000E+00 -0.21070468674E+03  0.21070468674E+03  0.00000000000E+00 0. -1.
          6    1    1    2  501    0  0.10638052883E+03  0.38887747138E+02  0.17096460535E+03  0.26830387637E+03  0.17300000000E+03 0.  1.
         -6    1    1    2    0  503 -0.10638052883E+03 -0.38887747138E+02 -0.96064643187E+02  0.22800545928E+03  0.17300000000E+03 0.  1.
</event>
<event>
 4    1  0.6123996E+000  0.1000000E+03  0.7546771E-02  0.1280296E+00
         21   -1    0    0  501  502  0.00000000000E+00  0.00000000000E+00  0.70769489883E+03  0.70769489883E+03  0.00000000000E+00 0. -1.
         21   -1    0    0  502  503 -0.00000000000E+00 -0.00000000000E+00 -0.25995649142E+03  0.25995649142E+03  0.00000000000E+00 0. -1.
          6    1    1    2  501    0  0.16374258606E+02 -0.33081023863E+03  0.46138934447E+03  0.59372776381E+03  0.17300000000E+03 0.  1.
         -6    1    1    2    0  503 -0.16374258606E+02  0.33081023863E+03 -0.13650937052E+02  0.37392362644E+03  0.17300000000E+03 0.  1.
</event>
<event>
 4    1  0.6123996E+000  0.1000000E+03  0.7546771E-02  0.1280296E+00
         21   -1    0    0  501  502  0.00000000000E+00  0.00000000000E+00  0.11081426218E+04  0.11081426218E+04  0.00000000000E+00 0. -1.
         21   -1    0    0  502  503 -0.00000000000E+00 -0.00000000000E+00 -0.29465794898E+02  0.29465794898E+02  0.00000000000E+00 0. -1.
          6    1    1    2  501    0 -0.25504963766E+02 -0.14178306208E+02  0.67552451535E+03  0.69793545431E+03  0.17300000000E+03 0.  1.
         -6    1    1    2    0  503  0.25504963766E+02  0.14178306208E+02  0.40315231152E+03  0.43967296236E+03  0.17300000000E+03 0.  1.
</event>
<event>
 4    1  0.6123996E+000  0.1000000E+03  0.7546771E-02  0.1280296E+00
         21   -1    0    0  501  502  0.00000000000E+00  0.00000000000E+00  0.14775731496E+04  0.14775731496E+04  0.00000000000E+00 0. -1.
         21   -1    0    0  502  503 -0.00000000000E+00 -0.00000000000E+00 -0.98867471189E+02  0.98867471189E+02  0.00000000000E+00 0. -1.
          6    1    1    2  501    0 -0.48422235861E+02 -0.60209199630E+02  0.13739069292E+04  0.13869099144E+04  0.17300000000E+03 0.  1.
         -6    1    1    2    0  503  0.48422235861E+02  0.60209199630E+02  0.47987491766E+01  0.18953070632E+03  0.17300000000E+03 0.  1.
</event>
<event>
 4    1  0.6123996E+000  0.1000000E+03  0.7546771E-02  0.1280296E+00
         21   -1    0    0  503  502  0.00000000000E+00  0.00000000000E+00  0.12271493452E+03  0.12271493452E+03  0.00000000000E+00 0. -1.
         21   -1    0    0  501  503 -0.00000000000E+00 -0.00000000000E+00 -0.74295420952E+03  0.74295420952E+03  0.00000000000E+00 0.  1.
          6    1    1    2  501    0  0.15894295337E+03 -0.63256805548E+02 -0.56646167706E+03  0.61649989250E+03  0.17300000000E+03 0. -1.
         -6    1    1    2    0  502 -0.15894295337E+03  0.63256805548E+02 -0.53777597938E+02  0.24916925154E+03  0.17300000000E+03 0.  1.
</event>
<event>
 4    1  0.6123996E+000  0.1000000E+03  0.7546771E-02  0.1280296E+00
         21   -1    0    0  503  502  0.00000000000E+00  0.00000000000E+00  0.25421532709E+04  0.25421532709E+04  0.00000000000E+00 0. -1.
         21   -1    0    0  501  503 -0.00000000000E+00 -0.00000000000E+00 -0.27806531960E+02  0.27806531960E+02  0.00000000000E+00 0.  1.
          6    1    1    2  501    0  0.99244662083E+01  0.62124202890E+02  0.33001240643E+03  0.37788238912E+03  0.17300000000E+03 0. -1.
         -6    1    1    2    0  502 -0.99244662083E+01 -0.62124202890E+02  0.21843343325E+04  0.21920774137E+04  0.17300000000E+03 0.  1.
</event>
<event>
 4    1  0.6123996E+000  0.1000000E+03  0.7546771E-02  0.1280296E+00
         21   -1    0    0  503  502  0.00000000000E+00  0.00000000000E+00  0.59930160419E+03  0.59930160419E+03  0.00000000000E+00 0. -1.
         21   -1    0    0  501  503 -0.00000000000E+00 -0.00000000000E+00 -0.76961686435E+02  0.76961686435E+02  0.00000000000E+00 0.  1.
          6    1    1    2  501    0  0.92782363191E+02  0.81161558129E+02  0.31092065111E+03  0.37655864978E+03  0.17300000000E+03 0. -1.
         -6    1    1    2    0  502 -0.92782363191E+02 -0.81161558129E+02  0.21141926665E+03  0.29970464085E+03  0.17300000000E+03 0.  1.
</event>
<event>
 4    1  0.6123996E+000  0.1000000E+03  0.7546771E-02  0.1280296E+00
         21   -1    0    0  503  502  0.00000000000E+00  0.00000000000E+00  0.97880997738E+03  0.97880997738E+03  0.00000000000E+00 0. -1.
         21   -1    0    0  501  503 -0.00000000000E+00 -0.00000000000E+00 -0.84974324194E+02  0.84974324194E+02  0.00000000000E+00 0.  1.
          6    1    1    2  501    0 -0.15347933668E+03 -0.37423268737E+01  0.12921252536E+03  0.26494299105E+03  0.17300000000E+03 0. -1.
         -6    1    1    2    0  502  0.15347933668E+03  0.37423268737E+01  0.76462312782E+03  0.79884131052E+03  0.17300000000E+03 0.  1.
</event>
<event>
 4    1  0.6123996E+000  0.1000000E+03  0.7546771E-02  0.1280296E+00
         21   -1    0    0  501  502  0.00000000000E+00  0.00000000000E+00  0.21495596369E+03  0.21495596369E+03  0.00000000000E+00 0. -1.
         21   -1    0    0  502  503 -0.00000000000E+00 -0.00000000000E+00 -0.23554028955E+03  0.23554028955E+03  0.00000000000E+00 0. -1.
          6    1    1    2  501    0 -0.14172317980E+03 -0.14659124163E+02  0.97647610483E+01  0.22433167447E+03  0.17300000000E+03 0. -1.
         -6    1    1    2    0  503  0.14172317980E+03  0.14659124163E+02 -0.30349086913E+02  0.22616457877E+03  0.17300000000E+03 0. -1.
</event>
<event>
 4    1  0.6123996E+000  0.1000000E+03  0.7546771E-02  0.1280296E+00
         21   -1    0    0  501  502  0.00000000000E+00  0.00000000000E+00  0.33495145309E+03  0.33495145309E+03  0.00000000000E+00 0. -1.
         21   -1    0    0  502  503 -0.00000000000E+00 -0.00000000000E+00 -0.14542957692E+03  0.14542957692E+03  0.00000000000E+00 0. -1.
          6    1    1    2  501    0 -0.16174067952E+02  0.23366751883E+02  0.24066787138E+03  0.29775431128E+03  0.17300000000E+03 0. -1.
         -6    1    1    2    0  503  0.16174067952E+02 -0.23366751883E+02 -0.51145995209E+02  0.18262671873E+03  0.17300000000E+03 0. -1.
</event>
<event>
 4    1  0.6123996E+000  0.1000000E+03  0.7546771E-02  0.1280296E+00
         21   -1    0    0  501  502  0.00000000000E+00  0.00000000000E+00  0.11647507360E+04  0.11647507360E+04  0.00000000000E+00 0. -1.
         21   -1    0    0  502  503 -0.00000000000E+00 -0.00000000000E+00 -0.32462823783E+02  0.32462823783E+02  0.00000000000E+00 0. -1.
          6    1    1    2  501    0 -0.82186430347E+02 -0.32373342297E+02  0.53870337290E+03  0.57265431684E+03  0.17300000000E+03 0. -1.
         -6    1    1    2    0  503  0.82186430347E+02  0.32373342297E+02  0.59358453930E+03  0.62455924292E+03  0.17300000000E+03 0. -1.
</event>
<event>
 4    1  0.6123996E+000  0.1000000E+03  0.7546771E-02  0.1280296E+00
         21   -1    0    0  501  502  0.00000000000E+00  0.00000000000E+00  0.98473951878E+03  0.98473951878E+03  0.00000000000E+00 0. -1.
         21   -1    0    0  502  503 -0.00000000000E+00 -0.00000000000E+00 -0.17371448017E+03  0.17371448017E+03  0.00000000000E+00 0. -1.
          6    1    1    2  501    0  0.59294137527E+02 -0.96626569501E+02  0.90710729751E+03  0.93038977739E+03  0.17300000000E+03 0. -1.
         -6    1    1    2    0  503 -0.59294137527E+02  0.96626569501E+02 -0.96082258905E+02  0.22806422156E+03  0.17300000000E+03 0. -1.
</event>
<event>
 4    1  0.6123996E+000  0.1000000E+03  0.7546771E-02  0.1280296E+00
         21   -1    0    0  501  502  0.00000000000E+00  0.00000000000E+00  0.17840982693E+03  0.17840982693E+03  0.00000000000E+00 0. -1.
         21   -1    0    0  502  503 -0.00000000000E+00 -0.00000000000E+00 -0.80705301329E+03  0.80705301329E+03  0.00000000000E+00 0. -1.
          6    1    1    2  501    0 -0.70736448774E+02  0.68837759230E+02  0.10507319103E+03  0.22519249045E+03  0.17300000000E+03 0. -1.
         -6    1    1    2    0  503  0.70736448774E+02 -0.68837759230E+02 -0.73371637739E+03  0.76027034977E+03  0.17300000000E+03 0. -1.
</event>
<event>
 4    1  0.6123996E+000  0.1000000E+03  0.7546771E-02  0.1280296E+00
         21   -1    0    0  501  502  0.00000000000E+00  0.00000000000E+00  0.10146624146E+03  0.10146624146E+03  0.00000000000E+00 0. -1.
         21   -1    0    0  502  503 -0.00000000000E+00 -0.00000000000E+00 -0.31879377531E+03  0.31879377531E+03  0.00000000000E+00 0. -1.
          6    1    1    2  501    0  0.35117743229E+02  0.49912429384E+01 -0.14845006701E+03  0.23070455303E+03  0.17300000000E+03 0. -1.
         -6    1    1    2    0  503 -0.35117743229E+02 -0.49912429384E+01 -0.68877466839E+02  0.18955546374E+03  0.17300000000E+03 0. -1.
</event>
<event>
 4    1  0.6123996E+000  0.1000000E+03  0.7546771E-02  0.1280296E+00
         21   -1    0    0  501  502  0.00000000000E+00  0.00000000000E+00  0.16999956076E+03  0.16999956076E+03  0.00000000000E+00 0. -1.
         21   -1    0    0  502  503 -0.00000000000E+00 -0.00000000000E+00 -0.21336225220E+03  0.21336225220E+03  0.00000000000E+00 0. -1.
          6    1    1    2  501    0  0.67467346752E+02  0.31085303675E+02 -0.50578297165E+02  0.19494948865E+03  0.17300000000E+03 0. -1.
         -6    1    1    2    0  503 -0.67467346752E+02 -0.31085303675E+02  0.72156057246E+01  0.18841232430E+03  0.17300000000E+03 0. -1.
</event>
<event>
 4    1  0.6123996E+000  0.1000000E+03  0.7546771E-02  0.1280296E+00
         21   -1    0    0  501  502  0.00000000000E+00  0.00000000000E+00  0.12165318661E+03  0.12165318661E+03  0.00000000000E+00 0. -1.
         21   -1    0    0  502  503 -0.00000000000E+00 -0.00000000000E+00 -0.70393958140E+03  0.70393958140E+03  0.00000000000E+00 0. -1.
          6    1    1    2  501    0 -0.15822014495E+03 -0.12773188361E+03 -0.12211461476E+03  0.29358138139E+03  0.17300000000E+03 0. -1.
         -6    1    1    2    0  503  0.15822014495E+03  0.12773188361E+03 -0.46017178003E+03  0.53201138662E+03  0.17300000000E+03 0. -1.
</event>
<event>
 4    1  0.6123996E+000  0.1000000E+03  0.7546771E-02  0.1280296E+00
         21   -1    0    0  503  502  0.00000000000E+00  0.00000000000E+00  0.25437496896E+03  0.25437496896E+03  0.00000000000E+00 0. -1.
         21   -1    0    0  501  503 -0.00000000000E+00 -0.00000000000E+00 -0.28303930069E+03  0.28303930069E+03  0.00000000000E+00 0.  1.
          6    1    1    2  501    0 -0.14694752212E+03 -0.85439448915E+01 -0.15737323907E+03  0.27633658757E+03  0.17300000000E+03 0.  1.
         -6    1    1    2    0  502  0.14694752212E+03  0.85439448915E+01  0.12870890734E+03  0.26107768208E+03  0.17300000000E+03 0. -1.
</event>
<event>
 4    1  0.6123996E+000  0.1000000E+03  0.7546771E-02  0.1280296E+00
         21   -1    0    0  501  502  0.00000000000E+00  0.00000000000E+00  0.48333794709E+03  0.48333794709E+03  0.00000000000E+00 0. -1.
         21   -1    0    0  502  503 -0.00000000000E+00 -0.00000000000E+00 -0.89518618524E+02  0.89518618524E+02  0.00000000000E+00 0.  1.
          6    1    1    2  501    0  0.11352655924E+03  0.21087991339E+02  0.19360421404E+03  0.28415589863E+03  0.17300000000E+03 0.  1.
         -6    1    1    2    0  503 -0.11352655924E+03 -0.21087991339E+02  0.20021511452E+03  0.28870066698E+03  0.17300000000E+03 0. -1.
</event>
<event>
 4    1  0.6123996E+000  0.1000000E+03  0.7546771E-02  0.1280296E+00
         21   -1    0    0  501  502  0.00000000000E+00  0.00000000000E+00  0.14790153395E+04  0.14790153395E+04  0.00000000000E+00 0. -1.
         21   -1    0    0  502  503 -0.00000000000E+00 -0.00000000000E+00 -0.91110589991E+02  0.91110589991E+02  0.00000000000E+00 0.  1.
          6    1    1    2  501    0  0.73274551300E+02  0.63596807238E+01  0.13682637014E+04  0.13811169980E+04  0.17300000000E+03 0.  1.
         -6    1    1    2    0  503 -0.73274551300E+02 -0.63596807238E+01  0.19641048016E+02  0.18900893147E+03  0.17300000000E+03 0. -1.
</event>
<event>
 4    1  0.6123996E+000  0.1000000E+03  0.7546771E-02  0.1280296E+00
         21   -1    0    0  503  502  0.00000000000E+00  0.00000000000E+00  0.23606221970E+02  0.23606221970E+02  0.00000000000E+00 0. -1.
         21   -1    0    0  501  503 -0.00000000000E+00 -0.00000000000E+00 -0.15303006373E+04  0.15303006373E+04  0.00000000000E+00 0. -1.
          6    1    1    2  501    0  0.12909939542E+02 -0.22554300719E+02 -0.10570668476E+04  0.10714451378E+04  0.17300000000E+03 0. -1.
         -6    1    1    2    0  502 -0.12909939542E+02  0.22554300719E+02 -0.44962756770E+03  0.48246172144E+03  0.17300000000E+03 0. -1.
</event>
<event>
 4    1  0.6123996E+000  0.1000000E+03  0.7546771E-02  0.1280296E+00
         21   -1    0    0  503  502  0.00000000000E+00  0.00000000000E+00  0.24567147919E+03  0.24567147919E+03  0.00000000000E+00 0. -1.
         21   -1    0    0  501  503 -0.00000000000E+00 -0.00000000000E+00 -0.12989901383E+04  0.12989901383E+04  0.00000000000E+00 0. -1.
          6    1    1    2  501    0 -0.74571547148E+02 -0.55074686522E+02 -0.12508754787E+04  0.12661803189E+04  0.17300000000E+03 0. -1.
         -6    1    1    2    0  502  0.74571547148E+02  0.55074686522E+02  0.19755681955E+03  0.27848129863E+03  0.17300000000E+03 0. -1.
</event>
<event>
 4    1  0.6123996E+000  0.1000000E+03  0.7546771E-02  0.1280296E+00
         21   -1    0    0  503  502  0.00000000000E+00  0.00000000000E+00  0.29476143349E+03  0.29476143349E+03  0.00000000000E+00 0. -1.
         21   -1    0    0  501  503 -0.00000000000E+00 -0.00000000000E+00 -0.43313443391E+03  0.43313443391E+03  0.00000000000E+00 0. -1.
          6    1    1    2  501    0  0.16390810850E+03  0.18021918904E+02 -0.33973567810E+03  0.41537933094E+03  0.17300000000E+03 0. -1.
         -6    1    1    2    0  502 -0.16390810850E+03 -0.18021918904E+02  0.20136267769E+03  0.31251653646E+03  0.17300000000E+03 0. -1.
</event>
<event>
 4    1  0.6123996E+000  0.1000000E+03  0.7546771E-02  0.1280296E+00
         21   -1    0    0  503  502  0.00000000000E+00  0.00000000000E+00  0.11894562123E+03  0.11894562123E+03  0.00000000000E+00 0. -1.
         21   -1    0    0  501  503 -0.00000000000E+00 -0.00000000000E+00 -0.12222360627E+04  0.12222360627E+04  0.00000000000E+00 0. -1.
          6    1    1    2  501    0 -0.19124344750E+02 -0.32554469997E+03 -0.71947096754E+03  0.80864860438E+03  0.17300000000E+03 0. -1.
         -6    1    1    2    0  502  0.19124344750E+02  0.32554469997E+03 -0.38381947393E+03  0.53253307954E+03  0.17300000000E+03 0. -1.
</event>
<event>
 4    1  0.6123996E+000  0.1000000E+03  0.7546771E-02  0.1280296E+00
         21   -1    0    0  503  502  0.00000000000E+00  0.00000000000E+00  0.61687312822E+03  0.61687312822E+03  0.00000000000E+00 0. -1.
         21   -1    0    0  501  503 -0.00000000000E+00 -0.00000000000E+00 -0.30259420002E+03  0.30259420002E+03  0.00000000000E+00 0.  1.
          6    1    1    2  501    0 -0.13092664593E+03 -0.82468666537E+02 -0.23061906541E+03  0.32719569206E+03  0.17300000000E+03 0.  1.
         -6    1    1    2    0  502  0.13092664593E+03  0.82468666537E+02  0.54489799361E+03  0.59227163618E+03  0.17300000000E+03 0. -1.
</event>
<event>
 4    1  0.6123996E+000  0.1000000E+03  0.7546771E-02  0.1280296E+00
         21   -1    0    0  503  502  0.00000000000E+00  0.00000000000E+00  0.39498546651E+03  0.39498546651E+03  0.00000000000E+00 0. -1.
         21   -1    0    0  501  503 -0.00000000000E+00 -0.00000000000E+00 -0.15283205425E+03  0.15283205425E+03  0.00000000000E+00 0.  1.
          6    1    1    2  501    0  0.14455034250E+03 -0.66424199056E+02  0.41224580221E+02  0.23861148705E+03  0.17300000000E+03 0.  1.
         -6    1    1    2    0  502 -0.14455034250E+03  0.66424199056E+02  0.20092883204E+03  0.30920603371E+03  0.17300000000E+03 0. -1.
</event>
<event>
 4    1  0.6123996E+000  0.1000000E+03  0.7546771E-02  0.1280296E+00
         21   -1    0    0  503  502  0.00000000000E+00  0.00000000000E+00  0.51821649429E+03  0.51821649429E+03  0.00000000000E+00 0. -1.
         21   -1    0    0  501  503 -0.00000000000E+00 -0.00000000000E+00 -0.94105525799E+02  0.94105525799E+02  0.00000000000E+00 0. -1.
          6    1    1    2  501    0 -0.33343359759E+02  0.17653714928E+01  0.27487218679E+02  0.17832398427E+03  0.17300000000E+03 0. -1.
         -6    1    1    2    0  502  0.33343359759E+02 -0.17653714928E+01  0.39662374981E+03  0.43399803581E+03  0.17300000000E+03 0. -1.
</event>
<event>
 4    1  0.6123996E+000  0.1000000E+03  0.7546771E-02  0.1280296E+00
         21   -1    0    0  503  502  0.00000000000E+00  0.00000000000E+00  0.17161666954E+03  0.17161666954E+03  0.00000000000E+00 0. -1.
         21   -1    0    0  501  503 -0.00000000000E+00 -0.00000000000E+00 -0.33468534749E+03  0.33468534749E+03  0.00000000000E+00 0. -1.
          6    1    1    2  501    0  0.67134685308E+02  0.45612041118E+02 -0.23431677285E+03  0.30235885022E+03  0.17300000000E+03 0. -1.
         -6    1    1    2    0  502 -0.67134685308E+02 -0.45612041118E+02  0.71248094893E+02  0.20394316682E+03  0.17300000000E+03 0. -1.
</event>
<event>
 4    1  0.6123996E+000  0.1000000E+03  0.7546771E-02  0.1280296E+00
         21   -1    0    0  503  502  0.00000000000E+00  0.00000000000E+00  0.14275828703E+03  0.14275828703E+03  0.00000000000E+00 0.  1.
         21   -1    0    0  501  503 -0.00000000000E+00 -0.00000000000E+00 -0.58585598781E+03  0.58585598781E+03  0.00000000000E+00 0.  1.
          6    1    1    2  501    0  0.51109589524E+02  0.97528617626E+02 -0.47842768247E+03  0.52052480128E+03  0.17300000000E+03 0. -1.
         -6    1    1    2    0  502 -0.51109589524E+02 -0.97528617626E+02  0.35329981690E+02  0.20808947355E+03  0.17300000000E+03 0. -1.
</event>
<event>
 4    1  0.6123996E+000  0.1000000E+03  0.7546771E-02  0.1280296E+00
         21   -1    0    0  503  502  0.00000000000E+00  0.00000000000E+00  0.23373835688E+02  0.23373835688E+02  0.00000000000E+00 0.  1.
         21   -1    0    0  501  503 -0.00000000000E+00 -0.00000000000E+00 -0.19731129630E+04  0.19731129630E+04  0.00000000000E+00 0.  1.
          6    1    1    2  501    0 -0.58705063374E+02 -0.10552163956E+03 -0.11613311317E+04  0.11803389761E+04  0.17300000000E+03 0. -1.
         -6    1    1    2    0  502  0.58705063374E+02  0.10552163956E+03 -0.78840799555E+03  0.81614782260E+03  0.17300000000E+03 0. -1.
</event>
<event>
 4    1  0.6123996E+000  0.1000000E+03  0.7546771E-02  0.1280296E+00
         21   -1    0    0  503  502  0.00000000000E+00  0.00000000000E+00  0.13892182696E+03  0.13892182696E+03  0.00000000000E+00 0.  1.
         21   -1    0    0  501  503 -0.00000000000E+00 -0.00000000000E+00 -0.42218044650E+03  0.42218044650E+03  0.00000000000E+00 0.  1.
          6    1    1    2  501    0 -0.42140991158E+02 -0.21993629128E+02 -0.33007444460E+03  0.37568300711E+03  0.17300000000E+03 0.  1.
         -6    1    1    2    0  502  0.42140991158E+02  0.21993629128E+02  0.46815825060E+02  0.18541926635E+03  0.17300000000E+03 0.  1.
</event>
<event>
 4    1  0.6123996E+000  0.1000000E+03  0.7546771E-02  0.1280296E+00
         21   -1    0    0  501  502  0.00000000000E+00  0.00000000000E+00  0.16375810006E+03  0.16375810006E+03  0.00000000000E+00 0.  1.
         21   -1    0    0  502  503 -0.00000000000E+00 -0.00000000000E+00 -0.26044000325E+03  0.26044000325E+03  0.00000000000E+00 0.  1.
          6    1    1    2  501    0  0.79777447251E+02  0.48499128477E+02  0.16643028394E+02  0.19728810645E+03  0.17300000000E+03 0.  1.
         -6    1    1    2    0  503 -0.79777447251E+02 -0.48499128477E+02 -0.11332493159E+03  0.22690999685E+03  0.17300000000E+03 0.  1.
</event>
<event>
 4    1  0.6123996E+000  0.1000000E+03  0.7546771E-02  0.1280296E+00
         21   -1    0    0  503  502  0.00000000000E+00  0.00000000000E+00  0.10295303444E+03  0.10295303444E+03  0.00000000000E+00 0.  1.
         21   -1    0    0  501  503 -0.00000000000E+00 -0.00000000000E+00 -0.39139491053E+03  0.39139491053E+03  0.00000000000E+00 0.  1.
          6    1    1    2  501    0  0.78294410580E+01  0.21902183006E+02 -0.26627387039E+03  0.31838935255E+03  0.17300000000E+03 0.  1.
         -6    1    1    2    0  502 -0.78294410580E+01 -0.21902183006E+02 -0.22168005700E+02  0.17595859241E+03  0.17300000000E+03 0.  1.
</event>
<event>
 4    1  0.6123996E+000  0.1000000E+03  0.7546771E-02  0.1280296E+00
         21   -1    0    0  503  502  0.00000000000E+00  0.00000000000E+00  0.88179487470E+03  0.88179487470E+03  0.00000000000E+00 0.  1.
         21   -1    0    0  501  503 -0.00000000000E+00 -0.00000000000E+00 -0.87967810744E+03  0.87967810744E+03  0.00000000000E+00 0.  1.
          6    1    1    2  501    0  0.63831979936E+03 -0.47439473136E+03 -0.33548920987E+03  0.88033206084E+03  0.17300000000E+03 0.  1.
         -6    1    1    2    0  502 -0.63831979936E+03  0.47439473136E+03  0.33760597713E+03  0.88114092130E+03  0.17300000000E+03 0.  1.
</event>
<event>
 4    1  0.6123996E+000  0.1000000E+03  0.7546771E-02  0.1280296E+00
         21   -1    0    0  503  502  0.00000000000E+00  0.00000000000E+00  0.24368580464E+04  0.24368580464E+04  0.00000000000E+00 0.  1.
         21   -1    0    0  501  503 -0.00000000000E+00 -0.00000000000E+00 -0.21409278658E+02  0.21409278658E+02  0.00000000000E+00 0.  1.
          6    1    1    2  501    0 -0.11673331437E+03 -0.50207396776E+02  0.78761042419E+03  0.81633732590E+03  0.17300000000E+03 0.  1.
         -6    1    1    2    0  502  0.11673331437E+03  0.50207396776E+02  0.16278383436E+04  0.16419299992E+04  0.17300000000E+03 0.  1.
</event>
<event>
 4    1  0.6123996E+000  0.1000000E+03  0.7546771E-02  0.1280296E+00
         21   -1    0    0  503  502  0.00000000000E+00  0.00000000000E+00  0.87518812902E+03  0.87518812902E+03  0.00000000000E+00 0.  1.
         21   -1    0    0  501  503 -0.00000000000E+00 -0.00000000000E+00 -0.59500372375E+02  0.59500372375E+02  0.00000000000E+00 0.  1.
          6    1    1    2  501    0  0.99616848794E+02  0.10756970690E+03  0.35561986259E+03  0.42176918460E+03  0.17300000000E+03 0.  1.
         -6    1    1    2    0  502 -0.99616848794E+02 -0.10756970690E+03  0.46006789406E+03  0.51291931680E+03  0.17300000000E+03 0.  1.
</event>
<event>
 4    1  0.6123996E+000  0.1000000E+03  0.7546771E-02  0.1280296E+00
         21   -1    0    0  503  502  0.00000000000E+00  0.00000000000E+00  0.62716169697E+03  0.62716169697E+03  0.00000000000E+00 0.  1.
         21   -1    0    0  501  503 -0.00000000000E+00 -0.00000000000E+00 -0.11887700454E+03  0.11887700454E+03  0.00000000000E+00 0.  1.
          6    1    1    2  501    0 -0.13699640986E+03  0.11743850999E+03  0.10407733582E+03  0.27077834436E+03  0.17300000000E+03 0.  1.
         -6    1    1    2    0  502  0.13699640986E+03 -0.11743850999E+03  0.40420735661E+03  0.47526035715E+03  0.17300000000E+03 0.  1.
</event>
<event>
 4    1  0.6123996E+000  0.1000000E+03  0.7546771E-02  0.1280296E+00
         21   -1    0    0  503  502  0.00000000000E+00  0.00000000000E+00  0.57858316371E+03  0.57858316371E+03  0.00000000000E+00 0.  1.
         21   -1    0    0  501  503 -0.00000000000E+00 -0.00000000000E+00 -0.70101225390E+02  0.70101225390E+02  0.00000000000E+00 0.  1.
          6    1    1    2  501    0  0.92999214421E+02 -0.42627281150E+02  0.27489355354E+03  0.34053106284E+03  0.17300000000E+03 0.  1.
         -6    1    1    2    0  502 -0.92999214421E+02  0.42627281150E+02  0.23358838479E+03  0.30815332626E+03  0.17300000000E+03 0.  1.
</event>
<event>
 4    1  0.6123996E+000  0.1000000E+03  0.7546771E-02  0.1280296E+00
         21   -1    0    0  503  502  0.00000000000E+00  0.00000000000E+00  0.58724335059E+03  0.58724335059E+03  0.00000000000E+00 0. -1.
         21   -1    0    0  501  503 -0.00000000000E+00 -0.00000000000E+00 -0.97812654201E+02  0.97812654201E+02  0.00000000000E+00 0. -1.
          6    1    1    2  501    0  0.34079428805E+02 -0.36510489119E+02  0.18666667226E+02  0.18103001892E+03  0.17300000000E+03 0. -1.
         -6    1    1    2    0  502 -0.34079428805E+02  0.36510489119E+02  0.47076402916E+03  0.50402598587E+03  0.17300000000E+03 0. -1.
</event>
<event>
 4    1  0.6123996E+000  0.1000000E+03  0.7546771E-02  0.1280296E+00
         21   -1    0    0  503  502  0.00000000000E+00  0.00000000000E+00  0.42802183974E+02  0.42802183974E+02  0.00000000000E+00 0. -1.
         21   -1    0    0  501  503 -0.00000000000E+00 -0.00000000000E+00 -0.98993131636E+03  0.98993131636E+03  0.00000000000E+00 0. -1.
          6    1    1    2  501    0 -0.99716377961E+02  0.18426889955E+02 -0.59013297714E+03  0.62327268271E+03  0.17300000000E+03 0. -1.
         -6    1    1    2    0  502  0.99716377961E+02 -0.18426889955E+02 -0.35699615525E+03  0.40946081762E+03  0.17300000000E+03 0. -1.
</event>
<event>
 4    1  0.6123996E+000  0.1000000E+03  0.7546771E-02  0.1280296E+00
         21   -1    0    0  503  502  0.00000000000E+00  0.00000000000E+00  0.36442079954E+02  0.36442079954E+02  0.00000000000E+00 0. -1.
         21   -1    0    0  501  503 -0.00000000000E+00 -0.00000000000E+00 -0.10060837009E+04  0.10060837009E+04  0.00000000000E+00 0. -1.
          6    1    1    2  501    0 -0.29821191895E+02  0.10364711893E+02 -0.69103588526E+03  0.71306123542E+03  0.17300000000E+03 0. -1.
         -6    1    1    2    0  502  0.29821191895E+02 -0.10364711893E+02 -0.27860573565E+03  0.32946454540E+03  0.17300000000E+03 0. -1.
</event>
<event>
 4    1  0.6123996E+000  0.1000000E+03  0.7546771E-02  0.1280296E+00
         21   -1    0    0  503  502  0.00000000000E+00  0.00000000000E+00  0.40951631324E+03  0.40951631324E+03  0.00000000000E+00 0. -1.
         21   -1    0    0  501  503 -0.00000000000E+00 -0.00000000000E+00 -0.28205350792E+03  0.28205350792E+03  0.00000000000E+00 0. -1.
          6    1    1    2  501    0 -0.15960653189E+03 -0.89519637311E+01 -0.18553306977E+03  0.29984313008E+03  0.17300000000E+03 0. -1.
         -6    1    1    2    0  502  0.15960653189E+03  0.89519637311E+01  0.31299587510E+03  0.39172669108E+03  0.17300000000E+03 0. -1.
</event>
<event>
 4    1  0.6123996E+000  0.1000000E+03  0.7546771E-02  0.1280296E+00
         21   -1    0    0  503  502  0.00000000000E+00  0.00000000000E+00  0.60557844564E+03  0.60557844564E+03  0.00000000000E+00 0. -1.
         21   -1    0    0  501  503 -0.00000000000E+00 -0.00000000000E+00 -0.41370482844E+03  0.41370482844E+03  0.00000000000E+00 0. -1.
          6    1    1    2  501    0 -0.38211056076E+03  0.22063971055E+02 -0.18124347927E+03  0.45746420433E+03  0.17300000000E+03 0. -1.
         -6    1    1    2    0  502  0.38211056076E+03 -0.22063971055E+02  0.37311709646E+03  0.56181906975E+03  0.17300000000E+03 0. -1.
</event>
<event>
 4    1  0.6123996E+000  0.1000000E+03  0.7546771E-02  0.1280296E+00
         21   -1    0    0  503  502  0.00000000000E+00  0.00000000000E+00  0.28009839566E+03  0.28009839566E+03  0.00000000000E+00 0. -1.
         21   -1    0    0  501  503 -0.00000000000E+00 -0.00000000000E+00 -0.58076341663E+03  0.58076341663E+03  0.00000000000E+00 0. -1.
          6    1    1    2  501    0  0.18696334315E+02 -0.94957053223E+02 -0.52518723167E+03  0.56135285087E+03  0.17300000000E+03 0. -1.
         -6    1    1    2    0  502 -0.18696334315E+02  0.94957053223E+02  0.22452221070E+03  0.29950896142E+03  0.17300000000E+03 0. -1.
</event>
<event>
 4    1  0.6123996E+000  0.1000000E+03  0.7546771E-02  0.1280296E+00
         21   -1    0    0  503  502  0.00000000000E+00  0.00000000000E+00  0.49901331718E+03  0.49901331718E+03  0.00000000000E+00 0. -1.
         21   -1    0    0  501  503 -0.00000000000E+00 -0.00000000000E+00 -0.87234065336E+02  0.87234065336E+02  0.00000000000E+00 0. -1.
          6    1    1    2  501    0 -0.11118249841E+03 -0.29941831806E+02  0.17983605254E+03  0.27482370174E+03  0.17300000000E+03 0. -1.
         -6    1    1    2    0  502  0.11118249841E+03  0.29941831806E+02  0.23194319930E+03  0.31142368077E+03  0.17300000000E+03 0. -1.
</event>
<event>
 4    1  0.6123996E+000  0.1000000E+03  0.7546771E-02  0.1280296E+00
         21   -1    0    0  501  502  0.00000000000E+00  0.00000000000E+00  0.50148671815E+03  0.50148671815E+03  0.00000000000E+00 0.  1.
         21   -1    0    0  502  503 -0.00000000000E+00 -0.00000000000E+00 -0.15395793515E+03  0.15395793515E+03  0.00000000000E+00 0. -1.
          6    1    1    2  501    0 -0.21463406280E+03  0.39283644269E+01  0.21454715981E+03  0.34934609880E+03  0.17300000000E+03 0.  1.
         -6    1    1    2    0  503  0.21463406280E+03 -0.39283644269E+01  0.13298162318E+03  0.30609855450E+03  0.17300000000E+03 0. -1.
</event>
<event>
 4    1  0.6123996E+000  0.1000000E+03  0.7546771E-02  0.1280296E+00
         21   -1    0    0  503  502  0.00000000000E+00  0.00000000000E+00  0.25671850098E+03  0.25671850098E+03  0.00000000000E+00 0.  1.
         21   -1    0    0  501  503 -0.00000000000E+00 -0.00000000000E+00 -0.43001018873E+03  0.43001018873E+03  0.00000000000E+00 0. -1.
          6    1    1    2  501    0 -0.35821899627E+01 -0.47977390214E+02 -0.37554476486E+03  0.41626617983E+03  0.17300000000E+03 0.  1.
         -6    1    1    2    0  502  0.35821899627E+01  0.47977390214E+02  0.20225307710E+03  0.27046250989E+03  0.17300000000E+03 0. -1.
</event>
<event>
 4    1  0.6123996E+000  0.1000000E+03  0.7546771E-02  0.1280296E+00
         21   -1    0    0  501  502  0.00000000000E+00  0.00000000000E+00  0.72586613007E+02  0.72586613007E+02  0.00000000000E+00 0.  1.
         21   -1    0    0  502  503 -0.00000000000E+00 -0.00000000000E+00 -0.54675579292E+03  0.54675579292E+03  0.00000000000E+00 0. -1.
          6    1    1    2  501    0  0.98135312089E+02  0.26562945413E+00 -0.21952958491E+03  0.29623107313E+03  0.17300000000E+03 0.  1.
         -6    1    1    2    0  503 -0.98135312089E+02 -0.26562945413E+00 -0.25463959501E+03  0.32311133280E+03  0.17300000000E+03 0. -1.
</event>
<event>
 4    1  0.6123996E+000  0.1000000E+03  0.7546771E-02  0.1280296E+00
         21   -1    0    0  501  502  0.00000000000E+00  0.00000000000E+00  0.12088866528E+03  0.12088866528E+03  0.00000000000E+00 0.  1.
         21   -1    0    0  502  503 -0.00000000000E+00 -0.00000000000E+00 -0.45290873350E+03  0.45290873350E+03  0.00000000000E+00 0. -1.
          6    1    1    2  501    0  0.77795083317E+02  0.78310971081E+02 -0.28172649734E+02  0.20714096981E+03  0.17300000000E+03 0.  1.
         -6    1    1    2    0  503 -0.77795083317E+02 -0.78310971081E+02 -0.30384741849E+03  0.36665642897E+03  0.17300000000E+03 0. -1.
</event>
<event>
 4    1  0.6123996E+000  0.1000000E+03  0.7546771E-02  0.1280296E+00
         21   -1    0    0  503  502  0.00000000000E+00  0.00000000000E+00  0.14061145478E+03  0.14061145478E+03  0.00000000000E+00 0. -1.
         21   -1    0    0  501  503 -0.00000000000E+00 -0.00000000000E+00 -0.45065828865E+03  0.45065828865E+03  0.00000000000E+00 0. -1.
          6    1    1    2  501    0  0.16411987024E+03  0.18525249707E+02 -0.24719967321E+03  0.34396975902E+03  0.17300000000E+03 0. -1.
         -6    1    1    2    0  502 -0.16411987024E+03 -0.18525249707E+02 -0.62847160658E+02  0.24729998441E+03  0.17300000000E+03 0. -1.
</event>
<event>
 4    1  0.6123996E+000  0.1000000E+03  0.7546771E-02  0.1280296E+00
         21   -1    0    0  503  502  0.00000000000E+00  0.00000000000E+00  0.83115005614E+03  0.83115005614E+03  0.00000000000E+00 0. -1.
         21   -1    0    0  501  503 -0.00000000000E+00 -0.00000000000E+00 -0.44385336874E+02  0.44385336874E+02  0.00000000000E+00 0. -1.
          6    1    1    2  501    0 -0.58381302868E+02 -0.52221716581E+02  0.45890283330E+03  0.49664503885E+03  0.17300000000E+03 0. -1.
         -6    1    1    2    0  502  0.58381302868E+02  0.52221716581E+02  0.32786188597E+03  0.37889035416E+03  0.17300000000E+03 0. -1.
</event>
<event>
 4    1  0.6123996E+000  0.1000000E+03  0.7546771E-02  0.1280296E+00
         21   -1    0    0  503  502  0.00000000000E+00  0.00000000000E+00  0.33587236236E+03  0.33587236236E+03  0.00000000000E+00 0. -1.
         21   -1    0    0  501  503 -0.00000000000E+00 -0.00000000000E+00 -0.75504896472E+03  0.75504896472E+03  0.00000000000E+00 0.  1.
          6    1    1    2  501    0 -0.34001495401E+03  0.14311205683E+03 -0.53013465530E+03  0.66862768602E+03  0.17300000000E+03 0. -1.
         -6    1    1    2    0  502  0.34001495401E+03 -0.14311205683E+03  0.11095805294E+03  0.42229364105E+03  0.17300000000E+03 0.  1.
</event>
<event>
 4    1  0.6123996E+000  0.1000000E+03  0.7546771E-02  0.1280296E+00
         21   -1    0    0  503  502  0.00000000000E+00  0.00000000000E+00  0.93288426662E+03  0.93288426662E+03  0.00000000000E+00 0.  1.
         21   -1    0    0  501  503 -0.00000000000E+00 -0.00000000000E+00 -0.70302822297E+02  0.70302822297E+02  0.00000000000E+00 0.  1.
          6    1    1    2  501    0 -0.30360270633E+02  0.18474745987E+03  0.38323339550E+03  0.46027188203E+03  0.17300000000E+03 0.  1.
         -6    1    1    2    0  502  0.30360270633E+02 -0.18474745987E+03  0.47934804882E+03  0.54291520688E+03  0.17300000000E+03 0.  1.
</event>
<event>
 4    1  0.6123996E+000  0.1000000E+03  0.7546771E-02  0.1280296E+00
         21   -1    0    0  503  502  0.00000000000E+00  0.00000000000E+00  0.12959094886E+03  0.12959094886E+03  0.00000000000E+00 0.  1.
         21   -1    0    0  501  503 -0.00000000000E+00 -0.00000000000E+00 -0.40162627239E+03  0.40162627239E+03  0.00000000000E+00 0.  1.
          6    1    1    2  501    0 -0.28104752303E+02 -0.27730947102E+02 -0.30295264666E+03  0.35109569728E+03  0.17300000000E+03 0.  1.
         -6    1    1    2    0  502  0.28104752303E+02  0.27730947102E+02  0.30917323133E+02  0.18012152397E+03  0.17300000000E+03 0.  1.
</event>
<event>
 4    1  0.6123996E+000  0.1000000E+03  0.7546771E-02  0.1280296E+00
         21   -1    0    0  503  502  0.00000000000E+00  0.00000000000E+00  0.77218815823E+03  0.77218815823E+03  0.00000000000E+00 0.  1.
         21   -1    0    0  501  503 -0.00000000000E+00 -0.00000000000E+00 -0.87020877526E+02  0.87020877526E+02  0.00000000000E+00 0.  1.
          6    1    1    2  501    0 -0.58968190326E+02 -0.16924880635E+03  0.46145899580E+03  0.52440042975E+03  0.17300000000E+03 0.  1.
         -6    1    1    2    0  502  0.58968190326E+02  0.16924880635E+03  0.22370828490E+03  0.33480860600E+03  0.17300000000E+03 0.  1.
</event>
<event>
 4    1  0.6123996E+000  0.1000000E+03  0.7546771E-02  0.1280296E+00
         21   -1    0    0  503  502  0.00000000000E+00  0.00000000000E+00  0.76967337568E+02  0.76967337568E+02  0.00000000000E+00 0.  1.
         21   -1    0    0  501  503 -0.00000000000E+00 -0.00000000000E+00 -0.51678826602E+03  0.51678826602E+03  0.00000000000E+00 0.  1.
          6    1    1    2  501    0  0.16245811123E+02 -0.78216714425E+02 -0.30753425854E+03  0.36178460577E+03  0.17300000000E+03 0.  1.
         -6    1    1    2    0  502 -0.16245811123E+02  0.78216714425E+02 -0.13228666992E+03  0.23197099783E+03  0.17300000000E+03 0.  1.
</event>
<event>
 4    1  0.6123996E+000  0.1000000E+03  0.7546771E-02  0.1280296E+00
         21   -1    0    0  503  502  0.00000000000E+00  0.00000000000E+00  0.20422773212E+03  0.20422773212E+03  0.00000000000E+00 0.  1.
         21   -1    0    0  501  503 -0.00000000000E+00 -0.00000000000E+00 -0.16185001290E+03  0.16185001290E+03  0.00000000000E+00 0.  1.
          6    1    1    2  501    0  0.34178263083E+02 -0.27968788439E+02 -0.13319284869E+02  0.17904415697E+03  0.17300000000E+03 0.  1.
         -6    1    1    2    0  502 -0.34178263083E+02  0.27968788439E+02  0.55697004090E+02  0.18703358805E+03  0.17300000000E+03 0.  1.
</event>
<event>
 4    1  0.6123996E+000  0.1000000E+03  0.7546771E-02  0.1280296E+00
         21   -1    0    0  503  502  0.00000000000E+00  0.00000000000E+00  0.33933053652E+02  0.33933053652E+02  0.00000000000E+00 0.  1.
         21   -1    0    0  501  503 -0.00000000000E+00 -0.00000000000E+00 -0.95688036704E+03  0.95688036704E+03  0.00000000000E+00 0.  1.
          6    1    1    2  501    0 -0.22307011911E+02 -0.18626490005E+02 -0.57470743126E+03  0.60088449844E+03  0.17300000000E+03 0.  1.
         -6    1    1    2    0  502  0.22307011911E+02  0.18626490005E+02 -0.34823988212E+03  0.38992892225E+03  0.17300000000E+03 0.  1.
</event>
<event>
 4    1  0.6123996E+000  0.1000000E+03  0.7546771E-02  0.1280296E+00
         21   -1    0    0  503  502  0.00000000000E+00  0.00000000000E+00  0.87771707868E+03  0.87771707868E+03  0.00000000000E+00 0.  1.
         21   -1    0    0  501  503 -0.00000000000E+00 -0.00000000000E+00 -0.73712215318E+02  0.73712215318E+02  0.00000000000E+00 0.  1.
          6    1    1    2  501    0 -0.10130939938E+03 -0.10826032834E+03  0.19052711380E+03  0.29700753221E+03  0.17300000000E+03 0.  1.
         -6    1    1    2    0  502  0.10130939938E+03  0.10826032834E+03  0.61347774957E+03  0.65442176179E+03  0.17300000000E+03 0.  1.
</event>
<event>
 4    1  0.6123996E+000  0.1000000E+03  0.7546771E-02  0.1280296E+00
         21   -1    0    0  501  502  0.00000000000E+00  0.00000000000E+00  0.37227502728E+03  0.37227502728E+03  0.00000000000E+00 0.  1.
         21   -1    0    0  502  503 -0.00000000000E+00 -0.00000000000E+00 -0.86615300687E+03  0.86615300687E+03  0.00000000000E+00 0. -1.
          6    1    1    2  501    0 -0.32391407806E+03 -0.42389838131E+03 -0.14996753036E+03  0.58054235660E+03  0.17300000000E+03 0.  1.
         -6    1    1    2    0  503  0.32391407806E+03  0.42389838131E+03 -0.34391044923E+03  0.65788567756E+03  0.17300000000E+03 0. -1.
</event>
<event>
 4    1  0.6123996E+000  0.1000000E+03  0.7546771E-02  0.1280296E+00
         21   -1    0    0  501  502  0.00000000000E+00  0.00000000000E+00  0.11548552580E+03  0.11548552580E+03  0.00000000000E+00 0.  1.
         21   -1    0    0  502  503 -0.00000000000E+00 -0.00000000000E+00 -0.51857033492E+03  0.51857033492E+03  0.00000000000E+00 0. -1.
          6    1    1    2  501    0  0.80984948239E+02  0.13461481756E+03 -0.10742030027E+03  0.25719220800E+03  0.17300000000E+03 0.  1.
         -6    1    1    2    0  503 -0.80984948239E+02 -0.13461481756E+03 -0.29566450885E+03  0.37686365272E+03  0.17300000000E+03 0. -1.
</event>
<event>
 4    1  0.6123996E+000  0.1000000E+03  0.7546771E-02  0.1280296E+00
         21   -1    0    0  503  502  0.00000000000E+00  0.00000000000E+00  0.58144055788E+03  0.58144055788E+03  0.00000000000E+00 0.  1.
         21   -1    0    0  501  503 -0.00000000000E+00 -0.00000000000E+00 -0.56344150700E+02  0.56344150700E+02  0.00000000000E+00 0.  1.
          6    1    1    2  501    0 -0.25767453428E+02  0.11255604164E+02  0.18295028048E+03  0.25335835374E+03  0.17300000000E+03 0.  1.
         -6    1    1    2    0  502  0.25767453428E+02 -0.11255604164E+02  0.34214612670E+03  0.38442635484E+03  0.17300000000E+03 0.  1.
</event>
<event>
 4    1  0.6123996E+000  0.1000000E+03  0.7546771E-02  0.1280296E+00
         21   -1    0    0  503  502  0.00000000000E+00  0.00000000000E+00  0.67800519344E+02  0.67800519344E+02  0.00000000000E+00 0.  1.
         21   -1    0    0  501  503 -0.00000000000E+00 -0.00000000000E+00 -0.69347275524E+03  0.69347275524E+03  0.00000000000E+00 0. -1.
          6    1    1    2  501    0  0.20523804966E+02  0.37505089212E+02 -0.52969151095E+03  0.55886488086E+03  0.17300000000E+03 0.  1.
         -6    1    1    2    0  502 -0.20523804966E+02 -0.37505089212E+02 -0.95980724940E+02  0.20240839372E+03  0.17300000000E+03 0. -1.
</event>
<event>
 4    1  0.6123996E+000  0.1000000E+03  0.7546771E-02  0.1280296E+00
         21   -1    0    0  503  502  0.00000000000E+00  0.00000000000E+00  0.56197165546E+02  0.56197165546E+02  0.00000000000E+00 0.  1.
         21   -1    0    0  501  503 -0.00000000000E+00 -0.00000000000E+00 -0.82330491475E+03  0.82330491475E+03  0.00000000000E+00 0.  1.
          6    1    1    2  501    0  0.42325100897E+02 -0.44525704166E+02 -0.61271505917E+03  0.63962699774E+03  0.17300000000E+03 0.  1.
         -6    1    1    2    0  502 -0.42325100897E+02  0.44525704166E+02 -0.15439269003E+03  0.23987508256E+03  0.17300000000E+03 0.  1.
</event>
<event>
 4    1  0.6123996E+000  0.1000000E+03  0.7546771E-02  0.1280296E+00
         21   -1    0    0  503  502  0.00000000000E+00  0.00000000000E+00  0.52933238871E+02  0.52933238871E+02  0.00000000000E+00 0.  1.
         21   -1    0    0  501  503 -0.00000000000E+00 -0.00000000000E+00 -0.13852750448E+04  0.13852750448E+04  0.00000000000E+00 0.  1.
          6    1    1    2  501    0  0.78622383073E+02  0.58657562002E+02 -0.11542194849E+04  0.11712274792E+04  0.17300000000E+03 0.  1.
         -6    1    1    2    0  502 -0.78622383073E+02 -0.58657562002E+02 -0.17812232097E+03  0.26698080442E+03  0.17300000000E+03 0.  1.
</event>
<event>
 4    1  0.6123996E+000  0.1000000E+03  0.7546771E-02  0.1280296E+00
         21   -1    0    0  501  502  0.00000000000E+00  0.00000000000E+00  0.15907401533E+03  0.15907401533E+03  0.00000000000E+00 0.  1.
         21   -1    0    0  502  503 -0.00000000000E+00 -0.00000000000E+00 -0.27881116427E+03  0.27881116427E+03  0.00000000000E+00 0.  1.
          6    1    1    2  501    0  0.39378074555E+02  0.78436438549E+02  0.25353207936E+02  0.19563919035E+03  0.17300000000E+03 0.  1.
         -6    1    1    2    0  503 -0.39378074555E+02 -0.78436438549E+02 -0.14509035687E+03  0.24224598924E+03  0.17300000000E+03 0.  1.
</event>
<event>
 4    1  0.6123996E+000  0.1000000E+03  0.7546771E-02  0.1280296E+00
         21   -1    0    0  503  502  0.00000000000E+00  0.00000000000E+00  0.59747853509E+03  0.59747853509E+03  0.00000000000E+00 0.  1.
         21   -1    0    0  501  503 -0.00000000000E+00 -0.00000000000E+00 -0.11986135692E+03  0.11986135692E+03  0.00000000000E+00 0.  1.
          6    1    1    2  501    0  0.13589490675E+03 -0.42055512771E+02  0.42516505108E+02  0.22797531674E+03  0.17300000000E+03 0.  1.
         -6    1    1    2    0  502 -0.13589490675E+03  0.42055512771E+02  0.43510067306E+03  0.48936457527E+03  0.17300000000E+03 0.  1.
</event>
<event>
 4    1  0.6123996E+000  0.1000000E+03  0.7546771E-02  0.1280296E+00
         21   -1    0    0  503  502  0.00000000000E+00  0.00000000000E+00  0.17141476253E+04  0.17141476253E+04  0.00000000000E+00 0.  1.
         21   -1    0    0  501  503 -0.00000000000E+00 -0.00000000000E+00 -0.64714586621E+02  0.64714586621E+02  0.00000000000E+00 0.  1.
          6    1    1    2  501    0  0.15678801631E+03  0.14808614460E+03  0.32877585158E+03  0.42957484664E+03  0.17300000000E+03 0.  1.
         -6    1    1    2    0  502 -0.15678801631E+03 -0.14808614460E+03  0.13206571871E+04  0.13492873653E+04  0.17300000000E+03 0.  1.
</event>
<event>
 4    1  0.6123996E+000  0.1000000E+03  0.7546771E-02  0.1280296E+00
         21   -1    0    0  503  502  0.00000000000E+00  0.00000000000E+00  0.16640792208E+03  0.16640792208E+03  0.00000000000E+00 0.  1.
         21   -1    0    0  501  503 -0.00000000000E+00 -0.00000000000E+00 -0.41251035400E+03  0.41251035400E+03  0.00000000000E+00 0.  1.
          6    1    1    2  501    0  0.54128601641E+02 -0.17838154903E+03 -0.19262812371E+03  0.31903679505E+03  0.17300000000E+03 0.  1.
         -6    1    1    2    0  502 -0.54128601641E+02  0.17838154903E+03 -0.53474308212E+02  0.25988148104E+03  0.17300000000E+03 0.  1.
</event>
<event>
 4    1  0.6123996E+000  0.1000000E+03  0.7546771E-02  0.1280296E+00
         21   -1    0    0  501  502  0.00000000000E+00  0.00000000000E+00  0.59867414018E+03  0.59867414018E+03  0.00000000000E+00 0. -1.
         21   -1    0    0  502  503 -0.00000000000E+00 -0.00000000000E+00 -0.11051223681E+03  0.11051223681E+03  0.00000000000E+00 0.  1.
          6    1    1    2  501    0 -0.92055858895E+02 -0.36642823784E+02  0.46813559684E+03  0.50881913753E+03  0.17300000000E+03 0. -1.
         -6    1    1    2    0  503  0.92055858895E+02  0.36642823784E+02  0.20026306533E+02  0.20036723945E+03  0.17300000000E+03 0.  1.
</event>
<event>
 4    1  0.6123996E+000  0.1000000E+03  0.7546771E-02  0.1280296E+00
         21   -1    0    0  501  502  0.00000000000E+00  0.00000000000E+00  0.88573072812E+03  0.88573072812E+03  0.00000000000E+00 0. -1.
         21   -1    0    0  502  503 -0.00000000000E+00 -0.00000000000E+00 -0.23501936747E+03  0.23501936747E+03  0.00000000000E+00 0.  1.
          6    1    1    2  501    0 -0.85281296405E+02 -0.19835225314E+03  0.77094455962E+03  0.81908548385E+03  0.17300000000E+03 0. -1.
         -6    1    1    2    0  503  0.85281296405E+02  0.19835225314E+03 -0.12023319897E+03  0.30166461174E+03  0.17300000000E+03 0.  1.
</event>
<event>
 4    1  0.6123996E+000  0.1000000E+03  0.7546771E-02  0.1280296E+00
         21   -1    0    0  503  502  0.00000000000E+00  0.00000000000E+00  0.16764816648E+03  0.16764816648E+03  0.00000000000E+00 0.  1.
         21   -1    0    0  501  503 -0.00000000000E+00 -0.00000000000E+00 -0.76989015245E+03  0.76989015245E+03  0.00000000000E+00 0.  1.
          6    1    1    2  501    0 -0.46063950553E+02  0.12906180949E+03 -0.67101122925E+03  0.70637377357E+03  0.17300000000E+03 0.  1.
         -6    1    1    2    0  502  0.46063950553E+02 -0.12906180949E+03  0.68769243280E+02  0.23116454536E+03  0.17300000000E+03 0.  1.
</event>
<event>
 4    1  0.6123996E+000  0.1000000E+03  0.7546771E-02  0.1280296E+00
         21   -1    0    0  503  502  0.00000000000E+00  0.00000000000E+00  0.17186051698E+04  0.17186051698E+04  0.00000000000E+00 0.  1.
         21   -1    0    0  501  503 -0.00000000000E+00 -0.00000000000E+00 -0.42887780462E+02  0.42887780462E+02  0.00000000000E+00 0.  1.
          6    1    1    2  501    0  0.10076698981E+03  0.83506331433E+01  0.24360610745E+03  0.31543090352E+03  0.17300000000E+03 0.  1.
         -6    1    1    2    0  502 -0.10076698981E+03 -0.83506331433E+01  0.14321112819E+04  0.14460620467E+04  0.17300000000E+03 0.  1.
</event>
<event>
 4    1  0.6123996E+000  0.1000000E+03  0.7546771E-02  0.1280296E+00
         21   -1    0    0  503  502  0.00000000000E+00  0.00000000000E+00  0.19907067777E+03  0.19907067777E+03  0.00000000000E+00 0. -1.
         21   -1    0    0  501  503 -0.00000000000E+00 -0.00000000000E+00 -0.25870165954E+03  0.25870165954E+03  0.00000000000E+00 0. -1.
          6    1    1    2  501    0  0.61722702638E+02  0.13136261989E+03 -0.71482617244E+01  0.22593345828E+03  0.17300000000E+03 0. -1.
         -6    1    1    2    0  502 -0.61722702638E+02 -0.13136261989E+03 -0.52482720044E+02  0.23183887902E+03  0.17300000000E+03 0. -1.
</event>
<event>
 4    1  0.6123996E+000  0.1000000E+03  0.7546771E-02  0.1280296E+00
         21   -1    0    0  503  502  0.00000000000E+00  0.00000000000E+00  0.14578798429E+03  0.14578798429E+03  0.00000000000E+00 0. -1.
         21   -1    0    0  501  503 -0.00000000000E+00 -0.00000000000E+00 -0.38415562726E+03  0.38415562726E+03  0.00000000000E+00 0. -1.
          6    1    1    2  501    0  0.77017143533E+02  0.13818120514E+03 -0.82892601913E+02  0.24864808325E+03  0.17300000000E+03 0. -1.
         -6    1    1    2    0  502 -0.77017143533E+02 -0.13818120514E+03 -0.15547504106E+03  0.28129552830E+03  0.17300000000E+03 0. -1.
</event>
<event>
 4    1  0.6123996E+000  0.1000000E+03  0.7546771E-02  0.1280296E+00
         21   -1    0    0  503  502  0.00000000000E+00  0.00000000000E+00  0.14093349600E+03  0.14093349600E+03  0.00000000000E+00 0.  1.
         21   -1    0    0  501  503 -0.00000000000E+00 -0.00000000000E+00 -0.27726234843E+03  0.27726234843E+03  0.00000000000E+00 0.  1.
          6    1    1    2  501    0  0.95483746085E+02 -0.52744388281E+01 -0.69496815268E+02  0.20953227151E+03  0.17300000000E+03 0.  1.
         -6    1    1    2    0  502 -0.95483746085E+02  0.52744388281E+01 -0.66832037164E+02  0.20866357292E+03  0.17300000000E+03 0.  1.
</event>
<event>
 4    1  0.6123996E+000  0.1000000E+03  0.7546771E-02  0.1280296E+00
         21   -1    0    0  501  502  0.00000000000E+00  0.00000000000E+00  0.23443164361E+03  0.23443164361E+03  0.00000000000E+00 0.  1.
         21   -1    0    0  502  503 -0.00000000000E+00 -0.00000000000E+00 -0.32315364659E+03  0.32315364659E+03  0.00000000000E+00 0.  1.
          6    1    1    2  501    0 -0.41611711529E+02 -0.13577611644E+01  0.16833711625E+03  0.24494849001E+03  0.17300000000E+03 0.  1.
         -6    1    1    2    0  503  0.41611711529E+02  0.13577611644E+01 -0.25705911923E+03  0.31263680018E+03  0.17300000000E+03 0.  1.
</event>
<event>
 4    1  0.6123996E+000  0.1000000E+03  0.7546771E-02  0.1280296E+00
         21   -1    0    0  501  502  0.00000000000E+00  0.00000000000E+00  0.44178831184E+03  0.44178831184E+03  0.00000000000E+00 0.  1.
         21   -1    0    0  502  503 -0.00000000000E+00 -0.00000000000E+00 -0.17671975195E+03  0.17671975195E+03  0.00000000000E+00 0.  1.
          6    1    1    2  501    0  0.20517550726E+03  0.32173716943E+02  0.21088684554E+03  0.34283290167E+03  0.17300000000E+03 0.  1.
         -6    1    1    2    0  503 -0.20517550726E+03 -0.32173716943E+02  0.54181714342E+02  0.27567516212E+03  0.17300000000E+03 0.  1.
</event>
<event>
 4    1  0.6123996E+000  0.1000000E+03  0.7546771E-02  0.1280296E+00
         21   -1    0    0  501  502  0.00000000000E+00  0.00000000000E+00  0.32047707795E+03  0.32047707795E+03  0.00000000000E+00 0. -1.
         21   -1    0    0  502  503 -0.00000000000E+00 -0.00000000000E+00 -0.16014085714E+04  0.16014085714E+04  0.00000000000E+00 0. -1.
          6    1    1    2  501    0  0.31191903664E+03  0.13173776581E+03  0.17395287254E+03  0.41813505740E+03  0.17300000000E+03 0. -1.
         -6    1    1    2    0  503 -0.31191903664E+03 -0.13173776581E+03 -0.14548843660E+04  0.15037505919E+04  0.17300000000E+03 0. -1.
</event>
<event>
 4    1  0.6123996E+000  0.1000000E+03  0.7546771E-02  0.1280296E+00
         21   -1    0    0  503  502  0.00000000000E+00  0.00000000000E+00  0.22915348031E+03  0.22915348031E+03  0.00000000000E+00 0. -1.
         21   -1    0    0  501  503 -0.00000000000E+00 -0.00000000000E+00 -0.16539910923E+03  0.16539910923E+03  0.00000000000E+00 0. -1.
          6    1    1    2  501    0  0.80534522648E+02 -0.25054485145E+02  0.21739617946E+01  0.19247665488E+03  0.17300000000E+03 0. -1.
         -6    1    1    2    0  502 -0.80534522648E+02  0.25054485145E+02  0.61580409284E+02  0.20207593467E+03  0.17300000000E+03 0. -1.
</event>
<event>
 4    1  0.6123996E+000  0.1000000E+03  0.7546771E-02  0.1280296E+00
         21   -1    0    0  503  502  0.00000000000E+00  0.00000000000E+00  0.19899312771E+03  0.19899312771E+03  0.00000000000E+00 0. -1.
         21   -1    0    0  501  503 -0.00000000000E+00 -0.00000000000E+00 -0.46263297838E+03  0.46263297838E+03  0.00000000000E+00 0. -1.
          6    1    1    2  501    0  0.17914310639E+03  0.16129261483E+02 -0.31996944480E+03  0.40578547442E+03  0.17300000000E+03 0. -1.
         -6    1    1    2    0  502 -0.17914310639E+03 -0.16129261483E+02  0.56329594128E+02  0.25584063168E+03  0.17300000000E+03 0. -1.
</event>
<event>
 4    1  0.6123996E+000  0.1000000E+03  0.7546771E-02  0.1280296E+00
         21   -1    0    0  501  502  0.00000000000E+00  0.00000000000E+00  0.29639220662E+03  0.29639220662E+03  0.00000000000E+00 0. -1.
         21   -1    0    0  502  503 -0.00000000000E+00 -0.00000000000E+00 -0.27629962054E+03  0.27629962054E+03  0.00000000000E+00 0.  1.
          6    1    1    2  501    0 -0.14619288997E+03  0.11123614959E+03  0.14510429895E+03  0.29108435140E+03  0.17300000000E+03 0. -1.
         -6    1    1    2    0  503  0.14619288997E+03 -0.11123614959E+03 -0.12501171286E+03  0.28160747576E+03  0.17300000000E+03 0.  1.
</event>
<event>
 4    1  0.6123996E+000  0.1000000E+03  0.7546771E-02  0.1280296E+00
         21   -1    0    0  501  502  0.00000000000E+00  0.00000000000E+00  0.36746411655E+03  0.36746411655E+03  0.00000000000E+00 0.  1.
         21   -1    0    0  502  503 -0.00000000000E+00 -0.00000000000E+00 -0.14684187327E+03  0.14684187327E+03  0.00000000000E+00 0. -1.
          6    1    1    2  501    0  0.14333432751E+03  0.92979378059E+01  0.17485139360E+03  0.28483888593E+03  0.17300000000E+03 0.  1.
         -6    1    1    2    0  503 -0.14333432751E+03 -0.92979378059E+01  0.45770849679E+02  0.22946710390E+03  0.17300000000E+03 0. -1.
</event>
<event>
 4    1  0.6123996E+000  0.1000000E+03  0.7546771E-02  0.1280296E+00
         21   -1    0    0  501  502  0.00000000000E+00  0.00000000000E+00  0.71012019332E+03  0.71012019332E+03  0.00000000000E+00 0.  1.
         21   -1    0    0  502  503 -0.00000000000E+00 -0.00000000000E+00 -0.77256242222E+02  0.77256242222E+02  0.00000000000E+00 0. -1.
          6    1    1    2  501    0 -0.11555368523E+03 -0.92021687374E+02  0.41019026202E+03  0.46904764808E+03  0.17300000000E+03 0.  1.
         -6    1    1    2    0  503  0.11555368523E+03  0.92021687374E+02  0.22267368908E+03  0.31832878746E+03  0.17300000000E+03 0. -1.
</event>
<event>
 4    1  0.6123996E+000  0.1000000E+03  0.7546771E-02  0.1280296E+00
         21   -1    0    0  503  502  0.00000000000E+00  0.00000000000E+00  0.23147870799E+04  0.23147870799E+04  0.00000000000E+00 0. -1.
         21   -1    0    0  501  503 -0.00000000000E+00 -0.00000000000E+00 -0.14117716173E+02  0.14117716173E+02  0.00000000000E+00 0.  1.
          6    1    1    2  501    0 -0.23139179782E+02 -0.15719665345E+02  0.86457954033E+03  0.88216172614E+03  0.17300000000E+03 0.  1.
         -6    1    1    2    0  502  0.23139179782E+02  0.15719665345E+02  0.14360898234E+04  0.14467430699E+04  0.17300000000E+03 0. -1.
</event>
<event>
 4    1  0.6123996E+000  0.1000000E+03  0.7546771E-02  0.1280296E+00
         21   -1    0    0  503  502  0.00000000000E+00  0.00000000000E+00  0.53835092344E+02  0.53835092344E+02  0.00000000000E+00 0. -1.
         21   -1    0    0  501  503 -0.00000000000E+00 -0.00000000000E+00 -0.24796546495E+04  0.24796546495E+04  0.00000000000E+00 0. -1.
          6    1    1    2  501    0  0.52381802366E+02  0.15437263900E+03 -0.21749079318E+04  0.21878592909E+04  0.17300000000E+03 0. -1.
         -6    1    1    2    0  502 -0.52381802366E+02 -0.15437263900E+03 -0.25091162535E+03  0.34563045095E+03  0.17300000000E+03 0. -1.
</event>
<event>
 4    1  0.6123996E+000  0.1000000E+03  0.7546771E-02  0.1280296E+00
         21   -1    0    0  503  502  0.00000000000E+00  0.00000000000E+00  0.24748421678E+03  0.24748421678E+03  0.00000000000E+00 0. -1.
         21   -1    0    0  501  503 -0.00000000000E+00 -0.00000000000E+00 -0.21565870689E+03  0.21565870689E+03  0.00000000000E+00 0. -1.
          6    1    1    2  501    0  0.27395491043E+02 -0.14114714449E+03 -0.36843658245E+02  0.22794623156E+03  0.17300000000E+03 0. -1.
         -6    1    1    2    0  502 -0.27395491043E+02  0.14114714449E+03  0.68669168136E+02  0.23519669211E+03  0.17300000000E+03 0. -1.
</event>
<event>
 4    1  0.6123996E+000  0.1000000E+03  0.7546771E-02  0.1280296E+00
         21   -1    0    0  501  502  0.00000000000E+00  0.00000000000E+00  0.42050618570E+02  0.42050618570E+02  0.00000000000E+00 0.  1.
         21   -1    0    0  502  503 -0.00000000000E+00 -0.00000000000E+00 -0.12769892133E+04  0.12769892133E+04  0.00000000000E+00 0.  1.
          6    1    1    2  501    0  0.35583742567E+02 -0.10480387211E+03 -0.92293185454E+03  0.94550635242E+03  0.17300000000E+03 0.  1.
         -6    1    1    2    0  503 -0.35583742567E+02  0.10480387211E+03 -0.31200674019E+03  0.37353347944E+03  0.17300000000E+03 0.  1.
</event>
<event>
 4    1  0.6123996E+000  0.1000000E+03  0.7546771E-02  0.1280296E+00
         21   -1    0    0  501  502  0.00000000000E+00  0.00000000000E+00  0.15537600136E+03  0.15537600136E+03  0.00000000000E+00 0. -1.
         21   -1    0    0  502  503 -0.00000000000E+00 -0.00000000000E+00 -0.35509799928E+03  0.35509799928E+03  0.00000000000E+00 0. -1.
          6    1    1    2  501    0  0.14446101240E+03  0.63850588605E+02 -0.81077074080E+02  0.24788782485E+03  0.17300000000E+03 0.  1.
         -6    1    1    2    0  503 -0.14446101240E+03 -0.63850588605E+02 -0.11864492384E+03  0.26258617580E+03  0.17300000000E+03 0.  1.
</event>
<event>
 4    1  0.6123996E+000  0.1000000E+03  0.7546771E-02  0.1280296E+00
         21   -1    0    0  501  502  0.00000000000E+00  0.00000000000E+00  0.65949363099E+02  0.65949363099E+02  0.00000000000E+00 0.  1.
         21   -1    0    0  502  503 -0.00000000000E+00 -0.00000000000E+00 -0.12318408810E+04  0.12318408810E+04  0.00000000000E+00 0.  1.
          6    1    1    2  501    0 -0.92734274434E+01 -0.19324677917E+03 -0.31473041423E+03  0.40793939225E+03  0.17300000000E+03 0.  1.
         -6    1    1    2    0  503  0.92734274434E+01  0.19324677917E+03 -0.85116110364E+03  0.88985085181E+03  0.17300000000E+03 0.  1.
</event>
<event>
 4    1  0.6123996E+000  0.1000000E+03  0.7546771E-02  0.1280296E+00
         21   -1    0    0  501  502  0.00000000000E+00  0.00000000000E+00  0.15323602432E+03  0.15323602432E+03  0.00000000000E+00 0.  1.
         21   -1    0    0  502  503 -0.00000000000E+00 -0.00000000000E+00 -0.59307573422E+03  0.59307573422E+03  0.00000000000E+00 0.  1.
          6    1    1    2  501    0  0.65835638455E+02 -0.85262090275E+00  0.74607961765E+02  0.19957556517E+03  0.17300000000E+03 0.  1.
         -6    1    1    2    0  503 -0.65835638455E+02  0.85262090275E+00 -0.51444767167E+03  0.54673619337E+03  0.17300000000E+03 0.  1.
</event>
<event>
 4    1  0.6123996E+000  0.1000000E+03  0.7546771E-02  0.1280296E+00
         21   -1    0    0  501  502  0.00000000000E+00  0.00000000000E+00  0.10776901116E+03  0.10776901116E+03  0.00000000000E+00 0.  1.
         21   -1    0    0  502  503 -0.00000000000E+00 -0.00000000000E+00 -0.45135037100E+03  0.45135037100E+03  0.00000000000E+00 0.  1.
          6    1    1    2  501    0 -0.30780326797E+02  0.89162533695E+02 -0.46210755700E+02  0.20239026626E+03  0.17300000000E+03 0.  1.
         -6    1    1    2    0  503  0.30780326797E+02 -0.89162533695E+02 -0.29737060414E+03  0.35672911591E+03  0.17300000000E+03 0.  1.
</event>
<event>
 4    1  0.6123996E+000  0.1000000E+03  0.7546771E-02  0.1280296E+00
         21   -1    0    0  503  502  0.00000000000E+00  0.00000000000E+00  0.49836024267E+03  0.49836024267E+03  0.00000000000E+00 0. -1.
         21   -1    0    0  501  503 -0.00000000000E+00 -0.00000000000E+00 -0.33769245545E+03  0.33769245545E+03  0.00000000000E+00 0.  1.
          6    1    1    2  501    0 -0.17102940497E+03  0.59721435665E+02 -0.25071469045E+03  0.35440734085E+03  0.17300000000E+03 0.  1.
         -6    1    1    2    0  502  0.17102940497E+03 -0.59721435665E+02  0.41138247768E+03  0.48164535727E+03  0.17300000000E+03 0. -1.
</event>
<event>
 4    1  0.6123996E+000  0.1000000E+03  0.7546771E-02  0.1280296E+00
         21   -1    0    0  501  502  0.00000000000E+00  0.00000000000E+00  0.13035987042E+04  0.13035987042E+04  0.00000000000E+00 0. -1.
         21   -1    0    0  502  503 -0.00000000000E+00 -0.00000000000E+00 -0.27836428049E+02  0.27836428049E+02  0.00000000000E+00 0. -1.
          6    1    1    2  501    0 -0.60268904630E+02 -0.19770360429E+02  0.80676370828E+03  0.82753845168E+03  0.17300000000E+03 0. -1.
         -6    1    1    2    0  503  0.60268904630E+02  0.19770360429E+02  0.46899856784E+03  0.50389668053E+03  0.17300000000E+03 0. -1.
</event>
<event>
 4    1  0.6123996E+000  0.1000000E+03  0.7546771E-02  0.1280296E+00
         21   -1    0    0  503  502  0.00000000000E+00  0.00000000000E+00  0.26409081599E+04  0.26409081599E+04  0.00000000000E+00 0. -1.
         21   -1    0    0  501  503 -0.00000000000E+00 -0.00000000000E+00 -0.11477303667E+02  0.11477303667E+02  0.00000000000E+00 0. -1.
          6    1    1    2  501    0  0.13552933588E+02  0.11254046512E+02  0.13789777655E+04  0.13898989219E+04  0.17300000000E+03 0. -1.
         -6    1    1    2    0  502 -0.13552933588E+02 -0.11254046512E+02  0.12504530908E+04  0.12624865416E+04  0.17300000000E+03 0. -1.
</event>
<event>
 4    1  0.6123996E+000  0.1000000E+03  0.7546771E-02  0.1280296E+00
         21   -1    0    0  501  502  0.00000000000E+00  0.00000000000E+00  0.90929427603E+02  0.90929427603E+02  0.00000000000E+00 0.  1.
         21   -1    0    0  502  503 -0.00000000000E+00 -0.00000000000E+00 -0.62744083211E+03  0.62744083211E+03  0.00000000000E+00 0.  1.
          6    1    1    2  501    0 -0.11925952747E+03 -0.70704563590E+01 -0.97785548455E+02  0.23187030800E+03  0.17300000000E+03 0.  1.
         -6    1    1    2    0  503  0.11925952747E+03  0.70704563590E+01 -0.43872585605E+03  0.48649995171E+03  0.17300000000E+03 0.  1.
</event>
<event>
 4    1  0.6123996E+000  0.1000000E+03  0.7546771E-02  0.1280296E+00
         21   -1    0    0  501  502  0.00000000000E+00  0.00000000000E+00  0.73530003422E+02  0.73530003422E+02  0.00000000000E+00 0.  1.
         21   -1    0    0  502  503 -0.00000000000E+00 -0.00000000000E+00 -0.61379109271E+03  0.61379109271E+03  0.00000000000E+00 0. -1.
          6    1    1    2  501    0  0.48860449393E+02  0.23214739425E+02 -0.44936833034E+03  0.48454841240E+03  0.17300000000E+03 0.  1.
         -6    1    1    2    0  503 -0.48860449393E+02 -0.23214739425E+02 -0.90892758948E+02  0.20277268374E+03  0.17300000000E+03 0. -1.
</event>
<event>
 4    1  0.6123996E+000  0.1000000E+03  0.7546771E-02  0.1280296E+00
         21   -1    0    0  501  502  0.00000000000E+00  0.00000000000E+00  0.13540635772E+03  0.13540635772E+03  0.00000000000E+00 0. -1.
         21   -1    0    0  502  503 -0.00000000000E+00 -0.00000000000E+00 -0.61894793589E+03  0.61894793589E+03  0.00000000000E+00 0.  1.
          6    1    1    2  501    0 -0.15150261448E+03 -0.48595347081E+02 -0.21567901237E+02  0.23602695676E+03  0.17300000000E+03 0. -1.
         -6    1    1    2    0  503  0.15150261448E+03  0.48595347081E+02 -0.46197367693E+03  0.51832733686E+03  0.17300000000E+03 0. -1.
</event>
<event>
 4    1  0.6123996E+000  0.1000000E+03  0.7546771E-02  0.1280296E+00
         21   -1    0    0  503  502  0.00000000000E+00  0.00000000000E+00  0.17536088477E+03  0.17536088477E+03  0.00000000000E+00 0. -1.
         21   -1    0    0  501  503 -0.00000000000E+00 -0.00000000000E+00 -0.21673645006E+03  0.21673645006E+03  0.00000000000E+00 0. -1.
          6    1    1    2  501    0  0.39099544287E+02  0.43176456577E+02 -0.89519986495E+02  0.20331209691E+03  0.17300000000E+03 0. -1.
         -6    1    1    2    0  502 -0.39099544287E+02 -0.43176456577E+02  0.48144421209E+02  0.18878523793E+03  0.17300000000E+03 0. -1.
</event>
<event>
 4    1  0.6123996E+000  0.1000000E+03  0.7546771E-02  0.1280296E+00
         21   -1    0    0  503  502  0.00000000000E+00  0.00000000000E+00  0.25208409832E+04  0.25208409832E+04  0.00000000000E+00 0. -1.
         21   -1    0    0  501  503 -0.00000000000E+00 -0.00000000000E+00 -0.48908882399E+02  0.48908882399E+02  0.00000000000E+00 0. -1.
          6    1    1    2  501    0 -0.39104877392E+02 -0.20152921307E+03  0.40781209405E+03  0.48824473291E+03  0.17300000000E+03 0. -1.
         -6    1    1    2    0  502  0.39104877392E+02  0.20152921307E+03  0.20641200068E+04  0.20815051327E+04  0.17300000000E+03 0. -1.
</event>
<event>
 4    1  0.6123996E+000  0.1000000E+03  0.7546771E-02  0.1280296E+00
         21   -1    0    0  503  502  0.00000000000E+00  0.00000000000E+00  0.30560391499E+02  0.30560391499E+02  0.00000000000E+00 0.  1.
         21   -1    0    0  501  503 -0.00000000000E+00 -0.00000000000E+00 -0.18005231012E+04  0.18005231012E+04  0.00000000000E+00 0.  1.
          6    1    1    2  501    0  0.26950921311E+02  0.13210892563E+02 -0.14920816771E+04  0.15023773198E+04  0.17300000000E+03 0.  1.
         -6    1    1    2    0  502 -0.26950921311E+02 -0.13210892563E+02 -0.27788103264E+03  0.32870617296E+03  0.17300000000E+03 0.  1.
</event>
<event>
 4    1  0.6123996E+000  0.1000000E+03  0.7546771E-02  0.1280296E+00
         21   -1    0    0  503  502  0.00000000000E+00  0.00000000000E+00  0.31504615818E+02  0.31504615818E+02  0.00000000000E+00 0.  1.
         21   -1    0    0  501  503 -0.00000000000E+00 -0.00000000000E+00 -0.11247548896E+04  0.11247548896E+04  0.00000000000E+00 0.  1.
          6    1    1    2  501    0  0.74070363831E+02 -0.43872984071E+01 -0.54831709553E+03  0.57972950972E+03  0.17300000000E+03 0.  1.
         -6    1    1    2    0  502 -0.74070363831E+02  0.43872984071E+01 -0.54493317826E+03  0.57652999571E+03  0.17300000000E+03 0.  1.
</event>
<event>
 4    1  0.6123996E+000  0.1000000E+03  0.7546771E-02  0.1280296E+00
         21   -1    0    0  503  502  0.00000000000E+00  0.00000000000E+00  0.18520044903E+03  0.18520044903E+03  0.00000000000E+00 0.  1.
         21   -1    0    0  501  503 -0.00000000000E+00 -0.00000000000E+00 -0.16257364231E+03  0.16257364231E+03  0.00000000000E+00 0.  1.
          6    1    1    2  501    0  0.10386682357E+02  0.40327097994E+01  0.38433399048E+01  0.17340102993E+03  0.17300000000E+03 0.  1.
         -6    1    1    2    0  502 -0.10386682357E+02 -0.40327097994E+01  0.18783466815E+02  0.17437306141E+03  0.17300000000E+03 0.  1.
</event>
<event>
 4    1  0.6123996E+000  0.1000000E+03  0.7546771E-02  0.1280296E+00
         21   -1    0    0  503  502  0.00000000000E+00  0.00000000000E+00  0.41211642373E+02  0.41211642373E+02  0.00000000000E+00 0.  1.
         21   -1    0    0  501  503 -0.00000000000E+00 -0.00000000000E+00 -0.80297885283E+03  0.80297885283E+03  0.00000000000E+00 0.  1.
          6    1    1    2  501    0 -0.42998771886E+02  0.65097795595E-02 -0.46499916735E+03  0.49799811251E+03  0.17300000000E+03 0.  1.
         -6    1    1    2    0  502  0.42998771886E+02 -0.65097795595E-02 -0.29676804311E+03  0.34619238270E+03  0.17300000000E+03 0.  1.
</event>
<event>
 4    1  0.6123996E+000  0.1000000E+03  0.7546771E-02  0.1280296E+00
         21   -1    0    0  503  502  0.00000000000E+00  0.00000000000E+00  0.55298676983E+03  0.55298676983E+03  0.00000000000E+00 0.  1.
         21   -1    0    0  501  503 -0.00000000000E+00 -0.00000000000E+00 -0.21044841557E+03  0.21044841557E+03  0.00000000000E+00 0.  1.
          6    1    1    2  501    0 -0.17019672302E+02  0.16408691215E+03 -0.10105750478E+03  0.25952996601E+03  0.17300000000E+03 0.  1.
         -6    1    1    2    0  502  0.17019672302E+02 -0.16408691215E+03  0.44359585904E+03  0.50390521940E+03  0.17300000000E+03 0.  1.
</event>
<event>
 4    1  0.6123996E+000  0.1000000E+03  0.7546771E-02  0.1280296E+00
         21   -1    0    0  503  502  0.00000000000E+00  0.00000000000E+00  0.19499687431E+03  0.19499687431E+03  0.00000000000E+00 0.  1.
         21   -1    0    0  501  503 -0.00000000000E+00 -0.00000000000E+00 -0.22769579771E+03  0.22769579771E+03  0.00000000000E+00 0.  1.
          6    1    1    2  501    0  0.42404309763E+02  0.61175424055E+02 -0.11113435165E+03  0.21867876466E+03  0.17300000000E+03 0.  1.
         -6    1    1    2    0  502 -0.42404309763E+02 -0.61175424055E+02  0.78435428245E+02  0.20401390737E+03  0.17300000000E+03 0.  1.
</event>
