<LesHouchesEvents version="3.0">
<header>
<!--
#*********************************************************************
#                                                                    *
#                        MadGraph5_aMC@NLO                           *
#                                                                    *
#                           Going Beyond                             *
#                                                                    *
#                   http://madgraph.hep.uiuc.edu                     *
#                   http://madgraph.phys.ucl.ac.be                   *
#                   http://amcatnlo.cern.ch                          *
#                                                                    *
#                     The MadGraph5_aMC@NLO team                     *
#                                                                    *
#....................................................................*
#                                                                    *
# This file contains all the information necessary to reproduce      *
# the events generated:                                              *
#                                                                    *
# 1. software version                                                *
# 2. proc_card          : code generation info including model       *
# 3. param_card         : model primary parameters in the LH format  *
# 4. run_card           : running parameters (collider and cuts)     *
# 5. pythia_card        : present only if pythia has been run        *
# 6. pgs_card           : present only if pgs has been run           *
# 7. delphes_cards      : present only if delphes has been run       *
#                                                                    *
#                                                                    *
#*********************************************************************
-->
<MGVersion>
#3.5.0_lo_vect
</MGVersion>
<MG5ProcCard>
<![CDATA[
#************************************************************
#*                     MadGraph5_aMC@NLO                    *
#*                                                          *
#*                *                       *                 *
#*                  *        * *        *                   *
#*                    * * * * 5 * * * *                     *
#*                  *        * *        *                   *
#*                *                       *                 *
#*                                                          *
#*                                                          *
#*         VERSION 3.5.0_lo_vect         2023-06-09         *
[1;31m#*                                                          *[1;0m
[1;31m#*          WARNING: UNKNOWN DEVELOPMENT VERSION.           *[1;0m
[1;31m#*            WARNING: DO NOT USE FOR PRODUCTION            *[1;0m
[1;31m#*                                                          *[1;0m
#*                                                          *
#*    The MadGraph5_aMC@NLO Development Team - Find us at   *
#*    https://server06.fynu.ucl.ac.be/projects/madgraph     *
#*                                                          *
#************************************************************
#*                                                          *
#*               Command File for MadGraph5_aMC@NLO         *
#*                                                          *
#*     run as ./bin/mg5_aMC  filename                       *
#*                                                          *
#************************************************************
set group_subprocesses Auto
set ignore_six_quark_processes False
set low_mem_multicore_nlo_generation False
set complex_mass_scheme False
set include_lepton_initiated_processes False
set gauge unitary
set loop_optimized_output True
set loop_color_flows False
set max_npoint_for_channel 0
set default_unset_couplings 99
set max_t_for_channel 99
set nlo_mixed_expansion True
set stdout_level DEBUG
set zerowidth_tchannel F
generate g g > t t~ g g g
define p = g u c d s u~ c~ d~ s~
define j = g u c d s u~ c~ d~ s~
define l+ = e+ mu+
define l- = e- mu-
define vl = ve vm vt
define vl~ = ve~ vm~ vt~
output madevent CODEGEN_mad_gg_ttggg --hel_recycling=False --vector_si\
ze=16384 --me_exporter=standalone_cudacpp
]]>
</MG5ProcCard>
<MGProcCard>
#*********************************************************************
#                        MadGraph/MadEvent                           *
#                   http://madgraph.hep.uiuc.edu                     *
#                                                                    *
#                          proc_card.dat                             *
#*********************************************************************
#                                                                    *
#            This Files is generated by MADGRAPH 5                   *
#                                                                    *
# WARNING: This Files is generated for MADEVENT (compatibility issue)*
#          This files is NOT a valid MG4 proc_card.dat               *
#          Running this in MG4 will NEVER reproduce the result of MG5*
#                                                                    *
#*********************************************************************
#*********************************************************************
# Process(es) requested : mg2 input                                  *
#*********************************************************************
# Begin PROCESS # This is TAG. Do not modify this line
g g > t t~ g g g           #Process
# Be carefull the coupling are here in MG5 convention
          
end_coup           # End the couplings input

done               # this tells MG there are no more procs
# End PROCESS  # This is TAG. Do not modify this line
#*********************************************************************
# Model information                                                  *
#*********************************************************************
# Begin MODEL  # This is TAG. Do not modify this line
sm
# End   MODEL  # This is TAG. Do not modify this line
#*********************************************************************
# Start multiparticle definitions                                    *
#*********************************************************************
# Begin MULTIPARTICLES # This is TAG. Do not modify this line

# End  MULTIPARTICLES # This is TAG. Do not modify this line
</MGProcCard>
<MGRunCard>
<![CDATA[
#*********************************************************************
#                       MadGraph5_aMC@NLO                            *
#                                                                    *
#                     run_card.dat MadEvent                          *
#                                                                    *
#  This file is used to set the parameters of the run.               *
#                                                                    *
#  Some notation/conventions:                                        *
#                                                                    *
#   Lines starting with a '# ' are info or comments                  *
#                                                                    *
#   mind the format:   value    = variable     ! comment             *
#                                                                    *
#   To display more options, you can type the command:               *
#      update to_full                                                *
#*********************************************************************
#                                                                    
#*********************************************************************
# Tag name for the run (one word)                                    *
#*********************************************************************
  tag_1     = run_tag ! name of the run 
#*********************************************************************
# Number of events and rnd seed                                      *
# Warning: Do not generate more than 1M events in a single run       *
#*********************************************************************
  10 = nevents ! Number of unweighted events requested 
 21 = iseed   ! rnd seed (0=assigned automatically=default))
#*********************************************************************
# Collider type and energy                                           *
# lpp: 0=No PDF, 1=proton, -1=antiproton,                            *
#                2=elastic photon of proton/ion beam                 *
#             +/-3=PDF of electron/positron beam                     *
#             +/-4=PDF of muon/antimuon beam                         *
#*********************************************************************
     1        = lpp1    ! beam 1 type 
     1        = lpp2    ! beam 2 type
     6500.0     = ebeam1  ! beam 1 total energy in GeV
     6500.0     = ebeam2  ! beam 2 total energy in GeV
# To see polarised beam options: type "update beam_pol"

#*********************************************************************
# PDF CHOICE: this automatically fixes alpha_s and its evol.         *
# pdlabel: lhapdf=LHAPDF (installation needed) [1412.7420]           *
#          iww=Improved Weizsaecker-Williams Approx.[hep-ph/9310350] *
#          eva=Effective W/Z/A Approx.       [2111.02442]            *
#          edff=EDFF in gamma-UPC            [eq.(11) in 2207.03012] *
#          chff=ChFF in gamma-UPC            [eq.(13) in 2207.03012] *
#          none=No PDF, same as lhapdf with lppx=0                   *
#*********************************************************************
     nn23lo1    = pdlabel     ! PDF set 
     230000    = lhaid     ! if pdlabel=lhapdf, this is the lhapdf number
# To see heavy ion options: type "update ion_pdf"
#*********************************************************************
# Renormalization and factorization scales                           *
#*********************************************************************
 False = fixed_ren_scale  ! if .true. use fixed ren scale
     False = fixed_fac_scale  ! if .true. use fixed fac scale
 91.188  = scale            ! fixed ren scale
 91.188  = dsqrt_q2fact1    ! fixed fact scale for pdf1
 91.188  = dsqrt_q2fact2    ! fixed fact scale for pdf2
 -1 = dynamical_scale_choice ! Choose one of the preselected dynamical choices
 1.0  = scalefact        ! scale factor for event-by-event scales

 
#*********************************************************************
# Type and output format
#*********************************************************************
  False     = gridpack  !True = setting up the grid pack
  -1.0 = time_of_flight ! threshold (in mm) below which the invariant livetime is not written (-1 means not written)
  average =  event_norm       ! average/sum. Normalization of the weight in the LHEF
# To see MLM/CKKW  merging options: type "update MLM" or "update CKKW"

#*********************************************************************
#
#*********************************************************************
# Phase-Space Optimization strategy (basic options)
#*********************************************************************
   0  = nhel          ! using helicities importance sampling or not.
                             ! 0: sum over helicity, 1: importance sampling
   1  = sde_strategy  ! default integration strategy (hep-ph/2021.00773)
                             ! 1 is old strategy (using amp square)
			     ! 2 is new strategy (using only the denominator)
# To see advanced option for Phase-Space optimization: type "update psoptim"			     
#*********************************************************************
# Customization (custom cuts/scale/bias/...)                         *
# list of files containing fortran function that overwrite default   *
#*********************************************************************
  = custom_fcts ! List of files containing user hook function
#*******************************                                                 
# Parton level cuts definition *
#*******************************
  0.0  = dsqrt_shat ! minimal shat for full process
#                                                                    
#
#*********************************************************************
# BW cutoff (M+/-bwcutoff*Gamma) ! Define on/off-shell for "$" and decay  
#*********************************************************************
  15.0  = bwcutoff      ! (M+/-bwcutoff*Gamma)
#*********************************************************************
# Standard Cuts                                                      *
#*********************************************************************
# Minimum and maximum pt's (for max, -1 means no cut)                *
#*********************************************************************
 20.0  = ptj       ! minimum pt for the jets 
 -1.0  = ptjmax    ! maximum pt for the jets
 {} = pt_min_pdg ! pt cut for other particles (use pdg code). Applied on particle and anti-particle
 {}	= pt_max_pdg ! pt cut for other particles (syntax e.g. {6: 100, 25: 50}) 
#
# For display option for energy cut in the partonic center of mass frame type 'update ecut'
#
#*********************************************************************
# Maximum and minimum absolute rapidity (for max, -1 means no cut)   *
#*********************************************************************
 5.0 = etaj    ! max rap for the jets 
 {} = eta_min_pdg ! rap cut for other particles (use pdg code). Applied on particle and anti-particle
 {} = eta_max_pdg ! rap cut for other particles (syntax e.g. {6: 2.5, 23: 5})
#*********************************************************************
# Minimum and maximum DeltaR distance                                *
#*********************************************************************
 0.4 = drjj    ! min distance between jets 
 -1.0  = drjjmax ! max distance between jets
#*********************************************************************
# Minimum and maximum invariant mass for pairs                       *
#*********************************************************************
 0.0   = mmjj    ! min invariant mass of a jet pair 
 -1.0  = mmjjmax ! max invariant mass of a jet pair
 {} = mxx_min_pdg ! min invariant mass of a pair of particles X/X~ (e.g. {6:250})
 {'default': False} = mxx_only_part_antipart ! if True the invariant mass is applied only 
                       ! to pairs of particle/antiparticle and not to pairs of the same pdg codes.  
#*********************************************************************
# Inclusive cuts                                                     *
#*********************************************************************
 0.0  = ptheavy   ! minimum pt for at least one heavy final state
 0.0  = xptj ! minimum pt for at least one jet  
 #*********************************************************************
 # Control the pt's of the jets sorted by pt                          *
 #*********************************************************************
 0.0   = ptj1min ! minimum pt for the leading jet in pt
 0.0   = ptj2min ! minimum pt for the second jet in pt
 0.0   = ptj3min ! minimum pt for the third jet in pt
 -1.0  = ptj1max ! maximum pt for the leading jet in pt 
 -1.0  = ptj2max ! maximum pt for the second jet in pt
 -1.0  = ptj3max ! maximum pt for the third jet in pt
 0   = cutuse  ! reject event if fails any (0) / all (1) jet pt cuts
 #*********************************************************************
 # Control the Ht(k)=Sum of k leading jets                            *
 #*********************************************************************
 0.0   = htjmin ! minimum jet HT=Sum(jet pt)
 -1.0  = htjmax ! maximum jet HT=Sum(jet pt)
 0.0   = ihtmin  !inclusive Ht for all partons (including b)
 -1.0  = ihtmax  !inclusive Ht for all partons (including b)
 0.0   = ht2min ! minimum Ht for the two leading jets
 0.0   = ht3min ! minimum Ht for the three leading jets
 -1.0  = ht2max ! maximum Ht for the two leading jets
 -1.0  = ht3max ! maximum Ht for the three leading jets
 #*********************************************************************
 # WBF cuts                                                           *
 #*********************************************************************
 0.0   = xetamin ! minimum rapidity for two jets in the WBF case  
 0.0   = deltaeta ! minimum rapidity for two jets in the WBF case 
#*********************************************************************
# maximal pdg code for quark to be considered as a light jet         *
# (otherwise b cuts are applied)                                     *
#*********************************************************************
 4 = maxjetflavor    ! Maximum jet pdg code
#*********************************************************************
#
#*********************************************************************
# Store info for systematics studies                                 *
# WARNING: Do not use for interference type of computation           *
#*********************************************************************
   True  = use_syst      ! Enable systematics studies
#
systematics = systematics_program ! none, systematics [python], SysCalc [depreceted, C++]
['--mur=0.5,1,2', '--muf=0.5,1,2', '--pdf=errorset'] = systematics_arguments ! see: https://cp3.irmp.ucl.ac.be/projects/madgraph/wiki/Systematics#Systematicspythonmodule

#*********************************************************************
# Options for the cudacpp plugin
#*********************************************************************

# Set cudacpp-specific values of non-cudacpp-specific options
-O3 -ffast-math -fbounds-check = global_flag ! build flags for Fortran code (for a fair comparison to cudacpp)

# New cudacpp-specific options (default values are defined in banner.py)
FORTRAN = cudacpp_backend ! valid backends are FORTRAN, CPP, CUDA
]]>
</MGRunCard>
<slha>
######################################################################
## PARAM_CARD AUTOMATICALY GENERATED BY MG5 FOLLOWING UFO MODEL   ####
######################################################################
##                                                                  ##
##  Width set on Auto will be computed following the information    ##
##        present in the decay.py files of the model.               ##
##        See  arXiv:1402.1178 for more details.                    ##
##                                                                  ##
######################################################################

###################################
## INFORMATION FOR MASS
###################################
Block mass 
    5 4.700000e+00 # MB 
    6 1.730000e+02 # MT 
   15 1.777000e+00 # MTA 
   23 9.118800e+01 # MZ 
   25 1.250000e+02 # MH 
## Dependent parameters, given by model restrictions.
## Those values should be edited following the 
## analytical expression. MG5 ignores those values 
## but they are important for interfacing the output of MG5
## to external program such as Pythia.
  1 0.000000e+00 # d : 0.0 
  2 0.000000e+00 # u : 0.0 
  3 0.000000e+00 # s : 0.0 
  4 0.000000e+00 # c : 0.0 
  11 0.000000e+00 # e- : 0.0 
  12 0.000000e+00 # ve : 0.0 
  13 0.000000e+00 # mu- : 0.0 
  14 0.000000e+00 # vm : 0.0 
  16 0.000000e+00 # vt : 0.0 
  21 0.000000e+00 # g : 0.0 
  22 0.000000e+00 # a : 0.0 
  24 8.041900e+01 # w+ : cmath.sqrt(MZ__exp__2/2. + cmath.sqrt(MZ__exp__4/4. - (aEW*cmath.pi*MZ__exp__2)/(Gf*sqrt__2))) 

###################################
## INFORMATION FOR SMINPUTS
###################################
Block sminputs 
    1 1.325070e+02 # aEWM1 
    2 1.166390e-05 # Gf 
    3 1.180000e-01 # aS (Note that Parameter not used if you use a PDF set) 

###################################
## INFORMATION FOR YUKAWA
###################################
Block yukawa 
    5 4.700000e+00 # ymb 
    6 1.730000e+02 # ymt 
   15 1.777000e+00 # ymtau 

###################################
## INFORMATION FOR DECAY
###################################
DECAY   6 1.491500e+00 # WT 
DECAY  23 2.441404e+00 # WZ 
DECAY  24 2.047600e+00 # WW 
DECAY  25 6.382339e-03 # WH 
## Dependent parameters, given by model restrictions.
## Those values should be edited following the 
## analytical expression. MG5 ignores those values 
## but they are important for interfacing the output of MG5
## to external program such as Pythia.
DECAY  1 0.000000e+00 # d : 0.0 
DECAY  2 0.000000e+00 # u : 0.0 
DECAY  3 0.000000e+00 # s : 0.0 
DECAY  4 0.000000e+00 # c : 0.0 
DECAY  5 0.000000e+00 # b : 0.0 
DECAY  11 0.000000e+00 # e- : 0.0 
DECAY  12 0.000000e+00 # ve : 0.0 
DECAY  13 0.000000e+00 # mu- : 0.0 
DECAY  14 0.000000e+00 # vm : 0.0 
DECAY  15 0.000000e+00 # ta- : 0.0 
DECAY  16 0.000000e+00 # vt : 0.0 
DECAY  21 0.000000e+00 # g : 0.0 
DECAY  22 0.000000e+00 # a : 0.0
</slha>
<MGGenerationInfo>
#  Number of Events        :       10
#  Integrated weight (pb)  :       126.29054715810001
</MGGenerationInfo>
</header>
<init>
2212 2212 6.500000e+03 6.500000e+03 0 0 247000 247000 -4 1
1.262905e+02 3.987306e-01 1.262905e+02 1
<generator name='MadGraph5_aMC@NLO' version='3.5.0_lo_vect'>please cite 1405.0301 </generator>
</init>
<event>
 7      1 +1.2629055e+02 3.69665400e+02 7.54677100e-03 1.14097200e-01
       21 -1    0    0  503  502 +0.0000000000e+00 +0.0000000000e+00 +1.0351776021e+03 1.0351776021e+03 0.0000000000e+00 0.0000e+00 -1.0000e+00
       21 -1    0    0  505  503 -0.0000000000e+00 -0.0000000000e+00 -3.5332778214e+02 3.5332778214e+02 0.0000000000e+00 0.0000e+00 1.0000e+00
        6  1    1    2  501    0 +1.7491162734e+02 -2.4533417234e+02 +5.2686525782e+02 6.3110928799e+02 1.7300000000e+02 0.0000e+00 -1.0000e+00
       -6  1    1    2    0  506 -3.0056667055e+02 +2.5429174717e+02 +5.2556246764e+01 4.3323870464e+02 1.7300000000e+02 0.0000e+00 1.0000e+00
       21  1    1    2  504  501 +2.3713552632e+01 +3.6230725783e+00 +3.7561338829e+01 4.4568076108e+01 0.0000000000e+00 0.0000e+00 1.0000e+00
       21  1    1    2  505  504 +1.1735138223e+02 +8.0104774948e-01 -7.4323881403e+01 1.3891014339e+02 0.0000000000e+00 0.0000e+00 1.0000e+00
       21  1    1    2  506  502 -1.5409891658e+01 -1.3381695161e+01 +1.3919085794e+02 1.4067917209e+02 0.0000000000e+00 0.0000e+00 -1.0000e+00
<mgrwt>
<rscale>  5 0.36966538E+03</rscale>
<asrwt>0</asrwt>
<pdfrwt beam="1">  1       21 0.15925809E+00 0.36966538E+03</pdfrwt>
<pdfrwt beam="2">  1       21 0.54358121E-01 0.36966538E+03</pdfrwt>
<totfact> 0.70997405E+02</totfact>
</mgrwt>
</event>
<event>
 7      1 +1.2629055e+02 2.05933100e+02 7.54677100e-03 1.09491200e-01
       21 -1    0    0  506  502 +0.0000000000e+00 +0.0000000000e+00 +1.6409032979e+02 1.6409032979e+02 0.0000000000e+00 0.0000e+00 1.0000e+00
       21 -1    0    0  504  503 -0.0000000000e+00 -0.0000000000e+00 -1.1850575809e+03 1.1850575809e+03 0.0000000000e+00 0.0000e+00 1.0000e+00
        6  1    1    2  501    0 +1.1722907497e+02 +1.3564197903e+01 -4.2998558775e+02 4.7827110424e+02 1.7300000000e+02 0.0000e+00 -1.0000e+00
       -6  1    1    2    0  503 -1.0508484701e+02 -2.1463998558e+01 -5.6530976726e+02 6.0083913093e+02 1.7300000000e+02 0.0000e+00 1.0000e+00
       21  1    1    2  504  502 -5.5538589137e+01 +1.0897580133e+02 +6.6651063337e+00 1.2249360719e+02 0.0000000000e+00 0.0000e+00 1.0000e+00
       21  1    1    2  505  501 +4.8619959324e+00 -1.0300878762e+02 -3.4923807299e+01 1.0887663499e+02 0.0000000000e+00 0.0000e+00 1.0000e+00
       21  1    1    2  506  505 +3.8532365251e+01 +1.9327869436e+00 +2.5868049151e+00 3.8667433286e+01 0.0000000000e+00 0.0000e+00 1.0000e+00
<mgrwt>
<rscale>  5 0.20593309E+03</rscale>
<asrwt>0</asrwt>
<pdfrwt beam="1">  1       21 0.25244666E-01 0.20593309E+03</pdfrwt>
<pdfrwt beam="2">  1       21 0.18231655E+00 0.20593309E+03</pdfrwt>
<totfact> 0.25761710E+03</totfact>
</mgrwt>
</event>
<event>
 7      1 +1.2629055e+02 4.18896100e+02 7.54677100e-03 1.11889400e-01
       21 -1    0    0  505  502 +0.0000000000e+00 +0.0000000000e+00 +4.5833826260e+02 4.5833826260e+02 0.0000000000e+00 0.0000e+00 -1.0000e+00
       21 -1    0    0  501  503 -0.0000000000e+00 -0.0000000000e+00 -1.0847962694e+03 1.0847962694e+03 0.0000000000e+00 0.0000e+00 -1.0000e+00
        6  1    1    2  501    0 +1.2072924289e+02 -2.8442020846e+02 +5.5599646032e+01 3.5845603037e+02 1.7300000000e+02 0.0000e+00 -1.0000e+00
       -6  1    1    2    0  502 -2.5976449154e+02 +4.4469457635e+02 -2.1713658501e+02 5.8507106735e+02 1.7300000000e+02 0.0000e+00 -1.0000e+00
       21  1    1    2  504  506 +1.6268059694e+02 -9.4891761153e+01 -4.6663546354e+02 5.0320778888e+02 0.0000000000e+00 0.0000e+00 -1.0000e+00
       21  1    1    2  505  504 -5.7161646377e+00 -4.7578367318e+01 +3.1495279572e+01 5.7343946586e+01 0.0000000000e+00 0.0000e+00 -1.0000e+00
       21  1    1    2  506  503 -1.7929183653e+01 -1.7804239413e+01 -2.9780883886e+01 3.9055698848e+01 0.0000000000e+00 0.0000e+00 1.0000e+00
<mgrwt>
<rscale>  5 0.41889613E+03</rscale>
<asrwt>0</asrwt>
<pdfrwt beam="1">  1       21 0.70513579E-01 0.41889613E+03</pdfrwt>
<pdfrwt beam="2">  1       21 0.16689173E+00 0.41889613E+03</pdfrwt>
<totfact> 0.34235432E+02</totfact>
</mgrwt>
</event>
<event>
 7      1 +1.2629055e+02 1.78250900e+02 7.54677100e-03 1.15490700e-01
       21 -1    0    0  504  502 +0.0000000000e+00 +0.0000000000e+00 +3.5274996148e+02 3.5274996148e+02 0.0000000000e+00 0.0000e+00 1.0000e+00
       21 -1    0    0  501  503 -0.0000000000e+00 -0.0000000000e+00 -3.5395476214e+02 3.5395476214e+02 0.0000000000e+00 0.0000e+00 1.0000e+00
        6  1    1    2  501    0 +4.4378303229e+01 -1.0915041204e+01 -1.2501368507e+02 2.1827962199e+02 1.7300000000e+02 0.0000e+00 1.0000e+00
       -6  1    1    2    0  502 +3.2307188639e+01 -1.2393026722e+02 -2.2547283436e+01 2.1642515002e+02 1.7300000000e+02 0.0000e+00 1.0000e+00
       21  1    1    2  504  506 -2.7059172767e+01 +1.5903442939e+01 +5.4677698149e+01 6.3045769113e+01 0.0000000000e+00 0.0000e+00 1.0000e+00
       21  1    1    2  505  503 +2.1591196259e+01 +5.6309222184e+00 -2.3483429625e+01 3.2393803542e+01 0.0000000000e+00 0.0000e+00 1.0000e+00
       21  1    1    2  506  505 -7.1217515360e+01 +1.1331094327e+02 +1.1516189933e+02 1.7656037895e+02 0.0000000000e+00 0.0000e+00 1.0000e+00
<mgrwt>
<rscale>  5 0.17825087E+03</rscale>
<asrwt>0</asrwt>
<pdfrwt beam="1">  1       21 0.54269225E-01 0.17825087E+03</pdfrwt>
<pdfrwt beam="2">  1       21 0.54454579E-01 0.17825087E+03</pdfrwt>
<totfact> 0.10323626E+04</totfact>
</mgrwt>
</event>
<event>
 7      1 +1.2629055e+02 3.38780500e+02 7.54677100e-03 1.10273800e-01
       21 -1    0    0  505  502 +0.0000000000e+00 +0.0000000000e+00 +3.7634593792e+02 3.7634593792e+02 0.0000000000e+00 0.0000e+00 -1.0000e+00
       21 -1    0    0  506  503 -0.0000000000e+00 -0.0000000000e+00 -7.3063774486e+02 7.3063774486e+02 0.0000000000e+00 0.0000e+00 1.0000e+00
        6  1    1    2  501    0 -2.8811972811e+02 +1.4359987057e+02 -3.7589096011e+02 5.2426797961e+02 1.7300000000e+02 0.0000e+00 1.0000e+00
       -6  1    1    2    0  504 +2.0273028807e+02 -1.2091086687e+02 -2.3890034293e+01 2.9363027972e+02 1.7300000000e+02 0.0000e+00 -1.0000e+00
       21  1    1    2  504  502 +6.2235483146e+01 -1.0862348078e+02 -2.5515176353e+01 1.2776282778e+02 0.0000000000e+00 0.0000e+00 -1.0000e+00
       21  1    1    2  505  503 +6.7563429941e+01 +6.9115995664e+01 +5.5025141529e+01 1.1121872200e+02 0.0000000000e+00 0.0000e+00 -1.0000e+00
       21  1    1    2  506  501 -4.4409473048e+01 +1.6818481408e+01 +1.5979222290e+01 5.0103873685e+01 0.0000000000e+00 0.0000e+00 1.0000e+00
<mgrwt>
<rscale>  5 0.33878054E+03</rscale>
<asrwt>0</asrwt>
<pdfrwt beam="1">  1       21 0.57899375E-01 0.33878054E+03</pdfrwt>
<pdfrwt beam="2">  1       21 0.11240581E+00 0.33878054E+03</pdfrwt>
<totfact> 0.15615711E+03</totfact>
</mgrwt>
</event>
<event>
 7      1 +1.2629055e+02 2.36258300e+02 7.54677100e-03 1.04234700e-01
       21 -1    0    0  505  502 +0.0000000000e+00 +0.0000000000e+00 +7.5361858293e+02 7.5361858293e+02 0.0000000000e+00 0.0000e+00 1.0000e+00
       21 -1    0    0  501  503 -0.0000000000e+00 -0.0000000000e+00 -3.7566720793e+02 3.7566720793e+02 0.0000000000e+00 0.0000e+00 -1.0000e+00
        6  1    1    2  501    0 +4.1837648932e+01 -1.2617011721e+02 +1.0014852178e+02 2.4005835490e+02 1.7300000000e+02 0.0000e+00 1.0000e+00
       -6  1    1    2    0  502 -1.6880083812e+02 +8.4790026584e+01 -2.0224319418e+02 3.2636541047e+02 1.7300000000e+02 0.0000e+00 1.0000e+00
       21  1    1    2  504  506 +1.3876942401e+02 +2.7158631026e+01 +4.4504843609e+02 4.6697179224e+02 0.0000000000e+00 0.0000e+00 1.0000e+00
       21  1    1    2  505  504 -3.5523479955e+01 -3.3842366565e+00 +5.1040092724e+01 6.2277297236e+01 0.0000000000e+00 0.0000e+00 1.0000e+00
       21  1    1    2  506  503 +2.3717245131e+01 +1.7605696253e+01 -1.6042481418e+01 3.3612936010e+01 0.0000000000e+00 0.0000e+00 1.0000e+00
<mgrwt>
<rscale>  5 0.23625830E+03</rscale>
<asrwt>0</asrwt>
<pdfrwt beam="1">  1       21 0.11594132E+00 0.23625830E+03</pdfrwt>
<pdfrwt beam="2">  1       21 0.57794955E-01 0.23625830E+03</pdfrwt>
<totfact> 0.15525333E+03</totfact>
</mgrwt>
</event>
<event>
 7      1 +1.2629055e+02 3.56609000e+02 7.54677100e-03 1.04234700e-01
       21 -1    0    0  503  502 +0.0000000000e+00 +0.0000000000e+00 +5.2179528712e+02 5.2179528712e+02 0.0000000000e+00 0.0000e+00 1.0000e+00
       21 -1    0    0  506  503 -0.0000000000e+00 -0.0000000000e+00 -1.6158073564e+03 1.6158073564e+03 0.0000000000e+00 0.0000e+00 1.0000e+00
        6  1    1    2  501    0 +8.5017122463e+01 -4.4060437546e+01 -2.3428262579e+02 3.0657231123e+02 1.7300000000e+02 0.0000e+00 1.0000e+00
       -6  1    1    2    0  505 +2.4613439976e+02 +6.0858011986e+01 -1.0183575537e+03 1.0636103363e+03 1.7300000000e+02 0.0000e+00 1.0000e+00
       21  1    1    2  504  502 -1.4844592031e+02 +8.4032178849e+01 +2.6751200864e+02 3.1727003184e+02 0.0000000000e+00 0.0000e+00 1.0000e+00
       21  1    1    2  505  504 -2.1534133223e+02 -9.5554207679e+01 +8.7266731280e+01 2.5123291655e+02 0.0000000000e+00 0.0000e+00 1.0000e+00
       21  1    1    2  506  501 +3.2635730313e+01 -5.2755456099e+00 -1.9615062971e+02 1.9891704756e+02 0.0000000000e+00 0.0000e+00 -1.0000e+00
<mgrwt>
<rscale>  5 0.30397107E+03</rscale>
<asrwt>0</asrwt>
<pdfrwt beam="1">  1       21 0.80276199E-01 0.35660904E+03</pdfrwt>
<pdfrwt beam="2">  1       21 0.24858574E+00 0.35660904E+03</pdfrwt>
<totfact> 0.77090542E+01</totfact>
</mgrwt>
</event>
<event>
 7      1 +1.2629055e+02 2.52754000e+02 7.54677100e-03 1.16597700e-01
       21 -1    0    0  503  502 +0.0000000000e+00 +0.0000000000e+00 +6.1382159719e+02 6.1382159719e+02 0.0000000000e+00 0.0000e+00 1.0000e+00
       21 -1    0    0  505  503 -0.0000000000e+00 -0.0000000000e+00 -1.7291494140e+02 1.7291494140e+02 0.0000000000e+00 0.0000e+00 1.0000e+00
        6  1    1    2  501    0 +1.7833770434e+02 +1.8883218646e+01 +2.6599273694e+02 3.6447503185e+02 1.7300000000e+02 0.0000e+00 1.0000e+00
       -6  1    1    2    0  502 -1.9138980701e+02 +3.0949363330e+00 +1.9836397097e+02 3.2544876991e+02 1.7300000000e+02 0.0000e+00 1.0000e+00
       21  1    1    2  504  506 +2.1142902671e+01 +2.4020272978e+00 -3.4316996793e+00 2.1553854207e+01 0.0000000000e+00 0.0000e+00 -1.0000e+00
       21  1    1    2  505  504 -2.6750760786e+01 -6.2161705561e+00 -3.5561735917e+01 4.4931960123e+01 0.0000000000e+00 0.0000e+00 -1.0000e+00
       21  1    1    2  506  501 +1.8659960783e+01 -1.8164011721e+01 +1.5543383476e+01 3.0326922496e+01 0.0000000000e+00 0.0000e+00 1.0000e+00
<mgrwt>
<rscale>  5 0.25275402E+03</rscale>
<asrwt>0</asrwt>
<pdfrwt beam="1">  1       21 0.94434091E-01 0.25275402E+03</pdfrwt>
<pdfrwt beam="2">  1       21 0.26602299E-01 0.25275402E+03</pdfrwt>
<totfact> 0.12178080E+04</totfact>
</mgrwt>
</event>
<event>
 7      1 +1.2629055e+02 2.53295200e+02 7.54677100e-03 1.13555300e-01
       21 -1    0    0  503  502 +0.0000000000e+00 +0.0000000000e+00 +7.4784155447e+02 7.4784155447e+02 0.0000000000e+00 0.0000e+00 1.0000e+00
       21 -1    0    0  504  503 -0.0000000000e+00 -0.0000000000e+00 -4.9719291060e+02 4.9719291060e+02 0.0000000000e+00 0.0000e+00 1.0000e+00
        6  1    1    2  501    0 -9.6139171900e+01 +9.0879602456e+01 -2.5760913186e+02 3.3733263604e+02 1.7300000000e+02 0.0000e+00 1.0000e+00
       -6  1    1    2    0  505 +5.1423050438e+01 +6.8287714985e+01 -2.7088723113e+00 1.9298673562e+02 1.7300000000e+02 0.0000e+00 -1.0000e+00
       21  1    1    2  504  501 -1.1804734615e+01 +2.0981209994e+01 -8.3802901076e+01 8.7192254019e+01 0.0000000000e+00 0.0000e+00 -1.0000e+00
       21  1    1    2  505  506 +5.7488508185e+01 -7.3030129143e+01 +2.7190274286e+02 2.8734896887e+02 0.0000000000e+00 0.0000e+00 1.0000e+00
       21  1    1    2  506  502 -9.6765210874e-01 -1.0711839829e+02 +3.2286680626e+02 3.4017387053e+02 0.0000000000e+00 0.0000e+00 1.0000e+00
<mgrwt>
<rscale>  5 0.23697790E+03</rscale>
<asrwt>0</asrwt>
<pdfrwt beam="1">  1       21 0.11505255E+00 0.25329522E+03</pdfrwt>
<pdfrwt beam="2">  1       21 0.76491216E-01 0.25329522E+03</pdfrwt>
<totfact> 0.84272258E+02</totfact>
</mgrwt>
</event>
<event>
 7      1 +1.2629055e+02 2.15376700e+02 7.54677100e-03 1.06933500e-01
       21 -1    0    0  503  502 +0.0000000000e+00 +0.0000000000e+00 +8.6593003483e+02 8.6593003483e+02 0.0000000000e+00 0.0000e+00 1.0000e+00
       21 -1    0    0  505  503 -0.0000000000e+00 -0.0000000000e+00 -1.6080065745e+02 1.6080065745e+02 0.0000000000e+00 0.0000e+00 1.0000e+00
        6  1    1    2  501    0 -1.6603602431e+02 -1.9712975445e+01 +3.7372235325e+02 4.4447042656e+02 1.7300000000e+02 0.0000e+00 1.0000e+00
       -6  1    1    2    0  502 +6.4594659797e+01 +1.3357257279e+02 +6.4901437872e+01 2.3697109299e+02 1.7300000000e+02 0.0000e+00 1.0000e+00
       21  1    1    2  504  501 -2.2412111279e+01 -1.7462367096e+01 +2.1647732836e+01 3.5719201188e+01 0.0000000000e+00 0.0000e+00 1.0000e+00
       21  1    1    2  505  506 +3.5376190272e+01 +2.1937338185e+01 +5.1372174260e+01 6.6119754484e+01 0.0000000000e+00 0.0000e+00 1.0000e+00
       21  1    1    2  506  504 +8.8477285516e+01 -1.1833456844e+02 +1.9348567917e+02 2.4345021705e+02 0.0000000000e+00 0.0000e+00 -1.0000e+00
<mgrwt>
<rscale>  5 0.21537673E+03</rscale>
<asrwt>0</asrwt>
<pdfrwt beam="1">  1       21 0.13322000E+00 0.21537673E+03</pdfrwt>
<pdfrwt beam="2">  1       21 0.24738563E-01 0.21537673E+03</pdfrwt>
<totfact> 0.61694729E+03</totfact>
</mgrwt>
</event>
</LesHouchesEvents>
