<LesHouchesEvents version="3.0">
<header>
<!--
#*********************************************************************
#                                                                    *
#                        MadGraph5_aMC@NLO                           *
#                                                                    *
#                           Going Beyond                             *
#                                                                    *
#                   http://madgraph.hep.uiuc.edu                     *
#                   http://madgraph.phys.ucl.ac.be                   *
#                   http://amcatnlo.cern.ch                          *
#                                                                    *
#                     The MadGraph5_aMC@NLO team                     *
#                                                                    *
#....................................................................*
#                                                                    *
# This file contains all the information necessary to reproduce      *
# the events generated:                                              *
#                                                                    *
# 1. software version                                                *
# 2. proc_card          : code generation info including model       *
# 3. param_card         : model primary parameters in the LH format  *
# 4. run_card           : running parameters (collider and cuts)     *
# 5. pythia_card        : present only if pythia has been run        *
# 6. pgs_card           : present only if pgs has been run           *
# 7. delphes_cards      : present only if delphes has been run       *
#                                                                    *
#                                                                    *
#*********************************************************************
-->
<MGVersion>
#3.5.0_lo_vect
</MGVersion>
<MG5ProcCard>
<![CDATA[
#************************************************************
#*                     MadGraph5_aMC@NLO                    *
#*                                                          *
#*                *                       *                 *
#*                  *        * *        *                   *
#*                    * * * * 5 * * * *                     *
#*                  *        * *        *                   *
#*                *                       *                 *
#*                                                          *
#*                                                          *
#*         VERSION 3.5.0_lo_vect         2023-06-09         *
[1;31m#*                                                          *[1;0m
[1;31m#*          WARNING: UNKNOWN DEVELOPMENT VERSION.           *[1;0m
[1;31m#*            WARNING: DO NOT USE FOR PRODUCTION            *[1;0m
[1;31m#*                                                          *[1;0m
#*                                                          *
#*    The MadGraph5_aMC@NLO Development Team - Find us at   *
#*    https://server06.fynu.ucl.ac.be/projects/madgraph     *
#*                                                          *
#************************************************************
#*                                                          *
#*               Command File for MadGraph5_aMC@NLO         *
#*                                                          *
#*     run as ./bin/mg5_aMC  filename                       *
#*                                                          *
#************************************************************
set group_subprocesses Auto
set ignore_six_quark_processes False
set low_mem_multicore_nlo_generation False
set complex_mass_scheme False
set include_lepton_initiated_processes False
set gauge unitary
set loop_optimized_output True
set loop_color_flows False
set max_npoint_for_channel 0
set default_unset_couplings 99
set max_t_for_channel 99
set nlo_mixed_expansion True
set stdout_level DEBUG
set zerowidth_tchannel F
generate g g > t t~ g g
define p = g u c d s u~ c~ d~ s~
define j = g u c d s u~ c~ d~ s~
define l+ = e+ mu+
define l- = e- mu-
define vl = ve vm vt
define vl~ = ve~ vm~ vt~
output madevent CODEGEN_mad_gg_ttgg --hel_recycling=False --vector_siz\
e=16384 --me_exporter=standalone_cudacpp
]]>
</MG5ProcCard>
<MGProcCard>
#*********************************************************************
#                        MadGraph/MadEvent                           *
#                   http://madgraph.hep.uiuc.edu                     *
#                                                                    *
#                          proc_card.dat                             *
#*********************************************************************
#                                                                    *
#            This Files is generated by MADGRAPH 5                   *
#                                                                    *
# WARNING: This Files is generated for MADEVENT (compatibility issue)*
#          This files is NOT a valid MG4 proc_card.dat               *
#          Running this in MG4 will NEVER reproduce the result of MG5*
#                                                                    *
#*********************************************************************
#*********************************************************************
# Process(es) requested : mg2 input                                  *
#*********************************************************************
# Begin PROCESS # This is TAG. Do not modify this line
g g > t t~ g g           #Process
# Be carefull the coupling are here in MG5 convention
          
end_coup           # End the couplings input

done               # this tells MG there are no more procs
# End PROCESS  # This is TAG. Do not modify this line
#*********************************************************************
# Model information                                                  *
#*********************************************************************
# Begin MODEL  # This is TAG. Do not modify this line
sm
# End   MODEL  # This is TAG. Do not modify this line
#*********************************************************************
# Start multiparticle definitions                                    *
#*********************************************************************
# Begin MULTIPARTICLES # This is TAG. Do not modify this line

# End  MULTIPARTICLES # This is TAG. Do not modify this line
</MGProcCard>
<MGRunCard>
<![CDATA[
#*********************************************************************
#                       MadGraph5_aMC@NLO                            *
#                                                                    *
#                     run_card.dat MadEvent                          *
#                                                                    *
#  This file is used to set the parameters of the run.               *
#                                                                    *
#  Some notation/conventions:                                        *
#                                                                    *
#   Lines starting with a '# ' are info or comments                  *
#                                                                    *
#   mind the format:   value    = variable     ! comment             *
#                                                                    *
#   To display more options, you can type the command:               *
#      update to_full                                                *
#*********************************************************************
#                                                                    
#*********************************************************************
# Tag name for the run (one word)                                    *
#*********************************************************************
  tag_1     = run_tag ! name of the run 
#*********************************************************************
# Number of events and rnd seed                                      *
# Warning: Do not generate more than 1M events in a single run       *
#*********************************************************************
  100 = nevents ! Number of unweighted events requested 
 21 = iseed   ! rnd seed (0=assigned automatically=default))
#*********************************************************************
# Collider type and energy                                           *
# lpp: 0=No PDF, 1=proton, -1=antiproton,                            *
#                2=elastic photon of proton/ion beam                 *
#             +/-3=PDF of electron/positron beam                     *
#             +/-4=PDF of muon/antimuon beam                         *
#*********************************************************************
     1        = lpp1    ! beam 1 type 
     1        = lpp2    ! beam 2 type
     6500.0     = ebeam1  ! beam 1 total energy in GeV
     6500.0     = ebeam2  ! beam 2 total energy in GeV
# To see polarised beam options: type "update beam_pol"

#*********************************************************************
# PDF CHOICE: this automatically fixes alpha_s and its evol.         *
# pdlabel: lhapdf=LHAPDF (installation needed) [1412.7420]           *
#          iww=Improved Weizsaecker-Williams Approx.[hep-ph/9310350] *
#          eva=Effective W/Z/A Approx.       [2111.02442]            *
#          edff=EDFF in gamma-UPC            [eq.(11) in 2207.03012] *
#          chff=ChFF in gamma-UPC            [eq.(13) in 2207.03012] *
#          none=No PDF, same as lhapdf with lppx=0                   *
#*********************************************************************
     nn23lo1    = pdlabel     ! PDF set 
     230000    = lhaid     ! if pdlabel=lhapdf, this is the lhapdf number
# To see heavy ion options: type "update ion_pdf"
#*********************************************************************
# Renormalization and factorization scales                           *
#*********************************************************************
 False = fixed_ren_scale  ! if .true. use fixed ren scale
     False = fixed_fac_scale  ! if .true. use fixed fac scale
 91.188  = scale            ! fixed ren scale
 91.188  = dsqrt_q2fact1    ! fixed fact scale for pdf1
 91.188  = dsqrt_q2fact2    ! fixed fact scale for pdf2
 -1 = dynamical_scale_choice ! Choose one of the preselected dynamical choices
 1.0  = scalefact        ! scale factor for event-by-event scales

 
#*********************************************************************
# Type and output format
#*********************************************************************
  False     = gridpack  !True = setting up the grid pack
  -1.0 = time_of_flight ! threshold (in mm) below which the invariant livetime is not written (-1 means not written)
  average =  event_norm       ! average/sum. Normalization of the weight in the LHEF
# To see MLM/CKKW  merging options: type "update MLM" or "update CKKW"

#*********************************************************************
#
#*********************************************************************
# Phase-Space Optimization strategy (basic options)
#*********************************************************************
   0  = nhel          ! using helicities importance sampling or not.
                             ! 0: sum over helicity, 1: importance sampling
   1  = sde_strategy  ! default integration strategy (hep-ph/2021.00773)
                             ! 1 is old strategy (using amp square)
			     ! 2 is new strategy (using only the denominator)
# To see advanced option for Phase-Space optimization: type "update psoptim"			     
#*********************************************************************
# Customization (custom cuts/scale/bias/...)                         *
# list of files containing fortran function that overwrite default   *
#*********************************************************************
  = custom_fcts ! List of files containing user hook function
#*******************************                                                 
# Parton level cuts definition *
#*******************************
  0.0  = dsqrt_shat ! minimal shat for full process
#                                                                    
#
#*********************************************************************
# BW cutoff (M+/-bwcutoff*Gamma) ! Define on/off-shell for "$" and decay  
#*********************************************************************
  15.0  = bwcutoff      ! (M+/-bwcutoff*Gamma)
#*********************************************************************
# Standard Cuts                                                      *
#*********************************************************************
# Minimum and maximum pt's (for max, -1 means no cut)                *
#*********************************************************************
 20.0  = ptj       ! minimum pt for the jets 
 -1.0  = ptjmax    ! maximum pt for the jets
 {} = pt_min_pdg ! pt cut for other particles (use pdg code). Applied on particle and anti-particle
 {}	= pt_max_pdg ! pt cut for other particles (syntax e.g. {6: 100, 25: 50}) 
#
# For display option for energy cut in the partonic center of mass frame type 'update ecut'
#
#*********************************************************************
# Maximum and minimum absolute rapidity (for max, -1 means no cut)   *
#*********************************************************************
 5.0 = etaj    ! max rap for the jets 
 {} = eta_min_pdg ! rap cut for other particles (use pdg code). Applied on particle and anti-particle
 {} = eta_max_pdg ! rap cut for other particles (syntax e.g. {6: 2.5, 23: 5})
#*********************************************************************
# Minimum and maximum DeltaR distance                                *
#*********************************************************************
 0.4 = drjj    ! min distance between jets 
 -1.0  = drjjmax ! max distance between jets
#*********************************************************************
# Minimum and maximum invariant mass for pairs                       *
#*********************************************************************
 0.0   = mmjj    ! min invariant mass of a jet pair 
 -1.0  = mmjjmax ! max invariant mass of a jet pair
 {} = mxx_min_pdg ! min invariant mass of a pair of particles X/X~ (e.g. {6:250})
 {'default': False} = mxx_only_part_antipart ! if True the invariant mass is applied only 
                       ! to pairs of particle/antiparticle and not to pairs of the same pdg codes.  
#*********************************************************************
# Inclusive cuts                                                     *
#*********************************************************************
 0.0  = ptheavy   ! minimum pt for at least one heavy final state
 0.0  = xptj ! minimum pt for at least one jet  
 #*********************************************************************
 # Control the pt's of the jets sorted by pt                          *
 #*********************************************************************
 0.0   = ptj1min ! minimum pt for the leading jet in pt
 0.0   = ptj2min ! minimum pt for the second jet in pt
 -1.0  = ptj1max ! maximum pt for the leading jet in pt 
 -1.0  = ptj2max ! maximum pt for the second jet in pt
 0   = cutuse  ! reject event if fails any (0) / all (1) jet pt cuts
 #*********************************************************************
 # Control the Ht(k)=Sum of k leading jets                            *
 #*********************************************************************
 0.0   = htjmin ! minimum jet HT=Sum(jet pt)
 -1.0  = htjmax ! maximum jet HT=Sum(jet pt)
 0.0   = ihtmin  !inclusive Ht for all partons (including b)
 -1.0  = ihtmax  !inclusive Ht for all partons (including b)
 #*********************************************************************
 # WBF cuts                                                           *
 #*********************************************************************
 0.0   = xetamin ! minimum rapidity for two jets in the WBF case  
 0.0   = deltaeta ! minimum rapidity for two jets in the WBF case 
#*********************************************************************
# maximal pdg code for quark to be considered as a light jet         *
# (otherwise b cuts are applied)                                     *
#*********************************************************************
 4 = maxjetflavor    ! Maximum jet pdg code
#*********************************************************************
#
#*********************************************************************
# Store info for systematics studies                                 *
# WARNING: Do not use for interference type of computation           *
#*********************************************************************
   True  = use_syst      ! Enable systematics studies
#
systematics = systematics_program ! none, systematics [python], SysCalc [depreceted, C++]
['--mur=0.5,1,2', '--muf=0.5,1,2', '--pdf=errorset'] = systematics_arguments ! see: https://cp3.irmp.ucl.ac.be/projects/madgraph/wiki/Systematics#Systematicspythonmodule

#*********************************************************************
# Options for the cudacpp plugin
#*********************************************************************

# Set cudacpp-specific values of non-cudacpp-specific options
-O3 -ffast-math -fbounds-check = global_flag ! build flags for Fortran code (for a fair comparison to cudacpp)

# New cudacpp-specific options (default values are defined in banner.py)
CUDA = cudacpp_backend ! valid backends are FORTRAN, CPP, CUDA
]]>
</MGRunCard>
<slha>
######################################################################
## PARAM_CARD AUTOMATICALY GENERATED BY MG5 FOLLOWING UFO MODEL   ####
######################################################################
##                                                                  ##
##  Width set on Auto will be computed following the information    ##
##        present in the decay.py files of the model.               ##
##        See  arXiv:1402.1178 for more details.                    ##
##                                                                  ##
######################################################################

###################################
## INFORMATION FOR MASS
###################################
Block mass 
    5 4.700000e+00 # MB 
    6 1.730000e+02 # MT 
   15 1.777000e+00 # MTA 
   23 9.118800e+01 # MZ 
   25 1.250000e+02 # MH 
## Dependent parameters, given by model restrictions.
## Those values should be edited following the 
## analytical expression. MG5 ignores those values 
## but they are important for interfacing the output of MG5
## to external program such as Pythia.
  1 0.000000e+00 # d : 0.0 
  2 0.000000e+00 # u : 0.0 
  3 0.000000e+00 # s : 0.0 
  4 0.000000e+00 # c : 0.0 
  11 0.000000e+00 # e- : 0.0 
  12 0.000000e+00 # ve : 0.0 
  13 0.000000e+00 # mu- : 0.0 
  14 0.000000e+00 # vm : 0.0 
  16 0.000000e+00 # vt : 0.0 
  21 0.000000e+00 # g : 0.0 
  22 0.000000e+00 # a : 0.0 
  24 8.041900e+01 # w+ : cmath.sqrt(MZ__exp__2/2. + cmath.sqrt(MZ__exp__4/4. - (aEW*cmath.pi*MZ__exp__2)/(Gf*sqrt__2))) 

###################################
## INFORMATION FOR SMINPUTS
###################################
Block sminputs 
    1 1.325070e+02 # aEWM1 
    2 1.166390e-05 # Gf 
    3 1.180000e-01 # aS (Note that Parameter not used if you use a PDF set) 

###################################
## INFORMATION FOR YUKAWA
###################################
Block yukawa 
    5 4.700000e+00 # ymb 
    6 1.730000e+02 # ymt 
   15 1.777000e+00 # ymtau 

###################################
## INFORMATION FOR DECAY
###################################
DECAY   6 1.491500e+00 # WT 
DECAY  23 2.441404e+00 # WZ 
DECAY  24 2.047600e+00 # WW 
DECAY  25 6.382339e-03 # WH 
## Dependent parameters, given by model restrictions.
## Those values should be edited following the 
## analytical expression. MG5 ignores those values 
## but they are important for interfacing the output of MG5
## to external program such as Pythia.
DECAY  1 0.000000e+00 # d : 0.0 
DECAY  2 0.000000e+00 # u : 0.0 
DECAY  3 0.000000e+00 # s : 0.0 
DECAY  4 0.000000e+00 # c : 0.0 
DECAY  5 0.000000e+00 # b : 0.0 
DECAY  11 0.000000e+00 # e- : 0.0 
DECAY  12 0.000000e+00 # ve : 0.0 
DECAY  13 0.000000e+00 # mu- : 0.0 
DECAY  14 0.000000e+00 # vm : 0.0 
DECAY  15 0.000000e+00 # ta- : 0.0 
DECAY  16 0.000000e+00 # vt : 0.0 
DECAY  21 0.000000e+00 # g : 0.0 
DECAY  22 0.000000e+00 # a : 0.0
</slha>
<MGGenerationInfo>
#  Number of Events        :       100
#  Integrated weight (pb)  :       251.68241357000002
</MGGenerationInfo>
</header>
<init>
2212 2212 6.500000e+03 6.500000e+03 0 0 247000 247000 -4 1
2.516824e+02 5.918499e-01 2.516824e+02 1
<generator name='MadGraph5_aMC@NLO' version='3.5.0_lo_vect'>please cite 1405.0301 </generator>
</init>
<event>
 6      1 +2.5168241e+02 3.27789400e+02 7.54677100e-03 1.16820100e-01
       21 -1    0    0  505  502 +0.0000000000e+00 +0.0000000000e+00 +3.6635434473e+02 3.6635434473e+02 0.0000000000e+00 0.0000e+00 -1.0000e+00
       21 -1    0    0  504  503 -0.0000000000e+00 -0.0000000000e+00 -5.7746491207e+02 5.7746491207e+02 0.0000000000e+00 0.0000e+00 -1.0000e+00
        6  1    1    2  501    0 -1.6106265589e+02 -1.9486318842e+02 -1.1289855985e+02 3.2647806380e+02 1.7300000000e+02 0.0000e+00 -1.0000e+00
       -6  1    1    2    0  503 +2.5927061339e+02 +1.6311724025e+02 -3.5563369920e+01 3.5358483892e+02 1.7300000000e+02 0.0000e+00 -1.0000e+00
       21  1    1    2  504  502 -6.6077941969e+01 -4.7993251501e+01 -1.3069708236e+02 1.5411480767e+02 0.0000000000e+00 0.0000e+00 -1.0000e+00
       21  1    1    2  505  501 -3.2130015538e+01 +7.9739199669e+01 +6.8048444792e+01 1.0964154642e+02 0.0000000000e+00 0.0000e+00 -1.0000e+00
<mgrwt>
<rscale>  4 0.32778940E+03</rscale>
<asrwt>0</asrwt>
<pdfrwt beam="1">  1       21 0.56362207E-01 0.32778940E+03</pdfrwt>
<pdfrwt beam="2">  1       21 0.88840756E-01 0.32778940E+03</pdfrwt>
<totfact> 0.29337916E+03</totfact>
</mgrwt>
</event>
<event>
 6      1 +2.5168241e+02 4.35920500e+02 7.54677100e-03 1.16519500e-01
       21 -1    0    0  505  502 +0.0000000000e+00 +0.0000000000e+00 +1.3466680515e+03 1.3466680515e+03 0.0000000000e+00 0.0000e+00 -1.0000e+00
       21 -1    0    0  504  503 -0.0000000000e+00 -0.0000000000e+00 -3.3374472339e+02 3.3374472339e+02 0.0000000000e+00 0.0000e+00 1.0000e+00
        6  1    1    2  501    0 -7.9615298359e+01 +4.2848595612e+02 -5.4382714052e+01 4.7204373728e+02 1.7300000000e+02 0.0000e+00 1.0000e+00
       -6  1    1    2    0  503 +1.3688207337e+02 -2.4015561575e+02 +7.6751031643e+02 8.3391396895e+02 1.7300000000e+02 0.0000e+00 -1.0000e+00
       21  1    1    2  504  502 -1.7890288770e+01 -5.1630293748e+01 +1.8115751486e+02 1.8921890723e+02 0.0000000000e+00 0.0000e+00 -1.0000e+00
       21  1    1    2  505  501 -3.9376486242e+01 -1.3670004662e+02 +1.1863821083e+02 1.8523616138e+02 0.0000000000e+00 0.0000e+00 1.0000e+00
<mgrwt>
<rscale>  4 0.43592051E+03</rscale>
<asrwt>0</asrwt>
<pdfrwt beam="1">  1       21 0.20717970E+00 0.43592051E+03</pdfrwt>
<pdfrwt beam="2">  1       21 0.51345343E-01 0.43592051E+03</pdfrwt>
<totfact> 0.35824178E+02</totfact>
</mgrwt>
</event>
<event>
 6      1 +2.5168241e+02 2.69100300e+02 7.54677100e-03 1.05831300e-01
       21 -1    0    0  504  502 +0.0000000000e+00 +0.0000000000e+00 +2.9538534412e+02 2.9538534412e+02 0.0000000000e+00 0.0000e+00 -1.0000e+00
       21 -1    0    0  501  503 -0.0000000000e+00 -0.0000000000e+00 -5.3821576667e+02 5.3821576667e+02 0.0000000000e+00 0.0000e+00 1.0000e+00
        6  1    1    2  501    0 -1.4380520936e+02 -1.2428612948e+02 -3.0870320629e+02 4.0168849845e+02 1.7300000000e+02 0.0000e+00 1.0000e+00
       -6  1    1    2    0  505 +2.0506255838e+02 +1.6027890223e+02 -1.2252429174e-01 3.1252039031e+02 1.7300000000e+02 0.0000e+00 -1.0000e+00
       21  1    1    2  504  503 -9.7877871394e+00 +1.9443527158e+01 +5.2935705567e+00 2.2402531434e+01 0.0000000000e+00 0.0000e+00 -1.0000e+00
       21  1    1    2  505  502 -5.1469561883e+01 -5.5436299907e+01 +6.0701737479e+01 9.6989690590e+01 0.0000000000e+00 0.0000e+00 1.0000e+00
<mgrwt>
<rscale>  4 0.26910029E+03</rscale>
<asrwt>0</asrwt>
<pdfrwt beam="1">  1       21 0.45443900E-01 0.26910029E+03</pdfrwt>
<pdfrwt beam="2">  1       21 0.82802425E-01 0.26910029E+03</pdfrwt>
<totfact> 0.56147950E+03</totfact>
</mgrwt>
</event>
<event>
 6      1 +2.5168241e+02 2.10539500e+02 7.54677100e-03 1.12989000e-01
       21 -1    0    0  503  502 +0.0000000000e+00 +0.0000000000e+00 +3.8201027954e+02 3.8201027954e+02 0.0000000000e+00 0.0000e+00 1.0000e+00
       21 -1    0    0  504  503 -0.0000000000e+00 -0.0000000000e+00 -4.3053127678e+02 4.3053127678e+02 0.0000000000e+00 0.0000e+00 -1.0000e+00
        6  1    1    2  501    0 -1.2495212980e+02 -3.1231972995e+01 +2.2190817021e+02 3.0945226915e+02 1.7300000000e+02 0.0000e+00 1.0000e+00
       -6  1    1    2    0  502 +9.8217275770e+01 +2.7514319754e+01 +2.2953574417e+01 2.0213742264e+02 1.7300000000e+02 0.0000e+00 1.0000e+00
       21  1    1    2  504  505 +1.3765202920e+01 +2.0719025201e+01 -2.6077046729e+02 2.6195418574e+02 0.0000000000e+00 0.0000e+00 -1.0000e+00
       21  1    1    2  505  501 +1.2969651110e+01 -1.7001371960e+01 -3.2612274576e+01 3.8997678796e+01 0.0000000000e+00 0.0000e+00 -1.0000e+00
<mgrwt>
<rscale>  4 0.21053951E+03</rscale>
<asrwt>0</asrwt>
<pdfrwt beam="1">  1       21 0.58770813E-01 0.21053951E+03</pdfrwt>
<pdfrwt beam="2">  1       21 0.66235581E-01 0.21053951E+03</pdfrwt>
<totfact> 0.55905081E+03</totfact>
</mgrwt>
</event>
<event>
 6      1 +2.5168241e+02 1.90959700e+02 7.54677100e-03 1.16820100e-01
       21 -1    0    0  503  502 +0.0000000000e+00 +0.0000000000e+00 +2.4732351095e+02 2.4732351095e+02 0.0000000000e+00 0.0000e+00 -1.0000e+00
       21 -1    0    0  501  503 -0.0000000000e+00 -0.0000000000e+00 -4.1622931279e+02 4.1622931279e+02 0.0000000000e+00 0.0000e+00 -1.0000e+00
        6  1    1    2  501    0 -3.4968460689e+01 +5.0114849083e+01 -3.8940401467e+01 1.8756237951e+02 1.7300000000e+02 0.0000e+00 -1.0000e+00
       -6  1    1    2    0  504 -9.9920955019e+01 -9.0962822195e+01 +1.9389008310e+01 2.2037097340e+02 1.7300000000e+02 0.0000e+00 -1.0000e+00
       21  1    1    2  504  505 +1.1321222410e+02 +6.5212089712e+01 -1.7194283375e+02 2.1594898103e+02 0.0000000000e+00 0.0000e+00 -1.0000e+00
       21  1    1    2  505  502 +2.1677191609e+01 -2.4364116600e+01 +2.2588425069e+01 3.9670489798e+01 0.0000000000e+00 0.0000e+00 -1.0000e+00
<mgrwt>
<rscale>  4 0.19095972E+03</rscale>
<asrwt>0</asrwt>
<pdfrwt beam="1">  1       21 0.38049771E-01 0.19095972E+03</pdfrwt>
<pdfrwt beam="2">  1       21 0.64035278E-01 0.19095972E+03</pdfrwt>
<totfact> 0.15014011E+04</totfact>
</mgrwt>
</event>
<event>
 6      1 +2.5168241e+02 1.82310700e+02 7.54677100e-03 1.06249800e-01
       21 -1    0    0  503  502 +0.0000000000e+00 +0.0000000000e+00 +2.2975644979e+01 2.2975644979e+01 0.0000000000e+00 0.0000e+00 1.0000e+00
       21 -1    0    0  501  503 -0.0000000000e+00 -0.0000000000e+00 -2.7389891426e+03 2.7389891426e+03 0.0000000000e+00 0.0000e+00 1.0000e+00
        6  1    1    2  501    0 -3.9774343668e+01 +7.1860697376e+01 -1.5645874547e+03 1.5762642106e+03 1.7300000000e+02 0.0000e+00 -1.0000e+00
       -6  1    1    2    0  505 +1.6956162126e+01 -2.2147607062e+01 -1.0768420705e+03 1.0910068161e+03 1.7300000000e+02 0.0000e+00 1.0000e+00
       21  1    1    2  504  502 +1.5964357093e+00 -2.0302213228e+01 -1.6470743515e+01 2.6191866311e+01 0.0000000000e+00 0.0000e+00 -1.0000e+00
       21  1    1    2  505  504 +2.1221745833e+01 -2.9410877086e+01 -5.8113228909e+01 6.8501894583e+01 0.0000000000e+00 0.0000e+00 -1.0000e+00
<mgrwt>
<rscale>  4 0.18231074E+03</rscale>
<asrwt>0</asrwt>
<pdfrwt beam="1">  1       21 0.35347129E-02 0.18231074E+03</pdfrwt>
<pdfrwt beam="2">  1       21 0.42138315E+00 0.18231074E+03</pdfrwt>
<totfact> 0.31261454E+03</totfact>
</mgrwt>
</event>
<event>
 6      1 +2.5168241e+02 2.91976700e+02 7.54677100e-03 1.16820100e-01
       21 -1    0    0  505  502 +0.0000000000e+00 +0.0000000000e+00 +2.8670372268e+02 2.8670372268e+02 0.0000000000e+00 0.0000e+00 1.0000e+00
       21 -1    0    0  501  503 -0.0000000000e+00 -0.0000000000e+00 -5.4763629341e+02 5.4763629341e+02 0.0000000000e+00 0.0000e+00 1.0000e+00
        6  1    1    2  501    0 +2.4454185144e+02 +7.4059564785e+01 -2.4428536625e+02 3.9356051175e+02 1.7300000000e+02 0.0000e+00 1.0000e+00
       -6  1    1    2    0  502 -2.5540689048e+01 -4.3822335888e+01 -2.0681204775e+01 1.8146469671e+02 1.7300000000e+02 0.0000e+00 -1.0000e+00
       21  1    1    2  504  503 -2.5672006986e+00 -3.5327463160e+01 -2.1319059214e+01 4.1341534303e+01 0.0000000000e+00 0.0000e+00 -1.0000e+00
       21  1    1    2  505  504 -2.1643396170e+02 +5.0902342627e+00 +2.5353059500e+01 2.1797327333e+02 0.0000000000e+00 0.0000e+00 1.0000e+00
<mgrwt>
<rscale>  4 0.25949162E+03</rscale>
<asrwt>0</asrwt>
<pdfrwt beam="1">  1       21 0.44108266E-01 0.29197671E+03</pdfrwt>
<pdfrwt beam="2">  1       21 0.84251736E-01 0.29197671E+03</pdfrwt>
<totfact> 0.56684212E+03</totfact>
</mgrwt>
</event>
<event>
 6      1 +2.5168241e+02 3.31911700e+02 7.54677100e-03 1.06249800e-01
       21 -1    0    0  503  502 +0.0000000000e+00 +0.0000000000e+00 +1.6886407886e+02 1.6886407886e+02 0.0000000000e+00 0.0000e+00 1.0000e+00
       21 -1    0    0  501  503 -0.0000000000e+00 -0.0000000000e+00 -1.3277964369e+03 1.3277964369e+03 0.0000000000e+00 0.0000e+00 1.0000e+00
        6  1    1    2  501    0 -2.3552816819e+02 +4.3009320989e+01 -5.3510543129e+02 6.1122020770e+02 1.7300000000e+02 0.0000e+00 1.0000e+00
       -6  1    1    2    0  504 -6.4353600753e+01 -1.8191090908e+02 -3.6145559490e+02 4.4476073552e+02 1.7300000000e+02 0.0000e+00 -1.0000e+00
       21  1    1    2  504  505 +2.9148817895e+02 +1.5744061390e+02 -2.5790975253e+02 4.1984562142e+02 0.0000000000e+00 0.0000e+00 1.0000e+00
       21  1    1    2  505  502 +8.3935899965e+00 -1.8539025809e+01 -4.4615793513e+00 2.0833951168e+01 0.0000000000e+00 0.0000e+00 -1.0000e+00
<mgrwt>
<rscale>  4 0.31286251E+03</rscale>
<asrwt>0</asrwt>
<pdfrwt beam="1">  1       21 0.25979089E-01 0.33191173E+03</pdfrwt>
<pdfrwt beam="2">  1       21 0.20427637E+00 0.33191173E+03</pdfrwt>
<totfact> 0.15846775E+03</totfact>
</mgrwt>
</event>
<event>
 6      1 +2.5168241e+02 2.24053400e+02 7.54677100e-03 1.15942100e-01
       21 -1    0    0  504  502 +0.0000000000e+00 +0.0000000000e+00 +2.0612600711e+02 2.0612600711e+02 0.0000000000e+00 0.0000e+00 -1.0000e+00
       21 -1    0    0  501  503 -0.0000000000e+00 -0.0000000000e+00 -4.8194032121e+02 4.8194032121e+02 0.0000000000e+00 0.0000e+00 -1.0000e+00
        6  1    1    2  501    0 +8.2619885370e+01 -1.5016339039e+02 -6.8527353068e+01 2.5298238553e+02 1.7300000000e+02 0.0000e+00 -1.0000e+00
       -6  1    1    2    0  502 +7.0715995065e+00 +1.3129790373e+02 -1.0992063215e+01 2.1757521113e+02 1.7300000000e+02 0.0000e+00 -1.0000e+00
       21  1    1    2  504  505 -2.8963390300e+01 +1.5547429758e+01 -6.9507245609e+01 7.6888606060e+01 0.0000000000e+00 0.0000e+00 -1.0000e+00
       21  1    1    2  505  503 -6.0728094577e+01 +3.3180568997e+00 -1.2678765220e+02 1.4062012560e+02 0.0000000000e+00 0.0000e+00 -1.0000e+00
<mgrwt>
<rscale>  4 0.22405339E+03</rscale>
<asrwt>0</asrwt>
<pdfrwt beam="1">  1       21 0.31711694E-01 0.22405339E+03</pdfrwt>
<pdfrwt beam="2">  1       21 0.74144664E-01 0.22405339E+03</pdfrwt>
<totfact> 0.15296650E+04</totfact>
</mgrwt>
</event>
<event>
 6      1 +2.5168241e+02 3.70255400e+02 7.54677100e-03 1.16820100e-01
       21 -1    0    0  504  502 +0.0000000000e+00 +0.0000000000e+00 +1.3004420688e+03 1.3004420688e+03 0.0000000000e+00 0.0000e+00 1.0000e+00
       21 -1    0    0  501  503 -0.0000000000e+00 -0.0000000000e+00 -3.8715794577e+02 3.8715794577e+02 0.0000000000e+00 0.0000e+00 1.0000e+00
        6  1    1    2  501    0 +2.6988101130e+01 +2.6676327920e+02 +1.2771290637e+02 3.4370131101e+02 1.7300000000e+02 0.0000e+00 -1.0000e+00
       -6  1    1    2    0  505 +2.3191888244e+02 +6.6367805211e+01 +7.1358626437e+02 7.7286830074e+02 1.7300000000e+02 0.0000e+00 1.0000e+00
       21  1    1    2  504  503 -2.3333617979e+02 -3.0289265924e+02 -9.9459295791e+01 3.9507200273e+02 0.0000000000e+00 0.0000e+00 1.0000e+00
       21  1    1    2  505  502 -2.5570803772e+01 -3.0238425173e+01 +1.7144424807e+02 1.7595840008e+02 0.0000000000e+00 0.0000e+00 1.0000e+00
<mgrwt>
<rscale>  4 0.34523748E+03</rscale>
<asrwt>0</asrwt>
<pdfrwt beam="1">  1       21 0.20006801E+00 0.37025542E+03</pdfrwt>
<pdfrwt beam="2">  1       21 0.59562762E-01 0.37025542E+03</pdfrwt>
<totfact> 0.30104287E+02</totfact>
</mgrwt>
</event>
<event>
 6      1 +2.5168241e+02 2.49476600e+02 7.54677100e-03 1.03924000e-01
       21 -1    0    0  504  502 +0.0000000000e+00 +0.0000000000e+00 +6.0111313368e+02 6.0111313368e+02 0.0000000000e+00 0.0000e+00 -1.0000e+00
       21 -1    0    0  501  503 -0.0000000000e+00 -0.0000000000e+00 -2.1660429273e+02 2.1660429273e+02 0.0000000000e+00 0.0000e+00 -1.0000e+00
        6  1    1    2  501    0 -1.7006551699e+02 -6.7747629528e+01 -1.5880673715e+01 2.5237515166e+02 1.7300000000e+02 0.0000e+00 -1.0000e+00
       -6  1    1    2    0  505 +2.1327165701e+01 -3.3284201352e+01 +8.1535692486e+01 1.9529402245e+02 1.7300000000e+02 0.0000e+00 1.0000e+00
       21  1    1    2  504  503 +2.8872919728e+01 +6.7305826433e+00 +9.2278746578e+01 9.6924265829e+01 0.0000000000e+00 0.0000e+00 -1.0000e+00
       21  1    1    2  505  502 +1.1986543156e+02 +9.4301248237e+01 +2.2657507560e+02 2.7312398647e+02 0.0000000000e+00 0.0000e+00 -1.0000e+00
<mgrwt>
<rscale>  4 0.22911148E+03</rscale>
<asrwt>0</asrwt>
<pdfrwt beam="1">  1       21 0.92478943E-01 0.24947660E+03</pdfrwt>
<pdfrwt beam="2">  1       21 0.33323737E-01 0.24947660E+03</pdfrwt>
<totfact> 0.82411976E+03</totfact>
</mgrwt>
</event>
<event>
 6      1 +2.5168241e+02 2.15554500e+02 7.54677100e-03 1.11471900e-01
       21 -1    0    0  503  502 +0.0000000000e+00 +0.0000000000e+00 +1.3702087658e+02 1.3702087658e+02 0.0000000000e+00 0.0000e+00 1.0000e+00
       21 -1    0    0  501  503 -0.0000000000e+00 -0.0000000000e+00 -6.3678744050e+02 6.3678744050e+02 0.0000000000e+00 0.0000e+00 -1.0000e+00
        6  1    1    2  501    0 -7.1312632199e+01 +1.0286342137e+02 -3.8368626528e+01 2.1695051618e+02 1.7300000000e+02 0.0000e+00 1.0000e+00
       -6  1    1    2    0  504 +1.3825638953e+01 -1.5189452544e+02 -3.3036703028e+02 4.0290752022e+02 1.7300000000e+02 0.0000e+00 -1.0000e+00
       21  1    1    2  504  505 +3.3224517331e+01 +4.4622527560e+01 -9.8554883398e+01 1.1317289233e+02 0.0000000000e+00 0.0000e+00 -1.0000e+00
       21  1    1    2  505  502 +2.4262475915e+01 +4.4085765033e+00 -3.2476023716e+01 4.0777388351e+01 0.0000000000e+00 0.0000e+00 -1.0000e+00
<mgrwt>
<rscale>  4 0.21555449E+03</rscale>
<asrwt>0</asrwt>
<pdfrwt beam="1">  1       21 0.21080135E-01 0.21555449E+03</pdfrwt>
<pdfrwt beam="2">  1       21 0.97967299E-01 0.21555449E+03</pdfrwt>
<totfact> 0.17772513E+04</totfact>
</mgrwt>
</event>
<event>
 6      1 +2.5168241e+02 2.44375300e+02 7.54677100e-03 1.11471900e-01
       21 -1    0    0  503  502 +0.0000000000e+00 +0.0000000000e+00 +5.1573012842e+02 5.1573012842e+02 0.0000000000e+00 0.0000e+00 1.0000e+00
       21 -1    0    0  501  503 -0.0000000000e+00 -0.0000000000e+00 -2.7398974572e+02 2.7398974572e+02 0.0000000000e+00 0.0000e+00 1.0000e+00
        6  1    1    2  501    0 +3.5619999945e+01 +6.5370208214e+01 +1.5848390355e+02 2.4614669651e+02 1.7300000000e+02 0.0000e+00 1.0000e+00
       -6  1    1    2    0  504 -5.5173017291e+01 -2.2937879505e+02 -2.1801020448e+01 2.9336492283e+02 1.7300000000e+02 0.0000e+00 1.0000e+00
       21  1    1    2  504  505 -1.0202110732e+01 -1.9722623660e+01 -1.6709982697e+01 2.7790078610e+01 0.0000000000e+00 0.0000e+00 1.0000e+00
       21  1    1    2  505  502 +2.9755128079e+01 +1.8373121050e+02 +1.2176748229e+02 2.2241817619e+02 0.0000000000e+00 0.0000e+00 1.0000e+00
<mgrwt>
<rscale>  4 0.24437527E+03</rscale>
<asrwt>0</asrwt>
<pdfrwt beam="1">  1       21 0.79343097E-01 0.24437527E+03</pdfrwt>
<pdfrwt beam="2">  1       21 0.42152269E-01 0.24437527E+03</pdfrwt>
<totfact> 0.73306856E+03</totfact>
</mgrwt>
</event>
<event>
 6      1 +2.5168241e+02 2.18242900e+02 7.54677100e-03 1.16820100e-01
       21 -1    0    0  505  502 +0.0000000000e+00 +0.0000000000e+00 +1.2957519124e+02 1.2957519124e+02 0.0000000000e+00 0.0000e+00 -1.0000e+00
       21 -1    0    0  501  503 -0.0000000000e+00 -0.0000000000e+00 -2.7358264595e+03 2.7358264595e+03 0.0000000000e+00 0.0000e+00 -1.0000e+00
        6  1    1    2  501    0 +1.1417654204e+02 -2.1040004919e+01 -1.3575596126e+03 1.3734540641e+03 1.7300000000e+02 0.0000e+00 -1.0000e+00
       -6  1    1    2    0  502 -1.8979878020e+01 +1.8670399718e+02 -5.7490570178e+02 6.2901842920e+02 1.7300000000e+02 0.0000e+00 1.0000e+00
       21  1    1    2  504  503 +4.7550561460e+01 +2.0402010290e+00 -6.3804461674e+02 6.3981727959e+02 0.0000000000e+00 0.0000e+00 -1.0000e+00
       21  1    1    2  505  504 -1.4274722548e+02 -1.6770419329e+02 -3.5741337129e+01 2.2311187779e+02 0.0000000000e+00 0.0000e+00 -1.0000e+00
<mgrwt>
<rscale>  4 0.21710585E+03</rscale>
<asrwt>0</asrwt>
<pdfrwt beam="1">  1       21 0.19934647E-01 0.21824286E+03</pdfrwt>
<pdfrwt beam="2">  1       21 0.42089634E+00 0.21824286E+03</pdfrwt>
<totfact> 0.14307555E+02</totfact>
</mgrwt>
</event>
<event>
 6      1 +2.5168241e+02 2.47378400e+02 7.54677100e-03 1.03924000e-01
       21 -1    0    0  504  502 +0.0000000000e+00 +0.0000000000e+00 +5.7896285718e+02 5.7896285718e+02 0.0000000000e+00 0.0000e+00 1.0000e+00
       21 -1    0    0  501  503 -0.0000000000e+00 -0.0000000000e+00 -4.1868283954e+02 4.1868283954e+02 0.0000000000e+00 0.0000e+00 1.0000e+00
        6  1    1    2  501    0 +9.3040874491e+00 -2.8220103324e+02 -6.1423225744e+01 3.3678747285e+02 1.7300000000e+02 0.0000e+00 1.0000e+00
       -6  1    1    2    0  505 -6.2884435606e-01 +1.2307509058e+02 -9.0468776934e+01 2.3078447298e+02 1.7300000000e+02 0.0000e+00 1.0000e+00
       21  1    1    2  504  503 +1.1403657586e+02 +3.1286855572e+01 +1.1447766487e+02 1.6458536910e+02 0.0000000000e+00 0.0000e+00 1.0000e+00
       21  1    1    2  505  502 -1.2271181896e+02 +1.2783908709e+02 +1.9769435544e+02 2.6548838180e+02 0.0000000000e+00 0.0000e+00 1.0000e+00
<mgrwt>
<rscale>  4 0.24737839E+03</rscale>
<asrwt>0</asrwt>
<pdfrwt beam="1">  1       21 0.89071209E-01 0.24737839E+03</pdfrwt>
<pdfrwt beam="2">  1       21 0.64412745E-01 0.24737839E+03</pdfrwt>
<totfact> 0.22894642E+03</totfact>
</mgrwt>
</event>
<event>
 6      1 +2.5168241e+02 1.76992900e+02 7.54677100e-03 1.16820100e-01
       21 -1    0    0  501  502 +0.0000000000e+00 +0.0000000000e+00 +6.6484439914e+02 6.6484439914e+02 0.0000000000e+00 0.0000e+00 -1.0000e+00
       21 -1    0    0  504  503 -0.0000000000e+00 -0.0000000000e+00 -1.5444317062e+02 1.5444317062e+02 0.0000000000e+00 0.0000e+00 -1.0000e+00
        6  1    1    2  501    0 -3.2420332962e+00 -2.8758676081e+01 +3.8619321342e+02 4.2416007629e+02 1.7300000000e+02 0.0000e+00 -1.0000e+00
       -6  1    1    2    0  503 +1.6285487001e+00 +1.9248690691e+01 +4.6916334274e+01 1.8028673464e+02 1.7300000000e+02 0.0000e+00 -1.0000e+00
       21  1    1    2  504  505 -1.6201761977e+00 +2.9450965906e+01 -6.4864800574e+01 7.1256064424e+01 0.0000000000e+00 0.0000e+00 -1.0000e+00
       21  1    1    2  505  502 +3.2336607938e+00 -1.9940980517e+01 +1.4215648139e+02 1.4358469441e+02 0.0000000000e+00 0.0000e+00 -1.0000e+00
<mgrwt>
<rscale>  4 0.17699285E+03</rscale>
<asrwt>0</asrwt>
<pdfrwt beam="1">  1       21 0.10228375E+00 0.17699285E+03</pdfrwt>
<pdfrwt beam="2">  1       21 0.23760488E-01 0.17699285E+03</pdfrwt>
<totfact> 0.13120804E+04</totfact>
</mgrwt>
</event>
<event>
 6      1 +2.5168241e+02 2.75928200e+02 7.54677100e-03 1.03924000e-01
       21 -1    0    0  504  502 +0.0000000000e+00 +0.0000000000e+00 +3.2662078378e+02 3.2662078378e+02 0.0000000000e+00 0.0000e+00 1.0000e+00
       21 -1    0    0  501  503 -0.0000000000e+00 -0.0000000000e+00 -1.0507241369e+03 1.0507241369e+03 0.0000000000e+00 0.0000e+00 1.0000e+00
        6  1    1    2  501    0 -8.6779112943e+01 -8.1931038628e+01 -8.4193561880e+01 2.2640862483e+02 1.7300000000e+02 0.0000e+00 1.0000e+00
       -6  1    1    2    0  505 +2.6251937602e+02 +2.3351196323e+01 -8.1573774985e+02 8.7453918019e+02 1.7300000000e+02 0.0000e+00 1.0000e+00
       21  1    1    2  504  503 -7.9805753359e+01 +3.9793116999e+01 +1.5127613628e+02 1.7560444139e+02 0.0000000000e+00 0.0000e+00 1.0000e+00
       21  1    1    2  505  502 -9.5934509714e+01 +1.8786725305e+01 +2.4551822352e+01 1.0079267425e+02 0.0000000000e+00 0.0000e+00 1.0000e+00
<mgrwt>
<rscale>  4 0.27592820E+03</rscale>
<asrwt>0</asrwt>
<pdfrwt beam="1">  1       21 0.50249351E-01 0.27592820E+03</pdfrwt>
<pdfrwt beam="2">  1       21 0.16164987E+00 0.27592820E+03</pdfrwt>
<totfact> 0.85569466E+02</totfact>
</mgrwt>
</event>
<event>
 6      1 +2.5168241e+02 2.04242400e+02 7.54677100e-03 1.16820100e-01
       21 -1    0    0  504  502 +0.0000000000e+00 +0.0000000000e+00 +2.3973724979e+02 2.3973724979e+02 0.0000000000e+00 0.0000e+00 -1.0000e+00
       21 -1    0    0  501  503 -0.0000000000e+00 -0.0000000000e+00 -1.6934699649e+03 1.6934699649e+03 0.0000000000e+00 0.0000e+00 -1.0000e+00
        6  1    1    2  501    0 -1.3420189391e+02 -2.7821603268e+01 -2.4791146880e+02 3.3192361515e+02 1.7300000000e+02 0.0000e+00 1.0000e+00
       -6  1    1    2    0  505 +8.9933237114e+01 +2.1568927287e+01 -8.6841590303e-04 1.9616881955e+02 1.7300000000e+02 0.0000e+00 1.0000e+00
       21  1    1    2  504  503 +2.9172670304e+01 +4.6346428875e+01 -1.3002596827e+03 1.3014124168e+03 0.0000000000e+00 0.0000e+00 -1.0000e+00
       21  1    1    2  505  502 +1.5095986488e+01 -4.0093752895e+01 +9.4439304829e+01 1.0370236316e+02 0.0000000000e+00 0.0000e+00 1.0000e+00
<mgrwt>
<rscale>  4 0.20424240E+03</rscale>
<asrwt>0</asrwt>
<pdfrwt beam="1">  1       21 0.36882656E-01 0.20424240E+03</pdfrwt>
<pdfrwt beam="2">  1       21 0.26053383E+00 0.20424240E+03</pdfrwt>
<totfact> 0.40272661E+02</totfact>
</mgrwt>
</event>
<event>
 6      1 +2.5168241e+02 2.03366400e+02 7.54677100e-03 1.11910500e-01
       21 -1    0    0  501  502 +0.0000000000e+00 +0.0000000000e+00 +2.1448747364e+02 2.1448747364e+02 0.0000000000e+00 0.0000e+00 1.0000e+00
       21 -1    0    0  504  503 -0.0000000000e+00 -0.0000000000e+00 -8.5116606653e+02 8.5116606653e+02 0.0000000000e+00 0.0000e+00 1.0000e+00
        6  1    1    2  501    0 -3.3380950433e+01 -9.5152132296e+01 +7.3433042674e+01 2.1328297609e+02 1.7300000000e+02 0.0000e+00 1.0000e+00
       -6  1    1    2    0  503 -5.2734439698e+01 +1.4873362460e+02 -2.4060809876e+02 3.3574375557e+02 1.7300000000e+02 0.0000e+00 1.0000e+00
       21  1    1    2  504  505 -4.9937029740e+01 +7.1368251910e+00 -2.2269045241e+02 2.2833238668e+02 0.0000000000e+00 0.0000e+00 1.0000e+00
       21  1    1    2  505  502 +1.3605241987e+02 -6.0718317496e+01 -2.4681308439e+02 2.8829442183e+02 0.0000000000e+00 0.0000e+00 1.0000e+00
<mgrwt>
<rscale>  4 0.20336642E+03</rscale>
<asrwt>0</asrwt>
<pdfrwt beam="1">  1       21 0.32998073E-01 0.20336642E+03</pdfrwt>
<pdfrwt beam="2">  1       21 0.13094863E+00 0.20336642E+03</pdfrwt>
<totfact> 0.37182223E+03</totfact>
</mgrwt>
</event>
<event>
 6      1 +2.5168241e+02 2.38695500e+02 7.54677100e-03 1.16820100e-01
       21 -1    0    0  505  502 +0.0000000000e+00 +0.0000000000e+00 +1.0368567140e+03 1.0368567140e+03 0.0000000000e+00 0.0000e+00 -1.0000e+00
       21 -1    0    0  504  503 -0.0000000000e+00 -0.0000000000e+00 -1.2934083192e+02 1.2934083192e+02 0.0000000000e+00 0.0000e+00 -1.0000e+00
        6  1    1    2  501    0 -1.1701974000e+02 -9.6587225204e+01 +5.1086787019e+02 5.6030142996e+02 1.7300000000e+02 0.0000e+00 -1.0000e+00
       -6  1    1    2    0  503 +1.0660164781e+02 +1.3109094675e+02 +1.5390993343e+02 2.8664614988e+02 1.7300000000e+02 0.0000e+00 -1.0000e+00
       21  1    1    2  504  502 -1.3324403923e+01 +1.5423610194e+01 -3.2583141517e+01 3.8432910409e+01 0.0000000000e+00 0.0000e+00 -1.0000e+00
       21  1    1    2  505  501 +2.3742496121e+01 -4.9927331741e+01 +2.7532121994e+02 2.8081705562e+02 0.0000000000e+00 0.0000e+00 -1.0000e+00
<mgrwt>
<rscale>  4 0.23869547E+03</rscale>
<asrwt>0</asrwt>
<pdfrwt beam="1">  1       21 0.15951641E+00 0.23869547E+03</pdfrwt>
<pdfrwt beam="2">  1       21 0.19898590E-01 0.23869547E+03</pdfrwt>
<totfact> 0.57060124E+03</totfact>
</mgrwt>
</event>
<event>
 6      1 +2.5168241e+02 2.24007600e+02 7.54677100e-03 1.03924000e-01
       21 -1    0    0  504  502 +0.0000000000e+00 +0.0000000000e+00 +2.0513115128e+02 2.0513115128e+02 0.0000000000e+00 0.0000e+00 -1.0000e+00
       21 -1    0    0  501  503 -0.0000000000e+00 -0.0000000000e+00 -1.7345668191e+03 1.7345668191e+03 0.0000000000e+00 0.0000e+00 1.0000e+00
        6  1    1    2  501    0 -1.6881627505e+02 +1.6143455066e+02 -5.1839614080e+02 5.9432617952e+02 1.7300000000e+02 0.0000e+00 -1.0000e+00
       -6  1    1    2    0  505 +6.0592018220e+01 -1.0245992917e+02 -1.0577520350e+03 1.0783959372e+03 1.7300000000e+02 0.0000e+00 1.0000e+00
       21  1    1    2  504  503 +7.5031812092e+01 -1.3398392287e+02 -2.7918560858e+01 1.5607982077e+02 0.0000000000e+00 0.0000e+00 -1.0000e+00
       21  1    1    2  505  502 +3.3192444741e+01 +7.5009301383e+01 +7.4631068830e+01 1.1089603292e+02 0.0000000000e+00 0.0000e+00 1.0000e+00
<mgrwt>
<rscale>  4 0.22400758E+03</rscale>
<asrwt>0</asrwt>
<pdfrwt beam="1">  1       21 0.31558639E-01 0.22400758E+03</pdfrwt>
<pdfrwt beam="2">  1       21 0.26685643E+00 0.22400758E+03</pdfrwt>
<totfact> 0.49157474E+02</totfact>
</mgrwt>
</event>
<event>
 6      1 +2.5168241e+02 1.95996600e+02 7.54677100e-03 1.03924000e-01
       21 -1    0    0  504  502 +0.0000000000e+00 +0.0000000000e+00 +1.0826868925e+03 1.0826868925e+03 0.0000000000e+00 0.0000e+00 1.0000e+00
       21 -1    0    0  501  503 -0.0000000000e+00 -0.0000000000e+00 -1.4205922472e+02 1.4205922472e+02 0.0000000000e+00 0.0000e+00 1.0000e+00
        6  1    1    2  501    0 +5.5763052032e+01 +1.0505333210e+02 -1.4345230302e+01 2.1042933776e+02 1.7300000000e+02 0.0000e+00 1.0000e+00
       -6  1    1    2    0  505 -4.4609312400e+00 +3.2807971068e+01 +4.1580686827e+02 4.5157570193e+02 1.7300000000e+02 0.0000e+00 1.0000e+00
       21  1    1    2  504  503 -6.7331337122e+01 -1.1374417586e+02 +4.4691042319e+02 4.6604739336e+02 0.0000000000e+00 0.0000e+00 1.0000e+00
       21  1    1    2  505  502 +1.6029216330e+01 -2.4117127310e+01 +9.2255606590e+01 9.6693684142e+01 0.0000000000e+00 0.0000e+00 -1.0000e+00
<mgrwt>
<rscale>  4 0.19599656E+03</rscale>
<asrwt>0</asrwt>
<pdfrwt beam="1">  1       21 0.16656721E+00 0.19599656E+03</pdfrwt>
<pdfrwt beam="2">  1       21 0.21855266E-01 0.19599656E+03</pdfrwt>
<totfact> 0.43974344E+03</totfact>
</mgrwt>
</event>
<event>
 6      1 +2.5168241e+02 2.01742700e+02 7.54677100e-03 1.12989000e-01
       21 -1    0    0  503  502 +0.0000000000e+00 +0.0000000000e+00 +2.4436587106e+02 2.4436587106e+02 0.0000000000e+00 0.0000e+00 1.0000e+00
       21 -1    0    0  501  503 -0.0000000000e+00 -0.0000000000e+00 -8.2705196346e+02 8.2705196346e+02 0.0000000000e+00 0.0000e+00 1.0000e+00
        6  1    1    2  501    0 -1.0145952312e+01 +1.5769310399e+02 -5.1858731274e+01 2.3997579754e+02 1.7300000000e+02 0.0000e+00 1.0000e+00
       -6  1    1    2    0  505 -9.5522388282e-01 -8.0932745495e+01 +8.5941978234e+01 2.0944222442e+02 1.7300000000e+02 0.0000e+00 1.0000e+00
       21  1    1    2  504  502 -1.5910356597e+00 -5.5752768420e+01 -4.0889256520e+02 4.1267909137e+02 0.0000000000e+00 0.0000e+00 1.0000e+00
       21  1    1    2  505  504 +1.2692211854e+01 -2.1007590077e+01 -2.0787677416e+02 2.0932072119e+02 0.0000000000e+00 0.0000e+00 1.0000e+00
<mgrwt>
<rscale>  4 0.20174272E+03</rscale>
<asrwt>0</asrwt>
<pdfrwt beam="1">  1       21 0.37594749E-01 0.20174272E+03</pdfrwt>
<pdfrwt beam="2">  1       21 0.12723876E+00 0.20174272E+03</pdfrwt>
<totfact> 0.30887632E+03</totfact>
</mgrwt>
</event>
<event>
 6      1 +2.5168241e+02 2.47200500e+02 7.54677100e-03 1.15942100e-01
       21 -1    0    0  504  502 +0.0000000000e+00 +0.0000000000e+00 +2.3006634873e+02 2.3006634873e+02 0.0000000000e+00 0.0000e+00 -1.0000e+00
       21 -1    0    0  501  503 -0.0000000000e+00 -0.0000000000e+00 -7.7180505674e+02 7.7180505674e+02 0.0000000000e+00 0.0000e+00 1.0000e+00
        6  1    1    2  501    0 -1.7697236971e+02 +1.5066952277e+02 -2.9619853409e+02 4.1434658962e+02 1.7300000000e+02 0.0000e+00 1.0000e+00
       -6  1    1    2    0  502 +1.1959118783e+02 -1.1105240496e+02 +8.0393648454e+01 2.5105144406e+02 1.7300000000e+02 0.0000e+00 -1.0000e+00
       21  1    1    2  504  505 +2.5333970551e+01 +6.6982363103e+00 -8.0397181902e+01 8.4559939045e+01 0.0000000000e+00 0.0000e+00 -1.0000e+00
       21  1    1    2  505  503 +3.2047211328e+01 -4.6315354117e+01 -2.4553664047e+02 2.5191343274e+02 0.0000000000e+00 0.0000e+00 1.0000e+00
<mgrwt>
<rscale>  4 0.24720051E+03</rscale>
<asrwt>0</asrwt>
<pdfrwt beam="1">  1       21 0.35394823E-01 0.24720051E+03</pdfrwt>
<pdfrwt beam="2">  1       21 0.11873924E+00 0.24720051E+03</pdfrwt>
<totfact> 0.40036789E+03</totfact>
</mgrwt>
</event>
<event>
 6      1 +2.5168241e+02 2.70675100e+02 7.54677100e-03 1.16820100e-01
       21 -1    0    0  504  502 +0.0000000000e+00 +0.0000000000e+00 +1.9604221679e+03 1.9604221679e+03 0.0000000000e+00 0.0000e+00 -1.0000e+00
       21 -1    0    0  501  503 -0.0000000000e+00 -0.0000000000e+00 -3.4001740454e+02 3.4001740454e+02 0.0000000000e+00 0.0000e+00 -1.0000e+00
        6  1    1    2  501    0 -1.6927735255e+02 +5.5834853602e+01 +2.5308696297e+02 3.5461861737e+02 1.7300000000e+02 0.0000e+00 -1.0000e+00
       -6  1    1    2    0  505 -3.6429493772e+01 -1.3310621447e+02 +9.1945150817e+02 9.4570843722e+02 1.7300000000e+02 0.0000e+00 -1.0000e+00
       21  1    1    2  504  503 -1.8015177689e+01 +9.6906503608e+01 -2.4908095131e+02 2.6787448064e+02 0.0000000000e+00 0.0000e+00 -1.0000e+00
       21  1    1    2  505  502 +2.2372202401e+02 -1.9635142738e+01 +6.9694724354e+02 7.3223803721e+02 0.0000000000e+00 0.0000e+00 -1.0000e+00
<mgrwt>
<rscale>  4 0.25487548E+03</rscale>
<asrwt>0</asrwt>
<pdfrwt beam="1">  1       21 0.30160340E+00 0.27067509E+03</pdfrwt>
<pdfrwt beam="2">  1       21 0.52310371E-01 0.27067509E+03</pdfrwt>
<totfact> 0.10408777E+02</totfact>
</mgrwt>
</event>
<event>
 6      1 +2.5168241e+02 3.16108300e+02 7.54677100e-03 1.05831300e-01
       21 -1    0    0  504  502 +0.0000000000e+00 +0.0000000000e+00 +9.9707065366e+02 9.9707065366e+02 0.0000000000e+00 0.0000e+00 1.0000e+00
       21 -1    0    0  501  503 -0.0000000000e+00 -0.0000000000e+00 -4.2764986845e+02 4.2764986845e+02 0.0000000000e+00 0.0000e+00 -1.0000e+00
        6  1    1    2  501    0 +2.6300839910e+02 -5.7675797054e+01 +7.1937008337e+02 7.8735140339e+02 1.7300000000e+02 0.0000e+00 1.0000e+00
       -6  1    1    2    0  505 -2.3644819467e+02 +5.6525681498e+01 -2.8013500433e+02 4.0927682818e+02 1.7300000000e+02 0.0000e+00 -1.0000e+00
       21  1    1    2  504  503 -2.9003108119e+01 -2.9438180780e+01 -3.8594759261e+01 5.6545045854e+01 0.0000000000e+00 0.0000e+00 1.0000e+00
       21  1    1    2  505  502 +2.4429036885e+00 +3.0588296336e+01 +1.6878046543e+02 1.7154724470e+02 0.0000000000e+00 0.0000e+00 1.0000e+00
<mgrwt>
<rscale>  4 0.31610833E+03</rscale>
<asrwt>0</asrwt>
<pdfrwt beam="1">  1       21 0.15339548E+00 0.31610833E+03</pdfrwt>
<pdfrwt beam="2">  1       21 0.65792288E-01 0.31610833E+03</pdfrwt>
<totfact> 0.53659468E+02</totfact>
</mgrwt>
</event>
<event>
 6      1 +2.5168241e+02 3.11310100e+02 7.54677100e-03 1.16820100e-01
       21 -1    0    0  501  502 +0.0000000000e+00 +0.0000000000e+00 +5.0178103753e+02 5.0178103753e+02 0.0000000000e+00 0.0000e+00 1.0000e+00
       21 -1    0    0  504  503 -0.0000000000e+00 -0.0000000000e+00 -3.2552346645e+02 3.2552346645e+02 0.0000000000e+00 0.0000e+00 1.0000e+00
        6  1    1    2  501    0 +3.9116911669e+01 +2.2633050371e+02 +1.6913738573e+02 3.3360468363e+02 1.7300000000e+02 0.0000e+00 1.0000e+00
       -6  1    1    2    0  503 -2.8820878456e+01 -2.8671688519e+02 -1.0426673764e+02 3.5190590769e+02 1.7300000000e+02 0.0000e+00 1.0000e+00
       21  1    1    2  504  505 -9.4858419142e+00 +2.7103292386e+01 +3.5491814184e+00 2.8933826981e+01 0.0000000000e+00 0.0000e+00 1.0000e+00
       21  1    1    2  505  502 -8.1019129896e-01 +3.3283089090e+01 +1.0783774159e+02 1.1286008568e+02 0.0000000000e+00 0.0000e+00 1.0000e+00
<mgrwt>
<rscale>  4 0.31131006E+03</rscale>
<asrwt>0</asrwt>
<pdfrwt beam="1">  1       21 0.77197082E-01 0.31131006E+03</pdfrwt>
<pdfrwt beam="2">  1       21 0.50080533E-01 0.31131006E+03</pdfrwt>
<totfact> 0.52611942E+03</totfact>
</mgrwt>
</event>
<event>
 6      1 +2.5168241e+02 1.76326400e+02 7.54677100e-03 1.03924000e-01
       21 -1    0    0  504  502 +0.0000000000e+00 +0.0000000000e+00 +7.6718752110e+02 7.6718752110e+02 0.0000000000e+00 0.0000e+00 1.0000e+00
       21 -1    0    0  501  503 -0.0000000000e+00 -0.0000000000e+00 -1.3196478554e+02 1.3196478554e+02 0.0000000000e+00 0.0000e+00 1.0000e+00
        6  1    1    2  501    0 +2.2852602284e+01 -8.6769463534e+01 +6.9246600320e+01 2.0682183852e+02 1.7300000000e+02 0.0000e+00 1.0000e+00
       -6  1    1    2    0  505 -4.4453055139e+00 -2.7200064993e+01 +9.1759456247e+01 1.9775844378e+02 1.7300000000e+02 0.0000e+00 -1.0000e+00
       21  1    1    2  504  503 -4.9618751938e+01 +6.3751387689e+01 +2.5262477418e+02 2.6522732986e+02 0.0000000000e+00 0.0000e+00 1.0000e+00
       21  1    1    2  505  502 +3.1211455168e+01 +5.0218140838e+01 +2.2159190482e+02 2.2934469448e+02 0.0000000000e+00 0.0000e+00 1.0000e+00
<mgrwt>
<rscale>  4 0.17632641E+03</rscale>
<asrwt>0</asrwt>
<pdfrwt beam="1">  1       21 0.11802885E+00 0.17632641E+03</pdfrwt>
<pdfrwt beam="2">  1       21 0.20302275E-01 0.17632641E+03</pdfrwt>
<totfact> 0.12491180E+04</totfact>
</mgrwt>
</event>
<event>
 6      1 +2.5168241e+02 2.51831200e+02 7.54677100e-03 1.11896800e-01
       21 -1    0    0  501  502 +0.0000000000e+00 +0.0000000000e+00 +4.6595367373e+02 4.6595367373e+02 0.0000000000e+00 0.0000e+00 -1.0000e+00
       21 -1    0    0  502  503 -0.0000000000e+00 -0.0000000000e+00 -2.6171128702e+02 2.6171128702e+02 0.0000000000e+00 0.0000e+00 -1.0000e+00
        6  1    1    2  501    0 -1.4149587792e+01 +1.2854796583e+02 +1.3916980342e+02 2.5694751320e+02 1.7300000000e+02 0.0000e+00 -1.0000e+00
       -6  1    1    2    0  505 +1.3181978858e+02 +6.8121532575e+01 +4.2944421849e+01 2.3192719381e+02 1.7300000000e+02 0.0000e+00 1.0000e+00
       21  1    1    2  504  503 -2.3380977613e+01 -1.8715129015e+01 +2.2400590543e+01 3.7399366636e+01 0.0000000000e+00 0.0000e+00 -1.0000e+00
       21  1    1    2  505  504 -9.4289223175e+01 -1.7795436939e+02 -2.7242910702e-01 2.0139088710e+02 0.0000000000e+00 0.0000e+00 -1.0000e+00
<mgrwt>
<rscale>  4 0.24235003E+03</rscale>
<asrwt>0</asrwt>
<pdfrwt beam="1">  1       21 0.71685180E-01 0.25183124E+03</pdfrwt>
<pdfrwt beam="2">  1       21 0.40263275E-01 0.25183124E+03</pdfrwt>
<totfact> 0.10072588E+04</totfact>
</mgrwt>
</event>
<event>
 6      1 +2.5168241e+02 2.69611500e+02 7.54677100e-03 1.16820100e-01
       21 -1    0    0  504  502 +0.0000000000e+00 +0.0000000000e+00 +4.1449127036e+02 4.1449127036e+02 0.0000000000e+00 0.0000e+00 -1.0000e+00
       21 -1    0    0  501  503 -0.0000000000e+00 -0.0000000000e+00 -9.2980476094e+02 9.2980476094e+02 0.0000000000e+00 0.0000e+00 1.0000e+00
        6  1    1    2  501    0 -5.5336910735e+01 +6.5921412264e+01 -3.1009015196e+02 3.6536654010e+02 1.7300000000e+02 0.0000e+00 1.0000e+00
       -6  1    1    2    0  505 +1.2420687894e+02 +8.3869995871e+01 -6.2375614582e+01 2.3723667988e+02 1.7300000000e+02 0.0000e+00 -1.0000e+00
       21  1    1    2  504  503 +3.6375913017e+01 +5.2323772908e+01 -3.9599468524e+02 4.0108948502e+02 0.0000000000e+00 0.0000e+00 1.0000e+00
       21  1    1    2  505  502 -1.0524588123e+02 -2.0211518104e+02 +2.5314696120e+02 3.4060332630e+02 0.0000000000e+00 0.0000e+00 -1.0000e+00
<mgrwt>
<rscale>  4 0.25083713E+03</rscale>
<asrwt>0</asrwt>
<pdfrwt beam="1">  1       21 0.63767889E-01 0.26961151E+03</pdfrwt>
<pdfrwt beam="2">  1       21 0.14304688E+00 0.26961151E+03</pdfrwt>
<totfact> 0.71611133E+02</totfact>
</mgrwt>
</event>
<event>
 6      1 +2.5168241e+02 1.98735200e+02 7.54677100e-03 1.12068800e-01
       21 -1    0    0  504  502 +0.0000000000e+00 +0.0000000000e+00 +1.1366661876e+03 1.1366661876e+03 0.0000000000e+00 0.0000e+00 1.0000e+00
       21 -1    0    0  502  503 -0.0000000000e+00 -0.0000000000e+00 -5.5127654903e+01 5.5127654903e+01 0.0000000000e+00 0.0000e+00 1.0000e+00
        6  1    1    2  501    0 -6.2337290588e+01 +9.8201320019e+01 +5.7827975500e+02 6.1470798928e+02 1.7300000000e+02 0.0000e+00 1.0000e+00
       -6  1    1    2    0  505 +6.1574908617e+01 -4.6761833825e+01 +3.6153813764e+02 4.0818741216e+02 1.7300000000e+02 0.0000e+00 1.0000e+00
       21  1    1    2  504  501 -3.2847844295e+01 -4.7252645095e+01 +9.7201024335e+01 1.1295942845e+02 0.0000000000e+00 0.0000e+00 -1.0000e+00
       21  1    1    2  505  503 +3.3610226266e+01 -4.1868410980e+00 +4.4519615723e+01 5.5939012613e+01 0.0000000000e+00 0.0000e+00 1.0000e+00
<mgrwt>
<rscale>  4 0.19873518E+03</rscale>
<asrwt>0</asrwt>
<pdfrwt beam="1">  1       21 0.17487170E+00 0.19873518E+03</pdfrwt>
<pdfrwt beam="2">  1       21 0.84811785E-02 0.19873518E+03</pdfrwt>
<totfact> 0.21294732E+04</totfact>
</mgrwt>
</event>
<event>
 6      1 +2.5168241e+02 2.39622200e+02 7.54677100e-03 1.06249800e-01
       21 -1    0    0  503  502 +0.0000000000e+00 +0.0000000000e+00 +5.4089581270e+02 5.4089581270e+02 0.0000000000e+00 0.0000e+00 1.0000e+00
       21 -1    0    0  501  503 -0.0000000000e+00 -0.0000000000e+00 -3.2895106960e+02 3.2895106960e+02 0.0000000000e+00 0.0000e+00 1.0000e+00
        6  1    1    2  501    0 +1.0076149617e+02 +1.1736968685e+02 +5.1811497217e+01 2.3778552047e+02 1.7300000000e+02 0.0000e+00 1.0000e+00
       -6  1    1    2    0  504 -1.5289579428e+02 -8.3117453829e+01 -1.6761874944e+02 2.9717112949e+02 1.7300000000e+02 0.0000e+00 1.0000e+00
       21  1    1    2  504  505 +3.1039899073e+01 -2.2076135766e+01 +1.2483474933e+02 1.3051645776e+02 0.0000000000e+00 0.0000e+00 -1.0000e+00
       21  1    1    2  505  502 +2.1094399035e+01 -1.2176097253e+01 +2.0291724599e+02 2.0437377457e+02 0.0000000000e+00 0.0000e+00 -1.0000e+00
<mgrwt>
<rscale>  4 0.23962217E+03</rscale>
<asrwt>0</asrwt>
<pdfrwt beam="1">  1       21 0.83214741E-01 0.23962217E+03</pdfrwt>
<pdfrwt beam="2">  1       21 0.50607857E-01 0.23962217E+03</pdfrwt>
<totfact> 0.45147071E+03</totfact>
</mgrwt>
</event>
<event>
 6      1 +2.5168241e+02 1.80236400e+02 7.54677100e-03 1.16820100e-01
       21 -1    0    0  505  502 +0.0000000000e+00 +0.0000000000e+00 +1.1659665096e+03 1.1659665096e+03 0.0000000000e+00 0.0000e+00 1.0000e+00
       21 -1    0    0  501  503 -0.0000000000e+00 -0.0000000000e+00 -9.0662788628e+01 9.0662788628e+01 0.0000000000e+00 0.0000e+00 1.0000e+00
        6  1    1    2  501    0 -1.3295502481e+01 -3.0256557968e+01 +6.0475428922e+01 1.8622166144e+02 1.7300000000e+02 0.0000e+00 1.0000e+00
       -6  1    1    2    0  502 +7.5035761622e+01 -9.9133391413e+00 +7.9896160433e+02 8.2097337655e+02 1.7300000000e+02 0.0000e+00 1.0000e+00
       21  1    1    2  504  503 -3.9465994065e+01 +3.2352094030e+01 +2.4483913998e+01 5.6601101759e+01 0.0000000000e+00 0.0000e+00 1.0000e+00
       21  1    1    2  505  504 -2.2274265075e+01 +7.8178030793e+00 +1.9138277370e+02 1.9283315845e+02 0.0000000000e+00 0.0000e+00 1.0000e+00
<mgrwt>
<rscale>  4 0.18023637E+03</rscale>
<asrwt>0</asrwt>
<pdfrwt beam="1">  1       21 0.17937945E+00 0.18023637E+03</pdfrwt>
<pdfrwt beam="2">  1       21 0.13948122E-01 0.18023637E+03</pdfrwt>
<totfact> 0.83113738E+03</totfact>
</mgrwt>
</event>
<event>
 6      1 +2.5168241e+02 1.84399000e+02 7.54677100e-03 1.11910500e-01
       21 -1    0    0  501  502 +0.0000000000e+00 +0.0000000000e+00 +2.3800413221e+02 2.3800413221e+02 0.0000000000e+00 0.0000e+00 1.0000e+00
       21 -1    0    0  504  503 -0.0000000000e+00 -0.0000000000e+00 -1.2349787094e+03 1.2349787094e+03 0.0000000000e+00 0.0000e+00 1.0000e+00
        6  1    1    2  501    0 -6.1722644746e+01 -1.2077923453e+01 +1.4487352281e+02 2.3424965042e+02 1.7300000000e+02 0.0000e+00 1.0000e+00
       -6  1    1    2    0  503 +3.9635116256e+01 +1.4751469899e+02 -6.0986994110e+02 6.5207505237e+02 1.7300000000e+02 0.0000e+00 1.0000e+00
       21  1    1    2  504  505 +2.9318989142e+01 +3.3846080257e+01 -2.7648187083e+02 2.8008460359e+02 0.0000000000e+00 0.0000e+00 1.0000e+00
       21  1    1    2  505  502 -7.2314606513e+00 -1.6928285579e+02 -2.5549628804e+02 3.0657353521e+02 0.0000000000e+00 0.0000e+00 1.0000e+00
<mgrwt>
<rscale>  4 0.18439898E+03</rscale>
<asrwt>0</asrwt>
<pdfrwt beam="1">  1       21 0.36616020E-01 0.18439898E+03</pdfrwt>
<pdfrwt beam="2">  1       21 0.18999673E+00 0.18439898E+03</pdfrwt>
<totfact> 0.11323789E+03</totfact>
</mgrwt>
</event>
<event>
 6      1 +2.5168241e+02 2.58983200e+02 7.54677100e-03 1.07064900e-01
       21 -1    0    0  505  502 +0.0000000000e+00 +0.0000000000e+00 +3.5653458040e+02 3.5653458040e+02 0.0000000000e+00 0.0000e+00 -1.0000e+00
       21 -1    0    0  504  503 -0.0000000000e+00 -0.0000000000e+00 -4.8526592876e+02 4.8526592876e+02 0.0000000000e+00 0.0000e+00 -1.0000e+00
        6  1    1    2  501    0 +1.9052887122e+02 -4.0017537398e+01 -3.2040312901e+02 4.1290412827e+02 1.7300000000e+02 0.0000e+00 -1.0000e+00
       -6  1    1    2    0  503 -1.7465724335e+02 +6.4849890267e+01 +1.0601191595e+02 2.7545995579e+02 1.7300000000e+02 0.0000e+00 -1.0000e+00
       21  1    1    2  504  502 -4.6163879347e+01 -1.1908246395e+00 -1.2652682099e+01 4.7881229976e+01 0.0000000000e+00 0.0000e+00 -1.0000e+00
       21  1    1    2  505  501 +3.0292251483e+01 -2.3641528230e+01 +9.8312546806e+01 1.0555519512e+02 0.0000000000e+00 0.0000e+00 -1.0000e+00
<mgrwt>
<rscale>  4 0.25898316E+03</rscale>
<asrwt>0</asrwt>
<pdfrwt beam="1">  1       21 0.54851474E-01 0.25898316E+03</pdfrwt>
<pdfrwt beam="2">  1       21 0.74656297E-01 0.25898316E+03</pdfrwt>
<totfact> 0.48125447E+03</totfact>
</mgrwt>
</event>
<event>
 6      1 +2.5168241e+02 1.80063700e+02 7.54677100e-03 1.16820100e-01
       21 -1    0    0  501  502 +0.0000000000e+00 +0.0000000000e+00 +1.1126018830e+03 1.1126018830e+03 0.0000000000e+00 0.0000e+00 -1.0000e+00
       21 -1    0    0  504  503 -0.0000000000e+00 -0.0000000000e+00 -7.6498132335e+01 7.6498132335e+01 0.0000000000e+00 0.0000e+00 -1.0000e+00
        6  1    1    2  501    0 +3.5787893876e+01 +4.8198047908e+01 +4.9815005322e+02 5.3074127472e+02 1.7300000000e+02 0.0000e+00 1.0000e+00
       -6  1    1    2    0  503 -6.0940229917e+01 +2.2430466279e+01 +4.5993041024e+02 4.9566301022e+02 1.7300000000e+02 0.0000e+00 -1.0000e+00
       21  1    1    2  504  505 +9.4151382963e-01 -3.1046384555e+01 -3.1200249827e+01 4.4025220402e+01 0.0000000000e+00 0.0000e+00 -1.0000e+00
       21  1    1    2  505  502 +2.4210822212e+01 -3.9582129633e+01 +1.0922353700e+02 1.1867050995e+02 0.0000000000e+00 0.0000e+00 -1.0000e+00
<mgrwt>
<rscale>  4 0.18006375E+03</rscale>
<asrwt>0</asrwt>
<pdfrwt beam="1">  1       21 0.17116951E+00 0.18006375E+03</pdfrwt>
<pdfrwt beam="2">  1       21 0.11768944E-01 0.18006375E+03</pdfrwt>
<totfact> 0.12845938E+04</totfact>
</mgrwt>
</event>
<event>
 6      1 +2.5168241e+02 2.10564600e+02 7.54677100e-03 1.11910500e-01
       21 -1    0    0  501  502 +0.0000000000e+00 +0.0000000000e+00 +1.0964935217e+02 1.0964935217e+02 0.0000000000e+00 0.0000e+00 1.0000e+00
       21 -1    0    0  504  503 -0.0000000000e+00 -0.0000000000e+00 -1.3585447128e+03 1.3585447128e+03 0.0000000000e+00 0.0000e+00 -1.0000e+00
        6  1    1    2  501    0 +1.1579233661e+02 +1.9771933564e+01 -3.6124317688e+01 2.1220923849e+02 1.7300000000e+02 0.0000e+00 1.0000e+00
       -6  1    1    2    0  503 -1.4351312584e+02 +5.4606657113e+01 -7.4621819744e+02 7.8124804159e+02 1.7300000000e+02 0.0000e+00 -1.0000e+00
       21  1    1    2  504  505 +2.4469875304e+01 -3.1945966789e+01 -1.4874192126e+02 1.5408919084e+02 0.0000000000e+00 0.0000e+00 -1.0000e+00
       21  1    1    2  505  502 +3.2509139335e+00 -4.2432623887e+01 -3.1781092425e+02 3.2064759407e+02 0.0000000000e+00 0.0000e+00 -1.0000e+00
<mgrwt>
<rscale>  4 0.21056461E+03</rscale>
<asrwt>0</asrwt>
<pdfrwt beam="1">  1       21 0.16869131E-01 0.21056461E+03</pdfrwt>
<pdfrwt beam="2">  1       21 0.20900689E+00 0.21056461E+03</pdfrwt>
<totfact> 0.36616346E+03</totfact>
</mgrwt>
</event>
<event>
 6      1 +2.5168241e+02 2.50470800e+02 7.54677100e-03 1.06249800e-01
       21 -1    0    0  503  502 +0.0000000000e+00 +0.0000000000e+00 +1.1040821593e+03 1.1040821593e+03 0.0000000000e+00 0.0000e+00 -1.0000e+00
       21 -1    0    0  501  503 -0.0000000000e+00 -0.0000000000e+00 -1.0346377736e+03 1.0346377736e+03 0.0000000000e+00 0.0000e+00 1.0000e+00
        6  1    1    2  501    0 +2.5336460015e+01 -1.5585766298e+01 -8.1806882162e+02 8.3669017516e+02 1.7300000000e+02 0.0000e+00 1.0000e+00
       -6  1    1    2    0  505 -7.8253450451e+01 +1.8785840807e+02 -1.0913865045e+02 2.8853878251e+02 1.7300000000e+02 0.0000e+00 1.0000e+00
       21  1    1    2  504  502 +6.3634925820e+00 -3.1945816320e+01 +2.6946081618e+02 2.7142247636e+02 0.0000000000e+00 0.0000e+00 -1.0000e+00
       21  1    1    2  505  504 +4.6553497855e+01 -1.4032682545e+02 +7.2719104161e+02 7.4206849893e+02 0.0000000000e+00 0.0000e+00 -1.0000e+00
<mgrwt>
<rscale>  4 0.22917173E+03</rscale>
<asrwt>0</asrwt>
<pdfrwt beam="1">  1       21 0.16985879E+00 0.25047078E+03</pdfrwt>
<pdfrwt beam="2">  1       21 0.15917504E+00 0.25047078E+03</pdfrwt>
<totfact> 0.50477637E+01</totfact>
</mgrwt>
</event>
<event>
 6      1 +2.5168241e+02 3.03954300e+02 7.54677100e-03 1.05831300e-01
       21 -1    0    0  504  502 +0.0000000000e+00 +0.0000000000e+00 +1.1820306055e+03 1.1820306055e+03 0.0000000000e+00 0.0000e+00 -1.0000e+00
       21 -1    0    0  501  503 -0.0000000000e+00 -0.0000000000e+00 -3.2527205352e+02 3.2527205352e+02 0.0000000000e+00 0.0000e+00 -1.0000e+00
        6  1    1    2  501    0 +1.7457560242e+02 -3.6351822483e+01 +2.5018710958e+02 3.5259138639e+02 1.7300000000e+02 0.0000e+00 -1.0000e+00
       -6  1    1    2    0  505 -2.6219693433e+02 +3.8723841170e+01 -7.6646445368e+01 3.2565387428e+02 1.7300000000e+02 0.0000e+00 -1.0000e+00
       21  1    1    2  504  503 -2.6945654747e+01 +1.4917390146e+01 -6.4996797334e+01 7.1924825354e+01 0.0000000000e+00 0.0000e+00 -1.0000e+00
       21  1    1    2  505  502 +1.1456698665e+02 -1.7289408833e+01 +7.4821468507e+02 7.5713257296e+02 0.0000000000e+00 0.0000e+00 -1.0000e+00
<mgrwt>
<rscale>  4 0.30395426E+03</rscale>
<asrwt>0</asrwt>
<pdfrwt beam="1">  1       21 0.18185086E+00 0.30395426E+03</pdfrwt>
<pdfrwt beam="2">  1       21 0.50041855E-01 0.30395426E+03</pdfrwt>
<totfact> 0.60710496E+02</totfact>
</mgrwt>
</event>
<event>
 6      1 +2.5168241e+02 1.73308700e+02 7.54677100e-03 1.12989000e-01
       21 -1    0    0  505  502 +0.0000000000e+00 +0.0000000000e+00 +1.5048235642e+02 1.5048235642e+02 0.0000000000e+00 0.0000e+00 1.0000e+00
       21 -1    0    0  504  503 -0.0000000000e+00 -0.0000000000e+00 -9.1703350062e+02 9.1703350062e+02 0.0000000000e+00 0.0000e+00 1.0000e+00
        6  1    1    2  501    0 +9.4455876429e+00 -1.9754480464e+01 -4.8306408684e+01 1.8094741707e+02 1.7300000000e+02 0.0000e+00 -1.0000e+00
       -6  1    1    2    0  502 -1.4782242863e-01 -3.3895694275e+01 -1.6229731593e+01 1.7703486699e+02 1.7300000000e+02 0.0000e+00 1.0000e+00
       21  1    1    2  504  501 -3.7872354247e+01 +1.4559156407e+01 -5.0608724399e+02 5.0771112139e+02 0.0000000000e+00 0.0000e+00 1.0000e+00
       21  1    1    2  505  503 +2.8574589033e+01 +3.9091018332e+01 -1.9592775994e+02 2.0182245159e+02 0.0000000000e+00 0.0000e+00 1.0000e+00
<mgrwt>
<rscale>  4 0.17330866E+03</rscale>
<asrwt>0</asrwt>
<pdfrwt beam="1">  1       21 0.23151132E-01 0.17330866E+03</pdfrwt>
<pdfrwt beam="2">  1       21 0.14108208E+00 0.17330866E+03</pdfrwt>
<totfact> 0.62485022E+03</totfact>
</mgrwt>
</event>
<event>
 6      1 +2.5168241e+02 2.17390300e+02 7.54677100e-03 1.16820100e-01
       21 -1    0    0  505  502 +0.0000000000e+00 +0.0000000000e+00 +1.7311887760e+02 1.7311887760e+02 0.0000000000e+00 0.0000e+00 -1.0000e+00
       21 -1    0    0  501  503 -0.0000000000e+00 -0.0000000000e+00 -1.4695583711e+03 1.4695583711e+03 0.0000000000e+00 0.0000e+00 1.0000e+00
        6  1    1    2  501    0 -8.6023332920e+01 -6.9546842913e+01 -5.1054561280e+02 5.5029319450e+02 1.7300000000e+02 0.0000e+00 1.0000e+00
       -6  1    1    2    0  502 +9.0972758209e+01 +1.2754901076e+02 -5.5368183921e+02 6.0086385475e+02 1.7300000000e+02 0.0000e+00 1.0000e+00
       21  1    1    2  504  503 -7.3622459736e+00 -2.0886677349e+01 -3.5885027133e+02 3.5953299319e+02 0.0000000000e+00 0.0000e+00 -1.0000e+00
       21  1    1    2  505  504 +2.4128206844e+00 -3.7115490501e+01 +1.2663822988e+02 1.3198720622e+02 0.0000000000e+00 0.0000e+00 -1.0000e+00
<mgrwt>
<rscale>  4 0.21739027E+03</rscale>
<asrwt>0</asrwt>
<pdfrwt beam="1">  1       21 0.26633673E-01 0.21739027E+03</pdfrwt>
<pdfrwt beam="2">  1       21 0.22608591E+00 0.21739027E+03</pdfrwt>
<totfact> 0.12057112E+03</totfact>
</mgrwt>
</event>
<event>
 6      1 +2.5168241e+02 1.73671100e+02 7.54677100e-03 1.16820100e-01
       21 -1    0    0  501  502 +0.0000000000e+00 +0.0000000000e+00 +2.4237300506e+02 2.4237300506e+02 0.0000000000e+00 0.0000e+00 1.0000e+00
       21 -1    0    0  504  503 -0.0000000000e+00 -0.0000000000e+00 -1.2997662122e+03 1.2997662122e+03 0.0000000000e+00 0.0000e+00 -1.0000e+00
        6  1    1    2  501    0 +1.8667259895e+01 +2.5350353573e+01 +1.2972769403e+02 2.1851631888e+02 1.7300000000e+02 0.0000e+00 1.0000e+00
       -6  1    1    2    0  503 -1.9402771845e+01 -5.7493438962e+01 -1.1358012744e+03 1.1505022807e+03 1.7300000000e+02 0.0000e+00 -1.0000e+00
       21  1    1    2  504  505 +8.4799972294e+00 +5.1106359725e+01 -1.0422406975e+02 1.1638911922e+02 0.0000000000e+00 0.0000e+00 -1.0000e+00
       21  1    1    2  505  502 -7.7444852801e+00 -1.8963274336e+01 +5.2904442976e+01 5.6731498415e+01 0.0000000000e+00 0.0000e+00 1.0000e+00
<mgrwt>
<rscale>  4 0.17367107E+03</rscale>
<asrwt>0</asrwt>
<pdfrwt beam="1">  1       21 0.37288155E-01 0.17367107E+03</pdfrwt>
<pdfrwt beam="2">  1       21 0.19996403E+00 0.17367107E+03</pdfrwt>
<totfact> 0.95311838E+02</totfact>
</mgrwt>
</event>
<event>
 6      1 +2.5168241e+02 1.73217200e+02 7.54677100e-03 1.12989000e-01
       21 -1    0    0  505  502 +0.0000000000e+00 +0.0000000000e+00 +3.3956214489e+02 3.3956214489e+02 0.0000000000e+00 0.0000e+00 -1.0000e+00
       21 -1    0    0  504  503 -0.0000000000e+00 -0.0000000000e+00 -3.6151694255e+02 3.6151694255e+02 0.0000000000e+00 0.0000e+00 -1.0000e+00
        6  1    1    2  501    0 +1.2795465209e+01 +1.1488089346e+01 +2.1289622864e+02 2.7486270081e+02 1.7300000000e+02 0.0000e+00 -1.0000e+00
       -6  1    1    2    0  502 +6.4387896681e+01 +6.4111112474e+00 -3.0280013644e+01 1.8717046458e+02 1.7300000000e+02 0.0000e+00 1.0000e+00
       21  1    1    2  504  501 -2.5381975900e+01 -5.4497492295e+01 -9.4216028376e+01 1.1176261168e+02 0.0000000000e+00 0.0000e+00 -1.0000e+00
       21  1    1    2  505  503 -5.1801385990e+01 +3.6598291702e+01 -1.1035498427e+02 1.2728331037e+02 0.0000000000e+00 0.0000e+00 1.0000e+00
<mgrwt>
<rscale>  4 0.17321722E+03</rscale>
<asrwt>0</asrwt>
<pdfrwt beam="1">  1       21 0.52240330E-01 0.17321722E+03</pdfrwt>
<pdfrwt beam="2">  1       21 0.55617991E-01 0.17321722E+03</pdfrwt>
<totfact> 0.10734368E+04</totfact>
</mgrwt>
</event>
<event>
 6      1 +2.5168241e+02 2.02107200e+02 7.54677100e-03 1.11671100e-01
       21 -1    0    0  503  502 +0.0000000000e+00 +0.0000000000e+00 +7.4321201903e+02 7.4321201903e+02 0.0000000000e+00 0.0000e+00 -1.0000e+00
       21 -1    0    0  501  503 -0.0000000000e+00 -0.0000000000e+00 -3.4245690201e+02 3.4245690201e+02 0.0000000000e+00 0.0000e+00 -1.0000e+00
        6  1    1    2  501    0 -8.0182549851e+01 -8.1510150994e+01 +2.0474144934e+02 2.9141243469e+02 1.7300000000e+02 0.0000e+00 -1.0000e+00
       -6  1    1    2    0  504 +6.1170104746e+01 +8.3184827294e+01 -2.5757317824e+02 3.2700831695e+02 1.7300000000e+02 0.0000e+00 -1.0000e+00
       21  1    1    2  504  505 +6.3292857392e+01 +9.9506352360e+00 +2.1648969216e+02 2.2577153884e+02 0.0000000000e+00 0.0000e+00 -1.0000e+00
       21  1    1    2  505  502 -4.4280412287e+01 -1.1625311537e+01 +2.3709715376e+02 2.4147663055e+02 0.0000000000e+00 0.0000e+00 1.0000e+00
<mgrwt>
<rscale>  4 0.20210724E+03</rscale>
<asrwt>0</asrwt>
<pdfrwt beam="1">  1       21 0.11434031E+00 0.20210724E+03</pdfrwt>
<pdfrwt beam="2">  1       21 0.52685677E-01 0.20210724E+03</pdfrwt>
<totfact> 0.20129422E+03</totfact>
</mgrwt>
</event>
<event>
 6      1 +2.5168241e+02 2.05093700e+02 7.54677100e-03 1.07064900e-01
       21 -1    0    0  505  502 +0.0000000000e+00 +0.0000000000e+00 +1.3548043815e+02 1.3548043815e+02 0.0000000000e+00 0.0000e+00 -1.0000e+00
       21 -1    0    0  501  503 -0.0000000000e+00 -0.0000000000e+00 -7.2470563182e+02 7.2470563182e+02 0.0000000000e+00 0.0000e+00 -1.0000e+00
        6  1    1    2  501    0 -5.7088574431e+01 -1.2981893002e+02 -4.8190931136e+02 5.3129807481e+02 1.7300000000e+02 0.0000e+00 -1.0000e+00
       -6  1    1    2    0  502 +2.6099919000e+00 +2.3914866878e+01 -4.4227176793e+01 1.8017706869e+02 1.7300000000e+02 0.0000e+00 -1.0000e+00
       21  1    1    2  504  503 +9.8924521559e-01 +4.1868566705e+01 +3.4064589231e+00 4.2018560737e+01 0.0000000000e+00 0.0000e+00 1.0000e+00
       21  1    1    2  505  504 +5.3489337315e+01 +6.4035496439e+01 -6.6495164441e+01 1.0669236573e+02 0.0000000000e+00 0.0000e+00 -1.0000e+00
<mgrwt>
<rscale>  4 0.20509368E+03</rscale>
<asrwt>0</asrwt>
<pdfrwt beam="1">  1       21 0.20843145E-01 0.20509368E+03</pdfrwt>
<pdfrwt beam="2">  1       21 0.11149317E+00 0.20509368E+03</pdfrwt>
<totfact> 0.13392813E+04</totfact>
</mgrwt>
</event>
<event>
 6      1 +2.5168241e+02 3.20584700e+02 7.54677100e-03 1.17132900e-01
       21 -1    0    0  503  502 +0.0000000000e+00 +0.0000000000e+00 +3.2026065880e+02 3.2026065880e+02 0.0000000000e+00 0.0000e+00 1.0000e+00
       21 -1    0    0  504  503 -0.0000000000e+00 -0.0000000000e+00 -4.5345365710e+02 4.5345365710e+02 0.0000000000e+00 0.0000e+00 -1.0000e+00
        6  1    1    2  501    0 -1.3579002443e+02 -2.0261712773e+02 -4.5819256825e+01 3.0252443783e+02 1.7300000000e+02 0.0000e+00 1.0000e+00
       -6  1    1    2    0  505 +1.5605478467e+02 +2.5381605920e+02 -5.0898343842e+01 3.4827478969e+02 1.7300000000e+02 0.0000e+00 -1.0000e+00
       21  1    1    2  504  501 -1.9566464346e+01 -2.6117490245e+01 -7.2215513671e+01 7.9246768000e+01 0.0000000000e+00 0.0000e+00 -1.0000e+00
       21  1    1    2  505  502 -6.9829589452e-01 -2.5081441220e+01 +3.5740116036e+01 4.3668320384e+01 0.0000000000e+00 0.0000e+00 1.0000e+00
<mgrwt>
<rscale>  4 0.32058468E+03</rscale>
<asrwt>0</asrwt>
<pdfrwt beam="1">  1       21 0.49270871E-01 0.32058468E+03</pdfrwt>
<pdfrwt beam="2">  1       21 0.69762101E-01 0.32058468E+03</pdfrwt>
<totfact> 0.68107336E+03</totfact>
</mgrwt>
</event>
<event>
 6      1 +2.5168241e+02 2.05284100e+02 7.54677100e-03 1.12989000e-01
       21 -1    0    0  505  502 +0.0000000000e+00 +0.0000000000e+00 +1.6552343271e+02 1.6552343271e+02 0.0000000000e+00 0.0000e+00 1.0000e+00
       21 -1    0    0  504  503 -0.0000000000e+00 -0.0000000000e+00 -7.3515168512e+02 7.3515168512e+02 0.0000000000e+00 0.0000e+00 1.0000e+00
        6  1    1    2  501    0 -4.2088244746e+01 +9.9938857458e+01 -6.6202448842e+01 2.1464146805e+02 1.7300000000e+02 0.0000e+00 1.0000e+00
       -6  1    1    2    0  502 +1.3939930502e+02 -2.8759366859e+01 -6.9464185201e+01 2.3454965455e+02 1.7300000000e+02 0.0000e+00 -1.0000e+00
       21  1    1    2  504  501 -1.9866609180e+01 -2.9784757338e+01 -1.0185999519e+02 1.0796884991e+02 0.0000000000e+00 0.0000e+00 -1.0000e+00
       21  1    1    2  505  503 -7.7444451094e+01 -4.1394733260e+01 -3.3210162318e+02 3.4351514532e+02 0.0000000000e+00 0.0000e+00 1.0000e+00
<mgrwt>
<rscale>  4 0.20528413E+03</rscale>
<asrwt>0</asrwt>
<pdfrwt beam="1">  1       21 0.25465143E-01 0.20528413E+03</pdfrwt>
<pdfrwt beam="2">  1       21 0.11310026E+00 0.20528413E+03</pdfrwt>
<totfact> 0.88457380E+03</totfact>
</mgrwt>
</event>
<event>
 6      1 +2.5168241e+02 2.16985700e+02 7.54677100e-03 1.03924000e-01
       21 -1    0    0  504  502 +0.0000000000e+00 +0.0000000000e+00 +6.3583111642e+02 6.3583111642e+02 0.0000000000e+00 0.0000e+00 1.0000e+00
       21 -1    0    0  501  503 -0.0000000000e+00 -0.0000000000e+00 -7.4301594974e+02 7.4301594974e+02 0.0000000000e+00 0.0000e+00 1.0000e+00
        6  1    1    2  501    0 -7.8064892053e+01 -1.3375818746e+02 +1.5831674320e+02 2.8103126385e+02 1.7300000000e+02 0.0000e+00 -1.0000e+00
       -6  1    1    2    0  505 +1.3482646817e+02 +7.3389258074e-01 -6.4975061743e+02 6.8577225080e+02 1.7300000000e+02 0.0000e+00 1.0000e+00
       21  1    1    2  504  503 -4.7449809240e+01 +1.0519748376e+02 +2.6144168182e+02 2.8577919445e+02 0.0000000000e+00 0.0000e+00 1.0000e+00
       21  1    1    2  505  502 -9.3117668757e+00 +2.7826811121e+01 +1.2280735908e+02 1.2626435706e+02 0.0000000000e+00 0.0000e+00 1.0000e+00
<mgrwt>
<rscale>  4 0.21698570E+03</rscale>
<asrwt>0</asrwt>
<pdfrwt beam="1">  1       21 0.97820171E-01 0.21698570E+03</pdfrwt>
<pdfrwt beam="2">  1       21 0.11431015E+00 0.21698570E+03</pdfrwt>
<totfact> 0.50128801E+02</totfact>
</mgrwt>
</event>
<event>
 6      1 +2.5168241e+02 2.10928300e+02 7.54677100e-03 1.16820100e-01
       21 -1    0    0  505  502 +0.0000000000e+00 +0.0000000000e+00 +7.2894987753e+02 7.2894987753e+02 0.0000000000e+00 0.0000e+00 -1.0000e+00
       21 -1    0    0  504  503 -0.0000000000e+00 -0.0000000000e+00 -4.0411222804e+02 4.0411222804e+02 0.0000000000e+00 0.0000e+00 -1.0000e+00
        6  1    1    2  501    0 +1.3023449966e+02 -1.1723729976e+02 +7.5263916427e+01 2.5748643940e+02 1.7300000000e+02 0.0000e+00 1.0000e+00
       -6  1    1    2    0  503 -1.3059431148e+01 +8.6056192289e+01 -1.7358936816e+02 2.6007400045e+02 1.7300000000e+02 0.0000e+00 -1.0000e+00
       21  1    1    2  504  502 -1.5502156712e+01 +3.6248211242e+01 -8.6875957866e+01 9.5402734426e+01 0.0000000000e+00 0.0000e+00 -1.0000e+00
       21  1    1    2  505  501 -1.0167291180e+02 -5.0671037683e+00 +5.1003905909e+02 5.2009893129e+02 0.0000000000e+00 0.0000e+00 -1.0000e+00
<mgrwt>
<rscale>  4 0.21092825E+03</rscale>
<asrwt>0</asrwt>
<pdfrwt beam="1">  1       21 0.11214613E+00 0.21092825E+03</pdfrwt>
<pdfrwt beam="2">  1       21 0.62171112E-01 0.21092825E+03</pdfrwt>
<totfact> 0.14704678E+03</totfact>
</mgrwt>
</event>
<event>
 6      1 +2.5168241e+02 6.61962800e+02 7.54677100e-03 1.12989000e-01
       21 -1    0    0  505  502 +0.0000000000e+00 +0.0000000000e+00 +6.9129528293e+02 6.9129528293e+02 0.0000000000e+00 0.0000e+00 1.0000e+00
       21 -1    0    0  504  503 -0.0000000000e+00 -0.0000000000e+00 -7.1038577514e+02 7.1038577514e+02 0.0000000000e+00 0.0000e+00 1.0000e+00
        6  1    1    2  501    0 -2.2189969755e+02 +2.0434299331e+02 +2.5901855723e+02 4.3360713518e+02 1.7300000000e+02 0.0000e+00 1.0000e+00
       -6  1    1    2    0  502 -2.4957101826e+02 -3.9139937017e+01 +1.1755911527e+02 3.2797373890e+02 1.7300000000e+02 0.0000e+00 -1.0000e+00
       21  1    1    2  504  501 +4.3877539204e+02 -1.5260234965e+02 -3.8533734550e+02 6.0356954166e+02 0.0000000000e+00 0.0000e+00 1.0000e+00
       21  1    1    2  505  503 +3.2695323767e+01 -1.2600706647e+01 -1.0330819201e+01 3.6530642338e+01 0.0000000000e+00 0.0000e+00 1.0000e+00
<mgrwt>
<rscale>  4 0.66196275E+03</rscale>
<asrwt>0</asrwt>
<pdfrwt beam="1">  1       21 0.10635312E+00 0.66196275E+03</pdfrwt>
<pdfrwt beam="2">  1       21 0.10929012E+00 0.66196275E+03</pdfrwt>
<totfact> 0.36085984E+02</totfact>
</mgrwt>
</event>
<event>
 6      1 +2.5168241e+02 1.73145600e+02 7.54677100e-03 1.07064900e-01
       21 -1    0    0  504  502 +0.0000000000e+00 +0.0000000000e+00 +5.0030268688e+02 5.0030268688e+02 0.0000000000e+00 0.0000e+00 1.0000e+00
       21 -1    0    0  501  503 -0.0000000000e+00 -0.0000000000e+00 -2.1110889810e+02 2.1110889810e+02 0.0000000000e+00 0.0000e+00 1.0000e+00
        6  1    1    2  501    0 +1.0156490501e+01 +1.0095934272e+01 -1.3158970850e+02 2.1783005663e+02 1.7300000000e+02 0.0000e+00 1.0000e+00
       -6  1    1    2    0  505 +1.8900263772e+01 +2.7878612329e+01 +2.0427649110e+02 2.6980052226e+02 1.7300000000e+02 0.0000e+00 1.0000e+00
       21  1    1    2  504  503 -9.3962092862e+00 -3.3612407516e+01 +1.1059182366e+02 1.1596824630e+02 0.0000000000e+00 0.0000e+00 1.0000e+00
       21  1    1    2  505  502 -1.9660544987e+01 -4.3621390859e+00 +1.0591518252e+02 1.0781275979e+02 0.0000000000e+00 0.0000e+00 -1.0000e+00
<mgrwt>
<rscale>  4 0.17314555E+03</rscale>
<asrwt>0</asrwt>
<pdfrwt beam="1">  1       21 0.76969643E-01 0.17314555E+03</pdfrwt>
<pdfrwt beam="2">  1       21 0.32478292E-01 0.17314555E+03</pdfrwt>
<totfact> 0.13864774E+04</totfact>
</mgrwt>
</event>
<event>
 6      1 +2.5168241e+02 2.07539200e+02 7.54677100e-03 1.03924000e-01
       21 -1    0    0  501  502 +0.0000000000e+00 +0.0000000000e+00 +3.5613384410e+02 3.5613384410e+02 0.0000000000e+00 0.0000e+00 1.0000e+00
       21 -1    0    0  502  503 -0.0000000000e+00 -0.0000000000e+00 -1.6762010170e+02 1.6762010170e+02 0.0000000000e+00 0.0000e+00 1.0000e+00
        6  1    1    2  501    0 -8.6978062234e+01 -1.1197654841e+02 +8.9253532925e+01 2.4083007255e+02 1.7300000000e+02 0.0000e+00 1.0000e+00
       -6  1    1    2    0  505 +7.9445814694e+01 +4.9682756677e+01 +7.5099426625e+01 2.1059187464e+02 1.7300000000e+02 0.0000e+00 1.0000e+00
       21  1    1    2  504  503 +4.6150372018e+00 +2.0809695347e+01 -4.5523777267e+00 2.1796011832e+01 0.0000000000e+00 0.0000e+00 1.0000e+00
       21  1    1    2  505  504 +2.9172103381e+00 +4.1484096389e+01 +2.8713160574e+01 5.0535986777e+01 0.0000000000e+00 0.0000e+00 1.0000e+00
<mgrwt>
<rscale>  4 0.20753919E+03</rscale>
<asrwt>0</asrwt>
<pdfrwt beam="1">  1       21 0.54789822E-01 0.20753919E+03</pdfrwt>
<pdfrwt beam="2">  1       21 0.25787708E-01 0.20753919E+03</pdfrwt>
<totfact> 0.44552947E+04</totfact>
</mgrwt>
</event>
<event>
 6      1 +2.5168241e+02 2.08968100e+02 7.54677100e-03 1.07064900e-01
       21 -1    0    0  504  502 +0.0000000000e+00 +0.0000000000e+00 +7.3440186314e+02 7.3440186314e+02 0.0000000000e+00 0.0000e+00 1.0000e+00
       21 -1    0    0  501  503 -0.0000000000e+00 -0.0000000000e+00 -9.5848010577e+02 9.5848010577e+02 0.0000000000e+00 0.0000e+00 -1.0000e+00
        6  1    1    2  501    0 +1.9390863444e+01 +1.0742763134e+02 -7.1193922285e+02 7.4074500241e+02 1.7300000000e+02 0.0000e+00 -1.0000e+00
       -6  1    1    2    0  505 -6.9597483250e+01 -1.3846477913e+02 -1.6909018037e+02 2.8729217503e+02 1.7300000000e+02 0.0000e+00 -1.0000e+00
       21  1    1    2  504  503 +4.1394244116e+01 +5.2945688277e+01 +5.9069956182e+02 5.9451047231e+02 0.0000000000e+00 0.0000e+00 1.0000e+00
       21  1    1    2  505  502 +8.8123756894e+00 -2.1908540487e+01 +6.6251598778e+01 7.0334319163e+01 0.0000000000e+00 0.0000e+00 1.0000e+00
<mgrwt>
<rscale>  4 0.20896812E+03</rscale>
<asrwt>0</asrwt>
<pdfrwt beam="1">  1       21 0.11298490E+00 0.20896812E+03</pdfrwt>
<pdfrwt beam="2">  1       21 0.14745848E+00 0.20896812E+03</pdfrwt>
<totfact> 0.18747126E+02</totfact>
</mgrwt>
</event>
<event>
 6      1 +2.5168241e+02 2.08325600e+02 7.54677100e-03 9.87464100e-02
       21 -1    0    0  503  502 +0.0000000000e+00 +0.0000000000e+00 +2.7641651731e+02 2.7641651731e+02 0.0000000000e+00 0.0000e+00 1.0000e+00
       21 -1    0    0  505  503 -0.0000000000e+00 -0.0000000000e+00 -3.0598786583e+02 3.0598786583e+02 0.0000000000e+00 0.0000e+00 1.0000e+00
        6  1    1    2  501    0 +6.2603635561e+01 +7.3624321887e+01 +5.6941146360e+01 2.0618207999e+02 1.7300000000e+02 0.0000e+00 1.0000e+00
       -6  1    1    2    0  504 -2.3527582434e+01 -1.6739140270e+02 -5.1700973412e+01 2.4733665212e+02 1.7300000000e+02 0.0000e+00 1.0000e+00
       21  1    1    2  504  502 -2.2786586896e+01 +7.9186678441e+00 +1.4900488481e+01 2.8354160185e+01 0.0000000000e+00 0.0000e+00 1.0000e+00
       21  1    1    2  505  501 -1.6289466231e+01 +8.5848412966e+01 -4.9712009948e+01 1.0053149085e+02 0.0000000000e+00 0.0000e+00 1.0000e+00
<mgrwt>
<rscale>  4 0.20832561E+03</rscale>
<asrwt>0</asrwt>
<pdfrwt beam="1">  1       21 0.42525618E-01 0.20832561E+03</pdfrwt>
<pdfrwt beam="2">  1       21 0.47075056E-01 0.20832561E+03</pdfrwt>
<totfact> 0.22764977E+04</totfact>
</mgrwt>
</event>
<event>
 6      1 +2.5168241e+02 2.29582700e+02 7.54677100e-03 1.11671100e-01
       21 -1    0    0  503  502 +0.0000000000e+00 +0.0000000000e+00 +1.0568551841e+02 1.0568551841e+02 0.0000000000e+00 0.0000e+00 -1.0000e+00
       21 -1    0    0  501  503 -0.0000000000e+00 -0.0000000000e+00 -7.3201374468e+02 7.3201374468e+02 0.0000000000e+00 0.0000e+00 1.0000e+00
        6  1    1    2  501    0 -9.7165302905e+01 -1.3539160601e+02 -3.5936927667e+02 4.3225832563e+02 1.7300000000e+02 0.0000e+00 1.0000e+00
       -6  1    1    2    0  504 +2.7297606189e+01 +1.3647891099e+02 -2.3276385438e+02 3.2168255215e+02 1.7300000000e+02 0.0000e+00 1.0000e+00
       21  1    1    2  504  505 +4.4955788745e+01 -2.3148509922e+00 -3.7512422101e+01 5.8596614993e+01 0.0000000000e+00 0.0000e+00 1.0000e+00
       21  1    1    2  505  502 +2.4911907971e+01 +1.2275460157e+00 +3.3173268834e+00 2.5161770320e+01 0.0000000000e+00 0.0000e+00 -1.0000e+00
<mgrwt>
<rscale>  4 0.22958271E+03</rscale>
<asrwt>0</asrwt>
<pdfrwt beam="1">  1       21 0.16259310E-01 0.22958271E+03</pdfrwt>
<pdfrwt beam="2">  1       21 0.11261750E+00 0.22958271E+03</pdfrwt>
<totfact> 0.20429872E+04</totfact>
</mgrwt>
</event>
<event>
 6      1 +2.5168241e+02 2.48236800e+02 7.54677100e-03 9.87464100e-02
       21 -1    0    0  503  502 +0.0000000000e+00 +0.0000000000e+00 +3.5325033486e+02 3.5325033486e+02 0.0000000000e+00 0.0000e+00 -1.0000e+00
       21 -1    0    0  505  503 -0.0000000000e+00 -0.0000000000e+00 -2.7679188114e+02 2.7679188114e+02 0.0000000000e+00 0.0000e+00 1.0000e+00
        6  1    1    2  501    0 +3.7860150134e+01 -1.7647030753e+02 -7.4596816441e+01 2.6090006790e+02 1.7300000000e+02 0.0000e+00 1.0000e+00
       -6  1    1    2    0  504 -5.3198078729e+01 +1.5078356931e+02 +1.6311871741e+02 2.8653522702e+02 1.7300000000e+02 0.0000e+00 -1.0000e+00
       21  1    1    2  504  502 -8.3029391504e+00 +2.9792724692e+01 +2.4098601953e+01 3.9208262639e+01 0.0000000000e+00 0.0000e+00 -1.0000e+00
       21  1    1    2  505  501 +2.3640867745e+01 -4.1059864647e+00 -3.6162049193e+01 4.3398658440e+01 0.0000000000e+00 0.0000e+00 1.0000e+00
<mgrwt>
<rscale>  4 0.24823679E+03</rscale>
<asrwt>0</asrwt>
<pdfrwt beam="1">  1       21 0.54346205E-01 0.24823679E+03</pdfrwt>
<pdfrwt beam="2">  1       21 0.42583366E-01 0.24823679E+03</pdfrwt>
<totfact> 0.16442821E+04</totfact>
</mgrwt>
</event>
<event>
 6      1 +2.5168241e+02 3.01524500e+02 7.54677100e-03 1.17132900e-01
       21 -1    0    0  503  502 +0.0000000000e+00 +0.0000000000e+00 +6.4114872432e+02 6.4114872432e+02 0.0000000000e+00 0.0000e+00 1.0000e+00
       21 -1    0    0  504  503 -0.0000000000e+00 -0.0000000000e+00 -7.5728033731e+02 7.5728033731e+02 0.0000000000e+00 0.0000e+00 1.0000e+00
        6  1    1    2  501    0 +7.5459932448e+01 -2.4892899753e+02 -3.3267935005e+02 4.5635994255e+02 1.7300000000e+02 0.0000e+00 1.0000e+00
       -6  1    1    2    0  505 -4.0828353486e+01 +2.2329176964e+02 -5.7101372053e+01 2.9105967692e+02 1.7300000000e+02 0.0000e+00 1.0000e+00
       21  1    1    2  504  501 -3.5760482728e+01 -4.4191115622e+00 -1.8646436832e+02 1.8991393136e+02 0.0000000000e+00 0.0000e+00 -1.0000e+00
       21  1    1    2  505  502 +1.1289037663e+00 +3.0056339454e+01 +4.6011347743e+02 4.6109551079e+02 0.0000000000e+00 0.0000e+00 1.0000e+00
<mgrwt>
<rscale>  4 0.30152453E+03</rscale>
<asrwt>0</asrwt>
<pdfrwt beam="1">  1       21 0.98638266E-01 0.30152453E+03</pdfrwt>
<pdfrwt beam="2">  1       21 0.11650467E+00 0.30152453E+03</pdfrwt>
<totfact> 0.43649257E+02</totfact>
</mgrwt>
</event>
<event>
 6      1 +2.5168241e+02 1.93917800e+02 7.54677100e-03 1.09842800e-01
       21 -1    0    0  505  502 +0.0000000000e+00 +0.0000000000e+00 +5.0717289738e+02 5.0717289738e+02 0.0000000000e+00 0.0000e+00 1.0000e+00
       21 -1    0    0  502  503 -0.0000000000e+00 -0.0000000000e+00 -2.0709003696e+02 2.0709003696e+02 0.0000000000e+00 0.0000e+00 1.0000e+00
        6  1    1    2  501    0 +6.1452118387e+01 -6.0068262129e+01 -8.4497400711e+01 2.1083967771e+02 1.7300000000e+02 0.0000e+00 1.0000e+00
       -6  1    1    2    0  503 -8.3795732188e+01 +4.6324304067e+01 +1.6290413512e+02 2.5619216053e+02 1.7300000000e+02 0.0000e+00 1.0000e+00
       21  1    1    2  504  501 +2.7396447167e+01 -2.4092295826e+01 +1.9274744660e+01 4.1261602213e+01 0.0000000000e+00 0.0000e+00 1.0000e+00
       21  1    1    2  505  504 -5.0528333662e+00 +3.7836253888e+01 +2.0240138136e+02 2.0596949388e+02 0.0000000000e+00 0.0000e+00 1.0000e+00
<mgrwt>
<rscale>  4 0.19391780E+03</rscale>
<asrwt>0</asrwt>
<pdfrwt beam="1">  1       21 0.78026599E-01 0.19391780E+03</pdfrwt>
<pdfrwt beam="2">  1       21 0.31860006E-01 0.19391780E+03</pdfrwt>
<totfact> 0.13773566E+04</totfact>
</mgrwt>
</event>
<event>
 6      1 +2.5168241e+02 3.29129500e+02 7.54677100e-03 1.16820100e-01
       21 -1    0    0  505  502 +0.0000000000e+00 +0.0000000000e+00 +9.2856632471e+02 9.2856632471e+02 0.0000000000e+00 0.0000e+00 1.0000e+00
       21 -1    0    0  501  503 -0.0000000000e+00 -0.0000000000e+00 -6.5178645562e+02 6.5178645562e+02 0.0000000000e+00 0.0000e+00 -1.0000e+00
        6  1    1    2  501    0 +2.9220834884e+02 -4.1061563523e+01 -7.8688415116e+01 3.5098808784e+02 1.7300000000e+02 0.0000e+00 -1.0000e+00
       -6  1    1    2    0  502 -2.8284157567e+02 +2.6249074848e+01 +5.1574300673e+02 6.1368413688e+02 1.7300000000e+02 0.0000e+00 1.0000e+00
       21  1    1    2  504  503 -3.2023956332e+01 -5.3655682759e+01 -3.7964838327e+02 3.8475623581e+02 0.0000000000e+00 0.0000e+00 -1.0000e+00
       21  1    1    2  505  504 +2.2657183168e+01 +6.8468171434e+01 +2.1937366075e+02 2.3092431981e+02 0.0000000000e+00 0.0000e+00 1.0000e+00
<mgrwt>
<rscale>  4 0.32912947E+03</rscale>
<asrwt>0</asrwt>
<pdfrwt beam="1">  1       21 0.14285636E+00 0.32912947E+03</pdfrwt>
<pdfrwt beam="2">  1       21 0.10027484E+00 0.32912947E+03</pdfrwt>
<totfact> 0.24385621E+02</totfact>
</mgrwt>
</event>
<event>
 6      1 +2.5168241e+02 2.32276700e+02 7.54677100e-03 1.04003000e-01
       21 -1    0    0  504  502 +0.0000000000e+00 +0.0000000000e+00 +4.5316883206e+02 4.5316883206e+02 0.0000000000e+00 0.0000e+00 1.0000e+00
       21 -1    0    0  505  503 -0.0000000000e+00 -0.0000000000e+00 -1.7326827047e+02 1.7326827047e+02 0.0000000000e+00 0.0000e+00 1.0000e+00
        6  1    1    2  501    0 +1.4297725613e+02 -5.5717835509e+01 +2.1685059491e+02 3.1701759175e+02 1.7300000000e+02 0.0000e+00 1.0000e+00
       -6  1    1    2    0  503 -1.3891452943e+02 +7.5919687196e+01 +8.7427213866e+01 2.5026698367e+02 1.7300000000e+02 0.0000e+00 1.0000e+00
       21  1    1    2  504  501 -2.6455243515e+01 -6.2154972151e+00 -1.5574336997e+01 3.1322073494e+01 0.0000000000e+00 0.0000e+00 1.0000e+00
       21  1    1    2  505  502 +2.2392516813e+01 -1.3986354472e+01 -8.8029101982e+00 2.7830453618e+01 0.0000000000e+00 0.0000e+00 1.0000e+00
<mgrwt>
<rscale>  4 0.23227674E+03</rscale>
<asrwt>0</asrwt>
<pdfrwt beam="1">  1       21 0.69718281E-01 0.23227674E+03</pdfrwt>
<pdfrwt beam="2">  1       21 0.26656657E-01 0.23227674E+03</pdfrwt>
<totfact> 0.24502924E+04</totfact>
</mgrwt>
</event>
<event>
 6      1 +2.5168241e+02 2.88955400e+02 7.54677100e-03 1.05831300e-01
       21 -1    0    0  504  502 +0.0000000000e+00 +0.0000000000e+00 +1.4605190693e+03 1.4605190693e+03 0.0000000000e+00 0.0000e+00 -1.0000e+00
       21 -1    0    0  501  503 -0.0000000000e+00 -0.0000000000e+00 -1.2602678189e+03 1.2602678189e+03 0.0000000000e+00 0.0000e+00 1.0000e+00
        6  1    1    2  501    0 -2.0187799059e+02 -1.1278040718e+02 -1.0718705958e+03 1.1100944633e+03 1.7300000000e+02 0.0000e+00 1.0000e+00
       -6  1    1    2    0  505 -4.0071142410e+01 -8.7256617684e+01 +2.6628471500e+01 1.9964340530e+02 1.7300000000e+02 0.0000e+00 -1.0000e+00
       21  1    1    2  504  503 +1.9106699616e+02 +1.3585643629e+02 +8.7618452085e+01 2.5028096502e+02 0.0000000000e+00 0.0000e+00 -1.0000e+00
       21  1    1    2  505  502 +5.0882136842e+01 +6.4180588571e+01 +1.1578749227e+03 1.1607680545e+03 0.0000000000e+00 0.0000e+00 -1.0000e+00
<mgrwt>
<rscale>  4 0.25859704E+03</rscale>
<asrwt>0</asrwt>
<pdfrwt beam="1">  1       21 0.22469524E+00 0.28895539E+03</pdfrwt>
<pdfrwt beam="2">  1       21 0.19388736E+00 0.28895539E+03</pdfrwt>
<totfact> 0.11971922E+01</totfact>
</mgrwt>
</event>
<event>
 6      1 +2.5168241e+02 1.85726200e+02 7.54677100e-03 1.15942100e-01
       21 -1    0    0  504  502 +0.0000000000e+00 +0.0000000000e+00 +1.9658308278e+02 1.9658308278e+02 0.0000000000e+00 0.0000e+00 1.0000e+00
       21 -1    0    0  501  503 -0.0000000000e+00 -0.0000000000e+00 -3.2603358487e+02 3.2603358487e+02 0.0000000000e+00 0.0000e+00 1.0000e+00
        6  1    1    2  501    0 +7.1395681129e+01 -7.0382877472e+01 +7.6308179414e+00 2.0009578233e+02 1.7300000000e+02 0.0000e+00 1.0000e+00
       -6  1    1    2    0  502 -3.2633981533e+01 +1.2685352372e+01 -2.6053868195e+01 1.7842000718e+02 1.7300000000e+02 0.0000e+00 -1.0000e+00
       21  1    1    2  504  505 -9.0421496123e+00 +5.4963320492e+01 -9.5251008606e+01 1.1034256527e+02 0.0000000000e+00 0.0000e+00 1.0000e+00
       21  1    1    2  505  503 -2.9719549984e+01 +2.7342046074e+00 -1.5776443234e+01 3.3758312861e+01 0.0000000000e+00 0.0000e+00 1.0000e+00
<mgrwt>
<rscale>  4 0.18572622E+03</rscale>
<asrwt>0</asrwt>
<pdfrwt beam="1">  1       21 0.30243551E-01 0.18572622E+03</pdfrwt>
<pdfrwt beam="2">  1       21 0.50159013E-01 0.18572622E+03</pdfrwt>
<totfact> 0.39843036E+04</totfact>
</mgrwt>
</event>
<event>
 6      1 +2.5168241e+02 2.04765600e+02 7.54677100e-03 1.17132900e-01
       21 -1    0    0  503  502 +0.0000000000e+00 +0.0000000000e+00 +7.6775800439e+02 7.6775800439e+02 0.0000000000e+00 0.0000e+00 -1.0000e+00
       21 -1    0    0  504  503 -0.0000000000e+00 -0.0000000000e+00 -5.8080218334e+02 5.8080218334e+02 0.0000000000e+00 0.0000e+00 -1.0000e+00
        6  1    1    2  501    0 +6.5979902228e-01 +6.3585299830e+01 +1.3008775318e+02 2.2559997610e+02 1.7300000000e+02 0.0000e+00 -1.0000e+00
       -6  1    1    2    0  505 -1.2698610657e+02 -9.7944182504e+01 -4.7621070442e+02 5.3143595019e+02 1.7300000000e+02 0.0000e+00 -1.0000e+00
       21  1    1    2  504  501 +4.2353094830e+01 +1.4157038006e+01 -6.4554825327e+00 4.5120722750e+01 0.0000000000e+00 0.0000e+00 -1.0000e+00
       21  1    1    2  505  502 +8.3973212714e+01 +2.0201844669e+01 +5.3953425481e+02 5.4640353870e+02 0.0000000000e+00 0.0000e+00 -1.0000e+00
<mgrwt>
<rscale>  4 0.20476565E+03</rscale>
<asrwt>0</asrwt>
<pdfrwt beam="1">  1       21 0.11811662E+00 0.20476565E+03</pdfrwt>
<pdfrwt beam="2">  1       21 0.89354182E-01 0.20476565E+03</pdfrwt>
<totfact> 0.57903121E+02</totfact>
</mgrwt>
</event>
<event>
 6      1 +2.5168241e+02 2.15342300e+02 7.54677100e-03 1.15942100e-01
       21 -1    0    0  505  502 +0.0000000000e+00 +0.0000000000e+00 +1.7145092209e+02 1.7145092209e+02 0.0000000000e+00 0.0000e+00 1.0000e+00
       21 -1    0    0  501  503 -0.0000000000e+00 -0.0000000000e+00 -8.0556464757e+02 8.0556464757e+02 0.0000000000e+00 0.0000e+00 1.0000e+00
        6  1    1    2  501    0 -7.2692081585e+01 -1.2433622219e+02 +5.4904984179e+01 2.3170496792e+02 1.7300000000e+02 0.0000e+00 1.0000e+00
       -6  1    1    2    0  504 +2.8706994949e+01 +3.7327251980e+01 -4.3848592701e+02 4.7372600043e+02 1.7300000000e+02 0.0000e+00 1.0000e+00
       21  1    1    2  504  502 +3.2201223147e+01 +5.1756116172e+01 -1.0529802638e+02 1.2166876630e+02 0.0000000000e+00 0.0000e+00 1.0000e+00
       21  1    1    2  505  503 +1.1783863490e+01 +3.5252854034e+01 -1.4523475627e+02 1.4991583500e+02 0.0000000000e+00 0.0000e+00 1.0000e+00
<mgrwt>
<rscale>  4 0.21534225E+03</rscale>
<asrwt>0</asrwt>
<pdfrwt beam="1">  1       21 0.26377065E-01 0.21534225E+03</pdfrwt>
<pdfrwt beam="2">  1       21 0.12393302E+00 0.21534225E+03</pdfrwt>
<totfact> 0.65481847E+03</totfact>
</mgrwt>
</event>
<event>
 6      1 +2.5168241e+02 3.09443600e+02 7.54677100e-03 1.15942100e-01
       21 -1    0    0  504  502 +0.0000000000e+00 +0.0000000000e+00 +6.5905145989e+02 6.5905145989e+02 0.0000000000e+00 0.0000e+00 1.0000e+00
       21 -1    0    0  501  503 -0.0000000000e+00 -0.0000000000e+00 -3.5893353262e+02 3.5893353262e+02 0.0000000000e+00 0.0000e+00 -1.0000e+00
        6  1    1    2  501    0 -8.4835564289e+01 -2.8970507019e+02 -5.4391909054e+01 3.5215561962e+02 1.7300000000e+02 0.0000e+00 1.0000e+00
       -6  1    1    2    0  502 +1.5527095923e+02 +6.0729393148e+01 +3.4884621770e+02 4.2357976058e+02 1.7300000000e+02 0.0000e+00 -1.0000e+00
       21  1    1    2  504  505 -5.3465110048e+01 +1.9640574999e+02 +1.5757701356e+01 2.0416180293e+02 0.0000000000e+00 0.0000e+00 -1.0000e+00
       21  1    1    2  505  503 -1.6970284889e+01 +3.2569927044e+01 -1.0094082740e+01 3.8087809378e+01 0.0000000000e+00 0.0000e+00 1.0000e+00
<mgrwt>
<rscale>  4 0.29047426E+03</rscale>
<asrwt>0</asrwt>
<pdfrwt beam="1">  1       21 0.10139253E+00 0.30944358E+03</pdfrwt>
<pdfrwt beam="2">  1       21 0.55220544E-01 0.30944358E+03</pdfrwt>
<totfact> 0.22614394E+03</totfact>
</mgrwt>
</event>
<event>
 6      1 +2.5168241e+02 1.74784800e+02 7.54677100e-03 1.16820100e-01
       21 -1    0    0  501  502 +0.0000000000e+00 +0.0000000000e+00 +8.0866519391e+02 8.0866519391e+02 0.0000000000e+00 0.0000e+00 1.0000e+00
       21 -1    0    0  504  503 -0.0000000000e+00 -0.0000000000e+00 -1.5912353696e+02 1.5912353696e+02 0.0000000000e+00 0.0000e+00 1.0000e+00
        6  1    1    2  501    0 -7.3307976881e+01 -7.3092863257e+01 +2.4836179413e+02 3.1988936669e+02 1.7300000000e+02 0.0000e+00 1.0000e+00
       -6  1    1    2    0  503 -2.0412446604e+01 -2.4736843601e+01 +2.7408510435e+02 3.2569959140e+02 1.7300000000e+02 0.0000e+00 -1.0000e+00
       21  1    1    2  504  505 -3.8016866941e+01 +5.9331120431e+01 -5.8351465752e+01 9.1489658318e+01 0.0000000000e+00 0.0000e+00 1.0000e+00
       21  1    1    2  505  502 +1.3173729043e+02 +3.8498586426e+01 +1.8544622421e+02 2.3071011447e+02 0.0000000000e+00 0.0000e+00 1.0000e+00
<mgrwt>
<rscale>  4 0.17478481E+03</rscale>
<asrwt>0</asrwt>
<pdfrwt beam="1">  1       21 0.12441003E+00 0.17478481E+03</pdfrwt>
<pdfrwt beam="2">  1       21 0.24480545E-01 0.17478481E+03</pdfrwt>
<totfact> 0.77166757E+03</totfact>
</mgrwt>
</event>
<event>
 6      1 +2.5168241e+02 3.22469000e+02 7.54677100e-03 1.09842800e-01
       21 -1    0    0  503  502 +0.0000000000e+00 +0.0000000000e+00 +6.9697906314e+02 6.9697906314e+02 0.0000000000e+00 0.0000e+00 -1.0000e+00
       21 -1    0    0  504  503 -0.0000000000e+00 -0.0000000000e+00 -2.9943470099e+02 2.9943470099e+02 0.0000000000e+00 0.0000e+00 1.0000e+00
        6  1    1    2  501    0 +2.8209303322e+02 -4.3824403897e+01 -5.7119534390e+01 3.3865719980e+02 1.7300000000e+02 0.0000e+00 1.0000e+00
       -6  1    1    2    0  505 -2.1854302228e+02 +6.3989203943e+01 +2.0058987933e+02 3.4931500182e+02 1.7300000000e+02 0.0000e+00 -1.0000e+00
       21  1    1    2  504  501 +2.2239255954e+01 -1.9062645587e+01 -9.8653057836e+00 3.0907818111e+01 0.0000000000e+00 0.0000e+00 -1.0000e+00
       21  1    1    2  505  502 -8.5789266893e+01 -1.1021544588e+00 +2.6393932299e+02 2.7753374440e+02 0.0000000000e+00 0.0000e+00 -1.0000e+00
<mgrwt>
<rscale>  4 0.32246898E+03</rscale>
<asrwt>0</asrwt>
<pdfrwt beam="1">  1       21 0.10722755E+00 0.32246898E+03</pdfrwt>
<pdfrwt beam="2">  1       21 0.46066877E-01 0.32246898E+03</pdfrwt>
<totfact> 0.28743625E+03</totfact>
</mgrwt>
</event>
<event>
 6      1 +2.5168241e+02 2.42064600e+02 7.54677100e-03 1.16820100e-01
       21 -1    0    0  501  502 +0.0000000000e+00 +0.0000000000e+00 +3.6954954227e+02 3.6954954227e+02 0.0000000000e+00 0.0000e+00 1.0000e+00
       21 -1    0    0  504  503 -0.0000000000e+00 -0.0000000000e+00 -2.2469153644e+03 2.2469153644e+03 0.0000000000e+00 0.0000e+00 1.0000e+00
        6  1    1    2  501    0 +4.4527556957e+01 -1.7343558158e+02 +1.0108137367e+02 2.6871741363e+02 1.7300000000e+02 0.0000e+00 1.0000e+00
       -6  1    1    2    0  503 -3.2576701108e+02 -2.2253426875e+01 -4.7327183025e+02 6.0044532293e+02 1.7300000000e+02 0.0000e+00 1.0000e+00
       21  1    1    2  504  505 +1.9561716178e+02 -1.9514831774e+01 -1.5028761840e+03 1.5156792955e+03 0.0000000000e+00 0.0000e+00 1.0000e+00
       21  1    1    2  505  502 +8.5622292346e+01 +2.1520384023e+02 -2.2991816257e+00 2.3162287459e+02 0.0000000000e+00 0.0000e+00 1.0000e+00
<mgrwt>
<rscale>  4 0.24086433E+03</rscale>
<asrwt>0</asrwt>
<pdfrwt beam="1">  1       21 0.56853777E-01 0.24206459E+03</pdfrwt>
<pdfrwt beam="2">  1       21 0.34567928E+00 0.24206459E+03</pdfrwt>
<totfact> 0.49739085E+01</totfact>
</mgrwt>
</event>
<event>
 6      1 +2.5168241e+02 2.00126300e+02 7.54677100e-03 1.03924000e-01
       21 -1    0    0  504  502 +0.0000000000e+00 +0.0000000000e+00 +1.4017949342e+03 1.4017949342e+03 0.0000000000e+00 0.0000e+00 1.0000e+00
       21 -1    0    0  501  503 -0.0000000000e+00 -0.0000000000e+00 -1.2586129272e+02 1.2586129272e+02 0.0000000000e+00 0.0000e+00 1.0000e+00
        6  1    1    2  501    0 +2.2360774655e+01 -1.3460481732e+02 +3.3028422190e+01 2.2279662871e+02 1.7300000000e+02 0.0000e+00 1.0000e+00
       -6  1    1    2    0  505 +5.1118068944e+01 +8.2968564467e+00 +3.2332741371e+02 3.7033972411e+02 1.7300000000e+02 0.0000e+00 1.0000e+00
       21  1    1    2  504  503 -6.5808279598e+01 +4.6268312942e+01 +3.3977843654e+02 3.4917169470e+02 0.0000000000e+00 0.0000e+00 1.0000e+00
       21  1    1    2  505  502 -7.6705640005e+00 +8.0039647936e+01 +5.7979936909e+02 5.8534817945e+02 0.0000000000e+00 0.0000e+00 1.0000e+00
<mgrwt>
<rscale>  4 0.20012631E+03</rscale>
<asrwt>0</asrwt>
<pdfrwt beam="1">  1       21 0.21566075E+00 0.20012631E+03</pdfrwt>
<pdfrwt beam="2">  1       21 0.19363277E-01 0.20012631E+03</pdfrwt>
<totfact> 0.26031221E+03</totfact>
</mgrwt>
</event>
<event>
 6      1 +2.5168241e+02 1.92584500e+02 7.54677100e-03 1.16820100e-01
       21 -1    0    0  505  502 +0.0000000000e+00 +0.0000000000e+00 +5.4046174227e+01 5.4046174227e+01 0.0000000000e+00 0.0000e+00 -1.0000e+00
       21 -1    0    0  501  503 -0.0000000000e+00 -0.0000000000e+00 -1.0885386670e+03 1.0885386670e+03 0.0000000000e+00 0.0000e+00 -1.0000e+00
        6  1    1    2  501    0 -1.5245023253e+01 -8.9336599670e+01 -6.7406193473e+02 7.0178481789e+02 1.7300000000e+02 0.0000e+00 -1.0000e+00
       -6  1    1    2    0  504 +1.1535723610e+01 +7.2035641163e+01 -3.0082060418e+02 3.5460434630e+02 1.7300000000e+02 0.0000e+00 -1.0000e+00
       21  1    1    2  504  502 -2.4035543965e+01 -4.4757667556e+00 -3.6837667199e+01 4.4212595336e+01 0.0000000000e+00 0.0000e+00 1.0000e+00
       21  1    1    2  505  503 +2.7744843608e+01 +2.1776725263e+01 -2.2772286699e+01 4.1983081729e+01 0.0000000000e+00 0.0000e+00 -1.0000e+00
<mgrwt>
<rscale>  4 0.19258446E+03</rscale>
<asrwt>0</asrwt>
<pdfrwt beam="1">  1       21 0.83147961E-02 0.19258446E+03</pdfrwt>
<pdfrwt beam="2">  1       21 0.16746749E+00 0.19258446E+03</pdfrwt>
<totfact> 0.24949263E+04</totfact>
</mgrwt>
</event>
<event>
 6      1 +2.5168241e+02 2.26046800e+02 7.54677100e-03 1.07240600e-01
       21 -1    0    0  505  502 +0.0000000000e+00 +0.0000000000e+00 +6.1120878796e+02 6.1120878796e+02 0.0000000000e+00 0.0000e+00 1.0000e+00
       21 -1    0    0  504  503 -0.0000000000e+00 -0.0000000000e+00 -4.4428033516e+02 4.4428033516e+02 0.0000000000e+00 0.0000e+00 1.0000e+00
        6  1    1    2  501    0 -8.1326414955e+01 -1.0473484957e+02 +3.8088218240e+02 4.3884349301e+02 1.7300000000e+02 0.0000e+00 1.0000e+00
       -6  1    1    2    0  502 +6.6124145933e+01 +1.8138567955e+02 +8.8833232627e+01 2.7403195186e+02 1.7300000000e+02 0.0000e+00 1.0000e+00
       21  1    1    2  504  501 +2.3435087033e+01 -3.2097177431e+01 -3.4769711783e+00 3.9893877122e+01 0.0000000000e+00 0.0000e+00 1.0000e+00
       21  1    1    2  505  503 -8.2328180105e+00 -4.4553652552e+01 -2.9930999106e+02 3.0271980113e+02 0.0000000000e+00 0.0000e+00 1.0000e+00
<mgrwt>
<rscale>  4 0.22604680E+03</rscale>
<asrwt>0</asrwt>
<pdfrwt beam="1">  1       21 0.94032120E-01 0.22604680E+03</pdfrwt>
<pdfrwt beam="2">  1       21 0.68350821E-01 0.22604680E+03</pdfrwt>
<totfact> 0.17994050E+03</totfact>
</mgrwt>
</event>
<event>
 6      1 +2.5168241e+02 1.95227300e+02 7.54677100e-03 1.15942100e-01
       21 -1    0    0  504  502 +0.0000000000e+00 +0.0000000000e+00 +1.3148130030e+02 1.3148130030e+02 0.0000000000e+00 0.0000e+00 -1.0000e+00
       21 -1    0    0  501  503 -0.0000000000e+00 -0.0000000000e+00 -4.5676597505e+02 4.5676597505e+02 0.0000000000e+00 0.0000e+00 -1.0000e+00
        6  1    1    2  501    0 -1.1752648198e+02 -1.6662300690e+00 -1.6658610027e+02 2.6738582440e+02 1.7300000000e+02 0.0000e+00 -1.0000e+00
       -6  1    1    2    0  505 +6.3254586724e+01 -4.6986706109e+01 -9.7647360438e+01 2.1371219032e+02 1.7300000000e+02 0.0000e+00 -1.0000e+00
       21  1    1    2  504  503 +4.3316082130e+01 +5.6642529172e+00 -3.0991196282e+01 5.3561375815e+01 0.0000000000e+00 0.0000e+00 -1.0000e+00
       21  1    1    2  505  502 +1.0955813128e+01 +4.2988683261e+01 -3.0060017766e+01 5.3587884805e+01 0.0000000000e+00 0.0000e+00 1.0000e+00
<mgrwt>
<rscale>  4 0.19522733E+03</rscale>
<asrwt>0</asrwt>
<pdfrwt beam="1">  1       21 0.20227893E-01 0.19522733E+03</pdfrwt>
<pdfrwt beam="2">  1       21 0.70271687E-01 0.19522733E+03</pdfrwt>
<totfact> 0.41464799E+04</totfact>
</mgrwt>
</event>
<event>
 6      1 +2.5168241e+02 2.34569600e+02 7.54677100e-03 1.17132900e-01
       21 -1    0    0  505  502 +0.0000000000e+00 +0.0000000000e+00 +1.1021351948e+03 1.1021351948e+03 0.0000000000e+00 0.0000e+00 -1.0000e+00
       21 -1    0    0  504  503 -0.0000000000e+00 -0.0000000000e+00 -1.1405752662e+02 1.1405752662e+02 0.0000000000e+00 0.0000e+00 1.0000e+00
        6  1    1    2  501    0 +1.1145654742e+02 -8.2678062649e+01 +5.5966202808e+02 6.0200399474e+02 1.7300000000e+02 0.0000e+00 -1.0000e+00
       -6  1    1    2    0  502 -5.0178430342e+01 +1.6436823654e+02 +2.7574916166e+02 3.6810513744e+02 1.7300000000e+02 0.0000e+00 -1.0000e+00
       21  1    1    2  504  501 -2.7011711386e+01 +1.4236788562e+01 -2.6207589190e+01 4.0238742919e+01 0.0000000000e+00 0.0000e+00 1.0000e+00
       21  1    1    2  505  503 -3.4266405689e+01 -9.5926962450e+01 +1.7887406759e+02 2.0584484628e+02 0.0000000000e+00 0.0000e+00 -1.0000e+00
<mgrwt>
<rscale>  4 0.23456962E+03</rscale>
<asrwt>0</asrwt>
<pdfrwt beam="1">  1       21 0.16955925E+00 0.23456962E+03</pdfrwt>
<pdfrwt beam="2">  1       21 0.17547313E-01 0.23456962E+03</pdfrwt>
<totfact> 0.61183282E+03</totfact>
</mgrwt>
</event>
<event>
 6      1 +2.5168241e+02 2.57593400e+02 7.54677100e-03 1.15942100e-01
       21 -1    0    0  504  502 +0.0000000000e+00 +0.0000000000e+00 +8.0368874445e+02 8.0368874445e+02 0.0000000000e+00 0.0000e+00 1.0000e+00
       21 -1    0    0  501  503 -0.0000000000e+00 -0.0000000000e+00 -4.4827596529e+02 4.4827596529e+02 0.0000000000e+00 0.0000e+00 -1.0000e+00
        6  1    1    2  501    0 -7.3740176068e+01 -4.8295202528e+01 -4.8955123757e+01 2.0023896798e+02 1.7300000000e+02 0.0000e+00 -1.0000e+00
       -6  1    1    2    0  502 +1.9987150907e+02 +7.3890529900e+01 +6.8567686124e+02 7.3857307599e+02 1.7300000000e+02 0.0000e+00 1.0000e+00
       21  1    1    2  504  505 -3.9380017579e+01 -1.1116178559e+01 -4.4080526366e+01 6.0145224374e+01 0.0000000000e+00 0.0000e+00 1.0000e+00
       21  1    1    2  505  503 -8.6751315423e+01 -1.4479148813e+01 -2.3722843195e+02 2.5300744140e+02 0.0000000000e+00 0.0000e+00 -1.0000e+00
<mgrwt>
<rscale>  4 0.25759344E+03</rscale>
<asrwt>0</asrwt>
<pdfrwt beam="1">  1       21 0.12364442E+00 0.25759344E+03</pdfrwt>
<pdfrwt beam="2">  1       21 0.68965533E-01 0.25759344E+03</pdfrwt>
<totfact> 0.88482484E+02</totfact>
</mgrwt>
</event>
<event>
 6      1 +2.5168241e+02 2.01497800e+02 7.54677100e-03 1.03924000e-01
       21 -1    0    0  501  502 +0.0000000000e+00 +0.0000000000e+00 +1.4425597851e+02 1.4425597851e+02 0.0000000000e+00 0.0000e+00 -1.0000e+00
       21 -1    0    0  504  503 -0.0000000000e+00 -0.0000000000e+00 -1.0638901223e+03 1.0638901223e+03 0.0000000000e+00 0.0000e+00 -1.0000e+00
        6  1    1    2  501    0 -4.5398964062e+01 -3.8920820804e+01 +1.6900666742e+01 1.8382200294e+02 1.7300000000e+02 0.0000e+00 -1.0000e+00
       -6  1    1    2    0  505 +1.2786691140e+02 +1.4326127631e+01 -8.8448754081e+02 9.1038584942e+02 1.7300000000e+02 0.0000e+00 -1.0000e+00
       21  1    1    2  504  502 -5.8990591482e+01 +1.0071662249e+01 -5.8610570118e+00 6.0130526799e+01 0.0000000000e+00 0.0000e+00 -1.0000e+00
       21  1    1    2  505  503 -2.3477355854e+01 +1.4523030924e+01 -4.6186212665e+01 5.3807721616e+01 0.0000000000e+00 0.0000e+00 -1.0000e+00
<mgrwt>
<rscale>  4 0.20149776E+03</rscale>
<asrwt>0</asrwt>
<pdfrwt beam="1">  1       21 0.22193228E-01 0.20149776E+03</pdfrwt>
<pdfrwt beam="2">  1       21 0.16367540E+00 0.20149776E+03</pdfrwt>
<totfact> 0.44594995E+03</totfact>
</mgrwt>
</event>
<event>
 6      1 +2.5168241e+02 1.73456500e+02 7.54677100e-03 1.12068800e-01
       21 -1    0    0  504  502 +0.0000000000e+00 +0.0000000000e+00 +1.1354747316e+03 1.1354747316e+03 0.0000000000e+00 0.0000e+00 -1.0000e+00
       21 -1    0    0  502  503 -0.0000000000e+00 -0.0000000000e+00 -1.0171663996e+02 1.0171663996e+02 0.0000000000e+00 0.0000e+00 -1.0000e+00
        6  1    1    2  501    0 -3.0542917108e+01 -4.8657172216e+01 +3.8559132097e+02 4.2650915231e+02 1.7300000000e+02 0.0000e+00 -1.0000e+00
       -6  1    1    2    0  505 -1.1199981070e+00 -1.8359947925e+01 +6.0985456622e+02 6.3418446372e+02 1.7300000000e+02 0.0000e+00 -1.0000e+00
       21  1    1    2  504  501 +8.4985718807e+01 +7.8930644509e+01 +3.7353155848e+01 1.2185186620e+02 0.0000000000e+00 0.0000e+00 -1.0000e+00
       21  1    1    2  505  503 -5.3322803593e+01 -1.1913524368e+01 +9.5904858229e-01 5.4645889324e+01 0.0000000000e+00 0.0000e+00 -1.0000e+00
<mgrwt>
<rscale>  4 0.17345650E+03</rscale>
<asrwt>0</asrwt>
<pdfrwt beam="1">  1       21 0.17468841E+00 0.17345650E+03</pdfrwt>
<pdfrwt beam="2">  1       21 0.15648715E-01 0.17345650E+03</pdfrwt>
<totfact> 0.73066016E+03</totfact>
</mgrwt>
</event>
<event>
 6      1 +2.5168241e+02 1.91166100e+02 7.54677100e-03 1.07240600e-01
       21 -1    0    0  505  502 +0.0000000000e+00 +0.0000000000e+00 +5.0035278438e+02 5.0035278438e+02 0.0000000000e+00 0.0000e+00 1.0000e+00
       21 -1    0    0  504  503 -0.0000000000e+00 -0.0000000000e+00 -1.4048730489e+02 1.4048730489e+02 0.0000000000e+00 0.0000e+00 1.0000e+00
        6  1    1    2  501    0 -6.5987251050e-01 -4.3576333483e+01 +1.6650269440e+02 2.4403171825e+02 1.7300000000e+02 0.0000e+00 -1.0000e+00
       -6  1    1    2    0  502 -9.6053563733e-01 +1.4967445912e+02 +1.1632007738e+02 2.5663734480e+02 1.7300000000e+02 0.0000e+00 -1.0000e+00
       21  1    1    2  504  501 +2.2180226547e+01 -5.2817605512e+01 +2.3603140746e+01 6.1957809474e+01 0.0000000000e+00 0.0000e+00 1.0000e+00
       21  1    1    2  505  503 -2.0559818399e+01 -5.3280520128e+01 +5.3439566957e+01 7.8213216749e+01 0.0000000000e+00 0.0000e+00 1.0000e+00
<mgrwt>
<rscale>  4 0.19116606E+03</rscale>
<asrwt>0</asrwt>
<pdfrwt beam="1">  1       21 0.76977351E-01 0.19116606E+03</pdfrwt>
<pdfrwt beam="2">  1       21 0.21613432E-01 0.19116606E+03</pdfrwt>
<totfact> 0.29962432E+04</totfact>
</mgrwt>
</event>
<event>
 6      1 +2.5168241e+02 2.74753700e+02 7.54677100e-03 1.07240600e-01
       21 -1    0    0  505  502 +0.0000000000e+00 +0.0000000000e+00 +1.8873946312e+02 1.8873946312e+02 0.0000000000e+00 0.0000e+00 -1.0000e+00
       21 -1    0    0  504  503 -0.0000000000e+00 -0.0000000000e+00 -1.9546434863e+03 1.9546434863e+03 0.0000000000e+00 0.0000e+00 -1.0000e+00
        6  1    1    2  501    0 +1.6188712494e+02 -7.8788823834e+01 -3.4447583530e+02 4.2545002184e+02 1.7300000000e+02 0.0000e+00 -1.0000e+00
       -6  1    1    2    0  502 -2.2567409141e+01 -4.3477570722e+01 -2.2182166975e+02 2.8554061056e+02 1.7300000000e+02 0.0000e+00 1.0000e+00
       21  1    1    2  504  501 -1.3088022636e+02 +1.8765335817e+02 +2.1814989000e+00 2.2879723649e+02 0.0000000000e+00 0.0000e+00 -1.0000e+00
       21  1    1    2  505  503 -8.4394894382e+00 -6.5386963617e+01 -1.2017880170e+03 1.2035950805e+03 0.0000000000e+00 0.0000e+00 -1.0000e+00
<mgrwt>
<rscale>  4 0.24946754E+03</rscale>
<asrwt>0</asrwt>
<pdfrwt beam="1">  1       21 0.29036840E-01 0.27475366E+03</pdfrwt>
<pdfrwt beam="2">  1       21 0.30071438E+00 0.27475366E+03</pdfrwt>
<totfact> 0.34693372E+02</totfact>
</mgrwt>
</event>
<event>
 6      1 +2.5168241e+02 2.32126000e+02 7.54677100e-03 1.11471900e-01
       21 -1    0    0  503  502 +0.0000000000e+00 +0.0000000000e+00 +2.7111385145e+02 2.7111385145e+02 0.0000000000e+00 0.0000e+00 -1.0000e+00
       21 -1    0    0  501  503 -0.0000000000e+00 -0.0000000000e+00 -9.8014134851e+02 9.8014134851e+02 0.0000000000e+00 0.0000e+00 -1.0000e+00
        6  1    1    2  501    0 +1.4578806632e+02 -2.6466397062e+01 -5.8942421737e+02 6.3190548223e+02 1.7300000000e+02 0.0000e+00 -1.0000e+00
       -6  1    1    2    0  504 -1.5703286083e+02 +6.8903875797e+01 -2.9204477795e+02 3.8029753590e+02 1.7300000000e+02 0.0000e+00 -1.0000e+00
       21  1    1    2  504  505 +3.7608180426e+01 -6.1051674655e+01 +8.7822727138e+00 7.2241335308e+01 0.0000000000e+00 0.0000e+00 -1.0000e+00
       21  1    1    2  505  502 -2.6363385917e+01 +1.8614195920e+01 +1.6365922556e+02 1.6681084652e+02 0.0000000000e+00 0.0000e+00 -1.0000e+00
<mgrwt>
<rscale>  4 0.23212599E+03</rscale>
<asrwt>0</asrwt>
<pdfrwt beam="1">  1       21 0.41709824E-01 0.23212599E+03</pdfrwt>
<pdfrwt beam="2">  1       21 0.15079097E+00 0.23212599E+03</pdfrwt>
<totfact> 0.15728643E+03</totfact>
</mgrwt>
</event>
<event>
 6      1 +2.5168241e+02 2.89808800e+02 7.54677100e-03 1.16820100e-01
       21 -1    0    0  504  502 +0.0000000000e+00 +0.0000000000e+00 +6.7556528025e+02 6.7556528025e+02 0.0000000000e+00 0.0000e+00 -1.0000e+00
       21 -1    0    0  501  503 -0.0000000000e+00 -0.0000000000e+00 -2.5049424296e+02 2.5049424296e+02 0.0000000000e+00 0.0000e+00 1.0000e+00
        6  1    1    2  501    0 +1.8162244172e+02 -1.9820113279e+02 +1.5386240517e+02 3.5478590742e+02 1.7300000000e+02 0.0000e+00 1.0000e+00
       -6  1    1    2    0  505 -6.9168886282e+01 +2.0091267638e+02 +2.1028788603e+02 3.4539865861e+02 1.7300000000e+02 0.0000e+00 -1.0000e+00
       21  1    1    2  504  503 -5.9865306147e+01 +1.5357155650e+01 -6.4102291159e+01 8.9043814168e+01 0.0000000000e+00 0.0000e+00 -1.0000e+00
       21  1    1    2  505  502 -5.2588249295e+01 -1.8068699246e+01 +1.2502303725e+02 1.3683114302e+02 0.0000000000e+00 0.0000e+00 -1.0000e+00
<mgrwt>
<rscale>  4 0.28980880E+03</rscale>
<asrwt>0</asrwt>
<pdfrwt beam="1">  1       21 0.10393312E+00 0.28980880E+03</pdfrwt>
<pdfrwt beam="2">  1       21 0.38537576E-01 0.28980880E+03</pdfrwt>
<totfact> 0.45559143E+03</totfact>
</mgrwt>
</event>
<event>
 6      1 +2.5168241e+02 1.81674100e+02 7.54677100e-03 1.04003000e-01
       21 -1    0    0  504  502 +0.0000000000e+00 +0.0000000000e+00 +5.4913569683e+02 5.4913569683e+02 0.0000000000e+00 0.0000e+00 -1.0000e+00
       21 -1    0    0  505  503 -0.0000000000e+00 -0.0000000000e+00 -2.0861538747e+02 2.0861538747e+02 0.0000000000e+00 0.0000e+00 -1.0000e+00
        6  1    1    2  501    0 -1.2184679203e+01 +7.1131268931e+00 +9.1890428304e+01 1.9639733653e+02 1.7300000000e+02 0.0000e+00 1.0000e+00
       -6  1    1    2    0  503 -6.4522332578e+01 +6.2105224641e+01 +3.4250753672e+02 3.9403122089e+02 1.7300000000e+02 0.0000e+00 -1.0000e+00
       21  1    1    2  504  501 +3.2566278456e+01 -3.2837443305e+01 -9.9622113192e+01 1.0983362696e+02 0.0000000000e+00 0.0000e+00 -1.0000e+00
       21  1    1    2  505  502 +4.4140733325e+01 -3.6380908230e+01 +5.7444575333e+00 5.7488899924e+01 0.0000000000e+00 0.0000e+00 -1.0000e+00
<mgrwt>
<rscale>  4 0.18167410E+03</rscale>
<asrwt>0</asrwt>
<pdfrwt beam="1">  1       21 0.84482414E-01 0.18167410E+03</pdfrwt>
<pdfrwt beam="2">  1       21 0.32094675E-01 0.18167410E+03</pdfrwt>
<totfact> 0.11431752E+04</totfact>
</mgrwt>
</event>
<event>
 6      1 +2.5168241e+02 2.23381300e+02 7.54677100e-03 1.17132900e-01
       21 -1    0    0  503  502 +0.0000000000e+00 +0.0000000000e+00 +1.9808470899e+03 1.9808470899e+03 0.0000000000e+00 0.0000e+00 -1.0000e+00
       21 -1    0    0  504  503 -0.0000000000e+00 -0.0000000000e+00 -1.6211380186e+02 1.6211380186e+02 0.0000000000e+00 0.0000e+00 -1.0000e+00
        6  1    1    2  501    0 +6.8714792798e+01 -7.9826706261e+01 +5.7228735210e+02 6.0707152722e+02 1.7300000000e+02 0.0000e+00 -1.0000e+00
       -6  1    1    2    0  505 -1.6178202621e+02 +9.2829915310e+01 +7.1056715841e+02 7.5473538660e+02 1.7300000000e+02 0.0000e+00 1.0000e+00
       21  1    1    2  504  501 +8.7142409646e+01 +2.4034302600e+01 -1.0535707994e+02 1.3882204996e+02 0.0000000000e+00 0.0000e+00 -1.0000e+00
       21  1    1    2  505  502 +5.9248237708e+00 -3.7037511649e+01 +6.4123585744e+02 6.4233192796e+02 0.0000000000e+00 0.0000e+00 -1.0000e+00
<mgrwt>
<rscale>  4 0.22338133E+03</rscale>
<asrwt>0</asrwt>
<pdfrwt beam="1">  1       21 0.30474569E+00 0.22338133E+03</pdfrwt>
<pdfrwt beam="2">  1       21 0.24940586E-01 0.22338133E+03</pdfrwt>
<totfact> 0.46771452E+02</totfact>
</mgrwt>
</event>
<event>
 6      1 +2.5168241e+02 3.27897400e+02 7.54677100e-03 1.16820100e-01
       21 -1    0    0  501  502 +0.0000000000e+00 +0.0000000000e+00 +4.4142316307e+02 4.4142316307e+02 0.0000000000e+00 0.0000e+00 -1.0000e+00
       21 -1    0    0  504  503 -0.0000000000e+00 -0.0000000000e+00 -9.5688831827e+02 9.5688831827e+02 0.0000000000e+00 0.0000e+00 -1.0000e+00
        6  1    1    2  501    0 +1.9142383591e+02 -1.2535768159e+02 +2.2622033398e+02 3.6532488663e+02 1.7300000000e+02 0.0000e+00 -1.0000e+00
       -6  1    1    2    0  503 -2.9595858563e+02 +9.5023469810e+01 -4.2755521310e+02 5.5619547326e+02 1.7300000000e+02 0.0000e+00 -1.0000e+00
       21  1    1    2  504  505 +6.0320010773e+01 +6.9352504732e+01 -3.7849613553e+02 3.8949659591e+02 0.0000000000e+00 0.0000e+00 -1.0000e+00
       21  1    1    2  505  502 +4.4214738948e+01 -3.9018292956e+01 +6.4365859453e+01 8.7294525536e+01 0.0000000000e+00 0.0000e+00 -1.0000e+00
<mgrwt>
<rscale>  4 0.32789735E+03</rscale>
<asrwt>0</asrwt>
<pdfrwt beam="1">  1       21 0.67911256E-01 0.32789735E+03</pdfrwt>
<pdfrwt beam="2">  1       21 0.14721359E+00 0.32789735E+03</pdfrwt>
<totfact> 0.55421671E+02</totfact>
</mgrwt>
</event>
<event>
 6      1 +2.5168241e+02 2.11622100e+02 7.54677100e-03 1.16820100e-01
       21 -1    0    0  501  502 +0.0000000000e+00 +0.0000000000e+00 +5.1805543270e+02 5.1805543270e+02 0.0000000000e+00 0.0000e+00 -1.0000e+00
       21 -1    0    0  504  503 -0.0000000000e+00 -0.0000000000e+00 -1.3467107615e+02 1.3467107615e+02 0.0000000000e+00 0.0000e+00 1.0000e+00
        6  1    1    2  501    0 -1.1215256081e+01 -1.1154360500e+02 +1.3601121055e+02 2.4697329245e+02 1.7300000000e+02 0.0000e+00 1.0000e+00
       -6  1    1    2    0  503 +2.5161486357e+01 +1.2965624807e+02 +1.9298634045e+02 2.9088927560e+02 1.7300000000e+02 0.0000e+00 1.0000e+00
       21  1    1    2  504  505 +2.6680274831e+01 -1.4682482323e+01 -1.5334823992e+01 3.4096468718e+01 0.0000000000e+00 0.0000e+00 1.0000e+00
       21  1    1    2  505  502 -4.0626505107e+01 -3.4301607391e+00 +6.9721629551e+01 8.0767472086e+01 0.0000000000e+00 0.0000e+00 1.0000e+00
<mgrwt>
<rscale>  4 0.21162207E+03</rscale>
<asrwt>0</asrwt>
<pdfrwt beam="1">  1       21 0.79700835E-01 0.21162207E+03</pdfrwt>
<pdfrwt beam="2">  1       21 0.20718627E-01 0.21162207E+03</pdfrwt>
<totfact> 0.29657610E+04</totfact>
</mgrwt>
</event>
<event>
 6      1 +2.5168241e+02 1.80364100e+02 7.54677100e-03 1.17132900e-01
       21 -1    0    0  503  502 +0.0000000000e+00 +0.0000000000e+00 +2.7368057945e+03 2.7368057945e+03 0.0000000000e+00 0.0000e+00 -1.0000e+00
       21 -1    0    0  504  503 -0.0000000000e+00 -0.0000000000e+00 -4.6014965471e+01 4.6014965471e+01 0.0000000000e+00 0.0000e+00 1.0000e+00
        6  1    1    2  501    0 +1.6026209379e+01 +4.1373961792e+01 +4.4697793983e+02 4.8133867785e+02 1.7300000000e+02 0.0000e+00 1.0000e+00
       -6  1    1    2    0  505 -5.5111501993e+01 -3.3558310219e+01 +4.5793740361e+02 4.9376016796e+02 1.7300000000e+02 0.0000e+00 -1.0000e+00
       21  1    1    2  504  501 -1.9145196571e+01 +7.4650114345e+01 +1.4912772705e+02 1.6786380521e+02 0.0000000000e+00 0.0000e+00 1.0000e+00
       21  1    1    2  505  502 +5.8230489185e+01 -8.2465765918e+01 +1.6367477586e+03 1.6398581090e+03 0.0000000000e+00 0.0000e+00 -1.0000e+00
<mgrwt>
<rscale>  4 0.18036410E+03</rscale>
<asrwt>0</asrwt>
<pdfrwt beam="1">  1       21 0.42104692E+00 0.18036410E+03</pdfrwt>
<pdfrwt beam="2">  1       21 0.70792276E-02 0.18036410E+03</pdfrwt>
<totfact> 0.97188648E+02</totfact>
</mgrwt>
</event>
<event>
 6      1 +2.5168241e+02 8.14515500e+02 7.54677100e-03 1.04003000e-01
       21 -1    0    0  504  502 +0.0000000000e+00 +0.0000000000e+00 +5.3967928242e+02 5.3967928242e+02 0.0000000000e+00 0.0000e+00 1.0000e+00
       21 -1    0    0  502  503 -0.0000000000e+00 -0.0000000000e+00 -2.7104346626e+03 2.7104346626e+03 0.0000000000e+00 0.0000e+00 -1.0000e+00
        6  1    1    2  501    0 +2.0884863227e+02 -6.9287166780e+02 -1.4078027961e+03 1.5923337000e+03 1.7300000000e+02 0.0000e+00 -1.0000e+00
       -6  1    1    2    0  505 -4.5079196454e+02 +6.8796242244e+02 +1.2078640203e+01 8.4058347803e+02 1.7300000000e+02 0.0000e+00 1.0000e+00
       21  1    1    2  504  501 +2.3283778148e+02 +2.4687884002e+01 -7.3784510602e+02 7.7410485374e+02 0.0000000000e+00 0.0000e+00 -1.0000e+00
       21  1    1    2  505  503 +9.1055507912e+00 -1.9778638639e+01 -3.7186118196e+01 4.3091913256e+01 0.0000000000e+00 0.0000e+00 1.0000e+00
<mgrwt>
<rscale>  4 0.81451555E+03</rscale>
<asrwt>0</asrwt>
<pdfrwt beam="1">  1       21 0.83027581E-01 0.81451555E+03</pdfrwt>
<pdfrwt beam="2">  1       21 0.41698995E+00 0.81451555E+03</pdfrwt>
<totfact> 0.49264731E+00</totfact>
</mgrwt>
</event>
<event>
 6      1 +2.5168241e+02 2.10940500e+02 7.54677100e-03 1.07240600e-01
       21 -1    0    0  505  502 +0.0000000000e+00 +0.0000000000e+00 +3.9445542975e+02 3.9445542975e+02 0.0000000000e+00 0.0000e+00 1.0000e+00
       21 -1    0    0  504  503 -0.0000000000e+00 -0.0000000000e+00 -3.4176447608e+02 3.4176447608e+02 0.0000000000e+00 0.0000e+00 -1.0000e+00
        6  1    1    2  501    0 -4.4182928072e+01 -1.2707233365e+02 +2.0219913128e+02 2.9818282613e+02 1.7300000000e+02 0.0000e+00 1.0000e+00
       -6  1    1    2    0  502 -1.8950907868e+01 +1.0411966749e+02 -1.2094900740e+02 2.3613069360e+02 1.7300000000e+02 0.0000e+00 -1.0000e+00
       21  1    1    2  504  501 +4.0729501205e+01 +2.5324457219e+00 +7.9669360251e+01 8.9512638843e+01 0.0000000000e+00 0.0000e+00 1.0000e+00
       21  1    1    2  505  503 +2.2404334734e+01 +2.0420220441e+01 -1.0822853046e+02 1.1239374726e+02 0.0000000000e+00 0.0000e+00 -1.0000e+00
<mgrwt>
<rscale>  4 0.21094049E+03</rscale>
<asrwt>0</asrwt>
<pdfrwt beam="1">  1       21 0.60685450E-01 0.21094049E+03</pdfrwt>
<pdfrwt beam="2">  1       21 0.52579151E-01 0.21094049E+03</pdfrwt>
<totfact> 0.85626064E+03</totfact>
</mgrwt>
</event>
<event>
 6      1 +2.5168241e+02 1.82279800e+02 7.54677100e-03 1.11910500e-01
       21 -1    0    0  501  502 +0.0000000000e+00 +0.0000000000e+00 +1.5937149166e+02 1.5937149166e+02 0.0000000000e+00 0.0000e+00 -1.0000e+00
       21 -1    0    0  504  503 -0.0000000000e+00 -0.0000000000e+00 -4.8711477829e+02 4.8711477829e+02 0.0000000000e+00 0.0000e+00 -1.0000e+00
        6  1    1    2  501    0 -1.9525275506e+01 +1.4960902322e+01 -1.6403086227e+02 2.3966682866e+02 1.7300000000e+02 0.0000e+00 -1.0000e+00
       -6  1    1    2    0  503 +7.0357760236e+01 +2.0084766474e+01 +4.0014654738e+01 1.9205151617e+02 1.7300000000e+02 0.0000e+00 -1.0000e+00
       21  1    1    2  504  505 -2.2206467373e+01 -2.8363797389e+00 -9.9438270612e+01 1.0192714018e+02 0.0000000000e+00 0.0000e+00 -1.0000e+00
       21  1    1    2  505  502 -2.8626017357e+01 -3.2209289057e+01 -1.0428880848e+02 1.1284078494e+02 0.0000000000e+00 0.0000e+00 -1.0000e+00
<mgrwt>
<rscale>  4 0.18227977E+03</rscale>
<asrwt>0</asrwt>
<pdfrwt beam="1">  1       21 0.24518691E-01 0.18227977E+03</pdfrwt>
<pdfrwt beam="2">  1       21 0.74940735E-01 0.18227977E+03</pdfrwt>
<totfact> 0.25184375E+04</totfact>
</mgrwt>
</event>
<event>
 6      1 +2.5168241e+02 2.27109700e+02 7.54677100e-03 1.03924000e-01
       21 -1    0    0  501  502 +0.0000000000e+00 +0.0000000000e+00 +1.4886156153e+02 1.4886156153e+02 0.0000000000e+00 0.0000e+00 -1.0000e+00
       21 -1    0    0  504  503 -0.0000000000e+00 -0.0000000000e+00 -8.6475113966e+02 8.6475113966e+02 0.0000000000e+00 0.0000e+00 -1.0000e+00
        6  1    1    2  501    0 +1.4775339734e+01 +1.0888755751e+02 -1.0983253311e+02 2.3252310890e+02 1.7300000000e+02 0.0000e+00 -1.0000e+00
       -6  1    1    2    0  505 +8.7906021581e+01 -1.4421407239e+02 -6.0467158448e+02 6.5121570342e+02 1.7300000000e+02 0.0000e+00 -1.0000e+00
       21  1    1    2  504  502 -4.7382066477e+01 +4.8146493571e+01 +1.7967434818e+01 6.9899740921e+01 0.0000000000e+00 0.0000e+00 -1.0000e+00
       21  1    1    2  505  503 -5.5299294838e+01 -1.2819978694e+01 -1.9352895357e+01 5.9974147948e+01 0.0000000000e+00 0.0000e+00 -1.0000e+00
<mgrwt>
<rscale>  4 0.22710970E+03</rscale>
<asrwt>0</asrwt>
<pdfrwt beam="1">  1       21 0.22901778E-01 0.22710970E+03</pdfrwt>
<pdfrwt beam="2">  1       21 0.13303864E+00 0.22710970E+03</pdfrwt>
<totfact> 0.71116979E+03</totfact>
</mgrwt>
</event>
<event>
 6      1 +2.5168241e+02 2.81924800e+02 7.54677100e-03 1.17392200e-01
       21 -1    0    0  504  502 +0.0000000000e+00 +0.0000000000e+00 +2.8352241843e+02 2.8352241843e+02 0.0000000000e+00 0.0000e+00 1.0000e+00
       21 -1    0    0  501  503 -0.0000000000e+00 -0.0000000000e+00 -5.0188405953e+02 5.0188405953e+02 0.0000000000e+00 0.0000e+00 1.0000e+00
        6  1    1    2  501    0 +1.3055388953e+02 +1.5997416351e+02 -1.0948249410e+02 2.9077735052e+02 1.7300000000e+02 0.0000e+00 1.0000e+00
       -6  1    1    2    0  502 -5.2169366039e+01 -2.3797137890e+02 +2.2206100715e+01 2.9962331491e+02 1.7300000000e+02 0.0000e+00 1.0000e+00
       21  1    1    2  504  505 -5.5838534374e+00 +7.1017401320e+01 -6.5326877069e+01 9.6655323584e+01 0.0000000000e+00 0.0000e+00 1.0000e+00
       21  1    1    2  505  503 -7.2800670051e+01 +6.9798140773e+00 -6.5758370651e+01 9.8350488942e+01 0.0000000000e+00 0.0000e+00 -1.0000e+00
<mgrwt>
<rscale>  4 0.28192483E+03</rscale>
<asrwt>0</asrwt>
<pdfrwt beam="1">  1       21 0.43618834E-01 0.28192483E+03</pdfrwt>
<pdfrwt beam="2">  1       21 0.77212931E-01 0.28192483E+03</pdfrwt>
<totfact> 0.71187005E+03</totfact>
</mgrwt>
</event>
<event>
 6      1 +2.5168241e+02 1.97783700e+02 7.54677100e-03 1.17132900e-01
       21 -1    0    0  503  502 +0.0000000000e+00 +0.0000000000e+00 +2.6148483952e+03 2.6148483952e+03 0.0000000000e+00 0.0000e+00 -1.0000e+00
       21 -1    0    0  504  503 -0.0000000000e+00 -0.0000000000e+00 -3.5626226748e+01 3.5626226748e+01 0.0000000000e+00 0.0000e+00 1.0000e+00
        6  1    1    2  501    0 -1.1377055678e+02 +5.7638709767e+01 +1.0482687035e+03 1.0700758082e+03 1.7300000000e+02 0.0000e+00 -1.0000e+00
       -6  1    1    2    0  505 +3.2123232304e+00 -8.7579369143e+01 +5.8380108814e+02 6.1516922504e+02 1.7300000000e+02 0.0000e+00 1.0000e+00
       21  1    1    2  504  501 +1.7779153744e+01 -3.5648047446e+01 +6.8340738620e+01 7.9103338423e+01 0.0000000000e+00 0.0000e+00 -1.0000e+00
       21  1    1    2  505  502 +9.2779079809e+01 +6.5588706822e+01 +8.7881163818e+02 8.8612625033e+02 0.0000000000e+00 0.0000e+00 -1.0000e+00
<mgrwt>
<rscale>  4 0.19778371E+03</rscale>
<asrwt>0</asrwt>
<pdfrwt beam="1">  1       21 0.40228422E+00 0.19778371E+03</pdfrwt>
<pdfrwt beam="2">  1       21 0.54809600E-02 0.19778371E+03</pdfrwt>
<totfact> 0.19257896E+03</totfact>
</mgrwt>
</event>
<event>
 6      1 +2.5168241e+02 1.85561100e+02 7.54677100e-03 1.15942100e-01
       21 -1    0    0  504  502 +0.0000000000e+00 +0.0000000000e+00 +1.9460745321e+02 1.9460745321e+02 0.0000000000e+00 0.0000e+00 -1.0000e+00
       21 -1    0    0  501  503 -0.0000000000e+00 -0.0000000000e+00 -7.0676331804e+02 7.0676331804e+02 0.0000000000e+00 0.0000e+00 -1.0000e+00
        6  1    1    2  501    0 -2.7242416443e+01 -5.2825633488e+01 +9.9682467685e+01 2.0832256520e+02 1.7300000000e+02 0.0000e+00 -1.0000e+00
       -6  1    1    2    0  502 +7.0704744327e+01 +8.0822990461e+01 -2.3011875652e+02 3.0727049771e+02 1.7300000000e+02 0.0000e+00 -1.0000e+00
       21  1    1    2  504  505 -3.2901206089e+01 -9.7616945602e+00 -2.5867600823e+02 2.6094263215e+02 0.0000000000e+00 0.0000e+00 -1.0000e+00
       21  1    1    2  505  503 -1.0561121795e+01 -1.8235662413e+01 -1.2304356777e+02 1.2483507619e+02 0.0000000000e+00 0.0000e+00 -1.0000e+00
<mgrwt>
<rscale>  4 0.18556113E+03</rscale>
<asrwt>0</asrwt>
<pdfrwt beam="1">  1       21 0.29939608E-01 0.18556113E+03</pdfrwt>
<pdfrwt beam="2">  1       21 0.10873282E+00 0.18556113E+03</pdfrwt>
<totfact> 0.72241177E+03</totfact>
</mgrwt>
</event>
<event>
 6      1 +2.5168241e+02 4.64042400e+02 7.54677100e-03 9.87464100e-02
       21 -1    0    0  503  502 +0.0000000000e+00 +0.0000000000e+00 +2.1534478832e+03 2.1534478832e+03 0.0000000000e+00 0.0000e+00 1.0000e+00
       21 -1    0    0  505  503 -0.0000000000e+00 -0.0000000000e+00 -4.0440004847e+02 4.0440004847e+02 0.0000000000e+00 0.0000e+00 1.0000e+00
        6  1    1    2  501    0 -1.9862229683e+01 +5.9924591387e+01 +1.1487541812e+03 1.1634219500e+03 1.7300000000e+02 0.0000e+00 1.0000e+00
       -6  1    1    2    0  504 +3.1686277243e+02 +2.4074379722e+02 +6.0489830347e+02 7.4443975578e+02 1.7300000000e+02 0.0000e+00 -1.0000e+00
       21  1    1    2  504  502 +7.8263998427e+01 -7.3793365848e+01 +1.5037730989e+02 1.8488929018e+02 0.0000000000e+00 0.0000e+00 -1.0000e+00
       21  1    1    2  505  501 -3.7526454118e+02 -2.2687502276e+02 -1.5498195979e+02 4.6509693579e+02 0.0000000000e+00 0.0000e+00 1.0000e+00
<mgrwt>
<rscale>  4 0.36401827E+03</rscale>
<asrwt>0</asrwt>
<pdfrwt beam="1">  1       21 0.33129967E+00 0.46404238E+03</pdfrwt>
<pdfrwt beam="2">  1       21 0.62215393E-01 0.46404238E+03</pdfrwt>
<totfact> 0.40154687E+01</totfact>
</mgrwt>
</event>
<event>
 6      1 +2.5168241e+02 1.81324800e+02 7.54677100e-03 1.16584500e-01
       21 -1    0    0  505  502 +0.0000000000e+00 +0.0000000000e+00 +2.1915845506e+02 2.1915845506e+02 0.0000000000e+00 0.0000e+00 -1.0000e+00
       21 -1    0    0  501  503 -0.0000000000e+00 -0.0000000000e+00 -7.5841172348e+02 7.5841172348e+02 0.0000000000e+00 0.0000e+00 -1.0000e+00
        6  1    1    2  501    0 +8.0298227290e+01 +2.8316632418e+01 -4.2307337395e+02 4.6494055181e+02 1.7300000000e+02 0.0000e+00 -1.0000e+00
       -6  1    1    2    0  502 +9.0242258619e+00 +7.9131299322e+01 -1.2778352586e+02 2.2934870539e+02 1.7300000000e+02 0.0000e+00 -1.0000e+00
       21  1    1    2  504  503 -4.3596149079e+01 -1.0284847317e+02 -1.0786084352e+02 1.5528166090e+02 0.0000000000e+00 0.0000e+00 -1.0000e+00
       21  1    1    2  505  504 -4.5726304072e+01 -4.5994585676e+00 +1.1946447491e+02 1.2799926043e+02 0.0000000000e+00 0.0000e+00 -1.0000e+00
<mgrwt>
<rscale>  4 0.18132480E+03</rscale>
<asrwt>0</asrwt>
<pdfrwt beam="1">  1       21 0.33716686E-01 0.18132480E+03</pdfrwt>
<pdfrwt beam="2">  1       21 0.11667873E+00 0.18132480E+03</pdfrwt>
<totfact> 0.48399109E+03</totfact>
</mgrwt>
</event>
<event>
 6      1 +2.5168241e+02 2.18480000e+02 7.54677100e-03 1.15942100e-01
       21 -1    0    0  503  502 +0.0000000000e+00 +0.0000000000e+00 +1.9848568034e+02 1.9848568034e+02 0.0000000000e+00 0.0000e+00 1.0000e+00
       21 -1    0    0  501  503 -0.0000000000e+00 -0.0000000000e+00 -1.3405782553e+03 1.3405782553e+03 0.0000000000e+00 0.0000e+00 -1.0000e+00
        6  1    1    2  501    0 +7.1390880699e+01 -1.5976275460e+02 -1.3692170463e+01 2.4644932773e+02 1.7300000000e+02 0.0000e+00 -1.0000e+00
       -6  1    1    2    0  505 +5.6811847951e+01 +8.7657624157e+01 -1.5401367272e+02 2.5408789134e+02 1.7300000000e+02 0.0000e+00 1.0000e+00
       21  1    1    2  504  502 -1.8456160732e+02 -7.6809671065e+01 -5.5895513127e+02 5.9362745155e+02 0.0000000000e+00 0.0000e+00 -1.0000e+00
       21  1    1    2  505  504 +5.6358878668e+01 +1.4891480151e+02 -4.1543160048e+02 4.4489926499e+02 0.0000000000e+00 0.0000e+00 -1.0000e+00
<mgrwt>
<rscale>  4 0.21847998E+03</rscale>
<asrwt>0</asrwt>
<pdfrwt beam="1">  1       21 0.30536258E-01 0.21847998E+03</pdfrwt>
<pdfrwt beam="2">  1       21 0.20624281E+00 0.21847998E+03</pdfrwt>
<totfact> 0.12271341E+03</totfact>
</mgrwt>
</event>
<event>
 6      1 +2.5168241e+02 2.56205000e+02 7.54677100e-03 1.17132900e-01
       21 -1    0    0  503  502 +0.0000000000e+00 +0.0000000000e+00 +3.7875996974e+02 3.7875996974e+02 0.0000000000e+00 0.0000e+00 -1.0000e+00
       21 -1    0    0  504  503 -0.0000000000e+00 -0.0000000000e+00 -3.1593376687e+02 3.1593376687e+02 0.0000000000e+00 0.0000e+00 -1.0000e+00
        6  1    1    2  501    0 +1.9305844735e+02 -9.7745483128e+01 +1.9588457015e+02 3.3930150072e+02 1.7300000000e+02 0.0000e+00 -1.0000e+00
       -6  1    1    2    0  505 -1.4657445621e+02 +7.3358349909e+01 -5.7950939135e+01 2.4526073893e+02 1.7300000000e+02 0.0000e+00 -1.0000e+00
       21  1    1    2  504  501 -2.2684330920e+01 +1.3830824473e+01 -7.9415434367e+01 8.3741756553e+01 0.0000000000e+00 0.0000e+00 -1.0000e+00
       21  1    1    2  505  502 -2.3799660222e+01 +1.0556308746e+01 +4.3080062271e+00 2.6389740405e+01 0.0000000000e+00 0.0000e+00 -1.0000e+00
<mgrwt>
<rscale>  4 0.25620501E+03</rscale>
<asrwt>0</asrwt>
<pdfrwt beam="1">  1       21 0.58270765E-01 0.25620501E+03</pdfrwt>
<pdfrwt beam="2">  1       21 0.48605194E-01 0.25620501E+03</pdfrwt>
<totfact> 0.10727741E+04</totfact>
</mgrwt>
</event>
<event>
 6      1 +2.5168241e+02 2.26335400e+02 7.54677100e-03 1.15942100e-01
       21 -1    0    0  504  502 +0.0000000000e+00 +0.0000000000e+00 +4.0185482559e+02 4.0185482559e+02 0.0000000000e+00 0.0000e+00 1.0000e+00
       21 -1    0    0  501  503 -0.0000000000e+00 -0.0000000000e+00 -2.9697497554e+03 2.9697497554e+03 0.0000000000e+00 0.0000e+00 -1.0000e+00
        6  1    1    2  501    0 +8.2027997706e+01 +2.2634027944e+02 -3.4127061002e+02 4.5205435931e+02 1.7300000000e+02 0.0000e+00 -1.0000e+00
       -6  1    1    2    0  502 -1.3817859769e+02 -4.3604526420e+01 +3.0541216970e+02 3.7973711036e+02 1.7300000000e+02 0.0000e+00 1.0000e+00
       21  1    1    2  504  505 +6.0868324919e+01 -1.4454555342e+02 -2.1926391883e+03 2.1982413380e+03 0.0000000000e+00 0.0000e+00 -1.0000e+00
       21  1    1    2  505  503 -4.7177249350e+00 -3.8190199603e+01 -3.3939730128e+02 3.4157177341e+02 0.0000000000e+00 0.0000e+00 -1.0000e+00
<mgrwt>
<rscale>  4 0.22633539E+03</rscale>
<asrwt>0</asrwt>
<pdfrwt beam="1">  1       21 0.61823821E-01 0.22633539E+03</pdfrwt>
<pdfrwt beam="2">  1       21 0.45688457E+00 0.22633539E+03</pdfrwt>
<totfact> 0.84980396E+00</totfact>
</mgrwt>
</event>
<event>
 6      1 +2.5168241e+02 1.81864400e+02 7.54677100e-03 1.06249800e-01
       21 -1    0    0  503  502 +0.0000000000e+00 +0.0000000000e+00 +3.8532627620e+02 3.8532627620e+02 0.0000000000e+00 0.0000e+00 -1.0000e+00
       21 -1    0    0  501  503 -0.0000000000e+00 -0.0000000000e+00 -8.8543916084e+02 8.8543916084e+02 0.0000000000e+00 0.0000e+00 1.0000e+00
        6  1    1    2  501    0 +5.7735578680e+01 -2.1316544928e+00 -7.7771289067e+02 7.9881429714e+02 1.7300000000e+02 0.0000e+00 1.0000e+00
       -6  1    1    2    0  505 -3.2666107799e+01 +6.0796845229e+01 +4.1117794932e+01 1.9074329359e+02 1.7300000000e+02 0.0000e+00 -1.0000e+00
       21  1    1    2  504  502 -2.1216817492e+01 +1.6359724484e+01 +1.9208750989e+02 1.9394691383e+02 0.0000000000e+00 0.0000e+00 -1.0000e+00
       21  1    1    2  505  504 -3.8526533884e+00 -7.5024915220e+01 +4.4394701203e+01 8.7260932477e+01 0.0000000000e+00 0.0000e+00 -1.0000e+00
<mgrwt>
<rscale>  4 0.18186437E+03</rscale>
<asrwt>0</asrwt>
<pdfrwt beam="1">  1       21 0.59280966E-01 0.18186437E+03</pdfrwt>
<pdfrwt beam="2">  1       21 0.13622141E+00 0.18186437E+03</pdfrwt>
<totfact> 0.10325767E+03</totfact>
</mgrwt>
</event>
<event>
 6      1 +2.5168241e+02 2.21099400e+02 7.54677100e-03 1.16820100e-01
       21 -1    0    0  504  502 +0.0000000000e+00 +0.0000000000e+00 +1.5064569774e+02 1.5064569774e+02 0.0000000000e+00 0.0000e+00 1.0000e+00
       21 -1    0    0  501  503 -0.0000000000e+00 -0.0000000000e+00 -6.8033432337e+02 6.8033432337e+02 0.0000000000e+00 0.0000e+00 1.0000e+00
        6  1    1    2  501    0 +1.5396119610e+02 +1.3887565418e+01 -3.7405478485e+02 4.4016235237e+02 1.7300000000e+02 0.0000e+00 1.0000e+00
       -6  1    1    2    0  505 -1.2721034283e+02 -5.5399744635e-01 -1.7293700128e+02 2.7571540517e+02 1.7300000000e+02 0.0000e+00 1.0000e+00
       21  1    1    2  504  503 -2.4899971331e+01 +7.6864909068e+00 -4.3518432416e+01 5.0724202060e+01 0.0000000000e+00 0.0000e+00 1.0000e+00
       21  1    1    2  505  502 -1.8508819332e+00 -2.1020058878e+01 +6.0821592916e+01 6.4378061512e+01 0.0000000000e+00 0.0000e+00 1.0000e+00
<mgrwt>
<rscale>  4 0.22109937E+03</rscale>
<asrwt>0</asrwt>
<pdfrwt beam="1">  1       21 0.23176261E-01 0.22109937E+03</pdfrwt>
<pdfrwt beam="2">  1       21 0.10466682E+00 0.22109937E+03</pdfrwt>
<totfact> 0.12640467E+04</totfact>
</mgrwt>
</event>
<event>
 6      1 +2.5168241e+02 1.85862500e+02 7.54677100e-03 1.17132900e-01
       21 -1    0    0  505  502 +0.0000000000e+00 +0.0000000000e+00 +3.7234815447e+02 3.7234815447e+02 0.0000000000e+00 0.0000e+00 -1.0000e+00
       21 -1    0    0  504  503 -0.0000000000e+00 -0.0000000000e+00 -1.2416833135e+03 1.2416833135e+03 0.0000000000e+00 0.0000e+00 -1.0000e+00
        6  1    1    2  501    0 -5.1965391854e+01 +3.7168430359e+01 -1.0688095835e+03 1.0846035312e+03 1.7300000000e+02 0.0000e+00 -1.0000e+00
       -6  1    1    2    0  502 +8.6603407060e+01 -5.6555462629e+01 -7.8054028663e+01 2.1614833300e+02 1.7300000000e+02 0.0000e+00 -1.0000e+00
       21  1    1    2  504  501 -1.1177449166e+01 -1.7307694797e+01 -9.6967839676e+00 2.2771018606e+01 0.0000000000e+00 0.0000e+00 1.0000e+00
       21  1    1    2  505  503 -2.3460566040e+01 +3.6694727067e+01 +2.8722523716e+02 2.9050858509e+02 0.0000000000e+00 0.0000e+00 -1.0000e+00
<mgrwt>
<rscale>  4 0.18586252E+03</rscale>
<asrwt>0</asrwt>
<pdfrwt beam="1">  1       21 0.57284332E-01 0.18586252E+03</pdfrwt>
<pdfrwt beam="2">  1       21 0.19102820E+00 0.18586252E+03</pdfrwt>
<totfact> 0.44307869E+02</totfact>
</mgrwt>
</event>
</LesHouchesEvents>
