<event>
 4    1  0.6092738E+000  0.1000000E+03  0.7546771E-02  0.1280296E+00
         21   -1    0    0  501  502  0.00000000000E+00  0.00000000000E+00  0.53886831797E+03  0.53886831797E+03  0.00000000000E+00 0. -1.
         21   -1    0    0  502  503 -0.00000000000E+00 -0.00000000000E+00 -0.89608754066E+02  0.89608754066E+02  0.00000000000E+00 0. -1.
          6    1    1    2  501    0 -0.44710922751E+02  0.45046707789E+02  0.39581516997E+03  0.43660843015E+03  0.17300000000E+03 0.  1.
         -6    1    1    2    0  503  0.44710922751E+02 -0.45046707789E+02  0.53444393925E+02  0.19186864188E+03  0.17300000000E+03 0.  1.
</event>
<event>
 4    1  0.6092738E+000  0.1000000E+03  0.7546771E-02  0.1280296E+00
         21   -1    0    0  501  502  0.00000000000E+00  0.00000000000E+00  0.60942982140E+02  0.60942982140E+02  0.00000000000E+00 0. -1.
         21   -1    0    0  502  503 -0.00000000000E+00 -0.00000000000E+00 -0.73702497612E+03  0.73702497612E+03  0.00000000000E+00 0. -1.
          6    1    1    2  501    0  0.29091450631E+02  0.11617131451E+03 -0.38586780598E+03  0.43950546130E+03  0.17300000000E+03 0.  1.
         -6    1    1    2    0  503 -0.29091450631E+02 -0.11617131451E+03 -0.29021418800E+03  0.35846249696E+03  0.17300000000E+03 0.  1.
</event>
<event>
 4    1  0.6092738E+000  0.1000000E+03  0.7546771E-02  0.1280296E+00
         21   -1    0    0  501  502  0.00000000000E+00  0.00000000000E+00  0.31259811624E+03  0.31259811624E+03  0.00000000000E+00 0.  1.
         21   -1    0    0  502  503 -0.00000000000E+00 -0.00000000000E+00 -0.19769717521E+03  0.19769717521E+03  0.00000000000E+00 0.  1.
          6    1    1    2  501    0  0.12706237579E+03 -0.58497371269E+02  0.17129728181E+03  0.28078203031E+03  0.17300000000E+03 0.  1.
         -6    1    1    2    0  503 -0.12706237579E+03  0.58497371269E+02 -0.56396340790E+02  0.22951326114E+03  0.17300000000E+03 0.  1.
</event>
<event>
 4    1  0.6092738E+000  0.1000000E+03  0.7546771E-02  0.1280296E+00
         21   -1    0    0  501  502  0.00000000000E+00  0.00000000000E+00  0.10190073443E+03  0.10190073443E+03  0.00000000000E+00 0.  1.
         21   -1    0    0  502  503 -0.00000000000E+00 -0.00000000000E+00 -0.58318171742E+03  0.58318171742E+03  0.00000000000E+00 0.  1.
          6    1    1    2  501    0 -0.47121052492E+02 -0.13565864317E+03 -0.10827293027E+03  0.24955097372E+03  0.17300000000E+03 0.  1.
         -6    1    1    2    0  503  0.47121052492E+02  0.13565864317E+03 -0.37300805271E+03  0.43553147813E+03  0.17300000000E+03 0.  1.
</event>
<event>
 4    1  0.6092738E+000  0.1000000E+03  0.7546771E-02  0.1280296E+00
         21   -1    0    0  501  502  0.00000000000E+00  0.00000000000E+00  0.38919993755E+03  0.38919993755E+03  0.00000000000E+00 0.  1.
         21   -1    0    0  502  503 -0.00000000000E+00 -0.00000000000E+00 -0.13199418238E+03  0.13199418238E+03  0.00000000000E+00 0. -1.
          6    1    1    2  501    0  0.75022361235E+02 -0.11196273214E+02  0.27261834201E+03  0.33166771265E+03  0.17300000000E+03 0.  1.
         -6    1    1    2    0  503 -0.75022361235E+02  0.11196273214E+02 -0.15412586834E+02  0.18952640727E+03  0.17300000000E+03 0. -1.
</event>
<event>
 4    1  0.6092738E+000  0.1000000E+03  0.7546771E-02  0.1280296E+00
         21   -1    0    0  501  502  0.00000000000E+00  0.00000000000E+00  0.14725861400E+03  0.14725861400E+03  0.00000000000E+00 0.  1.
         21   -1    0    0  502  503 -0.00000000000E+00 -0.00000000000E+00 -0.35836655677E+03  0.35836655677E+03  0.00000000000E+00 0. -1.
          6    1    1    2  501    0  0.10568626789E+03  0.87255752273E+02 -0.17568003895E+03  0.28209152701E+03  0.17300000000E+03 0.  1.
         -6    1    1    2    0  503 -0.10568626789E+03 -0.87255752273E+02 -0.35427903831E+02  0.22353364376E+03  0.17300000000E+03 0. -1.
</event>
<event>
 4    1  0.6092738E+000  0.1000000E+03  0.7546771E-02  0.1280296E+00
         21   -1    0    0  501  502  0.00000000000E+00  0.00000000000E+00  0.39178699694E+03  0.39178699694E+03  0.00000000000E+00 0.  1.
         21   -1    0    0  502  503 -0.00000000000E+00 -0.00000000000E+00 -0.44765310704E+03  0.44765310704E+03  0.00000000000E+00 0. -1.
          6    1    1    2  501    0 -0.10812108191E+03  0.17055728236E+03  0.29632208432E+03  0.39814034282E+03  0.17300000000E+03 0.  1.
         -6    1    1    2    0  503  0.10812108191E+03 -0.17055728236E+03 -0.35218819442E+03  0.44129976117E+03  0.17300000000E+03 0. -1.
</event>
<event>
 4    1  0.6092738E+000  0.1000000E+03  0.7546771E-02  0.1280296E+00
         21   -1    0    0  501  502  0.00000000000E+00  0.00000000000E+00  0.14591999841E+03  0.14591999841E+03  0.00000000000E+00 0.  1.
         21   -1    0    0  502  503 -0.00000000000E+00 -0.00000000000E+00 -0.32174076175E+03  0.32174076175E+03  0.00000000000E+00 0. -1.
          6    1    1    2  501    0 -0.86150152998E+02 -0.81073132895E+02 -0.28558794872E+02  0.21151668138E+03  0.17300000000E+03 0.  1.
         -6    1    1    2    0  503  0.86150152998E+02  0.81073132895E+02 -0.14726196846E+03  0.25614407878E+03  0.17300000000E+03 0. -1.
</event>
<event>
 4    1  0.6092738E+000  0.1000000E+03  0.7546771E-02  0.1280296E+00
         21   -1    0    0  503  502  0.00000000000E+00  0.00000000000E+00  0.73143758863E+03  0.73143758863E+03  0.00000000000E+00 0.  1.
         21   -1    0    0  501  503 -0.00000000000E+00 -0.00000000000E+00 -0.14853527469E+03  0.14853527469E+03  0.00000000000E+00 0. -1.
          6    1    1    2  501    0  0.26380238981E+03  0.95499516074E+02  0.29392144442E+03  0.44162277334E+03  0.17300000000E+03 0. -1.
         -6    1    1    2    0  502 -0.26380238981E+03 -0.95499516074E+02  0.28898086952E+03  0.43835008998E+03  0.17300000000E+03 0.  1.
</event>
<event>
 4    1  0.6092738E+000  0.1000000E+03  0.7546771E-02  0.1280296E+00
         21   -1    0    0  503  502  0.00000000000E+00  0.00000000000E+00  0.41265829509E+03  0.41265829509E+03  0.00000000000E+00 0.  1.
         21   -1    0    0  501  503 -0.00000000000E+00 -0.00000000000E+00 -0.12148728664E+03  0.12148728664E+03  0.00000000000E+00 0. -1.
          6    1    1    2  501    0 -0.92212898898E+02  0.37835313142E+02  0.24711429583E+02  0.20118246543E+03  0.17300000000E+03 0. -1.
         -6    1    1    2    0  502  0.92212898898E+02 -0.37835313142E+02  0.26645957887E+03  0.33296311630E+03  0.17300000000E+03 0.  1.
</event>
<event>
 4    1  0.6092738E+000  0.1000000E+03  0.7546771E-02  0.1280296E+00
         21   -1    0    0  503  502  0.00000000000E+00  0.00000000000E+00  0.53359761747E+03  0.53359761747E+03  0.00000000000E+00 0.  1.
         21   -1    0    0  501  503 -0.00000000000E+00 -0.00000000000E+00 -0.18579544594E+03  0.18579544594E+03  0.00000000000E+00 0. -1.
          6    1    1    2  501    0 -0.10267027597E+03  0.21265934973E+03  0.41434767133E+02  0.29565355490E+03  0.17300000000E+03 0. -1.
         -6    1    1    2    0  502  0.10267027597E+03 -0.21265934973E+03  0.30636740440E+03  0.42373950851E+03  0.17300000000E+03 0.  1.
</event>
<event>
 4    1  0.6092738E+000  0.1000000E+03  0.7546771E-02  0.1280296E+00
         21   -1    0    0  503  502  0.00000000000E+00  0.00000000000E+00  0.23887734132E+03  0.23887734132E+03  0.00000000000E+00 0.  1.
         21   -1    0    0  501  503 -0.00000000000E+00 -0.00000000000E+00 -0.11043353837E+04  0.11043353837E+04  0.00000000000E+00 0. -1.
          6    1    1    2  501    0 -0.43827495994E+02 -0.25207441374E+02 -0.10616254621E+04  0.10768165519E+04  0.17300000000E+03 0. -1.
         -6    1    1    2    0  502  0.43827495994E+02  0.25207441374E+02  0.19616741975E+03  0.26639617316E+03  0.17300000000E+03 0.  1.
</event>
<event>
 4    1  0.6092738E+000  0.1000000E+03  0.7546771E-02  0.1280296E+00
         21   -1    0    0  501  502  0.00000000000E+00  0.00000000000E+00  0.22992947754E+03  0.22992947754E+03  0.00000000000E+00 0. -1.
         21   -1    0    0  502  503 -0.00000000000E+00 -0.00000000000E+00 -0.24086594538E+03  0.24086594538E+03  0.00000000000E+00 0. -1.
          6    1    1    2  501    0 -0.11033053837E+03 -0.71022769001E+01  0.10958416262E+03  0.23272507113E+03  0.17300000000E+03 0. -1.
         -6    1    1    2    0  503  0.11033053837E+03  0.71022769001E+01 -0.12052063046E+03  0.23807035179E+03  0.17300000000E+03 0. -1.
</event>
<event>
 4    1  0.6092738E+000  0.1000000E+03  0.7546771E-02  0.1280296E+00
         21   -1    0    0  501  502  0.00000000000E+00  0.00000000000E+00  0.27830765784E+03  0.27830765784E+03  0.00000000000E+00 0. -1.
         21   -1    0    0  502  503 -0.00000000000E+00 -0.00000000000E+00 -0.20203271522E+03  0.20203271522E+03  0.00000000000E+00 0. -1.
          6    1    1    2  501    0  0.77662335582E+01  0.56100892093E+02  0.19204629985E+03  0.26460991245E+03  0.17300000000E+03 0. -1.
         -6    1    1    2    0  503 -0.77662335582E+01 -0.56100892093E+02 -0.11577135724E+03  0.21573046061E+03  0.17300000000E+03 0. -1.
</event>
<event>
 4    1  0.6092738E+000  0.1000000E+03  0.7546771E-02  0.1280296E+00
         21   -1    0    0  503  502  0.00000000000E+00  0.00000000000E+00  0.87288085164E+02  0.87288085164E+02  0.00000000000E+00 0. -1.
         21   -1    0    0  501  503 -0.00000000000E+00 -0.00000000000E+00 -0.56108630977E+03  0.56108630977E+03  0.00000000000E+00 0. -1.
          6    1    1    2  501    0 -0.21903862731E+02 -0.13597699233E+03 -0.24980573426E+03  0.33361868430E+03  0.17300000000E+03 0. -1.
         -6    1    1    2    0  502  0.21903862731E+02  0.13597699233E+03 -0.22399249034E+03  0.31475571063E+03  0.17300000000E+03 0. -1.
</event>
<event>
 4    1  0.6092738E+000  0.1000000E+03  0.7546771E-02  0.1280296E+00
         21   -1    0    0  503  502  0.00000000000E+00  0.00000000000E+00  0.28399053247E+03  0.28399053247E+03  0.00000000000E+00 0. -1.
         21   -1    0    0  501  503 -0.00000000000E+00 -0.00000000000E+00 -0.20666935922E+03  0.20666935922E+03  0.00000000000E+00 0. -1.
          6    1    1    2  501    0 -0.11373582466E+02 -0.16355398236E+03 -0.52922546922E+01  0.23840358949E+03  0.17300000000E+03 0. -1.
         -6    1    1    2    0  502  0.11373582466E+02  0.16355398236E+03  0.82613427941E+02  0.25225630220E+03  0.17300000000E+03 0. -1.
</event>
<event>
 4    1  0.6092738E+000  0.1000000E+03  0.7546771E-02  0.1280296E+00
         21   -1    0    0  503  502  0.00000000000E+00  0.00000000000E+00  0.34590004750E+03  0.34590004750E+03  0.00000000000E+00 0.  1.
         21   -1    0    0  501  503 -0.00000000000E+00 -0.00000000000E+00 -0.26213558057E+03  0.26213558057E+03  0.00000000000E+00 0.  1.
          6    1    1    2  501    0  0.15473882752E+03  0.17336605441E+03 -0.41029042228E+02  0.29259575505E+03  0.17300000000E+03 0.  1.
         -6    1    1    2    0  502 -0.15473882752E+03 -0.17336605441E+03  0.12479350915E+03  0.31543987302E+03  0.17300000000E+03 0.  1.
</event>
<event>
 4    1  0.6092738E+000  0.1000000E+03  0.7546771E-02  0.1280296E+00
         21   -1    0    0  503  502  0.00000000000E+00  0.00000000000E+00  0.58660646662E+03  0.58660646662E+03  0.00000000000E+00 0.  1.
         21   -1    0    0  501  503 -0.00000000000E+00 -0.00000000000E+00 -0.95404652461E+02  0.95404652461E+02  0.00000000000E+00 0.  1.
          6    1    1    2  501    0  0.11388004191E+02  0.42354316898E+00  0.13592113203E+02  0.17390690489E+03  0.17300000000E+03 0.  1.
         -6    1    1    2    0  502 -0.11388004191E+02 -0.42354316898E+00  0.47760970096E+03  0.50810421419E+03  0.17300000000E+03 0.  1.
</event>
<event>
 4    1  0.6092738E+000  0.1000000E+03  0.7546771E-02  0.1280296E+00
         21   -1    0    0  501  502  0.00000000000E+00  0.00000000000E+00  0.35945216167E+03  0.35945216167E+03  0.00000000000E+00 0.  1.
         21   -1    0    0  502  503 -0.00000000000E+00 -0.00000000000E+00 -0.10809826518E+03  0.10809826518E+03  0.00000000000E+00 0.  1.
          6    1    1    2  501    0  0.83399956273E+02 -0.40956086921E+02  0.10533507868E+03  0.22283947712E+03  0.17300000000E+03 0.  1.
         -6    1    1    2    0  503 -0.83399956273E+02  0.40956086921E+02  0.14601881781E+03  0.24471094973E+03  0.17300000000E+03 0.  1.
</event>
<event>
 4    1  0.6092738E+000  0.1000000E+03  0.7546771E-02  0.1280296E+00
         21   -1    0    0  501  502  0.00000000000E+00  0.00000000000E+00  0.19818918464E+03  0.19818918464E+03  0.00000000000E+00 0.  1.
         21   -1    0    0  502  503 -0.00000000000E+00 -0.00000000000E+00 -0.24426247534E+03  0.24426247534E+03  0.00000000000E+00 0.  1.
          6    1    1    2  501    0 -0.44792558992E+02  0.96108538609E+02  0.62504578365E+02  0.21231826782E+03  0.17300000000E+03 0.  1.
         -6    1    1    2    0  503  0.44792558992E+02 -0.96108538609E+02 -0.10857786907E+03  0.23013339216E+03  0.17300000000E+03 0.  1.
</event>
<event>
 4    1  0.6092738E+000  0.1000000E+03  0.7546771E-02  0.1280296E+00
         21   -1    0    0  501  502  0.00000000000E+00  0.00000000000E+00  0.10978809701E+03  0.10978809701E+03  0.00000000000E+00 0. -1.
         21   -1    0    0  502  503 -0.00000000000E+00 -0.00000000000E+00 -0.40504057103E+03  0.40504057103E+03  0.00000000000E+00 0. -1.
          6    1    1    2  501    0 -0.46135927569E+02  0.11043873169E+03 -0.12975253925E+03  0.24716382970E+03  0.17300000000E+03 0.  1.
         -6    1    1    2    0  503  0.46135927569E+02 -0.11043873169E+03 -0.16549993478E+03  0.26766483834E+03  0.17300000000E+03 0.  1.
</event>
<event>
 4    1  0.6092738E+000  0.1000000E+03  0.7546771E-02  0.1280296E+00
         21   -1    0    0  501  502  0.00000000000E+00  0.00000000000E+00  0.16951383953E+03  0.16951383953E+03  0.00000000000E+00 0. -1.
         21   -1    0    0  502  503 -0.00000000000E+00 -0.00000000000E+00 -0.41169474856E+03  0.41169474856E+03  0.00000000000E+00 0. -1.
          6    1    1    2  501    0 -0.14252767268E+03  0.12515467254E+03 -0.52558871072E+02  0.26204821020E+03  0.17300000000E+03 0.  1.
         -6    1    1    2    0  503  0.14252767268E+03 -0.12515467254E+03 -0.18962203796E+03  0.31916037790E+03  0.17300000000E+03 0.  1.
</event>
<event>
 4    1  0.6092738E+000  0.1000000E+03  0.7546771E-02  0.1280296E+00
         21   -1    0    0  501  502  0.00000000000E+00  0.00000000000E+00  0.23863911299E+03  0.23863911299E+03  0.00000000000E+00 0. -1.
         21   -1    0    0  502  503 -0.00000000000E+00 -0.00000000000E+00 -0.35534285815E+03  0.35534285815E+03  0.00000000000E+00 0. -1.
          6    1    1    2  501    0 -0.82362743467E+02  0.13698874613E+03  0.11628336295E+03  0.26267919327E+03  0.17300000000E+03 0.  1.
         -6    1    1    2    0  503  0.82362743467E+02 -0.13698874613E+03 -0.23298710811E+03  0.33130277787E+03  0.17300000000E+03 0.  1.
</event>
<event>
 4    1  0.6092738E+000  0.1000000E+03  0.7546771E-02  0.1280296E+00
         21   -1    0    0  501  502  0.00000000000E+00  0.00000000000E+00  0.25313413723E+04  0.25313413723E+04  0.00000000000E+00 0. -1.
         21   -1    0    0  502  503 -0.00000000000E+00 -0.00000000000E+00 -0.19544562477E+03  0.19544562477E+03  0.00000000000E+00 0. -1.
          6    1    1    2  501    0 -0.38042853575E+02 -0.33946018938E+03  0.23116256492E+04  0.23431224085E+04  0.17300000000E+03 0.  1.
         -6    1    1    2    0  503  0.38042853575E+02  0.33946018938E+03  0.24270098317E+02  0.38366458861E+03  0.17300000000E+03 0.  1.
</event>
<event>
 4    1  0.6092738E+000  0.1000000E+03  0.7546771E-02  0.1280296E+00
         21   -1    0    0  503  502  0.00000000000E+00  0.00000000000E+00  0.29473242458E+03  0.29473242458E+03  0.00000000000E+00 0.  1.
         21   -1    0    0  501  503 -0.00000000000E+00 -0.00000000000E+00 -0.16787190961E+03  0.16787190961E+03  0.00000000000E+00 0.  1.
          6    1    1    2  501    0 -0.46707972264E+02 -0.93264653882E+02 -0.33385336205E+02  0.20475231625E+03  0.17300000000E+03 0.  1.
         -6    1    1    2    0  502  0.46707972264E+02  0.93264653882E+02  0.16024585117E+03  0.25785201794E+03  0.17300000000E+03 0.  1.
</event>
<event>
 4    1  0.6092738E+000  0.1000000E+03  0.7546771E-02  0.1280296E+00
         21   -1    0    0  503  502  0.00000000000E+00  0.00000000000E+00  0.63089666324E+02  0.63089666324E+02  0.00000000000E+00 0.  1.
         21   -1    0    0  501  503 -0.00000000000E+00 -0.00000000000E+00 -0.13997378809E+04  0.13997378809E+04  0.00000000000E+00 0.  1.
          6    1    1    2  501    0  0.84978263349E+02 -0.10055537459E+02 -0.12244725952E+04  0.12395904790E+04  0.17300000000E+03 0.  1.
         -6    1    1    2    0  502 -0.84978263349E+02  0.10055537459E+02 -0.11217561938E+03  0.22323706829E+03  0.17300000000E+03 0.  1.
</event>
<event>
 4    1  0.6092738E+000  0.1000000E+03  0.7546771E-02  0.1280296E+00
         21   -1    0    0  503  502  0.00000000000E+00  0.00000000000E+00  0.37814393518E+03  0.37814393518E+03  0.00000000000E+00 0.  1.
         21   -1    0    0  501  503 -0.00000000000E+00 -0.00000000000E+00 -0.18073906594E+03  0.18073906594E+03  0.00000000000E+00 0. -1.
          6    1    1    2  501    0  0.55594259519E+02 -0.78890874808E+02 -0.83643848117E+02  0.21503438131E+03  0.17300000000E+03 0. -1.
         -6    1    1    2    0  502 -0.55594259519E+02  0.78890874808E+02  0.28104871736E+03  0.34384861981E+03  0.17300000000E+03 0.  1.
</event>
<event>
 4    1  0.6092738E+000  0.1000000E+03  0.7546771E-02  0.1280296E+00
         21   -1    0    0  503  502  0.00000000000E+00  0.00000000000E+00  0.38179352712E+03  0.38179352712E+03  0.00000000000E+00 0.  1.
         21   -1    0    0  501  503 -0.00000000000E+00 -0.00000000000E+00 -0.18882620374E+03  0.18882620374E+03  0.00000000000E+00 0. -1.
          6    1    1    2  501    0 -0.15886017223E+03  0.11067367655E+03  0.23802761017E+02  0.26073125711E+03  0.17300000000E+03 0. -1.
         -6    1    1    2    0  502  0.15886017223E+03 -0.11067367655E+03  0.16916456236E+03  0.30988847375E+03  0.17300000000E+03 0.  1.
</event>
<event>
 4    1  0.6092738E+000  0.1000000E+03  0.7546771E-02  0.1280296E+00
         21   -1    0    0  503  502  0.00000000000E+00  0.00000000000E+00  0.17492170749E+03  0.17492170749E+03  0.00000000000E+00 0.  1.
         21   -1    0    0  501  503 -0.00000000000E+00 -0.00000000000E+00 -0.95378779594E+03  0.95378779594E+03  0.00000000000E+00 0. -1.
          6    1    1    2  501    0  0.23074897694E+03 -0.80432089329E+02 -0.77331563232E+03  0.82925296414E+03  0.17300000000E+03 0. -1.
         -6    1    1    2    0  502 -0.23074897694E+03  0.80432089329E+02 -0.55504561313E+01  0.29945653928E+03  0.17300000000E+03 0.  1.
</event>
<event>
 4    1  0.6092738E+000  0.1000000E+03  0.7546771E-02  0.1280296E+00
         21   -1    0    0  501  502  0.00000000000E+00  0.00000000000E+00  0.26999172380E+03  0.26999172380E+03  0.00000000000E+00 0.  1.
         21   -1    0    0  502  503 -0.00000000000E+00 -0.00000000000E+00 -0.77464531007E+03  0.77464531007E+03  0.00000000000E+00 0.  1.
          6    1    1    2  501    0 -0.25661912015E+03 -0.51009188362E+02  0.12778129286E+03  0.33869214477E+03  0.17300000000E+03 0.  1.
         -6    1    1    2    0  503  0.25661912015E+03  0.51009188362E+02 -0.63243487912E+03  0.70594488911E+03  0.17300000000E+03 0.  1.
</event>
<event>
 4    1  0.6092738E+000  0.1000000E+03  0.7546771E-02  0.1280296E+00
         21   -1    0    0  501  502  0.00000000000E+00  0.00000000000E+00  0.51173678933E+02  0.51173678933E+02  0.00000000000E+00 0.  1.
         21   -1    0    0  502  503 -0.00000000000E+00 -0.00000000000E+00 -0.11341922596E+04  0.11341922596E+04  0.00000000000E+00 0.  1.
          6    1    1    2  501    0  0.66190259379E+02 -0.64828144401E+02 -0.19772649731E+03  0.27858321285E+03  0.17300000000E+03 0.  1.
         -6    1    1    2    0  503 -0.66190259379E+02  0.64828144401E+02 -0.88529208334E+03  0.90678272566E+03  0.17300000000E+03 0.  1.
</event>
<event>
 4    1  0.6092738E+000  0.1000000E+03  0.7546771E-02  0.1280296E+00
         21   -1    0    0  501  502  0.00000000000E+00  0.00000000000E+00  0.32449345154E+03  0.32449345154E+03  0.00000000000E+00 0.  1.
         21   -1    0    0  502  503 -0.00000000000E+00 -0.00000000000E+00 -0.18627261182E+03  0.18627261182E+03  0.00000000000E+00 0.  1.
          6    1    1    2  501    0  0.13853355477E+03  0.98480578426E+02  0.11098762375E+03  0.26671562150E+03  0.17300000000E+03 0.  1.
         -6    1    1    2    0  503 -0.13853355477E+03 -0.98480578426E+02  0.27233215966E+02  0.24405044187E+03  0.17300000000E+03 0.  1.
</event>
<event>
 4    1  0.6092738E+000  0.1000000E+03  0.7546771E-02  0.1280296E+00
         21   -1    0    0  503  502  0.00000000000E+00  0.00000000000E+00  0.37998291574E+03  0.37998291574E+03  0.00000000000E+00 0. -1.
         21   -1    0    0  501  503 -0.00000000000E+00 -0.00000000000E+00 -0.12003680715E+03  0.12003680715E+03  0.00000000000E+00 0. -1.
          6    1    1    2  501    0  0.36875264198E+02 -0.92437872240E+02  0.40987125920E+02  0.20374859466E+03  0.17300000000E+03 0. -1.
         -6    1    1    2    0  502 -0.36875264198E+02  0.92437872240E+02  0.21895898266E+03  0.29627112823E+03  0.17300000000E+03 0. -1.
</event>
<event>
 4    1  0.6092738E+000  0.1000000E+03  0.7546771E-02  0.1280296E+00
         21   -1    0    0  503  502  0.00000000000E+00  0.00000000000E+00  0.71744157200E+03  0.71744157200E+03  0.00000000000E+00 0. -1.
         21   -1    0    0  501  503 -0.00000000000E+00 -0.00000000000E+00 -0.15468793484E+03  0.15468793484E+03  0.00000000000E+00 0. -1.
          6    1    1    2  501    0 -0.11603281558E+02 -0.26587507858E+03  0.14900666674E+03  0.35065108054E+03  0.17300000000E+03 0. -1.
         -6    1    1    2    0  502  0.11603281558E+02  0.26587507858E+03  0.41374697043E+03  0.52147842630E+03  0.17300000000E+03 0. -1.
</event>
<event>
 4    1  0.6092738E+000  0.1000000E+03  0.7546771E-02  0.1280296E+00
         21   -1    0    0  503  502  0.00000000000E+00  0.00000000000E+00  0.73572657160E+03  0.73572657160E+03  0.00000000000E+00 0. -1.
         21   -1    0    0  501  503 -0.00000000000E+00 -0.00000000000E+00 -0.18193486067E+03  0.18193486067E+03  0.00000000000E+00 0. -1.
          6    1    1    2  501    0 -0.15566390858E+03 -0.11268692771E+03 -0.47712590598E+02  0.26293551949E+03  0.17300000000E+03 0. -1.
         -6    1    1    2    0  502  0.15566390858E+03  0.11268692771E+03  0.60150430153E+03  0.65472591278E+03  0.17300000000E+03 0. -1.
</event>
<event>
 4    1  0.6092738E+000  0.1000000E+03  0.7546771E-02  0.1280296E+00
         21   -1    0    0  503  502  0.00000000000E+00  0.00000000000E+00  0.65598860784E+03  0.65598860784E+03  0.00000000000E+00 0. -1.
         21   -1    0    0  501  503 -0.00000000000E+00 -0.00000000000E+00 -0.64778271693E+02  0.64778271693E+02  0.00000000000E+00 0. -1.
          6    1    1    2  501    0 -0.36303390499E+02 -0.47383826088E+02  0.12973704011E+03  0.22432980790E+03  0.17300000000E+03 0. -1.
         -6    1    1    2    0  502  0.36303390499E+02  0.47383826088E+02  0.46147329604E+03  0.49643707163E+03  0.17300000000E+03 0. -1.
</event>
<event>
 4    1  0.6092738E+000  0.1000000E+03  0.7546771E-02  0.1280296E+00
         21   -1    0    0  503  502  0.00000000000E+00  0.00000000000E+00  0.63385085169E+03  0.63385085169E+03  0.00000000000E+00 0.  1.
         21   -1    0    0  501  503 -0.00000000000E+00 -0.00000000000E+00 -0.39375380385E+03  0.39375380385E+03  0.00000000000E+00 0.  1.
          6    1    1    2  501    0  0.26872139060E+03  0.61205195493E+02 -0.26981343266E+03  0.42271213629E+03  0.17300000000E+03 0.  1.
         -6    1    1    2    0  502 -0.26872139060E+03 -0.61205195493E+02  0.50991048050E+03  0.60489251925E+03  0.17300000000E+03 0.  1.
</event>
<event>
 4    1  0.6092738E+000  0.1000000E+03  0.7546771E-02  0.1280296E+00
         21   -1    0    0  503  502  0.00000000000E+00  0.00000000000E+00  0.42355729380E+03  0.42355729380E+03  0.00000000000E+00 0.  1.
         21   -1    0    0  501  503 -0.00000000000E+00 -0.00000000000E+00 -0.89926513695E+02  0.89926513695E+02  0.00000000000E+00 0.  1.
          6    1    1    2  501    0 -0.61424118169E+02  0.66174420573E+02  0.17054890122E+03  0.25916771392E+03  0.17300000000E+03 0.  1.
         -6    1    1    2    0  502  0.61424118169E+02 -0.66174420573E+02  0.16308187889E+03  0.25431609358E+03  0.17300000000E+03 0.  1.
</event>
<event>
 4    1  0.6092738E+000  0.1000000E+03  0.7546771E-02  0.1280296E+00
         21   -1    0    0  501  502  0.00000000000E+00  0.00000000000E+00  0.81130893296E+03  0.81130893296E+03  0.00000000000E+00 0.  1.
         21   -1    0    0  502  503 -0.00000000000E+00 -0.00000000000E+00 -0.58017952553E+02  0.58017952553E+02  0.00000000000E+00 0.  1.
          6    1    1    2  501    0  0.53403440066E+02 -0.74767361355E+02  0.56350851459E+03  0.59658438779E+03  0.17300000000E+03 0.  1.
         -6    1    1    2    0  503 -0.53403440066E+02  0.74767361355E+02  0.18978246582E+03  0.27274249773E+03  0.17300000000E+03 0.  1.
</event>
<event>
 4    1  0.6092738E+000  0.1000000E+03  0.7546771E-02  0.1280296E+00
         21   -1    0    0  501  502  0.00000000000E+00  0.00000000000E+00  0.38838506839E+03  0.38838506839E+03  0.00000000000E+00 0.  1.
         21   -1    0    0  502  503 -0.00000000000E+00 -0.00000000000E+00 -0.11329069022E+03  0.11329069022E+03  0.00000000000E+00 0.  1.
          6    1    1    2  501    0  0.10658091786E+03 -0.17233299535E+02  0.19631200255E+03  0.28306162052E+03  0.17300000000E+03 0.  1.
         -6    1    1    2    0  503 -0.10658091786E+03  0.17233299535E+02  0.78782375616E+02  0.21861413809E+03  0.17300000000E+03 0.  1.
</event>
<event>
 4    1  0.6092738E+000  0.1000000E+03  0.7546771E-02  0.1280296E+00
         21   -1    0    0  503  502  0.00000000000E+00  0.00000000000E+00  0.15843419290E+03  0.15843419290E+03  0.00000000000E+00 0.  1.
         21   -1    0    0  501  503 -0.00000000000E+00 -0.00000000000E+00 -0.24781350408E+03  0.24781350408E+03  0.00000000000E+00 0. -1.
          6    1    1    2  501    0  0.31714117015E+01  0.77167506997E+02 -0.10418406623E+03  0.21621332439E+03  0.17300000000E+03 0.  1.
         -6    1    1    2    0  502 -0.31714117015E+01 -0.77167506997E+02  0.14804755055E+02  0.19003437258E+03  0.17300000000E+03 0. -1.
</event>
<event>
 4    1  0.6092738E+000  0.1000000E+03  0.7546771E-02  0.1280296E+00
         21   -1    0    0  503  502  0.00000000000E+00  0.00000000000E+00  0.87190692450E+02  0.87190692450E+02  0.00000000000E+00 0.  1.
         21   -1    0    0  501  503 -0.00000000000E+00 -0.00000000000E+00 -0.37206608487E+03  0.37206608487E+03  0.00000000000E+00 0.  1.
          6    1    1    2  501    0  0.57884268481E+00  0.91152953701E+01 -0.20526226094E+03  0.26859824913E+03  0.17300000000E+03 0.  1.
         -6    1    1    2    0  502 -0.57884268481E+00 -0.91152953701E+01 -0.79613131482E+02  0.19065852819E+03  0.17300000000E+03 0.  1.
</event>
<event>
 4    1  0.6092738E+000  0.1000000E+03  0.7546771E-02  0.1280296E+00
         21   -1    0    0  503  502  0.00000000000E+00  0.00000000000E+00  0.24571959713E+04  0.24571959713E+04  0.00000000000E+00 0.  1.
         21   -1    0    0  501  503 -0.00000000000E+00 -0.00000000000E+00 -0.23960431580E+02  0.23960431580E+02  0.00000000000E+00 0.  1.
          6    1    1    2  501    0  0.12279605406E+03  0.31723298939E+02  0.63679094032E+03  0.67195010251E+03  0.17300000000E+03 0.  1.
         -6    1    1    2    0  502 -0.12279605406E+03 -0.31723298939E+02  0.17964445994E+04  0.18092063003E+04  0.17300000000E+03 0.  1.
</event>
<event>
 4    1  0.6092738E+000  0.1000000E+03  0.7546771E-02  0.1280296E+00
         21   -1    0    0  503  502  0.00000000000E+00  0.00000000000E+00  0.17656179360E+04  0.17656179360E+04  0.00000000000E+00 0.  1.
         21   -1    0    0  501  503 -0.00000000000E+00 -0.00000000000E+00 -0.22951429929E+02  0.22951429929E+02  0.00000000000E+00 0.  1.
          6    1    1    2  501    0 -0.23525391500E+02 -0.89020217041E+02  0.66696059734E+03  0.69515716316E+03  0.17300000000E+03 0.  1.
         -6    1    1    2    0  502  0.23525391500E+02  0.89020217041E+02  0.10757059087E+04  0.10934122028E+04  0.17300000000E+03 0.  1.
</event>
<event>
 4    1  0.6092738E+000  0.1000000E+03  0.7546771E-02  0.1280296E+00
         21   -1    0    0  503  502  0.00000000000E+00  0.00000000000E+00  0.82900571060E+03  0.82900571060E+03  0.00000000000E+00 0. -1.
         21   -1    0    0  501  503 -0.00000000000E+00 -0.00000000000E+00 -0.64352394457E+02  0.64352394457E+02  0.00000000000E+00 0.  1.
          6    1    1    2  501    0 -0.98741957119E+02  0.77145150658E+02  0.21242751312E+03  0.30125702763E+03  0.17300000000E+03 0. -1.
         -6    1    1    2    0  502  0.98741957119E+02 -0.77145150658E+02  0.55222580302E+03  0.59210107743E+03  0.17300000000E+03 0.  1.
</event>
<event>
 4    1  0.6092738E+000  0.1000000E+03  0.7546771E-02  0.1280296E+00
         21   -1    0    0  501  502  0.00000000000E+00  0.00000000000E+00  0.26296030622E+03  0.26296030622E+03  0.00000000000E+00 0.  1.
         21   -1    0    0  502  503 -0.00000000000E+00 -0.00000000000E+00 -0.26804732576E+03  0.26804732576E+03  0.00000000000E+00 0.  1.
          6    1    1    2  501    0 -0.11762007579E+02  0.13278504978E+03 -0.15350272292E+03  0.26694999571E+03  0.17300000000E+03 0.  1.
         -6    1    1    2    0  503  0.11762007579E+02 -0.13278504978E+03  0.14841570337E+03  0.26405763627E+03  0.17300000000E+03 0.  1.
</event>
<event>
 4    1  0.6092738E+000  0.1000000E+03  0.7546771E-02  0.1280296E+00
         21   -1    0    0  503  502  0.00000000000E+00  0.00000000000E+00  0.93949362439E+02  0.93949362439E+02  0.00000000000E+00 0. -1.
         21   -1    0    0  501  503 -0.00000000000E+00 -0.00000000000E+00 -0.44496371862E+03  0.44496371862E+03  0.00000000000E+00 0. -1.
          6    1    1    2  501    0 -0.89705876225E+02 -0.27110505694E+01 -0.25696695759E+03  0.32251435831E+03  0.17300000000E+03 0. -1.
         -6    1    1    2    0  502  0.89705876225E+02  0.27110505694E+01 -0.94047398590E+02  0.21639872275E+03  0.17300000000E+03 0. -1.
</event>
<event>
 4    1  0.6092738E+000  0.1000000E+03  0.7546771E-02  0.1280296E+00
         21   -1    0    0  503  502  0.00000000000E+00  0.00000000000E+00  0.17985975099E+03  0.17985975099E+03  0.00000000000E+00 0. -1.
         21   -1    0    0  501  503 -0.00000000000E+00 -0.00000000000E+00 -0.38206976018E+03  0.38206976018E+03  0.00000000000E+00 0. -1.
          6    1    1    2  501    0  0.12440089938E+03 -0.57364932601E+02 -0.25276993494E+03  0.33554129294E+03  0.17300000000E+03 0. -1.
         -6    1    1    2    0  502 -0.12440089938E+03  0.57364932601E+02  0.50559925755E+02  0.22638821822E+03  0.17300000000E+03 0. -1.
</event>
<event>
 4    1  0.6092738E+000  0.1000000E+03  0.7546771E-02  0.1280296E+00
         21   -1    0    0  501  502  0.00000000000E+00  0.00000000000E+00  0.31109595964E+02  0.31109595964E+02  0.00000000000E+00 0. -1.
         21   -1    0    0  502  503 -0.00000000000E+00 -0.00000000000E+00 -0.25080007554E+04  0.25080007554E+04  0.00000000000E+00 0. -1.
          6    1    1    2  501    0 -0.59160223955E+02 -0.21875485286E+02 -0.28381404027E+03  0.33831624024E+03  0.17300000000E+03 0. -1.
         -6    1    1    2    0  503  0.59160223955E+02  0.21875485286E+02 -0.21930771192E+04  0.22007941112E+04  0.17300000000E+03 0. -1.
</event>
<event>
 4    1  0.6092738E+000  0.1000000E+03  0.7546771E-02  0.1280296E+00
         21   -1    0    0  501  502  0.00000000000E+00  0.00000000000E+00  0.18448098600E+02  0.18448098600E+02  0.00000000000E+00 0. -1.
         21   -1    0    0  502  503 -0.00000000000E+00 -0.00000000000E+00 -0.18190868565E+04  0.18190868565E+04  0.00000000000E+00 0. -1.
          6    1    1    2  501    0 -0.69688796310E+01 -0.67643259067E+01 -0.60211043300E+03  0.62654632304E+03  0.17300000000E+03 0. -1.
         -6    1    1    2    0  503  0.69688796310E+01  0.67643259067E+01 -0.11985283249E+04  0.12109886321E+04  0.17300000000E+03 0. -1.
</event>
<event>
 4    1  0.6092738E+000  0.1000000E+03  0.7546771E-02  0.1280296E+00
         21   -1    0    0  501  502  0.00000000000E+00  0.00000000000E+00  0.70575415136E+03  0.70575415136E+03  0.00000000000E+00 0. -1.
         21   -1    0    0  502  503 -0.00000000000E+00 -0.00000000000E+00 -0.46007644140E+02  0.46007644140E+02  0.00000000000E+00 0. -1.
          6    1    1    2  501    0  0.45499874232E+02  0.21501265851E+01  0.28483246717E+03  0.33635308227E+03  0.17300000000E+03 0. -1.
         -6    1    1    2    0  503 -0.45499874232E+02 -0.21501265851E+01  0.37491404004E+03  0.41540871322E+03  0.17300000000E+03 0. -1.
</event>
<event>
 4    1  0.6092738E+000  0.1000000E+03  0.7546771E-02  0.1280296E+00
         21   -1    0    0  503  502  0.00000000000E+00  0.00000000000E+00  0.36508858942E+03  0.36508858942E+03  0.00000000000E+00 0.  1.
         21   -1    0    0  501  503 -0.00000000000E+00 -0.00000000000E+00 -0.16145223271E+03  0.16145223271E+03  0.00000000000E+00 0.  1.
          6    1    1    2  501    0 -0.76838704258E+02  0.54902545350E+02 -0.51907119360E+02  0.20381811744E+03  0.17300000000E+03 0.  1.
         -6    1    1    2    0  502  0.76838704258E+02 -0.54902545350E+02  0.25554347607E+03  0.32272270469E+03  0.17300000000E+03 0.  1.
</event>
<event>
 4    1  0.6092738E+000  0.1000000E+03  0.7546771E-02  0.1280296E+00
         21   -1    0    0  503  502  0.00000000000E+00  0.00000000000E+00  0.59794016706E+02  0.59794016706E+02  0.00000000000E+00 0.  1.
         21   -1    0    0  501  503 -0.00000000000E+00 -0.00000000000E+00 -0.80742232990E+03  0.80742232990E+03  0.00000000000E+00 0.  1.
          6    1    1    2  501    0  0.20293127474E+02 -0.97887166604E+02 -0.55420963248E+03  0.58912734205E+03  0.17300000000E+03 0.  1.
         -6    1    1    2    0  502 -0.20293127474E+02  0.97887166604E+02 -0.19341868071E+03  0.27808900455E+03  0.17300000000E+03 0.  1.
</event>
<event>
 4    1  0.6092738E+000  0.1000000E+03  0.7546771E-02  0.1280296E+00
         21   -1    0    0  503  502  0.00000000000E+00  0.00000000000E+00  0.14311058852E+03  0.14311058852E+03  0.00000000000E+00 0.  1.
         21   -1    0    0  501  503 -0.00000000000E+00 -0.00000000000E+00 -0.80143146561E+03  0.80143146561E+03  0.00000000000E+00 0.  1.
          6    1    1    2  501    0  0.69996702116E+02 -0.28146337168E+03 -0.29379475918E+03  0.44762208215E+03  0.17300000000E+03 0.  1.
         -6    1    1    2    0  502 -0.69996702116E+02  0.28146337168E+03 -0.36452611792E+03  0.49691997198E+03  0.17300000000E+03 0.  1.
</event>
<event>
 4    1  0.6092738E+000  0.1000000E+03  0.7546771E-02  0.1280296E+00
         21   -1    0    0  501  502  0.00000000000E+00  0.00000000000E+00  0.62352474396E+03  0.62352474396E+03  0.00000000000E+00 0. -1.
         21   -1    0    0  502  503 -0.00000000000E+00 -0.00000000000E+00 -0.84536938453E+02  0.84536938453E+02  0.00000000000E+00 0. -1.
          6    1    1    2  501    0  0.86863821106E+02  0.77756304065E+02  0.41732327069E+03  0.46656090545E+03  0.17300000000E+03 0. -1.
         -6    1    1    2    0  503 -0.86863821106E+02 -0.77756304065E+02  0.12166453482E+03  0.24150077696E+03  0.17300000000E+03 0. -1.
</event>
<event>
 4    1  0.6092738E+000  0.1000000E+03  0.7546771E-02  0.1280296E+00
         21   -1    0    0  501  502  0.00000000000E+00  0.00000000000E+00  0.20857593329E+02  0.20857593329E+02  0.00000000000E+00 0. -1.
         21   -1    0    0  502  503 -0.00000000000E+00 -0.00000000000E+00 -0.32271991996E+04  0.32271991996E+04  0.00000000000E+00 0. -1.
          6    1    1    2  501    0  0.11283417160E+02 -0.69926265726E+02 -0.47703559930E+03  0.51235628340E+03  0.17300000000E+03 0. -1.
         -6    1    1    2    0  503 -0.11283417160E+02  0.69926265726E+02 -0.27293060069E+04  0.27357005095E+04  0.17300000000E+03 0. -1.
</event>
<event>
 4    1  0.6092738E+000  0.1000000E+03  0.7546771E-02  0.1280296E+00
         21   -1    0    0  501  502  0.00000000000E+00  0.00000000000E+00  0.25591281489E+03  0.25591281489E+03  0.00000000000E+00 0.  1.
         21   -1    0    0  502  503 -0.00000000000E+00 -0.00000000000E+00 -0.36847198798E+03  0.36847198798E+03  0.00000000000E+00 0.  1.
          6    1    1    2  501    0  0.48833166768E+02 -0.14011382079E+03  0.15294207134E+03  0.27447556929E+03  0.17300000000E+03 0.  1.
         -6    1    1    2    0  503 -0.48833166768E+02  0.14011382079E+03 -0.26550124443E+03  0.34990923358E+03  0.17300000000E+03 0.  1.
</event>
<event>
 4    1  0.6092738E+000  0.1000000E+03  0.7546771E-02  0.1280296E+00
         21   -1    0    0  503  502  0.00000000000E+00  0.00000000000E+00  0.17966372934E+03  0.17966372934E+03  0.00000000000E+00 0. -1.
         21   -1    0    0  501  503 -0.00000000000E+00 -0.00000000000E+00 -0.30964564344E+03  0.30964564344E+03  0.00000000000E+00 0. -1.
          6    1    1    2  501    0  0.69524667275E+02  0.14191539621E+03 -0.93005482031E+02  0.25209656628E+03  0.17300000000E+03 0. -1.
         -6    1    1    2    0  502 -0.69524667275E+02 -0.14191539621E+03 -0.36976432063E+02  0.23721280650E+03  0.17300000000E+03 0. -1.
</event>
<event>
 4    1  0.6092738E+000  0.1000000E+03  0.7546771E-02  0.1280296E+00
         21   -1    0    0  503  502  0.00000000000E+00  0.00000000000E+00  0.16060730551E+04  0.16060730551E+04  0.00000000000E+00 0.  1.
         21   -1    0    0  501  503 -0.00000000000E+00 -0.00000000000E+00 -0.49937746427E+02  0.49937746427E+02  0.00000000000E+00 0.  1.
          6    1    1    2  501    0 -0.74958418343E+02  0.23502214943E+02  0.13920739549E+04  0.14049804320E+04  0.17300000000E+03 0.  1.
         -6    1    1    2    0  502  0.74958418343E+02 -0.23502214943E+02  0.16406135377E+03  0.25103036946E+03  0.17300000000E+03 0.  1.
</event>
<event>
 4    1  0.6092738E+000  0.1000000E+03  0.7546771E-02  0.1280296E+00
         21   -1    0    0  503  502  0.00000000000E+00  0.00000000000E+00  0.16014848522E+04  0.16014848522E+04  0.00000000000E+00 0.  1.
         21   -1    0    0  501  503 -0.00000000000E+00 -0.00000000000E+00 -0.30640309552E+02  0.30640309552E+02  0.00000000000E+00 0.  1.
          6    1    1    2  501    0  0.10184643592E+03 -0.44216570607E+02  0.10895042779E+04  0.11087273665E+04  0.17300000000E+03 0.  1.
         -6    1    1    2    0  502 -0.10184643592E+03  0.44216570607E+02  0.48134026478E+03  0.52339779530E+03  0.17300000000E+03 0.  1.
</event>
<event>
 4    1  0.6092738E+000  0.1000000E+03  0.7546771E-02  0.1280296E+00
         21   -1    0    0  503  502  0.00000000000E+00  0.00000000000E+00  0.98702873860E+02  0.98702873860E+02  0.00000000000E+00 0.  1.
         21   -1    0    0  501  503 -0.00000000000E+00 -0.00000000000E+00 -0.50124741873E+03  0.50124741873E+03  0.00000000000E+00 0.  1.
          6    1    1    2  501    0  0.12717420063E+03  0.24757460299E+02 -0.27211541554E+03  0.34750828555E+03  0.17300000000E+03 0.  1.
         -6    1    1    2    0  502 -0.12717420063E+03 -0.24757460299E+02 -0.13042912933E+03  0.25244200705E+03  0.17300000000E+03 0.  1.
</event>
<event>
 4    1  0.6092738E+000  0.1000000E+03  0.7546771E-02  0.1280296E+00
         21   -1    0    0  503  502  0.00000000000E+00  0.00000000000E+00  0.53569143976E+03  0.53569143976E+03  0.00000000000E+00 0.  1.
         21   -1    0    0  501  503 -0.00000000000E+00 -0.00000000000E+00 -0.15734569990E+03  0.15734569990E+03  0.00000000000E+00 0.  1.
          6    1    1    2  501    0 -0.33340668863E+02 -0.12849737659E+02 -0.85818818243E+02  0.19639395490E+03  0.17300000000E+03 0.  1.
         -6    1    1    2    0  502  0.33340668863E+02  0.12849737659E+02  0.46416455810E+03  0.49664318475E+03  0.17300000000E+03 0.  1.
</event>
<event>
 4    1  0.6092738E+000  0.1000000E+03  0.7546771E-02  0.1280296E+00
         21   -1    0    0  503  502  0.00000000000E+00  0.00000000000E+00  0.31024973662E+02  0.31024973662E+02  0.00000000000E+00 0.  1.
         21   -1    0    0  501  503 -0.00000000000E+00 -0.00000000000E+00 -0.25281255619E+04  0.25281255619E+04  0.00000000000E+00 0.  1.
          6    1    1    2  501    0  0.15097751360E+03  0.49584809965E+02 -0.55184060165E+03  0.59975821180E+03  0.17300000000E+03 0.  1.
         -6    1    1    2    0  502 -0.15097751360E+03 -0.49584809965E+02 -0.19452599866E+04  0.19593923237E+04  0.17300000000E+03 0.  1.
</event>
<event>
 4    1  0.6092738E+000  0.1000000E+03  0.7546771E-02  0.1280296E+00
         21   -1    0    0  501  502  0.00000000000E+00  0.00000000000E+00  0.27364409155E+03  0.27364409155E+03  0.00000000000E+00 0.  1.
         21   -1    0    0  502  503 -0.00000000000E+00 -0.00000000000E+00 -0.19854961492E+03  0.19854961492E+03  0.00000000000E+00 0.  1.
          6    1    1    2  501    0  0.63157545401E+02 -0.14978894807E+02  0.18146931623E+03  0.25898524198E+03  0.17300000000E+03 0.  1.
         -6    1    1    2    0  503 -0.63157545401E+02  0.14978894807E+02 -0.10637483960E+03  0.21320846449E+03  0.17300000000E+03 0.  1.
</event>
<event>
 4    1  0.6092738E+000  0.1000000E+03  0.7546771E-02  0.1280296E+00
         21   -1    0    0  501  502  0.00000000000E+00  0.00000000000E+00  0.24692961193E+03  0.24692961193E+03  0.00000000000E+00 0.  1.
         21   -1    0    0  502  503 -0.00000000000E+00 -0.00000000000E+00 -0.39093019014E+03  0.39093019014E+03  0.00000000000E+00 0.  1.
          6    1    1    2  501    0  0.72838991970E+02  0.34722768251E+02  0.17963268954E+03  0.26212228547E+03  0.17300000000E+03 0.  1.
         -6    1    1    2    0  503 -0.72838991970E+02 -0.34722768251E+02 -0.32363326776E+03  0.37573751661E+03  0.17300000000E+03 0.  1.
</event>
<event>
 4    1  0.6092738E+000  0.1000000E+03  0.7546771E-02  0.1280296E+00
         21   -1    0    0  501  502  0.00000000000E+00  0.00000000000E+00  0.47994231729E+02  0.47994231729E+02  0.00000000000E+00 0.  1.
         21   -1    0    0  502  503 -0.00000000000E+00 -0.00000000000E+00 -0.92264894681E+03  0.92264894681E+03  0.00000000000E+00 0.  1.
          6    1    1    2  501    0 -0.55406568509E+02 -0.96072444954E+02 -0.33282792156E+03  0.39115627042E+03  0.17300000000E+03 0.  1.
         -6    1    1    2    0  503  0.55406568509E+02  0.96072444954E+02 -0.54182679352E+03  0.57948690812E+03  0.17300000000E+03 0.  1.
</event>
<event>
 4    1  0.6092738E+000  0.1000000E+03  0.7546771E-02  0.1280296E+00
         21   -1    0    0  501  502  0.00000000000E+00  0.00000000000E+00  0.16475199716E+04  0.16475199716E+04  0.00000000000E+00 0. -1.
         21   -1    0    0  502  503 -0.00000000000E+00 -0.00000000000E+00 -0.85261014565E+03  0.85261014565E+03  0.00000000000E+00 0.  1.
          6    1    1    2  501    0 -0.27279132178E+03 -0.17143463437E+02  0.16000592340E+04  0.16324299543E+04  0.17300000000E+03 0. -1.
         -6    1    1    2    0  503  0.27279132178E+03  0.17143463437E+02 -0.80514940800E+03  0.86770016295E+03  0.17300000000E+03 0.  1.
</event>
<event>
 4    1  0.6092738E+000  0.1000000E+03  0.7546771E-02  0.1280296E+00
         21   -1    0    0  501  502  0.00000000000E+00  0.00000000000E+00  0.16381139071E+03  0.16381139071E+03  0.00000000000E+00 0. -1.
         21   -1    0    0  502  503 -0.00000000000E+00 -0.00000000000E+00 -0.25566059470E+03  0.25566059470E+03  0.00000000000E+00 0. -1.
          6    1    1    2  501    0  0.53858290982E+02  0.15142497247E+02  0.50332007655E+02  0.18865927416E+03  0.17300000000E+03 0. -1.
         -6    1    1    2    0  503 -0.53858290982E+02 -0.15142497247E+02 -0.14218121165E+03  0.23081271125E+03  0.17300000000E+03 0. -1.
</event>
<event>
 4    1  0.6092738E+000  0.1000000E+03  0.7546771E-02  0.1280296E+00
         21   -1    0    0  501  502  0.00000000000E+00  0.00000000000E+00  0.84925252569E+03  0.84925252569E+03  0.00000000000E+00 0. -1.
         21   -1    0    0  502  503 -0.00000000000E+00 -0.00000000000E+00 -0.12288465060E+03  0.12288465060E+03  0.00000000000E+00 0. -1.
          6    1    1    2  501    0  0.86034230342E+02 -0.25888376791E+03  0.36754628305E+03  0.48932807426E+03  0.17300000000E+03 0. -1.
         -6    1    1    2    0  503 -0.86034230342E+02  0.25888376791E+03  0.35882159204E+03  0.48280910202E+03  0.17300000000E+03 0. -1.
</event>
<event>
 4    1  0.6092738E+000  0.1000000E+03  0.7546771E-02  0.1280296E+00
         21   -1    0    0  503  502  0.00000000000E+00  0.00000000000E+00  0.12947204024E+03  0.12947204024E+03  0.00000000000E+00 0. -1.
         21   -1    0    0  501  503 -0.00000000000E+00 -0.00000000000E+00 -0.41011137238E+03  0.41011137238E+03  0.00000000000E+00 0.  1.
          6    1    1    2  501    0  0.47510481691E+02  0.88408511781E+02 -0.27430372933E+03  0.33947731404E+03  0.17300000000E+03 0.  1.
         -6    1    1    2    0  502 -0.47510481691E+02 -0.88408511781E+02 -0.63356028065E+01  0.20010609858E+03  0.17300000000E+03 0. -1.
</event>
<event>
 4    1  0.6092738E+000  0.1000000E+03  0.7546771E-02  0.1280296E+00
         21   -1    0    0  503  502  0.00000000000E+00  0.00000000000E+00  0.22829758930E+03  0.22829758930E+03  0.00000000000E+00 0.  1.
         21   -1    0    0  501  503 -0.00000000000E+00 -0.00000000000E+00 -0.31658888280E+03  0.31658888280E+03  0.00000000000E+00 0.  1.
          6    1    1    2  501    0  0.27319410764E+02 -0.45461696066E+02 -0.24564094123E+03  0.30509275314E+03  0.17300000000E+03 0.  1.
         -6    1    1    2    0  502 -0.27319410764E+02  0.45461696066E+02  0.15734964772E+03  0.23979371896E+03  0.17300000000E+03 0.  1.
</event>
<event>
 4    1  0.6092738E+000  0.1000000E+03  0.7546771E-02  0.1280296E+00
         21   -1    0    0  501  502  0.00000000000E+00  0.00000000000E+00  0.61449805800E+02  0.61449805800E+02  0.00000000000E+00 0.  1.
         21   -1    0    0  502  503 -0.00000000000E+00 -0.00000000000E+00 -0.11183298781E+04  0.11183298781E+04  0.00000000000E+00 0.  1.
          6    1    1    2  501    0 -0.26951829677E+02  0.99778344988E+02 -0.15116646224E+03  0.25191748363E+03  0.17300000000E+03 0.  1.
         -6    1    1    2    0  503  0.26951829677E+02 -0.99778344988E+02 -0.90571361009E+03  0.92786220030E+03  0.17300000000E+03 0.  1.
</event>
<event>
 4    1  0.6092738E+000  0.1000000E+03  0.7546771E-02  0.1280296E+00
         21   -1    0    0  501  502  0.00000000000E+00  0.00000000000E+00  0.87379207414E+02  0.87379207414E+02  0.00000000000E+00 0.  1.
         21   -1    0    0  502  503 -0.00000000000E+00 -0.00000000000E+00 -0.14447313449E+04  0.14447313449E+04  0.00000000000E+00 0.  1.
          6    1    1    2  501    0  0.49152990855E+02  0.47795894252E+02 -0.26095724043E+02  0.18791075230E+03  0.17300000000E+03 0.  1.
         -6    1    1    2    0  503 -0.49152990855E+02 -0.47795894252E+02 -0.13312564134E+04  0.13441998000E+04  0.17300000000E+03 0.  1.
</event>
<event>
 4    1  0.6092738E+000  0.1000000E+03  0.7546771E-02  0.1280296E+00
         21   -1    0    0  501  502  0.00000000000E+00  0.00000000000E+00  0.14091622420E+03  0.14091622420E+03  0.00000000000E+00 0. -1.
         21   -1    0    0  502  503 -0.00000000000E+00 -0.00000000000E+00 -0.23095177500E+03  0.23095177500E+03  0.00000000000E+00 0.  1.
          6    1    1    2  501    0  0.90357664340E+01 -0.44933509599E+02 -0.68411533855E+02  0.19159802537E+03  0.17300000000E+03 0. -1.
         -6    1    1    2    0  503 -0.90357664340E+01  0.44933509599E+02 -0.21624016943E+02  0.18026997384E+03  0.17300000000E+03 0. -1.
</event>
<event>
 4    1  0.6092738E+000  0.1000000E+03  0.7546771E-02  0.1280296E+00
         21   -1    0    0  501  502  0.00000000000E+00  0.00000000000E+00  0.15828153816E+03  0.15828153816E+03  0.00000000000E+00 0. -1.
         21   -1    0    0  502  503 -0.00000000000E+00 -0.00000000000E+00 -0.38980881289E+03  0.38980881289E+03  0.00000000000E+00 0.  1.
          6    1    1    2  501    0  0.17436931624E+03 -0.30122495475E+02 -0.92139382166E+02  0.26406569055E+03  0.17300000000E+03 0. -1.
         -6    1    1    2    0  503 -0.17436931624E+03  0.30122495475E+02 -0.13938789256E+03  0.28402466050E+03  0.17300000000E+03 0.  1.
</event>
<event>
 4    1  0.6092738E+000  0.1000000E+03  0.7546771E-02  0.1280296E+00
         21   -1    0    0  501  502  0.00000000000E+00  0.00000000000E+00  0.22724486321E+03  0.22724486321E+03  0.00000000000E+00 0. -1.
         21   -1    0    0  502  503 -0.00000000000E+00 -0.00000000000E+00 -0.20920137901E+03  0.20920137901E+03  0.00000000000E+00 0.  1.
          6    1    1    2  501    0 -0.83080135220E+02 -0.95653457531E+02  0.48540283947E+02  0.21985688975E+03  0.17300000000E+03 0. -1.
         -6    1    1    2    0  503  0.83080135220E+02  0.95653457531E+02 -0.30496799747E+02  0.21658935246E+03  0.17300000000E+03 0.  1.
</event>
<event>
 4    1  0.6092738E+000  0.1000000E+03  0.7546771E-02  0.1280296E+00
         21   -1    0    0  503  502  0.00000000000E+00  0.00000000000E+00  0.14581803393E+04  0.14581803393E+04  0.00000000000E+00 0.  1.
         21   -1    0    0  501  503 -0.00000000000E+00 -0.00000000000E+00 -0.18207666733E+03  0.18207666733E+03  0.00000000000E+00 0.  1.
          6    1    1    2  501    0 -0.35323576351E+03  0.10324513893E+03  0.13438256153E+03  0.42827880660E+03  0.17300000000E+03 0.  1.
         -6    1    1    2    0  502  0.35323576351E+03 -0.10324513893E+03  0.11417211105E+04  0.12119782001E+04  0.17300000000E+03 0.  1.
</event>
<event>
 4    1  0.6092738E+000  0.1000000E+03  0.7546771E-02  0.1280296E+00
         21   -1    0    0  503  502  0.00000000000E+00  0.00000000000E+00  0.36517709464E+03  0.36517709464E+03  0.00000000000E+00 0.  1.
         21   -1    0    0  501  503 -0.00000000000E+00 -0.00000000000E+00 -0.98708304980E+02  0.98708304980E+02  0.00000000000E+00 0.  1.
          6    1    1    2  501    0 -0.60823602485E+02 -0.17025487710E+02  0.18958525834E+03  0.26431221695E+03  0.17300000000E+03 0.  1.
         -6    1    1    2    0  502  0.60823602485E+02  0.17025487710E+02  0.76883531318E+02  0.19957318266E+03  0.17300000000E+03 0.  1.
</event>
<event>
 4    1  0.6092738E+000  0.1000000E+03  0.7546771E-02  0.1280296E+00
         21   -1    0    0  503  502  0.00000000000E+00  0.00000000000E+00  0.33404056715E+03  0.33404056715E+03  0.00000000000E+00 0.  1.
         21   -1    0    0  501  503 -0.00000000000E+00 -0.00000000000E+00 -0.96381104232E+02  0.96381104232E+02  0.00000000000E+00 0.  1.
          6    1    1    2  501    0 -0.41841185342E+02  0.22676969808E+02  0.11747861060E+03  0.21446480760E+03  0.17300000000E+03 0.  1.
         -6    1    1    2    0  502  0.41841185342E+02 -0.22676969808E+02  0.12018085232E+03  0.21595686379E+03  0.17300000000E+03 0.  1.
</event>
<event>
 4    1  0.6092738E+000  0.1000000E+03  0.7546771E-02  0.1280296E+00
         21   -1    0    0  503  502  0.00000000000E+00  0.00000000000E+00  0.87998209182E+02  0.87998209182E+02  0.00000000000E+00 0. -1.
         21   -1    0    0  501  503 -0.00000000000E+00 -0.00000000000E+00 -0.69591487994E+03  0.69591487994E+03  0.00000000000E+00 0.  1.
          6    1    1    2  501    0 -0.53985280399E+02 -0.13805445165E+03 -0.45700450326E+03  0.51064229958E+03  0.17300000000E+03 0.  1.
         -6    1    1    2    0  502  0.53985280399E+02  0.13805445165E+03 -0.15091216751E+03  0.27327078955E+03  0.17300000000E+03 0. -1.
</event>
<event>
 4    1  0.6092738E+000  0.1000000E+03  0.7546771E-02  0.1280296E+00
         21   -1    0    0  503  502  0.00000000000E+00  0.00000000000E+00  0.15564195097E+03  0.15564195097E+03  0.00000000000E+00 0. -1.
         21   -1    0    0  501  503 -0.00000000000E+00 -0.00000000000E+00 -0.48549265413E+03  0.48549265413E+03  0.00000000000E+00 0.  1.
          6    1    1    2  501    0 -0.15067805084E+03 -0.40322874333E+02 -0.33514015322E+03  0.40813935304E+03  0.17300000000E+03 0.  1.
         -6    1    1    2    0  502  0.15067805084E+03  0.40322874333E+02  0.52894500596E+01  0.23299525206E+03  0.17300000000E+03 0. -1.
</event>
<event>
 4    1  0.6092738E+000  0.1000000E+03  0.7546771E-02  0.1280296E+00
         21   -1    0    0  501  502  0.00000000000E+00  0.00000000000E+00  0.12696173058E+03  0.12696173058E+03  0.00000000000E+00 0. -1.
         21   -1    0    0  502  503 -0.00000000000E+00 -0.00000000000E+00 -0.57998842738E+03  0.57998842738E+03  0.00000000000E+00 0.  1.
          6    1    1    2  501    0  0.42179766457E+01 -0.95186203143E+02  0.15887150239E+02  0.19814036979E+03  0.17300000000E+03 0. -1.
         -6    1    1    2    0  503 -0.42179766457E+01  0.95186203143E+02 -0.46891384704E+03  0.50880978818E+03  0.17300000000E+03 0.  1.
</event>
<event>
 4    1  0.6092738E+000  0.1000000E+03  0.7546771E-02  0.1280296E+00
         21   -1    0    0  501  502  0.00000000000E+00  0.00000000000E+00  0.13354784543E+04  0.13354784543E+04  0.00000000000E+00 0.  1.
         21   -1    0    0  502  503 -0.00000000000E+00 -0.00000000000E+00 -0.26242734411E+02  0.26242734411E+02  0.00000000000E+00 0. -1.
          6    1    1    2  501    0  0.41403062950E+02  0.46934280732E+02  0.78063460111E+03  0.80202021220E+03  0.17300000000E+03 0.  1.
         -6    1    1    2    0  503 -0.41403062950E+02 -0.46934280732E+02  0.52860111874E+03  0.55970097648E+03  0.17300000000E+03 0. -1.
</event>
<event>
 4    1  0.6092738E+000  0.1000000E+03  0.7546771E-02  0.1280296E+00
         21   -1    0    0  501  502  0.00000000000E+00  0.00000000000E+00  0.19722144128E+03  0.19722144128E+03  0.00000000000E+00 0. -1.
         21   -1    0    0  502  503 -0.00000000000E+00 -0.00000000000E+00 -0.40406539305E+03  0.40406539305E+03  0.00000000000E+00 0. -1.
          6    1    1    2  501    0  0.10367924486E+03  0.84005871390E+02  0.86956624253E+02  0.23515277320E+03  0.17300000000E+03 0. -1.
         -6    1    1    2    0  503 -0.10367924486E+03 -0.84005871390E+02 -0.29380057603E+03  0.36613406113E+03  0.17300000000E+03 0. -1.
</event>
<event>
 4    1  0.6092738E+000  0.1000000E+03  0.7546771E-02  0.1280296E+00
         21   -1    0    0  501  502  0.00000000000E+00  0.00000000000E+00  0.14679196404E+03  0.14679196404E+03  0.00000000000E+00 0. -1.
         21   -1    0    0  502  503 -0.00000000000E+00 -0.00000000000E+00 -0.17495414982E+04  0.17495414982E+04  0.00000000000E+00 0. -1.
          6    1    1    2  501    0 -0.11730625812E+02 -0.45139566520E+03 -0.51766224201E+03  0.70837761889E+03  0.17300000000E+03 0. -1.
         -6    1    1    2    0  503  0.11730625812E+02  0.45139566520E+03 -0.10850872921E+04  0.11879558433E+04  0.17300000000E+03 0. -1.
</event>
<event>
 4    1  0.6092738E+000  0.1000000E+03  0.7546771E-02  0.1280296E+00
         21   -1    0    0  501  502  0.00000000000E+00  0.00000000000E+00  0.34547712319E+02  0.34547712319E+02  0.00000000000E+00 0. -1.
         21   -1    0    0  502  503 -0.00000000000E+00 -0.00000000000E+00 -0.18304094396E+04  0.18304094396E+04  0.00000000000E+00 0. -1.
          6    1    1    2  501    0  0.14183911452E+03  0.93040662100E+02 -0.11475781505E+04  0.11728765965E+04  0.17300000000E+03 0. -1.
         -6    1    1    2    0  503 -0.14183911452E+03 -0.93040662100E+02 -0.64828357684E+03  0.69208055544E+03  0.17300000000E+03 0. -1.
</event>
<event>
 4    1  0.6092738E+000  0.1000000E+03  0.7546771E-02  0.1280296E+00
         21   -1    0    0  501  502  0.00000000000E+00  0.00000000000E+00  0.33645631882E+03  0.33645631882E+03  0.00000000000E+00 0. -1.
         21   -1    0    0  502  503 -0.00000000000E+00 -0.00000000000E+00 -0.35630733791E+03  0.35630733791E+03  0.00000000000E+00 0. -1.
          6    1    1    2  501    0 -0.11867620387E+03 -0.12556098989E+03  0.23533484803E+03  0.33935393654E+03  0.17300000000E+03 0. -1.
         -6    1    1    2    0  503  0.11867620387E+03  0.12556098989E+03 -0.25518586712E+03  0.35340972019E+03  0.17300000000E+03 0. -1.
</event>
<event>
 4    1  0.6092738E+000  0.1000000E+03  0.7546771E-02  0.1280296E+00
         21   -1    0    0  501  502  0.00000000000E+00  0.00000000000E+00  0.23396853457E+04  0.23396853457E+04  0.00000000000E+00 0. -1.
         21   -1    0    0  502  503 -0.00000000000E+00 -0.00000000000E+00 -0.22337000612E+02  0.22337000612E+02  0.00000000000E+00 0. -1.
          6    1    1    2  501    0 -0.75761719737E+02  0.56405105247E+02  0.17569429373E+04  0.17679646091E+04  0.17300000000E+03 0. -1.
         -6    1    1    2    0  503  0.75761719737E+02 -0.56405105247E+02  0.56040540783E+03  0.59405773726E+03  0.17300000000E+03 0. -1.
</event>
<event>
 4    1  0.6092738E+000  0.1000000E+03  0.7546771E-02  0.1280296E+00
         21   -1    0    0  503  502  0.00000000000E+00  0.00000000000E+00  0.10410310664E+03  0.10410310664E+03  0.00000000000E+00 0. -1.
         21   -1    0    0  501  503 -0.00000000000E+00 -0.00000000000E+00 -0.68429318655E+03  0.68429318655E+03  0.00000000000E+00 0. -1.
          6    1    1    2  501    0 -0.47540010999E+01  0.14544122057E+03 -0.49965499370E+03  0.54841577466E+03  0.17300000000E+03 0. -1.
         -6    1    1    2    0  502  0.47540010999E+01 -0.14544122057E+03 -0.80535086211E+02  0.23998051854E+03  0.17300000000E+03 0. -1.
</event>
<event>
 4    1  0.6092738E+000  0.1000000E+03  0.7546771E-02  0.1280296E+00
         21   -1    0    0  503  502  0.00000000000E+00  0.00000000000E+00  0.26115217561E+02  0.26115217561E+02  0.00000000000E+00 0. -1.
         21   -1    0    0  501  503 -0.00000000000E+00 -0.00000000000E+00 -0.17532733991E+04  0.17532733991E+04  0.00000000000E+00 0. -1.
          6    1    1    2  501    0  0.10915259466E+03  0.23599274172E+02 -0.11055540671E+04  0.11245665876E+04  0.17300000000E+03 0. -1.
         -6    1    1    2    0  502 -0.10915259466E+03 -0.23599274172E+02 -0.62160411451E+03  0.65482202913E+03  0.17300000000E+03 0. -1.
</event>
<event>
 4    1  0.6092738E+000  0.1000000E+03  0.7546771E-02  0.1280296E+00
         21   -1    0    0  503  502  0.00000000000E+00  0.00000000000E+00  0.82799859159E+03  0.82799859159E+03  0.00000000000E+00 0. -1.
         21   -1    0    0  501  503 -0.00000000000E+00 -0.00000000000E+00 -0.57231637498E+02  0.57231637498E+02  0.00000000000E+00 0. -1.
          6    1    1    2  501    0  0.30768097503E+02 -0.31479089775E+02  0.13207210210E+03  0.22205776066E+03  0.17300000000E+03 0. -1.
         -6    1    1    2    0  502 -0.30768097503E+02  0.31479089775E+02  0.63869485199E+03  0.66317246842E+03  0.17300000000E+03 0. -1.
</event>
<event>
 4    1  0.6092738E+000  0.1000000E+03  0.7546771E-02  0.1280296E+00
         21   -1    0    0  501  502  0.00000000000E+00  0.00000000000E+00  0.81644434414E+02  0.81644434414E+02  0.00000000000E+00 0. -1.
         21   -1    0    0  502  503 -0.00000000000E+00 -0.00000000000E+00 -0.64292226907E+03  0.64292226907E+03  0.00000000000E+00 0. -1.
          6    1    1    2  501    0 -0.11487860488E+03 -0.88675454180E+02 -0.21936406739E+03  0.31481744566E+03  0.17300000000E+03 0. -1.
         -6    1    1    2    0  503  0.11487860488E+03  0.88675454180E+02 -0.34191376727E+03  0.40974925782E+03  0.17300000000E+03 0. -1.
</event>
<event>
 4    1  0.6092738E+000  0.1000000E+03  0.7546771E-02  0.1280296E+00
         21   -1    0    0  501  502  0.00000000000E+00  0.00000000000E+00  0.35280815126E+02  0.35280815126E+02  0.00000000000E+00 0. -1.
         21   -1    0    0  502  503 -0.00000000000E+00 -0.00000000000E+00 -0.21001501652E+04  0.21001501652E+04  0.00000000000E+00 0. -1.
          6    1    1    2  501    0  0.18963091255E+03 -0.48226172233E+02 -0.73164485555E+03  0.77686475099E+03  0.17300000000E+03 0. -1.
         -6    1    1    2    0  503 -0.18963091255E+03  0.48226172233E+02 -0.13332244945E+04  0.13585662293E+04  0.17300000000E+03 0. -1.
</event>
<event>
 4    1  0.6092738E+000  0.1000000E+03  0.7546771E-02  0.1280296E+00
         21   -1    0    0  501  502  0.00000000000E+00  0.00000000000E+00  0.75534613135E+03  0.75534613135E+03  0.00000000000E+00 0. -1.
         21   -1    0    0  502  503 -0.00000000000E+00 -0.00000000000E+00 -0.16571285854E+03  0.16571285854E+03  0.00000000000E+00 0. -1.
          6    1    1    2  501    0 -0.84532797876E+02  0.18449883455E+03  0.59745787394E+03  0.65427098744E+03  0.17300000000E+03 0. -1.
         -6    1    1    2    0  503  0.84532797876E+02 -0.18449883455E+03 -0.78246011325E+01  0.26678800245E+03  0.17300000000E+03 0. -1.
</event>
<event>
 4    1  0.6092738E+000  0.1000000E+03  0.7546771E-02  0.1280296E+00
         21   -1    0    0  501  502  0.00000000000E+00  0.00000000000E+00  0.14622615829E+03  0.14622615829E+03  0.00000000000E+00 0.  1.
         21   -1    0    0  502  503 -0.00000000000E+00 -0.00000000000E+00 -0.44917126083E+03  0.44917126083E+03  0.00000000000E+00 0. -1.
          6    1    1    2  501    0  0.98497559423E+02  0.13627671964E+03 -0.51019081836E+02  0.24658682089E+03  0.17300000000E+03 0. -1.
         -6    1    1    2    0  503 -0.98497559423E+02 -0.13627671964E+03 -0.25192602070E+03  0.34881059822E+03  0.17300000000E+03 0.  1.
</event>
<event>
 4    1  0.6092738E+000  0.1000000E+03  0.7546771E-02  0.1280296E+00
         21   -1    0    0  501  502  0.00000000000E+00  0.00000000000E+00  0.19040480977E+03  0.19040480977E+03  0.00000000000E+00 0.  1.
         21   -1    0    0  502  503 -0.00000000000E+00 -0.00000000000E+00 -0.43264483885E+03  0.43264483885E+03  0.00000000000E+00 0. -1.
          6    1    1    2  501    0 -0.17169262562E+02  0.22721601331E+03 -0.14603114818E+03  0.32121020612E+03  0.17300000000E+03 0. -1.
         -6    1    1    2    0  503  0.17169262562E+02 -0.22721601331E+03 -0.96208880906E+02  0.30183944249E+03  0.17300000000E+03 0.  1.
</event>
<event>
 4    1  0.6092738E+000  0.1000000E+03  0.7546771E-02  0.1280296E+00
         21   -1    0    0  503  502  0.00000000000E+00  0.00000000000E+00  0.81716391287E+02  0.81716391287E+02  0.00000000000E+00 0.  1.
         21   -1    0    0  501  503 -0.00000000000E+00 -0.00000000000E+00 -0.49909686297E+03  0.49909686297E+03  0.00000000000E+00 0. -1.
          6    1    1    2  501    0  0.15288809510E+00  0.91246173627E+02 -0.13636706590E+03  0.23843419268E+03  0.17300000000E+03 0.  1.
         -6    1    1    2    0  502 -0.15288809510E+00 -0.91246173627E+02 -0.28101340578E+03  0.34237906158E+03  0.17300000000E+03 0. -1.
</event>
<event>
 4    1  0.6092738E+000  0.1000000E+03  0.7546771E-02  0.1280296E+00
         21   -1    0    0  503  502  0.00000000000E+00  0.00000000000E+00  0.28746578893E+02  0.28746578893E+02  0.00000000000E+00 0.  1.
         21   -1    0    0  501  503 -0.00000000000E+00 -0.00000000000E+00 -0.12580717392E+04  0.12580717392E+04  0.00000000000E+00 0. -1.
          6    1    1    2  501    0 -0.76947417075E+01  0.78228838077E+02 -0.64027275281E+03  0.66787510670E+03  0.17300000000E+03 0.  1.
         -6    1    1    2    0  502  0.76947417075E+01 -0.78228838077E+02 -0.58905240755E+03  0.61894321145E+03  0.17300000000E+03 0. -1.
</event>
<event>
 4    1  0.6092738E+000  0.1000000E+03  0.7546771E-02  0.1280296E+00
         21   -1    0    0  501  502  0.00000000000E+00  0.00000000000E+00  0.97419834356E+02  0.97419834356E+02  0.00000000000E+00 0. -1.
         21   -1    0    0  502  503 -0.00000000000E+00 -0.00000000000E+00 -0.76209067666E+03  0.76209067666E+03  0.00000000000E+00 0. -1.
          6    1    1    2  501    0 -0.59432010237E+02  0.21959678191E+02 -0.15711857466E+02  0.18490606743E+03  0.17300000000E+03 0. -1.
         -6    1    1    2    0  503  0.59432010237E+02 -0.21959678191E+02 -0.64895898483E+03  0.67460444358E+03  0.17300000000E+03 0. -1.
</event>
<event>
 4    1  0.6092738E+000  0.1000000E+03  0.7546771E-02  0.1280296E+00
         21   -1    0    0  501  502  0.00000000000E+00  0.00000000000E+00  0.45500004932E+03  0.45500004932E+03  0.00000000000E+00 0. -1.
         21   -1    0    0  502  503 -0.00000000000E+00 -0.00000000000E+00 -0.93965573420E+02  0.93965573420E+02  0.00000000000E+00 0. -1.
          6    1    1    2  501    0 -0.10918008550E+02  0.55247877690E+02  0.31094631248E+03  0.36026121099E+03  0.17300000000E+03 0. -1.
         -6    1    1    2    0  503  0.10918008550E+02 -0.55247877690E+02  0.50088163425E+02  0.18870441175E+03  0.17300000000E+03 0. -1.
</event>
<event>
 4    1  0.6092738E+000  0.1000000E+03  0.7546771E-02  0.1280296E+00
         21   -1    0    0  503  502  0.00000000000E+00  0.00000000000E+00  0.27790309362E+03  0.27790309362E+03  0.00000000000E+00 0. -1.
         21   -1    0    0  501  503 -0.00000000000E+00 -0.00000000000E+00 -0.20421908407E+03  0.20421908407E+03  0.00000000000E+00 0. -1.
          6    1    1    2  501    0  0.69750176868E+02  0.10180599836E+03 -0.72116095877E+02  0.22440873370E+03  0.17300000000E+03 0. -1.
         -6    1    1    2    0  502 -0.69750176868E+02 -0.10180599836E+03  0.14580010543E+03  0.25771344400E+03  0.17300000000E+03 0. -1.
</event>
<event>
 4    1  0.6092738E+000  0.1000000E+03  0.7546771E-02  0.1280296E+00
         21   -1    0    0  501  502  0.00000000000E+00  0.00000000000E+00  0.80710203178E+02  0.80710203178E+02  0.00000000000E+00 0.  1.
         21   -1    0    0  502  503 -0.00000000000E+00 -0.00000000000E+00 -0.15020341559E+04  0.15020341559E+04  0.00000000000E+00 0. -1.
          6    1    1    2  501    0 -0.12330901125E+03 -0.86643833344E+02 -0.11540923124E+03  0.25682787382E+03  0.17300000000E+03 0.  1.
         -6    1    1    2    0  503  0.12330901125E+03  0.86643833344E+02 -0.13059147215E+04  0.13259164853E+04  0.17300000000E+03 0.  1.
</event>
<event>
 4    1  0.6092738E+000  0.1000000E+03  0.7546771E-02  0.1280296E+00
         21   -1    0    0  501  502  0.00000000000E+00  0.00000000000E+00  0.83433000749E+03  0.83433000749E+03  0.00000000000E+00 0.  1.
         21   -1    0    0  502  503 -0.00000000000E+00 -0.00000000000E+00 -0.54632214516E+02  0.54632214516E+02  0.00000000000E+00 0.  1.
          6    1    1    2  501    0 -0.44345150155E+01 -0.31820058317E+02  0.64157912400E+03  0.66527058659E+03  0.17300000000E+03 0.  1.
         -6    1    1    2    0  503  0.44345150155E+01  0.31820058317E+02  0.13811866898E+03  0.22369163542E+03  0.17300000000E+03 0.  1.
</event>
<event>
 4    1  0.6092738E+000  0.1000000E+03  0.7546771E-02  0.1280296E+00
         21   -1    0    0  501  502  0.00000000000E+00  0.00000000000E+00  0.66330788115E+03  0.66330788115E+03  0.00000000000E+00 0. -1.
         21   -1    0    0  502  503 -0.00000000000E+00 -0.00000000000E+00 -0.73912290963E+02  0.73912290963E+02  0.00000000000E+00 0. -1.
          6    1    1    2  501    0 -0.45331570866E+01 -0.10038024535E+03  0.45263823886E+03  0.49488091340E+03  0.17300000000E+03 0. -1.
         -6    1    1    2    0  503  0.45331570866E+01  0.10038024535E+03  0.13675735132E+03  0.24233925871E+03  0.17300000000E+03 0. -1.
</event>
<event>
 4    1  0.6092738E+000  0.1000000E+03  0.7546771E-02  0.1280296E+00
         21   -1    0    0  501  502  0.00000000000E+00  0.00000000000E+00  0.94567517163E+03  0.94567517163E+03  0.00000000000E+00 0. -1.
         21   -1    0    0  502  503 -0.00000000000E+00 -0.00000000000E+00 -0.10204365487E+03  0.10204365487E+03  0.00000000000E+00 0. -1.
          6    1    1    2  501    0 -0.15352886601E+03  0.15653483909E+03  0.65116643327E+03  0.70853439744E+03  0.17300000000E+03 0. -1.
         -6    1    1    2    0  503  0.15352886601E+03 -0.15653483909E+03  0.19246508350E+03  0.33918442905E+03  0.17300000000E+03 0. -1.
</event>
<event>
 4    1  0.6092738E+000  0.1000000E+03  0.7546771E-02  0.1280296E+00
         21   -1    0    0  501  502  0.00000000000E+00  0.00000000000E+00  0.14452337634E+04  0.14452337634E+04  0.00000000000E+00 0.  1.
         21   -1    0    0  502  503 -0.00000000000E+00 -0.00000000000E+00 -0.62075409418E+02  0.62075409418E+02  0.00000000000E+00 0.  1.
          6    1    1    2  501    0  0.22831920844E+02 -0.44723899907E-01  0.13041213186E+04  0.13157441667E+04  0.17300000000E+03 0.  1.
         -6    1    1    2    0  503 -0.22831920844E+02  0.44723899907E-01  0.79037035413E+02  0.19156500614E+03  0.17300000000E+03 0.  1.
</event>
<event>
 4    1  0.6092738E+000  0.1000000E+03  0.7546771E-02  0.1280296E+00
         21   -1    0    0  501  502  0.00000000000E+00  0.00000000000E+00  0.27422949031E+03  0.27422949031E+03  0.00000000000E+00 0.  1.
         21   -1    0    0  502  503 -0.00000000000E+00 -0.00000000000E+00 -0.58111011780E+03  0.58111011780E+03  0.00000000000E+00 0.  1.
          6    1    1    2  501    0  0.22551877175E+03  0.17464270423E+03  0.81446253724E+02  0.34339668431E+03  0.17300000000E+03 0.  1.
         -6    1    1    2    0  503 -0.22551877175E+03 -0.17464270423E+03 -0.38832688122E+03  0.51194292380E+03  0.17300000000E+03 0.  1.
</event>
<event>
 4    1  0.6092738E+000  0.1000000E+03  0.7546771E-02  0.1280296E+00
         21   -1    0    0  501  502  0.00000000000E+00  0.00000000000E+00  0.44689316171E+03  0.44689316171E+03  0.00000000000E+00 0. -1.
         21   -1    0    0  502  503 -0.00000000000E+00 -0.00000000000E+00 -0.81234589795E+02  0.81234589795E+02  0.00000000000E+00 0. -1.
          6    1    1    2  501    0 -0.15346518362E+02  0.67694741632E+02  0.23749988839E+03  0.30191603246E+03  0.17300000000E+03 0. -1.
         -6    1    1    2    0  503  0.15346518362E+02 -0.67694741632E+02  0.12815868352E+03  0.22621171904E+03  0.17300000000E+03 0. -1.
</event>
<event>
 4    1  0.6092738E+000  0.1000000E+03  0.7546771E-02  0.1280296E+00
         21   -1    0    0  501  502  0.00000000000E+00  0.00000000000E+00  0.12218103838E+04  0.12218103838E+04  0.00000000000E+00 0. -1.
         21   -1    0    0  502  503 -0.00000000000E+00 -0.00000000000E+00 -0.11736543606E+03  0.11736543606E+03  0.00000000000E+00 0. -1.
          6    1    1    2  501    0 -0.11454915685E+03  0.61175924021E+02  0.11018090018E+04  0.11228428561E+04  0.17300000000E+03 0. -1.
         -6    1    1    2    0  503  0.11454915685E+03 -0.61175924021E+02  0.26359459755E+01  0.21633296380E+03  0.17300000000E+03 0. -1.
</event>
<event>
 4    1  0.6092738E+000  0.1000000E+03  0.7546771E-02  0.1280296E+00
         21   -1    0    0  501  502  0.00000000000E+00  0.00000000000E+00  0.84305862467E+03  0.84305862467E+03  0.00000000000E+00 0. -1.
         21   -1    0    0  502  503 -0.00000000000E+00 -0.00000000000E+00 -0.83743106863E+02  0.83743106863E+02  0.00000000000E+00 0. -1.
          6    1    1    2  501    0  0.29817943589E+02 -0.42666781299E+02  0.71946038290E+03  0.74179633765E+03  0.17300000000E+03 0. -1.
         -6    1    1    2    0  503 -0.29817943589E+02  0.42666781299E+02  0.39855134903E+02  0.18500539388E+03  0.17300000000E+03 0. -1.
</event>
<event>
 4    1  0.6092738E+000  0.1000000E+03  0.7546771E-02  0.1280296E+00
         21   -1    0    0  501  502  0.00000000000E+00  0.00000000000E+00  0.19891645863E+03  0.19891645863E+03  0.00000000000E+00 0. -1.
         21   -1    0    0  502  503 -0.00000000000E+00 -0.00000000000E+00 -0.17122938421E+03  0.17122938421E+03  0.00000000000E+00 0. -1.
          6    1    1    2  501    0 -0.86057315628E+01 -0.56466689542E+02  0.43401707653E+02  0.18728388577E+03  0.17300000000E+03 0. -1.
         -6    1    1    2    0  503  0.86057315628E+01  0.56466689542E+02 -0.15714633234E+02  0.18286195706E+03  0.17300000000E+03 0. -1.
</event>
<event>
 4    1  0.6092738E+000  0.1000000E+03  0.7546771E-02  0.1280296E+00
         21   -1    0    0  503  502  0.00000000000E+00  0.00000000000E+00  0.51144247023E+03  0.51144247023E+03  0.00000000000E+00 0. -1.
         21   -1    0    0  501  503 -0.00000000000E+00 -0.00000000000E+00 -0.10913316081E+03  0.10913316081E+03  0.00000000000E+00 0. -1.
          6    1    1    2  501    0 -0.74921867355E+02 -0.21671544448E+02  0.16330918628E+02  0.19046952762E+03  0.17300000000E+03 0. -1.
         -6    1    1    2    0  502  0.74921867355E+02  0.21671544448E+02  0.38597839079E+03  0.43010610342E+03  0.17300000000E+03 0. -1.
</event>
<event>
 4    1  0.6092738E+000  0.1000000E+03  0.7546771E-02  0.1280296E+00
         21   -1    0    0  503  502  0.00000000000E+00  0.00000000000E+00  0.19332570583E+03  0.19332570583E+03  0.00000000000E+00 0. -1.
         21   -1    0    0  501  503 -0.00000000000E+00 -0.00000000000E+00 -0.25302983190E+03  0.25302983190E+03  0.00000000000E+00 0. -1.
          6    1    1    2  501    0  0.80865179010E+02  0.21646637941E+02 -0.14029964912E+03  0.23795114131E+03  0.17300000000E+03 0. -1.
         -6    1    1    2    0  502 -0.80865179010E+02 -0.21646637941E+02  0.80595523042E+02  0.20840439641E+03  0.17300000000E+03 0. -1.
</event>
<event>
 4    1  0.6092738E+000  0.1000000E+03  0.7546771E-02  0.1280296E+00
         21   -1    0    0  503  502  0.00000000000E+00  0.00000000000E+00  0.42078253680E+03  0.42078253680E+03  0.00000000000E+00 0. -1.
         21   -1    0    0  501  503 -0.00000000000E+00 -0.00000000000E+00 -0.23184282828E+03  0.23184282828E+03  0.00000000000E+00 0. -1.
          6    1    1    2  501    0 -0.12636925629E+03  0.60890671917E+02 -0.13430091738E+03  0.26008190877E+03  0.17300000000E+03 0. -1.
         -6    1    1    2    0  502  0.12636925629E+03 -0.60890671917E+02  0.32324062590E+03  0.39254345632E+03  0.17300000000E+03 0. -1.
</event>
<event>
 4    1  0.6092738E+000  0.1000000E+03  0.7546771E-02  0.1280296E+00
         21   -1    0    0  503  502  0.00000000000E+00  0.00000000000E+00  0.29709806493E+03  0.29709806493E+03  0.00000000000E+00 0.  1.
         21   -1    0    0  501  503 -0.00000000000E+00 -0.00000000000E+00 -0.15353786943E+03  0.15353786943E+03  0.00000000000E+00 0. -1.
          6    1    1    2  501    0 -0.32646902980E+02  0.12067472230E+03  0.79855581107E+02  0.22789059373E+03  0.17300000000E+03 0. -1.
         -6    1    1    2    0  502  0.32646902980E+02 -0.12067472230E+03  0.63704614393E+02  0.22274534063E+03  0.17300000000E+03 0.  1.
</event>
<event>
 4    1  0.6092738E+000  0.1000000E+03  0.7546771E-02  0.1280296E+00
         21   -1    0    0  503  502  0.00000000000E+00  0.00000000000E+00  0.16534828310E+03  0.16534828310E+03  0.00000000000E+00 0.  1.
         21   -1    0    0  501  503 -0.00000000000E+00 -0.00000000000E+00 -0.25804546346E+03  0.25804546346E+03  0.00000000000E+00 0. -1.
          6    1    1    2  501    0  0.59307057245E+02  0.70804211742E+02 -0.11282913839E+03  0.22625202299E+03  0.17300000000E+03 0. -1.
         -6    1    1    2    0  502 -0.59307057245E+02 -0.70804211742E+02  0.20131958029E+02  0.19714172357E+03  0.17300000000E+03 0.  1.
</event>
<event>
 4    1  0.6092738E+000  0.1000000E+03  0.7546771E-02  0.1280296E+00
         21   -1    0    0  503  502  0.00000000000E+00  0.00000000000E+00  0.88885486183E+02  0.88885486183E+02  0.00000000000E+00 0. -1.
         21   -1    0    0  501  503 -0.00000000000E+00 -0.00000000000E+00 -0.72389857272E+03  0.72389857272E+03  0.00000000000E+00 0. -1.
          6    1    1    2  501    0  0.17787374642E+03  0.21912529350E+02 -0.39427140263E+03  0.46636698805E+03  0.17300000000E+03 0. -1.
         -6    1    1    2    0  502 -0.17787374642E+03 -0.21912529350E+02 -0.24074168391E+03  0.34641707085E+03  0.17300000000E+03 0. -1.
</event>
<event>
 4    1  0.6092738E+000  0.1000000E+03  0.7546771E-02  0.1280296E+00
         21   -1    0    0  503  502  0.00000000000E+00  0.00000000000E+00  0.66259690174E+03  0.66259690174E+03  0.00000000000E+00 0. -1.
         21   -1    0    0  501  503 -0.00000000000E+00 -0.00000000000E+00 -0.15764611427E+03  0.15764611427E+03  0.00000000000E+00 0. -1.
          6    1    1    2  501    0 -0.18833154825E+03 -0.62815298279E+02  0.14695128798E+02  0.26374131374E+03  0.17300000000E+03 0. -1.
         -6    1    1    2    0  502  0.18833154825E+03  0.62815298279E+02  0.49025565868E+03  0.55650170227E+03  0.17300000000E+03 0. -1.
</event>
<event>
 4    1  0.6092738E+000  0.1000000E+03  0.7546771E-02  0.1280296E+00
         21   -1    0    0  501  502  0.00000000000E+00  0.00000000000E+00  0.31290630791E+03  0.31290630791E+03  0.00000000000E+00 0.  1.
         21   -1    0    0  502  503 -0.00000000000E+00 -0.00000000000E+00 -0.60633084708E+03  0.60633084708E+03  0.00000000000E+00 0. -1.
          6    1    1    2  501    0 -0.10137483223E+03 -0.19607276143E+03  0.20496354150E+03  0.34736211326E+03  0.17300000000E+03 0.  1.
         -6    1    1    2    0  503  0.10137483223E+03  0.19607276143E+03 -0.49838808068E+03  0.57187504172E+03  0.17300000000E+03 0. -1.
</event>
<event>
 4    1  0.6092738E+000  0.1000000E+03  0.7546771E-02  0.1280296E+00
         21   -1    0    0  501  502  0.00000000000E+00  0.00000000000E+00  0.80384100502E+03  0.80384100502E+03  0.00000000000E+00 0.  1.
         21   -1    0    0  502  503 -0.00000000000E+00 -0.00000000000E+00 -0.48161011547E+02  0.48161011547E+02  0.00000000000E+00 0. -1.
          6    1    1    2  501    0  0.68975420226E+02 -0.63428206402E+02  0.38219715365E+03  0.42986557227E+03  0.17300000000E+03 0.  1.
         -6    1    1    2    0  503 -0.68975420226E+02  0.63428206402E+02  0.37348283982E+03  0.42213644429E+03  0.17300000000E+03 0. -1.
</event>
<event>
 4    1  0.6092738E+000  0.1000000E+03  0.7546771E-02  0.1280296E+00
         21   -1    0    0  501  502  0.00000000000E+00  0.00000000000E+00  0.24776465364E+03  0.24776465364E+03  0.00000000000E+00 0.  1.
         21   -1    0    0  502  503 -0.00000000000E+00 -0.00000000000E+00 -0.46826645600E+03  0.46826645600E+03  0.00000000000E+00 0. -1.
          6    1    1    2  501    0  0.17914863019E+03  0.83880646434E+02  0.11752244053E+03  0.28787274719E+03  0.17300000000E+03 0.  1.
         -6    1    1    2    0  503 -0.17914863019E+03 -0.83880646434E+02 -0.33802424290E+03  0.42815836245E+03  0.17300000000E+03 0. -1.
</event>
<event>
 4    1  0.6092738E+000  0.1000000E+03  0.7546771E-02  0.1280296E+00
         21   -1    0    0  503  502  0.00000000000E+00  0.00000000000E+00  0.30754321227E+03  0.30754321227E+03  0.00000000000E+00 0. -1.
         21   -1    0    0  501  503 -0.00000000000E+00 -0.00000000000E+00 -0.25908379522E+03  0.25908379522E+03  0.00000000000E+00 0.  1.
          6    1    1    2  501    0  0.48590256393E+02  0.13230207942E+03 -0.14928054117E+03  0.26847445541E+03  0.17300000000E+03 0.  1.
         -6    1    1    2    0  502 -0.48590256393E+02 -0.13230207942E+03  0.19773995821E+03  0.29815255208E+03  0.17300000000E+03 0. -1.
</event>
<event>
 4    1  0.6092738E+000  0.1000000E+03  0.7546771E-02  0.1280296E+00
         21   -1    0    0  503  502  0.00000000000E+00  0.00000000000E+00  0.18827940492E+03  0.18827940492E+03  0.00000000000E+00 0. -1.
         21   -1    0    0  501  503 -0.00000000000E+00 -0.00000000000E+00 -0.30535915183E+03  0.30535915183E+03  0.00000000000E+00 0.  1.
          6    1    1    2  501    0 -0.46987849057E+02 -0.13173181366E+03  0.33545522160E+02  0.22497873399E+03  0.17300000000E+03 0.  1.
         -6    1    1    2    0  502  0.46987849057E+02  0.13173181366E+03 -0.15062526907E+03  0.26865982277E+03  0.17300000000E+03 0. -1.
</event>
<event>
 4    1  0.6092738E+000  0.1000000E+03  0.7546771E-02  0.1280296E+00
         21   -1    0    0  503  502  0.00000000000E+00  0.00000000000E+00  0.32623454915E+03  0.32623454915E+03  0.00000000000E+00 0. -1.
         21   -1    0    0  501  503 -0.00000000000E+00 -0.00000000000E+00 -0.20528793438E+03  0.20528793438E+03  0.00000000000E+00 0.  1.
          6    1    1    2  501    0  0.51966306341E+02  0.16067054131E+02 -0.12911981902E+03  0.22261979896E+03  0.17300000000E+03 0.  1.
         -6    1    1    2    0  502 -0.51966306341E+02 -0.16067054131E+02  0.25006643379E+03  0.30890268457E+03  0.17300000000E+03 0. -1.
</event>
<event>
 4    1  0.6092738E+000  0.1000000E+03  0.7546771E-02  0.1280296E+00
         21   -1    0    0  503  502  0.00000000000E+00  0.00000000000E+00  0.55275390621E+03  0.55275390621E+03  0.00000000000E+00 0. -1.
         21   -1    0    0  501  503 -0.00000000000E+00 -0.00000000000E+00 -0.90448599310E+02  0.90448599310E+02  0.00000000000E+00 0.  1.
          6    1    1    2  501    0 -0.15198130424E+02  0.78980766099E+02  0.63432066682E+02  0.20105116678E+03  0.17300000000E+03 0.  1.
         -6    1    1    2    0  502  0.15198130424E+02 -0.78980766099E+02  0.39887324021E+03  0.44215133873E+03  0.17300000000E+03 0. -1.
</event>
<event>
 4    1  0.6092738E+000  0.1000000E+03  0.7546771E-02  0.1280296E+00
         21   -1    0    0  503  502  0.00000000000E+00  0.00000000000E+00  0.18842342758E+04  0.18842342758E+04  0.00000000000E+00 0. -1.
         21   -1    0    0  501  503 -0.00000000000E+00 -0.00000000000E+00 -0.38226603835E+02  0.38226603835E+02  0.00000000000E+00 0.  1.
          6    1    1    2  501    0  0.11205499712E+03 -0.28702898060E+02  0.31604451599E+03  0.37840892540E+03  0.17300000000E+03 0.  1.
         -6    1    1    2    0  502 -0.11205499712E+03  0.28702898060E+02  0.15299631560E+04  0.15440519543E+04  0.17300000000E+03 0. -1.
</event>
<event>
 4    1  0.6092738E+000  0.1000000E+03  0.7546771E-02  0.1280296E+00
         21   -1    0    0  503  502  0.00000000000E+00  0.00000000000E+00  0.59160265874E+03  0.59160265874E+03  0.00000000000E+00 0. -1.
         21   -1    0    0  501  503 -0.00000000000E+00 -0.00000000000E+00 -0.21296409843E+03  0.21296409843E+03  0.00000000000E+00 0.  1.
          6    1    1    2  501    0  0.63926665558E+02  0.79462696075E+02 -0.14238673299E+03  0.24617863508E+03  0.17300000000E+03 0.  1.
         -6    1    1    2    0  502 -0.63926665558E+02 -0.79462696075E+02  0.52102529330E+03  0.55838812209E+03  0.17300000000E+03 0. -1.
</event>
<event>
 4    1  0.6092738E+000  0.1000000E+03  0.7546771E-02  0.1280296E+00
         21   -1    0    0  501  502  0.00000000000E+00  0.00000000000E+00  0.48792244535E+03  0.48792244535E+03  0.00000000000E+00 0.  1.
         21   -1    0    0  502  503 -0.00000000000E+00 -0.00000000000E+00 -0.11033408589E+03  0.11033408589E+03  0.00000000000E+00 0.  1.
          6    1    1    2  501    0 -0.57178180925E+02  0.11538628217E+03  0.29911212739E+03  0.36875520774E+03  0.17300000000E+03 0.  1.
         -6    1    1    2    0  503  0.57178180925E+02 -0.11538628217E+03  0.78476232073E+02  0.22950132350E+03  0.17300000000E+03 0.  1.
</event>
<event>
 4    1  0.6092738E+000  0.1000000E+03  0.7546771E-02  0.1280296E+00
         21   -1    0    0  501  502  0.00000000000E+00  0.00000000000E+00  0.11831840458E+03  0.11831840458E+03  0.00000000000E+00 0.  1.
         21   -1    0    0  502  503 -0.00000000000E+00 -0.00000000000E+00 -0.11158873939E+04  0.11158873939E+04  0.00000000000E+00 0. -1.
          6    1    1    2  501    0  0.20104052349E+03 -0.48602596783E+02 -0.91242908904E+03  0.95143856714E+03  0.17300000000E+03 0.  1.
         -6    1    1    2    0  503 -0.20104052349E+03  0.48602596783E+02 -0.85139900258E+02  0.28276723133E+03  0.17300000000E+03 0. -1.
</event>
<event>
 4    1  0.6092738E+000  0.1000000E+03  0.7546771E-02  0.1280296E+00
         21   -1    0    0  501  502  0.00000000000E+00  0.00000000000E+00  0.24172210666E+03  0.24172210666E+03  0.00000000000E+00 0.  1.
         21   -1    0    0  502  503 -0.00000000000E+00 -0.00000000000E+00 -0.20479212655E+03  0.20479212655E+03  0.00000000000E+00 0.  1.
          6    1    1    2  501    0 -0.59396893336E+02 -0.15511221923E+02  0.14461591288E+03  0.23369071698E+03  0.17300000000E+03 0.  1.
         -6    1    1    2    0  503  0.59396893336E+02  0.15511221923E+02 -0.10768593276E+03  0.21282351623E+03  0.17300000000E+03 0.  1.
</event>
<event>
 4    1  0.6092738E+000  0.1000000E+03  0.7546771E-02  0.1280296E+00
         21   -1    0    0  501  502  0.00000000000E+00  0.00000000000E+00  0.37483914387E+03  0.37483914387E+03  0.00000000000E+00 0. -1.
         21   -1    0    0  502  503 -0.00000000000E+00 -0.00000000000E+00 -0.80951812807E+03  0.80951812807E+03  0.00000000000E+00 0.  1.
          6    1    1    2  501    0 -0.83895066441E+02 -0.71295916663E+02  0.33227767863E+03  0.39045991551E+03  0.17300000000E+03 0. -1.
         -6    1    1    2    0  503  0.83895066441E+02  0.71295916663E+02 -0.76695666283E+03  0.79389735644E+03  0.17300000000E+03 0.  1.
</event>
<event>
 4    1  0.6092738E+000  0.1000000E+03  0.7546771E-02  0.1280296E+00
         21   -1    0    0  503  502  0.00000000000E+00  0.00000000000E+00  0.90493797861E+02  0.90493797861E+02  0.00000000000E+00 0. -1.
         21   -1    0    0  501  503 -0.00000000000E+00 -0.00000000000E+00 -0.10833858133E+04  0.10833858133E+04  0.00000000000E+00 0.  1.
          6    1    1    2  501    0 -0.12887357010E+03 -0.21383637815E+03 -0.63891408764E+03  0.70744229806E+03  0.17300000000E+03 0.  1.
         -6    1    1    2    0  502  0.12887357010E+03  0.21383637815E+03 -0.35397792780E+03  0.46643731311E+03  0.17300000000E+03 0. -1.
</event>
<event>
 4    1  0.6092738E+000  0.1000000E+03  0.7546771E-02  0.1280296E+00
         21   -1    0    0  503  502  0.00000000000E+00  0.00000000000E+00  0.77834541444E+03  0.77834541444E+03  0.00000000000E+00 0. -1.
         21   -1    0    0  501  503 -0.00000000000E+00 -0.00000000000E+00 -0.21015060385E+03  0.21015060385E+03  0.00000000000E+00 0.  1.
          6    1    1    2  501    0  0.25548359667E+03 -0.18665226832E+03  0.60323705665E+02  0.36562123421E+03  0.17300000000E+03 0.  1.
         -6    1    1    2    0  502 -0.25548359667E+03  0.18665226832E+03  0.50787110492E+03  0.62287478408E+03  0.17300000000E+03 0. -1.
</event>
<event>
 4    1  0.6092738E+000  0.1000000E+03  0.7546771E-02  0.1280296E+00
         21   -1    0    0  503  502  0.00000000000E+00  0.00000000000E+00  0.17754230020E+03  0.17754230020E+03  0.00000000000E+00 0. -1.
         21   -1    0    0  501  503 -0.00000000000E+00 -0.00000000000E+00 -0.31187889707E+03  0.31187889707E+03  0.00000000000E+00 0.  1.
          6    1    1    2  501    0  0.97371691949E+02 -0.94228744553E+02 -0.15468660536E+03  0.26873267120E+03  0.17300000000E+03 0.  1.
         -6    1    1    2    0  502 -0.97371691949E+02  0.94228744553E+02  0.20350008496E+02  0.22068852607E+03  0.17300000000E+03 0. -1.
</event>
<event>
 4    1  0.6092738E+000  0.1000000E+03  0.7546771E-02  0.1280296E+00
         21   -1    0    0  503  502  0.00000000000E+00  0.00000000000E+00  0.22592214184E+03  0.22592214184E+03  0.00000000000E+00 0. -1.
         21   -1    0    0  501  503 -0.00000000000E+00 -0.00000000000E+00 -0.25189300630E+03  0.25189300630E+03  0.00000000000E+00 0.  1.
          6    1    1    2  501    0 -0.14811419774E+03  0.38270723420E+02 -0.72879853498E+02  0.24216303782E+03  0.17300000000E+03 0.  1.
         -6    1    1    2    0  502  0.14811419774E+03 -0.38270723420E+02  0.46908989044E+02  0.23565211031E+03  0.17300000000E+03 0. -1.
</event>
<event>
 4    1  0.6092738E+000  0.1000000E+03  0.7546771E-02  0.1280296E+00
         21   -1    0    0  503  502  0.00000000000E+00  0.00000000000E+00  0.12936723201E+03  0.12936723201E+03  0.00000000000E+00 0. -1.
         21   -1    0    0  501  503 -0.00000000000E+00 -0.00000000000E+00 -0.35985721878E+03  0.35985721878E+03  0.00000000000E+00 0.  1.
          6    1    1    2  501    0  0.30450256173E+02 -0.82801633054E+02 -0.22184605226E+03  0.29483554643E+03  0.17300000000E+03 0.  1.
         -6    1    1    2    0  502 -0.30450256173E+02  0.82801633054E+02 -0.86439345155E+01  0.19438890437E+03  0.17300000000E+03 0. -1.
</event>
<event>
 4    1  0.6092738E+000  0.1000000E+03  0.7546771E-02  0.1280296E+00
         21   -1    0    0  503  502  0.00000000000E+00  0.00000000000E+00  0.88641959967E+02  0.88641959967E+02  0.00000000000E+00 0. -1.
         21   -1    0    0  501  503 -0.00000000000E+00 -0.00000000000E+00 -0.55411606363E+03  0.55411606363E+03  0.00000000000E+00 0.  1.
          6    1    1    2  501    0 -0.11022200377E+02  0.13650898403E+03 -0.26290266401E+03  0.34322441983E+03  0.17300000000E+03 0.  1.
         -6    1    1    2    0  502  0.11022200377E+02 -0.13650898403E+03 -0.20257143965E+03  0.29953360377E+03  0.17300000000E+03 0. -1.
</event>
<event>
 4    1  0.6092738E+000  0.1000000E+03  0.7546771E-02  0.1280296E+00
         21   -1    0    0  503  502  0.00000000000E+00  0.00000000000E+00  0.19600389896E+03  0.19600389896E+03  0.00000000000E+00 0. -1.
         21   -1    0    0  501  503 -0.00000000000E+00 -0.00000000000E+00 -0.69731891281E+03  0.69731891281E+03  0.00000000000E+00 0. -1.
          6    1    1    2  501    0  0.19753364070E+02 -0.91084285795E+02 -0.62899555847E+03  0.65897720377E+03  0.17300000000E+03 0. -1.
         -6    1    1    2    0  502 -0.19753364070E+02  0.91084285795E+02  0.12768054463E+03  0.23434560800E+03  0.17300000000E+03 0. -1.
</event>
<event>
 4    1  0.6092738E+000  0.1000000E+03  0.7546771E-02  0.1280296E+00
         21   -1    0    0  501  502  0.00000000000E+00  0.00000000000E+00  0.12384758683E+03  0.12384758683E+03  0.00000000000E+00 0. -1.
         21   -1    0    0  502  503 -0.00000000000E+00 -0.00000000000E+00 -0.67815493434E+03  0.67815493434E+03  0.00000000000E+00 0. -1.
          6    1    1    2  501    0 -0.58033184500E+02 -0.50191064529E+02  0.26538920944E+02  0.19110287226E+03  0.17300000000E+03 0. -1.
         -6    1    1    2    0  503  0.58033184500E+02  0.50191064529E+02 -0.58084626846E+03  0.61089964891E+03  0.17300000000E+03 0. -1.
</event>
<event>
 4    1  0.6092738E+000  0.1000000E+03  0.7546771E-02  0.1280296E+00
         21   -1    0    0  501  502  0.00000000000E+00  0.00000000000E+00  0.18845214536E+03  0.18845214536E+03  0.00000000000E+00 0. -1.
         21   -1    0    0  502  503 -0.00000000000E+00 -0.00000000000E+00 -0.52719975389E+03  0.52719975389E+03  0.00000000000E+00 0.  1.
          6    1    1    2  501    0 -0.66597986305E+02 -0.55021987557E+02  0.11320536487E+03  0.22406955512E+03  0.17300000000E+03 0.  1.
         -6    1    1    2    0  503  0.66597986305E+02  0.55021987557E+02 -0.45195297340E+03  0.49158234413E+03  0.17300000000E+03 0. -1.
</event>
<event>
 4    1  0.6092738E+000  0.1000000E+03  0.7546771E-02  0.1280296E+00
         21   -1    0    0  501  502  0.00000000000E+00  0.00000000000E+00  0.75352862010E+03  0.75352862010E+03  0.00000000000E+00 0. -1.
         21   -1    0    0  502  503 -0.00000000000E+00 -0.00000000000E+00 -0.62064843403E+02  0.62064843403E+02  0.00000000000E+00 0.  1.
          6    1    1    2  501    0 -0.38592025235E+02  0.12024224479E+03  0.28944168946E+03  0.36007365002E+03  0.17300000000E+03 0.  1.
         -6    1    1    2    0  503  0.38592025235E+02 -0.12024224479E+03  0.40202208725E+03  0.45551981349E+03  0.17300000000E+03 0. -1.
</event>
<event>
 4    1  0.6092738E+000  0.1000000E+03  0.7546771E-02  0.1280296E+00
         21   -1    0    0  501  502  0.00000000000E+00  0.00000000000E+00  0.85090354403E+03  0.85090354403E+03  0.00000000000E+00 0. -1.
         21   -1    0    0  502  503 -0.00000000000E+00 -0.00000000000E+00 -0.57728176330E+02  0.57728176330E+02  0.00000000000E+00 0.  1.
          6    1    1    2  501    0  0.50294079354E+02  0.86518928059E+02  0.59295821745E+03  0.62573434217E+03  0.17300000000E+03 0.  1.
         -6    1    1    2    0  503 -0.50294079354E+02 -0.86518928059E+02  0.20021715024E+03  0.28289737818E+03  0.17300000000E+03 0. -1.
</event>
<event>
 4    1  0.6092738E+000  0.1000000E+03  0.7546771E-02  0.1280296E+00
         21   -1    0    0  501  502  0.00000000000E+00  0.00000000000E+00  0.82300817562E+03  0.82300817562E+03  0.00000000000E+00 0. -1.
         21   -1    0    0  502  503 -0.00000000000E+00 -0.00000000000E+00 -0.11186076426E+03  0.11186076426E+03  0.00000000000E+00 0.  1.
          6    1    1    2  501    0  0.22266851658E+03  0.63894753604E+02  0.21379563627E+03  0.35958501346E+03  0.17300000000E+03 0.  1.
         -6    1    1    2    0  503 -0.22266851658E+03 -0.63894753604E+02  0.49735177509E+03  0.57528392642E+03  0.17300000000E+03 0. -1.
</event>
<event>
 4    1  0.6092738E+000  0.1000000E+03  0.7546771E-02  0.1280296E+00
         21   -1    0    0  501  502  0.00000000000E+00  0.00000000000E+00  0.71886909035E+02  0.71886909035E+02  0.00000000000E+00 0. -1.
         21   -1    0    0  502  503 -0.00000000000E+00 -0.00000000000E+00 -0.70177968215E+03  0.70177968215E+03  0.00000000000E+00 0.  1.
          6    1    1    2  501    0 -0.51334729573E+02 -0.12278935195E+03 -0.22369438478E+03  0.31253904907E+03  0.17300000000E+03 0.  1.
         -6    1    1    2    0  503  0.51334729573E+02  0.12278935195E+03 -0.40619838833E+03  0.46112754211E+03  0.17300000000E+03 0. -1.
</event>
<event>
 4    1  0.6092738E+000  0.1000000E+03  0.7546771E-02  0.1280296E+00
         21   -1    0    0  501  502  0.00000000000E+00  0.00000000000E+00  0.52645858155E+03  0.52645858155E+03  0.00000000000E+00 0. -1.
         21   -1    0    0  502  503 -0.00000000000E+00 -0.00000000000E+00 -0.65262016108E+02  0.65262016108E+02  0.00000000000E+00 0.  1.
          6    1    1    2  501    0  0.25878186179E+02 -0.59482546793E+02  0.25432113096E+03  0.31435026888E+03  0.17300000000E+03 0.  1.
         -6    1    1    2    0  503 -0.25878186179E+02  0.59482546793E+02  0.20687543448E+03  0.27737032877E+03  0.17300000000E+03 0. -1.
</event>
<event>
 4    1  0.6092738E+000  0.1000000E+03  0.7546771E-02  0.1280296E+00
         21   -1    0    0  501  502  0.00000000000E+00  0.00000000000E+00  0.46332685681E+03  0.46332685681E+03  0.00000000000E+00 0. -1.
         21   -1    0    0  502  503 -0.00000000000E+00 -0.00000000000E+00 -0.11138840639E+03  0.11138840639E+03  0.00000000000E+00 0.  1.
          6    1    1    2  501    0  0.13257312175E+03 -0.18793889558E+02  0.25344314596E+03  0.33480034517E+03  0.17300000000E+03 0.  1.
         -6    1    1    2    0  503 -0.13257312175E+03  0.18793889558E+02  0.98495304455E+02  0.23991491803E+03  0.17300000000E+03 0. -1.
</event>
<event>
 4    1  0.6092738E+000  0.1000000E+03  0.7546771E-02  0.1280296E+00
         21   -1    0    0  501  502  0.00000000000E+00  0.00000000000E+00  0.57860547627E+03  0.57860547627E+03  0.00000000000E+00 0.  1.
         21   -1    0    0  502  503 -0.00000000000E+00 -0.00000000000E+00 -0.33011736672E+03  0.33011736672E+03  0.00000000000E+00 0.  1.
          6    1    1    2  501    0 -0.16647844416E+03  0.67904050342E+02  0.49728296938E+03  0.55636802933E+03  0.17300000000E+03 0.  1.
         -6    1    1    2    0  503  0.16647844416E+03 -0.67904050342E+02 -0.24879485984E+03  0.35235481365E+03  0.17300000000E+03 0.  1.
</event>
<event>
 4    1  0.6092738E+000  0.1000000E+03  0.7546771E-02  0.1280296E+00
         21   -1    0    0  501  502  0.00000000000E+00  0.00000000000E+00  0.59184561455E+03  0.59184561455E+03  0.00000000000E+00 0. -1.
         21   -1    0    0  502  503 -0.00000000000E+00 -0.00000000000E+00 -0.32046894792E+03  0.32046894792E+03  0.00000000000E+00 0. -1.
          6    1    1    2  501    0 -0.19727526006E+03  0.16533546320E+03  0.45593914309E+03  0.55141893858E+03  0.17300000000E+03 0. -1.
         -6    1    1    2    0  503  0.19727526006E+03 -0.16533546320E+03 -0.18456247646E+03  0.36089562389E+03  0.17300000000E+03 0. -1.
</event>
<event>
 4    1  0.6092738E+000  0.1000000E+03  0.7546771E-02  0.1280296E+00
         21   -1    0    0  501  502  0.00000000000E+00  0.00000000000E+00  0.82510045553E+03  0.82510045553E+03  0.00000000000E+00 0. -1.
         21   -1    0    0  502  503 -0.00000000000E+00 -0.00000000000E+00 -0.11979544383E+03  0.11979544383E+03  0.00000000000E+00 0. -1.
          6    1    1    2  501    0  0.22401074723E+03 -0.88329846055E+02  0.50976701228E+03  0.58972398916E+03  0.17300000000E+03 0. -1.
         -6    1    1    2    0  503 -0.22401074723E+03  0.88329846055E+02  0.19553799942E+03  0.35517191020E+03  0.17300000000E+03 0. -1.
</event>
<event>
 4    1  0.6092738E+000  0.1000000E+03  0.7546771E-02  0.1280296E+00
         21   -1    0    0  501  502  0.00000000000E+00  0.00000000000E+00  0.14924666023E+04  0.14924666023E+04  0.00000000000E+00 0. -1.
         21   -1    0    0  502  503 -0.00000000000E+00 -0.00000000000E+00 -0.55586902403E+02  0.55586902403E+02  0.00000000000E+00 0. -1.
          6    1    1    2  501    0  0.47919200123E+02  0.11345105768E+03  0.12413626395E+04  0.12593957262E+04  0.17300000000E+03 0. -1.
         -6    1    1    2    0  503 -0.47919200123E+02 -0.11345105768E+03  0.19551706040E+03  0.28865777858E+03  0.17300000000E+03 0. -1.
</event>
<event>
 4    1  0.6092738E+000  0.1000000E+03  0.7546771E-02  0.1280296E+00
         21   -1    0    0  501  502  0.00000000000E+00  0.00000000000E+00  0.11315926494E+03  0.11315926494E+03  0.00000000000E+00 0. -1.
         21   -1    0    0  502  503 -0.00000000000E+00 -0.00000000000E+00 -0.82440337207E+03  0.82440337207E+03  0.00000000000E+00 0. -1.
          6    1    1    2  501    0 -0.21278467448E+03  0.97647404337E+02 -0.21372411398E+03  0.36113616568E+03  0.17300000000E+03 0. -1.
         -6    1    1    2    0  503  0.21278467448E+03 -0.97647404337E+02 -0.49751999315E+03  0.57642647133E+03  0.17300000000E+03 0. -1.
</event>
<event>
 4    1  0.6092738E+000  0.1000000E+03  0.7546771E-02  0.1280296E+00
         21   -1    0    0  501  502  0.00000000000E+00  0.00000000000E+00  0.11769075220E+03  0.11769075220E+03  0.00000000000E+00 0. -1.
         21   -1    0    0  502  503 -0.00000000000E+00 -0.00000000000E+00 -0.13340430226E+04  0.13340430226E+04  0.00000000000E+00 0. -1.
          6    1    1    2  501    0  0.32400579565E+03  0.14095389908E+03 -0.52171199504E+03  0.65342188749E+03  0.17300000000E+03 0. -1.
         -6    1    1    2    0  503 -0.32400579565E+03 -0.14095389908E+03 -0.69464027538E+03  0.79831188734E+03  0.17300000000E+03 0. -1.
</event>
<event>
 4    1  0.6092738E+000  0.1000000E+03  0.7546771E-02  0.1280296E+00
         21   -1    0    0  501  502  0.00000000000E+00  0.00000000000E+00  0.48640978126E+03  0.48640978126E+03  0.00000000000E+00 0.  1.
         21   -1    0    0  502  503 -0.00000000000E+00 -0.00000000000E+00 -0.15005867436E+03  0.15005867436E+03  0.00000000000E+00 0.  1.
          6    1    1    2  501    0  0.13284801872E+02 -0.18279509094E+03  0.28280629026E+03  0.37881252493E+03  0.17300000000E+03 0.  1.
         -6    1    1    2    0  503 -0.13284801872E+02  0.18279509094E+03  0.53544816638E+02  0.25765593069E+03  0.17300000000E+03 0.  1.
</event>
<event>
 4    1  0.6092738E+000  0.1000000E+03  0.7546771E-02  0.1280296E+00
         21   -1    0    0  501  502  0.00000000000E+00  0.00000000000E+00  0.13846517346E+03  0.13846517346E+03  0.00000000000E+00 0.  1.
         21   -1    0    0  502  503 -0.00000000000E+00 -0.00000000000E+00 -0.47667008987E+03  0.47667008987E+03  0.00000000000E+00 0.  1.
          6    1    1    2  501    0 -0.14127557262E+02  0.32497718514E+02  0.54285778139E+02  0.18474749062E+03  0.17300000000E+03 0.  1.
         -6    1    1    2    0  503  0.14127557262E+02 -0.32497718514E+02 -0.39249069455E+03  0.43038777271E+03  0.17300000000E+03 0.  1.
</event>
<event>
 4    1  0.6092738E+000  0.1000000E+03  0.7546771E-02  0.1280296E+00
         21   -1    0    0  501  502  0.00000000000E+00  0.00000000000E+00  0.61129652597E+03  0.61129652597E+03  0.00000000000E+00 0.  1.
         21   -1    0    0  502  503 -0.00000000000E+00 -0.00000000000E+00 -0.87710382593E+02  0.87710382593E+02  0.00000000000E+00 0.  1.
          6    1    1    2  501    0 -0.15338684199E+03  0.63912809702E+01  0.24528062135E+03  0.33713492103E+03  0.17300000000E+03 0.  1.
         -6    1    1    2    0  503  0.15338684199E+03 -0.63912809702E+01  0.27830552203E+03  0.36187198754E+03  0.17300000000E+03 0.  1.
</event>
<event>
 4    1  0.6092738E+000  0.1000000E+03  0.7546771E-02  0.1280296E+00
         21   -1    0    0  501  502  0.00000000000E+00  0.00000000000E+00  0.52758171822E+03  0.52758171822E+03  0.00000000000E+00 0. -1.
         21   -1    0    0  502  503 -0.00000000000E+00 -0.00000000000E+00 -0.91600720131E+03  0.91600720131E+03  0.00000000000E+00 0.  1.
          6    1    1    2  501    0  0.35961964605E+03  0.20248114648E+03  0.35814922290E+03  0.57317080383E+03  0.17300000000E+03 0. -1.
         -6    1    1    2    0  503 -0.35961964605E+03 -0.20248114648E+03 -0.74657470599E+03  0.87041811569E+03  0.17300000000E+03 0.  1.
</event>
<event>
 4    1  0.6092738E+000  0.1000000E+03  0.7546771E-02  0.1280296E+00
         21   -1    0    0  501  502  0.00000000000E+00  0.00000000000E+00  0.24723690257E+03  0.24723690257E+03  0.00000000000E+00 0. -1.
         21   -1    0    0  502  503 -0.00000000000E+00 -0.00000000000E+00 -0.15521490081E+03  0.15521490081E+03  0.00000000000E+00 0.  1.
          6    1    1    2  501    0 -0.19739323177E+02 -0.89703056686E+02  0.42832934110E+02  0.20049922569E+03  0.17300000000E+03 0. -1.
         -6    1    1    2    0  503  0.19739323177E+02  0.89703056686E+02  0.49189067653E+02  0.20195257769E+03  0.17300000000E+03 0.  1.
</event>
<event>
 4    1  0.6092738E+000  0.1000000E+03  0.7546771E-02  0.1280296E+00
         21   -1    0    0  503  502  0.00000000000E+00  0.00000000000E+00  0.32967587161E+03  0.32967587161E+03  0.00000000000E+00 0. -1.
         21   -1    0    0  501  503 -0.00000000000E+00 -0.00000000000E+00 -0.11969914186E+03  0.11969914186E+03  0.00000000000E+00 0. -1.
          6    1    1    2  501    0  0.96508078743E+02 -0.92816051829E+01  0.91946108730E+02  0.21859333102E+03  0.17300000000E+03 0.  1.
         -6    1    1    2    0  502 -0.96508078743E+02  0.92816051829E+01  0.11803062102E+03  0.23078168245E+03  0.17300000000E+03 0.  1.
</event>
<event>
 4    1  0.6092738E+000  0.1000000E+03  0.7546771E-02  0.1280296E+00
         21   -1    0    0  501  502  0.00000000000E+00  0.00000000000E+00  0.75460037547E+03  0.75460037547E+03  0.00000000000E+00 0.  1.
         21   -1    0    0  502  503 -0.00000000000E+00 -0.00000000000E+00 -0.15445270135E+03  0.15445270135E+03  0.00000000000E+00 0.  1.
          6    1    1    2  501    0 -0.13672447588E+03 -0.17383445971E+03  0.55861271720E+03  0.62521129988E+03  0.17300000000E+03 0. -1.
         -6    1    1    2    0  503  0.13672447588E+03  0.17383445971E+03  0.41534956920E+02  0.28384177693E+03  0.17300000000E+03 0. -1.
</event>
<event>
 4    1  0.6092738E+000  0.1000000E+03  0.7546771E-02  0.1280296E+00
         21   -1    0    0  501  502  0.00000000000E+00  0.00000000000E+00  0.27316254445E+03  0.27316254445E+03  0.00000000000E+00 0.  1.
         21   -1    0    0  502  503 -0.00000000000E+00 -0.00000000000E+00 -0.17538745259E+03  0.17538745259E+03  0.00000000000E+00 0.  1.
          6    1    1    2  501    0  0.48866202752E+02 -0.11666662616E+03  0.32792916323E+01  0.21433329462E+03  0.17300000000E+03 0. -1.
         -6    1    1    2    0  503 -0.48866202752E+02  0.11666662616E+03  0.94495800219E+02  0.23421670242E+03  0.17300000000E+03 0. -1.
</event>
<event>
 4    1  0.6092738E+000  0.1000000E+03  0.7546771E-02  0.1280296E+00
         21   -1    0    0  501  502  0.00000000000E+00  0.00000000000E+00  0.77146824206E+02  0.77146824206E+02  0.00000000000E+00 0.  1.
         21   -1    0    0  502  503 -0.00000000000E+00 -0.00000000000E+00 -0.94675501546E+03  0.94675501546E+03  0.00000000000E+00 0.  1.
          6    1    1    2  501    0  0.35659298685E+02 -0.10989970289E+03 -0.10801208807E+03  0.23440379999E+03  0.17300000000E+03 0. -1.
         -6    1    1    2    0  503 -0.35659298685E+02  0.10989970289E+03 -0.76159610319E+03  0.78949803968E+03  0.17300000000E+03 0. -1.
</event>
<event>
 4    1  0.6092738E+000  0.1000000E+03  0.7546771E-02  0.1280296E+00
         21   -1    0    0  503  502  0.00000000000E+00  0.00000000000E+00  0.19737099178E+03  0.19737099178E+03  0.00000000000E+00 0.  1.
         21   -1    0    0  501  503 -0.00000000000E+00 -0.00000000000E+00 -0.16367449420E+03  0.16367449420E+03  0.00000000000E+00 0. -1.
          6    1    1    2  501    0  0.50494840935E+01 -0.44744835042E+02 -0.18882824050E+01  0.17877405618E+03  0.17300000000E+03 0. -1.
         -6    1    1    2    0  502 -0.50494840935E+01  0.44744835042E+02  0.35584779984E+02  0.18227142979E+03  0.17300000000E+03 0.  1.
</event>
<event>
 4    1  0.6092738E+000  0.1000000E+03  0.7546771E-02  0.1280296E+00
         21   -1    0    0  503  502  0.00000000000E+00  0.00000000000E+00  0.14113265098E+02  0.14113265098E+02  0.00000000000E+00 0.  1.
         21   -1    0    0  501  503 -0.00000000000E+00 -0.00000000000E+00 -0.30298997616E+04  0.30298997616E+04  0.00000000000E+00 0. -1.
          6    1    1    2  501    0  0.35674733291E+02 -0.51912081513E+01 -0.22983215378E+04  0.23051053179E+04  0.17300000000E+03 0. -1.
         -6    1    1    2    0  502 -0.35674733291E+02  0.51912081513E+01 -0.71746495867E+03  0.73890770882E+03  0.17300000000E+03 0.  1.
</event>
<event>
 4    1  0.6092738E+000  0.1000000E+03  0.7546771E-02  0.1280296E+00
         21   -1    0    0  503  502  0.00000000000E+00  0.00000000000E+00  0.50504920553E+02  0.50504920553E+02  0.00000000000E+00 0. -1.
         21   -1    0    0  501  503 -0.00000000000E+00 -0.00000000000E+00 -0.85446508500E+03  0.85446508500E+03  0.00000000000E+00 0. -1.
          6    1    1    2  501    0 -0.46847261895E+02  0.10076277805E+03 -0.33744294439E+03  0.39515129268E+03  0.17300000000E+03 0. -1.
         -6    1    1    2    0  502  0.46847261895E+02 -0.10076277805E+03 -0.46651722005E+03  0.50981871287E+03  0.17300000000E+03 0. -1.
</event>
<event>
 4    1  0.6092738E+000  0.1000000E+03  0.7546771E-02  0.1280296E+00
         21   -1    0    0  503  502  0.00000000000E+00  0.00000000000E+00  0.69143390784E+03  0.69143390784E+03  0.00000000000E+00 0. -1.
         21   -1    0    0  501  503 -0.00000000000E+00 -0.00000000000E+00 -0.10173459119E+03  0.10173459119E+03  0.00000000000E+00 0. -1.
          6    1    1    2  501    0 -0.16172585799E+03  0.11740812546E+02  0.11716370862E+03  0.26447955392E+03  0.17300000000E+03 0. -1.
         -6    1    1    2    0  502  0.16172585799E+03 -0.11740812546E+02  0.47253560803E+03  0.52868894511E+03  0.17300000000E+03 0. -1.
</event>
<event>
 4    1  0.6092738E+000  0.1000000E+03  0.7546771E-02  0.1280296E+00
         21   -1    0    0  503  502  0.00000000000E+00  0.00000000000E+00  0.31668574201E+03  0.31668574201E+03  0.00000000000E+00 0. -1.
         21   -1    0    0  501  503 -0.00000000000E+00 -0.00000000000E+00 -0.14908438003E+03  0.14908438003E+03  0.00000000000E+00 0. -1.
          6    1    1    2  501    0  0.50645328513E+02  0.78525478573E+02  0.18292103795E+03  0.26855224112E+03  0.17300000000E+03 0. -1.
         -6    1    1    2    0  502 -0.50645328513E+02 -0.78525478573E+02 -0.15319675961E+02  0.19721788093E+03  0.17300000000E+03 0. -1.
</event>
<event>
 4    1  0.6092738E+000  0.1000000E+03  0.7546771E-02  0.1280296E+00
         21   -1    0    0  503  502  0.00000000000E+00  0.00000000000E+00  0.17491675404E+04  0.17491675404E+04  0.00000000000E+00 0. -1.
         21   -1    0    0  501  503 -0.00000000000E+00 -0.00000000000E+00 -0.72288897102E+02  0.72288897102E+02  0.00000000000E+00 0. -1.
          6    1    1    2  501    0 -0.23444610874E+03 -0.14511756994E+03  0.47180535434E+03  0.57319576009E+03  0.17300000000E+03 0. -1.
         -6    1    1    2    0  502  0.23444610874E+03  0.14511756994E+03  0.12050732890E+04  0.12482606775E+04  0.17300000000E+03 0. -1.
</event>
<event>
 4    1  0.6092738E+000  0.1000000E+03  0.7546771E-02  0.1280296E+00
         21   -1    0    0  501  502  0.00000000000E+00  0.00000000000E+00  0.55048076038E+03  0.55048076038E+03  0.00000000000E+00 0.  1.
         21   -1    0    0  502  503 -0.00000000000E+00 -0.00000000000E+00 -0.12157104204E+03  0.12157104204E+03  0.00000000000E+00 0.  1.
          6    1    1    2  501    0  0.13639544689E+03  0.12520667171E+03  0.28211280379E+03  0.37920583149E+03  0.17300000000E+03 0.  1.
         -6    1    1    2    0  503 -0.13639544689E+03 -0.12520667171E+03  0.14679691454E+03  0.29284597093E+03  0.17300000000E+03 0.  1.
</event>
<event>
 4    1  0.6092738E+000  0.1000000E+03  0.7546771E-02  0.1280296E+00
         21   -1    0    0  501  502  0.00000000000E+00  0.00000000000E+00  0.16344660162E+02  0.16344660162E+02  0.00000000000E+00 0.  1.
         21   -1    0    0  502  503 -0.00000000000E+00 -0.00000000000E+00 -0.19385827936E+04  0.19385827936E+04  0.00000000000E+00 0.  1.
          6    1    1    2  501    0  0.28983227943E+02 -0.11936125749E+02 -0.80835017287E+03  0.82724935816E+03  0.17300000000E+03 0.  1.
         -6    1    1    2    0  503 -0.28983227943E+02  0.11936125749E+02 -0.11138879606E+04  0.11276780956E+04  0.17300000000E+03 0.  1.
</event>
<event>
 4    1  0.6092738E+000  0.1000000E+03  0.7546771E-02  0.1280296E+00
         21   -1    0    0  501  502  0.00000000000E+00  0.00000000000E+00  0.78257190355E+03  0.78257190355E+03  0.00000000000E+00 0.  1.
         21   -1    0    0  502  503 -0.00000000000E+00 -0.00000000000E+00 -0.90632754973E+02  0.90632754973E+02  0.00000000000E+00 0.  1.
          6    1    1    2  501    0 -0.14597841540E+03  0.13518331928E+03  0.40760309113E+03  0.48544155927E+03  0.17300000000E+03 0.  1.
         -6    1    1    2    0  503  0.14597841540E+03 -0.13518331928E+03  0.28433605746E+03  0.38776309925E+03  0.17300000000E+03 0.  1.
</event>
<event>
 4    1  0.6092738E+000  0.1000000E+03  0.7546771E-02  0.1280296E+00
         21   -1    0    0  501  502  0.00000000000E+00  0.00000000000E+00  0.99567213225E+02  0.99567213225E+02  0.00000000000E+00 0.  1.
         21   -1    0    0  502  503 -0.00000000000E+00 -0.00000000000E+00 -0.37329990173E+03  0.37329990173E+03  0.00000000000E+00 0.  1.
          6    1    1    2  501    0 -0.36296831921E+02 -0.58113848328E+02 -0.75001390041E+02  0.20062125481E+03  0.17300000000E+03 0. -1.
         -6    1    1    2    0  503  0.36296831921E+02  0.58113848328E+02 -0.19873129846E+03  0.27224586014E+03  0.17300000000E+03 0. -1.
</event>
<event>
 4    1  0.6092738E+000  0.1000000E+03  0.7546771E-02  0.1280296E+00
         21   -1    0    0  501  502  0.00000000000E+00  0.00000000000E+00  0.92508256949E+03  0.92508256949E+03  0.00000000000E+00 0. -1.
         21   -1    0    0  502  503 -0.00000000000E+00 -0.00000000000E+00 -0.11562268350E+03  0.11562268350E+03  0.00000000000E+00 0. -1.
          6    1    1    2  501    0  0.20774454141E+03  0.59157252944E+02  0.68202241250E+03  0.73603053348E+03  0.17300000000E+03 0. -1.
         -6    1    1    2    0  503 -0.20774454141E+03 -0.59157252944E+02  0.12743747349E+03  0.30467471952E+03  0.17300000000E+03 0. -1.
</event>
<event>
 4    1  0.6092738E+000  0.1000000E+03  0.7546771E-02  0.1280296E+00
         21   -1    0    0  501  502  0.00000000000E+00  0.00000000000E+00  0.62929926973E+03  0.62929926973E+03  0.00000000000E+00 0. -1.
         21   -1    0    0  502  503 -0.00000000000E+00 -0.00000000000E+00 -0.21399083993E+03  0.21399083993E+03  0.00000000000E+00 0. -1.
          6    1    1    2  501    0 -0.95066418710E+01 -0.72996154347E+02  0.56975663808E+03  0.59997536735E+03  0.17300000000E+03 0. -1.
         -6    1    1    2    0  503  0.95066418710E+01  0.72996154347E+02 -0.15444820827E+03  0.24331474231E+03  0.17300000000E+03 0. -1.
</event>
<event>
 4    1  0.6092738E+000  0.1000000E+03  0.7546771E-02  0.1280296E+00
         21   -1    0    0  503  502  0.00000000000E+00  0.00000000000E+00  0.38554536977E+03  0.38554536977E+03  0.00000000000E+00 0.  1.
         21   -1    0    0  501  503 -0.00000000000E+00 -0.00000000000E+00 -0.14530925220E+03  0.14530925220E+03  0.00000000000E+00 0.  1.
          6    1    1    2  501    0 -0.14349659486E+02 -0.70519566326E+02 -0.42060779112E+02  0.19203393216E+03  0.17300000000E+03 0. -1.
         -6    1    1    2    0  502  0.14349659486E+02  0.70519566326E+02  0.28229689668E+03  0.33882068980E+03  0.17300000000E+03 0. -1.
</event>
<event>
 4    1  0.6092738E+000  0.1000000E+03  0.7546771E-02  0.1280296E+00
         21   -1    0    0  503  502  0.00000000000E+00  0.00000000000E+00  0.32555430146E+03  0.32555430146E+03  0.00000000000E+00 0.  1.
         21   -1    0    0  501  503 -0.00000000000E+00 -0.00000000000E+00 -0.13934713305E+03  0.13934713305E+03  0.00000000000E+00 0.  1.
          6    1    1    2  501    0 -0.11414580330E+03 -0.23876483135E+02  0.46331128087E+02  0.21371692560E+03  0.17300000000E+03 0.  1.
         -6    1    1    2    0  502  0.11414580330E+03  0.23876483135E+02  0.13987604033E+03  0.25118450891E+03  0.17300000000E+03 0.  1.
</event>
<event>
 4    1  0.6092738E+000  0.1000000E+03  0.7546771E-02  0.1280296E+00
         21   -1    0    0  503  502  0.00000000000E+00  0.00000000000E+00  0.31158613968E+03  0.31158613968E+03  0.00000000000E+00 0.  1.
         21   -1    0    0  501  503 -0.00000000000E+00 -0.00000000000E+00 -0.22546529882E+03  0.22546529882E+03  0.00000000000E+00 0.  1.
          6    1    1    2  501    0 -0.27166295838E+02 -0.18423418493E+03 -0.33041804428E+02  0.25632206960E+03  0.17300000000E+03 0.  1.
         -6    1    1    2    0  502  0.27166295838E+02  0.18423418493E+03  0.11916264529E+03  0.28072936889E+03  0.17300000000E+03 0.  1.
</event>
<event>
 4    1  0.6092738E+000  0.1000000E+03  0.7546771E-02  0.1280296E+00
         21   -1    0    0  503  502  0.00000000000E+00  0.00000000000E+00  0.83321237859E+02  0.83321237859E+02  0.00000000000E+00 0.  1.
         21   -1    0    0  501  503 -0.00000000000E+00 -0.00000000000E+00 -0.64839359821E+03  0.64839359821E+03  0.00000000000E+00 0.  1.
          6    1    1    2  501    0  0.55226157312E+02 -0.12706085915E+03 -0.39273631200E+03  0.45096030994E+03  0.17300000000E+03 0.  1.
         -6    1    1    2    0  502 -0.55226157312E+02  0.12706085915E+03 -0.17233604835E+03  0.28075452613E+03  0.17300000000E+03 0.  1.
</event>
<event>
 4    1  0.6092738E+000  0.1000000E+03  0.7546771E-02  0.1280296E+00
         21   -1    0    0  501  502  0.00000000000E+00  0.00000000000E+00  0.19833111849E+03  0.19833111849E+03  0.00000000000E+00 0. -1.
         21   -1    0    0  502  503 -0.00000000000E+00 -0.00000000000E+00 -0.51503720463E+03  0.51503720463E+03  0.00000000000E+00 0.  1.
          6    1    1    2  501    0 -0.18536392822E+01  0.93543699400E+02  0.12279585792E+03  0.23186565593E+03  0.17300000000E+03 0.  1.
         -6    1    1    2    0  503  0.18536392822E+01 -0.93543699400E+02 -0.43950194407E+03  0.48150266719E+03  0.17300000000E+03 0. -1.
</event>
<event>
 4    1  0.6092738E+000  0.1000000E+03  0.7546771E-02  0.1280296E+00
         21   -1    0    0  501  502  0.00000000000E+00  0.00000000000E+00  0.80050644236E+02  0.80050644236E+02  0.00000000000E+00 0.  1.
         21   -1    0    0  502  503 -0.00000000000E+00 -0.00000000000E+00 -0.10802830874E+04  0.10802830874E+04  0.00000000000E+00 0. -1.
          6    1    1    2  501    0 -0.13266732146E+03  0.70259660600E+02 -0.13627369801E+03  0.26652684454E+03  0.17300000000E+03 0.  1.
         -6    1    1    2    0  503  0.13266732146E+03 -0.70259660600E+02 -0.86395874518E+03  0.89380688712E+03  0.17300000000E+03 0. -1.
</event>
<event>
 4    1  0.6092738E+000  0.1000000E+03  0.7546771E-02  0.1280296E+00
         21   -1    0    0  501  502  0.00000000000E+00  0.00000000000E+00  0.69756812726E+03  0.69756812726E+03  0.00000000000E+00 0.  1.
         21   -1    0    0  502  503 -0.00000000000E+00 -0.00000000000E+00 -0.20996838409E+03  0.20996838409E+03  0.00000000000E+00 0. -1.
          6    1    1    2  501    0 -0.21231998532E+03 -0.49210060994E+02  0.55533305637E+03  0.62114829933E+03  0.17300000000E+03 0.  1.
         -6    1    1    2    0  503  0.21231998532E+03  0.49210060994E+02 -0.67733313191E+02  0.28638821202E+03  0.17300000000E+03 0. -1.
</event>
<event>
 4    1  0.6092738E+000  0.1000000E+03  0.7546771E-02  0.1280296E+00
         21   -1    0    0  501  502  0.00000000000E+00  0.00000000000E+00  0.10263795080E+03  0.10263795080E+03  0.00000000000E+00 0.  1.
         21   -1    0    0  502  503 -0.00000000000E+00 -0.00000000000E+00 -0.62045427152E+03  0.62045427152E+03  0.00000000000E+00 0. -1.
          6    1    1    2  501    0 -0.13701629118E+03  0.22156903711E+01 -0.83586704518E+02  0.23599599680E+03  0.17300000000E+03 0.  1.
         -6    1    1    2    0  503  0.13701629118E+03 -0.22156903711E+01 -0.43422961621E+03  0.48709622553E+03  0.17300000000E+03 0. -1.
</event>
<event>
 4    1  0.6092738E+000  0.1000000E+03  0.7546771E-02  0.1280296E+00
         21   -1    0    0  501  502  0.00000000000E+00  0.00000000000E+00  0.19943686023E+04  0.19943686023E+04  0.00000000000E+00 0.  1.
         21   -1    0    0  502  503 -0.00000000000E+00 -0.00000000000E+00 -0.64536813277E+02  0.64536813277E+02  0.00000000000E+00 0.  1.
          6    1    1    2  501    0  0.12635189701E+03 -0.10304127890E+03  0.17359350699E+04  0.17521363742E+04  0.17300000000E+03 0.  1.
         -6    1    1    2    0  503 -0.12635189701E+03  0.10304127890E+03  0.19389671913E+03  0.30676904135E+03  0.17300000000E+03 0.  1.
</event>
<event>
 4    1  0.6092738E+000  0.1000000E+03  0.7546771E-02  0.1280296E+00
         21   -1    0    0  501  502  0.00000000000E+00  0.00000000000E+00  0.14719698178E+03  0.14719698178E+03  0.00000000000E+00 0.  1.
         21   -1    0    0  502  503 -0.00000000000E+00 -0.00000000000E+00 -0.37365885273E+03  0.37365885273E+03  0.00000000000E+00 0.  1.
          6    1    1    2  501    0 -0.13193688195E+03  0.63354340637E+02 -0.46130288756E+02  0.23125336070E+03  0.17300000000E+03 0.  1.
         -6    1    1    2    0  503  0.13193688195E+03 -0.63354340637E+02 -0.18033158220E+03  0.28960247380E+03  0.17300000000E+03 0.  1.
</event>
<event>
 4    1  0.6092738E+000  0.1000000E+03  0.7546771E-02  0.1280296E+00
         21   -1    0    0  501  502  0.00000000000E+00  0.00000000000E+00  0.91011089133E+02  0.91011089133E+02  0.00000000000E+00 0. -1.
         21   -1    0    0  502  503 -0.00000000000E+00 -0.00000000000E+00 -0.45532305807E+03  0.45532305807E+03  0.00000000000E+00 0.  1.
          6    1    1    2  501    0 -0.33515756642E+02 -0.27411505546E+02 -0.31387975484E+03  0.36100442806E+03  0.17300000000E+03 0. -1.
         -6    1    1    2    0  503  0.33515756642E+02  0.27411505546E+02 -0.50432214099E+02  0.18532971915E+03  0.17300000000E+03 0.  1.
</event>
<event>
 4    1  0.6092738E+000  0.1000000E+03  0.7546771E-02  0.1280296E+00
         21   -1    0    0  501  502  0.00000000000E+00  0.00000000000E+00  0.40551866409E+03  0.40551866409E+03  0.00000000000E+00 0. -1.
         21   -1    0    0  502  503 -0.00000000000E+00 -0.00000000000E+00 -0.80149207508E+03  0.80149207508E+03  0.00000000000E+00 0. -1.
          6    1    1    2  501    0  0.14641931041E+02 -0.82981011148E+02  0.37010098161E+03  0.41713783207E+03  0.17300000000E+03 0. -1.
         -6    1    1    2    0  503 -0.14641931041E+02  0.82981011148E+02 -0.76607439261E+03  0.78987290710E+03  0.17300000000E+03 0. -1.
</event>
<event>
 4    1  0.6092738E+000  0.1000000E+03  0.7546771E-02  0.1280296E+00
         21   -1    0    0  501  502  0.00000000000E+00  0.00000000000E+00  0.24368928529E+03  0.24368928529E+03  0.00000000000E+00 0. -1.
         21   -1    0    0  502  503 -0.00000000000E+00 -0.00000000000E+00 -0.22249797236E+03  0.22249797236E+03  0.00000000000E+00 0. -1.
          6    1    1    2  501    0  0.29884976236E+02 -0.46391672010E+02  0.15650680973E+03  0.23972626166E+03  0.17300000000E+03 0. -1.
         -6    1    1    2    0  503 -0.29884976236E+02  0.46391672010E+02 -0.13531549680E+03  0.22646099600E+03  0.17300000000E+03 0. -1.
</event>
<event>
 4    1  0.6092738E+000  0.1000000E+03  0.7546771E-02  0.1280296E+00
         21   -1    0    0  503  502  0.00000000000E+00  0.00000000000E+00  0.15980866491E+04  0.15980866491E+04  0.00000000000E+00 0.  1.
         21   -1    0    0  501  503 -0.00000000000E+00 -0.00000000000E+00 -0.32089428264E+02  0.32089428264E+02  0.00000000000E+00 0. -1.
          6    1    1    2  501    0  0.61788395480E+02 -0.22833875184E+02  0.31351531941E+03  0.36408796626E+03  0.17300000000E+03 0. -1.
         -6    1    1    2    0  502 -0.61788395480E+02  0.22833875184E+02  0.12524819014E+04  0.12660881111E+04  0.17300000000E+03 0. -1.
</event>
<event>
 4    1  0.6092738E+000  0.1000000E+03  0.7546771E-02  0.1280296E+00
         21   -1    0    0  503  502  0.00000000000E+00  0.00000000000E+00  0.47006049186E+03  0.47006049186E+03  0.00000000000E+00 0.  1.
         21   -1    0    0  501  503 -0.00000000000E+00 -0.00000000000E+00 -0.82690865994E+02  0.82690865994E+02  0.00000000000E+00 0. -1.
          6    1    1    2  501    0  0.89246516026E+02 -0.30302188647E+02  0.20431892673E+03  0.28382809424E+03  0.17300000000E+03 0. -1.
         -6    1    1    2    0  502 -0.89246516026E+02  0.30302188647E+02  0.18305069914E+03  0.26892326362E+03  0.17300000000E+03 0. -1.
</event>
<event>
 4    1  0.6092738E+000  0.1000000E+03  0.7546771E-02  0.1280296E+00
         21   -1    0    0  503  502  0.00000000000E+00  0.00000000000E+00  0.10507415553E+03  0.10507415553E+03  0.00000000000E+00 0.  1.
         21   -1    0    0  501  503 -0.00000000000E+00 -0.00000000000E+00 -0.68433316557E+03  0.68433316557E+03  0.00000000000E+00 0. -1.
          6    1    1    2  501    0  0.17279544298E+03 -0.64124337992E+02 -0.15792165146E+03  0.29805778608E+03  0.17300000000E+03 0. -1.
         -6    1    1    2    0  502 -0.17279544298E+03  0.64124337992E+02 -0.42133735857E+03  0.49134953502E+03  0.17300000000E+03 0.  1.
</event>
<event>
 4    1  0.6092738E+000  0.1000000E+03  0.7546771E-02  0.1280296E+00
         21   -1    0    0  503  502  0.00000000000E+00  0.00000000000E+00  0.19354129898E+03  0.19354129898E+03  0.00000000000E+00 0.  1.
         21   -1    0    0  501  503 -0.00000000000E+00 -0.00000000000E+00 -0.26148765523E+03  0.26148765523E+03  0.00000000000E+00 0. -1.
          6    1    1    2  501    0  0.13554741330E+02 -0.42256754133E+02 -0.17230973010E+03  0.24817132664E+03  0.17300000000E+03 0. -1.
         -6    1    1    2    0  502 -0.13554741330E+02  0.42256754133E+02  0.10436337384E+03  0.20685762756E+03  0.17300000000E+03 0.  1.
</event>
<event>
 4    1  0.6092738E+000  0.1000000E+03  0.7546771E-02  0.1280296E+00
         21   -1    0    0  501  502  0.00000000000E+00  0.00000000000E+00  0.51072095720E+03  0.51072095720E+03  0.00000000000E+00 0.  1.
         21   -1    0    0  502  503 -0.00000000000E+00 -0.00000000000E+00 -0.14033791856E+03  0.14033791856E+03  0.00000000000E+00 0.  1.
          6    1    1    2  501    0 -0.19437209108E+03 -0.57838150917E+02  0.15494536698E+03  0.30832260417E+03  0.17300000000E+03 0.  1.
         -6    1    1    2    0  503  0.19437209108E+03  0.57838150917E+02  0.21543767166E+03  0.34273627159E+03  0.17300000000E+03 0.  1.
</event>
<event>
 4    1  0.6092738E+000  0.1000000E+03  0.7546771E-02  0.1280296E+00
         21   -1    0    0  501  502  0.00000000000E+00  0.00000000000E+00  0.62644414083E+03  0.62644414083E+03  0.00000000000E+00 0.  1.
         21   -1    0    0  502  503 -0.00000000000E+00 -0.00000000000E+00 -0.66696412826E+02  0.66696412826E+02  0.00000000000E+00 0.  1.
          6    1    1    2  501    0  0.53567676678E+02  0.70176170506E+02  0.38788675297E+03  0.43379640849E+03  0.17300000000E+03 0.  1.
         -6    1    1    2    0  503 -0.53567676678E+02 -0.70176170506E+02  0.17186097504E+03  0.25934414517E+03  0.17300000000E+03 0.  1.
</event>
<event>
 4    1  0.6092738E+000  0.1000000E+03  0.7546771E-02  0.1280296E+00
         21   -1    0    0  501  502  0.00000000000E+00  0.00000000000E+00  0.96857726362E+02  0.96857726362E+02  0.00000000000E+00 0.  1.
         21   -1    0    0  502  503 -0.00000000000E+00 -0.00000000000E+00 -0.67762067748E+03  0.67762067748E+03  0.00000000000E+00 0.  1.
          6    1    1    2  501    0 -0.17599556600E+02  0.17156489219E+03 -0.17369372129E+03  0.29973782784E+03  0.17300000000E+03 0.  1.
         -6    1    1    2    0  503  0.17599556600E+02 -0.17156489219E+03 -0.40706922983E+03  0.47474057600E+03  0.17300000000E+03 0.  1.
</event>
<event>
 4    1  0.6092738E+000  0.1000000E+03  0.7546771E-02  0.1280296E+00
         21   -1    0    0  503  502  0.00000000000E+00  0.00000000000E+00  0.80865874407E+02  0.80865874407E+02  0.00000000000E+00 0. -1.
         21   -1    0    0  501  503 -0.00000000000E+00 -0.00000000000E+00 -0.74389165554E+03  0.74389165554E+03  0.00000000000E+00 0. -1.
          6    1    1    2  501    0  0.15587865272E+03  0.40647016938E+02 -0.44145991648E+03  0.50076560607E+03  0.17300000000E+03 0. -1.
         -6    1    1    2    0  502 -0.15587865272E+03 -0.40647016938E+02 -0.22156586466E+03  0.32399192388E+03  0.17300000000E+03 0. -1.
</event>
<event>
 4    1  0.6092738E+000  0.1000000E+03  0.7546771E-02  0.1280296E+00
         21   -1    0    0  503  502  0.00000000000E+00  0.00000000000E+00  0.27600528713E+03  0.27600528713E+03  0.00000000000E+00 0. -1.
         21   -1    0    0  501  503 -0.00000000000E+00 -0.00000000000E+00 -0.20390412562E+03  0.20390412562E+03  0.00000000000E+00 0. -1.
          6    1    1    2  501    0 -0.58196798253E+02  0.14483950130E+03  0.81107112612E+02  0.24672395948E+03  0.17300000000E+03 0. -1.
         -6    1    1    2    0  502  0.58196798253E+02 -0.14483950130E+03 -0.90059510978E+01  0.23318545327E+03  0.17300000000E+03 0. -1.
</event>
<event>
 4    1  0.6092738E+000  0.1000000E+03  0.7546771E-02  0.1280296E+00
         21   -1    0    0  503  502  0.00000000000E+00  0.00000000000E+00  0.50161917145E+03  0.50161917145E+03  0.00000000000E+00 0. -1.
         21   -1    0    0  501  503 -0.00000000000E+00 -0.00000000000E+00 -0.69285599137E+02  0.69285599137E+02  0.00000000000E+00 0. -1.
          6    1    1    2  501    0  0.14299864085E+02  0.67255465007E+02  0.20099336879E+03  0.27396189148E+03  0.17300000000E+03 0. -1.
         -6    1    1    2    0  502 -0.14299864085E+02 -0.67255465007E+02  0.23134020352E+03  0.29694287910E+03  0.17300000000E+03 0. -1.
</event>
<event>
 4    1  0.6092738E+000  0.1000000E+03  0.7546771E-02  0.1280296E+00
         21   -1    0    0  501  502  0.00000000000E+00  0.00000000000E+00  0.23127637295E+03  0.23127637295E+03  0.00000000000E+00 0.  1.
         21   -1    0    0  502  503 -0.00000000000E+00 -0.00000000000E+00 -0.90553242821E+03  0.90553242821E+03  0.00000000000E+00 0.  1.
          6    1    1    2  501    0  0.10254643128E+03  0.10509533299E+03  0.15648173197E+03  0.27563804532E+03  0.17300000000E+03 0.  1.
         -6    1    1    2    0  503 -0.10254643128E+03 -0.10509533299E+03 -0.83073778723E+03  0.86117075584E+03  0.17300000000E+03 0.  1.
</event>
<event>
 4    1  0.6092738E+000  0.1000000E+03  0.7546771E-02  0.1280296E+00
         21   -1    0    0  501  502  0.00000000000E+00  0.00000000000E+00  0.17969245769E+04  0.17969245769E+04  0.00000000000E+00 0. -1.
         21   -1    0    0  502  503 -0.00000000000E+00 -0.00000000000E+00 -0.23694905208E+02  0.23694905208E+02  0.00000000000E+00 0. -1.
          6    1    1    2  501    0  0.11208713093E+02 -0.78669330604E+02  0.12377315729E+04  0.12522870859E+04  0.17300000000E+03 0. -1.
         -6    1    1    2    0  503 -0.11208713093E+02  0.78669330604E+02  0.53549809876E+03  0.56833239623E+03  0.17300000000E+03 0. -1.
</event>
<event>
 4    1  0.6092738E+000  0.1000000E+03  0.7546771E-02  0.1280296E+00
         21   -1    0    0  503  502  0.00000000000E+00  0.00000000000E+00  0.14471250510E+03  0.14471250510E+03  0.00000000000E+00 0.  1.
         21   -1    0    0  501  503 -0.00000000000E+00 -0.00000000000E+00 -0.55932856039E+03  0.55932856039E+03  0.00000000000E+00 0. -1.
          6    1    1    2  501    0 -0.15236529106E+03  0.16594817364E+03 -0.18740069777E+03  0.34029692884E+03  0.17300000000E+03 0. -1.
         -6    1    1    2    0  502  0.15236529106E+03 -0.16594817364E+03 -0.22721535753E+03  0.36374413665E+03  0.17300000000E+03 0.  1.
</event>
<event>
 4    1  0.6092738E+000  0.1000000E+03  0.7546771E-02  0.1280296E+00
         21   -1    0    0  503  502  0.00000000000E+00  0.00000000000E+00  0.76292501914E+02  0.76292501914E+02  0.00000000000E+00 0. -1.
         21   -1    0    0  501  503 -0.00000000000E+00 -0.00000000000E+00 -0.44770901627E+03  0.44770901627E+03  0.00000000000E+00 0. -1.
          6    1    1    2  501    0  0.16299080893E+02 -0.57006569542E+02 -0.22354688695E+03  0.28882108593E+03  0.17300000000E+03 0. -1.
         -6    1    1    2    0  502 -0.16299080893E+02  0.57006569542E+02 -0.14786962740E+03  0.23518043226E+03  0.17300000000E+03 0. -1.
</event>
<event>
 4    1  0.6092738E+000  0.1000000E+03  0.7546771E-02  0.1280296E+00
         21   -1    0    0  501  502  0.00000000000E+00  0.00000000000E+00  0.24317650541E+04  0.24317650541E+04  0.00000000000E+00 0.  1.
         21   -1    0    0  502  503 -0.00000000000E+00 -0.00000000000E+00 -0.40254024923E+02  0.40254024923E+02  0.00000000000E+00 0.  1.
          6    1    1    2  501    0 -0.97629108628E+02 -0.13332864531E+03  0.19922704130E+04  0.20065837558E+04  0.17300000000E+03 0.  1.
         -6    1    1    2    0  503  0.97629108628E+02  0.13332864531E+03  0.39924061625E+03  0.46543532330E+03  0.17300000000E+03 0.  1.
</event>
<event>
 4    1  0.6092738E+000  0.1000000E+03  0.7546771E-02  0.1280296E+00
         21   -1    0    0  501  502  0.00000000000E+00  0.00000000000E+00  0.12992329697E+03  0.12992329697E+03  0.00000000000E+00 0.  1.
         21   -1    0    0  502  503 -0.00000000000E+00 -0.00000000000E+00 -0.91176863279E+03  0.91176863279E+03  0.00000000000E+00 0.  1.
          6    1    1    2  501    0  0.48501326570E+01 -0.43684644888E+02  0.54405525025E+02  0.18660341138E+03  0.17300000000E+03 0.  1.
         -6    1    1    2    0  503 -0.48501326570E+01  0.43684644888E+02 -0.83625086085E+03  0.85508851838E+03  0.17300000000E+03 0.  1.
</event>
<event>
 4    1  0.6092738E+000  0.1000000E+03  0.7546771E-02  0.1280296E+00
         21   -1    0    0  503  502  0.00000000000E+00  0.00000000000E+00  0.68445484470E+03  0.68445484470E+03  0.00000000000E+00 0.  1.
         21   -1    0    0  501  503 -0.00000000000E+00 -0.00000000000E+00 -0.10490126486E+03  0.10490126486E+03  0.00000000000E+00 0.  1.
          6    1    1    2  501    0  0.12987739637E+03 -0.14465937269E+03  0.19573195423E+03  0.32562934466E+03  0.17300000000E+03 0.  1.
         -6    1    1    2    0  502 -0.12987739637E+03  0.14465937269E+03  0.38382162562E+03  0.46372676490E+03  0.17300000000E+03 0.  1.
</event>
<event>
 4    1  0.6092738E+000  0.1000000E+03  0.7546771E-02  0.1280296E+00
         21   -1    0    0  503  502  0.00000000000E+00  0.00000000000E+00  0.16964366382E+03  0.16964366382E+03  0.00000000000E+00 0.  1.
         21   -1    0    0  501  503 -0.00000000000E+00 -0.00000000000E+00 -0.22360816345E+03  0.22360816345E+03  0.00000000000E+00 0.  1.
          6    1    1    2  501    0  0.77346808707E+02  0.34961629755E+02  0.15697221167E+01  0.19270783170E+03  0.17300000000E+03 0.  1.
         -6    1    1    2    0  502 -0.77346808707E+02 -0.34961629755E+02 -0.55534221746E+02  0.20054399557E+03  0.17300000000E+03 0.  1.
</event>
<event>
 4    1  0.6092738E+000  0.1000000E+03  0.7546771E-02  0.1280296E+00
         21   -1    0    0  503  502  0.00000000000E+00  0.00000000000E+00  0.60957716686E+02  0.60957716686E+02  0.00000000000E+00 0.  1.
         21   -1    0    0  501  503 -0.00000000000E+00 -0.00000000000E+00 -0.13940179154E+04  0.13940179154E+04  0.00000000000E+00 0. -1.
          6    1    1    2  501    0  0.15398002203E+03  0.11070131492E+03 -0.10112727954E+04  0.10433438048E+04  0.17300000000E+03 0.  1.
         -6    1    1    2    0  502 -0.15398002203E+03 -0.11070131492E+03 -0.32178740336E+03  0.41163182733E+03  0.17300000000E+03 0. -1.
</event>
<event>
 4    1  0.6092738E+000  0.1000000E+03  0.7546771E-02  0.1280296E+00
         21   -1    0    0  501  502  0.00000000000E+00  0.00000000000E+00  0.64316813621E+03  0.64316813621E+03  0.00000000000E+00 0.  1.
         21   -1    0    0  502  503 -0.00000000000E+00 -0.00000000000E+00 -0.71694827206E+02  0.71694827206E+02  0.00000000000E+00 0.  1.
          6    1    1    2  501    0 -0.28444860124E+02 -0.15113539013E+02  0.49058174494E+03  0.52118804438E+03  0.17300000000E+03 0.  1.
         -6    1    1    2    0  503  0.28444860124E+02  0.15113539013E+02  0.80891564062E+02  0.19367491904E+03  0.17300000000E+03 0.  1.
</event>
<event>
 4    1  0.6092738E+000  0.1000000E+03  0.7546771E-02  0.1280296E+00
         21   -1    0    0  501  502  0.00000000000E+00  0.00000000000E+00  0.30443957862E+03  0.30443957862E+03  0.00000000000E+00 0.  1.
         21   -1    0    0  502  503 -0.00000000000E+00 -0.00000000000E+00 -0.38368041235E+03  0.38368041235E+03  0.00000000000E+00 0.  1.
          6    1    1    2  501    0 -0.12249591151E+02  0.42061973464E+02  0.25380931786E+03  0.31026993398E+03  0.17300000000E+03 0.  1.
         -6    1    1    2    0  503  0.12249591151E+02 -0.42061973464E+02 -0.33305015160E+03  0.37785005700E+03  0.17300000000E+03 0.  1.
</event>
<event>
 4    1  0.6092738E+000  0.1000000E+03  0.7546771E-02  0.1280296E+00
         21   -1    0    0  501  502  0.00000000000E+00  0.00000000000E+00  0.11231194752E+04  0.11231194752E+04  0.00000000000E+00 0.  1.
         21   -1    0    0  502  503 -0.00000000000E+00 -0.00000000000E+00 -0.30978367384E+02  0.30978367384E+02  0.00000000000E+00 0. -1.
          6    1    1    2  501    0 -0.53387632567E+02  0.75108929307E+01  0.68291860164E+03  0.70655040110E+03  0.17300000000E+03 0.  1.
         -6    1    1    2    0  503  0.53387632567E+02 -0.75108929307E+01  0.40922250620E+03  0.44754744151E+03  0.17300000000E+03 0. -1.
</event>
<event>
 4    1  0.6092738E+000  0.1000000E+03  0.7546771E-02  0.1280296E+00
         21   -1    0    0  501  502  0.00000000000E+00  0.00000000000E+00  0.55176941827E+02  0.55176941827E+02  0.00000000000E+00 0.  1.
         21   -1    0    0  502  503 -0.00000000000E+00 -0.00000000000E+00 -0.62835204809E+03  0.62835204809E+03  0.00000000000E+00 0. -1.
          6    1    1    2  501    0 -0.72221730535E+01 -0.59194493633E+02 -0.22339317553E+03  0.28877267657E+03  0.17300000000E+03 0.  1.
         -6    1    1    2    0  503  0.72221730535E+01  0.59194493633E+02 -0.34978193073E+03  0.39475631335E+03  0.17300000000E+03 0. -1.
</event>
<event>
 4    1  0.6092738E+000  0.1000000E+03  0.7546771E-02  0.1280296E+00
         21   -1    0    0  501  502  0.00000000000E+00  0.00000000000E+00  0.21855787199E+03  0.21855787199E+03  0.00000000000E+00 0. -1.
         21   -1    0    0  502  503 -0.00000000000E+00 -0.00000000000E+00 -0.23350304586E+03  0.23350304586E+03  0.00000000000E+00 0.  1.
          6    1    1    2  501    0 -0.14120389743E+03 -0.30044356685E+02  0.87759005947E+01  0.22549328249E+03  0.17300000000E+03 0.  1.
         -6    1    1    2    0  503  0.14120389743E+03  0.30044356685E+02 -0.23721074463E+02  0.22656763536E+03  0.17300000000E+03 0. -1.
</event>
<event>
 4    1  0.6092738E+000  0.1000000E+03  0.7546771E-02  0.1280296E+00
         21   -1    0    0  501  502  0.00000000000E+00  0.00000000000E+00  0.11969598323E+03  0.11969598323E+03  0.00000000000E+00 0. -1.
         21   -1    0    0  502  503 -0.00000000000E+00 -0.00000000000E+00 -0.13456663880E+04  0.13456663880E+04  0.00000000000E+00 0.  1.
          6    1    1    2  501    0  0.86103420344E+02  0.96470761658E+02  0.45479546876E+01  0.21603261499E+03  0.17300000000E+03 0. -1.
         -6    1    1    2    0  503 -0.86103420344E+02 -0.96470761658E+02 -0.12305183594E+04  0.12493297562E+04  0.17300000000E+03 0.  1.
</event>
<event>
 4    1  0.6092738E+000  0.1000000E+03  0.7546771E-02  0.1280296E+00
         21   -1    0    0  501  502  0.00000000000E+00  0.00000000000E+00  0.58626855921E+03  0.58626855921E+03  0.00000000000E+00 0.  1.
         21   -1    0    0  502  503 -0.00000000000E+00 -0.00000000000E+00 -0.76483548618E+02  0.76483548618E+02  0.00000000000E+00 0. -1.
          6    1    1    2  501    0 -0.73409097948E+02 -0.39922815951E+02  0.39423236309E+03  0.43855545032E+03  0.17300000000E+03 0.  1.
         -6    1    1    2    0  503  0.73409097948E+02  0.39922815951E+02  0.11555264750E+03  0.22419665751E+03  0.17300000000E+03 0. -1.
</event>
<event>
 4    1  0.6092738E+000  0.1000000E+03  0.7546771E-02  0.1280296E+00
         21   -1    0    0  501  502  0.00000000000E+00  0.00000000000E+00  0.13992140518E+03  0.13992140518E+03  0.00000000000E+00 0.  1.
         21   -1    0    0  502  503 -0.00000000000E+00 -0.00000000000E+00 -0.35303456688E+03  0.35303456688E+03  0.00000000000E+00 0. -1.
          6    1    1    2  501    0  0.79930698783E+02  0.79223764556E+02 -0.15088329928E+02  0.20693472202E+03  0.17300000000E+03 0.  1.
         -6    1    1    2    0  503 -0.79930698783E+02 -0.79223764556E+02 -0.19802483177E+03  0.28602125004E+03  0.17300000000E+03 0. -1.
</event>
<event>
 4    1  0.6092738E+000  0.1000000E+03  0.7546771E-02  0.1280296E+00
         21   -1    0    0  501  502  0.00000000000E+00  0.00000000000E+00  0.38342548033E+03  0.38342548033E+03  0.00000000000E+00 0. -1.
         21   -1    0    0  502  503 -0.00000000000E+00 -0.00000000000E+00 -0.11320673414E+03  0.11320673414E+03  0.00000000000E+00 0. -1.
          6    1    1    2  501    0  0.88542707434E+02  0.17376724707E+02  0.48049247539E+02  0.20094648987E+03  0.17300000000E+03 0. -1.
         -6    1    1    2    0  503 -0.88542707434E+02 -0.17376724707E+02  0.22216949865E+03  0.29568572460E+03  0.17300000000E+03 0. -1.
</event>
<event>
 4    1  0.6092738E+000  0.1000000E+03  0.7546771E-02  0.1280296E+00
         21   -1    0    0  501  502  0.00000000000E+00  0.00000000000E+00  0.12551860919E+04  0.12551860919E+04  0.00000000000E+00 0. -1.
         21   -1    0    0  502  503 -0.00000000000E+00 -0.00000000000E+00 -0.11603397740E+03  0.11603397740E+03  0.00000000000E+00 0. -1.
          6    1    1    2  501    0 -0.18661691490E+03  0.14795505393E+02  0.10798316447E+04  0.11095089728E+04  0.17300000000E+03 0. -1.
         -6    1    1    2    0  503  0.18661691490E+03 -0.14795505393E+02  0.59320469880E+02  0.26171109654E+03  0.17300000000E+03 0. -1.
</event>
<event>
 4    1  0.6092738E+000  0.1000000E+03  0.7546771E-02  0.1280296E+00
         21   -1    0    0  503  502  0.00000000000E+00  0.00000000000E+00  0.17770446039E+03  0.17770446039E+03  0.00000000000E+00 0. -1.
         21   -1    0    0  501  503 -0.00000000000E+00 -0.00000000000E+00 -0.36931361737E+03  0.36931361737E+03  0.00000000000E+00 0. -1.
          6    1    1    2  501    0 -0.15336074102E+03  0.10934885681E+03 -0.79861751736E+02  0.26792459529E+03  0.17300000000E+03 0.  1.
         -6    1    1    2    0  502  0.15336074102E+03 -0.10934885681E+03 -0.11174740524E+03  0.27909348246E+03  0.17300000000E+03 0.  1.
</event>
<event>
 4    1  0.6092738E+000  0.1000000E+03  0.7546771E-02  0.1280296E+00
         21   -1    0    0  503  502  0.00000000000E+00  0.00000000000E+00  0.39405263102E+03  0.39405263102E+03  0.00000000000E+00 0. -1.
         21   -1    0    0  501  503 -0.00000000000E+00 -0.00000000000E+00 -0.20360480272E+03  0.20360480272E+03  0.00000000000E+00 0. -1.
          6    1    1    2  501    0  0.16968128580E+03 -0.41058900396E+02 -0.53318893056E+02  0.25149448584E+03  0.17300000000E+03 0. -1.
         -6    1    1    2    0  502 -0.16968128580E+03  0.41058900396E+02  0.24376672136E+03  0.34616294790E+03  0.17300000000E+03 0. -1.
</event>
<event>
 4    1  0.6092738E+000  0.1000000E+03  0.7546771E-02  0.1280296E+00
         21   -1    0    0  503  502  0.00000000000E+00  0.00000000000E+00  0.36239224424E+03  0.36239224424E+03  0.00000000000E+00 0. -1.
         21   -1    0    0  501  503 -0.00000000000E+00 -0.00000000000E+00 -0.13816872533E+03  0.13816872533E+03  0.00000000000E+00 0. -1.
          6    1    1    2  501    0  0.85010493606E+02 -0.86467744508E+02  0.29624857743E+02  0.21333093320E+03  0.17300000000E+03 0. -1.
         -6    1    1    2    0  502 -0.85010493606E+02  0.86467744508E+02  0.19459866117E+03  0.28723003637E+03  0.17300000000E+03 0. -1.
</event>
<event>
 4    1  0.6092738E+000  0.1000000E+03  0.7546771E-02  0.1280296E+00
         21   -1    0    0  503  502  0.00000000000E+00  0.00000000000E+00  0.18448848116E+03  0.18448848116E+03  0.00000000000E+00 0.  1.
         21   -1    0    0  501  503 -0.00000000000E+00 -0.00000000000E+00 -0.45480232448E+03  0.45480232448E+03  0.00000000000E+00 0.  1.
          6    1    1    2  501    0  0.58080386718E+01  0.14565314959E+03 -0.33479053554E+03  0.40405726820E+03  0.17300000000E+03 0. -1.
         -6    1    1    2    0  502 -0.58080386718E+01 -0.14565314959E+03  0.64476692215E+02  0.23523353744E+03  0.17300000000E+03 0. -1.
</event>
<event>
 4    1  0.6092738E+000  0.1000000E+03  0.7546771E-02  0.1280296E+00
         21   -1    0    0  503  502  0.00000000000E+00  0.00000000000E+00  0.19969336319E+02  0.19969336319E+02  0.00000000000E+00 0.  1.
         21   -1    0    0  501  503 -0.00000000000E+00 -0.00000000000E+00 -0.23739250129E+04  0.23739250129E+04  0.00000000000E+00 0.  1.
          6    1    1    2  501    0  0.70794189733E+02  0.80835471067E+02 -0.16003340359E+04  0.16132402850E+04  0.17300000000E+03 0. -1.
         -6    1    1    2    0  502 -0.70794189733E+02 -0.80835471067E+02 -0.75362164071E+03  0.78065406425E+03  0.17300000000E+03 0. -1.
</event>
<event>
 4    1  0.6092738E+000  0.1000000E+03  0.7546771E-02  0.1280296E+00
         21   -1    0    0  503  502  0.00000000000E+00  0.00000000000E+00  0.59955872017E+02  0.59955872017E+02  0.00000000000E+00 0.  1.
         21   -1    0    0  501  503 -0.00000000000E+00 -0.00000000000E+00 -0.59704395842E+03  0.59704395842E+03  0.00000000000E+00 0.  1.
          6    1    1    2  501    0  0.30779178692E+02  0.45248258328E+02 -0.36160090751E+03  0.40457258809E+03  0.17300000000E+03 0. -1.
         -6    1    1    2    0  502 -0.30779178692E+02 -0.45248258328E+02 -0.17548717889E+03  0.25242724235E+03  0.17300000000E+03 0. -1.
</event>
<event>
 4    1  0.6092738E+000  0.1000000E+03  0.7546771E-02  0.1280296E+00
         21   -1    0    0  501  502  0.00000000000E+00  0.00000000000E+00  0.87071690609E+03  0.87071690609E+03  0.00000000000E+00 0.  1.
         21   -1    0    0  502  503 -0.00000000000E+00 -0.00000000000E+00 -0.28297870755E+03  0.28297870755E+03  0.00000000000E+00 0.  1.
          6    1    1    2  501    0  0.28652314875E+03 -0.26648242972E+03  0.13575685276E+01  0.42783085806E+03  0.17300000000E+03 0. -1.
         -6    1    1    2    0  503 -0.28652314875E+03  0.26648242972E+03  0.58638063002E+03  0.72586475557E+03  0.17300000000E+03 0. -1.
</event>
<event>
 4    1  0.6092738E+000  0.1000000E+03  0.7546771E-02  0.1280296E+00
         21   -1    0    0  501  502  0.00000000000E+00  0.00000000000E+00  0.72297924563E+03  0.72297924563E+03  0.00000000000E+00 0.  1.
         21   -1    0    0  502  503 -0.00000000000E+00 -0.00000000000E+00 -0.49964606768E+02  0.49964606768E+02  0.00000000000E+00 0.  1.
          6    1    1    2  501    0 -0.35983086276E+02 -0.18891178043E+02  0.47355810405E+03  0.50580424773E+03  0.17300000000E+03 0.  1.
         -6    1    1    2    0  503  0.35983086276E+02  0.18891178043E+02  0.19945653482E+03  0.26713960468E+03  0.17300000000E+03 0.  1.
</event>
<event>
 4    1  0.6092738E+000  0.1000000E+03  0.7546771E-02  0.1280296E+00
         21   -1    0    0  501  502  0.00000000000E+00  0.00000000000E+00  0.57399227414E+03  0.57399227414E+03  0.00000000000E+00 0.  1.
         21   -1    0    0  502  503 -0.00000000000E+00 -0.00000000000E+00 -0.56330253112E+02  0.56330253112E+02  0.00000000000E+00 0.  1.
          6    1    1    2  501    0 -0.14796113801E+02 -0.25660540426E+02  0.32731542574E+03  0.37140513761E+03  0.17300000000E+03 0.  1.
         -6    1    1    2    0  503  0.14796113801E+02  0.25660540426E+02  0.19034659529E+03  0.25891738964E+03  0.17300000000E+03 0.  1.
</event>
<event>
 4    1  0.6092738E+000  0.1000000E+03  0.7546771E-02  0.1280296E+00
         21   -1    0    0  501  502  0.00000000000E+00  0.00000000000E+00  0.79899280905E+02  0.79899280905E+02  0.00000000000E+00 0.  1.
         21   -1    0    0  502  503 -0.00000000000E+00 -0.00000000000E+00 -0.15427504642E+04  0.15427504642E+04  0.00000000000E+00 0.  1.
          6    1    1    2  501    0 -0.66395657420E+02 -0.98774889111E+02 -0.81209066102E+02  0.22514167642E+03  0.17300000000E+03 0.  1.
         -6    1    1    2    0  503  0.66395657420E+02  0.98774889111E+02 -0.13816421172E+04  0.13975080687E+04  0.17300000000E+03 0.  1.
</event>
<event>
 4    1  0.6092738E+000  0.1000000E+03  0.7546771E-02  0.1280296E+00
         21   -1    0    0  503  502  0.00000000000E+00  0.00000000000E+00  0.15247430437E+03  0.15247430437E+03  0.00000000000E+00 0. -1.
         21   -1    0    0  501  503 -0.00000000000E+00 -0.00000000000E+00 -0.59534372638E+03  0.59534372638E+03  0.00000000000E+00 0.  1.
          6    1    1    2  501    0  0.19204527519E+02 -0.43139440162E+02 -0.52189774390E+03  0.55184787783E+03  0.17300000000E+03 0.  1.
         -6    1    1    2    0  502 -0.19204527519E+02  0.43139440162E+02  0.79028321891E+02  0.19597015292E+03  0.17300000000E+03 0. -1.
</event>
<event>
 4    1  0.6092738E+000  0.1000000E+03  0.7546771E-02  0.1280296E+00
         21   -1    0    0  503  502  0.00000000000E+00  0.00000000000E+00  0.24804096872E+03  0.24804096872E+03  0.00000000000E+00 0. -1.
         21   -1    0    0  501  503 -0.00000000000E+00 -0.00000000000E+00 -0.44397707797E+03  0.44397707797E+03  0.00000000000E+00 0.  1.
          6    1    1    2  501    0 -0.20293050258E+03  0.11906444080E+03 -0.26229433580E+03  0.39253592005E+03  0.17300000000E+03 0.  1.
         -6    1    1    2    0  502  0.20293050258E+03 -0.11906444080E+03  0.66358226555E+02  0.29948212663E+03  0.17300000000E+03 0. -1.
</event>
<event>
 4    1  0.6092738E+000  0.1000000E+03  0.7546771E-02  0.1280296E+00
         21   -1    0    0  503  502  0.00000000000E+00  0.00000000000E+00  0.38856754876E+03  0.38856754876E+03  0.00000000000E+00 0. -1.
         21   -1    0    0  501  503 -0.00000000000E+00 -0.00000000000E+00 -0.17890436983E+03  0.17890436983E+03  0.00000000000E+00 0. -1.
          6    1    1    2  501    0 -0.73154759579E+02 -0.14851967290E+03 -0.13923885254E+02  0.23985951444E+03  0.17300000000E+03 0. -1.
         -6    1    1    2    0  502  0.73154759579E+02  0.14851967290E+03  0.22358706418E+03  0.32761240416E+03  0.17300000000E+03 0. -1.
</event>
<event>
 4    1  0.6092738E+000  0.1000000E+03  0.7546771E-02  0.1280296E+00
         21   -1    0    0  503  502  0.00000000000E+00  0.00000000000E+00  0.25178132647E+04  0.25178132647E+04  0.00000000000E+00 0.  1.
         21   -1    0    0  501  503 -0.00000000000E+00 -0.00000000000E+00 -0.18488386909E+02  0.18488386909E+02  0.00000000000E+00 0.  1.
          6    1    1    2  501    0 -0.40141510595E+02 -0.74230612445E+02  0.67677877420E+03  0.70361923930E+03  0.17300000000E+03 0.  1.
         -6    1    1    2    0  502  0.40141510595E+02  0.74230612445E+02  0.18225461036E+04  0.18326824123E+04  0.17300000000E+03 0.  1.
</event>
<event>
 4    1  0.6092738E+000  0.1000000E+03  0.7546771E-02  0.1280296E+00
         21   -1    0    0  501  502  0.00000000000E+00  0.00000000000E+00  0.14096065216E+04  0.14096065216E+04  0.00000000000E+00 0. -1.
         21   -1    0    0  502  503 -0.00000000000E+00 -0.00000000000E+00 -0.22653171502E+02  0.22653171502E+02  0.00000000000E+00 0.  1.
          6    1    1    2  501    0  0.33202023333E+02 -0.29507600379E+02  0.71542157515E+03  0.73738056866E+03  0.17300000000E+03 0. -1.
         -6    1    1    2    0  503 -0.33202023333E+02  0.29507600379E+02  0.67153177493E+03  0.69487912443E+03  0.17300000000E+03 0.  1.
</event>
<event>
 4    1  0.6092738E+000  0.1000000E+03  0.7546771E-02  0.1280296E+00
         21   -1    0    0  503  502  0.00000000000E+00  0.00000000000E+00  0.25700080285E+03  0.25700080285E+03  0.00000000000E+00 0.  1.
         21   -1    0    0  501  503 -0.00000000000E+00 -0.00000000000E+00 -0.24525725155E+03  0.24525725155E+03  0.00000000000E+00 0.  1.
          6    1    1    2  501    0  0.89837706145E+02  0.15349814621E+03  0.44220441851E+02  0.25202567689E+03  0.17300000000E+03 0.  1.
         -6    1    1    2    0  502 -0.89837706145E+02 -0.15349814621E+03 -0.32476890556E+02  0.25023237751E+03  0.17300000000E+03 0.  1.
</event>
<event>
 4    1  0.6092738E+000  0.1000000E+03  0.7546771E-02  0.1280296E+00
         21   -1    0    0  503  502  0.00000000000E+00  0.00000000000E+00  0.29668745925E+03  0.29668745925E+03  0.00000000000E+00 0.  1.
         21   -1    0    0  501  503 -0.00000000000E+00 -0.00000000000E+00 -0.28327333886E+03  0.28327333886E+03  0.00000000000E+00 0.  1.
          6    1    1    2  501    0 -0.22199115744E+03  0.62837041724E+02 -0.23067990831E+02  0.28929172127E+03  0.17300000000E+03 0.  1.
         -6    1    1    2    0  502  0.22199115744E+03 -0.62837041724E+02  0.36482111223E+02  0.29066907685E+03  0.17300000000E+03 0.  1.
</event>
<event>
 4    1  0.6092738E+000  0.1000000E+03  0.7546771E-02  0.1280296E+00
         21   -1    0    0  501  502  0.00000000000E+00  0.00000000000E+00  0.15820102390E+03  0.15820102390E+03  0.00000000000E+00 0.  1.
         21   -1    0    0  502  503 -0.00000000000E+00 -0.00000000000E+00 -0.20365902521E+03  0.20365902521E+03  0.00000000000E+00 0.  1.
          6    1    1    2  501    0  0.21307832632E+02  0.39063858534E+02 -0.49799423877E+01  0.17870033184E+03  0.17300000000E+03 0.  1.
         -6    1    1    2    0  503 -0.21307832632E+02 -0.39063858534E+02 -0.40478058922E+02  0.18315971727E+03  0.17300000000E+03 0.  1.
</event>
<event>
 4    1  0.6092738E+000  0.1000000E+03  0.7546771E-02  0.1280296E+00
         21   -1    0    0  501  502  0.00000000000E+00  0.00000000000E+00  0.30351622510E+03  0.30351622510E+03  0.00000000000E+00 0.  1.
         21   -1    0    0  502  503 -0.00000000000E+00 -0.00000000000E+00 -0.26482609769E+03  0.26482609769E+03  0.00000000000E+00 0.  1.
          6    1    1    2  501    0  0.85075550323E+01 -0.15936673951E+03  0.17776281380E+03  0.29495551211E+03  0.17300000000E+03 0.  1.
         -6    1    1    2    0  503 -0.85075550323E+01  0.15936673951E+03 -0.13907268639E+03  0.27338681068E+03  0.17300000000E+03 0.  1.
</event>
<event>
 4    1  0.6092738E+000  0.1000000E+03  0.7546771E-02  0.1280296E+00
         21   -1    0    0  501  502  0.00000000000E+00  0.00000000000E+00  0.19546294758E+03  0.19546294758E+03  0.00000000000E+00 0.  1.
         21   -1    0    0  502  503 -0.00000000000E+00 -0.00000000000E+00 -0.28443793100E+03  0.28443793100E+03  0.00000000000E+00 0.  1.
          6    1    1    2  501    0 -0.10419363348E+03 -0.49809995679E+02  0.68515494864E+02  0.21899936521E+03  0.17300000000E+03 0.  1.
         -6    1    1    2    0  503  0.10419363348E+03  0.49809995679E+02 -0.15749047828E+03  0.26090151337E+03  0.17300000000E+03 0.  1.
</event>
<event>
 4    1  0.6092738E+000  0.1000000E+03  0.7546771E-02  0.1280296E+00
         21   -1    0    0  501  502  0.00000000000E+00  0.00000000000E+00  0.20874040693E+03  0.20874040693E+03  0.00000000000E+00 0.  1.
         21   -1    0    0  502  503 -0.00000000000E+00 -0.00000000000E+00 -0.55981675996E+03  0.55981675996E+03  0.00000000000E+00 0.  1.
          6    1    1    2  501    0  0.11532050807E+03 -0.15195887090E+03  0.77173295652E+02  0.26884016736E+03  0.17300000000E+03 0.  1.
         -6    1    1    2    0  503 -0.11532050807E+03  0.15195887090E+03 -0.42824964867E+03  0.49971699953E+03  0.17300000000E+03 0.  1.
</event>
<event>
 4    1  0.6092738E+000  0.1000000E+03  0.7546771E-02  0.1280296E+00
         21   -1    0    0  501  502  0.00000000000E+00  0.00000000000E+00  0.10590098208E+03  0.10590098208E+03  0.00000000000E+00 0.  1.
         21   -1    0    0  502  503 -0.00000000000E+00 -0.00000000000E+00 -0.36438066320E+03  0.36438066320E+03  0.00000000000E+00 0.  1.
          6    1    1    2  501    0 -0.48197775821E+02 -0.79578357623E+02 -0.12699101285E+03  0.23390480530E+03  0.17300000000E+03 0.  1.
         -6    1    1    2    0  503  0.48197775821E+02  0.79578357623E+02 -0.13148866827E+03  0.23637683998E+03  0.17300000000E+03 0.  1.
</event>
<event>
 4    1  0.6092738E+000  0.1000000E+03  0.7546771E-02  0.1280296E+00
         21   -1    0    0  501  502  0.00000000000E+00  0.00000000000E+00  0.37100580019E+02  0.37100580019E+02  0.00000000000E+00 0.  1.
         21   -1    0    0  502  503 -0.00000000000E+00 -0.00000000000E+00 -0.10463918245E+04  0.10463918245E+04  0.00000000000E+00 0.  1.
          6    1    1    2  501    0 -0.74190004327E+02  0.51057090851E+02 -0.42776884368E+03  0.47013420094E+03  0.17300000000E+03 0.  1.
         -6    1    1    2    0  503  0.74190004327E+02 -0.51057090851E+02 -0.58152240082E+03  0.61335820360E+03  0.17300000000E+03 0.  1.
</event>
<event>
 4    1  0.6092738E+000  0.1000000E+03  0.7546771E-02  0.1280296E+00
         21   -1    0    0  503  502  0.00000000000E+00  0.00000000000E+00  0.36056283133E+03  0.36056283133E+03  0.00000000000E+00 0.  1.
         21   -1    0    0  501  503 -0.00000000000E+00 -0.00000000000E+00 -0.21734763986E+03  0.21734763986E+03  0.00000000000E+00 0.  1.
          6    1    1    2  501    0  0.14222242217E+03  0.85464950215E+02 -0.77640411400E+02  0.25196926115E+03  0.17300000000E+03 0.  1.
         -6    1    1    2    0  502 -0.14222242217E+03 -0.85464950215E+02  0.22085560287E+03  0.32594121004E+03  0.17300000000E+03 0.  1.
</event>
<event>
 4    1  0.6092738E+000  0.1000000E+03  0.7546771E-02  0.1280296E+00
         21   -1    0    0  503  502  0.00000000000E+00  0.00000000000E+00  0.28730765258E+02  0.28730765258E+02  0.00000000000E+00 0.  1.
         21   -1    0    0  501  503 -0.00000000000E+00 -0.00000000000E+00 -0.11524815568E+04  0.11524815568E+04  0.00000000000E+00 0.  1.
          6    1    1    2  501    0  0.49195002058E+01 -0.39013041324E+02 -0.43057687237E+03  0.46569481626E+03  0.17300000000E+03 0.  1.
         -6    1    1    2    0  502 -0.49195002058E+01  0.39013041324E+02 -0.69317391916E+03  0.71551750578E+03  0.17300000000E+03 0.  1.
</event>
<event>
 4    1  0.6092738E+000  0.1000000E+03  0.7546771E-02  0.1280296E+00
         21   -1    0    0  501  502  0.00000000000E+00  0.00000000000E+00  0.10067533391E+03  0.10067533391E+03  0.00000000000E+00 0. -1.
         21   -1    0    0  502  503 -0.00000000000E+00 -0.00000000000E+00 -0.60304019121E+03  0.60304019121E+03  0.00000000000E+00 0. -1.
          6    1    1    2  501    0  0.53150912882E+01 -0.61538885426E+02 -0.16679274019E+02  0.18445184411E+03  0.17300000000E+03 0. -1.
         -6    1    1    2    0  503 -0.53150912882E+01  0.61538885426E+02 -0.48568558328E+03  0.51926368101E+03  0.17300000000E+03 0. -1.
</event>
<event>
 4    1  0.6092738E+000  0.1000000E+03  0.7546771E-02  0.1280296E+00
         21   -1    0    0  501  502  0.00000000000E+00  0.00000000000E+00  0.19829203829E+03  0.19829203829E+03  0.00000000000E+00 0. -1.
         21   -1    0    0  502  503 -0.00000000000E+00 -0.00000000000E+00 -0.22354330820E+03  0.22354330820E+03  0.00000000000E+00 0. -1.
          6    1    1    2  501    0 -0.31015355143E+02 -0.19823538890E+02  0.10178519411E+03  0.20406898512E+03  0.17300000000E+03 0. -1.
         -6    1    1    2    0  503  0.31015355143E+02  0.19823538890E+02 -0.12703646403E+03  0.21776636136E+03  0.17300000000E+03 0. -1.
</event>
<event>
 4    1  0.6092738E+000  0.1000000E+03  0.7546771E-02  0.1280296E+00
         21   -1    0    0  501  502  0.00000000000E+00  0.00000000000E+00  0.89309669256E+02  0.89309669256E+02  0.00000000000E+00 0. -1.
         21   -1    0    0  502  503 -0.00000000000E+00 -0.00000000000E+00 -0.10200074091E+04  0.10200074091E+04  0.00000000000E+00 0. -1.
          6    1    1    2  501    0  0.27946642590E+02 -0.56665994123E+02 -0.25929002196E+02  0.18599291082E+03  0.17300000000E+03 0. -1.
         -6    1    1    2    0  503 -0.27946642590E+02  0.56665994123E+02 -0.90476873765E+03  0.92332416754E+03  0.17300000000E+03 0. -1.
</event>
<event>
 4    1  0.6092738E+000  0.1000000E+03  0.7546771E-02  0.1280296E+00
         21   -1    0    0  501  502  0.00000000000E+00  0.00000000000E+00  0.22301814598E+03  0.22301814598E+03  0.00000000000E+00 0.  1.
         21   -1    0    0  502  503 -0.00000000000E+00 -0.00000000000E+00 -0.34911849353E+03  0.34911849353E+03  0.00000000000E+00 0.  1.
          6    1    1    2  501    0  0.69615738944E+02 -0.12714951185E+03  0.10515132813E+03  0.24899628768E+03  0.17300000000E+03 0.  1.
         -6    1    1    2    0  503 -0.69615738944E+02  0.12714951185E+03 -0.23125167568E+03  0.32314035183E+03  0.17300000000E+03 0.  1.
</event>
<event>
 4    1  0.6092738E+000  0.1000000E+03  0.7546771E-02  0.1280296E+00
         21   -1    0    0  501  502  0.00000000000E+00  0.00000000000E+00  0.10174871282E+04  0.10174871282E+04  0.00000000000E+00 0.  1.
         21   -1    0    0  502  503 -0.00000000000E+00 -0.00000000000E+00 -0.11187979442E+03  0.11187979442E+03  0.00000000000E+00 0.  1.
          6    1    1    2  501    0 -0.30190110670E+02 -0.12212705292E+03  0.88949751361E+03  0.91485588294E+03  0.17300000000E+03 0.  1.
         -6    1    1    2    0  503  0.30190110670E+02  0.12212705292E+03  0.16109820179E+02  0.21451103968E+03  0.17300000000E+03 0.  1.
</event>
<event>
 4    1  0.6092738E+000  0.1000000E+03  0.7546771E-02  0.1280296E+00
         21   -1    0    0  501  502  0.00000000000E+00  0.00000000000E+00  0.19429780982E+02  0.19429780982E+02  0.00000000000E+00 0.  1.
         21   -1    0    0  502  503 -0.00000000000E+00 -0.00000000000E+00 -0.26089410116E+04  0.26089410116E+04  0.00000000000E+00 0.  1.
          6    1    1    2  501    0 -0.13255781751E+03 -0.50549931912E+02 -0.14418763140E+04  0.14591309658E+04  0.17300000000E+03 0.  1.
         -6    1    1    2    0  503  0.13255781751E+03  0.50549931912E+02 -0.11476349166E+04  0.11692398267E+04  0.17300000000E+03 0.  1.
</event>
<event>
 4    1  0.6092738E+000  0.1000000E+03  0.7546771E-02  0.1280296E+00
         21   -1    0    0  501  502  0.00000000000E+00  0.00000000000E+00  0.89072657471E+03  0.89072657471E+03  0.00000000000E+00 0. -1.
         21   -1    0    0  502  503 -0.00000000000E+00 -0.00000000000E+00 -0.79678423671E+02  0.79678423671E+02  0.00000000000E+00 0. -1.
          6    1    1    2  501    0  0.76359225716E+01  0.33117363643E+02  0.76927116919E+03  0.78921619271E+03  0.17300000000E+03 0. -1.
         -6    1    1    2    0  503 -0.76359225716E+01 -0.33117363643E+02  0.41776981849E+02  0.18118880567E+03  0.17300000000E+03 0. -1.
</event>
<event>
 4    1  0.6092738E+000  0.1000000E+03  0.7546771E-02  0.1280296E+00
         21   -1    0    0  501  502  0.00000000000E+00  0.00000000000E+00  0.98071214683E+03  0.98071214683E+03  0.00000000000E+00 0. -1.
         21   -1    0    0  502  503 -0.00000000000E+00 -0.00000000000E+00 -0.15657620402E+03  0.15657620402E+03  0.00000000000E+00 0. -1.
          6    1    1    2  501    0  0.11062459574E+02 -0.23774155818E+03  0.78763866371E+03  0.84080145758E+03  0.17300000000E+03 0. -1.
         -6    1    1    2    0  503 -0.11062459574E+02  0.23774155818E+03  0.36497279102E+02  0.29648689327E+03  0.17300000000E+03 0. -1.
</event>
<event>
 4    1  0.6092738E+000  0.1000000E+03  0.7546771E-02  0.1280296E+00
         21   -1    0    0  501  502  0.00000000000E+00  0.00000000000E+00  0.15616428261E+03  0.15616428261E+03  0.00000000000E+00 0.  1.
         21   -1    0    0  502  503 -0.00000000000E+00 -0.00000000000E+00 -0.84282164544E+03  0.84282164544E+03  0.00000000000E+00 0. -1.
          6    1    1    2  501    0  0.20079971371E+03 -0.33396905541E+02 -0.53706641079E+01  0.26719603732E+03  0.17300000000E+03 0.  1.
         -6    1    1    2    0  503 -0.20079971371E+03  0.33396905541E+02 -0.68128669872E+03  0.73178989073E+03  0.17300000000E+03 0. -1.
</event>
<event>
 4    1  0.6092738E+000  0.1000000E+03  0.7546771E-02  0.1280296E+00
         21   -1    0    0  501  502  0.00000000000E+00  0.00000000000E+00  0.74420401486E+03  0.74420401486E+03  0.00000000000E+00 0. -1.
         21   -1    0    0  502  503 -0.00000000000E+00 -0.00000000000E+00 -0.17042339449E+03  0.17042339449E+03  0.00000000000E+00 0. -1.
          6    1    1    2  501    0  0.38226915905E+02  0.20507275095E+03  0.58358637244E+03  0.64344244838E+03  0.17300000000E+03 0. -1.
         -6    1    1    2    0  503 -0.38226915905E+02 -0.20507275095E+03 -0.98057520636E+01  0.27118496097E+03  0.17300000000E+03 0. -1.
</event>
<event>
 4    1  0.6092738E+000  0.1000000E+03  0.7546771E-02  0.1280296E+00
         21   -1    0    0  501  502  0.00000000000E+00  0.00000000000E+00  0.97600459799E+02  0.97600459799E+02  0.00000000000E+00 0. -1.
         21   -1    0    0  502  503 -0.00000000000E+00 -0.00000000000E+00 -0.45335941352E+03  0.45335941352E+03  0.00000000000E+00 0. -1.
          6    1    1    2  501    0 -0.13573692145E+02 -0.11328346321E+03 -0.13062988961E+03  0.24497052111E+03  0.17300000000E+03 0. -1.
         -6    1    1    2    0  503  0.13573692145E+02  0.11328346321E+03 -0.22512906411E+03  0.30598935220E+03  0.17300000000E+03 0. -1.
</event>
<event>
 4    1  0.6092738E+000  0.1000000E+03  0.7546771E-02  0.1280296E+00
         21   -1    0    0  501  502  0.00000000000E+00  0.00000000000E+00  0.18576738323E+03  0.18576738323E+03  0.00000000000E+00 0. -1.
         21   -1    0    0  502  503 -0.00000000000E+00 -0.00000000000E+00 -0.18425375192E+03  0.18425375192E+03  0.00000000000E+00 0. -1.
          6    1    1    2  501    0  0.42976329236E+02  0.38779471300E+02  0.31555207623E+02  0.18513655338E+03  0.17300000000E+03 0. -1.
         -6    1    1    2    0  503 -0.42976329236E+02 -0.38779471300E+02 -0.30041576318E+02  0.18488458177E+03  0.17300000000E+03 0. -1.
</event>
<event>
 4    1  0.6092738E+000  0.1000000E+03  0.7546771E-02  0.1280296E+00
         21   -1    0    0  501  502  0.00000000000E+00  0.00000000000E+00  0.52811278240E+02  0.52811278240E+02  0.00000000000E+00 0. -1.
         21   -1    0    0  502  503 -0.00000000000E+00 -0.00000000000E+00 -0.10890160838E+04  0.10890160838E+04  0.00000000000E+00 0. -1.
          6    1    1    2  501    0  0.76935421332E+01 -0.12384419358E+03 -0.25529715617E+03  0.33241873115E+03  0.17300000000E+03 0. -1.
         -6    1    1    2    0  503 -0.76935421332E+01  0.12384419358E+03 -0.78090764939E+03  0.80940863088E+03  0.17300000000E+03 0. -1.
</event>
<event>
 4    1  0.6092738E+000  0.1000000E+03  0.7546771E-02  0.1280296E+00
         21   -1    0    0  501  502  0.00000000000E+00  0.00000000000E+00  0.33673056411E+03  0.33673056411E+03  0.00000000000E+00 0.  1.
         21   -1    0    0  502  503 -0.00000000000E+00 -0.00000000000E+00 -0.13941177651E+03  0.13941177651E+03  0.00000000000E+00 0.  1.
          6    1    1    2  501    0  0.83763745978E+02  0.99648381345E+02  0.89529417159E+02  0.23428760441E+03  0.17300000000E+03 0.  1.
         -6    1    1    2    0  503 -0.83763745978E+02 -0.99648381345E+02  0.10778937044E+03  0.24185473621E+03  0.17300000000E+03 0.  1.
</event>
<event>
 4    1  0.6092738E+000  0.1000000E+03  0.7546771E-02  0.1280296E+00
         21   -1    0    0  501  502  0.00000000000E+00  0.00000000000E+00  0.28724725992E+03  0.28724725992E+03  0.00000000000E+00 0. -1.
         21   -1    0    0  502  503 -0.00000000000E+00 -0.00000000000E+00 -0.26588328481E+03  0.26588328481E+03  0.00000000000E+00 0. -1.
          6    1    1    2  501    0 -0.11130034027E+03  0.17720541559E+03  0.62254147376E+02  0.27855718250E+03  0.17300000000E+03 0. -1.
         -6    1    1    2    0  503  0.11130034027E+03 -0.17720541559E+03 -0.40890172269E+02  0.27457336223E+03  0.17300000000E+03 0. -1.
</event>
<event>
 4    1  0.6092738E+000  0.1000000E+03  0.7546771E-02  0.1280296E+00
         21   -1    0    0  501  502  0.00000000000E+00  0.00000000000E+00  0.12929440636E+04  0.12929440636E+04  0.00000000000E+00 0. -1.
         21   -1    0    0  502  503 -0.00000000000E+00 -0.00000000000E+00 -0.33873550708E+02  0.33873550708E+02  0.00000000000E+00 0. -1.
          6    1    1    2  501    0  0.89977180820E+02  0.32539313410E+02  0.84715856389E+03  0.86992030230E+03  0.17300000000E+03 0. -1.
         -6    1    1    2    0  503 -0.89977180820E+02 -0.32539313410E+02  0.41191194898E+03  0.45689731198E+03  0.17300000000E+03 0. -1.
</event>
<event>
 4    1  0.6092738E+000  0.1000000E+03  0.7546771E-02  0.1280296E+00
         21   -1    0    0  501  502  0.00000000000E+00  0.00000000000E+00  0.55865488608E+03  0.55865488608E+03  0.00000000000E+00 0. -1.
         21   -1    0    0  502  503 -0.00000000000E+00 -0.00000000000E+00 -0.32133385635E+03  0.32133385635E+03  0.00000000000E+00 0. -1.
          6    1    1    2  501    0 -0.12854660253E+03 -0.13809882655E+03  0.46927581294E+03  0.53455056218E+03  0.17300000000E+03 0. -1.
         -6    1    1    2    0  503  0.12854660253E+03  0.13809882655E+03 -0.23195478321E+03  0.34543818025E+03  0.17300000000E+03 0. -1.
</event>
<event>
 4    1  0.6092738E+000  0.1000000E+03  0.7546771E-02  0.1280296E+00
         21   -1    0    0  501  502  0.00000000000E+00  0.00000000000E+00  0.23300150487E+03  0.23300150487E+03  0.00000000000E+00 0. -1.
         21   -1    0    0  502  503 -0.00000000000E+00 -0.00000000000E+00 -0.50670853185E+03  0.50670853185E+03  0.00000000000E+00 0. -1.
          6    1    1    2  501    0  0.27432209012E+02  0.20676761146E+03  0.90543079672E+02  0.28571387876E+03  0.17300000000E+03 0. -1.
         -6    1    1    2    0  503 -0.27432209012E+02 -0.20676761146E+03 -0.36425010665E+03  0.45399615795E+03  0.17300000000E+03 0. -1.
</event>
<event>
 4    1  0.6092738E+000  0.1000000E+03  0.7546771E-02  0.1280296E+00
         21   -1    0    0  501  502  0.00000000000E+00  0.00000000000E+00  0.51584967006E+03  0.51584967006E+03  0.00000000000E+00 0. -1.
         21   -1    0    0  502  503 -0.00000000000E+00 -0.00000000000E+00 -0.12778939376E+03  0.12778939376E+03  0.00000000000E+00 0. -1.
          6    1    1    2  501    0  0.58622478354E+02  0.15234630755E+03  0.31520037437E+03  0.39487500351E+03  0.17300000000E+03 0. -1.
         -6    1    1    2    0  503 -0.58622478354E+02 -0.15234630755E+03  0.72859901933E+02  0.24876406031E+03  0.17300000000E+03 0. -1.
</event>
<event>
 4    1  0.6092738E+000  0.1000000E+03  0.7546771E-02  0.1280296E+00
         21   -1    0    0  501  502  0.00000000000E+00  0.00000000000E+00  0.76747635079E+03  0.76747635079E+03  0.00000000000E+00 0. -1.
         21   -1    0    0  502  503 -0.00000000000E+00 -0.00000000000E+00 -0.15379292181E+03  0.15379292181E+03  0.00000000000E+00 0. -1.
          6    1    1    2  501    0  0.10217033839E+03  0.15771747656E+03  0.61489874833E+03  0.66584010931E+03  0.17300000000E+03 0. -1.
         -6    1    1    2    0  503 -0.10217033839E+03 -0.15771747656E+03 -0.12153193478E+01  0.25542916329E+03  0.17300000000E+03 0. -1.
</event>
<event>
 4    1  0.6092738E+000  0.1000000E+03  0.7546771E-02  0.1280296E+00
         21   -1    0    0  503  502  0.00000000000E+00  0.00000000000E+00  0.32416025563E+03  0.32416025563E+03  0.00000000000E+00 0.  1.
         21   -1    0    0  501  503 -0.00000000000E+00 -0.00000000000E+00 -0.36566356329E+03  0.36566356329E+03  0.00000000000E+00 0. -1.
          6    1    1    2  501    0  0.81804383196E+02 -0.49879377077E+02 -0.30308697525E+03  0.36189863765E+03  0.17300000000E+03 0. -1.
         -6    1    1    2    0  502 -0.81804383196E+02  0.49879377077E+02  0.26158366758E+03  0.32792518127E+03  0.17300000000E+03 0.  1.
</event>
<event>
 4    1  0.6092738E+000  0.1000000E+03  0.7546771E-02  0.1280296E+00
         21   -1    0    0  501  502  0.00000000000E+00  0.00000000000E+00  0.21303157192E+03  0.21303157192E+03  0.00000000000E+00 0. -1.
         21   -1    0    0  502  503 -0.00000000000E+00 -0.00000000000E+00 -0.52830674686E+03  0.52830674686E+03  0.00000000000E+00 0. -1.
          6    1    1    2  501    0 -0.23426156236E+03 -0.23069558711E+02 -0.33988290982E+03  0.44817415870E+03  0.17300000000E+03 0.  1.
         -6    1    1    2    0  503  0.23426156236E+03  0.23069558711E+02  0.24607734874E+02  0.29316416008E+03  0.17300000000E+03 0.  1.
</event>
<event>
 4    1  0.6092738E+000  0.1000000E+03  0.7546771E-02  0.1280296E+00
         21   -1    0    0  501  502  0.00000000000E+00  0.00000000000E+00  0.12550477205E+04  0.12550477205E+04  0.00000000000E+00 0. -1.
         21   -1    0    0  502  503 -0.00000000000E+00 -0.00000000000E+00 -0.61231028299E+02  0.61231028299E+02  0.00000000000E+00 0. -1.
          6    1    1    2  501    0 -0.24172651660E+02 -0.66373173921E+02  0.10830468191E+04  0.10990491926E+04  0.17300000000E+03 0. -1.
         -6    1    1    2    0  503  0.24172651660E+02  0.66373173921E+02  0.11076987304E+03  0.21722955618E+03  0.17300000000E+03 0. -1.
</event>
<event>
 4    1  0.6092738E+000  0.1000000E+03  0.7546771E-02  0.1280296E+00
         21   -1    0    0  501  502  0.00000000000E+00  0.00000000000E+00  0.25243639691E+04  0.25243639691E+04  0.00000000000E+00 0. -1.
         21   -1    0    0  502  503 -0.00000000000E+00 -0.00000000000E+00 -0.25223823501E+02  0.25223823501E+02  0.00000000000E+00 0. -1.
          6    1    1    2  501    0  0.93144449648E+02  0.27731740410E+02  0.20370930156E+04  0.20467344459E+04  0.17300000000E+03 0. -1.
         -6    1    1    2    0  503 -0.93144449648E+02 -0.27731740410E+02  0.46204713003E+03  0.50285334671E+03  0.17300000000E+03 0. -1.
</event>
<event>
 4    1  0.6092738E+000  0.1000000E+03  0.7546771E-02  0.1280296E+00
         21   -1    0    0  501  502  0.00000000000E+00  0.00000000000E+00  0.90336037913E+03  0.90336037913E+03  0.00000000000E+00 0. -1.
         21   -1    0    0  502  503 -0.00000000000E+00 -0.00000000000E+00 -0.64337102931E+02  0.64337102931E+02  0.00000000000E+00 0. -1.
          6    1    1    2  501    0 -0.14251352583E+03  0.75519998795E+02  0.51315973322E+03  0.56504450008E+03  0.17300000000E+03 0.  1.
         -6    1    1    2    0  503  0.14251352583E+03 -0.75519998795E+02  0.32586354298E+03  0.40265298199E+03  0.17300000000E+03 0.  1.
</event>
<event>
 4    1  0.6092738E+000  0.1000000E+03  0.7546771E-02  0.1280296E+00
         21   -1    0    0  503  502  0.00000000000E+00  0.00000000000E+00  0.16248310943E+03  0.16248310943E+03  0.00000000000E+00 0. -1.
         21   -1    0    0  501  503 -0.00000000000E+00 -0.00000000000E+00 -0.12212075644E+04  0.12212075644E+04  0.00000000000E+00 0.  1.
          6    1    1    2  501    0  0.26725762380E+03 -0.11191326691E+03 -0.98096346035E+03  0.10373859105E+04  0.17300000000E+03 0. -1.
         -6    1    1    2    0  502 -0.26725762380E+03  0.11191326691E+03 -0.77760994592E+02  0.34630476328E+03  0.17300000000E+03 0.  1.
</event>
<event>
 4    1  0.6092738E+000  0.1000000E+03  0.7546771E-02  0.1280296E+00
         21   -1    0    0  503  502  0.00000000000E+00  0.00000000000E+00  0.14804246257E+04  0.14804246257E+04  0.00000000000E+00 0. -1.
         21   -1    0    0  501  503 -0.00000000000E+00 -0.00000000000E+00 -0.35871593818E+02  0.35871593818E+02  0.00000000000E+00 0.  1.
          6    1    1    2  501    0 -0.14697430484E+03  0.38752916656E+02  0.69417588135E+03  0.73137704987E+03  0.17300000000E+03 0. -1.
         -6    1    1    2    0  502  0.14697430484E+03 -0.38752916656E+02  0.75037715049E+03  0.78491916960E+03  0.17300000000E+03 0.  1.
</event>
<event>
 4    1  0.6092738E+000  0.1000000E+03  0.7546771E-02  0.1280296E+00
         21   -1    0    0  501  502  0.00000000000E+00  0.00000000000E+00  0.10579823472E+03  0.10579823472E+03  0.00000000000E+00 0.  1.
         21   -1    0    0  502  503 -0.00000000000E+00 -0.00000000000E+00 -0.37228664775E+03  0.37228664775E+03  0.00000000000E+00 0.  1.
          6    1    1    2  501    0 -0.83828559619E+01  0.57043289368E+02 -0.38909583107E+02  0.18645955270E+03  0.17300000000E+03 0.  1.
         -6    1    1    2    0  503  0.83828559619E+01 -0.57043289368E+02 -0.22757882992E+03  0.29162532977E+03  0.17300000000E+03 0.  1.
</event>
<event>
 4    1  0.6092738E+000  0.1000000E+03  0.7546771E-02  0.1280296E+00
         21   -1    0    0  503  502  0.00000000000E+00  0.00000000000E+00  0.11953339305E+03  0.11953339305E+03  0.00000000000E+00 0.  1.
         21   -1    0    0  501  503 -0.00000000000E+00 -0.00000000000E+00 -0.39494948617E+03  0.39494948617E+03  0.00000000000E+00 0.  1.
          6    1    1    2  501    0 -0.73142461155E+02  0.42199864637E+02 -0.25698557653E+03  0.32109380988E+03  0.17300000000E+03 0.  1.
         -6    1    1    2    0  502  0.73142461155E+02 -0.42199864637E+02 -0.18430516592E+02  0.19338906934E+03  0.17300000000E+03 0.  1.
</event>
<event>
 4    1  0.6092738E+000  0.1000000E+03  0.7546771E-02  0.1280296E+00
         21   -1    0    0  503  502  0.00000000000E+00  0.00000000000E+00  0.12726090751E+03  0.12726090751E+03  0.00000000000E+00 0.  1.
         21   -1    0    0  501  503 -0.00000000000E+00 -0.00000000000E+00 -0.36437999773E+03  0.36437999773E+03  0.00000000000E+00 0.  1.
          6    1    1    2  501    0  0.95706156025E+02 -0.16421602470E+02 -0.21415668720E+03  0.29192708679E+03  0.17300000000E+03 0.  1.
         -6    1    1    2    0  502 -0.95706156025E+02  0.16421602470E+02 -0.22962403023E+02  0.19971381845E+03  0.17300000000E+03 0.  1.
</event>
<event>
 4    1  0.6092738E+000  0.1000000E+03  0.7546771E-02  0.1280296E+00
         21   -1    0    0  501  502  0.00000000000E+00  0.00000000000E+00  0.11003096747E+03  0.11003096747E+03  0.00000000000E+00 0.  1.
         21   -1    0    0  502  503 -0.00000000000E+00 -0.00000000000E+00 -0.36393569676E+03  0.36393569676E+03  0.00000000000E+00 0. -1.
          6    1    1    2  501    0  0.40863625836E+02 -0.61183920116E+02 -0.45747100082E+02  0.19348153701E+03  0.17300000000E+03 0.  1.
         -6    1    1    2    0  503 -0.40863625836E+02  0.61183920116E+02 -0.20815762920E+03  0.28048512722E+03  0.17300000000E+03 0. -1.
</event>
<event>
 4    1  0.6092738E+000  0.1000000E+03  0.7546771E-02  0.1280296E+00
         21   -1    0    0  501  502  0.00000000000E+00  0.00000000000E+00  0.68267108949E+03  0.68267108949E+03  0.00000000000E+00 0.  1.
         21   -1    0    0  502  503 -0.00000000000E+00 -0.00000000000E+00 -0.12381297942E+03  0.12381297942E+03  0.00000000000E+00 0. -1.
          6    1    1    2  501    0 -0.50502532693E+02  0.47055510328E+02  0.58904376805E+03  0.61779145959E+03  0.17300000000E+03 0.  1.
         -6    1    1    2    0  503  0.50502532693E+02 -0.47055510328E+02 -0.30185657983E+02  0.18869260931E+03  0.17300000000E+03 0. -1.
</event>
<event>
 4    1  0.6092738E+000  0.1000000E+03  0.7546771E-02  0.1280296E+00
         21   -1    0    0  501  502  0.00000000000E+00  0.00000000000E+00  0.11428471632E+04  0.11428471632E+04  0.00000000000E+00 0.  1.
         21   -1    0    0  502  503 -0.00000000000E+00 -0.00000000000E+00 -0.27659174565E+02  0.27659174565E+02  0.00000000000E+00 0. -1.
          6    1    1    2  501    0  0.39140441348E+01 -0.23872013003E+02  0.44861604701E+03  0.48142553981E+03  0.17300000000E+03 0.  1.
         -6    1    1    2    0  503 -0.39140441348E+01  0.23872013003E+02  0.66657194160E+03  0.68908079793E+03  0.17300000000E+03 0. -1.
</event>
<event>
 4    1  0.6092738E+000  0.1000000E+03  0.7546771E-02  0.1280296E+00
         21   -1    0    0  503  502  0.00000000000E+00  0.00000000000E+00  0.29013469204E+03  0.29013469204E+03  0.00000000000E+00 0. -1.
         21   -1    0    0  501  503 -0.00000000000E+00 -0.00000000000E+00 -0.15821757992E+03  0.15821757992E+03  0.00000000000E+00 0.  1.
          6    1    1    2  501    0  0.30981671707E+02  0.70743675621E+02 -0.38729767894E+02  0.19337405861E+03  0.17300000000E+03 0.  1.
         -6    1    1    2    0  502 -0.30981671707E+02 -0.70743675621E+02  0.17064688002E+03  0.25497821335E+03  0.17300000000E+03 0. -1.
</event>
<event>
 4    1  0.6092738E+000  0.1000000E+03  0.7546771E-02  0.1280296E+00
         21   -1    0    0  503  502  0.00000000000E+00  0.00000000000E+00  0.76278956522E+03  0.76278956522E+03  0.00000000000E+00 0. -1.
         21   -1    0    0  501  503 -0.00000000000E+00 -0.00000000000E+00 -0.21257129992E+03  0.21257129992E+03  0.00000000000E+00 0.  1.
          6    1    1    2  501    0  0.13830903031E+02 -0.18053639237E+02 -0.16440726728E+03  0.23974148015E+03  0.17300000000E+03 0.  1.
         -6    1    1    2    0  502 -0.13830903031E+02  0.18053639237E+02  0.71462553257E+03  0.73561938499E+03  0.17300000000E+03 0. -1.
</event>
<event>
 4    1  0.6092738E+000  0.1000000E+03  0.7546771E-02  0.1280296E+00
         21   -1    0    0  501  502  0.00000000000E+00  0.00000000000E+00  0.13252475592E+04  0.13252475592E+04  0.00000000000E+00 0.  1.
         21   -1    0    0  502  503 -0.00000000000E+00 -0.00000000000E+00 -0.88225602297E+02  0.88225602297E+02  0.00000000000E+00 0.  1.
          6    1    1    2  501    0  0.20520214602E+03  0.10300904914E+03  0.10011486077E+04  0.10416075651E+04  0.17300000000E+03 0.  1.
         -6    1    1    2    0  503 -0.20520214602E+03 -0.10300904914E+03  0.23587334923E+03  0.37186559644E+03  0.17300000000E+03 0.  1.
</event>
<event>
 4    1  0.6092738E+000  0.1000000E+03  0.7546771E-02  0.1280296E+00
         21   -1    0    0  501  502  0.00000000000E+00  0.00000000000E+00  0.20445106284E+03  0.20445106284E+03  0.00000000000E+00 0.  1.
         21   -1    0    0  502  503 -0.00000000000E+00 -0.00000000000E+00 -0.23939514639E+03  0.23939514639E+03  0.00000000000E+00 0.  1.
          6    1    1    2  501    0  0.72004798473E+02  0.62447669428E+02  0.82493609856E+02  0.21405279276E+03  0.17300000000E+03 0.  1.
         -6    1    1    2    0  503 -0.72004798473E+02 -0.62447669428E+02 -0.11743769340E+03  0.22979341647E+03  0.17300000000E+03 0.  1.
</event>
<event>
 4    1  0.6092738E+000  0.1000000E+03  0.7546771E-02  0.1280296E+00
         21   -1    0    0  503  502  0.00000000000E+00  0.00000000000E+00  0.87996799277E+03  0.87996799277E+03  0.00000000000E+00 0. -1.
         21   -1    0    0  501  503 -0.00000000000E+00 -0.00000000000E+00 -0.44029829494E+02  0.44029829494E+02  0.00000000000E+00 0. -1.
          6    1    1    2  501    0 -0.83157316959E+02  0.14284424546E+02  0.32129034219E+03  0.37453393456E+03  0.17300000000E+03 0. -1.
         -6    1    1    2    0  502  0.83157316959E+02 -0.14284424546E+02  0.51464782108E+03  0.54946388771E+03  0.17300000000E+03 0. -1.
</event>
<event>
 4    1  0.6092738E+000  0.1000000E+03  0.7546771E-02  0.1280296E+00
         21   -1    0    0  503  502  0.00000000000E+00  0.00000000000E+00  0.23572933679E+03  0.23572933679E+03  0.00000000000E+00 0. -1.
         21   -1    0    0  501  503 -0.00000000000E+00 -0.00000000000E+00 -0.32233268017E+03  0.32233268017E+03  0.00000000000E+00 0. -1.
          6    1    1    2  501    0 -0.10624469021E+03  0.22123491805E+02 -0.23071227593E+03  0.30811448741E+03  0.17300000000E+03 0. -1.
         -6    1    1    2    0  502  0.10624469021E+03 -0.22123491805E+02  0.14410893255E+03  0.24994752955E+03  0.17300000000E+03 0. -1.
</event>
<event>
 4    1  0.6092738E+000  0.1000000E+03  0.7546771E-02  0.1280296E+00
         21   -1    0    0  503  502  0.00000000000E+00  0.00000000000E+00  0.58828764835E+03  0.58828764835E+03  0.00000000000E+00 0. -1.
         21   -1    0    0  501  503 -0.00000000000E+00 -0.00000000000E+00 -0.11069941850E+03  0.11069941850E+03  0.00000000000E+00 0. -1.
          6    1    1    2  501    0 -0.21647727001E+02 -0.11856402062E+03  0.41905158827E+02  0.21496765665E+03  0.17300000000E+03 0. -1.
         -6    1    1    2    0  502  0.21647727001E+02  0.11856402062E+03  0.43568307103E+03  0.48401941020E+03  0.17300000000E+03 0. -1.
</event>
<event>
 4    1  0.6092738E+000  0.1000000E+03  0.7546771E-02  0.1280296E+00
         21   -1    0    0  501  502  0.00000000000E+00  0.00000000000E+00  0.77173296939E+02  0.77173296939E+02  0.00000000000E+00 0. -1.
         21   -1    0    0  502  503 -0.00000000000E+00 -0.00000000000E+00 -0.40964468641E+03  0.40964468641E+03  0.00000000000E+00 0. -1.
          6    1    1    2  501    0  0.15108650535E+02 -0.19155194988E+02 -0.12105002451E+03  0.21254952658E+03  0.17300000000E+03 0. -1.
         -6    1    1    2    0  503 -0.15108650535E+02  0.19155194988E+02 -0.21142136496E+03  0.27426845677E+03  0.17300000000E+03 0. -1.
</event>
<event>
 4    1  0.6092738E+000  0.1000000E+03  0.7546771E-02  0.1280296E+00
         21   -1    0    0  501  502  0.00000000000E+00  0.00000000000E+00  0.74577675124E+03  0.74577675124E+03  0.00000000000E+00 0. -1.
         21   -1    0    0  502  503 -0.00000000000E+00 -0.00000000000E+00 -0.60007509455E+02  0.60007509455E+02  0.00000000000E+00 0. -1.
          6    1    1    2  501    0  0.11440073842E+03  0.67301896431E+01  0.42118680394E+03  0.46953183941E+03  0.17300000000E+03 0. -1.
         -6    1    1    2    0  503 -0.11440073842E+03 -0.67301896431E+01  0.26458243785E+03  0.33625242129E+03  0.17300000000E+03 0. -1.
</event>
<event>
 4    1  0.6092738E+000  0.1000000E+03  0.7546771E-02  0.1280296E+00
         21   -1    0    0  501  502  0.00000000000E+00  0.00000000000E+00  0.12160354816E+03  0.12160354816E+03  0.00000000000E+00 0. -1.
         21   -1    0    0  502  503 -0.00000000000E+00 -0.00000000000E+00 -0.10121562988E+04  0.10121562988E+04  0.00000000000E+00 0. -1.
          6    1    1    2  501    0  0.29202080582E+03 -0.17304827755E+02 -0.30462362605E+03  0.45639912537E+03  0.17300000000E+03 0. -1.
         -6    1    1    2    0  503 -0.29202080582E+03  0.17304827755E+02 -0.58592912454E+03  0.67736072154E+03  0.17300000000E+03 0. -1.
</event>
<event>
 4    1  0.6092738E+000  0.1000000E+03  0.7546771E-02  0.1280296E+00
         21   -1    0    0  503  502  0.00000000000E+00  0.00000000000E+00  0.28994830572E+03  0.28994830572E+03  0.00000000000E+00 0.  1.
         21   -1    0    0  501  503 -0.00000000000E+00 -0.00000000000E+00 -0.18536752447E+03  0.18536752447E+03  0.00000000000E+00 0.  1.
          6    1    1    2  501    0  0.51246069528E+02  0.55689233734E+02 -0.85589536957E+02  0.20732105352E+03  0.17300000000E+03 0. -1.
         -6    1    1    2    0  502 -0.51246069528E+02 -0.55689233734E+02  0.19017031821E+03  0.26799477667E+03  0.17300000000E+03 0. -1.
</event>
<event>
 4    1  0.6092738E+000  0.1000000E+03  0.7546771E-02  0.1280296E+00
         21   -1    0    0  503  502  0.00000000000E+00  0.00000000000E+00  0.25297143295E+03  0.25297143295E+03  0.00000000000E+00 0.  1.
         21   -1    0    0  501  503 -0.00000000000E+00 -0.00000000000E+00 -0.84528366534E+03  0.84528366534E+03  0.00000000000E+00 0.  1.
          6    1    1    2  501    0  0.33875736693E+03  0.16452854168E+03 -0.53974688885E+03  0.68050121139E+03  0.17300000000E+03 0. -1.
         -6    1    1    2    0  502 -0.33875736693E+03 -0.16452854168E+03 -0.52565343546E+02  0.41775388690E+03  0.17300000000E+03 0. -1.
</event>
<event>
 4    1  0.6092738E+000  0.1000000E+03  0.7546771E-02  0.1280296E+00
         21   -1    0    0  501  502  0.00000000000E+00  0.00000000000E+00  0.10928174956E+03  0.10928174956E+03  0.00000000000E+00 0. -1.
         21   -1    0    0  502  503 -0.00000000000E+00 -0.00000000000E+00 -0.30017381524E+03  0.30017381524E+03  0.00000000000E+00 0.  1.
          6    1    1    2  501    0  0.50923083685E+02  0.62680652001E+01 -0.11303286381E+03  0.21292692971E+03  0.17300000000E+03 0. -1.
         -6    1    1    2    0  503 -0.50923083685E+02 -0.62680652001E+01 -0.77859201867E+02  0.19652863509E+03  0.17300000000E+03 0.  1.
</event>
<event>
 4    1  0.6092738E+000  0.1000000E+03  0.7546771E-02  0.1280296E+00
         21   -1    0    0  501  502  0.00000000000E+00  0.00000000000E+00  0.59459130571E+03  0.59459130571E+03  0.00000000000E+00 0. -1.
         21   -1    0    0  502  503 -0.00000000000E+00 -0.00000000000E+00 -0.66061830107E+02  0.66061830107E+02  0.00000000000E+00 0.  1.
          6    1    1    2  501    0 -0.63408481298E+02 -0.26869616202E+02  0.37740665997E+03  0.42084129878E+03  0.17300000000E+03 0. -1.
         -6    1    1    2    0  503  0.63408481298E+02  0.26869616202E+02  0.15112281564E+03  0.23981183703E+03  0.17300000000E+03 0.  1.
</event>
<event>
 4    1  0.6092738E+000  0.1000000E+03  0.7546771E-02  0.1280296E+00
         21   -1    0    0  501  502  0.00000000000E+00  0.00000000000E+00  0.56373042041E+03  0.56373042041E+03  0.00000000000E+00 0.  1.
         21   -1    0    0  502  503 -0.00000000000E+00 -0.00000000000E+00 -0.11648658301E+03  0.11648658301E+03  0.00000000000E+00 0. -1.
          6    1    1    2  501    0 -0.76735023491E+01 -0.13410392359E+03  0.40017389609E+03  0.45619172732E+03  0.17300000000E+03 0. -1.
         -6    1    1    2    0  503  0.76735023491E+01  0.13410392359E+03  0.47069941310E+02  0.22402527611E+03  0.17300000000E+03 0.  1.
</event>
<event>
 4    1  0.6092738E+000  0.1000000E+03  0.7546771E-02  0.1280296E+00
         21   -1    0    0  501  502  0.00000000000E+00  0.00000000000E+00  0.10226752101E+03  0.10226752101E+03  0.00000000000E+00 0.  1.
         21   -1    0    0  502  503 -0.00000000000E+00 -0.00000000000E+00 -0.31807385987E+03  0.31807385987E+03  0.00000000000E+00 0. -1.
          6    1    1    2  501    0  0.31324918187E+02 -0.39136121166E+02 -0.97050272644E+02  0.20459873387E+03  0.17300000000E+03 0. -1.
         -6    1    1    2    0  503 -0.31324918187E+02  0.39136121166E+02 -0.11875606621E+03  0.21574264701E+03  0.17300000000E+03 0.  1.
</event>
<event>
 4    1  0.6092738E+000  0.1000000E+03  0.7546771E-02  0.1280296E+00
         21   -1    0    0  503  502  0.00000000000E+00  0.00000000000E+00  0.46823296999E+03  0.46823296999E+03  0.00000000000E+00 0.  1.
         21   -1    0    0  501  503 -0.00000000000E+00 -0.00000000000E+00 -0.78181807494E+02  0.78181807494E+02  0.00000000000E+00 0.  1.
          6    1    1    2  501    0 -0.24426801685E+02  0.71592014183E+02  0.15086992748E+03  0.24168744310E+03  0.17300000000E+03 0.  1.
         -6    1    1    2    0  502  0.24426801685E+02 -0.71592014183E+02  0.23918123501E+03  0.30472733438E+03  0.17300000000E+03 0.  1.
</event>
<event>
 4    1  0.6092738E+000  0.1000000E+03  0.7546771E-02  0.1280296E+00
         21   -1    0    0  503  502  0.00000000000E+00  0.00000000000E+00  0.21500149595E+03  0.21500149595E+03  0.00000000000E+00 0.  1.
         21   -1    0    0  501  503 -0.00000000000E+00 -0.00000000000E+00 -0.14557699844E+03  0.14557699844E+03  0.00000000000E+00 0.  1.
          6    1    1    2  501    0  0.11763947930E+02 -0.72925482890E+01 -0.27457171913E+00  0.17355300954E+03  0.17300000000E+03 0.  1.
         -6    1    1    2    0  502 -0.11763947930E+02  0.72925482890E+01  0.69699069234E+02  0.18702548485E+03  0.17300000000E+03 0.  1.
</event>
<event>
 4    1  0.6092738E+000  0.1000000E+03  0.7546771E-02  0.1280296E+00
         21   -1    0    0  503  502  0.00000000000E+00  0.00000000000E+00  0.13692546184E+03  0.13692546184E+03  0.00000000000E+00 0.  1.
         21   -1    0    0  501  503 -0.00000000000E+00 -0.00000000000E+00 -0.24672717570E+04  0.24672717570E+04  0.00000000000E+00 0.  1.
          6    1    1    2  501    0 -0.34660379302E+03 -0.42267732247E+02 -0.21312894300E+04  0.21666204986E+04  0.17300000000E+03 0.  1.
         -6    1    1    2    0  502  0.34660379302E+03  0.42267732247E+02 -0.19905686517E+03  0.43757672024E+03  0.17300000000E+03 0.  1.
</event>
<event>
 4    1  0.6092738E+000  0.1000000E+03  0.7546771E-02  0.1280296E+00
         21   -1    0    0  501  502  0.00000000000E+00  0.00000000000E+00  0.50570013673E+02  0.50570013673E+02  0.00000000000E+00 0.  1.
         21   -1    0    0  502  503 -0.00000000000E+00 -0.00000000000E+00 -0.20690033452E+04  0.20690033452E+04  0.00000000000E+00 0.  1.
          6    1    1    2  501    0 -0.23357457150E+02  0.82597159508E+02 -0.15904969311E+03  0.25018726275E+03  0.17300000000E+03 0.  1.
         -6    1    1    2    0  503  0.23357457150E+02 -0.82597159508E+02 -0.18593836384E+04  0.18693860961E+04  0.17300000000E+03 0.  1.
</event>
<event>
 4    1  0.6092738E+000  0.1000000E+03  0.7546771E-02  0.1280296E+00
         21   -1    0    0  503  502  0.00000000000E+00  0.00000000000E+00  0.13307793688E+04  0.13307793688E+04  0.00000000000E+00 0.  1.
         21   -1    0    0  501  503 -0.00000000000E+00 -0.00000000000E+00 -0.10906211198E+03  0.10906211198E+03  0.00000000000E+00 0.  1.
          6    1    1    2  501    0  0.58747466768E+02 -0.26480340377E+03  0.22526325260E+03  0.39273991454E+03  0.17300000000E+03 0.  1.
         -6    1    1    2    0  502 -0.58747466768E+02  0.26480340377E+03  0.99645400422E+03  0.10471015662E+04  0.17300000000E+03 0.  1.
</event>
<event>
 4    1  0.6092738E+000  0.1000000E+03  0.7546771E-02  0.1280296E+00
         21   -1    0    0  501  502  0.00000000000E+00  0.00000000000E+00  0.47539550867E+03  0.47539550867E+03  0.00000000000E+00 0.  1.
         21   -1    0    0  502  503 -0.00000000000E+00 -0.00000000000E+00 -0.16032069215E+03  0.16032069215E+03  0.00000000000E+00 0. -1.
          6    1    1    2  501    0  0.98792564188E+02 -0.84337978516E+02  0.35500100953E+03  0.41572536863E+03  0.17300000000E+03 0.  1.
         -6    1    1    2    0  503 -0.98792564188E+02  0.84337978516E+02 -0.39926193003E+02  0.21999083219E+03  0.17300000000E+03 0. -1.
</event>
<event>
 4    1  0.6092738E+000  0.1000000E+03  0.7546771E-02  0.1280296E+00
         21   -1    0    0  501  502  0.00000000000E+00  0.00000000000E+00  0.89117466252E+02  0.89117466252E+02  0.00000000000E+00 0.  1.
         21   -1    0    0  502  503 -0.00000000000E+00 -0.00000000000E+00 -0.64522996529E+03  0.64522996529E+03  0.00000000000E+00 0. -1.
          6    1    1    2  501    0 -0.27449525057E+02  0.16368860612E+03 -0.28568518679E+03  0.37295101843E+03  0.17300000000E+03 0.  1.
         -6    1    1    2    0  503  0.27449525057E+02 -0.16368860612E+03 -0.27042731225E+03  0.36139641311E+03  0.17300000000E+03 0. -1.
</event>
<event>
 4    1  0.6092738E+000  0.1000000E+03  0.7546771E-02  0.1280296E+00
         21   -1    0    0  501  502  0.00000000000E+00  0.00000000000E+00  0.13345421739E+03  0.13345421739E+03  0.00000000000E+00 0.  1.
         21   -1    0    0  502  503 -0.00000000000E+00 -0.00000000000E+00 -0.64914472764E+03  0.64914472764E+03  0.00000000000E+00 0. -1.
          6    1    1    2  501    0 -0.13559600725E+03 -0.16589918474E+03 -0.11972761008E+03  0.30028739117E+03  0.17300000000E+03 0.  1.
         -6    1    1    2    0  503  0.13559600725E+03  0.16589918474E+03 -0.39596290017E+03  0.48231155386E+03  0.17300000000E+03 0. -1.
</event>
<event>
 4    1  0.6092738E+000  0.1000000E+03  0.7546771E-02  0.1280296E+00
         21   -1    0    0  501  502  0.00000000000E+00  0.00000000000E+00  0.14774957142E+04  0.14774957142E+04  0.00000000000E+00 0.  1.
         21   -1    0    0  502  503 -0.00000000000E+00 -0.00000000000E+00 -0.14455959711E+03  0.14455959711E+03  0.00000000000E+00 0. -1.
          6    1    1    2  501    0  0.13263700224E+03 -0.15852616618E+03  0.13252733432E+04  0.13524058392E+04  0.17300000000E+03 0.  1.
         -6    1    1    2    0  503 -0.13263700224E+03  0.15852616618E+03  0.76627739420E+01  0.26964947215E+03  0.17300000000E+03 0. -1.
</event>
<event>
 4    1  0.6092738E+000  0.1000000E+03  0.7546771E-02  0.1280296E+00
         21   -1    0    0  503  502  0.00000000000E+00  0.00000000000E+00  0.30133317008E+03  0.30133317008E+03  0.00000000000E+00 0. -1.
         21   -1    0    0  501  503 -0.00000000000E+00 -0.00000000000E+00 -0.13858831371E+03  0.13858831371E+03  0.00000000000E+00 0.  1.
          6    1    1    2  501    0 -0.84750809727E+02  0.16784817933E+02  0.10236161842E+02  0.19364454258E+03  0.17300000000E+03 0.  1.
         -6    1    1    2    0  502  0.84750809727E+02 -0.16784817933E+02  0.15250869453E+03  0.24627694121E+03  0.17300000000E+03 0. -1.
</event>
<event>
 4    1  0.6092738E+000  0.1000000E+03  0.7546771E-02  0.1280296E+00
         21   -1    0    0  503  502  0.00000000000E+00  0.00000000000E+00  0.19732916996E+04  0.19732916996E+04  0.00000000000E+00 0. -1.
         21   -1    0    0  501  503 -0.00000000000E+00 -0.00000000000E+00 -0.61952156134E+02  0.61952156134E+02  0.00000000000E+00 0. -1.
          6    1    1    2  501    0  0.11913835233E+03  0.13265275910E+03  0.23961236260E+03  0.34515762458E+03  0.17300000000E+03 0. -1.
         -6    1    1    2    0  502 -0.11913835233E+03 -0.13265275910E+03  0.16717271808E+04  0.16900862311E+04  0.17300000000E+03 0. -1.
</event>
<event>
 4    1  0.6092738E+000  0.1000000E+03  0.7546771E-02  0.1280296E+00
         21   -1    0    0  503  502  0.00000000000E+00  0.00000000000E+00  0.24315316214E+03  0.24315316214E+03  0.00000000000E+00 0. -1.
         21   -1    0    0  501  503 -0.00000000000E+00 -0.00000000000E+00 -0.27049623343E+03  0.27049623343E+03  0.00000000000E+00 0. -1.
          6    1    1    2  501    0 -0.15822966337E+03 -0.15996540645E+02 -0.11653300183E+03  0.26230031681E+03  0.17300000000E+03 0. -1.
         -6    1    1    2    0  502  0.15822966337E+03  0.15996540645E+02  0.89189930539E+02  0.25134907876E+03  0.17300000000E+03 0. -1.
</event>
<event>
 4    1  0.6092738E+000  0.1000000E+03  0.7546771E-02  0.1280296E+00
         21   -1    0    0  503  502  0.00000000000E+00  0.00000000000E+00  0.12524280669E+04  0.12524280669E+04  0.00000000000E+00 0. -1.
         21   -1    0    0  501  503 -0.00000000000E+00 -0.00000000000E+00 -0.45990915299E+02  0.45990915299E+02  0.00000000000E+00 0. -1.
          6    1    1    2  501    0 -0.11841657408E+03  0.88035941949E+01  0.28809306600E+03  0.35640791653E+03  0.17300000000E+03 0. -1.
         -6    1    1    2    0  502  0.11841657408E+03 -0.88035941949E+01  0.91834408560E+03  0.94201106566E+03  0.17300000000E+03 0. -1.
</event>
<event>
 4    1  0.6092738E+000  0.1000000E+03  0.7546771E-02  0.1280296E+00
         21   -1    0    0  503  502  0.00000000000E+00  0.00000000000E+00  0.30255578061E+03  0.30255578061E+03  0.00000000000E+00 0.  1.
         21   -1    0    0  501  503 -0.00000000000E+00 -0.00000000000E+00 -0.49063897774E+03  0.49063897774E+03  0.00000000000E+00 0. -1.
          6    1    1    2  501    0  0.12867909003E+03 -0.20313360842E+03 -0.34763786838E+03  0.45673040036E+03  0.17300000000E+03 0.  1.
         -6    1    1    2    0  502 -0.12867909003E+03  0.20313360842E+03  0.15955467125E+03  0.33646435799E+03  0.17300000000E+03 0. -1.
</event>
<event>
 4    1  0.6092738E+000  0.1000000E+03  0.7546771E-02  0.1280296E+00
         21   -1    0    0  503  502  0.00000000000E+00  0.00000000000E+00  0.86183653462E+03  0.86183653462E+03  0.00000000000E+00 0.  1.
         21   -1    0    0  501  503 -0.00000000000E+00 -0.00000000000E+00 -0.58769809897E+02  0.58769809897E+02  0.00000000000E+00 0. -1.
          6    1    1    2  501    0  0.34379812476E+02  0.13441442431E+03  0.32306891474E+03  0.39185677567E+03  0.17300000000E+03 0.  1.
         -6    1    1    2    0  502 -0.34379812476E+02 -0.13441442431E+03  0.47999780999E+03  0.52874956885E+03  0.17300000000E+03 0. -1.
</event>
<event>
 4    1  0.6092738E+000  0.1000000E+03  0.7546771E-02  0.1280296E+00
         21   -1    0    0  501  502  0.00000000000E+00  0.00000000000E+00  0.80506426530E+02  0.80506426530E+02  0.00000000000E+00 0. -1.
         21   -1    0    0  502  503 -0.00000000000E+00 -0.00000000000E+00 -0.69619064807E+03  0.69619064807E+03  0.00000000000E+00 0. -1.
          6    1    1    2  501    0 -0.88952542810E+02  0.10238965137E+03 -0.16368874113E+03  0.27407881996E+03  0.17300000000E+03 0. -1.
         -6    1    1    2    0  503  0.88952542810E+02 -0.10238965137E+03 -0.45199548041E+03  0.50261825464E+03  0.17300000000E+03 0. -1.
</event>
<event>
 4    1  0.6092738E+000  0.1000000E+03  0.7546771E-02  0.1280296E+00
         21   -1    0    0  501  502  0.00000000000E+00  0.00000000000E+00  0.48558603378E+03  0.48558603378E+03  0.00000000000E+00 0. -1.
         21   -1    0    0  502  503 -0.00000000000E+00 -0.00000000000E+00 -0.73224393873E+02  0.73224393873E+02  0.00000000000E+00 0. -1.
          6    1    1    2  501    0  0.60773932524E+02  0.39641917254E+02  0.17795792989E+03  0.25857876419E+03  0.17300000000E+03 0. -1.
         -6    1    1    2    0  503 -0.60773932524E+02 -0.39641917254E+02  0.23440371001E+03  0.30023166346E+03  0.17300000000E+03 0. -1.
</event>
<event>
 4    1  0.6092738E+000  0.1000000E+03  0.7546771E-02  0.1280296E+00
         21   -1    0    0  501  502  0.00000000000E+00  0.00000000000E+00  0.20106001238E+03  0.20106001238E+03  0.00000000000E+00 0. -1.
         21   -1    0    0  502  503 -0.00000000000E+00 -0.00000000000E+00 -0.20976588551E+03  0.20976588551E+03  0.00000000000E+00 0.  1.
          6    1    1    2  501    0 -0.10483484202E+03 -0.29394977458E+02 -0.24159473533E+02  0.20583267224E+03  0.17300000000E+03 0. -1.
         -6    1    1    2    0  503  0.10483484202E+03  0.29394977458E+02  0.15453600402E+02  0.20499322566E+03  0.17300000000E+03 0. -1.
</event>
<event>
 4    1  0.6092738E+000  0.1000000E+03  0.7546771E-02  0.1280296E+00
         21   -1    0    0  501  502  0.00000000000E+00  0.00000000000E+00  0.95842364775E+03  0.95842364775E+03  0.00000000000E+00 0. -1.
         21   -1    0    0  502  503 -0.00000000000E+00 -0.00000000000E+00 -0.19092869211E+03  0.19092869211E+03  0.00000000000E+00 0.  1.
          6    1    1    2  501    0  0.73828329431E+02 -0.62451724367E+02  0.89302373836E+03  0.91475200868E+03  0.17300000000E+03 0.  1.
         -6    1    1    2    0  503 -0.73828329431E+02  0.62451724367E+02 -0.12552878272E+03  0.23460033119E+03  0.17300000000E+03 0. -1.
</event>
<event>
 4    1  0.6092738E+000  0.1000000E+03  0.7546771E-02  0.1280296E+00
         21   -1    0    0  501  502  0.00000000000E+00  0.00000000000E+00  0.10018538981E+04  0.10018538981E+04  0.00000000000E+00 0. -1.
         21   -1    0    0  502  503 -0.00000000000E+00 -0.00000000000E+00 -0.51283560566E+03  0.51283560566E+03  0.00000000000E+00 0.  1.
          6    1    1    2  501    0  0.15295498800E+03 -0.42749394145E+03  0.80130875443E+03  0.93710779436E+03  0.17300000000E+03 0.  1.
         -6    1    1    2    0  503 -0.15295498800E+03  0.42749394145E+03 -0.31229046202E+03  0.57758170937E+03  0.17300000000E+03 0. -1.
</event>
<event>
 4    1  0.6092738E+000  0.1000000E+03  0.7546771E-02  0.1280296E+00
         21   -1    0    0  501  502  0.00000000000E+00  0.00000000000E+00  0.92149450603E+03  0.92149450603E+03  0.00000000000E+00 0. -1.
         21   -1    0    0  502  503 -0.00000000000E+00 -0.00000000000E+00 -0.10688946808E+03  0.10688946808E+03  0.00000000000E+00 0.  1.
          6    1    1    2  501    0 -0.19821753995E+03 -0.10763481357E+03  0.62523387103E+03  0.68682009269E+03  0.17300000000E+03 0.  1.
         -6    1    1    2    0  503  0.19821753995E+03  0.10763481357E+03  0.18937116691E+03  0.34156388142E+03  0.17300000000E+03 0. -1.
</event>
<event>
 4    1  0.6092738E+000  0.1000000E+03  0.7546771E-02  0.1280296E+00
         21   -1    0    0  501  502  0.00000000000E+00  0.00000000000E+00  0.38335080553E+03  0.38335080553E+03  0.00000000000E+00 0. -1.
         21   -1    0    0  502  503 -0.00000000000E+00 -0.00000000000E+00 -0.85101028546E+03  0.85101028546E+03  0.00000000000E+00 0. -1.
          6    1    1    2  501    0  0.28914037576E+03 -0.38457095456E+03  0.41254669372E+02  0.51295996309E+03  0.17300000000E+03 0. -1.
         -6    1    1    2    0  503 -0.28914037576E+03  0.38457095456E+03 -0.50891414930E+03  0.72140112790E+03  0.17300000000E+03 0. -1.
</event>
<event>
 4    1  0.6092738E+000  0.1000000E+03  0.7546771E-02  0.1280296E+00
         21   -1    0    0  501  502  0.00000000000E+00  0.00000000000E+00  0.16402604098E+03  0.16402604098E+03  0.00000000000E+00 0. -1.
         21   -1    0    0  502  503 -0.00000000000E+00 -0.00000000000E+00 -0.22470076176E+03  0.22470076176E+03  0.00000000000E+00 0. -1.
          6    1    1    2  501    0 -0.12345846899E+02 -0.64172858332E+02  0.21850319993E+02  0.18621764730E+03  0.17300000000E+03 0. -1.
         -6    1    1    2    0  503  0.12345846899E+02  0.64172858332E+02 -0.82525040777E+02  0.20250915544E+03  0.17300000000E+03 0. -1.
</event>
<event>
 4    1  0.6092738E+000  0.1000000E+03  0.7546771E-02  0.1280296E+00
         21   -1    0    0  501  502  0.00000000000E+00  0.00000000000E+00  0.52950745616E+03  0.52950745616E+03  0.00000000000E+00 0. -1.
         21   -1    0    0  502  503 -0.00000000000E+00 -0.00000000000E+00 -0.99908986496E+02  0.99908986496E+02  0.00000000000E+00 0. -1.
          6    1    1    2  501    0  0.76651756221E+02  0.11588523610E+03  0.29767438141E+03  0.37127337237E+03  0.17300000000E+03 0. -1.
         -6    1    1    2    0  503 -0.76651756221E+02 -0.11588523610E+03  0.13192408825E+03  0.25814307029E+03  0.17300000000E+03 0. -1.
</event>
<event>
 4    1  0.6092738E+000  0.1000000E+03  0.7546771E-02  0.1280296E+00
         21   -1    0    0  501  502  0.00000000000E+00  0.00000000000E+00  0.13828259104E+04  0.13828259104E+04  0.00000000000E+00 0. -1.
         21   -1    0    0  502  503 -0.00000000000E+00 -0.00000000000E+00 -0.33575637691E+02  0.33575637691E+02  0.00000000000E+00 0. -1.
          6    1    1    2  501    0  0.78784172395E+02 -0.19561115872E+02  0.10018243159E+04  0.10198875148E+04  0.17300000000E+03 0. -1.
         -6    1    1    2    0  503 -0.78784172395E+02  0.19561115872E+02  0.34742595686E+03  0.39651403326E+03  0.17300000000E+03 0. -1.
</event>
<event>
 4    1  0.6092738E+000  0.1000000E+03  0.7546771E-02  0.1280296E+00
         21   -1    0    0  501  502  0.00000000000E+00  0.00000000000E+00  0.84963534090E+03  0.84963534090E+03  0.00000000000E+00 0. -1.
         21   -1    0    0  502  503 -0.00000000000E+00 -0.00000000000E+00 -0.22813250842E+03  0.22813250842E+03  0.00000000000E+00 0. -1.
          6    1    1    2  501    0 -0.34830447132E+03  0.47472228699E+02  0.55656388327E+03  0.68063350887E+03  0.17300000000E+03 0. -1.
         -6    1    1    2    0  503  0.34830447132E+03 -0.47472228699E+02  0.64938949219E+02  0.39713434045E+03  0.17300000000E+03 0. -1.
</event>
<event>
 4    1  0.6092738E+000  0.1000000E+03  0.7546771E-02  0.1280296E+00
         21   -1    0    0  501  502  0.00000000000E+00  0.00000000000E+00  0.11254751863E+04  0.11254751863E+04  0.00000000000E+00 0. -1.
         21   -1    0    0  502  503 -0.00000000000E+00 -0.00000000000E+00 -0.23409963974E+03  0.23409963974E+03  0.00000000000E+00 0.  1.
          6    1    1    2  501    0  0.39235458582E+03 -0.18601761150E+03  0.72662507952E+03  0.86397782320E+03  0.17300000000E+03 0. -1.
         -6    1    1    2    0  503 -0.39235458582E+03  0.18601761150E+03  0.16475046700E+03  0.49559700279E+03  0.17300000000E+03 0.  1.
</event>
<event>
 4    1  0.6092738E+000  0.1000000E+03  0.7546771E-02  0.1280296E+00
         21   -1    0    0  503  502  0.00000000000E+00  0.00000000000E+00  0.69364914014E+03  0.69364914014E+03  0.00000000000E+00 0. -1.
         21   -1    0    0  501  503 -0.00000000000E+00 -0.00000000000E+00 -0.68055123744E+02  0.68055123744E+02  0.00000000000E+00 0. -1.
          6    1    1    2  501    0  0.69512934608E+02 -0.10304554358E+03  0.23787336296E+03  0.31931672198E+03  0.17300000000E+03 0. -1.
         -6    1    1    2    0  502 -0.69512934608E+02  0.10304554358E+03  0.38772065343E+03  0.44238754190E+03  0.17300000000E+03 0. -1.
</event>
<event>
 4    1  0.6092738E+000  0.1000000E+03  0.7546771E-02  0.1280296E+00
         21   -1    0    0  503  502  0.00000000000E+00  0.00000000000E+00  0.18459497072E+03  0.18459497072E+03  0.00000000000E+00 0. -1.
         21   -1    0    0  501  503 -0.00000000000E+00 -0.00000000000E+00 -0.32174312312E+03  0.32174312312E+03  0.00000000000E+00 0. -1.
          6    1    1    2  501    0  0.25723280408E+02 -0.11931314711E+03 -0.19394993679E+03  0.28712870321E+03  0.17300000000E+03 0. -1.
         -6    1    1    2    0  502 -0.25723280408E+02  0.11931314711E+03  0.56801784385E+02  0.21920939062E+03  0.17300000000E+03 0. -1.
</event>
<event>
 4    1  0.6092738E+000  0.1000000E+03  0.7546771E-02  0.1280296E+00
         21   -1    0    0  503  502  0.00000000000E+00  0.00000000000E+00  0.51472234366E+03  0.51472234366E+03  0.00000000000E+00 0. -1.
         21   -1    0    0  501  503 -0.00000000000E+00 -0.00000000000E+00 -0.13631473739E+03  0.13631473739E+03  0.00000000000E+00 0. -1.
          6    1    1    2  501    0  0.17951842713E+03 -0.77787168929E+02  0.13483218933E+03  0.29391568282E+03  0.17300000000E+03 0. -1.
         -6    1    1    2    0  502 -0.17951842713E+03  0.77787168929E+02  0.24357541694E+03  0.35712139822E+03  0.17300000000E+03 0. -1.
</event>
<event>
 4    1  0.6092738E+000  0.1000000E+03  0.7546771E-02  0.1280296E+00
         21   -1    0    0  503  502  0.00000000000E+00  0.00000000000E+00  0.14329289529E+03  0.14329289529E+03  0.00000000000E+00 0. -1.
         21   -1    0    0  501  503 -0.00000000000E+00 -0.00000000000E+00 -0.21915079052E+03  0.21915079052E+03  0.00000000000E+00 0. -1.
          6    1    1    2  501    0 -0.84476941832E+01 -0.24560861067E+02 -0.66838498592E+02  0.18727248684E+03  0.17300000000E+03 0. -1.
         -6    1    1    2    0  502  0.84476941832E+01  0.24560861067E+02 -0.90193966417E+01  0.17517119897E+03  0.17300000000E+03 0. -1.
</event>
<event>
 4    1  0.6092738E+000  0.1000000E+03  0.7546771E-02  0.1280296E+00
         21   -1    0    0  503  502  0.00000000000E+00  0.00000000000E+00  0.11599797606E+03  0.11599797606E+03  0.00000000000E+00 0. -1.
         21   -1    0    0  501  503 -0.00000000000E+00 -0.00000000000E+00 -0.42089509434E+03  0.42089509434E+03  0.00000000000E+00 0. -1.
          6    1    1    2  501    0  0.35448771486E+02  0.12447354159E+03 -0.20869923990E+03  0.30039082990E+03  0.17300000000E+03 0. -1.
         -6    1    1    2    0  502 -0.35448771486E+02 -0.12447354159E+03 -0.96197878384E+02  0.23650224050E+03  0.17300000000E+03 0. -1.
</event>
<event>
 4    1  0.6092738E+000  0.1000000E+03  0.7546771E-02  0.1280296E+00
         21   -1    0    0  503  502  0.00000000000E+00  0.00000000000E+00  0.58814713677E+03  0.58814713677E+03  0.00000000000E+00 0.  1.
         21   -1    0    0  501  503 -0.00000000000E+00 -0.00000000000E+00 -0.40662594282E+03  0.40662594282E+03  0.00000000000E+00 0.  1.
          6    1    1    2  501    0 -0.22687814562E+03 -0.38717314369E+03  0.18087462676E+03  0.51383009523E+03  0.17300000000E+03 0.  1.
         -6    1    1    2    0  502  0.22687814562E+03  0.38717314369E+03  0.64656718854E+00  0.48094298436E+03  0.17300000000E+03 0.  1.
</event>
<event>
 4    1  0.6092738E+000  0.1000000E+03  0.7546771E-02  0.1280296E+00
         21   -1    0    0  503  502  0.00000000000E+00  0.00000000000E+00  0.70084487340E+03  0.70084487340E+03  0.00000000000E+00 0.  1.
         21   -1    0    0  501  503 -0.00000000000E+00 -0.00000000000E+00 -0.64305614742E+02  0.64305614742E+02  0.00000000000E+00 0.  1.
          6    1    1    2  501    0  0.37097452211E+02 -0.11078568036E+03  0.24871720251E+03  0.32471361960E+03  0.17300000000E+03 0.  1.
         -6    1    1    2    0  502 -0.37097452211E+02  0.11078568036E+03  0.38782205616E+03  0.44043686855E+03  0.17300000000E+03 0.  1.
</event>
<event>
 4    1  0.6092738E+000  0.1000000E+03  0.7546771E-02  0.1280296E+00
         21   -1    0    0  501  502  0.00000000000E+00  0.00000000000E+00  0.37115544005E+03  0.37115544005E+03  0.00000000000E+00 0. -1.
         21   -1    0    0  502  503 -0.00000000000E+00 -0.00000000000E+00 -0.62286323927E+03  0.62286323927E+03  0.00000000000E+00 0.  1.
          6    1    1    2  501    0 -0.17832880801E+03 -0.72060705722E+02  0.29308542819E+03  0.39092451610E+03  0.17300000000E+03 0. -1.
         -6    1    1    2    0  503  0.17832880801E+03  0.72060705722E+02 -0.54479322741E+03  0.60309416322E+03  0.17300000000E+03 0.  1.
</event>
<event>
 4    1  0.6092738E+000  0.1000000E+03  0.7546771E-02  0.1280296E+00
         21   -1    0    0  503  502  0.00000000000E+00  0.00000000000E+00  0.95219978547E+02  0.95219978547E+02  0.00000000000E+00 0. -1.
         21   -1    0    0  501  503 -0.00000000000E+00 -0.00000000000E+00 -0.52527908277E+03  0.52527908277E+03  0.00000000000E+00 0. -1.
          6    1    1    2  501    0 -0.13513933555E+03  0.25806247836E+02 -0.16779280002E+03  0.27751040733E+03  0.17300000000E+03 0. -1.
         -6    1    1    2    0  502  0.13513933555E+03 -0.25806247836E+02 -0.26226630420E+03  0.34298865398E+03  0.17300000000E+03 0. -1.
</event>
<event>
 4    1  0.6092738E+000  0.1000000E+03  0.7546771E-02  0.1280296E+00
         21   -1    0    0  503  502  0.00000000000E+00  0.00000000000E+00  0.31028681112E+03  0.31028681112E+03  0.00000000000E+00 0. -1.
         21   -1    0    0  501  503 -0.00000000000E+00 -0.00000000000E+00 -0.24284667075E+03  0.24284667075E+03  0.00000000000E+00 0. -1.
          6    1    1    2  501    0  0.71733805322E+02 -0.51048342948E+02 -0.16183017624E+03  0.25272451026E+03  0.17300000000E+03 0. -1.
         -6    1    1    2    0  502 -0.71733805322E+02  0.51048342948E+02  0.22927031662E+03  0.30040897161E+03  0.17300000000E+03 0. -1.
</event>
<event>
 4    1  0.6092738E+000  0.1000000E+03  0.7546771E-02  0.1280296E+00
         21   -1    0    0  503  502  0.00000000000E+00  0.00000000000E+00  0.12997797136E+04  0.12997797136E+04  0.00000000000E+00 0. -1.
         21   -1    0    0  501  503 -0.00000000000E+00 -0.00000000000E+00 -0.31624460785E+02  0.31624460785E+02  0.00000000000E+00 0. -1.
          6    1    1    2  501    0  0.76867592013E+02 -0.23204296679E+02  0.85986903428E+03  0.88076717820E+03  0.17300000000E+03 0. -1.
         -6    1    1    2    0  502 -0.76867592013E+02  0.23204296679E+02  0.40828621857E+03  0.45063699622E+03  0.17300000000E+03 0. -1.
</event>
<event>
 4    1  0.6092738E+000  0.1000000E+03  0.7546771E-02  0.1280296E+00
         21   -1    0    0  503  502  0.00000000000E+00  0.00000000000E+00  0.79823631324E+02  0.79823631324E+02  0.00000000000E+00 0. -1.
         21   -1    0    0  501  503 -0.00000000000E+00 -0.00000000000E+00 -0.93808473529E+03  0.93808473529E+03  0.00000000000E+00 0. -1.
          6    1    1    2  501    0 -0.99592053762E+02 -0.24422281662E+02 -0.77427945090E+03  0.79997043264E+03  0.17300000000E+03 0. -1.
         -6    1    1    2    0  502  0.99592053762E+02  0.24422281662E+02 -0.83981653070E+02  0.21793793398E+03  0.17300000000E+03 0. -1.
</event>
<event>
 4    1  0.6092738E+000  0.1000000E+03  0.7546771E-02  0.1280296E+00
         21   -1    0    0  501  502  0.00000000000E+00  0.00000000000E+00  0.40819332093E+02  0.40819332093E+02  0.00000000000E+00 0.  1.
         21   -1    0    0  502  503 -0.00000000000E+00 -0.00000000000E+00 -0.11669008382E+04  0.11669008382E+04  0.00000000000E+00 0. -1.
          6    1    1    2  501    0  0.24629736686E+02  0.15217148024E+02 -0.20372303103E+03  0.26883128333E+03  0.17300000000E+03 0. -1.
         -6    1    1    2    0  503 -0.24629736686E+02 -0.15217148024E+02 -0.92235847508E+03  0.93888888697E+03  0.17300000000E+03 0.  1.
</event>
<event>
 4    1  0.6092738E+000  0.1000000E+03  0.7546771E-02  0.1280296E+00
         21   -1    0    0  501  502  0.00000000000E+00  0.00000000000E+00  0.27049435225E+03  0.27049435225E+03  0.00000000000E+00 0.  1.
         21   -1    0    0  502  503 -0.00000000000E+00 -0.00000000000E+00 -0.11308948192E+03  0.11308948192E+03  0.00000000000E+00 0. -1.
          6    1    1    2  501    0 -0.71262218890E+01  0.77979769541E-01  0.10579209849E+03  0.20290824829E+03  0.17300000000E+03 0. -1.
         -6    1    1    2    0  503  0.71262218890E+01 -0.77979769541E-01  0.51612771831E+02  0.18067558589E+03  0.17300000000E+03 0.  1.
</event>
<event>
 4    1  0.6092738E+000  0.1000000E+03  0.7546771E-02  0.1280296E+00
         21   -1    0    0  501  502  0.00000000000E+00  0.00000000000E+00  0.26248370802E+03  0.26248370802E+03  0.00000000000E+00 0. -1.
         21   -1    0    0  502  503 -0.00000000000E+00 -0.00000000000E+00 -0.85925546010E+03  0.85925546010E+03  0.00000000000E+00 0. -1.
          6    1    1    2  501    0 -0.27320082456E+03  0.66056415965E+02  0.10490312490E+03  0.34631749341E+03  0.17300000000E+03 0. -1.
         -6    1    1    2    0  503  0.27320082456E+03 -0.66056415965E+02 -0.70167487698E+03  0.77542167471E+03  0.17300000000E+03 0. -1.
</event>
<event>
 4    1  0.6092738E+000  0.1000000E+03  0.7546771E-02  0.1280296E+00
         21   -1    0    0  501  502  0.00000000000E+00  0.00000000000E+00  0.18319971609E+03  0.18319971609E+03  0.00000000000E+00 0. -1.
         21   -1    0    0  502  503 -0.00000000000E+00 -0.00000000000E+00 -0.64094509320E+03  0.64094509320E+03  0.00000000000E+00 0. -1.
          6    1    1    2  501    0  0.12995300517E+03 -0.13727277398E+03  0.44716775665E+02  0.26011572051E+03  0.17300000000E+03 0. -1.
         -6    1    1    2    0  503 -0.12995300517E+03  0.13727277398E+03 -0.50246215277E+03  0.56402908879E+03  0.17300000000E+03 0. -1.
</event>
<event>
 4    1  0.6092738E+000  0.1000000E+03  0.7546771E-02  0.1280296E+00
         21   -1    0    0  501  502  0.00000000000E+00  0.00000000000E+00  0.27068806460E+03  0.27068806460E+03  0.00000000000E+00 0. -1.
         21   -1    0    0  502  503 -0.00000000000E+00 -0.00000000000E+00 -0.25226798420E+03  0.25226798420E+03  0.00000000000E+00 0. -1.
          6    1    1    2  501    0  0.11205245172E+03 -0.55138370297E+02  0.16017100948E+03  0.26679532247E+03  0.17300000000E+03 0. -1.
         -6    1    1    2    0  503 -0.11205245172E+03  0.55138370297E+02 -0.14175092907E+03  0.25616072632E+03  0.17300000000E+03 0. -1.
</event>
<event>
 4    1  0.6092738E+000  0.1000000E+03  0.7546771E-02  0.1280296E+00
         21   -1    0    0  503  502  0.00000000000E+00  0.00000000000E+00  0.39952268288E+03  0.39952268288E+03  0.00000000000E+00 0. -1.
         21   -1    0    0  501  503 -0.00000000000E+00 -0.00000000000E+00 -0.89609806379E+02  0.89609806379E+02  0.00000000000E+00 0. -1.
          6    1    1    2  501    0  0.48895605006E+02 -0.47298727827E+02  0.10936396043E+03  0.21567898758E+03  0.17300000000E+03 0. -1.
         -6    1    1    2    0  502 -0.48895605006E+02  0.47298727827E+02  0.20054891607E+03  0.27345350168E+03  0.17300000000E+03 0. -1.
</event>
<event>
 4    1  0.6092738E+000  0.1000000E+03  0.7546771E-02  0.1280296E+00
         21   -1    0    0  501  502  0.00000000000E+00  0.00000000000E+00  0.56852720983E+02  0.56852720983E+02  0.00000000000E+00 0.  1.
         21   -1    0    0  502  503 -0.00000000000E+00 -0.00000000000E+00 -0.87679196336E+03  0.87679196336E+03  0.00000000000E+00 0. -1.
          6    1    1    2  501    0  0.29199482439E+00  0.56606452111E+02 -0.13965088368E+03  0.22942481338E+03  0.17300000000E+03 0.  1.
         -6    1    1    2    0  503 -0.29199482439E+00 -0.56606452111E+02 -0.68028835870E+03  0.70421987097E+03  0.17300000000E+03 0. -1.
</event>
<event>
 4    1  0.6092738E+000  0.1000000E+03  0.7546771E-02  0.1280296E+00
         21   -1    0    0  501  502  0.00000000000E+00  0.00000000000E+00  0.17766323815E+03  0.17766323815E+03  0.00000000000E+00 0.  1.
         21   -1    0    0  502  503 -0.00000000000E+00 -0.00000000000E+00 -0.53550286580E+03  0.53550286580E+03  0.00000000000E+00 0. -1.
          6    1    1    2  501    0  0.25809957935E+02 -0.25206316110E+03 -0.14221267834E+03  0.33816480744E+03  0.17300000000E+03 0.  1.
         -6    1    1    2    0  503 -0.25809957935E+02  0.25206316110E+03 -0.21562694931E+03  0.37500129651E+03  0.17300000000E+03 0. -1.
</event>
<event>
 4    1  0.6092738E+000  0.1000000E+03  0.7546771E-02  0.1280296E+00
         21   -1    0    0  501  502  0.00000000000E+00  0.00000000000E+00  0.20322940941E+03  0.20322940941E+03  0.00000000000E+00 0.  1.
         21   -1    0    0  502  503 -0.00000000000E+00 -0.00000000000E+00 -0.16520085782E+04  0.16520085782E+04  0.00000000000E+00 0. -1.
          6    1    1    2  501    0  0.54409640047E+03 -0.90378897136E+01 -0.88194139913E+03  0.10506532292E+04  0.17300000000E+03 0.  1.
         -6    1    1    2    0  503 -0.54409640047E+03  0.90378897136E+01 -0.56683776971E+03  0.80458475850E+03  0.17300000000E+03 0. -1.
</event>
<event>
 4    1  0.6092738E+000  0.1000000E+03  0.7546771E-02  0.1280296E+00
         21   -1    0    0  503  502  0.00000000000E+00  0.00000000000E+00  0.37083302103E+02  0.37083302103E+02  0.00000000000E+00 0. -1.
         21   -1    0    0  501  503 -0.00000000000E+00 -0.00000000000E+00 -0.22883886476E+04  0.22883886476E+04  0.00000000000E+00 0. -1.
          6    1    1    2  501    0  0.18140788747E+03  0.62388533859E+02 -0.16631003387E+04  0.16830427467E+04  0.17300000000E+03 0. -1.
         -6    1    1    2    0  502 -0.18140788747E+03 -0.62388533859E+02 -0.58820500685E+03  0.64242920301E+03  0.17300000000E+03 0. -1.
</event>
<event>
 4    1  0.6092738E+000  0.1000000E+03  0.7546771E-02  0.1280296E+00
         21   -1    0    0  503  502  0.00000000000E+00  0.00000000000E+00  0.16462013835E+03  0.16462013835E+03  0.00000000000E+00 0. -1.
         21   -1    0    0  501  503 -0.00000000000E+00 -0.00000000000E+00 -0.92041401750E+03  0.92041401750E+03  0.00000000000E+00 0. -1.
          6    1    1    2  501    0  0.11268906259E+03 -0.57539744020E+02 -0.83076451121E+03  0.85796755187E+03  0.17300000000E+03 0. -1.
         -6    1    1    2    0  502 -0.11268906259E+03  0.57539744020E+02  0.74970632057E+02  0.22706660398E+03  0.17300000000E+03 0. -1.
</event>
<event>
 4    1  0.6092738E+000  0.1000000E+03  0.7546771E-02  0.1280296E+00
         21   -1    0    0  503  502  0.00000000000E+00  0.00000000000E+00  0.57737550983E+02  0.57737550983E+02  0.00000000000E+00 0. -1.
         21   -1    0    0  501  503 -0.00000000000E+00 -0.00000000000E+00 -0.84021304028E+03  0.84021304028E+03  0.00000000000E+00 0. -1.
          6    1    1    2  501    0  0.83229528059E+02  0.10795380488E+03 -0.38860750450E+03  0.44668330043E+03  0.17300000000E+03 0. -1.
         -6    1    1    2    0  502 -0.83229528059E+02 -0.10795380488E+03 -0.39386798480E+03  0.45126729084E+03  0.17300000000E+03 0. -1.
</event>
<event>
 4    1  0.6092738E+000  0.1000000E+03  0.7546771E-02  0.1280296E+00
         21   -1    0    0  503  502  0.00000000000E+00  0.00000000000E+00  0.26688924432E+02  0.26688924432E+02  0.00000000000E+00 0. -1.
         21   -1    0    0  501  503 -0.00000000000E+00 -0.00000000000E+00 -0.19514869474E+04  0.19514869474E+04  0.00000000000E+00 0. -1.
          6    1    1    2  501    0  0.27991273600E+02 -0.14549715386E+03 -0.90093068217E+03  0.92927822919E+03  0.17300000000E+03 0. -1.
         -6    1    1    2    0  502 -0.27991273600E+02  0.14549715386E+03 -0.10238673408E+04  0.10488976426E+04  0.17300000000E+03 0. -1.
</event>
<event>
 4    1  0.6092738E+000  0.1000000E+03  0.7546771E-02  0.1280296E+00
         21   -1    0    0  503  502  0.00000000000E+00  0.00000000000E+00  0.11014587647E+03  0.11014587647E+03  0.00000000000E+00 0. -1.
         21   -1    0    0  501  503 -0.00000000000E+00 -0.00000000000E+00 -0.76389110730E+03  0.76389110730E+03  0.00000000000E+00 0. -1.
          6    1    1    2  501    0  0.89159579944E+02  0.71563449411E+02 -0.63245654590E+03  0.66558323329E+03  0.17300000000E+03 0. -1.
         -6    1    1    2    0  502 -0.89159579944E+02 -0.71563449411E+02 -0.21288684935E+02  0.20845375049E+03  0.17300000000E+03 0. -1.
</event>
<event>
 4    1  0.6092738E+000  0.1000000E+03  0.7546771E-02  0.1280296E+00
         21   -1    0    0  503  502  0.00000000000E+00  0.00000000000E+00  0.91831106427E+03  0.91831106427E+03  0.00000000000E+00 0.  1.
         21   -1    0    0  501  503 -0.00000000000E+00 -0.00000000000E+00 -0.54078408304E+02  0.54078408304E+02  0.00000000000E+00 0. -1.
          6    1    1    2  501    0 -0.57686479520E+02 -0.66540087249E+02  0.19335272286E+03  0.27398830006E+03  0.17300000000E+03 0. -1.
         -6    1    1    2    0  502  0.57686479520E+02  0.66540087249E+02  0.67087993310E+03  0.69840117251E+03  0.17300000000E+03 0.  1.
</event>
<event>
 4    1  0.6092738E+000  0.1000000E+03  0.7546771E-02  0.1280296E+00
         21   -1    0    0  503  502  0.00000000000E+00  0.00000000000E+00  0.51705187979E+03  0.51705187979E+03  0.00000000000E+00 0.  1.
         21   -1    0    0  501  503 -0.00000000000E+00 -0.00000000000E+00 -0.16915801828E+03  0.16915801828E+03  0.00000000000E+00 0. -1.
          6    1    1    2  501    0 -0.81136142212E+01  0.69282160373E+02 -0.92303064601E+02  0.20812184945E+03  0.17300000000E+03 0. -1.
         -6    1    1    2    0  502  0.81136142212E+01 -0.69282160373E+02  0.44019692612E+03  0.47808804863E+03  0.17300000000E+03 0.  1.
</event>
<event>
 4    1  0.6092738E+000  0.1000000E+03  0.7546771E-02  0.1280296E+00
         21   -1    0    0  503  502  0.00000000000E+00  0.00000000000E+00  0.56241435531E+03  0.56241435531E+03  0.00000000000E+00 0.  1.
         21   -1    0    0  501  503 -0.00000000000E+00 -0.00000000000E+00 -0.15717137820E+03  0.15717137820E+03  0.00000000000E+00 0. -1.
          6    1    1    2  501    0  0.25434145272E+02  0.13746843991E+03 -0.36123923919E+02  0.22534064346E+03  0.17300000000E+03 0. -1.
         -6    1    1    2    0  502 -0.25434145272E+02 -0.13746843991E+03  0.44136690103E+03  0.49424509005E+03  0.17300000000E+03 0.  1.
</event>
<event>
 4    1  0.6092738E+000  0.1000000E+03  0.7546771E-02  0.1280296E+00
         21   -1    0    0  501  502  0.00000000000E+00  0.00000000000E+00  0.20808723499E+04  0.20808723499E+04  0.00000000000E+00 0. -1.
         21   -1    0    0  502  503 -0.00000000000E+00 -0.00000000000E+00 -0.13643791026E+03  0.13643791026E+03  0.00000000000E+00 0.  1.
          6    1    1    2  501    0  0.11748521826E+03 -0.39198808326E+03  0.15842477872E+04  0.16453654565E+04  0.17300000000E+03 0. -1.
         -6    1    1    2    0  503 -0.11748521826E+03  0.39198808326E+03  0.36018665243E+03  0.57194480373E+03  0.17300000000E+03 0.  1.
</event>
<event>
 4    1  0.6092738E+000  0.1000000E+03  0.7546771E-02  0.1280296E+00
         21   -1    0    0  503  502  0.00000000000E+00  0.00000000000E+00  0.92182524493E+02  0.92182524493E+02  0.00000000000E+00 0. -1.
         21   -1    0    0  501  503 -0.00000000000E+00 -0.00000000000E+00 -0.63514936301E+03  0.63514936301E+03  0.00000000000E+00 0. -1.
          6    1    1    2  501    0  0.35814609975E+02 -0.99364851081E+02 -0.47010199744E+03  0.51193842200E+03  0.17300000000E+03 0. -1.
         -6    1    1    2    0  502 -0.35814609975E+02  0.99364851081E+02 -0.72864841075E+02  0.21539346551E+03  0.17300000000E+03 0. -1.
</event>
<event>
 4    1  0.6092738E+000  0.1000000E+03  0.7546771E-02  0.1280296E+00
         21   -1    0    0  503  502  0.00000000000E+00  0.00000000000E+00  0.90125914015E+03  0.90125914015E+03  0.00000000000E+00 0. -1.
         21   -1    0    0  501  503 -0.00000000000E+00 -0.00000000000E+00 -0.37680124748E+02  0.37680124748E+02  0.00000000000E+00 0. -1.
          6    1    1    2  501    0  0.38965948619E+02  0.20128618127E+01  0.30420318430E+03  0.35212352109E+03  0.17300000000E+03 0. -1.
         -6    1    1    2    0  502 -0.38965948619E+02 -0.20128618127E+01  0.55937583110E+03  0.58681574381E+03  0.17300000000E+03 0. -1.
</event>
<event>
 4    1  0.6092738E+000  0.1000000E+03  0.7546771E-02  0.1280296E+00
         21   -1    0    0  503  502  0.00000000000E+00  0.00000000000E+00  0.86158650844E+03  0.86158650844E+03  0.00000000000E+00 0. -1.
         21   -1    0    0  501  503 -0.00000000000E+00 -0.00000000000E+00 -0.58338643679E+02  0.58338643679E+02  0.00000000000E+00 0. -1.
          6    1    1    2  501    0  0.96498103859E+02  0.33061447798E+02  0.19718381479E+03  0.28145230537E+03  0.17300000000E+03 0. -1.
         -6    1    1    2    0  502 -0.96498103859E+02 -0.33061447798E+02  0.60606404997E+03  0.63847284675E+03  0.17300000000E+03 0. -1.
</event>
<event>
 4    1  0.6092738E+000  0.1000000E+03  0.7546771E-02  0.1280296E+00
         21   -1    0    0  503  502  0.00000000000E+00  0.00000000000E+00  0.29780950712E+04  0.29780950712E+04  0.00000000000E+00 0. -1.
         21   -1    0    0  501  503 -0.00000000000E+00 -0.00000000000E+00 -0.13152518712E+02  0.13152518712E+02  0.00000000000E+00 0. -1.
          6    1    1    2  501    0 -0.90691796517E+02 -0.69367733358E+01  0.12474343849E+04  0.12626538185E+04  0.17300000000E+03 0. -1.
         -6    1    1    2    0  502  0.90691796517E+02  0.69367733358E+01  0.17175081676E+04  0.17285937714E+04  0.17300000000E+03 0. -1.
</event>
<event>
 4    1  0.6092738E+000  0.1000000E+03  0.7546771E-02  0.1280296E+00
         21   -1    0    0  501  502  0.00000000000E+00  0.00000000000E+00  0.78677365361E+03  0.78677365361E+03  0.00000000000E+00 0. -1.
         21   -1    0    0  502  503 -0.00000000000E+00 -0.00000000000E+00 -0.46178188179E+02  0.46178188179E+02  0.00000000000E+00 0. -1.
          6    1    1    2  501    0 -0.46845968609E+01  0.31179548009E+01  0.54470085739E+03  0.57154150429E+03  0.17300000000E+03 0. -1.
         -6    1    1    2    0  503  0.46845968609E+01 -0.31179548009E+01  0.19589460805E+03  0.26141033750E+03  0.17300000000E+03 0. -1.
</event>
<event>
 4    1  0.6092738E+000  0.1000000E+03  0.7546771E-02  0.1280296E+00
         21   -1    0    0  501  502  0.00000000000E+00  0.00000000000E+00  0.17161404557E+04  0.17161404557E+04  0.00000000000E+00 0.  1.
         21   -1    0    0  502  503 -0.00000000000E+00 -0.00000000000E+00 -0.30388009060E+02  0.30388009060E+02  0.00000000000E+00 0. -1.
          6    1    1    2  501    0  0.55462478119E+02 -0.49750976965E+02  0.13365998630E+04  0.13498071862E+04  0.17300000000E+03 0.  1.
         -6    1    1    2    0  503 -0.55462478119E+02  0.49750976965E+02  0.34915258365E+03  0.39672127855E+03  0.17300000000E+03 0. -1.
</event>
<event>
 4    1  0.6092738E+000  0.1000000E+03  0.7546771E-02  0.1280296E+00
         21   -1    0    0  501  502  0.00000000000E+00  0.00000000000E+00  0.18699585192E+03  0.18699585192E+03  0.00000000000E+00 0.  1.
         21   -1    0    0  502  503 -0.00000000000E+00 -0.00000000000E+00 -0.16363387780E+03  0.16363387780E+03  0.00000000000E+00 0. -1.
          6    1    1    2  501    0 -0.14773914182E+02  0.13341478119E+02  0.28258465766E+02  0.17641939935E+03  0.17300000000E+03 0.  1.
         -6    1    1    2    0  503  0.14773914182E+02 -0.13341478119E+02 -0.48964916447E+01  0.17421033037E+03  0.17300000000E+03 0. -1.
</event>
<event>
 4    1  0.6092738E+000  0.1000000E+03  0.7546771E-02  0.1280296E+00
         21   -1    0    0  501  502  0.00000000000E+00  0.00000000000E+00  0.12218211228E+04  0.12218211228E+04  0.00000000000E+00 0.  1.
         21   -1    0    0  502  503 -0.00000000000E+00 -0.00000000000E+00 -0.34873838150E+02  0.34873838150E+02  0.00000000000E+00 0.  1.
          6    1    1    2  501    0  0.82035159926E+02  0.54856944785E+02  0.75856851515E+03  0.78427944256E+03  0.17300000000E+03 0.  1.
         -6    1    1    2    0  503 -0.82035159926E+02 -0.54856944785E+02  0.42837876953E+03  0.47241551842E+03  0.17300000000E+03 0.  1.
</event>
<event>
 4    1  0.6092738E+000  0.1000000E+03  0.7546771E-02  0.1280296E+00
         21   -1    0    0  501  502  0.00000000000E+00  0.00000000000E+00  0.45431609845E+03  0.45431609845E+03  0.00000000000E+00 0.  1.
         21   -1    0    0  502  503 -0.00000000000E+00 -0.00000000000E+00 -0.67158421597E+02  0.67158421597E+02  0.00000000000E+00 0.  1.
          6    1    1    2  501    0  0.10570612538E+02 -0.20935708477E+02  0.20203739468E+03  0.26701713538E+03  0.17300000000E+03 0.  1.
         -6    1    1    2    0  503 -0.10570612538E+02  0.20935708477E+02  0.18512028218E+03  0.25445738467E+03  0.17300000000E+03 0.  1.
</event>
<event>
 4    1  0.6092738E+000  0.1000000E+03  0.7546771E-02  0.1280296E+00
         21   -1    0    0  501  502  0.00000000000E+00  0.00000000000E+00  0.12551818515E+03  0.12551818515E+03  0.00000000000E+00 0. -1.
         21   -1    0    0  502  503 -0.00000000000E+00 -0.00000000000E+00 -0.35279804067E+03  0.35279804067E+03  0.00000000000E+00 0. -1.
          6    1    1    2  501    0 -0.53442306428E+02  0.94305579107E+02 -0.55645693913E+02  0.21160119475E+03  0.17300000000E+03 0. -1.
         -6    1    1    2    0  503  0.53442306428E+02 -0.94305579107E+02 -0.17163416161E+03  0.26671503107E+03  0.17300000000E+03 0. -1.
</event>
<event>
 4    1  0.6092738E+000  0.1000000E+03  0.7546771E-02  0.1280296E+00
         21   -1    0    0  501  502  0.00000000000E+00  0.00000000000E+00  0.12136131054E+04  0.12136131054E+04  0.00000000000E+00 0. -1.
         21   -1    0    0  502  503 -0.00000000000E+00 -0.00000000000E+00 -0.20869374201E+03  0.20869374201E+03  0.00000000000E+00 0. -1.
          6    1    1    2  501    0 -0.13616294660E+03  0.28272391394E+03  0.10018036188E+04  0.10639608311E+04  0.17300000000E+03 0. -1.
         -6    1    1    2    0  503  0.13616294660E+03 -0.28272391394E+03  0.31157446203E+01  0.35834601631E+03  0.17300000000E+03 0. -1.
</event>
<event>
 4    1  0.6092738E+000  0.1000000E+03  0.7546771E-02  0.1280296E+00
         21   -1    0    0  501  502  0.00000000000E+00  0.00000000000E+00  0.33900088280E+03  0.33900088280E+03  0.00000000000E+00 0.  1.
         21   -1    0    0  502  503 -0.00000000000E+00 -0.00000000000E+00 -0.15410776068E+03  0.15410776068E+03  0.00000000000E+00 0. -1.
          6    1    1    2  501    0 -0.96519238326E+02  0.11363822657E+03  0.82556774464E+02  0.24284610541E+03  0.17300000000E+03 0.  1.
         -6    1    1    2    0  503  0.96519238326E+02 -0.11363822657E+03  0.10233634765E+03  0.25026253806E+03  0.17300000000E+03 0. -1.
</event>
<event>
 4    1  0.6092738E+000  0.1000000E+03  0.7546771E-02  0.1280296E+00
         21   -1    0    0  501  502  0.00000000000E+00  0.00000000000E+00  0.64387841626E+03  0.64387841626E+03  0.00000000000E+00 0.  1.
         21   -1    0    0  502  503 -0.00000000000E+00 -0.00000000000E+00 -0.99344538082E+02  0.99344538082E+02  0.00000000000E+00 0. -1.
          6    1    1    2  501    0  0.40180415881E+02 -0.11530668002E+03  0.47547236336E+03  0.52049309755E+03  0.17300000000E+03 0.  1.
         -6    1    1    2    0  503 -0.40180415881E+02  0.11530668002E+03  0.69061514819E+02  0.22272985679E+03  0.17300000000E+03 0. -1.
</event>
<event>
 4    1  0.6092738E+000  0.1000000E+03  0.7546771E-02  0.1280296E+00
         21   -1    0    0  503  502  0.00000000000E+00  0.00000000000E+00  0.16853767187E+03  0.16853767187E+03  0.00000000000E+00 0. -1.
         21   -1    0    0  501  503 -0.00000000000E+00 -0.00000000000E+00 -0.70820539503E+03  0.70820539503E+03  0.00000000000E+00 0. -1.
          6    1    1    2  501    0 -0.15813759119E+03  0.13603206335E+03 -0.54173187823E+03  0.60573479997E+03  0.17300000000E+03 0. -1.
         -6    1    1    2    0  502  0.15813759119E+03 -0.13603206335E+03  0.20641550745E+01  0.27100826693E+03  0.17300000000E+03 0. -1.
</event>
<event>
 4    1  0.6092738E+000  0.1000000E+03  0.7546771E-02  0.1280296E+00
         21   -1    0    0  503  502  0.00000000000E+00  0.00000000000E+00  0.18433553973E+03  0.18433553973E+03  0.00000000000E+00 0.  1.
         21   -1    0    0  501  503 -0.00000000000E+00 -0.00000000000E+00 -0.68902073207E+03  0.68902073207E+03  0.00000000000E+00 0.  1.
          6    1    1    2  501    0 -0.19716925306E+03  0.49483355010E+02 -0.54167239080E+03  0.60387274796E+03  0.17300000000E+03 0.  1.
         -6    1    1    2    0  502  0.19716925306E+03 -0.49483355010E+02  0.36987198457E+02  0.26948352384E+03  0.17300000000E+03 0.  1.
</event>
<event>
 4    1  0.6092738E+000  0.1000000E+03  0.7546771E-02  0.1280296E+00
         21   -1    0    0  503  502  0.00000000000E+00  0.00000000000E+00  0.30551585269E+03  0.30551585269E+03  0.00000000000E+00 0.  1.
         21   -1    0    0  501  503 -0.00000000000E+00 -0.00000000000E+00 -0.14296769181E+03  0.14296769181E+03  0.00000000000E+00 0. -1.
          6    1    1    2  501    0  0.86181165385E+02 -0.57410380835E+02  0.22244587979E+02  0.20284715130E+03  0.17300000000E+03 0. -1.
         -6    1    1    2    0  502 -0.86181165385E+02  0.57410380835E+02  0.14030357290E+03  0.24563639320E+03  0.17300000000E+03 0. -1.
</event>
<event>
 4    1  0.6092738E+000  0.1000000E+03  0.7546771E-02  0.1280296E+00
         21   -1    0    0  503  502  0.00000000000E+00  0.00000000000E+00  0.58609463787E+03  0.58609463787E+03  0.00000000000E+00 0.  1.
         21   -1    0    0  501  503 -0.00000000000E+00 -0.00000000000E+00 -0.86239595467E+02  0.86239595467E+02  0.00000000000E+00 0. -1.
          6    1    1    2  501    0  0.12277084118E+03 -0.36183744515E+02  0.15263621767E+03  0.26383471674E+03  0.17300000000E+03 0. -1.
         -6    1    1    2    0  502 -0.12277084118E+03  0.36183744515E+02  0.34721882473E+03  0.40849951660E+03  0.17300000000E+03 0. -1.
</event>
<event>
 4    1  0.6092738E+000  0.1000000E+03  0.7546771E-02  0.1280296E+00
         21   -1    0    0  503  502  0.00000000000E+00  0.00000000000E+00  0.30722649859E+03  0.30722649859E+03  0.00000000000E+00 0. -1.
         21   -1    0    0  501  503 -0.00000000000E+00 -0.00000000000E+00 -0.39716841436E+03  0.39716841436E+03  0.00000000000E+00 0.  1.
          6    1    1    2  501    0 -0.32795873054E+02  0.44324197002E+02 -0.34584868811E+03  0.39061556395E+03  0.17300000000E+03 0. -1.
         -6    1    1    2    0  502  0.32795873054E+02 -0.44324197002E+02  0.25590677234E+03  0.31377934900E+03  0.17300000000E+03 0.  1.
</event>
<event>
 4    1  0.6092738E+000  0.1000000E+03  0.7546771E-02  0.1280296E+00
         21   -1    0    0  503  502  0.00000000000E+00  0.00000000000E+00  0.20444886432E+03  0.20444886432E+03  0.00000000000E+00 0.  1.
         21   -1    0    0  501  503 -0.00000000000E+00 -0.00000000000E+00 -0.21788535483E+03  0.21788535483E+03  0.00000000000E+00 0.  1.
          6    1    1    2  501    0  0.34171197970E+02 -0.63890058417E+02 -0.10355467720E+03  0.21424794399E+03  0.17300000000E+03 0. -1.
         -6    1    1    2    0  502 -0.34171197970E+02  0.63890058417E+02  0.90118186686E+02  0.20808627515E+03  0.17300000000E+03 0. -1.
</event>
<event>
 4    1  0.6092738E+000  0.1000000E+03  0.7546771E-02  0.1280296E+00
         21   -1    0    0  503  502  0.00000000000E+00  0.00000000000E+00  0.33286626458E+03  0.33286626458E+03  0.00000000000E+00 0.  1.
         21   -1    0    0  501  503 -0.00000000000E+00 -0.00000000000E+00 -0.10340494919E+03  0.10340494919E+03  0.00000000000E+00 0.  1.
          6    1    1    2  501    0 -0.12384630628E+02  0.40247269928E+02  0.53435023202E+02  0.18589653982E+03  0.17300000000E+03 0. -1.
         -6    1    1    2    0  502  0.12384630628E+02 -0.40247269928E+02  0.17602629220E+03  0.25037467395E+03  0.17300000000E+03 0. -1.
</event>
<event>
 4    1  0.6092738E+000  0.1000000E+03  0.7546771E-02  0.1280296E+00
         21   -1    0    0  503  502  0.00000000000E+00  0.00000000000E+00  0.26339004344E+03  0.26339004344E+03  0.00000000000E+00 0.  1.
         21   -1    0    0  501  503 -0.00000000000E+00 -0.00000000000E+00 -0.50184926598E+03  0.50184926598E+03  0.00000000000E+00 0.  1.
          6    1    1    2  501    0 -0.81505019983E+02 -0.16704615686E+02 -0.44416573680E+03  0.48387427522E+03  0.17300000000E+03 0. -1.
         -6    1    1    2    0  502  0.81505019983E+02  0.16704615686E+02  0.20570651426E+03  0.28136503421E+03  0.17300000000E+03 0. -1.
</event>
<event>
 4    1  0.6092738E+000  0.1000000E+03  0.7546771E-02  0.1280296E+00
         21   -1    0    0  503  502  0.00000000000E+00  0.00000000000E+00  0.29455887200E+03  0.29455887200E+03  0.00000000000E+00 0. -1.
         21   -1    0    0  501  503 -0.00000000000E+00 -0.00000000000E+00 -0.29788482367E+03  0.29788482367E+03  0.00000000000E+00 0. -1.
          6    1    1    2  501    0  0.12711533502E+03  0.34334408766E+02 -0.20285873474E+03  0.29735135157E+03  0.17300000000E+03 0. -1.
         -6    1    1    2    0  502 -0.12711533502E+03 -0.34334408766E+02  0.19953278307E+03  0.29509234409E+03  0.17300000000E+03 0. -1.
</event>
<event>
 4    1  0.6092738E+000  0.1000000E+03  0.7546771E-02  0.1280296E+00
         21   -1    0    0  503  502  0.00000000000E+00  0.00000000000E+00  0.20655299647E+03  0.20655299647E+03  0.00000000000E+00 0. -1.
         21   -1    0    0  501  503 -0.00000000000E+00 -0.00000000000E+00 -0.19867200453E+03  0.19867200453E+03  0.00000000000E+00 0. -1.
          6    1    1    2  501    0  0.33841633706E+02 -0.98799986549E+02 -0.10225669418E+02  0.20233699076E+03  0.17300000000E+03 0. -1.
         -6    1    1    2    0  502 -0.33841633706E+02  0.98799986549E+02  0.18106661366E+02  0.20288801024E+03  0.17300000000E+03 0. -1.
</event>
<event>
 4    1  0.6092738E+000  0.1000000E+03  0.7546771E-02  0.1280296E+00
         21   -1    0    0  503  502  0.00000000000E+00  0.00000000000E+00  0.27569977916E+03  0.27569977916E+03  0.00000000000E+00 0. -1.
         21   -1    0    0  501  503 -0.00000000000E+00 -0.00000000000E+00 -0.68712235260E+03  0.68712235260E+03  0.00000000000E+00 0. -1.
          6    1    1    2  501    0 -0.32011261511E+03  0.99970277144E+02  0.34191063830E+02  0.37889862960E+03  0.17300000000E+03 0. -1.
         -6    1    1    2    0  502  0.32011261511E+03 -0.99970277144E+02 -0.44561363727E+03  0.58392350217E+03  0.17300000000E+03 0. -1.
</event>
<event>
 4    1  0.6092738E+000  0.1000000E+03  0.7546771E-02  0.1280296E+00
         21   -1    0    0  501  502  0.00000000000E+00  0.00000000000E+00  0.21999522987E+03  0.21999522987E+03  0.00000000000E+00 0. -1.
         21   -1    0    0  502  503 -0.00000000000E+00 -0.00000000000E+00 -0.13967197897E+03  0.13967197897E+03  0.00000000000E+00 0. -1.
          6    1    1    2  501    0 -0.80555881335E+01 -0.20576775099E+02  0.58220945860E+02  0.18386673084E+03  0.17300000000E+03 0. -1.
         -6    1    1    2    0  503  0.80555881335E+01  0.20576775099E+02  0.22102305042E+02  0.17580047799E+03  0.17300000000E+03 0. -1.
</event>
<event>
 4    1  0.6092738E+000  0.1000000E+03  0.7546771E-02  0.1280296E+00
         21   -1    0    0  501  502  0.00000000000E+00  0.00000000000E+00  0.88020937254E+02  0.88020937254E+02  0.00000000000E+00 0. -1.
         21   -1    0    0  502  503 -0.00000000000E+00 -0.00000000000E+00 -0.52736764096E+03  0.52736764096E+03  0.00000000000E+00 0. -1.
          6    1    1    2  501    0 -0.46615436397E+02  0.44786617368E+02 -0.61210984443E+02  0.19456264961E+03  0.17300000000E+03 0. -1.
         -6    1    1    2    0  503  0.46615436397E+02 -0.44786617368E+02 -0.37813571926E+03  0.42082592861E+03  0.17300000000E+03 0. -1.
</event>
<event>
 4    1  0.6092738E+000  0.1000000E+03  0.7546771E-02  0.1280296E+00
         21   -1    0    0  503  502  0.00000000000E+00  0.00000000000E+00  0.15763806980E+04  0.15763806980E+04  0.00000000000E+00 0.  1.
         21   -1    0    0  501  503 -0.00000000000E+00 -0.00000000000E+00 -0.37530818152E+02  0.37530818152E+02  0.00000000000E+00 0.  1.
          6    1    1    2  501    0  0.11630770941E+03  0.52142825815E+02  0.39134126032E+03  0.44645642517E+03  0.17300000000E+03 0.  1.
         -6    1    1    2    0  502 -0.11630770941E+03 -0.52142825815E+02  0.11475086196E+04  0.11674550910E+04  0.17300000000E+03 0.  1.
</event>
<event>
 4    1  0.6092738E+000  0.1000000E+03  0.7546771E-02  0.1280296E+00
         21   -1    0    0  503  502  0.00000000000E+00  0.00000000000E+00  0.34600573734E+02  0.34600573734E+02  0.00000000000E+00 0.  1.
         21   -1    0    0  501  503 -0.00000000000E+00 -0.00000000000E+00 -0.12637945163E+04  0.12637945163E+04  0.00000000000E+00 0.  1.
          6    1    1    2  501    0 -0.38674720966E+02  0.99412448923E+02 -0.76733413145E+03  0.79379420401E+03  0.17300000000E+03 0.  1.
         -6    1    1    2    0  502  0.38674720966E+02 -0.99412448923E+02 -0.46185981110E+03  0.50460088600E+03  0.17300000000E+03 0.  1.
</event>
<event>
 4    1  0.6092738E+000  0.1000000E+03  0.7546771E-02  0.1280296E+00
         21   -1    0    0  501  502  0.00000000000E+00  0.00000000000E+00  0.43825052592E+02  0.43825052592E+02  0.00000000000E+00 0. -1.
         21   -1    0    0  502  503 -0.00000000000E+00 -0.00000000000E+00 -0.78118189211E+03  0.78118189211E+03  0.00000000000E+00 0. -1.
          6    1    1    2  501    0  0.55046175788E+02 -0.94070046406E+01 -0.29184406726E+03  0.34383212880E+03  0.17300000000E+03 0. -1.
         -6    1    1    2    0  503 -0.55046175788E+02  0.94070046406E+01 -0.44551277226E+03  0.48117481589E+03  0.17300000000E+03 0. -1.
</event>
<event>
 4    1  0.6092738E+000  0.1000000E+03  0.7546771E-02  0.1280296E+00
         21   -1    0    0  503  502  0.00000000000E+00  0.00000000000E+00  0.46646574404E+03  0.46646574404E+03  0.00000000000E+00 0. -1.
         21   -1    0    0  501  503 -0.00000000000E+00 -0.00000000000E+00 -0.90670799468E+02  0.90670799468E+02  0.00000000000E+00 0.  1.
          6    1    1    2  501    0 -0.25294918591E+02  0.25720910070E+02  0.45417949859E+02  0.18246421099E+03  0.17300000000E+03 0.  1.
         -6    1    1    2    0  502  0.25294918591E+02 -0.25720910070E+02  0.33037699471E+03  0.37467233252E+03  0.17300000000E+03 0.  1.
</event>
<event>
 4    1  0.6092738E+000  0.1000000E+03  0.7546771E-02  0.1280296E+00
         21   -1    0    0  503  502  0.00000000000E+00  0.00000000000E+00  0.62986322792E+02  0.62986322792E+02  0.00000000000E+00 0. -1.
         21   -1    0    0  501  503 -0.00000000000E+00 -0.00000000000E+00 -0.62617399315E+03  0.62617399315E+03  0.00000000000E+00 0.  1.
          6    1    1    2  501    0 -0.58295654407E+02 -0.68157819346E+02 -0.34806181324E+03  0.39889835484E+03  0.17300000000E+03 0.  1.
         -6    1    1    2    0  502  0.58295654407E+02  0.68157819346E+02 -0.21512585712E+03  0.29026196110E+03  0.17300000000E+03 0.  1.
</event>
<event>
 4    1  0.6092738E+000  0.1000000E+03  0.7546771E-02  0.1280296E+00
         21   -1    0    0  503  502  0.00000000000E+00  0.00000000000E+00  0.85189622574E+02  0.85189622574E+02  0.00000000000E+00 0. -1.
         21   -1    0    0  501  503 -0.00000000000E+00 -0.00000000000E+00 -0.56154718785E+03  0.56154718785E+03  0.00000000000E+00 0.  1.
          6    1    1    2  501    0  0.65202368647E+02 -0.11681439515E+03 -0.23304844465E+03  0.31958962647E+03  0.17300000000E+03 0.  1.
         -6    1    1    2    0  502 -0.65202368647E+02  0.11681439515E+03 -0.24330912062E+03  0.32714718395E+03  0.17300000000E+03 0.  1.
</event>
<event>
 4    1  0.6092738E+000  0.1000000E+03  0.7546771E-02  0.1280296E+00
         21   -1    0    0  501  502  0.00000000000E+00  0.00000000000E+00  0.22735998254E+04  0.22735998254E+04  0.00000000000E+00 0.  1.
         21   -1    0    0  502  503 -0.00000000000E+00 -0.00000000000E+00 -0.41068699725E+02  0.41068699725E+02  0.00000000000E+00 0. -1.
          6    1    1    2  501    0  0.14640371855E+02 -0.22411775319E+03  0.15481286344E+04  0.15738724143E+04  0.17300000000E+03 0.  1.
         -6    1    1    2    0  503 -0.14640371855E+02  0.22411775319E+03  0.68440249131E+03  0.74079611088E+03  0.17300000000E+03 0. -1.
</event>
<event>
 4    1  0.6092738E+000  0.1000000E+03  0.7546771E-02  0.1280296E+00
         21   -1    0    0  501  502  0.00000000000E+00  0.00000000000E+00  0.90787177656E+02  0.90787177656E+02  0.00000000000E+00 0.  1.
         21   -1    0    0  502  503 -0.00000000000E+00 -0.00000000000E+00 -0.42640968951E+03  0.42640968951E+03  0.00000000000E+00 0. -1.
          6    1    1    2  501    0 -0.19362597074E+02  0.16377062378E+01 -0.47309536884E+02  0.18040173094E+03  0.17300000000E+03 0.  1.
         -6    1    1    2    0  503  0.19362597074E+02 -0.16377062378E+01 -0.28831297497E+03  0.33679513622E+03  0.17300000000E+03 0. -1.
</event>
<event>
 4    1  0.6092738E+000  0.1000000E+03  0.7546771E-02  0.1280296E+00
         21   -1    0    0  501  502  0.00000000000E+00  0.00000000000E+00  0.16183920357E+03  0.16183920357E+03  0.00000000000E+00 0.  1.
         21   -1    0    0  502  503 -0.00000000000E+00 -0.00000000000E+00 -0.21503154595E+03  0.21503154595E+03  0.00000000000E+00 0.  1.
          6    1    1    2  501    0 -0.27896753249E+01 -0.60381311192E+02 -0.61846747565E+02  0.19341071639E+03  0.17300000000E+03 0.  1.
         -6    1    1    2    0  503  0.27896753249E+01  0.60381311192E+02  0.86544051863E+01  0.18346003314E+03  0.17300000000E+03 0.  1.
</event>
<event>
 4    1  0.6092738E+000  0.1000000E+03  0.7546771E-02  0.1280296E+00
         21   -1    0    0  501  502  0.00000000000E+00  0.00000000000E+00  0.14685304977E+04  0.14685304977E+04  0.00000000000E+00 0.  1.
         21   -1    0    0  502  503 -0.00000000000E+00 -0.00000000000E+00 -0.37819005119E+02  0.37819005119E+02  0.00000000000E+00 0.  1.
          6    1    1    2  501    0 -0.12063156168E+03  0.50797679312E+02  0.10096080777E+04  0.10326518525E+04  0.17300000000E+03 0.  1.
         -6    1    1    2    0  503  0.12063156168E+03 -0.50797679312E+02  0.42110341482E+03  0.47369765026E+03  0.17300000000E+03 0.  1.
</event>
<event>
 4    1  0.6092738E+000  0.1000000E+03  0.7546771E-02  0.1280296E+00
         21   -1    0    0  501  502  0.00000000000E+00  0.00000000000E+00  0.18631612861E+03  0.18631612861E+03  0.00000000000E+00 0.  1.
         21   -1    0    0  502  503 -0.00000000000E+00 -0.00000000000E+00 -0.26231791280E+03  0.26231791280E+03  0.00000000000E+00 0.  1.
          6    1    1    2  501    0  0.10445039213E+03 -0.65371125597E+02  0.24232041450E+02  0.21377432098E+03  0.17300000000E+03 0.  1.
         -6    1    1    2    0  503 -0.10445039213E+03  0.65371125597E+02 -0.10023382563E+03  0.23485972043E+03  0.17300000000E+03 0.  1.
</event>
<event>
 4    1  0.6092738E+000  0.1000000E+03  0.7546771E-02  0.1280296E+00
         21   -1    0    0  501  502  0.00000000000E+00  0.00000000000E+00  0.62411490258E+03  0.62411490258E+03  0.00000000000E+00 0. -1.
         21   -1    0    0  502  503 -0.00000000000E+00 -0.00000000000E+00 -0.62020427549E+02  0.62020427549E+02  0.00000000000E+00 0. -1.
          6    1    1    2  501    0 -0.81299440858E+02 -0.96436735112E+01  0.36050245500E+03  0.40815881662E+03  0.17300000000E+03 0. -1.
         -6    1    1    2    0  503  0.81299440858E+02  0.96436735112E+01  0.20159202002E+03  0.27797651350E+03  0.17300000000E+03 0. -1.
</event>
<event>
 4    1  0.6092738E+000  0.1000000E+03  0.7546771E-02  0.1280296E+00
         21   -1    0    0  501  502  0.00000000000E+00  0.00000000000E+00  0.18899988345E+03  0.18899988345E+03  0.00000000000E+00 0. -1.
         21   -1    0    0  502  503 -0.00000000000E+00 -0.00000000000E+00 -0.42503212772E+03  0.42503212772E+03  0.00000000000E+00 0. -1.
          6    1    1    2  501    0  0.16722831063E+03 -0.77921301140E+02  0.20556419418E+02  0.25374909542E+03  0.17300000000E+03 0. -1.
         -6    1    1    2    0  503 -0.16722831063E+03  0.77921301140E+02 -0.25658866369E+03  0.36028291575E+03  0.17300000000E+03 0. -1.
</event>
<event>
 4    1  0.6092738E+000  0.1000000E+03  0.7546771E-02  0.1280296E+00
         21   -1    0    0  503  502  0.00000000000E+00  0.00000000000E+00  0.11393002178E+03  0.11393002178E+03  0.00000000000E+00 0. -1.
         21   -1    0    0  501  503 -0.00000000000E+00 -0.00000000000E+00 -0.40717941344E+03  0.40717941344E+03  0.00000000000E+00 0.  1.
          6    1    1    2  501    0 -0.11317448400E+03 -0.21159850565E+01 -0.21969071458E+03  0.30167192659E+03  0.17300000000E+03 0.  1.
         -6    1    1    2    0  502  0.11317448400E+03  0.21159850565E+01 -0.73558677083E+02  0.21943750863E+03  0.17300000000E+03 0. -1.
</event>
<event>
 4    1  0.6092738E+000  0.1000000E+03  0.7546771E-02  0.1280296E+00
         21   -1    0    0  503  502  0.00000000000E+00  0.00000000000E+00  0.16423474635E+03  0.16423474635E+03  0.00000000000E+00 0.  1.
         21   -1    0    0  501  503 -0.00000000000E+00 -0.00000000000E+00 -0.26788629792E+03  0.26788629792E+03  0.00000000000E+00 0. -1.
          6    1    1    2  501    0  0.72083234108E+02  0.49446221081E+02 -0.13440080074E+03  0.23586754050E+03  0.17300000000E+03 0. -1.
         -6    1    1    2    0  502 -0.72083234108E+02 -0.49446221081E+02  0.30749249170E+02  0.19625350377E+03  0.17300000000E+03 0.  1.
</event>
<event>
 4    1  0.6092738E+000  0.1000000E+03  0.7546771E-02  0.1280296E+00
         21   -1    0    0  503  502  0.00000000000E+00  0.00000000000E+00  0.46048591676E+03  0.46048591676E+03  0.00000000000E+00 0.  1.
         21   -1    0    0  501  503 -0.00000000000E+00 -0.00000000000E+00 -0.85869822362E+02  0.85869822362E+02  0.00000000000E+00 0. -1.
          6    1    1    2  501    0  0.27158784872E+02  0.25842699042E+02  0.62850902370E+02  0.18784216944E+03  0.17300000000E+03 0. -1.
         -6    1    1    2    0  502 -0.27158784872E+02 -0.25842699042E+02  0.31176519203E+03  0.35851356969E+03  0.17300000000E+03 0.  1.
</event>
<event>
 4    1  0.6092738E+000  0.1000000E+03  0.7546771E-02  0.1280296E+00
         21   -1    0    0  501  502  0.00000000000E+00  0.00000000000E+00  0.49601172242E+03  0.49601172242E+03  0.00000000000E+00 0.  1.
         21   -1    0    0  502  503 -0.00000000000E+00 -0.00000000000E+00 -0.81382558119E+02  0.81382558119E+02  0.00000000000E+00 0. -1.
          6    1    1    2  501    0 -0.67714632817E+02 -0.76406466023E+02  0.21278303287E+03  0.29262405681E+03  0.17300000000E+03 0.  1.
         -6    1    1    2    0  503  0.67714632817E+02  0.76406466023E+02  0.20184613143E+03  0.28477022372E+03  0.17300000000E+03 0. -1.
</event>
<event>
 4    1  0.6092738E+000  0.1000000E+03  0.7546771E-02  0.1280296E+00
         21   -1    0    0  501  502  0.00000000000E+00  0.00000000000E+00  0.15426821395E+03  0.15426821395E+03  0.00000000000E+00 0.  1.
         21   -1    0    0  502  503 -0.00000000000E+00 -0.00000000000E+00 -0.68977795201E+03  0.68977795201E+03  0.00000000000E+00 0. -1.
          6    1    1    2  501    0  0.23430536732E+03 -0.31113671648E+02 -0.82003368823E+02  0.30417202077E+03  0.17300000000E+03 0.  1.
         -6    1    1    2    0  503 -0.23430536732E+03  0.31113671648E+02 -0.45350636923E+03  0.53987414520E+03  0.17300000000E+03 0. -1.
</event>
<event>
 4    1  0.6092738E+000  0.1000000E+03  0.7546771E-02  0.1280296E+00
         21   -1    0    0  501  502  0.00000000000E+00  0.00000000000E+00  0.99410880293E+03  0.99410880293E+03  0.00000000000E+00 0.  1.
         21   -1    0    0  502  503 -0.00000000000E+00 -0.00000000000E+00 -0.10202855526E+03  0.10202855526E+03  0.00000000000E+00 0. -1.
          6    1    1    2  501    0  0.15621780711E+02 -0.11973728335E+03  0.85660310529E+03  0.88220118853E+03  0.17300000000E+03 0.  1.
         -6    1    1    2    0  503 -0.15621780711E+02  0.11973728335E+03  0.35477142385E+02  0.21393616966E+03  0.17300000000E+03 0. -1.
</event>
<event>
 4    1  0.6092738E+000  0.1000000E+03  0.7546771E-02  0.1280296E+00
         21   -1    0    0  501  502  0.00000000000E+00  0.00000000000E+00  0.47879061428E+03  0.47879061428E+03  0.00000000000E+00 0.  1.
         21   -1    0    0  502  503 -0.00000000000E+00 -0.00000000000E+00 -0.45130645534E+03  0.45130645534E+03  0.00000000000E+00 0. -1.
          6    1    1    2  501    0  0.84524895949E+02 -0.13069872315E+03  0.41631778172E+03  0.47694455615E+03  0.17300000000E+03 0.  1.
         -6    1    1    2    0  503 -0.84524895949E+02  0.13069872315E+03 -0.38883362277E+03  0.45315251347E+03  0.17300000000E+03 0. -1.
</event>
<event>
 4    1  0.6092738E+000  0.1000000E+03  0.7546771E-02  0.1280296E+00
         21   -1    0    0  501  502  0.00000000000E+00  0.00000000000E+00  0.23121630136E+03  0.23121630136E+03  0.00000000000E+00 0.  1.
         21   -1    0    0  502  503 -0.00000000000E+00 -0.00000000000E+00 -0.48652927123E+03  0.48652927123E+03  0.00000000000E+00 0. -1.
          6    1    1    2  501    0 -0.18489790374E+01 -0.21326750462E+03  0.78375793604E+02  0.28558398462E+03  0.17300000000E+03 0.  1.
         -6    1    1    2    0  503  0.18489790374E+01  0.21326750462E+03 -0.33368876347E+03  0.43216158797E+03  0.17300000000E+03 0. -1.
</event>
<event>
 4    1  0.6092738E+000  0.1000000E+03  0.7546771E-02  0.1280296E+00
         21   -1    0    0  501  502  0.00000000000E+00  0.00000000000E+00  0.34011362964E+03  0.34011362964E+03  0.00000000000E+00 0.  1.
         21   -1    0    0  502  503 -0.00000000000E+00 -0.00000000000E+00 -0.35392510233E+03  0.35392510233E+03  0.00000000000E+00 0. -1.
          6    1    1    2  501    0  0.11376851452E+03 -0.19635455469E+02  0.27084860978E+03  0.34149201371E+03  0.17300000000E+03 0.  1.
         -6    1    1    2    0  503 -0.11376851452E+03  0.19635455469E+02 -0.28466008247E+03  0.35254671826E+03  0.17300000000E+03 0. -1.
</event>
<event>
 4    1  0.6092738E+000  0.1000000E+03  0.7546771E-02  0.1280296E+00
         21   -1    0    0  501  502  0.00000000000E+00  0.00000000000E+00  0.61085340102E+03  0.61085340102E+03  0.00000000000E+00 0.  1.
         21   -1    0    0  502  503 -0.00000000000E+00 -0.00000000000E+00 -0.28270141048E+03  0.28270141048E+03  0.00000000000E+00 0. -1.
          6    1    1    2  501    0 -0.13532954950E+03 -0.26359327554E+03  0.41613389669E+03  0.53934397359E+03  0.17300000000E+03 0.  1.
         -6    1    1    2    0  503  0.13532954950E+03  0.26359327554E+03 -0.87981906145E+02  0.35421083790E+03  0.17300000000E+03 0. -1.
</event>
<event>
 4    1  0.6092738E+000  0.1000000E+03  0.7546771E-02  0.1280296E+00
         21   -1    0    0  503  502  0.00000000000E+00  0.00000000000E+00  0.72592084667E+03  0.72592084667E+03  0.00000000000E+00 0.  1.
         21   -1    0    0  501  503 -0.00000000000E+00 -0.00000000000E+00 -0.24867500802E+03  0.24867500802E+03  0.00000000000E+00 0. -1.
          6    1    1    2  501    0  0.14522038111E+03  0.35907477742E+03  0.21134359136E+03  0.47393962535E+03  0.17300000000E+03 0.  1.
         -6    1    1    2    0  502 -0.14522038111E+03 -0.35907477742E+03  0.26590224729E+03  0.50065622935E+03  0.17300000000E+03 0. -1.
</event>
<event>
 4    1  0.6092738E+000  0.1000000E+03  0.7546771E-02  0.1280296E+00
         21   -1    0    0  503  502  0.00000000000E+00  0.00000000000E+00  0.15947964387E+03  0.15947964387E+03  0.00000000000E+00 0.  1.
         21   -1    0    0  501  503 -0.00000000000E+00 -0.00000000000E+00 -0.22079176372E+03  0.22079176372E+03  0.00000000000E+00 0. -1.
          6    1    1    2  501    0  0.11477384763E+02  0.70972981615E+02 -0.19842306642E+02  0.18839217503E+03  0.17300000000E+03 0.  1.
         -6    1    1    2    0  502 -0.11477384763E+02 -0.70972981615E+02 -0.41469813203E+02  0.19187923256E+03  0.17300000000E+03 0. -1.
</event>
<event>
 4    1  0.6092738E+000  0.1000000E+03  0.7546771E-02  0.1280296E+00
         21   -1    0    0  503  502  0.00000000000E+00  0.00000000000E+00  0.95058444617E+03  0.95058444617E+03  0.00000000000E+00 0.  1.
         21   -1    0    0  501  503 -0.00000000000E+00 -0.00000000000E+00 -0.93685474440E+02  0.93685474440E+02  0.00000000000E+00 0. -1.
          6    1    1    2  501    0  0.42591895133E+02 -0.74547814578E+02  0.30406861127E+02  0.19551220778E+03  0.17300000000E+03 0.  1.
         -6    1    1    2    0  502 -0.42591895133E+02  0.74547814578E+02  0.82649211060E+03  0.84875771283E+03  0.17300000000E+03 0. -1.
</event>
<event>
 4    1  0.6092738E+000  0.1000000E+03  0.7546771E-02  0.1280296E+00
         21   -1    0    0  503  502  0.00000000000E+00  0.00000000000E+00  0.43626466338E+03  0.43626466338E+03  0.00000000000E+00 0.  1.
         21   -1    0    0  501  503 -0.00000000000E+00 -0.00000000000E+00 -0.12907915433E+03  0.12907915433E+03  0.00000000000E+00 0. -1.
          6    1    1    2  501    0  0.91799940859E+02  0.36833879632E+01 -0.59678309506E+01  0.19597298665E+03  0.17300000000E+03 0.  1.
         -6    1    1    2    0  502 -0.91799940859E+02 -0.36833879632E+01  0.31315334000E+03  0.36937083107E+03  0.17300000000E+03 0.  1.
</event>
<event>
 4    1  0.6092738E+000  0.1000000E+03  0.7546771E-02  0.1280296E+00
         21   -1    0    0  503  502  0.00000000000E+00  0.00000000000E+00  0.19154382474E+03  0.19154382474E+03  0.00000000000E+00 0. -1.
         21   -1    0    0  501  503 -0.00000000000E+00 -0.00000000000E+00 -0.24742723612E+03  0.24742723612E+03  0.00000000000E+00 0. -1.
          6    1    1    2  501    0  0.36093170155E+02 -0.12707206967E+03 -0.31731708909E+02  0.21996801852E+03  0.17300000000E+03 0. -1.
         -6    1    1    2    0  502 -0.36093170155E+02  0.12707206967E+03 -0.24151702473E+02  0.21900304234E+03  0.17300000000E+03 0. -1.
</event>
<event>
 4    1  0.6092738E+000  0.1000000E+03  0.7546771E-02  0.1280296E+00
         21   -1    0    0  503  502  0.00000000000E+00  0.00000000000E+00  0.32556511618E+03  0.32556511618E+03  0.00000000000E+00 0. -1.
         21   -1    0    0  501  503 -0.00000000000E+00 -0.00000000000E+00 -0.33434601953E+03  0.33434601953E+03  0.00000000000E+00 0.  1.
          6    1    1    2  501    0  0.22150425810E+03  0.82174749023E+02 -0.15640909078E+03  0.33197835684E+03  0.17300000000E+03 0. -1.
         -6    1    1    2    0  502 -0.22150425810E+03 -0.82174749023E+02  0.14762818742E+03  0.32793277887E+03  0.17300000000E+03 0.  1.
</event>
<event>
 4    1  0.6092738E+000  0.1000000E+03  0.7546771E-02  0.1280296E+00
         21   -1    0    0  503  502  0.00000000000E+00  0.00000000000E+00  0.16386298230E+03  0.16386298230E+03  0.00000000000E+00 0. -1.
         21   -1    0    0  501  503 -0.00000000000E+00 -0.00000000000E+00 -0.32234224294E+03  0.32234224294E+03  0.00000000000E+00 0.  1.
          6    1    1    2  501    0  0.10673906000E+03  0.10711327695E+03 -0.84473202969E+02  0.24480850281E+03  0.17300000000E+03 0. -1.
         -6    1    1    2    0  502 -0.10673906000E+03 -0.10711327695E+03 -0.74006057673E+02  0.24139672243E+03  0.17300000000E+03 0.  1.
</event>
<event>
 4    1  0.6092738E+000  0.1000000E+03  0.7546771E-02  0.1280296E+00
         21   -1    0    0  501  502  0.00000000000E+00  0.00000000000E+00  0.69994923610E+03  0.69994923610E+03  0.00000000000E+00 0. -1.
         21   -1    0    0  502  503 -0.00000000000E+00 -0.00000000000E+00 -0.10160964058E+03  0.10160964058E+03  0.00000000000E+00 0.  1.
          6    1    1    2  501    0 -0.78311671210E+01 -0.64886044481E+02  0.58793297319E+03  0.61633246459E+03  0.17300000000E+03 0. -1.
         -6    1    1    2    0  503  0.78311671210E+01  0.64886044481E+02  0.10406622334E+02  0.18522641209E+03  0.17300000000E+03 0.  1.
</event>
<event>
 4    1  0.6092738E+000  0.1000000E+03  0.7546771E-02  0.1280296E+00
         21   -1    0    0  501  502  0.00000000000E+00  0.00000000000E+00  0.21076810218E+03  0.21076810218E+03  0.00000000000E+00 0. -1.
         21   -1    0    0  502  503 -0.00000000000E+00 -0.00000000000E+00 -0.27972954550E+03  0.27972954550E+03  0.00000000000E+00 0. -1.
          6    1    1    2  501    0 -0.23635751665E+02  0.21825570377E+02  0.13451210661E+03  0.22148930246E+03  0.17300000000E+03 0. -1.
         -6    1    1    2    0  503  0.23635751665E+02 -0.21825570377E+02 -0.20347354993E+03  0.26900834523E+03  0.17300000000E+03 0. -1.
</event>
<event>
 4    1  0.6092738E+000  0.1000000E+03  0.7546771E-02  0.1280296E+00
         21   -1    0    0  501  502  0.00000000000E+00  0.00000000000E+00  0.58342077869E+03  0.58342077869E+03  0.00000000000E+00 0.  1.
         21   -1    0    0  502  503 -0.00000000000E+00 -0.00000000000E+00 -0.21340259835E+03  0.21340259835E+03  0.00000000000E+00 0. -1.
          6    1    1    2  501    0 -0.78412162189E+02  0.92018630406E+02  0.50429069940E+03  0.54667541103E+03  0.17300000000E+03 0.  1.
         -6    1    1    2    0  503  0.78412162189E+02 -0.92018630406E+02 -0.13427251906E+03  0.25014796601E+03  0.17300000000E+03 0. -1.
</event>
<event>
 4    1  0.6092738E+000  0.1000000E+03  0.7546771E-02  0.1280296E+00
         21   -1    0    0  501  502  0.00000000000E+00  0.00000000000E+00  0.19788326338E+03  0.19788326338E+03  0.00000000000E+00 0.  1.
         21   -1    0    0  502  503 -0.00000000000E+00 -0.00000000000E+00 -0.20201959725E+03  0.20201959725E+03  0.00000000000E+00 0.  1.
          6    1    1    2  501    0 -0.40761384879E+02 -0.61417705318E+01 -0.93440912017E+02  0.20089653029E+03  0.17300000000E+03 0.  1.
         -6    1    1    2    0  503  0.40761384879E+02  0.61417705318E+01  0.89304578146E+02  0.19900633035E+03  0.17300000000E+03 0.  1.
</event>
<event>
 4    1  0.6092738E+000  0.1000000E+03  0.7546771E-02  0.1280296E+00
         21   -1    0    0  503  502  0.00000000000E+00  0.00000000000E+00  0.11902636112E+03  0.11902636112E+03  0.00000000000E+00 0.  1.
         21   -1    0    0  501  503 -0.00000000000E+00 -0.00000000000E+00 -0.30882996800E+03  0.30882996800E+03  0.00000000000E+00 0. -1.
          6    1    1    2  501    0 -0.32898974288E+02 -0.40942897949E+02 -0.16609692383E+03  0.24551140810E+03  0.17300000000E+03 0.  1.
         -6    1    1    2    0  502  0.32898974288E+02  0.40942897949E+02 -0.23706683062E+02  0.18234492102E+03  0.17300000000E+03 0.  1.
</event>
<event>
 4    1  0.6092738E+000  0.1000000E+03  0.7546771E-02  0.1280296E+00
         21   -1    0    0  503  502  0.00000000000E+00  0.00000000000E+00  0.27554030543E+03  0.27554030543E+03  0.00000000000E+00 0.  1.
         21   -1    0    0  501  503 -0.00000000000E+00 -0.00000000000E+00 -0.16719863682E+03  0.16719863682E+03  0.00000000000E+00 0. -1.
          6    1    1    2  501    0 -0.37953959439E+02 -0.32334849696E+02 -0.66347561020E+02  0.19187768082E+03  0.17300000000E+03 0.  1.
         -6    1    1    2    0  502  0.37953959439E+02  0.32334849696E+02  0.17468922963E+03  0.25086126144E+03  0.17300000000E+03 0.  1.
</event>
<event>
 4    1  0.6092738E+000  0.1000000E+03  0.7546771E-02  0.1280296E+00
         21   -1    0    0  501  502  0.00000000000E+00  0.00000000000E+00  0.22578420604E+03  0.22578420604E+03  0.00000000000E+00 0. -1.
         21   -1    0    0  502  503 -0.00000000000E+00 -0.00000000000E+00 -0.23080751949E+03  0.23080751949E+03  0.00000000000E+00 0. -1.
          6    1    1    2  501    0  0.12052467367E+03  0.69577609951E+02  0.50561808464E+02  0.22771196114E+03  0.17300000000E+03 0. -1.
         -6    1    1    2    0  503 -0.12052467367E+03 -0.69577609951E+02 -0.55585121923E+02  0.22887976439E+03  0.17300000000E+03 0. -1.
</event>
<event>
 4    1  0.6092738E+000  0.1000000E+03  0.7546771E-02  0.1280296E+00
         21   -1    0    0  503  502  0.00000000000E+00  0.00000000000E+00  0.27722539824E+03  0.27722539824E+03  0.00000000000E+00 0. -1.
         21   -1    0    0  501  503 -0.00000000000E+00 -0.00000000000E+00 -0.28701532123E+03  0.28701532123E+03  0.00000000000E+00 0.  1.
          6    1    1    2  501    0  0.66769476321E+01 -0.16632511367E+03 -0.15300612123E+03  0.28469017932E+03  0.17300000000E+03 0. -1.
         -6    1    1    2    0  502 -0.66769476321E+01  0.16632511367E+03  0.14321619824E+03  0.27955054016E+03  0.17300000000E+03 0.  1.
</event>
<event>
 4    1  0.6092738E+000  0.1000000E+03  0.7546771E-02  0.1280296E+00
         21   -1    0    0  503  502  0.00000000000E+00  0.00000000000E+00  0.11724159436E+03  0.11724159436E+03  0.00000000000E+00 0. -1.
         21   -1    0    0  501  503 -0.00000000000E+00 -0.00000000000E+00 -0.56313566318E+03  0.56313566318E+03  0.00000000000E+00 0.  1.
          6    1    1    2  501    0 -0.12159049791E+03  0.63027022879E+02 -0.39727327022E+03  0.45443559062E+03  0.17300000000E+03 0. -1.
         -6    1    1    2    0  502  0.12159049791E+03 -0.63027022879E+02 -0.48620798603E+02  0.22594166692E+03  0.17300000000E+03 0.  1.
</event>
<event>
 4    1  0.6092738E+000  0.1000000E+03  0.7546771E-02  0.1280296E+00
         21   -1    0    0  501  502  0.00000000000E+00  0.00000000000E+00  0.20440859126E+03  0.20440859126E+03  0.00000000000E+00 0. -1.
         21   -1    0    0  502  503 -0.00000000000E+00 -0.00000000000E+00 -0.71799379150E+03  0.71799379150E+03  0.00000000000E+00 0. -1.
          6    1    1    2  501    0  0.12276607982E+03  0.55353732293E+02  0.12142183235E+03  0.25061485870E+03  0.17300000000E+03 0. -1.
         -6    1    1    2    0  503 -0.12276607982E+03 -0.55353732293E+02 -0.63500703259E+03  0.67178752405E+03  0.17300000000E+03 0. -1.
</event>
<event>
 4    1  0.6092738E+000  0.1000000E+03  0.7546771E-02  0.1280296E+00
         21   -1    0    0  501  502  0.00000000000E+00  0.00000000000E+00  0.17173917864E+03  0.17173917864E+03  0.00000000000E+00 0. -1.
         21   -1    0    0  502  503 -0.00000000000E+00 -0.00000000000E+00 -0.57896999445E+03  0.57896999445E+03  0.00000000000E+00 0. -1.
          6    1    1    2  501    0  0.18809877298E+03 -0.17858396967E+03 -0.25982076972E+03  0.40584383080E+03  0.17300000000E+03 0. -1.
         -6    1    1    2    0  503 -0.18809877298E+03  0.17858396967E+03 -0.14741004609E+03  0.34486534228E+03  0.17300000000E+03 0. -1.
</event>
<event>
 4    1  0.6092738E+000  0.1000000E+03  0.7546771E-02  0.1280296E+00
         21   -1    0    0  503  502  0.00000000000E+00  0.00000000000E+00  0.32462967824E+03  0.32462967824E+03  0.00000000000E+00 0. -1.
         21   -1    0    0  501  503 -0.00000000000E+00 -0.00000000000E+00 -0.22659398751E+03  0.22659398751E+03  0.00000000000E+00 0. -1.
          6    1    1    2  501    0 -0.53726862419E+02  0.19017295452E+03 -0.19737773667E+02  0.26338357596E+03  0.17300000000E+03 0. -1.
         -6    1    1    2    0  502  0.53726862419E+02 -0.19017295452E+03  0.11777346440E+03  0.28784008979E+03  0.17300000000E+03 0. -1.
</event>
<event>
 4    1  0.6092738E+000  0.1000000E+03  0.7546771E-02  0.1280296E+00
         21   -1    0    0  503  502  0.00000000000E+00  0.00000000000E+00  0.94324631675E+03  0.94324631675E+03  0.00000000000E+00 0. -1.
         21   -1    0    0  501  503 -0.00000000000E+00 -0.00000000000E+00 -0.45869523527E+02  0.45869523527E+02  0.00000000000E+00 0. -1.
          6    1    1    2  501    0 -0.62751308213E+02 -0.27552058244E+02  0.22767946396E+03  0.29404724264E+03  0.17300000000E+03 0. -1.
         -6    1    1    2    0  502  0.62751308213E+02  0.27552058244E+02  0.66969732926E+03  0.69506859763E+03  0.17300000000E+03 0. -1.
</event>
<event>
 4    1  0.6092738E+000  0.1000000E+03  0.7546771E-02  0.1280296E+00
         21   -1    0    0  501  502  0.00000000000E+00  0.00000000000E+00  0.11426134954E+03  0.11426134954E+03  0.00000000000E+00 0.  1.
         21   -1    0    0  502  503 -0.00000000000E+00 -0.00000000000E+00 -0.28563333711E+03  0.28563333711E+03  0.00000000000E+00 0.  1.
          6    1    1    2  501    0  0.71208640847E+01  0.44225562549E+02 -0.56377335630E+02  0.18738732898E+03  0.17300000000E+03 0.  1.
         -6    1    1    2    0  503 -0.71208640847E+01 -0.44225562549E+02 -0.11499465194E+03  0.21250735767E+03  0.17300000000E+03 0.  1.
</event>
<event>
 4    1  0.6092738E+000  0.1000000E+03  0.7546771E-02  0.1280296E+00
         21   -1    0    0  503  502  0.00000000000E+00  0.00000000000E+00  0.18322500711E+03  0.18322500711E+03  0.00000000000E+00 0. -1.
         21   -1    0    0  501  503 -0.00000000000E+00 -0.00000000000E+00 -0.79978728169E+03  0.79978728169E+03  0.00000000000E+00 0.  1.
          6    1    1    2  501    0  0.13236471608E+03 -0.22983596236E+03 -0.58445667078E+03  0.66472820587E+03  0.17300000000E+03 0. -1.
         -6    1    1    2    0  502 -0.13236471608E+03  0.22983596236E+03 -0.32105603792E+02  0.31828408294E+03  0.17300000000E+03 0.  1.
</event>
<event>
 4    1  0.6092738E+000  0.1000000E+03  0.7546771E-02  0.1280296E+00
         21   -1    0    0  503  502  0.00000000000E+00  0.00000000000E+00  0.88365110584E+03  0.88365110584E+03  0.00000000000E+00 0. -1.
         21   -1    0    0  501  503 -0.00000000000E+00 -0.00000000000E+00 -0.79144772428E+02  0.79144772428E+02  0.00000000000E+00 0.  1.
          6    1    1    2  501    0 -0.10872521483E+03 -0.53277762796E+02  0.11243757417E+03  0.23922980674E+03  0.17300000000E+03 0. -1.
         -6    1    1    2    0  502  0.10872521483E+03  0.53277762796E+02  0.69206875924E+03  0.72356607152E+03  0.17300000000E+03 0.  1.
</event>
<event>
 4    1  0.6092738E+000  0.1000000E+03  0.7546771E-02  0.1280296E+00
         21   -1    0    0  503  502  0.00000000000E+00  0.00000000000E+00  0.14212042867E+03  0.14212042867E+03  0.00000000000E+00 0.  1.
         21   -1    0    0  501  503 -0.00000000000E+00 -0.00000000000E+00 -0.25109469987E+03  0.25109469987E+03  0.00000000000E+00 0.  1.
          6    1    1    2  501    0  0.51627421483E+02 -0.63293573059E+01 -0.11197696530E+03  0.21254009544E+03  0.17300000000E+03 0.  1.
         -6    1    1    2    0  502 -0.51627421483E+02  0.63293573059E+01  0.30026941089E+01  0.18067503310E+03  0.17300000000E+03 0.  1.
</event>
<event>
 4    1  0.6092738E+000  0.1000000E+03  0.7546771E-02  0.1280296E+00
         21   -1    0    0  503  502  0.00000000000E+00  0.00000000000E+00  0.63807683744E+02  0.63807683744E+02  0.00000000000E+00 0.  1.
         21   -1    0    0  501  503 -0.00000000000E+00 -0.00000000000E+00 -0.15010019061E+04  0.15010019061E+04  0.00000000000E+00 0.  1.
          6    1    1    2  501    0 -0.16719339083E+03  0.17850887568E+03 -0.52232001464E+03  0.60213474101E+03  0.17300000000E+03 0.  1.
         -6    1    1    2    0  502  0.16719339083E+03 -0.17850887568E+03 -0.91487420768E+03  0.96267484880E+03  0.17300000000E+03 0.  1.
</event>
<event>
 4    1  0.6092738E+000  0.1000000E+03  0.7546771E-02  0.1280296E+00
         21   -1    0    0  503  502  0.00000000000E+00  0.00000000000E+00  0.29111905494E+02  0.29111905494E+02  0.00000000000E+00 0.  1.
         21   -1    0    0  501  503 -0.00000000000E+00 -0.00000000000E+00 -0.12816671234E+04  0.12816671234E+04  0.00000000000E+00 0.  1.
          6    1    1    2  501    0 -0.39228910766E+02 -0.30841937087E+02 -0.86360516416E+03  0.88217515953E+03  0.17300000000E+03 0.  1.
         -6    1    1    2    0  502  0.39228910766E+02  0.30841937087E+02 -0.38895005370E+03  0.42860386932E+03  0.17300000000E+03 0.  1.
</event>
<event>
 4    1  0.6092738E+000  0.1000000E+03  0.7546771E-02  0.1280296E+00
         21   -1    0    0  501  502  0.00000000000E+00  0.00000000000E+00  0.39468896556E+03  0.39468896556E+03  0.00000000000E+00 0.  1.
         21   -1    0    0  502  503 -0.00000000000E+00 -0.00000000000E+00 -0.29710066593E+03  0.29710066593E+03  0.00000000000E+00 0. -1.
          6    1    1    2  501    0 -0.33889743657E+02 -0.28528558089E+03  0.11875395169E+03  0.35576379584E+03  0.17300000000E+03 0.  1.
         -6    1    1    2    0  503  0.33889743657E+02  0.28528558089E+03 -0.21165652058E+02  0.33602583564E+03  0.17300000000E+03 0. -1.
</event>
<event>
 4    1  0.6092738E+000  0.1000000E+03  0.7546771E-02  0.1280296E+00
         21   -1    0    0  501  502  0.00000000000E+00  0.00000000000E+00  0.16979766094E+03  0.16979766094E+03  0.00000000000E+00 0.  1.
         21   -1    0    0  502  503 -0.00000000000E+00 -0.00000000000E+00 -0.27951241184E+03  0.27951241184E+03  0.00000000000E+00 0. -1.
          6    1    1    2  501    0 -0.43962395569E+02  0.67917525098E+02  0.53229002916E+02  0.19826197112E+03  0.17300000000E+03 0.  1.
         -6    1    1    2    0  503  0.43962395569E+02 -0.67917525098E+02 -0.16294375382E+03  0.25104810166E+03  0.17300000000E+03 0. -1.
</event>
<event>
 4    1  0.6092738E+000  0.1000000E+03  0.7546771E-02  0.1280296E+00
         21   -1    0    0  501  502  0.00000000000E+00  0.00000000000E+00  0.57035105276E+02  0.57035105276E+02  0.00000000000E+00 0.  1.
         21   -1    0    0  502  503 -0.00000000000E+00 -0.00000000000E+00 -0.54437961596E+03  0.54437961596E+03  0.00000000000E+00 0. -1.
          6    1    1    2  501    0  0.34477300903E+01 -0.25372118029E+02 -0.28043737426E+03  0.33049924674E+03  0.17300000000E+03 0.  1.
         -6    1    1    2    0  503 -0.34477300903E+01  0.25372118029E+02 -0.20690713643E+03  0.27091547449E+03  0.17300000000E+03 0. -1.
</event>
<event>
 4    1  0.6092738E+000  0.1000000E+03  0.7546771E-02  0.1280296E+00
         21   -1    0    0  501  502  0.00000000000E+00  0.00000000000E+00  0.18900162152E+03  0.18900162152E+03  0.00000000000E+00 0.  1.
         21   -1    0    0  502  503 -0.00000000000E+00 -0.00000000000E+00 -0.87513179455E+03  0.87513179455E+03  0.00000000000E+00 0.  1.
          6    1    1    2  501    0 -0.14254752206E+03 -0.15699314580E+03  0.50516269283E+02  0.27829397647E+03  0.17300000000E+03 0.  1.
         -6    1    1    2    0  503  0.14254752206E+03  0.15699314580E+03 -0.73664644231E+03  0.78583943961E+03  0.17300000000E+03 0.  1.
</event>
<event>
 4    1  0.6092738E+000  0.1000000E+03  0.7546771E-02  0.1280296E+00
         21   -1    0    0  501  502  0.00000000000E+00  0.00000000000E+00  0.66360641532E+03  0.66360641532E+03  0.00000000000E+00 0. -1.
         21   -1    0    0  502  503 -0.00000000000E+00 -0.00000000000E+00 -0.72008613414E+02  0.72008613414E+02  0.00000000000E+00 0. -1.
          6    1    1    2  501    0 -0.11885923602E+02  0.25669049242E+02  0.51554150057E+03  0.54452935098E+03  0.17300000000E+03 0. -1.
         -6    1    1    2    0  503  0.11885923602E+02 -0.25669049242E+02  0.76056301333E+02  0.19108567775E+03  0.17300000000E+03 0. -1.
</event>
<event>
 4    1  0.6092738E+000  0.1000000E+03  0.7546771E-02  0.1280296E+00
         21   -1    0    0  501  502  0.00000000000E+00  0.00000000000E+00  0.13574859811E+04  0.13574859811E+04  0.00000000000E+00 0. -1.
         21   -1    0    0  502  503 -0.00000000000E+00 -0.00000000000E+00 -0.37154267916E+02  0.37154267916E+02  0.00000000000E+00 0. -1.
          6    1    1    2  501    0  0.13334807872E+03  0.24150559918E+02  0.80388490028E+03  0.83338160079E+03  0.17300000000E+03 0. -1.
         -6    1    1    2    0  503 -0.13334807872E+03 -0.24150559918E+02  0.51644681287E+03  0.56125864818E+03  0.17300000000E+03 0. -1.
</event>
<event>
 4    1  0.6092738E+000  0.1000000E+03  0.7546771E-02  0.1280296E+00
         21   -1    0    0  501  502  0.00000000000E+00  0.00000000000E+00  0.63774217901E+03  0.63774217901E+03  0.00000000000E+00 0.  1.
         21   -1    0    0  502  503 -0.00000000000E+00 -0.00000000000E+00 -0.51070565440E+02  0.51070565440E+02  0.00000000000E+00 0.  1.
          6    1    1    2  501    0 -0.14757101391E+02  0.49217461687E+02  0.29171300387E+03  0.34302420790E+03  0.17300000000E+03 0.  1.
         -6    1    1    2    0  503  0.14757101391E+02 -0.49217461687E+02  0.29495860970E+03  0.34578853656E+03  0.17300000000E+03 0.  1.
</event>
<event>
 4    1  0.6092738E+000  0.1000000E+03  0.7546771E-02  0.1280296E+00
         21   -1    0    0  501  502  0.00000000000E+00  0.00000000000E+00  0.20093301431E+02  0.20093301431E+02  0.00000000000E+00 0.  1.
         21   -1    0    0  502  503 -0.00000000000E+00 -0.00000000000E+00 -0.24951791236E+04  0.24951791236E+04  0.00000000000E+00 0.  1.
          6    1    1    2  501    0  0.30796979213E+02  0.31216427863E+02 -0.47805708681E+03  0.51028472204E+03  0.17300000000E+03 0.  1.
         -6    1    1    2    0  503 -0.30796979213E+02 -0.31216427863E+02 -0.19970287354E+04  0.20049877030E+04  0.17300000000E+03 0.  1.
</event>
<event>
 4    1  0.6092738E+000  0.1000000E+03  0.7546771E-02  0.1280296E+00
         21   -1    0    0  503  502  0.00000000000E+00  0.00000000000E+00  0.28619990396E+03  0.28619990396E+03  0.00000000000E+00 0. -1.
         21   -1    0    0  501  503 -0.00000000000E+00 -0.00000000000E+00 -0.71255746178E+03  0.71255746178E+03  0.00000000000E+00 0. -1.
          6    1    1    2  501    0  0.21062451013E+03  0.73377410131E+02 -0.60298377506E+03  0.66578176722E+03  0.17300000000E+03 0. -1.
         -6    1    1    2    0  502 -0.21062451013E+03 -0.73377410131E+02  0.17662621724E+03  0.33297559851E+03  0.17300000000E+03 0. -1.
</event>
<event>
 4    1  0.6092738E+000  0.1000000E+03  0.7546771E-02  0.1280296E+00
         21   -1    0    0  503  502  0.00000000000E+00  0.00000000000E+00  0.43410390874E+03  0.43410390874E+03  0.00000000000E+00 0. -1.
         21   -1    0    0  501  503 -0.00000000000E+00 -0.00000000000E+00 -0.10705115675E+03  0.10705115675E+03  0.00000000000E+00 0. -1.
          6    1    1    2  501    0 -0.39736894610E+02  0.12230052173E+03  0.16657183331E+03  0.27241808688E+03  0.17300000000E+03 0. -1.
         -6    1    1    2    0  502  0.39736894610E+02 -0.12230052173E+03  0.16048091868E+03  0.26873697860E+03  0.17300000000E+03 0. -1.
</event>
<event>
 4    1  0.6092738E+000  0.1000000E+03  0.7546771E-02  0.1280296E+00
         21   -1    0    0  501  502  0.00000000000E+00  0.00000000000E+00  0.12567010203E+03  0.12567010203E+03  0.00000000000E+00 0. -1.
         21   -1    0    0  502  503 -0.00000000000E+00 -0.00000000000E+00 -0.38803693485E+03  0.38803693485E+03  0.00000000000E+00 0. -1.
          6    1    1    2  501    0 -0.12331249906E+03 -0.37788343346E+02 -0.76605990593E+02  0.22897905824E+03  0.17300000000E+03 0. -1.
         -6    1    1    2    0  503  0.12331249906E+03  0.37788343346E+02 -0.18576084223E+03  0.28472797864E+03  0.17300000000E+03 0. -1.
</event>
<event>
 4    1  0.6092738E+000  0.1000000E+03  0.7546771E-02  0.1280296E+00
         21   -1    0    0  501  502  0.00000000000E+00  0.00000000000E+00  0.13412774564E+04  0.13412774564E+04  0.00000000000E+00 0. -1.
         21   -1    0    0  502  503 -0.00000000000E+00 -0.00000000000E+00 -0.51386094766E+02  0.51386094766E+02  0.00000000000E+00 0. -1.
          6    1    1    2  501    0 -0.12206911395E+02 -0.37235947458E+02  0.11582905250E+04  0.11717941222E+04  0.17300000000E+03 0. -1.
         -6    1    1    2    0  503  0.12206911395E+02  0.37235947458E+02  0.13160083670E+03  0.22086942905E+03  0.17300000000E+03 0. -1.
</event>
<event>
 4    1  0.6092738E+000  0.1000000E+03  0.7546771E-02  0.1280296E+00
         21   -1    0    0  501  502  0.00000000000E+00  0.00000000000E+00  0.43011441280E+03  0.43011441280E+03  0.00000000000E+00 0. -1.
         21   -1    0    0  502  503 -0.00000000000E+00 -0.00000000000E+00 -0.90361501530E+02  0.90361501530E+02  0.00000000000E+00 0. -1.
          6    1    1    2  501    0 -0.36008586333E+02 -0.19367220373E+02  0.28239057473E+03  0.33368419832E+03  0.17300000000E+03 0. -1.
         -6    1    1    2    0  503  0.36008586333E+02  0.19367220373E+02  0.57362336538E+02  0.18679171600E+03  0.17300000000E+03 0. -1.
</event>
<event>
 4    1  0.6092738E+000  0.1000000E+03  0.7546771E-02  0.1280296E+00
         21   -1    0    0  501  502  0.00000000000E+00  0.00000000000E+00  0.15981775062E+03  0.15981775062E+03  0.00000000000E+00 0.  1.
         21   -1    0    0  502  503 -0.00000000000E+00 -0.00000000000E+00 -0.29727807061E+03  0.29727807061E+03  0.00000000000E+00 0.  1.
          6    1    1    2  501    0  0.86376761629E+00  0.59332940392E+02  0.55600596596E+02  0.19115849511E+03  0.17300000000E+03 0.  1.
         -6    1    1    2    0  503 -0.86376761629E+00 -0.59332940392E+02 -0.19306091659E+03  0.26593732612E+03  0.17300000000E+03 0.  1.
</event>
<event>
 4    1  0.6092738E+000  0.1000000E+03  0.7546771E-02  0.1280296E+00
         21   -1    0    0  501  502  0.00000000000E+00  0.00000000000E+00  0.75887669383E+02  0.75887669383E+02  0.00000000000E+00 0.  1.
         21   -1    0    0  502  503 -0.00000000000E+00 -0.00000000000E+00 -0.58988098053E+03  0.58988098053E+03  0.00000000000E+00 0. -1.
          6    1    1    2  501    0 -0.37100195958E+00 -0.12006666200E+03 -0.22476976781E+03  0.30800420368E+03  0.17300000000E+03 0. -1.
         -6    1    1    2    0  503  0.37100195958E+00  0.12006666200E+03 -0.28922354334E+03  0.35776444624E+03  0.17300000000E+03 0.  1.
</event>
<event>
 4    1  0.6092738E+000  0.1000000E+03  0.7546771E-02  0.1280296E+00
         21   -1    0    0  501  502  0.00000000000E+00  0.00000000000E+00  0.17507756105E+03  0.17507756105E+03  0.00000000000E+00 0.  1.
         21   -1    0    0  502  503 -0.00000000000E+00 -0.00000000000E+00 -0.23061791212E+03  0.23061791212E+03  0.00000000000E+00 0. -1.
          6    1    1    2  501    0  0.52101146166E+02  0.86612559986E+02 -0.43105235508E+02  0.20494713052E+03  0.17300000000E+03 0. -1.
         -6    1    1    2    0  503 -0.52101146166E+02 -0.86612559986E+02 -0.12435115556E+02  0.20074834265E+03  0.17300000000E+03 0.  1.
</event>
<event>
 4    1  0.6092738E+000  0.1000000E+03  0.7546771E-02  0.1280296E+00
         21   -1    0    0  501  502  0.00000000000E+00  0.00000000000E+00  0.29406496102E+02  0.29406496102E+02  0.00000000000E+00 0.  1.
         21   -1    0    0  502  503 -0.00000000000E+00 -0.00000000000E+00 -0.16469614105E+04  0.16469614105E+04  0.00000000000E+00 0.  1.
          6    1    1    2  501    0  0.81627192333E+02  0.10654762516E+03 -0.72472956982E+03  0.75708476694E+03  0.17300000000E+03 0.  1.
         -6    1    1    2    0  503 -0.81627192333E+02 -0.10654762516E+03 -0.89282534460E+03  0.91928313969E+03  0.17300000000E+03 0.  1.
</event>
<event>
 4    1  0.6092738E+000  0.1000000E+03  0.7546771E-02  0.1280296E+00
         21   -1    0    0  501  502  0.00000000000E+00  0.00000000000E+00  0.94586474425E+02  0.94586474425E+02  0.00000000000E+00 0. -1.
         21   -1    0    0  502  503 -0.00000000000E+00 -0.00000000000E+00 -0.65096097133E+03  0.65096097133E+03  0.00000000000E+00 0.  1.
          6    1    1    2  501    0  0.46390260922E+02 -0.16708963998E+03 -0.21862195774E+03  0.32832234847E+03  0.17300000000E+03 0. -1.
         -6    1    1    2    0  503 -0.46390260922E+02  0.16708963998E+03 -0.33775253916E+03  0.41722509729E+03  0.17300000000E+03 0.  1.
</event>
<event>
 4    1  0.6092738E+000  0.1000000E+03  0.7546771E-02  0.1280296E+00
         21   -1    0    0  501  502  0.00000000000E+00  0.00000000000E+00  0.47455326457E+03  0.47455326457E+03  0.00000000000E+00 0.  1.
         21   -1    0    0  502  503 -0.00000000000E+00 -0.00000000000E+00 -0.98365250890E+02  0.98365250890E+02  0.00000000000E+00 0.  1.
          6    1    1    2  501    0  0.15825220281E+02 -0.43323011295E+02  0.34842636617E+03  0.39173620402E+03  0.17300000000E+03 0.  1.
         -6    1    1    2    0  503 -0.15825220281E+02  0.43323011295E+02  0.27761647516E+02  0.18118231144E+03  0.17300000000E+03 0.  1.
</event>
<event>
 4    1  0.6092738E+000  0.1000000E+03  0.7546771E-02  0.1280296E+00
         21   -1    0    0  501  502  0.00000000000E+00  0.00000000000E+00  0.69129680905E+02  0.69129680905E+02  0.00000000000E+00 0.  1.
         21   -1    0    0  502  503 -0.00000000000E+00 -0.00000000000E+00 -0.53152333637E+03  0.53152333637E+03  0.00000000000E+00 0.  1.
          6    1    1    2  501    0 -0.54577904444E+01 -0.80113117947E+02 -0.20117647610E+03  0.27721629404E+03  0.17300000000E+03 0.  1.
         -6    1    1    2    0  503  0.54577904444E+01  0.80113117947E+02 -0.26121717936E+03  0.32343672323E+03  0.17300000000E+03 0.  1.
</event>
<event>
 4    1  0.6092738E+000  0.1000000E+03  0.7546771E-02  0.1280296E+00
         21   -1    0    0  501  502  0.00000000000E+00  0.00000000000E+00  0.26177989343E+03  0.26177989343E+03  0.00000000000E+00 0.  1.
         21   -1    0    0  502  503 -0.00000000000E+00 -0.00000000000E+00 -0.29627082773E+03  0.29627082773E+03  0.00000000000E+00 0.  1.
          6    1    1    2  501    0 -0.73566184679E+01  0.10833605687E+03  0.17242622352E+03  0.26730249458E+03  0.17300000000E+03 0.  1.
         -6    1    1    2    0  503  0.73566184679E+01 -0.10833605687E+03 -0.20691715782E+03  0.29074822657E+03  0.17300000000E+03 0.  1.
</event>
<event>
 4    1  0.6092738E+000  0.1000000E+03  0.7546771E-02  0.1280296E+00
         21   -1    0    0  503  502  0.00000000000E+00  0.00000000000E+00  0.94668037254E+02  0.94668037254E+02  0.00000000000E+00 0. -1.
         21   -1    0    0  501  503 -0.00000000000E+00 -0.00000000000E+00 -0.95906004271E+03  0.95906004271E+03  0.00000000000E+00 0. -1.
          6    1    1    2  501    0  0.11474353647E+03  0.92739578527E+02 -0.77793120197E+03  0.81047681250E+03  0.17300000000E+03 0. -1.
         -6    1    1    2    0  502 -0.11474353647E+03 -0.92739578527E+02 -0.86460803486E+02  0.24325126747E+03  0.17300000000E+03 0. -1.
</event>
<event>
 4    1  0.6092738E+000  0.1000000E+03  0.7546771E-02  0.1280296E+00
         21   -1    0    0  503  502  0.00000000000E+00  0.00000000000E+00  0.17726658020E+03  0.17726658020E+03  0.00000000000E+00 0. -1.
         21   -1    0    0  501  503 -0.00000000000E+00 -0.00000000000E+00 -0.84701585107E+03  0.84701585107E+03  0.00000000000E+00 0. -1.
          6    1    1    2  501    0  0.26351287287E+02 -0.12131356876E+03 -0.76275873625E+03  0.79192251011E+03  0.17300000000E+03 0. -1.
         -6    1    1    2    0  502 -0.26351287287E+02  0.12131356876E+03  0.93009465378E+02  0.23235992115E+03  0.17300000000E+03 0. -1.
</event>
<event>
 4    1  0.6092738E+000  0.1000000E+03  0.7546771E-02  0.1280296E+00
         21   -1    0    0  503  502  0.00000000000E+00  0.00000000000E+00  0.41408768961E+03  0.41408768961E+03  0.00000000000E+00 0. -1.
         21   -1    0    0  501  503 -0.00000000000E+00 -0.00000000000E+00 -0.25550691367E+03  0.25550691367E+03  0.00000000000E+00 0. -1.
          6    1    1    2  501    0  0.35981449536E+02 -0.17055567786E+03 -0.14023734462E+03  0.28280632381E+03  0.17300000000E+03 0. -1.
         -6    1    1    2    0  502 -0.35981449536E+02  0.17055567786E+03  0.29881812056E+03  0.38678827947E+03  0.17300000000E+03 0. -1.
</event>
<event>
 4    1  0.6092738E+000  0.1000000E+03  0.7546771E-02  0.1280296E+00
         21   -1    0    0  503  502  0.00000000000E+00  0.00000000000E+00  0.13810487604E+03  0.13810487604E+03  0.00000000000E+00 0. -1.
         21   -1    0    0  501  503 -0.00000000000E+00 -0.00000000000E+00 -0.37146439580E+03  0.37146439580E+03  0.00000000000E+00 0. -1.
          6    1    1    2  501    0 -0.98419111041E+02  0.76414635347E+02 -0.30667751047E+02  0.21539505302E+03  0.17300000000E+03 0. -1.
         -6    1    1    2    0  502  0.98419111041E+02 -0.76414635347E+02 -0.20269176871E+03  0.29417421882E+03  0.17300000000E+03 0. -1.
</event>
<event>
 4    1  0.6092738E+000  0.1000000E+03  0.7546771E-02  0.1280296E+00
         21   -1    0    0  501  502  0.00000000000E+00  0.00000000000E+00  0.28509955778E+03  0.28509955778E+03  0.00000000000E+00 0.  1.
         21   -1    0    0  502  503 -0.00000000000E+00 -0.00000000000E+00 -0.12576731961E+03  0.12576731961E+03  0.00000000000E+00 0.  1.
          6    1    1    2  501    0  0.69584274596E+02  0.32590866837E+02  0.74455068302E+02  0.20341261777E+03  0.17300000000E+03 0.  1.
         -6    1    1    2    0  503 -0.69584274596E+02 -0.32590866837E+02  0.84877169869E+02  0.20745425963E+03  0.17300000000E+03 0.  1.
</event>
<event>
 4    1  0.6092738E+000  0.1000000E+03  0.7546771E-02  0.1280296E+00
         21   -1    0    0  501  502  0.00000000000E+00  0.00000000000E+00  0.68354870200E+02  0.68354870200E+02  0.00000000000E+00 0.  1.
         21   -1    0    0  502  503 -0.00000000000E+00 -0.00000000000E+00 -0.44625257052E+03  0.44625257052E+03  0.00000000000E+00 0.  1.
          6    1    1    2  501    0 -0.46836833629E+01  0.20314741722E+02 -0.17152288807E+03  0.24450710982E+03  0.17300000000E+03 0.  1.
         -6    1    1    2    0  503  0.46836833629E+01 -0.20314741722E+02 -0.20637481225E+03  0.27010033090E+03  0.17300000000E+03 0.  1.
</event>
<event>
 4    1  0.6092738E+000  0.1000000E+03  0.7546771E-02  0.1280296E+00
         21   -1    0    0  501  502  0.00000000000E+00  0.00000000000E+00  0.88338048753E+02  0.88338048753E+02  0.00000000000E+00 0.  1.
         21   -1    0    0  502  503 -0.00000000000E+00 -0.00000000000E+00 -0.72376437217E+03  0.72376437217E+03  0.00000000000E+00 0.  1.
          6    1    1    2  501    0 -0.46873052675E+02 -0.54308808317E+01 -0.31435356406E+02  0.18205427533E+03  0.17300000000E+03 0.  1.
         -6    1    1    2    0  503  0.46873052675E+02  0.54308808317E+01 -0.60399096701E+03  0.63004814559E+03  0.17300000000E+03 0.  1.
</event>
<event>
 4    1  0.6092738E+000  0.1000000E+03  0.7546771E-02  0.1280296E+00
         21   -1    0    0  503  502  0.00000000000E+00  0.00000000000E+00  0.38062576462E+03  0.38062576462E+03  0.00000000000E+00 0.  1.
         21   -1    0    0  501  503 -0.00000000000E+00 -0.00000000000E+00 -0.13955816620E+03  0.13955816620E+03  0.00000000000E+00 0. -1.
          6    1    1    2  501    0  0.13793862289E+03  0.52096792602E+02  0.16349520666E+03  0.28000146800E+03  0.17300000000E+03 0. -1.
         -6    1    1    2    0  502 -0.13793862289E+03 -0.52096792602E+02  0.77572391757E+02  0.24018246282E+03  0.17300000000E+03 0. -1.
</event>
<event>
 4    1  0.6092738E+000  0.1000000E+03  0.7546771E-02  0.1280296E+00
         21   -1    0    0  503  502  0.00000000000E+00  0.00000000000E+00  0.36165491917E+03  0.36165491917E+03  0.00000000000E+00 0.  1.
         21   -1    0    0  501  503 -0.00000000000E+00 -0.00000000000E+00 -0.20344786855E+03  0.20344786855E+03  0.00000000000E+00 0. -1.
          6    1    1    2  501    0 -0.11915545658E+03 -0.12379908482E+03 -0.44694323444E+02  0.24789275662E+03  0.17300000000E+03 0. -1.
         -6    1    1    2    0  502  0.11915545658E+03  0.12379908482E+03  0.20290137407E+03  0.31721003110E+03  0.17300000000E+03 0. -1.
</event>
<event>
 4    1  0.6092738E+000  0.1000000E+03  0.7546771E-02  0.1280296E+00
         21   -1    0    0  503  502  0.00000000000E+00  0.00000000000E+00  0.94931095213E+02  0.94931095213E+02  0.00000000000E+00 0.  1.
         21   -1    0    0  501  503 -0.00000000000E+00 -0.00000000000E+00 -0.55982905201E+03  0.55982905201E+03  0.00000000000E+00 0. -1.
          6    1    1    2  501    0  0.78096517505E+02 -0.12729918787E+03 -0.27533603233E+03  0.35783107744E+03  0.17300000000E+03 0. -1.
         -6    1    1    2    0  502 -0.78096517505E+02  0.12729918787E+03 -0.18956192447E+03  0.29692906979E+03  0.17300000000E+03 0. -1.
</event>
<event>
 4    1  0.6092738E+000  0.1000000E+03  0.7546771E-02  0.1280296E+00
         21   -1    0    0  503  502  0.00000000000E+00  0.00000000000E+00  0.67643641677E+02  0.67643641677E+02  0.00000000000E+00 0.  1.
         21   -1    0    0  501  503 -0.00000000000E+00 -0.00000000000E+00 -0.77480579829E+03  0.77480579829E+03  0.00000000000E+00 0. -1.
          6    1    1    2  501    0 -0.14581724606E+03 -0.30728815930E+02 -0.38407953390E+03  0.44682548913E+03  0.17300000000E+03 0. -1.
         -6    1    1    2    0  502  0.14581724606E+03  0.30728815930E+02 -0.32308262271E+03  0.39562395083E+03  0.17300000000E+03 0. -1.
</event>
<event>
 4    1  0.6092738E+000  0.1000000E+03  0.7546771E-02  0.1280296E+00
         21   -1    0    0  503  502  0.00000000000E+00  0.00000000000E+00  0.32605684260E+03  0.32605684260E+03  0.00000000000E+00 0. -1.
         21   -1    0    0  501  503 -0.00000000000E+00 -0.00000000000E+00 -0.20182130097E+03  0.20182130097E+03  0.00000000000E+00 0. -1.
          6    1    1    2  501    0  0.92009081996E+02 -0.27461524945E+02 -0.10586871768E+03  0.22440363612E+03  0.17300000000E+03 0. -1.
         -6    1    1    2    0  502 -0.92009081996E+02  0.27461524945E+02  0.23010425930E+03  0.30347450745E+03  0.17300000000E+03 0. -1.
</event>
<event>
 4    1  0.6092738E+000  0.1000000E+03  0.7546771E-02  0.1280296E+00
         21   -1    0    0  503  502  0.00000000000E+00  0.00000000000E+00  0.11490349231E+03  0.11490349231E+03  0.00000000000E+00 0. -1.
         21   -1    0    0  501  503 -0.00000000000E+00 -0.00000000000E+00 -0.39839749342E+03  0.39839749342E+03  0.00000000000E+00 0.  1.
          6    1    1    2  501    0  0.20717698431E+02  0.11763302264E+03 -0.94043145861E+02  0.23030385217E+03  0.17300000000E+03 0.  1.
         -6    1    1    2    0  502 -0.20717698431E+02 -0.11763302264E+03 -0.18945085525E+03  0.28299713355E+03  0.17300000000E+03 0. -1.
</event>
<event>
 4    1  0.6092738E+000  0.1000000E+03  0.7546771E-02  0.1280296E+00
         21   -1    0    0  503  502  0.00000000000E+00  0.00000000000E+00  0.10521585089E+04  0.10521585089E+04  0.00000000000E+00 0. -1.
         21   -1    0    0  501  503 -0.00000000000E+00 -0.00000000000E+00 -0.33238721294E+02  0.33238721294E+02  0.00000000000E+00 0.  1.
          6    1    1    2  501    0 -0.15932391504E+02 -0.54531504318E+02  0.63312273822E+03  0.65878746779E+03  0.17300000000E+03 0.  1.
         -6    1    1    2    0  502  0.15932391504E+02  0.54531504318E+02  0.38579704935E+03  0.42660976237E+03  0.17300000000E+03 0. -1.
</event>
<event>
 4    1  0.6092738E+000  0.1000000E+03  0.7546771E-02  0.1280296E+00
         21   -1    0    0  503  502  0.00000000000E+00  0.00000000000E+00  0.11999795591E+03  0.11999795591E+03  0.00000000000E+00 0.  1.
         21   -1    0    0  501  503 -0.00000000000E+00 -0.00000000000E+00 -0.32368847417E+03  0.32368847417E+03  0.00000000000E+00 0. -1.
          6    1    1    2  501    0  0.12710179201E+01 -0.63091520699E+02 -0.18088659886E+03  0.25813003916E+03  0.17300000000E+03 0.  1.
         -6    1    1    2    0  502 -0.12710179201E+01  0.63091520699E+02 -0.22803919403E+02  0.18555639092E+03  0.17300000000E+03 0. -1.
</event>
<event>
 4    1  0.6092738E+000  0.1000000E+03  0.7546771E-02  0.1280296E+00
         21   -1    0    0  503  502  0.00000000000E+00  0.00000000000E+00  0.22043968795E+03  0.22043968795E+03  0.00000000000E+00 0. -1.
         21   -1    0    0  501  503 -0.00000000000E+00 -0.00000000000E+00 -0.17844535830E+03  0.17844535830E+03  0.00000000000E+00 0. -1.
          6    1    1    2  501    0 -0.25339755751E+02  0.92261495720E+02  0.36996839978E+02  0.20112695737E+03  0.17300000000E+03 0. -1.
         -6    1    1    2    0  502  0.25339755751E+02 -0.92261495720E+02  0.49974896663E+01  0.19775808888E+03  0.17300000000E+03 0. -1.
</event>
<event>
 4    1  0.6092738E+000  0.1000000E+03  0.7546771E-02  0.1280296E+00
         21   -1    0    0  503  502  0.00000000000E+00  0.00000000000E+00  0.23017233932E+03  0.23017233932E+03  0.00000000000E+00 0. -1.
         21   -1    0    0  501  503 -0.00000000000E+00 -0.00000000000E+00 -0.73644681046E+03  0.73644681046E+03  0.00000000000E+00 0. -1.
          6    1    1    2  501    0 -0.25069547847E+03 -0.73990170363E+02 -0.56649806040E+03  0.64743480033E+03  0.17300000000E+03 0. -1.
         -6    1    1    2    0  502  0.25069547847E+03  0.73990170363E+02  0.60223589262E+02  0.31918434946E+03  0.17300000000E+03 0. -1.
</event>
<event>
 4    1  0.6092738E+000  0.1000000E+03  0.7546771E-02  0.1280296E+00
         21   -1    0    0  503  502  0.00000000000E+00  0.00000000000E+00  0.12345745918E+03  0.12345745918E+03  0.00000000000E+00 0. -1.
         21   -1    0    0  501  503 -0.00000000000E+00 -0.00000000000E+00 -0.42094320486E+03  0.42094320486E+03  0.00000000000E+00 0. -1.
          6    1    1    2  501    0 -0.12120549259E+03  0.27363882645E+02 -0.24574718101E+03  0.32520798035E+03  0.17300000000E+03 0. -1.
         -6    1    1    2    0  502  0.12120549259E+03 -0.27363882645E+02 -0.51738564671E+02  0.21919268369E+03  0.17300000000E+03 0. -1.
</event>
<event>
 4    1  0.6092738E+000  0.1000000E+03  0.7546771E-02  0.1280296E+00
         21   -1    0    0  501  502  0.00000000000E+00  0.00000000000E+00  0.51491112831E+03  0.51491112831E+03  0.00000000000E+00 0.  1.
         21   -1    0    0  502  503 -0.00000000000E+00 -0.00000000000E+00 -0.10960265821E+03  0.10960265821E+03  0.00000000000E+00 0. -1.
          6    1    1    2  501    0  0.17592471315E+02 -0.81216217303E+02  0.38667851382E+03  0.43168836219E+03  0.17300000000E+03 0.  1.
         -6    1    1    2    0  503 -0.17592471315E+02  0.81216217303E+02  0.18629956277E+02  0.19282542434E+03  0.17300000000E+03 0. -1.
</event>
<event>
 4    1  0.6092738E+000  0.1000000E+03  0.7546771E-02  0.1280296E+00
         21   -1    0    0  501  502  0.00000000000E+00  0.00000000000E+00  0.88259296120E+03  0.88259296120E+03  0.00000000000E+00 0.  1.
         21   -1    0    0  502  503 -0.00000000000E+00 -0.00000000000E+00 -0.41437114164E+02  0.41437114164E+02  0.00000000000E+00 0. -1.
          6    1    1    2  501    0  0.18889151405E+01 -0.80608489272E+02  0.44934744550E+03  0.48820428442E+03  0.17300000000E+03 0.  1.
         -6    1    1    2    0  503 -0.18889151405E+01  0.80608489272E+02  0.39180840153E+03  0.43582579095E+03  0.17300000000E+03 0. -1.
</event>
<event>
 4    1  0.6092738E+000  0.1000000E+03  0.7546771E-02  0.1280296E+00
         21   -1    0    0  503  502  0.00000000000E+00  0.00000000000E+00  0.16017177103E+03  0.16017177103E+03  0.00000000000E+00 0. -1.
         21   -1    0    0  501  503 -0.00000000000E+00 -0.00000000000E+00 -0.21918998352E+03  0.21918998352E+03  0.00000000000E+00 0. -1.
          6    1    1    2  501    0  0.53670377627E+02 -0.44620991487E+02 -0.47261081310E+02  0.19244259436E+03  0.17300000000E+03 0. -1.
         -6    1    1    2    0  502 -0.53670377627E+02  0.44620991487E+02 -0.11757131178E+02  0.18691916020E+03  0.17300000000E+03 0. -1.
</event>
<event>
 4    1  0.6092738E+000  0.1000000E+03  0.7546771E-02  0.1280296E+00
         21   -1    0    0  501  502  0.00000000000E+00  0.00000000000E+00  0.49284587503E+02  0.49284587503E+02  0.00000000000E+00 0. -1.
         21   -1    0    0  502  503 -0.00000000000E+00 -0.00000000000E+00 -0.99292940867E+03  0.99292940867E+03  0.00000000000E+00 0.  1.
          6    1    1    2  501    0 -0.12309481534E+03  0.40428671666E+02 -0.36082355521E+03  0.42060604971E+03  0.17300000000E+03 0.  1.
         -6    1    1    2    0  503  0.12309481534E+03 -0.40428671666E+02 -0.58282126595E+03  0.62160794646E+03  0.17300000000E+03 0.  1.
</event>
<event>
 4    1  0.6092738E+000  0.1000000E+03  0.7546771E-02  0.1280296E+00
         21   -1    0    0  501  502  0.00000000000E+00  0.00000000000E+00  0.10614741059E+03  0.10614741059E+03  0.00000000000E+00 0. -1.
         21   -1    0    0  502  503 -0.00000000000E+00 -0.00000000000E+00 -0.44894012828E+03  0.44894012828E+03  0.00000000000E+00 0.  1.
          6    1    1    2  501    0  0.44706728889E+02  0.22161179488E+02 -0.14467029388E+02  0.18063251209E+03  0.17300000000E+03 0.  1.
         -6    1    1    2    0  503 -0.44706728889E+02 -0.22161179488E+02 -0.32832568830E+03  0.37445502678E+03  0.17300000000E+03 0.  1.
</event>
<event>
 4    1  0.6092738E+000  0.1000000E+03  0.7546771E-02  0.1280296E+00
         21   -1    0    0  501  502  0.00000000000E+00  0.00000000000E+00  0.17820926409E+03  0.17820926409E+03  0.00000000000E+00 0. -1.
         21   -1    0    0  502  503 -0.00000000000E+00 -0.00000000000E+00 -0.25944938514E+03  0.25944938514E+03  0.00000000000E+00 0.  1.
          6    1    1    2  501    0  0.80211055611E+02 -0.47781621666E+02  0.48043674735E+02  0.20237117258E+03  0.17300000000E+03 0.  1.
         -6    1    1    2    0  503 -0.80211055611E+02  0.47781621666E+02 -0.12928379578E+03  0.23528747664E+03  0.17300000000E+03 0.  1.
</event>
<event>
 4    1  0.6092738E+000  0.1000000E+03  0.7546771E-02  0.1280296E+00
         21   -1    0    0  503  502  0.00000000000E+00  0.00000000000E+00  0.48882134791E+03  0.48882134791E+03  0.00000000000E+00 0.  1.
         21   -1    0    0  501  503 -0.00000000000E+00 -0.00000000000E+00 -0.13368379706E+03  0.13368379706E+03  0.00000000000E+00 0. -1.
          6    1    1    2  501    0 -0.87807024581E+00 -0.17704966495E+03  0.99880327177E+02  0.26693151673E+03  0.17300000000E+03 0. -1.
         -6    1    1    2    0  502  0.87807024581E+00  0.17704966495E+03  0.25525722368E+03  0.35557362825E+03  0.17300000000E+03 0.  1.
</event>
<event>
 4    1  0.6092738E+000  0.1000000E+03  0.7546771E-02  0.1280296E+00
         21   -1    0    0  503  502  0.00000000000E+00  0.00000000000E+00  0.25756262761E+03  0.25756262761E+03  0.00000000000E+00 0.  1.
         21   -1    0    0  501  503 -0.00000000000E+00 -0.00000000000E+00 -0.30913902050E+03  0.30913902050E+03  0.00000000000E+00 0.  1.
          6    1    1    2  501    0 -0.62568071902E+02  0.14859533342E+02 -0.24012112245E+03  0.30285759492E+03  0.17300000000E+03 0.  1.
         -6    1    1    2    0  502  0.62568071902E+02 -0.14859533342E+02  0.18854472957E+03  0.26384405318E+03  0.17300000000E+03 0.  1.
</event>
<event>
 4    1  0.6092738E+000  0.1000000E+03  0.7546771E-02  0.1280296E+00
         21   -1    0    0  503  502  0.00000000000E+00  0.00000000000E+00  0.86122787311E+02  0.86122787311E+02  0.00000000000E+00 0. -1.
         21   -1    0    0  501  503 -0.00000000000E+00 -0.00000000000E+00 -0.26071356031E+04  0.26071356031E+04  0.00000000000E+00 0.  1.
          6    1    1    2  501    0  0.10598819965E+03 -0.14240288615E+03 -0.11281681251E+03  0.27233933545E+03  0.17300000000E+03 0.  1.
         -6    1    1    2    0  502 -0.10598819965E+03  0.14240288615E+03 -0.24081960032E+04  0.24209190549E+04  0.17300000000E+03 0. -1.
</event>
<event>
 4    1  0.6092738E+000  0.1000000E+03  0.7546771E-02  0.1280296E+00
         21   -1    0    0  501  502  0.00000000000E+00  0.00000000000E+00  0.41153502416E+03  0.41153502416E+03  0.00000000000E+00 0. -1.
         21   -1    0    0  502  503 -0.00000000000E+00 -0.00000000000E+00 -0.90617325823E+02  0.90617325823E+02  0.00000000000E+00 0.  1.
          6    1    1    2  501    0 -0.43941562157E+02  0.68463359494E+02  0.19594892589E+03  0.27375732691E+03  0.17300000000E+03 0. -1.
         -6    1    1    2    0  503  0.43941562157E+02 -0.68463359494E+02  0.12496877244E+03  0.22839502307E+03  0.17300000000E+03 0.  1.
</event>
<event>
 4    1  0.6092738E+000  0.1000000E+03  0.7546771E-02  0.1280296E+00
         21   -1    0    0  503  502  0.00000000000E+00  0.00000000000E+00  0.27013408463E+03  0.27013408463E+03  0.00000000000E+00 0. -1.
         21   -1    0    0  501  503 -0.00000000000E+00 -0.00000000000E+00 -0.22223468224E+03  0.22223468224E+03  0.00000000000E+00 0. -1.
          6    1    1    2  501    0 -0.72981137987E+02 -0.29598036055E+02 -0.13138942198E+03  0.23107243550E+03  0.17300000000E+03 0. -1.
         -6    1    1    2    0  502  0.72981137987E+02  0.29598036055E+02  0.17928882438E+03  0.26129633137E+03  0.17300000000E+03 0. -1.
</event>
<event>
 4    1  0.6092738E+000  0.1000000E+03  0.7546771E-02  0.1280296E+00
         21   -1    0    0  503  502  0.00000000000E+00  0.00000000000E+00  0.62145766247E+02  0.62145766247E+02  0.00000000000E+00 0. -1.
         21   -1    0    0  501  503 -0.00000000000E+00 -0.00000000000E+00 -0.63458544518E+03  0.63458544518E+03  0.00000000000E+00 0. -1.
          6    1    1    2  501    0  0.35767373302E+02 -0.59424718224E+02 -0.40644733842E+03  0.44714543612E+03  0.17300000000E+03 0. -1.
         -6    1    1    2    0  502 -0.35767373302E+02  0.59424718224E+02 -0.16599234051E+03  0.24958577531E+03  0.17300000000E+03 0. -1.
</event>
<event>
 4    1  0.6092738E+000  0.1000000E+03  0.7546771E-02  0.1280296E+00
         21   -1    0    0  503  502  0.00000000000E+00  0.00000000000E+00  0.25016312128E+03  0.25016312128E+03  0.00000000000E+00 0. -1.
         21   -1    0    0  501  503 -0.00000000000E+00 -0.00000000000E+00 -0.35746013288E+03  0.35746013288E+03  0.00000000000E+00 0.  1.
          6    1    1    2  501    0  0.25863762007E+02 -0.23066810518E+03 -0.12979600542E+03  0.31725811566E+03  0.17300000000E+03 0.  1.
         -6    1    1    2    0  502 -0.25863762007E+02  0.23066810518E+03  0.22498993815E+02  0.29036513850E+03  0.17300000000E+03 0. -1.
</event>
<event>
 4    1  0.6092738E+000  0.1000000E+03  0.7546771E-02  0.1280296E+00
         21   -1    0    0  503  502  0.00000000000E+00  0.00000000000E+00  0.23681899763E+04  0.23681899763E+04  0.00000000000E+00 0. -1.
         21   -1    0    0  501  503 -0.00000000000E+00 -0.00000000000E+00 -0.31117026225E+02  0.31117026225E+02  0.00000000000E+00 0. -1.
          6    1    1    2  501    0  0.90391541847E+02  0.11218286679E+03  0.49823083031E+03  0.54673447551E+03  0.17300000000E+03 0. -1.
         -6    1    1    2    0  502 -0.90391541847E+02 -0.11218286679E+03  0.18388421197E+04  0.18525725270E+04  0.17300000000E+03 0. -1.
</event>
<event>
 4    1  0.6092738E+000  0.1000000E+03  0.7546771E-02  0.1280296E+00
         21   -1    0    0  501  502  0.00000000000E+00  0.00000000000E+00  0.12786981517E+03  0.12786981517E+03  0.00000000000E+00 0.  1.
         21   -1    0    0  502  503 -0.00000000000E+00 -0.00000000000E+00 -0.55184854886E+03  0.55184854886E+03  0.00000000000E+00 0. -1.
          6    1    1    2  501    0  0.13740051278E+03 -0.46799652580E+02 -0.33026295142E+02  0.22822980648E+03  0.17300000000E+03 0.  1.
         -6    1    1    2    0  503 -0.13740051278E+03  0.46799652580E+02 -0.39095243855E+03  0.45148855756E+03  0.17300000000E+03 0. -1.
</event>
<event>
 4    1  0.6092738E+000  0.1000000E+03  0.7546771E-02  0.1280296E+00
         21   -1    0    0  501  502  0.00000000000E+00  0.00000000000E+00  0.15753204784E+04  0.15753204784E+04  0.00000000000E+00 0.  1.
         21   -1    0    0  502  503 -0.00000000000E+00 -0.00000000000E+00 -0.48717865354E+03  0.48717865354E+03  0.00000000000E+00 0.  1.
          6    1    1    2  501    0  0.13927018310E+03  0.12111713462E+03  0.15313895987E+04  0.15521432432E+04  0.17300000000E+03 0.  1.
         -6    1    1    2    0  503 -0.13927018310E+03 -0.12111713462E+03 -0.44324777386E+03  0.51035588880E+03  0.17300000000E+03 0.  1.
</event>
<event>
 4    1  0.6092738E+000  0.1000000E+03  0.7546771E-02  0.1280296E+00
         21   -1    0    0  501  502  0.00000000000E+00  0.00000000000E+00  0.55519309430E+03  0.55519309430E+03  0.00000000000E+00 0.  1.
         21   -1    0    0  502  503 -0.00000000000E+00 -0.00000000000E+00 -0.86284506905E+02  0.86284506905E+02  0.00000000000E+00 0.  1.
          6    1    1    2  501    0 -0.52654160011E+02  0.10602722878E+03  0.32668669066E+03  0.38815902368E+03  0.17300000000E+03 0.  1.
         -6    1    1    2    0  503  0.52654160011E+02 -0.10602722878E+03  0.14222189674E+03  0.25331857753E+03  0.17300000000E+03 0.  1.
</event>
<event>
 4    1  0.6092738E+000  0.1000000E+03  0.7546771E-02  0.1280296E+00
         21   -1    0    0  501  502  0.00000000000E+00  0.00000000000E+00  0.62297653948E+02  0.62297653948E+02  0.00000000000E+00 0.  1.
         21   -1    0    0  502  503 -0.00000000000E+00 -0.00000000000E+00 -0.91422489993E+03  0.91422489993E+03  0.00000000000E+00 0.  1.
          6    1    1    2  501    0  0.10727498826E+03  0.10978409300E+03 -0.30553874078E+03  0.38320150352E+03  0.17300000000E+03 0.  1.
         -6    1    1    2    0  503 -0.10727498826E+03 -0.10978409300E+03 -0.54638850520E+03  0.59332105036E+03  0.17300000000E+03 0.  1.
</event>
<event>
 4    1  0.6092738E+000  0.1000000E+03  0.7546771E-02  0.1280296E+00
         21   -1    0    0  503  502  0.00000000000E+00  0.00000000000E+00  0.65003681965E+02  0.65003681965E+02  0.00000000000E+00 0. -1.
         21   -1    0    0  501  503 -0.00000000000E+00 -0.00000000000E+00 -0.17005078648E+04  0.17005078648E+04  0.00000000000E+00 0.  1.
          6    1    1    2  501    0  0.11829931503E+03  0.16268871328E+03 -0.13497547823E+04  0.13755832645E+04  0.17300000000E+03 0.  1.
         -6    1    1    2    0  502 -0.11829931503E+03 -0.16268871328E+03 -0.28574940053E+03  0.38992828221E+03  0.17300000000E+03 0. -1.
</event>
<event>
 4    1  0.6092738E+000  0.1000000E+03  0.7546771E-02  0.1280296E+00
         21   -1    0    0  503  502  0.00000000000E+00  0.00000000000E+00  0.87995888168E+02  0.87995888168E+02  0.00000000000E+00 0. -1.
         21   -1    0    0  501  503 -0.00000000000E+00 -0.00000000000E+00 -0.65027691953E+03  0.65027691953E+03  0.00000000000E+00 0.  1.
          6    1    1    2  501    0  0.92939057629E+02  0.14258234717E+02 -0.49075681817E+03  0.52878371786E+03  0.17300000000E+03 0.  1.
         -6    1    1    2    0  502 -0.92939057629E+02 -0.14258234717E+02 -0.71524213193E+02  0.20948908984E+03  0.17300000000E+03 0. -1.
</event>
<event>
 4    1  0.6092738E+000  0.1000000E+03  0.7546771E-02  0.1280296E+00
         21   -1    0    0  501  502  0.00000000000E+00  0.00000000000E+00  0.35175894114E+03  0.35175894114E+03  0.00000000000E+00 0.  1.
         21   -1    0    0  502  503 -0.00000000000E+00 -0.00000000000E+00 -0.16056049179E+03  0.16056049179E+03  0.00000000000E+00 0.  1.
          6    1    1    2  501    0  0.59141908075E+02 -0.96389711562E+02  0.22204126529E+03  0.30334809259E+03  0.17300000000E+03 0.  1.
         -6    1    1    2    0  503 -0.59141908075E+02  0.96389711562E+02 -0.30842815945E+02  0.20897134033E+03  0.17300000000E+03 0.  1.
</event>
<event>
 4    1  0.6092738E+000  0.1000000E+03  0.7546771E-02  0.1280296E+00
         21   -1    0    0  501  502  0.00000000000E+00  0.00000000000E+00  0.13933364716E+04  0.13933364716E+04  0.00000000000E+00 0.  1.
         21   -1    0    0  502  503 -0.00000000000E+00 -0.00000000000E+00 -0.25583560184E+02  0.25583560184E+02  0.00000000000E+00 0.  1.
          6    1    1    2  501    0  0.43047191639E+02  0.54887770489E+02  0.79354523349E+03  0.81517407077E+03  0.17300000000E+03 0.  1.
         -6    1    1    2    0  503 -0.43047191639E+02 -0.54887770489E+02  0.57420767797E+03  0.60374596106E+03  0.17300000000E+03 0.  1.
</event>
<event>
 4    1  0.6092738E+000  0.1000000E+03  0.7546771E-02  0.1280296E+00
         21   -1    0    0  501  502  0.00000000000E+00  0.00000000000E+00  0.63056987770E+03  0.63056987770E+03  0.00000000000E+00 0.  1.
         21   -1    0    0  502  503 -0.00000000000E+00 -0.00000000000E+00 -0.73400165714E+02  0.73400165714E+02  0.00000000000E+00 0. -1.
          6    1    1    2  501    0  0.63379790173E+02  0.62025931193E+02  0.42934318018E+03  0.47130540026E+03  0.17300000000E+03 0.  1.
         -6    1    1    2    0  503 -0.63379790173E+02 -0.62025931193E+02  0.12782653180E+03  0.23266464316E+03  0.17300000000E+03 0. -1.
</event>
<event>
 4    1  0.6092738E+000  0.1000000E+03  0.7546771E-02  0.1280296E+00
         21   -1    0    0  501  502  0.00000000000E+00  0.00000000000E+00  0.41430038689E+03  0.41430038689E+03  0.00000000000E+00 0.  1.
         21   -1    0    0  502  503 -0.00000000000E+00 -0.00000000000E+00 -0.31668853257E+03  0.31668853257E+03  0.00000000000E+00 0. -1.
          6    1    1    2  501    0  0.14483246052E+03 -0.22056534895E+03  0.22831711925E+03  0.38946530233E+03  0.17300000000E+03 0.  1.
         -6    1    1    2    0  503 -0.14483246052E+03  0.22056534895E+03 -0.13070526492E+03  0.34152361713E+03  0.17300000000E+03 0. -1.
</event>
<event>
 4    1  0.6092738E+000  0.1000000E+03  0.7546771E-02  0.1280296E+00
         21   -1    0    0  503  502  0.00000000000E+00  0.00000000000E+00  0.10710270909E+04  0.10710270909E+04  0.00000000000E+00 0. -1.
         21   -1    0    0  501  503 -0.00000000000E+00 -0.00000000000E+00 -0.40330111924E+02  0.40330111924E+02  0.00000000000E+00 0. -1.
          6    1    1    2  501    0 -0.21412005834E+02 -0.11201016259E+03  0.47216287975E+03  0.51562732233E+03  0.17300000000E+03 0. -1.
         -6    1    1    2    0  502  0.21412005834E+02  0.11201016259E+03  0.55853409920E+03  0.59572988047E+03  0.17300000000E+03 0. -1.
</event>
<event>
 4    1  0.6092738E+000  0.1000000E+03  0.7546771E-02  0.1280296E+00
         21   -1    0    0  501  502  0.00000000000E+00  0.00000000000E+00  0.26551575982E+04  0.26551575982E+04  0.00000000000E+00 0.  1.
         21   -1    0    0  502  503 -0.00000000000E+00 -0.00000000000E+00 -0.13907671791E+02  0.13907671791E+02  0.00000000000E+00 0. -1.
          6    1    1    2  501    0  0.63644998213E+02 -0.52130816992E+02  0.14258906921E+04  0.14387013497E+04  0.17300000000E+03 0.  1.
         -6    1    1    2    0  503 -0.63644998213E+02  0.52130816992E+02  0.12153592343E+04  0.12303639203E+04  0.17300000000E+03 0. -1.
</event>
<event>
 4    1  0.6092738E+000  0.1000000E+03  0.7546771E-02  0.1280296E+00
         21   -1    0    0  501  502  0.00000000000E+00  0.00000000000E+00  0.11084780065E+03  0.11084780065E+03  0.00000000000E+00 0.  1.
         21   -1    0    0  502  503 -0.00000000000E+00 -0.00000000000E+00 -0.40046791685E+03  0.40046791685E+03  0.00000000000E+00 0. -1.
          6    1    1    2  501    0  0.25519748242E+02 -0.10894728737E+03 -0.91347591599E+02  0.22537557868E+03  0.17300000000E+03 0.  1.
         -6    1    1    2    0  503 -0.25519748242E+02  0.10894728737E+03 -0.19827252460E+03  0.28594013882E+03  0.17300000000E+03 0. -1.
</event>
<event>
 4    1  0.6092738E+000  0.1000000E+03  0.7546771E-02  0.1280296E+00
         21   -1    0    0  501  502  0.00000000000E+00  0.00000000000E+00  0.83351044317E+02  0.83351044317E+02  0.00000000000E+00 0.  1.
         21   -1    0    0  502  503 -0.00000000000E+00 -0.00000000000E+00 -0.50161364101E+03  0.50161364101E+03  0.00000000000E+00 0. -1.
          6    1    1    2  501    0  0.27480015064E+01 -0.10641445851E+03 -0.24265998681E+03  0.31645609126E+03  0.17300000000E+03 0.  1.
         -6    1    1    2    0  503 -0.27480015064E+01  0.10641445851E+03 -0.17560260988E+03  0.26850859407E+03  0.17300000000E+03 0. -1.
</event>
<event>
 4    1  0.6092738E+000  0.1000000E+03  0.7546771E-02  0.1280296E+00
         21   -1    0    0  501  502  0.00000000000E+00  0.00000000000E+00  0.10806554008E+03  0.10806554008E+03  0.00000000000E+00 0.  1.
         21   -1    0    0  502  503 -0.00000000000E+00 -0.00000000000E+00 -0.11956218875E+04  0.11956218875E+04  0.00000000000E+00 0. -1.
          6    1    1    2  501    0 -0.99552066594E+02 -0.99601153987E+02 -0.32640786885E+02  0.22544494851E+03  0.17300000000E+03 0.  1.
         -6    1    1    2    0  503  0.99552066594E+02  0.99601153987E+02 -0.10549155606E+04  0.10782424791E+04  0.17300000000E+03 0. -1.
</event>
<event>
 4    1  0.6092738E+000  0.1000000E+03  0.7546771E-02  0.1280296E+00
         21   -1    0    0  501  502  0.00000000000E+00  0.00000000000E+00  0.15375005241E+04  0.15375005241E+04  0.00000000000E+00 0.  1.
         21   -1    0    0  502  503 -0.00000000000E+00 -0.00000000000E+00 -0.25748996994E+02  0.25748996994E+02  0.00000000000E+00 0. -1.
          6    1    1    2  501    0  0.17920667359E+02 -0.66633795183E+02  0.10308291450E+04  0.10475203765E+04  0.17300000000E+03 0.  1.
         -6    1    1    2    0  503 -0.17920667359E+02  0.66633795183E+02  0.48092238203E+03  0.51572914453E+03  0.17300000000E+03 0. -1.
</event>
<event>
 4    1  0.6092738E+000  0.1000000E+03  0.7546771E-02  0.1280296E+00
         21   -1    0    0  503  502  0.00000000000E+00  0.00000000000E+00  0.44365379580E+03  0.44365379580E+03  0.00000000000E+00 0.  1.
         21   -1    0    0  501  503 -0.00000000000E+00 -0.00000000000E+00 -0.13900597283E+03  0.13900597283E+03  0.00000000000E+00 0. -1.
          6    1    1    2  501    0  0.63797938307E+01  0.12388000684E+03  0.22981758907E+01  0.21288785657E+03  0.17300000000E+03 0. -1.
         -6    1    1    2    0  502 -0.63797938307E+01 -0.12388000684E+03  0.30234964708E+03  0.36977191206E+03  0.17300000000E+03 0.  1.
</event>
<event>
 4    1  0.6092738E+000  0.1000000E+03  0.7546771E-02  0.1280296E+00
         21   -1    0    0  501  502  0.00000000000E+00  0.00000000000E+00  0.70546721880E+03  0.70546721880E+03  0.00000000000E+00 0. -1.
         21   -1    0    0  502  503 -0.00000000000E+00 -0.00000000000E+00 -0.77475187538E+02  0.77475187538E+02  0.00000000000E+00 0. -1.
          6    1    1    2  501    0  0.15614314559E+03  0.43219790203E+01  0.34431491827E+03  0.41578975981E+03  0.17300000000E+03 0. -1.
         -6    1    1    2    0  503 -0.15614314559E+03 -0.43219790203E+01  0.28367711299E+03  0.36715264653E+03  0.17300000000E+03 0. -1.
</event>
<event>
 4    1  0.6092738E+000  0.1000000E+03  0.7546771E-02  0.1280296E+00
         21   -1    0    0  503  502  0.00000000000E+00  0.00000000000E+00  0.15216102022E+03  0.15216102022E+03  0.00000000000E+00 0.  1.
         21   -1    0    0  501  503 -0.00000000000E+00 -0.00000000000E+00 -0.25319278614E+03  0.25319278614E+03  0.00000000000E+00 0.  1.
          6    1    1    2  501    0  0.87331041891E+02 -0.30936971150E+02 -0.46754996990E+02  0.20173952713E+03  0.17300000000E+03 0.  1.
         -6    1    1    2    0  502 -0.87331041891E+02  0.30936971150E+02 -0.54276768928E+02  0.20361427923E+03  0.17300000000E+03 0.  1.
</event>
<event>
 4    1  0.6092738E+000  0.1000000E+03  0.7546771E-02  0.1280296E+00
         21   -1    0    0  503  502  0.00000000000E+00  0.00000000000E+00  0.32043146798E+02  0.32043146798E+02  0.00000000000E+00 0.  1.
         21   -1    0    0  501  503 -0.00000000000E+00 -0.00000000000E+00 -0.19861611968E+04  0.19861611968E+04  0.00000000000E+00 0.  1.
          6    1    1    2  501    0  0.12504447094E+03  0.32695230962E+01 -0.15147142633E+04  0.15296846436E+04  0.17300000000E+03 0.  1.
         -6    1    1    2    0  502 -0.12504447094E+03 -0.32695230962E+01 -0.43940378669E+03  0.48851969996E+03  0.17300000000E+03 0.  1.
</event>
<event>
 4    1  0.6092738E+000  0.1000000E+03  0.7546771E-02  0.1280296E+00
         21   -1    0    0  503  502  0.00000000000E+00  0.00000000000E+00  0.75491041878E+03  0.75491041878E+03  0.00000000000E+00 0.  1.
         21   -1    0    0  501  503 -0.00000000000E+00 -0.00000000000E+00 -0.64087518040E+03  0.64087518040E+03  0.00000000000E+00 0.  1.
          6    1    1    2  501    0 -0.34886193593E+03 -0.42808842041E+03 -0.33016532721E+03  0.66626007633E+03  0.17300000000E+03 0.  1.
         -6    1    1    2    0  502  0.34886193593E+03  0.42808842041E+03  0.44420056558E+03  0.72952552285E+03  0.17300000000E+03 0.  1.
</event>
<event>
 4    1  0.6092738E+000  0.1000000E+03  0.7546771E-02  0.1280296E+00
         21   -1    0    0  501  502  0.00000000000E+00  0.00000000000E+00  0.22858876874E+03  0.22858876874E+03  0.00000000000E+00 0.  1.
         21   -1    0    0  502  503 -0.00000000000E+00 -0.00000000000E+00 -0.62530816775E+03  0.62530816775E+03  0.00000000000E+00 0.  1.
          6    1    1    2  501    0  0.22339510370E+03 -0.15722775442E+03  0.22885148774E+02  0.32415840132E+03  0.17300000000E+03 0.  1.
         -6    1    1    2    0  503 -0.22339510370E+03  0.15722775442E+03 -0.41960454779E+03  0.52973853516E+03  0.17300000000E+03 0.  1.
</event>
<event>
 4    1  0.6092738E+000  0.1000000E+03  0.7546771E-02  0.1280296E+00
         21   -1    0    0  501  502  0.00000000000E+00  0.00000000000E+00  0.30362082774E+03  0.30362082774E+03  0.00000000000E+00 0.  1.
         21   -1    0    0  502  503 -0.00000000000E+00 -0.00000000000E+00 -0.12654950059E+04  0.12654950059E+04  0.00000000000E+00 0.  1.
          6    1    1    2  501    0  0.12057830151E+03 -0.57169399988E+03 -0.33702316096E+03  0.69633811279E+03  0.17300000000E+03 0.  1.
         -6    1    1    2    0  503 -0.12057830151E+03  0.57169399988E+03 -0.62485101715E+03  0.87277772080E+03  0.17300000000E+03 0.  1.
</event>
<event>
 4    1  0.6092738E+000  0.1000000E+03  0.7546771E-02  0.1280296E+00
         21   -1    0    0  501  502  0.00000000000E+00  0.00000000000E+00  0.64313824088E+03  0.64313824088E+03  0.00000000000E+00 0.  1.
         21   -1    0    0  502  503 -0.00000000000E+00 -0.00000000000E+00 -0.13150737391E+03  0.13150737391E+03  0.00000000000E+00 0.  1.
          6    1    1    2  501    0  0.16080984167E+03  0.29698283239E+02  0.47829981696E+03  0.53426726281E+03  0.17300000000E+03 0.  1.
         -6    1    1    2    0  503 -0.16080984167E+03 -0.29698283239E+02  0.33331050014E+02  0.24037835198E+03  0.17300000000E+03 0.  1.
</event>
<event>
 4    1  0.6092738E+000  0.1000000E+03  0.7546771E-02  0.1280296E+00
         21   -1    0    0  501  502  0.00000000000E+00  0.00000000000E+00  0.92285510045E+02  0.92285510045E+02  0.00000000000E+00 0.  1.
         21   -1    0    0  502  503 -0.00000000000E+00 -0.00000000000E+00 -0.45484532004E+03  0.45484532004E+03  0.00000000000E+00 0.  1.
          6    1    1    2  501    0  0.74177771869E+01  0.86662261368E+02 -0.91895303903E+02  0.21433412664E+03  0.17300000000E+03 0.  1.
         -6    1    1    2    0  503 -0.74177771869E+01 -0.86662261368E+02 -0.27066450609E+03  0.33279670344E+03  0.17300000000E+03 0.  1.
</event>
<event>
 4    1  0.6092738E+000  0.1000000E+03  0.7546771E-02  0.1280296E+00
         21   -1    0    0  503  502  0.00000000000E+00  0.00000000000E+00  0.18167516152E+04  0.18167516152E+04  0.00000000000E+00 0. -1.
         21   -1    0    0  501  503 -0.00000000000E+00 -0.00000000000E+00 -0.33953109997E+03  0.33953109997E+03  0.00000000000E+00 0.  1.
          6    1    1    2  501    0  0.34377894304E+01 -0.29478181098E+02 -0.31226100313E+03  0.35821322649E+03  0.17300000000E+03 0.  1.
         -6    1    1    2    0  502 -0.34377894304E+01  0.29478181098E+02  0.17894815184E+04  0.17980694887E+04  0.17300000000E+03 0. -1.
</event>
<event>
 4    1  0.6092738E+000  0.1000000E+03  0.7546771E-02  0.1280296E+00
         21   -1    0    0  503  502  0.00000000000E+00  0.00000000000E+00  0.25912901065E+03  0.25912901065E+03  0.00000000000E+00 0.  1.
         21   -1    0    0  501  503 -0.00000000000E+00 -0.00000000000E+00 -0.47744346327E+03  0.47744346327E+03  0.00000000000E+00 0.  1.
          6    1    1    2  501    0 -0.19001069305E+03 -0.10175783486E+03 -0.33695144240E+03  0.43580270188E+03  0.17300000000E+03 0.  1.
         -6    1    1    2    0  502  0.19001069305E+03  0.10175783486E+03  0.11863698977E+03  0.30076977204E+03  0.17300000000E+03 0.  1.
</event>
<event>
 4    1  0.6092738E+000  0.1000000E+03  0.7546771E-02  0.1280296E+00
         21   -1    0    0  503  502  0.00000000000E+00  0.00000000000E+00  0.82249215601E+02  0.82249215601E+02  0.00000000000E+00 0.  1.
         21   -1    0    0  501  503 -0.00000000000E+00 -0.00000000000E+00 -0.43376845081E+03  0.43376845081E+03  0.00000000000E+00 0.  1.
          6    1    1    2  501    0 -0.26419498303E+02  0.36368656445E+02 -0.92363587307E+02  0.20119816431E+03  0.17300000000E+03 0.  1.
         -6    1    1    2    0  502  0.26419498303E+02 -0.36368656445E+02 -0.25915564790E+03  0.31481950210E+03  0.17300000000E+03 0.  1.
</event>
<event>
 4    1  0.6092738E+000  0.1000000E+03  0.7546771E-02  0.1280296E+00
         21   -1    0    0  503  502  0.00000000000E+00  0.00000000000E+00  0.23075214789E+04  0.23075214789E+04  0.00000000000E+00 0.  1.
         21   -1    0    0  501  503 -0.00000000000E+00 -0.00000000000E+00 -0.22623021544E+02  0.22623021544E+02  0.00000000000E+00 0.  1.
          6    1    1    2  501    0 -0.16276540192E+02  0.72801100227E+02  0.48330223643E+03  0.51872437546E+03  0.17300000000E+03 0.  1.
         -6    1    1    2    0  502  0.16276540192E+02 -0.72801100227E+02  0.18015962210E+04  0.18114201250E+04  0.17300000000E+03 0.  1.
</event>
<event>
 4    1  0.6092738E+000  0.1000000E+03  0.7546771E-02  0.1280296E+00
         21   -1    0    0  503  502  0.00000000000E+00  0.00000000000E+00  0.46458321573E+03  0.46458321573E+03  0.00000000000E+00 0.  1.
         21   -1    0    0  501  503 -0.00000000000E+00 -0.00000000000E+00 -0.28564377840E+03  0.28564377840E+03  0.00000000000E+00 0.  1.
          6    1    1    2  501    0 -0.17639949329E+03 -0.23376635825E+02 -0.18512565879E+03  0.30961872986E+03  0.17300000000E+03 0.  1.
         -6    1    1    2    0  502  0.17639949329E+03  0.23376635825E+02  0.36406509612E+03  0.44060826427E+03  0.17300000000E+03 0.  1.
</event>
<event>
 4    1  0.6092738E+000  0.1000000E+03  0.7546771E-02  0.1280296E+00
         21   -1    0    0  501  502  0.00000000000E+00  0.00000000000E+00  0.17496886561E+03  0.17496886561E+03  0.00000000000E+00 0. -1.
         21   -1    0    0  502  503 -0.00000000000E+00 -0.00000000000E+00 -0.34399591526E+03  0.34399591526E+03  0.00000000000E+00 0.  1.
          6    1    1    2  501    0  0.81636960764E+02  0.39099935273E+02  0.72600301571E+02  0.20831035041E+03  0.17300000000E+03 0. -1.
         -6    1    1    2    0  503 -0.81636960764E+02 -0.39099935273E+02 -0.24162735122E+03  0.31065443045E+03  0.17300000000E+03 0.  1.
</event>
<event>
 4    1  0.6092738E+000  0.1000000E+03  0.7546771E-02  0.1280296E+00
         21   -1    0    0  501  502  0.00000000000E+00  0.00000000000E+00  0.11281673910E+03  0.11281673910E+03  0.00000000000E+00 0. -1.
         21   -1    0    0  502  503 -0.00000000000E+00 -0.00000000000E+00 -0.42885139343E+03  0.42885139343E+03  0.00000000000E+00 0. -1.
          6    1    1    2  501    0  0.85157502884E+02  0.93264027513E+02 -0.96419980465E+02  0.23489527828E+03  0.17300000000E+03 0. -1.
         -6    1    1    2    0  503 -0.85157502884E+02 -0.93264027513E+02 -0.21961467387E+03  0.30677285425E+03  0.17300000000E+03 0. -1.
</event>
<event>
 4    1  0.6092738E+000  0.1000000E+03  0.7546771E-02  0.1280296E+00
         21   -1    0    0  501  502  0.00000000000E+00  0.00000000000E+00  0.21296291735E+03  0.21296291735E+03  0.00000000000E+00 0. -1.
         21   -1    0    0  502  503 -0.00000000000E+00 -0.00000000000E+00 -0.17090158670E+03  0.17090158670E+03  0.00000000000E+00 0. -1.
          6    1    1    2  501    0 -0.65657624401E+02  0.32415777563E+02 -0.12412156760E+02  0.18826780902E+03  0.17300000000E+03 0. -1.
         -6    1    1    2    0  503  0.65657624401E+02 -0.32415777563E+02  0.54473487408E+02  0.19559669503E+03  0.17300000000E+03 0. -1.
</event>
<event>
 4    1  0.6092738E+000  0.1000000E+03  0.7546771E-02  0.1280296E+00
         21   -1    0    0  501  502  0.00000000000E+00  0.00000000000E+00  0.43783201621E+03  0.43783201621E+03  0.00000000000E+00 0. -1.
         21   -1    0    0  502  503 -0.00000000000E+00 -0.00000000000E+00 -0.16392258932E+03  0.16392258932E+03  0.00000000000E+00 0. -1.
          6    1    1    2  501    0 -0.11773111103E+03 -0.15154900150E+03  0.21647934216E+03  0.33707568874E+03  0.17300000000E+03 0. -1.
         -6    1    1    2    0  503  0.11773111103E+03  0.15154900150E+03  0.57430084730E+02  0.26467891679E+03  0.17300000000E+03 0. -1.
</event>
<event>
 4    1  0.6092738E+000  0.1000000E+03  0.7546771E-02  0.1280296E+00
         21   -1    0    0  501  502  0.00000000000E+00  0.00000000000E+00  0.10533083013E+03  0.10533083013E+03  0.00000000000E+00 0. -1.
         21   -1    0    0  502  503 -0.00000000000E+00 -0.00000000000E+00 -0.75271027814E+03  0.75271027814E+03  0.00000000000E+00 0. -1.
          6    1    1    2  501    0  0.11307256974E+03  0.27620000640E+02 -0.35375336205E+02  0.21149157164E+03  0.17300000000E+03 0. -1.
         -6    1    1    2    0  503 -0.11307256974E+03 -0.27620000640E+02 -0.61200411180E+03  0.64654953664E+03  0.17300000000E+03 0. -1.
</event>
<event>
 4    1  0.6092738E+000  0.1000000E+03  0.7546771E-02  0.1280296E+00
         21   -1    0    0  501  502  0.00000000000E+00  0.00000000000E+00  0.26500802231E+03  0.26500802231E+03  0.00000000000E+00 0. -1.
         21   -1    0    0  502  503 -0.00000000000E+00 -0.00000000000E+00 -0.21707805256E+03  0.21707805256E+03  0.00000000000E+00 0. -1.
          6    1    1    2  501    0  0.29013618628E+02 -0.27431987532E+02  0.18602587306E+03  0.25715545776E+03  0.17300000000E+03 0. -1.
         -6    1    1    2    0  503 -0.29013618628E+02  0.27431987532E+02 -0.13809590331E+03  0.22493061712E+03  0.17300000000E+03 0. -1.
</event>
<event>
 4    1  0.6092738E+000  0.1000000E+03  0.7546771E-02  0.1280296E+00
         21   -1    0    0  501  502  0.00000000000E+00  0.00000000000E+00  0.32389733381E+03  0.32389733381E+03  0.00000000000E+00 0. -1.
         21   -1    0    0  502  503 -0.00000000000E+00 -0.00000000000E+00 -0.27570436122E+03  0.27570436122E+03  0.00000000000E+00 0.  1.
          6    1    1    2  501    0 -0.10685728621E+03 -0.24706517261E+02  0.24238492026E+03  0.31734577543E+03  0.17300000000E+03 0. -1.
         -6    1    1    2    0  503  0.10685728621E+03  0.24706517261E+02 -0.19419194767E+03  0.28225591960E+03  0.17300000000E+03 0.  1.
</event>
<event>
 4    1  0.6092738E+000  0.1000000E+03  0.7546771E-02  0.1280296E+00
         21   -1    0    0  501  502  0.00000000000E+00  0.00000000000E+00  0.17107490668E+03  0.17107490668E+03  0.00000000000E+00 0. -1.
         21   -1    0    0  502  503 -0.00000000000E+00 -0.00000000000E+00 -0.83152708494E+03  0.83152708494E+03  0.00000000000E+00 0.  1.
          6    1    1    2  501    0 -0.20181881858E+03 -0.65117562163E+02  0.14716330898E+02  0.27407426517E+03  0.17300000000E+03 0. -1.
         -6    1    1    2    0  503  0.20181881858E+03  0.65117562163E+02 -0.67516850916E+03  0.72852772645E+03  0.17300000000E+03 0.  1.
</event>
<event>
 4    1  0.6092738E+000  0.1000000E+03  0.7546771E-02  0.1280296E+00
         21   -1    0    0  503  502  0.00000000000E+00  0.00000000000E+00  0.34403899341E+03  0.34403899341E+03  0.00000000000E+00 0.  1.
         21   -1    0    0  501  503 -0.00000000000E+00 -0.00000000000E+00 -0.39526001464E+03  0.39526001464E+03  0.00000000000E+00 0.  1.
          6    1    1    2  501    0 -0.17596599130E+03  0.86225301035E+02 -0.28634669204E+03  0.38771414815E+03  0.17300000000E+03 0.  1.
         -6    1    1    2    0  502  0.17596599130E+03 -0.86225301035E+02  0.23512567082E+03  0.35158485990E+03  0.17300000000E+03 0.  1.
</event>
<event>
 4    1  0.6092738E+000  0.1000000E+03  0.7546771E-02  0.1280296E+00
         21   -1    0    0  503  502  0.00000000000E+00  0.00000000000E+00  0.21493726790E+03  0.21493726790E+03  0.00000000000E+00 0.  1.
         21   -1    0    0  501  503 -0.00000000000E+00 -0.00000000000E+00 -0.57237471667E+03  0.57237471667E+03  0.00000000000E+00 0.  1.
          6    1    1    2  501    0 -0.20218843537E+03  0.13743280977E+03 -0.38361004784E+03  0.48667608263E+03  0.17300000000E+03 0.  1.
         -6    1    1    2    0  502  0.20218843537E+03 -0.13743280977E+03  0.26172599062E+02  0.30063590195E+03  0.17300000000E+03 0.  1.
</event>
<event>
 4    1  0.6092738E+000  0.1000000E+03  0.7546771E-02  0.1280296E+00
         21   -1    0    0  503  502  0.00000000000E+00  0.00000000000E+00  0.20694992990E+04  0.20694992990E+04  0.00000000000E+00 0. -1.
         21   -1    0    0  501  503 -0.00000000000E+00 -0.00000000000E+00 -0.27427449796E+02  0.27427449796E+02  0.00000000000E+00 0. -1.
          6    1    1    2  501    0  0.69415745087E+02 -0.94056940103E+01  0.36940984810E+03  0.41388361724E+03  0.17300000000E+03 0. -1.
         -6    1    1    2    0  502 -0.69415745087E+02  0.94056940103E+01  0.16726620011E+04  0.16830431316E+04  0.17300000000E+03 0. -1.
</event>
<event>
 4    1  0.6092738E+000  0.1000000E+03  0.7546771E-02  0.1280296E+00
         21   -1    0    0  503  502  0.00000000000E+00  0.00000000000E+00  0.30294197277E+03  0.30294197277E+03  0.00000000000E+00 0. -1.
         21   -1    0    0  501  503 -0.00000000000E+00 -0.00000000000E+00 -0.15291417470E+03  0.15291417470E+03  0.00000000000E+00 0. -1.
          6    1    1    2  501    0 -0.53283600058E+02 -0.72874009369E+02  0.17117490409E+03  0.25957582913E+03  0.17300000000E+03 0. -1.
         -6    1    1    2    0  502  0.53283600058E+02  0.72874009369E+02 -0.21147106025E+02  0.19628031835E+03  0.17300000000E+03 0. -1.
</event>
<event>
 4    1  0.6092738E+000  0.1000000E+03  0.7546771E-02  0.1280296E+00
         21   -1    0    0  503  502  0.00000000000E+00  0.00000000000E+00  0.66751836411E+02  0.66751836411E+02  0.00000000000E+00 0. -1.
         21   -1    0    0  501  503 -0.00000000000E+00 -0.00000000000E+00 -0.10823066177E+04  0.10823066177E+04  0.00000000000E+00 0. -1.
          6    1    1    2  501    0  0.18581101554E+03  0.78911795740E+02 -0.59231392918E+03  0.64924386459E+03  0.17300000000E+03 0. -1.
         -6    1    1    2    0  502 -0.18581101554E+03 -0.78911795740E+02 -0.42324085207E+03  0.49981458948E+03  0.17300000000E+03 0. -1.
</event>
<event>
 4    1  0.6092738E+000  0.1000000E+03  0.7546771E-02  0.1280296E+00
         21   -1    0    0  503  502  0.00000000000E+00  0.00000000000E+00  0.48086310850E+02  0.48086310850E+02  0.00000000000E+00 0. -1.
         21   -1    0    0  501  503 -0.00000000000E+00 -0.00000000000E+00 -0.96758822574E+03  0.96758822574E+03  0.00000000000E+00 0. -1.
          6    1    1    2  501    0  0.33583059766E+01  0.18376112533E+02 -0.75986920901E+03  0.77953779544E+03  0.17300000000E+03 0. -1.
         -6    1    1    2    0  502 -0.33583059766E+01 -0.18376112533E+02 -0.15963270588E+03  0.23613674114E+03  0.17300000000E+03 0. -1.
</event>
<event>
 4    1  0.6092738E+000  0.1000000E+03  0.7546771E-02  0.1280296E+00
         21   -1    0    0  501  502  0.00000000000E+00  0.00000000000E+00  0.18853237817E+03  0.18853237817E+03  0.00000000000E+00 0.  1.
         21   -1    0    0  502  503 -0.00000000000E+00 -0.00000000000E+00 -0.23350666500E+03  0.23350666500E+03  0.00000000000E+00 0.  1.
          6    1    1    2  501    0 -0.87185697682E+02  0.14824346824E+02  0.57171623220E+02  0.20253074246E+03  0.17300000000E+03 0.  1.
         -6    1    1    2    0  503  0.87185697682E+02 -0.14824346824E+02 -0.10214591005E+03  0.21950830071E+03  0.17300000000E+03 0.  1.
</event>
<event>
 4    1  0.6092738E+000  0.1000000E+03  0.7546771E-02  0.1280296E+00
         21   -1    0    0  501  502  0.00000000000E+00  0.00000000000E+00  0.49926243660E+02  0.49926243660E+02  0.00000000000E+00 0.  1.
         21   -1    0    0  502  503 -0.00000000000E+00 -0.00000000000E+00 -0.61188973919E+03  0.61188973919E+03  0.00000000000E+00 0.  1.
          6    1    1    2  501    0 -0.23743456624E+02  0.64674222060E+01 -0.28825951777E+03  0.33708771687E+03  0.17300000000E+03 0.  1.
         -6    1    1    2    0  503  0.23743456624E+02 -0.64674222060E+01 -0.27370397777E+03  0.32472826598E+03  0.17300000000E+03 0.  1.
</event>
<event>
 4    1  0.6092738E+000  0.1000000E+03  0.7546771E-02  0.1280296E+00
         21   -1    0    0  501  502  0.00000000000E+00  0.00000000000E+00  0.68488794096E+02  0.68488794096E+02  0.00000000000E+00 0.  1.
         21   -1    0    0  502  503 -0.00000000000E+00 -0.00000000000E+00 -0.11291916307E+04  0.11291916307E+04  0.00000000000E+00 0.  1.
          6    1    1    2  501    0  0.11740313828E+03 -0.26867106984E+01 -0.13553199214E+03  0.24917591414E+03  0.17300000000E+03 0.  1.
         -6    1    1    2    0  503 -0.11740313828E+03  0.26867106984E+01 -0.92517084446E+03  0.94850451065E+03  0.17300000000E+03 0.  1.
</event>
<event>
 4    1  0.6092738E+000  0.1000000E+03  0.7546771E-02  0.1280296E+00
         21   -1    0    0  503  502  0.00000000000E+00  0.00000000000E+00  0.36507480599E+03  0.36507480599E+03  0.00000000000E+00 0. -1.
         21   -1    0    0  501  503 -0.00000000000E+00 -0.00000000000E+00 -0.48461922121E+03  0.48461922121E+03  0.00000000000E+00 0. -1.
          6    1    1    2  501    0  0.23772784690E+03  0.26662632566E+03 -0.20041601342E+03  0.44463434996E+03  0.17300000000E+03 0. -1.
         -6    1    1    2    0  502 -0.23772784690E+03 -0.26662632566E+03  0.80871598203E+02  0.40505967724E+03  0.17300000000E+03 0. -1.
</event>
<event>
 4    1  0.6092738E+000  0.1000000E+03  0.7546771E-02  0.1280296E+00
         21   -1    0    0  503  502  0.00000000000E+00  0.00000000000E+00  0.16126036942E+04  0.16126036942E+04  0.00000000000E+00 0. -1.
         21   -1    0    0  501  503 -0.00000000000E+00 -0.00000000000E+00 -0.39768221126E+02  0.39768221126E+02  0.00000000000E+00 0. -1.
          6    1    1    2  501    0  0.33720546387E+02  0.13325297834E+03  0.11900672210E+04  0.12104058914E+04  0.17300000000E+03 0. -1.
         -6    1    1    2    0  502 -0.33720546387E+02 -0.13325297834E+03  0.38276825202E+03  0.44196602386E+03  0.17300000000E+03 0. -1.
</event>
<event>
 4    1  0.6092738E+000  0.1000000E+03  0.7546771E-02  0.1280296E+00
         21   -1    0    0  503  502  0.00000000000E+00  0.00000000000E+00  0.25217733659E+02  0.25217733659E+02  0.00000000000E+00 0. -1.
         21   -1    0    0  501  503 -0.00000000000E+00 -0.00000000000E+00 -0.17220990526E+04  0.17220990526E+04  0.00000000000E+00 0. -1.
          6    1    1    2  501    0  0.86579445141E+02  0.21733839992E+02 -0.11602040229E+04  0.11764228555E+04  0.17300000000E+03 0. -1.
         -6    1    1    2    0  502 -0.86579445141E+02 -0.21733839992E+02 -0.53667729598E+03  0.57089393073E+03  0.17300000000E+03 0. -1.
</event>
<event>
 4    1  0.6092738E+000  0.1000000E+03  0.7546771E-02  0.1280296E+00
         21   -1    0    0  503  502  0.00000000000E+00  0.00000000000E+00  0.26521219930E+03  0.26521219930E+03  0.00000000000E+00 0. -1.
         21   -1    0    0  501  503 -0.00000000000E+00 -0.00000000000E+00 -0.44475353798E+03  0.44475353798E+03  0.00000000000E+00 0. -1.
          6    1    1    2  501    0 -0.86342435922E+02  0.16084080636E+03 -0.33150911531E+03  0.41611545846E+03  0.17300000000E+03 0. -1.
         -6    1    1    2    0  502  0.86342435922E+02 -0.16084080636E+03  0.15196777663E+03  0.29385027883E+03  0.17300000000E+03 0. -1.
</event>
<event>
 4    1  0.6092738E+000  0.1000000E+03  0.7546771E-02  0.1280296E+00
         21   -1    0    0  501  502  0.00000000000E+00  0.00000000000E+00  0.20839841364E+02  0.20839841364E+02  0.00000000000E+00 0. -1.
         21   -1    0    0  502  503 -0.00000000000E+00 -0.00000000000E+00 -0.17288540882E+04  0.17288540882E+04  0.00000000000E+00 0. -1.
          6    1    1    2  501    0  0.73143557166E+02  0.14461272242E+02 -0.96120320077E+03  0.97948951067E+03  0.17300000000E+03 0. -1.
         -6    1    1    2    0  503 -0.73143557166E+02 -0.14461272242E+02 -0.74681104602E+03  0.77020441885E+03  0.17300000000E+03 0. -1.
</event>
<event>
 4    1  0.6092738E+000  0.1000000E+03  0.7546771E-02  0.1280296E+00
         21   -1    0    0  501  502  0.00000000000E+00  0.00000000000E+00  0.79249666452E+02  0.79249666452E+02  0.00000000000E+00 0. -1.
         21   -1    0    0  502  503 -0.00000000000E+00 -0.00000000000E+00 -0.49232293736E+03  0.49232293736E+03  0.00000000000E+00 0. -1.
          6    1    1    2  501    0 -0.36823789494E+01 -0.92685925406E+02 -0.17473308013E+03  0.26280199766E+03  0.17300000000E+03 0. -1.
         -6    1    1    2    0  503  0.36823789494E+01  0.92685925406E+02 -0.23834019078E+03  0.30877060615E+03  0.17300000000E+03 0. -1.
</event>
<event>
 4    1  0.6092738E+000  0.1000000E+03  0.7546771E-02  0.1280296E+00
         21   -1    0    0  501  502  0.00000000000E+00  0.00000000000E+00  0.67227767876E+02  0.67227767876E+02  0.00000000000E+00 0. -1.
         21   -1    0    0  502  503 -0.00000000000E+00 -0.00000000000E+00 -0.54585616267E+03  0.54585616267E+03  0.00000000000E+00 0.  1.
          6    1    1    2  501    0  0.40158761104E+02 -0.71627503175E+02 -0.24722934095E+03  0.31272123742E+03  0.17300000000E+03 0. -1.
         -6    1    1    2    0  503 -0.40158761104E+02  0.71627503175E+02 -0.23139905385E+03  0.30036269313E+03  0.17300000000E+03 0. -1.
</event>
<event>
 4    1  0.6092738E+000  0.1000000E+03  0.7546771E-02  0.1280296E+00
         21   -1    0    0  501  502  0.00000000000E+00  0.00000000000E+00  0.35390352266E+04  0.35390352266E+04  0.00000000000E+00 0. -1.
         21   -1    0    0  502  503 -0.00000000000E+00 -0.00000000000E+00 -0.13350025092E+02  0.13350025092E+02  0.00000000000E+00 0.  1.
          6    1    1    2  501    0  0.59140814691E+02 -0.96392525330E+02  0.23127155890E+04  0.23219327188E+04  0.17300000000E+03 0. -1.
         -6    1    1    2    0  503 -0.59140814691E+02  0.96392525330E+02  0.12129696125E+04  0.12304525329E+04  0.17300000000E+03 0. -1.
</event>
<event>
 4    1  0.6092738E+000  0.1000000E+03  0.7546771E-02  0.1280296E+00
         21   -1    0    0  503  502  0.00000000000E+00  0.00000000000E+00  0.18654181514E+03  0.18654181514E+03  0.00000000000E+00 0.  1.
         21   -1    0    0  501  503 -0.00000000000E+00 -0.00000000000E+00 -0.27704501988E+03  0.27704501988E+03  0.00000000000E+00 0.  1.
          6    1    1    2  501    0 -0.55077601604E+02 -0.91237517865E+02 -0.14920099440E+03  0.25208681758E+03  0.17300000000E+03 0.  1.
         -6    1    1    2    0  502  0.55077601604E+02  0.91237517865E+02  0.58697789661E+02  0.21150001744E+03  0.17300000000E+03 0.  1.
</event>
<event>
 4    1  0.6092738E+000  0.1000000E+03  0.7546771E-02  0.1280296E+00
         21   -1    0    0  503  502  0.00000000000E+00  0.00000000000E+00  0.14882420342E+04  0.14882420342E+04  0.00000000000E+00 0.  1.
         21   -1    0    0  501  503 -0.00000000000E+00 -0.00000000000E+00 -0.30338351668E+02  0.30338351668E+02  0.00000000000E+00 0.  1.
          6    1    1    2  501    0 -0.61471902655E+02  0.83748396196E+02  0.49113712969E+03  0.53097765381E+03  0.17300000000E+03 0.  1.
         -6    1    1    2    0  502  0.61471902655E+02 -0.83748396196E+02  0.96676655280E+03  0.98760273203E+03  0.17300000000E+03 0.  1.
</event>
<event>
 4    1  0.6092738E+000  0.1000000E+03  0.7546771E-02  0.1280296E+00
         21   -1    0    0  503  502  0.00000000000E+00  0.00000000000E+00  0.69733876778E+03  0.69733876778E+03  0.00000000000E+00 0.  1.
         21   -1    0    0  501  503 -0.00000000000E+00 -0.00000000000E+00 -0.59113528504E+02  0.59113528504E+02  0.00000000000E+00 0.  1.
          6    1    1    2  501    0 -0.61607389568E+02  0.79280086886E+02  0.25424907780E+03  0.32350022595E+03  0.17300000000E+03 0.  1.
         -6    1    1    2    0  502  0.61607389568E+02 -0.79280086886E+02  0.38397616148E+03  0.43295207034E+03  0.17300000000E+03 0.  1.
</event>
<event>
 4    1  0.6092738E+000  0.1000000E+03  0.7546771E-02  0.1280296E+00
         21   -1    0    0  503  502  0.00000000000E+00  0.00000000000E+00  0.25190742980E+03  0.25190742980E+03  0.00000000000E+00 0.  1.
         21   -1    0    0  501  503 -0.00000000000E+00 -0.00000000000E+00 -0.35609753733E+03  0.35609753733E+03  0.00000000000E+00 0.  1.
          6    1    1    2  501    0 -0.49249438717E+02 -0.39654491776E+02 -0.29181175427E+03  0.34508127428E+03  0.17300000000E+03 0.  1.
         -6    1    1    2    0  502  0.49249438717E+02  0.39654491776E+02  0.18762164674E+03  0.26292369284E+03  0.17300000000E+03 0.  1.
</event>
<event>
 4    1  0.6092738E+000  0.1000000E+03  0.7546771E-02  0.1280296E+00
         21   -1    0    0  503  502  0.00000000000E+00  0.00000000000E+00  0.39687879870E+03  0.39687879870E+03  0.00000000000E+00 0.  1.
         21   -1    0    0  501  503 -0.00000000000E+00 -0.00000000000E+00 -0.16679532607E+03  0.16679532607E+03  0.00000000000E+00 0.  1.
          6    1    1    2  501    0 -0.27494671902E+02 -0.81175012320E+02 -0.71252879528E+02  0.20579434504E+03  0.17300000000E+03 0.  1.
         -6    1    1    2    0  502  0.27494671902E+02  0.81175012320E+02  0.30133635216E+03  0.35787977973E+03  0.17300000000E+03 0.  1.
</event>
<event>
 4    1  0.6092738E+000  0.1000000E+03  0.7546771E-02  0.1280296E+00
         21   -1    0    0  501  502  0.00000000000E+00  0.00000000000E+00  0.51613783620E+03  0.51613783620E+03  0.00000000000E+00 0. -1.
         21   -1    0    0  502  503 -0.00000000000E+00 -0.00000000000E+00 -0.92379700623E+02  0.92379700623E+02  0.00000000000E+00 0. -1.
          6    1    1    2  501    0  0.69802028260E+02 -0.84500889666E+01  0.36957172805E+03  0.41407244454E+03  0.17300000000E+03 0. -1.
         -6    1    1    2    0  503 -0.69802028260E+02  0.84500889666E+01  0.54186407526E+02  0.19444509228E+03  0.17300000000E+03 0. -1.
</event>
<event>
 4    1  0.6092738E+000  0.1000000E+03  0.7546771E-02  0.1280296E+00
         21   -1    0    0  501  502  0.00000000000E+00  0.00000000000E+00  0.20390881843E+03  0.20390881843E+03  0.00000000000E+00 0. -1.
         21   -1    0    0  502  503 -0.00000000000E+00 -0.00000000000E+00 -0.24556016883E+03  0.24556016883E+03  0.00000000000E+00 0. -1.
          6    1    1    2  501    0 -0.91376624387E+02  0.10718191657E+03 -0.32792510256E+01  0.22310850322E+03  0.17300000000E+03 0. -1.
         -6    1    1    2    0  503  0.91376624387E+02 -0.10718191657E+03 -0.38372099381E+02  0.22636048404E+03  0.17300000000E+03 0. -1.
</event>
<event>
 4    1  0.6092738E+000  0.1000000E+03  0.7546771E-02  0.1280296E+00
         21   -1    0    0  501  502  0.00000000000E+00  0.00000000000E+00  0.44653414520E+03  0.44653414520E+03  0.00000000000E+00 0.  1.
         21   -1    0    0  502  503 -0.00000000000E+00 -0.00000000000E+00 -0.12497574757E+03  0.12497574757E+03  0.00000000000E+00 0.  1.
          6    1    1    2  501    0  0.10024691681E+03  0.65082235585E+02  0.29101456326E+03  0.35903149966E+03  0.17300000000E+03 0. -1.
         -6    1    1    2    0  503 -0.10024691681E+03 -0.65082235585E+02  0.30543834365E+02  0.21247839310E+03  0.17300000000E+03 0. -1.
</event>
<event>
 4    1  0.6092738E+000  0.1000000E+03  0.7546771E-02  0.1280296E+00
         21   -1    0    0  501  502  0.00000000000E+00  0.00000000000E+00  0.23731227098E+03  0.23731227098E+03  0.00000000000E+00 0.  1.
         21   -1    0    0  502  503 -0.00000000000E+00 -0.00000000000E+00 -0.13981713994E+03  0.13981713994E+03  0.00000000000E+00 0.  1.
          6    1    1    2  501    0 -0.31332180048E+02 -0.53774653201E+01  0.97749361124E+02  0.20123260233E+03  0.17300000000E+03 0. -1.
         -6    1    1    2    0  503  0.31332180048E+02  0.53774653201E+01 -0.25423009257E+00  0.17589680859E+03  0.17300000000E+03 0. -1.
</event>
<event>
 4    1  0.6092738E+000  0.1000000E+03  0.7546771E-02  0.1280296E+00
         21   -1    0    0  501  502  0.00000000000E+00  0.00000000000E+00  0.10320849746E+03  0.10320849746E+03  0.00000000000E+00 0.  1.
         21   -1    0    0  502  503 -0.00000000000E+00 -0.00000000000E+00 -0.52460771959E+03  0.52460771959E+03  0.00000000000E+00 0.  1.
          6    1    1    2  501    0 -0.12450320550E+03  0.77019612927E+02 -0.13954571952E+03  0.26614859908E+03  0.17300000000E+03 0. -1.
         -6    1    1    2    0  503  0.12450320550E+03 -0.77019612927E+02 -0.28185350261E+03  0.36166761797E+03  0.17300000000E+03 0. -1.
</event>
<event>
 4    1  0.6092738E+000  0.1000000E+03  0.7546771E-02  0.1280296E+00
         21   -1    0    0  501  502  0.00000000000E+00  0.00000000000E+00  0.19245865442E+03  0.19245865442E+03  0.00000000000E+00 0. -1.
         21   -1    0    0  502  503 -0.00000000000E+00 -0.00000000000E+00 -0.22992406434E+03  0.22992406434E+03  0.00000000000E+00 0. -1.
          6    1    1    2  501    0 -0.92863332244E+02 -0.59046104323E+02 -0.65948965091E+02  0.21537944867E+03  0.17300000000E+03 0. -1.
         -6    1    1    2    0  503  0.92863332244E+02  0.59046104323E+02  0.28483555172E+02  0.20700327009E+03  0.17300000000E+03 0. -1.
</event>
<event>
 4    1  0.6092738E+000  0.1000000E+03  0.7546771E-02  0.1280296E+00
         21   -1    0    0  501  502  0.00000000000E+00  0.00000000000E+00  0.45881905476E+03  0.45881905476E+03  0.00000000000E+00 0. -1.
         21   -1    0    0  502  503 -0.00000000000E+00 -0.00000000000E+00 -0.85550441760E+02  0.85550441760E+02  0.00000000000E+00 0. -1.
          6    1    1    2  501    0  0.57937325981E+02 -0.49024441393E+02  0.26863971202E+03  0.32841501864E+03  0.17300000000E+03 0. -1.
         -6    1    1    2    0  503 -0.57937325981E+02  0.49024441393E+02  0.10462890099E+03  0.21595447788E+03  0.17300000000E+03 0. -1.
</event>
<event>
 4    1  0.6092738E+000  0.1000000E+03  0.7546771E-02  0.1280296E+00
         21   -1    0    0  501  502  0.00000000000E+00  0.00000000000E+00  0.20873898365E+03  0.20873898365E+03  0.00000000000E+00 0. -1.
         21   -1    0    0  502  503 -0.00000000000E+00 -0.00000000000E+00 -0.53489825535E+03  0.53489825535E+03  0.00000000000E+00 0. -1.
          6    1    1    2  501    0 -0.22214016370E+03  0.61953398928E+02  0.24906418147E+02  0.28936794161E+03  0.17300000000E+03 0. -1.
         -6    1    1    2    0  503  0.22214016370E+03 -0.61953398928E+02 -0.35106568985E+03  0.45426929739E+03  0.17300000000E+03 0. -1.
</event>
<event>
 4    1  0.6092738E+000  0.1000000E+03  0.7546771E-02  0.1280296E+00
         21   -1    0    0  501  502  0.00000000000E+00  0.00000000000E+00  0.28367306603E+03  0.28367306603E+03  0.00000000000E+00 0. -1.
         21   -1    0    0  502  503 -0.00000000000E+00 -0.00000000000E+00 -0.41658576790E+03  0.41658576790E+03  0.00000000000E+00 0. -1.
          6    1    1    2  501    0 -0.26261906601E+03  0.12740721364E+02  0.74356999734E+02  0.32340232409E+03  0.17300000000E+03 0. -1.
         -6    1    1    2    0  503  0.26261906601E+03 -0.12740721364E+02 -0.20726970160E+03  0.37685650985E+03  0.17300000000E+03 0. -1.
</event>
<event>
 4    1  0.6092738E+000  0.1000000E+03  0.7546771E-02  0.1280296E+00
         21   -1    0    0  501  502  0.00000000000E+00  0.00000000000E+00  0.71073043411E+03  0.71073043411E+03  0.00000000000E+00 0. -1.
         21   -1    0    0  502  503 -0.00000000000E+00 -0.00000000000E+00 -0.81512785547E+02  0.81512785547E+02  0.00000000000E+00 0.  1.
          6    1    1    2  501    0 -0.75113698592E+02  0.85012466418E+02  0.51707878465E+03  0.55692787387E+03  0.17300000000E+03 0. -1.
         -6    1    1    2    0  503  0.75113698592E+02 -0.85012466418E+02  0.11213886392E+03  0.23531534579E+03  0.17300000000E+03 0.  1.
</event>
<event>
 4    1  0.6092738E+000  0.1000000E+03  0.7546771E-02  0.1280296E+00
         21   -1    0    0  501  502  0.00000000000E+00  0.00000000000E+00  0.41171470964E+03  0.41171470964E+03  0.00000000000E+00 0. -1.
         21   -1    0    0  502  503 -0.00000000000E+00 -0.00000000000E+00 -0.21706936637E+03  0.21706936637E+03  0.00000000000E+00 0.  1.
          6    1    1    2  501    0 -0.12472265279E+02 -0.61288958320E+02  0.34514302145E+03  0.39110688957E+03  0.17300000000E+03 0. -1.
         -6    1    1    2    0  503  0.12472265279E+02  0.61288958320E+02 -0.15049767818E+03  0.23767718643E+03  0.17300000000E+03 0.  1.
</event>
<event>
 4    1  0.6092738E+000  0.1000000E+03  0.7546771E-02  0.1280296E+00
         21   -1    0    0  503  502  0.00000000000E+00  0.00000000000E+00  0.20029939701E+03  0.20029939701E+03  0.00000000000E+00 0. -1.
         21   -1    0    0  501  503 -0.00000000000E+00 -0.00000000000E+00 -0.33718408539E+03  0.33718408539E+03  0.00000000000E+00 0. -1.
          6    1    1    2  501    0 -0.14158270312E+03 -0.21500500252E+02 -0.20367153153E+03  0.30318150684E+03  0.17300000000E+03 0. -1.
         -6    1    1    2    0  502  0.14158270312E+03  0.21500500252E+02  0.66786843159E+02  0.23430197556E+03  0.17300000000E+03 0. -1.
</event>
<event>
 4    1  0.6092738E+000  0.1000000E+03  0.7546771E-02  0.1280296E+00
         21   -1    0    0  503  502  0.00000000000E+00  0.00000000000E+00  0.79730586967E+03  0.79730586967E+03  0.00000000000E+00 0. -1.
         21   -1    0    0  501  503 -0.00000000000E+00 -0.00000000000E+00 -0.11454095367E+03  0.11454095367E+03  0.00000000000E+00 0. -1.
          6    1    1    2  501    0 -0.13378883990E+03  0.49491989179E+01  0.65593989836E+03  0.69145505893E+03  0.17300000000E+03 0. -1.
         -6    1    1    2    0  502  0.13378883990E+03 -0.49491989179E+01  0.26825017630E+02  0.22039176441E+03  0.17300000000E+03 0. -1.
</event>
<event>
 4    1  0.6092738E+000  0.1000000E+03  0.7546771E-02  0.1280296E+00
         21   -1    0    0  503  502  0.00000000000E+00  0.00000000000E+00  0.91215817750E+02  0.91215817750E+02  0.00000000000E+00 0. -1.
         21   -1    0    0  501  503 -0.00000000000E+00 -0.00000000000E+00 -0.62444416009E+03  0.62444416009E+03  0.00000000000E+00 0. -1.
          6    1    1    2  501    0 -0.15848774483E+03 -0.82432286677E+01 -0.33099548570E+03  0.40579961512E+03  0.17300000000E+03 0. -1.
         -6    1    1    2    0  502  0.15848774483E+03  0.82432286677E+01 -0.20223285664E+03  0.30986036272E+03  0.17300000000E+03 0. -1.
</event>
<event>
 4    1  0.6092738E+000  0.1000000E+03  0.7546771E-02  0.1280296E+00
         21   -1    0    0  501  502  0.00000000000E+00  0.00000000000E+00  0.92112453998E+02  0.92112453998E+02  0.00000000000E+00 0.  1.
         21   -1    0    0  502  503 -0.00000000000E+00 -0.00000000000E+00 -0.46647141894E+03  0.46647141894E+03  0.00000000000E+00 0.  1.
          6    1    1    2  501    0 -0.82602635474E+02  0.78416130913E+02 -0.19817042902E+03  0.28665799119E+03  0.17300000000E+03 0.  1.
         -6    1    1    2    0  503  0.82602635474E+02 -0.78416130913E+02 -0.17618853592E+03  0.27192588175E+03  0.17300000000E+03 0.  1.
</event>
<event>
 4    1  0.6092738E+000  0.1000000E+03  0.7546771E-02  0.1280296E+00
         21   -1    0    0  501  502  0.00000000000E+00  0.00000000000E+00  0.41138521013E+02  0.41138521013E+02  0.00000000000E+00 0.  1.
         21   -1    0    0  502  503 -0.00000000000E+00 -0.00000000000E+00 -0.17932209918E+04  0.17932209918E+04  0.00000000000E+00 0.  1.
          6    1    1    2  501    0 -0.39115727510E+02  0.22255675063E+02 -0.18550733970E+03  0.25761857133E+03  0.17300000000E+03 0.  1.
         -6    1    1    2    0  503  0.39115727510E+02 -0.22255675063E+02 -0.15665751311E+04  0.15767409415E+04  0.17300000000E+03 0.  1.
</event>
<event>
 4    1  0.6092738E+000  0.1000000E+03  0.7546771E-02  0.1280296E+00
         21   -1    0    0  503  502  0.00000000000E+00  0.00000000000E+00  0.64889887551E+03  0.64889887551E+03  0.00000000000E+00 0.  1.
         21   -1    0    0  501  503 -0.00000000000E+00 -0.00000000000E+00 -0.62552735587E+02  0.62552735587E+02  0.00000000000E+00 0.  1.
          6    1    1    2  501    0  0.99422318405E+02  0.53439512621E+01  0.34146420850E+03  0.39552517101E+03  0.17300000000E+03 0.  1.
         -6    1    1    2    0  502 -0.99422318405E+02 -0.53439512621E+01  0.24488193142E+03  0.31592644009E+03  0.17300000000E+03 0.  1.
</event>
<event>
 4    1  0.6092738E+000  0.1000000E+03  0.7546771E-02  0.1280296E+00
         21   -1    0    0  503  502  0.00000000000E+00  0.00000000000E+00  0.95061107892E+02  0.95061107892E+02  0.00000000000E+00 0.  1.
         21   -1    0    0  501  503 -0.00000000000E+00 -0.00000000000E+00 -0.69539439594E+03  0.69539439594E+03  0.00000000000E+00 0.  1.
          6    1    1    2  501    0 -0.79053571875E+02  0.13596907019E+03 -0.46457453442E+03  0.52009187007E+03  0.17300000000E+03 0.  1.
         -6    1    1    2    0  502  0.79053571875E+02 -0.13596907019E+03 -0.13575875362E+03  0.27036363376E+03  0.17300000000E+03 0.  1.
</event>
<event>
 4    1  0.6092738E+000  0.1000000E+03  0.7546771E-02  0.1280296E+00
         21   -1    0    0  503  502  0.00000000000E+00  0.00000000000E+00  0.49786457050E+03  0.49786457050E+03  0.00000000000E+00 0.  1.
         21   -1    0    0  501  503 -0.00000000000E+00 -0.00000000000E+00 -0.25015299264E+03  0.25015299264E+03  0.00000000000E+00 0.  1.
          6    1    1    2  501    0 -0.17916012777E+03 -0.39672884638E+02 -0.13776858831E+03  0.28736992376E+03  0.17300000000E+03 0.  1.
         -6    1    1    2    0  502  0.17916012777E+03  0.39672884638E+02  0.38548016617E+03  0.46064763938E+03  0.17300000000E+03 0.  1.
</event>
<event>
 4    1  0.6092738E+000  0.1000000E+03  0.7546771E-02  0.1280296E+00
         21   -1    0    0  501  502  0.00000000000E+00  0.00000000000E+00  0.11751014799E+04  0.11751014799E+04  0.00000000000E+00 0.  1.
         21   -1    0    0  502  503 -0.00000000000E+00 -0.00000000000E+00 -0.41862825901E+03  0.41862825901E+03  0.00000000000E+00 0. -1.
          6    1    1    2  501    0 -0.57287426301E+03  0.92859159740E+02  0.78023506241E+03  0.98767580581E+03  0.17300000000E+03 0.  1.
         -6    1    1    2    0  503  0.57287426301E+03 -0.92859159740E+02 -0.23761841475E+02  0.60605393314E+03  0.17300000000E+03 0. -1.
</event>
<event>
 4    1  0.6092738E+000  0.1000000E+03  0.7546771E-02  0.1280296E+00
         21   -1    0    0  501  502  0.00000000000E+00  0.00000000000E+00  0.13919668235E+03  0.13919668235E+03  0.00000000000E+00 0.  1.
         21   -1    0    0  502  503 -0.00000000000E+00 -0.00000000000E+00 -0.89740390673E+03  0.89740390673E+03  0.00000000000E+00 0. -1.
          6    1    1    2  501    0 -0.12518781184E+02  0.24986934945E+03 -0.11515851334E+03  0.32524128715E+03  0.17300000000E+03 0.  1.
         -6    1    1    2    0  503  0.12518781184E+02 -0.24986934945E+03 -0.64304871104E+03  0.71135930193E+03  0.17300000000E+03 0. -1.
</event>
<event>
 4    1  0.6092738E+000  0.1000000E+03  0.7546771E-02  0.1280296E+00
         21   -1    0    0  503  502  0.00000000000E+00  0.00000000000E+00  0.18824669019E+03  0.18824669019E+03  0.00000000000E+00 0.  1.
         21   -1    0    0  501  503 -0.00000000000E+00 -0.00000000000E+00 -0.30350480556E+03  0.30350480556E+03  0.00000000000E+00 0.  1.
          6    1    1    2  501    0 -0.98874805180E+02 -0.11632784587E+03  0.65805330357E+01  0.23082612123E+03  0.17300000000E+03 0.  1.
         -6    1    1    2    0  502  0.98874805180E+02  0.11632784587E+03 -0.12183864841E+03  0.26092537453E+03  0.17300000000E+03 0.  1.
</event>
<event>
 4    1  0.6092738E+000  0.1000000E+03  0.7546771E-02  0.1280296E+00
         21   -1    0    0  503  502  0.00000000000E+00  0.00000000000E+00  0.59921957050E+02  0.59921957050E+02  0.00000000000E+00 0.  1.
         21   -1    0    0  501  503 -0.00000000000E+00 -0.00000000000E+00 -0.95187101207E+03  0.95187101207E+03  0.00000000000E+00 0.  1.
          6    1    1    2  501    0 -0.10570819152E+03  0.59215314165E+01 -0.71307454245E+03  0.74135928495E+03  0.17300000000E+03 0.  1.
         -6    1    1    2    0  502  0.10570819152E+03 -0.59215314165E+01 -0.17887451257E+03  0.27043368417E+03  0.17300000000E+03 0.  1.
</event>
<event>
 4    1  0.6092738E+000  0.1000000E+03  0.7546771E-02  0.1280296E+00
         21   -1    0    0  503  502  0.00000000000E+00  0.00000000000E+00  0.59716565738E+03  0.59716565738E+03  0.00000000000E+00 0.  1.
         21   -1    0    0  501  503 -0.00000000000E+00 -0.00000000000E+00 -0.11500841333E+03  0.11500841333E+03  0.00000000000E+00 0.  1.
          6    1    1    2  501    0  0.19500350816E+03  0.82307900832E+01  0.20627833404E+03  0.33252648796E+03  0.17300000000E+03 0.  1.
         -6    1    1    2    0  502 -0.19500350816E+03 -0.82307900832E+01  0.27587891001E+03  0.37964758275E+03  0.17300000000E+03 0.  1.
</event>
<event>
 4    1  0.6092738E+000  0.1000000E+03  0.7546771E-02  0.1280296E+00
         21   -1    0    0  503  502  0.00000000000E+00  0.00000000000E+00  0.22013224680E+03  0.22013224680E+03  0.00000000000E+00 0.  1.
         21   -1    0    0  501  503 -0.00000000000E+00 -0.00000000000E+00 -0.39827000419E+03  0.39827000419E+03  0.00000000000E+00 0.  1.
          6    1    1    2  501    0 -0.13712294941E+03 -0.10448251363E+03 -0.26388187981E+03  0.35955798615E+03  0.17300000000E+03 0.  1.
         -6    1    1    2    0  502  0.13712294941E+03  0.10448251363E+03  0.85744122431E+02  0.25884426484E+03  0.17300000000E+03 0.  1.
</event>
<event>
 4    1  0.6092738E+000  0.1000000E+03  0.7546771E-02  0.1280296E+00
         21   -1    0    0  503  502  0.00000000000E+00  0.00000000000E+00  0.94309553570E+02  0.94309553570E+02  0.00000000000E+00 0.  1.
         21   -1    0    0  501  503 -0.00000000000E+00 -0.00000000000E+00 -0.45586011215E+03  0.45586011215E+03  0.00000000000E+00 0.  1.
          6    1    1    2  501    0 -0.31848509198E+02 -0.10266461697E+03 -0.12924507516E+03  0.24122114453E+03  0.17300000000E+03 0.  1.
         -6    1    1    2    0  502  0.31848509198E+02  0.10266461697E+03 -0.23230548342E+03  0.30894852118E+03  0.17300000000E+03 0.  1.
</event>
<event>
 4    1  0.6092738E+000  0.1000000E+03  0.7546771E-02  0.1280296E+00
         21   -1    0    0  503  502  0.00000000000E+00  0.00000000000E+00  0.99445616884E+02  0.99445616884E+02  0.00000000000E+00 0.  1.
         21   -1    0    0  501  503 -0.00000000000E+00 -0.00000000000E+00 -0.38403605794E+03  0.38403605794E+03  0.00000000000E+00 0. -1.
          6    1    1    2  501    0 -0.62919344560E+02  0.28216600918E+02 -0.21554720625E+03  0.28485894511E+03  0.17300000000E+03 0. -1.
         -6    1    1    2    0  502  0.62919344560E+02 -0.28216600918E+02 -0.69043234808E+02  0.19862272972E+03  0.17300000000E+03 0.  1.
</event>
<event>
 4    1  0.6092738E+000  0.1000000E+03  0.7546771E-02  0.1280296E+00
         21   -1    0    0  503  502  0.00000000000E+00  0.00000000000E+00  0.50754683044E+03  0.50754683044E+03  0.00000000000E+00 0.  1.
         21   -1    0    0  501  503 -0.00000000000E+00 -0.00000000000E+00 -0.11882426215E+03  0.11882426215E+03  0.00000000000E+00 0. -1.
          6    1    1    2  501    0 -0.22782662552E+02  0.40698183201E+02 -0.19814408974E+02  0.18026925038E+03  0.17300000000E+03 0. -1.
         -6    1    1    2    0  502  0.22782662552E+02 -0.40698183201E+02  0.40853697727E+03  0.44610184221E+03  0.17300000000E+03 0.  1.
</event>
<event>
 4    1  0.6092738E+000  0.1000000E+03  0.7546771E-02  0.1280296E+00
         21   -1    0    0  501  502  0.00000000000E+00  0.00000000000E+00  0.41097729789E+03  0.41097729789E+03  0.00000000000E+00 0.  1.
         21   -1    0    0  502  503 -0.00000000000E+00 -0.00000000000E+00 -0.22060845030E+03  0.22060845030E+03  0.00000000000E+00 0.  1.
          6    1    1    2  501    0  0.12989240017E+03 -0.11756286034E+03  0.27696773447E+03  0.37058492642E+03  0.17300000000E+03 0.  1.
         -6    1    1    2    0  503 -0.12989240017E+03  0.11756286034E+03 -0.86598886882E+02  0.26100082177E+03  0.17300000000E+03 0.  1.
</event>
<event>
 4    1  0.6092738E+000  0.1000000E+03  0.7546771E-02  0.1280296E+00
         21   -1    0    0  501  502  0.00000000000E+00  0.00000000000E+00  0.27837648307E+03  0.27837648307E+03  0.00000000000E+00 0.  1.
         21   -1    0    0  502  503 -0.00000000000E+00 -0.00000000000E+00 -0.28461098147E+03  0.28461098147E+03  0.00000000000E+00 0.  1.
          6    1    1    2  501    0  0.37377832605E+02  0.37692868556E+02  0.21249316399E+03  0.27910607205E+03  0.17300000000E+03 0.  1.
         -6    1    1    2    0  503 -0.37377832605E+02 -0.37692868556E+02 -0.21872766239E+03  0.28388139249E+03  0.17300000000E+03 0.  1.
</event>
<event>
 4    1  0.6092738E+000  0.1000000E+03  0.7546771E-02  0.1280296E+00
         21   -1    0    0  503  502  0.00000000000E+00  0.00000000000E+00  0.60880190448E+02  0.60880190448E+02  0.00000000000E+00 0. -1.
         21   -1    0    0  501  503 -0.00000000000E+00 -0.00000000000E+00 -0.20667031800E+04  0.20667031800E+04  0.00000000000E+00 0. -1.
          6    1    1    2  501    0 -0.37943236956E+02  0.21667391436E+02 -0.19223114141E+04  0.19305748724E+04  0.17300000000E+03 0. -1.
         -6    1    1    2    0  502  0.37943236956E+02 -0.21667391436E+02 -0.83511575474E+02  0.19700849809E+03  0.17300000000E+03 0. -1.
</event>
<event>
 4    1  0.6092738E+000  0.1000000E+03  0.7546771E-02  0.1280296E+00
         21   -1    0    0  501  502  0.00000000000E+00  0.00000000000E+00  0.52777332736E+03  0.52777332736E+03  0.00000000000E+00 0. -1.
         21   -1    0    0  502  503 -0.00000000000E+00 -0.00000000000E+00 -0.33238790426E+03  0.33238790426E+03  0.00000000000E+00 0. -1.
          6    1    1    2  501    0 -0.11976710824E+03 -0.14216217899E+03  0.43971308730E+03  0.50777046437E+03  0.17300000000E+03 0. -1.
         -6    1    1    2    0  503  0.11976710824E+03  0.14216217899E+03 -0.24432766420E+03  0.35239076725E+03  0.17300000000E+03 0. -1.
</event>
<event>
 4    1  0.6092738E+000  0.1000000E+03  0.7546771E-02  0.1280296E+00
         21   -1    0    0  501  502  0.00000000000E+00  0.00000000000E+00  0.27946724516E+03  0.27946724516E+03  0.00000000000E+00 0. -1.
         21   -1    0    0  502  503 -0.00000000000E+00 -0.00000000000E+00 -0.99793076750E+03  0.99793076750E+03  0.00000000000E+00 0. -1.
          6    1    1    2  501    0  0.31058152117E+03  0.26521543391E+03 -0.12566432272E+02  0.44371953180E+03  0.17300000000E+03 0. -1.
         -6    1    1    2    0  503 -0.31058152117E+03 -0.26521543391E+03 -0.70589709007E+03  0.83367848086E+03  0.17300000000E+03 0. -1.
</event>
<event>
 4    1  0.6092738E+000  0.1000000E+03  0.7546771E-02  0.1280296E+00
         21   -1    0    0  501  502  0.00000000000E+00  0.00000000000E+00  0.23795360122E+03  0.23795360122E+03  0.00000000000E+00 0. -1.
         21   -1    0    0  502  503 -0.00000000000E+00 -0.00000000000E+00 -0.12785591044E+03  0.12785591044E+03  0.00000000000E+00 0. -1.
          6    1    1    2  501    0 -0.13859965532E+02 -0.30303798999E+01  0.73013420142E+02  0.18831155399E+03  0.17300000000E+03 0. -1.
         -6    1    1    2    0  503  0.13859965532E+02  0.30303798999E+01  0.37084270645E+02  0.17749795767E+03  0.17300000000E+03 0. -1.
</event>
<event>
 4    1  0.6092738E+000  0.1000000E+03  0.7546771E-02  0.1280296E+00
         21   -1    0    0  503  502  0.00000000000E+00  0.00000000000E+00  0.48620041214E+03  0.48620041214E+03  0.00000000000E+00 0. -1.
         21   -1    0    0  501  503 -0.00000000000E+00 -0.00000000000E+00 -0.31854222059E+03  0.31854222059E+03  0.00000000000E+00 0.  1.
          6    1    1    2  501    0 -0.20276872928E+03  0.23396919826E+02 -0.21123480488E+03  0.34089839575E+03  0.17300000000E+03 0.  1.
         -6    1    1    2    0  502  0.20276872928E+03 -0.23396919826E+02  0.37889299643E+03  0.46384423698E+03  0.17300000000E+03 0. -1.
</event>
<event>
 4    1  0.6092738E+000  0.1000000E+03  0.7546771E-02  0.1280296E+00
         21   -1    0    0  503  502  0.00000000000E+00  0.00000000000E+00  0.40556288487E+03  0.40556288487E+03  0.00000000000E+00 0. -1.
         21   -1    0    0  501  503 -0.00000000000E+00 -0.00000000000E+00 -0.12176742677E+03  0.12176742677E+03  0.00000000000E+00 0.  1.
          6    1    1    2  501    0 -0.17174016480E+02  0.11280950077E+03  0.46724954814E+02  0.21244564413E+03  0.17300000000E+03 0.  1.
         -6    1    1    2    0  502  0.17174016480E+02 -0.11280950077E+03  0.23707050329E+03  0.31488466751E+03  0.17300000000E+03 0. -1.
</event>
<event>
 4    1  0.6092738E+000  0.1000000E+03  0.7546771E-02  0.1280296E+00
         21   -1    0    0  503  502  0.00000000000E+00  0.00000000000E+00  0.37036779175E+03  0.37036779175E+03  0.00000000000E+00 0.  1.
         21   -1    0    0  501  503 -0.00000000000E+00 -0.00000000000E+00 -0.12642021342E+03  0.12642021342E+03  0.00000000000E+00 0. -1.
          6    1    1    2  501    0 -0.15657990777E+02  0.12871991389E+03  0.11177162474E+03  0.24338423327E+03  0.17300000000E+03 0.  1.
         -6    1    1    2    0  502  0.15657990777E+02 -0.12871991389E+03  0.13217595359E+03  0.25340377191E+03  0.17300000000E+03 0.  1.
</event>
<event>
 4    1  0.6092738E+000  0.1000000E+03  0.7546771E-02  0.1280296E+00
         21   -1    0    0  503  502  0.00000000000E+00  0.00000000000E+00  0.10473919210E+04  0.10473919210E+04  0.00000000000E+00 0.  1.
         21   -1    0    0  501  503 -0.00000000000E+00 -0.00000000000E+00 -0.11208721976E+03  0.11208721976E+03  0.00000000000E+00 0. -1.
          6    1    1    2  501    0 -0.48883599522E+02 -0.58409243503E+02 -0.15883758306E+02  0.18969064238E+03  0.17300000000E+03 0.  1.
         -6    1    1    2    0  502  0.48883599522E+02  0.58409243503E+02  0.95118845954E+03  0.96978849838E+03  0.17300000000E+03 0.  1.
</event>
<event>
 4    1  0.6092738E+000  0.1000000E+03  0.7546771E-02  0.1280296E+00
         21   -1    0    0  501  502  0.00000000000E+00  0.00000000000E+00  0.52317462808E+03  0.52317462808E+03  0.00000000000E+00 0. -1.
         21   -1    0    0  502  503 -0.00000000000E+00 -0.00000000000E+00 -0.28623317784E+03  0.28623317784E+03  0.00000000000E+00 0.  1.
          6    1    1    2  501    0 -0.39064281308E+02  0.10908688421E+03  0.45959656479E+03  0.50456314644E+03  0.17300000000E+03 0. -1.
         -6    1    1    2    0  503  0.39064281308E+02 -0.10908688421E+03 -0.22265511455E+03  0.30484465948E+03  0.17300000000E+03 0.  1.
</event>
<event>
 4    1  0.6092738E+000  0.1000000E+03  0.7546771E-02  0.1280296E+00
         21   -1    0    0  501  502  0.00000000000E+00  0.00000000000E+00  0.89239898351E+02  0.89239898351E+02  0.00000000000E+00 0. -1.
         21   -1    0    0  502  503 -0.00000000000E+00 -0.00000000000E+00 -0.35415712708E+03  0.35415712708E+03  0.00000000000E+00 0.  1.
          6    1    1    2  501    0 -0.18250625150E+02 -0.32500466765E+02 -0.15356959791E+03  0.23431173052E+03  0.17300000000E+03 0. -1.
         -6    1    1    2    0  503  0.18250625150E+02  0.32500466765E+02 -0.11134763082E+03  0.20908529491E+03  0.17300000000E+03 0.  1.
</event>
<event>
 4    1  0.6092738E+000  0.1000000E+03  0.7546771E-02  0.1280296E+00
         21   -1    0    0  503  502  0.00000000000E+00  0.00000000000E+00  0.10245048296E+03  0.10245048296E+03  0.00000000000E+00 0. -1.
         21   -1    0    0  501  503 -0.00000000000E+00 -0.00000000000E+00 -0.12624163964E+04  0.12624163964E+04  0.00000000000E+00 0. -1.
          6    1    1    2  501    0 -0.83979467741E+02 -0.13002795859E+03 -0.11012029829E+04  0.11254051851E+04  0.17300000000E+03 0. -1.
         -6    1    1    2    0  502  0.83979467741E+02  0.13002795859E+03 -0.58762930511E+02  0.23946169427E+03  0.17300000000E+03 0. -1.
</event>
<event>
 4    1  0.6092738E+000  0.1000000E+03  0.7546771E-02  0.1280296E+00
         21   -1    0    0  503  502  0.00000000000E+00  0.00000000000E+00  0.78926273319E+02  0.78926273319E+02  0.00000000000E+00 0.  1.
         21   -1    0    0  501  503 -0.00000000000E+00 -0.00000000000E+00 -0.14646760912E+04  0.14646760912E+04  0.00000000000E+00 0.  1.
          6    1    1    2  501    0 -0.95325769503E+02 -0.21749240972E+03 -0.10813182979E+04  0.11205214019E+04  0.17300000000E+03 0.  1.
         -6    1    1    2    0  502  0.95325769503E+02  0.21749240972E+03 -0.30443151997E+03  0.42308096266E+03  0.17300000000E+03 0.  1.
</event>
<event>
 4    1  0.6092738E+000  0.1000000E+03  0.7546771E-02  0.1280296E+00
         21   -1    0    0  503  502  0.00000000000E+00  0.00000000000E+00  0.12628454068E+03  0.12628454068E+03  0.00000000000E+00 0.  1.
         21   -1    0    0  501  503 -0.00000000000E+00 -0.00000000000E+00 -0.50408617524E+03  0.50408617524E+03  0.00000000000E+00 0.  1.
          6    1    1    2  501    0  0.36289313783E+02 -0.25297853827E+02 -0.41157174849E+03  0.44863927588E+03  0.17300000000E+03 0.  1.
         -6    1    1    2    0  502 -0.36289313783E+02  0.25297853827E+02  0.33770113937E+02  0.18173144004E+03  0.17300000000E+03 0.  1.
</event>
<event>
 4    1  0.6092738E+000  0.1000000E+03  0.7546771E-02  0.1280296E+00
         21   -1    0    0  501  502  0.00000000000E+00  0.00000000000E+00  0.24052305379E+03  0.24052305379E+03  0.00000000000E+00 0. -1.
         21   -1    0    0  502  503 -0.00000000000E+00 -0.00000000000E+00 -0.40128790616E+03  0.40128790616E+03  0.00000000000E+00 0. -1.
          6    1    1    2  501    0 -0.12099589029E+03  0.61790186846E+02  0.14623198080E+03  0.26414167575E+03  0.17300000000E+03 0. -1.
         -6    1    1    2    0  503  0.12099589029E+03 -0.61790186846E+02 -0.30699683317E+03  0.37766928420E+03  0.17300000000E+03 0. -1.
</event>
<event>
 4    1  0.6092738E+000  0.1000000E+03  0.7546771E-02  0.1280296E+00
         21   -1    0    0  503  502  0.00000000000E+00  0.00000000000E+00  0.53505019108E+02  0.53505019108E+02  0.00000000000E+00 0.  1.
         21   -1    0    0  501  503 -0.00000000000E+00 -0.00000000000E+00 -0.14844195037E+04  0.14844195037E+04  0.00000000000E+00 0.  1.
          6    1    1    2  501    0  0.17247211244E+02  0.14881133718E+03 -0.11642378196E+04  0.11865163214E+04  0.17300000000E+03 0. -1.
         -6    1    1    2    0  502 -0.17247211244E+02 -0.14881133718E+03 -0.26667666502E+03  0.35140820143E+03  0.17300000000E+03 0. -1.
</event>
<event>
 4    1  0.6092738E+000  0.1000000E+03  0.7546771E-02  0.1280296E+00
         21   -1    0    0  503  502  0.00000000000E+00  0.00000000000E+00  0.14046806456E+04  0.14046806456E+04  0.00000000000E+00 0.  1.
         21   -1    0    0  501  503 -0.00000000000E+00 -0.00000000000E+00 -0.23579260325E+03  0.23579260325E+03  0.00000000000E+00 0.  1.
          6    1    1    2  501    0 -0.11033955649E+03  0.48500320616E+01 -0.18185588669E+03  0.27422418577E+03  0.17300000000E+03 0. -1.
         -6    1    1    2    0  502  0.11033955649E+03 -0.48500320616E+01  0.13507439290E+04  0.13662490631E+04  0.17300000000E+03 0. -1.
</event>
<event>
 4    1  0.6092738E+000  0.1000000E+03  0.7546771E-02  0.1280296E+00
         21   -1    0    0  501  502  0.00000000000E+00  0.00000000000E+00  0.50973042829E+03  0.50973042829E+03  0.00000000000E+00 0.  1.
         21   -1    0    0  502  503 -0.00000000000E+00 -0.00000000000E+00 -0.24913799955E+03  0.24913799955E+03  0.00000000000E+00 0.  1.
          6    1    1    2  501    0 -0.48003955862E+02  0.10833227812E+03  0.43709097382E+03  0.48478632577E+03  0.17300000000E+03 0.  1.
         -6    1    1    2    0  503  0.48003955862E+02 -0.10833227812E+03 -0.17649854507E+03  0.27408210207E+03  0.17300000000E+03 0.  1.
</event>
<event>
 4    1  0.6092738E+000  0.1000000E+03  0.7546771E-02  0.1280296E+00
         21   -1    0    0  501  502  0.00000000000E+00  0.00000000000E+00  0.59146178740E+03  0.59146178740E+03  0.00000000000E+00 0.  1.
         21   -1    0    0  502  503 -0.00000000000E+00 -0.00000000000E+00 -0.10077181255E+03  0.10077181255E+03  0.00000000000E+00 0.  1.
          6    1    1    2  501    0 -0.12048289080E+03  0.12002596499E+03  0.20648510855E+03  0.31857096431E+03  0.17300000000E+03 0.  1.
         -6    1    1    2    0  503  0.12048289080E+03 -0.12002596499E+03  0.28420486630E+03  0.37366263564E+03  0.17300000000E+03 0.  1.
</event>
<event>
 4    1  0.6092738E+000  0.1000000E+03  0.7546771E-02  0.1280296E+00
         21   -1    0    0  503  502  0.00000000000E+00  0.00000000000E+00  0.72480117865E+03  0.72480117865E+03  0.00000000000E+00 0.  1.
         21   -1    0    0  501  503 -0.00000000000E+00 -0.00000000000E+00 -0.84620400422E+02  0.84620400422E+02  0.00000000000E+00 0. -1.
          6    1    1    2  501    0 -0.12236190946E+03 -0.27607174578E+02  0.11552902621E+03  0.24292086957E+03  0.17300000000E+03 0. -1.
         -6    1    1    2    0  502  0.12236190946E+03  0.27607174578E+02  0.52465175202E+03  0.56650070951E+03  0.17300000000E+03 0.  1.
</event>
<event>
 4    1  0.6092738E+000  0.1000000E+03  0.7546771E-02  0.1280296E+00
         21   -1    0    0  503  502  0.00000000000E+00  0.00000000000E+00  0.25638086813E+03  0.25638086813E+03  0.00000000000E+00 0.  1.
         21   -1    0    0  501  503 -0.00000000000E+00 -0.00000000000E+00 -0.20347335374E+03  0.20347335374E+03  0.00000000000E+00 0.  1.
          6    1    1    2  501    0  0.31131710414E+02  0.14533330176E+03  0.38647662583E+02  0.23133005385E+03  0.17300000000E+03 0.  1.
         -6    1    1    2    0  502 -0.31131710414E+02 -0.14533330176E+03  0.14259851807E+02  0.22852416801E+03  0.17300000000E+03 0.  1.
</event>
<event>
 4    1  0.6092738E+000  0.1000000E+03  0.7546771E-02  0.1280296E+00
         21   -1    0    0  503  502  0.00000000000E+00  0.00000000000E+00  0.16084280409E+03  0.16084280409E+03  0.00000000000E+00 0.  1.
         21   -1    0    0  501  503 -0.00000000000E+00 -0.00000000000E+00 -0.32249487836E+03  0.32249487836E+03  0.00000000000E+00 0.  1.
          6    1    1    2  501    0 -0.58579189298E+02 -0.13579358927E+03 -0.71912738959E+02  0.23868779259E+03  0.17300000000E+03 0.  1.
         -6    1    1    2    0  502  0.58579189298E+02  0.13579358927E+03 -0.89739335308E+02  0.24464988986E+03  0.17300000000E+03 0.  1.
</event>
<event>
 4    1  0.6092738E+000  0.1000000E+03  0.7546771E-02  0.1280296E+00
         21   -1    0    0  501  502  0.00000000000E+00  0.00000000000E+00  0.18605348553E+03  0.18605348553E+03  0.00000000000E+00 0.  1.
         21   -1    0    0  502  503 -0.00000000000E+00 -0.00000000000E+00 -0.55760613830E+03  0.55760613830E+03  0.00000000000E+00 0.  1.
          6    1    1    2  501    0  0.21144636161E+02 -0.19259955221E+01  0.12690740124E+03  0.21560448415E+03  0.17300000000E+03 0.  1.
         -6    1    1    2    0  503 -0.21144636161E+02  0.19259955221E+01 -0.49846005401E+03  0.52805513968E+03  0.17300000000E+03 0.  1.
</event>
<event>
 4    1  0.6092738E+000  0.1000000E+03  0.7546771E-02  0.1280296E+00
         21   -1    0    0  503  502  0.00000000000E+00  0.00000000000E+00  0.59714885114E+02  0.59714885114E+02  0.00000000000E+00 0.  1.
         21   -1    0    0  501  503 -0.00000000000E+00 -0.00000000000E+00 -0.12281764211E+04  0.12281764211E+04  0.00000000000E+00 0. -1.
          6    1    1    2  501    0 -0.19175546709E+03  0.34763570303E+02 -0.75949260295E+03  0.80295496692E+03  0.17300000000E+03 0. -1.
         -6    1    1    2    0  502  0.19175546709E+03 -0.34763570303E+02 -0.40896893309E+03  0.48493633934E+03  0.17300000000E+03 0. -1.
</event>
<event>
 4    1  0.6092738E+000  0.1000000E+03  0.7546771E-02  0.1280296E+00
         21   -1    0    0  503  502  0.00000000000E+00  0.00000000000E+00  0.63406244908E+03  0.63406244908E+03  0.00000000000E+00 0.  1.
         21   -1    0    0  501  503 -0.00000000000E+00 -0.00000000000E+00 -0.22161402016E+03  0.22161402016E+03  0.00000000000E+00 0. -1.
          6    1    1    2  501    0 -0.14803005092E+03  0.29478962352E+03  0.15814805769E+03  0.40466483201E+03  0.17300000000E+03 0. -1.
         -6    1    1    2    0  502  0.14803005092E+03 -0.29478962352E+03  0.25430037123E+03  0.45101163723E+03  0.17300000000E+03 0. -1.
</event>
<event>
 4    1  0.6092738E+000  0.1000000E+03  0.7546771E-02  0.1280296E+00
         21   -1    0    0  501  502  0.00000000000E+00  0.00000000000E+00  0.67454171806E+02  0.67454171806E+02  0.00000000000E+00 0.  1.
         21   -1    0    0  502  503 -0.00000000000E+00 -0.00000000000E+00 -0.10701044176E+04  0.10701044176E+04  0.00000000000E+00 0.  1.
          6    1    1    2  501    0 -0.13083947333E+03 -0.16841854653E+02 -0.16759020576E+03  0.27462354764E+03  0.17300000000E+03 0.  1.
         -6    1    1    2    0  503  0.13083947333E+03  0.16841854653E+02 -0.83506004008E+03  0.86293504181E+03  0.17300000000E+03 0.  1.
</event>
<event>
 4    1  0.6092738E+000  0.1000000E+03  0.7546771E-02  0.1280296E+00
         21   -1    0    0  503  502  0.00000000000E+00  0.00000000000E+00  0.10188882627E+03  0.10188882627E+03  0.00000000000E+00 0.  1.
         21   -1    0    0  501  503 -0.00000000000E+00 -0.00000000000E+00 -0.53187950148E+03  0.53187950148E+03  0.00000000000E+00 0.  1.
          6    1    1    2  501    0  0.18252481457E+02 -0.73727100452E+02 -0.40011593435E+03  0.44248231529E+03  0.17300000000E+03 0.  1.
         -6    1    1    2    0  502 -0.18252481457E+02  0.73727100452E+02 -0.29874740855E+02  0.19128601246E+03  0.17300000000E+03 0.  1.
</event>
<event>
 4    1  0.6092738E+000  0.1000000E+03  0.7546771E-02  0.1280296E+00
         21   -1    0    0  503  502  0.00000000000E+00  0.00000000000E+00  0.70643693742E+02  0.70643693742E+02  0.00000000000E+00 0.  1.
         21   -1    0    0  501  503 -0.00000000000E+00 -0.00000000000E+00 -0.62132279775E+03  0.62132279775E+03  0.00000000000E+00 0. -1.
          6    1    1    2  501    0  0.27681088764E+02  0.70248811409E+01 -0.46469974047E+03  0.49667941413E+03  0.17300000000E+03 0. -1.
         -6    1    1    2    0  502 -0.27681088764E+02 -0.70248811409E+01 -0.85979363543E+02  0.19528707736E+03  0.17300000000E+03 0.  1.
</event>
<event>
 4    1  0.6092738E+000  0.1000000E+03  0.7546771E-02  0.1280296E+00
         21   -1    0    0  503  502  0.00000000000E+00  0.00000000000E+00  0.13104644336E+04  0.13104644336E+04  0.00000000000E+00 0.  1.
         21   -1    0    0  501  503 -0.00000000000E+00 -0.00000000000E+00 -0.33229687652E+02  0.33229687652E+02  0.00000000000E+00 0. -1.
          6    1    1    2  501    0 -0.68053013451E+02 -0.21562825700E+02  0.34142071359E+03  0.38934980642E+03  0.17300000000E+03 0. -1.
         -6    1    1    2    0  502  0.68053013451E+02  0.21562825700E+02  0.93581403234E+03  0.95434431481E+03  0.17300000000E+03 0.  1.
</event>
<event>
 4    1  0.6092738E+000  0.1000000E+03  0.7546771E-02  0.1280296E+00
         21   -1    0    0  503  502  0.00000000000E+00  0.00000000000E+00  0.52290558760E+03  0.52290558760E+03  0.00000000000E+00 0. -1.
         21   -1    0    0  501  503 -0.00000000000E+00 -0.00000000000E+00 -0.14665957566E+03  0.14665957566E+03  0.00000000000E+00 0. -1.
          6    1    1    2  501    0  0.10687049060E+03 -0.16960104288E+02 -0.38209653963E+02  0.20760039632E+03  0.17300000000E+03 0. -1.
         -6    1    1    2    0  502 -0.10687049060E+03  0.16960104288E+02  0.41445566590E+03  0.46196476694E+03  0.17300000000E+03 0. -1.
</event>
<event>
 4    1  0.6092738E+000  0.1000000E+03  0.7546771E-02  0.1280296E+00
         21   -1    0    0  503  502  0.00000000000E+00  0.00000000000E+00  0.43821972361E+03  0.43821972361E+03  0.00000000000E+00 0. -1.
         21   -1    0    0  501  503 -0.00000000000E+00 -0.00000000000E+00 -0.88734890490E+02  0.88734890490E+02  0.00000000000E+00 0. -1.
          6    1    1    2  501    0 -0.61673911999E+02 -0.70769213285E+02  0.15868509661E+03  0.25282783244E+03  0.17300000000E+03 0. -1.
         -6    1    1    2    0  502  0.61673911999E+02  0.70769213285E+02  0.19079973651E+03  0.27412678166E+03  0.17300000000E+03 0. -1.
</event>
<event>
 4    1  0.6092738E+000  0.1000000E+03  0.7546771E-02  0.1280296E+00
         21   -1    0    0  501  502  0.00000000000E+00  0.00000000000E+00  0.96264479955E+03  0.96264479955E+03  0.00000000000E+00 0.  1.
         21   -1    0    0  502  503 -0.00000000000E+00 -0.00000000000E+00 -0.73855500237E+02  0.73855500237E+02  0.00000000000E+00 0.  1.
          6    1    1    2  501    0  0.87386595394E+02  0.14779787958E+03  0.23427523356E+03  0.33807471855E+03  0.17300000000E+03 0.  1.
         -6    1    1    2    0  503 -0.87386595394E+02 -0.14779787958E+03  0.65451406575E+03  0.69842558124E+03  0.17300000000E+03 0.  1.
</event>
<event>
 4    1  0.6092738E+000  0.1000000E+03  0.7546771E-02  0.1280296E+00
         21   -1    0    0  501  502  0.00000000000E+00  0.00000000000E+00  0.10268490342E+03  0.10268490342E+03  0.00000000000E+00 0.  1.
         21   -1    0    0  502  503 -0.00000000000E+00 -0.00000000000E+00 -0.61526094026E+03  0.61526094026E+03  0.00000000000E+00 0.  1.
          6    1    1    2  501    0  0.38129434161E+02  0.11364023649E+03 -0.60046079921E+02  0.21886637205E+03  0.17300000000E+03 0.  1.
         -6    1    1    2    0  503 -0.38129434161E+02 -0.11364023649E+03 -0.45252995692E+03  0.49907947164E+03  0.17300000000E+03 0.  1.
</event>
<event>
 4    1  0.6092738E+000  0.1000000E+03  0.7546771E-02  0.1280296E+00
         21   -1    0    0  501  502  0.00000000000E+00  0.00000000000E+00  0.11394935544E+03  0.11394935544E+03  0.00000000000E+00 0.  1.
         21   -1    0    0  502  503 -0.00000000000E+00 -0.00000000000E+00 -0.62618968950E+03  0.62618968950E+03  0.00000000000E+00 0.  1.
          6    1    1    2  501    0 -0.99701785494E+02  0.11538836722E+03 -0.69373967032E+02  0.24082497508E+03  0.17300000000E+03 0.  1.
         -6    1    1    2    0  503  0.99701785494E+02 -0.11538836722E+03 -0.44286636703E+03  0.49931406986E+03  0.17300000000E+03 0.  1.
</event>
<event>
 4    1  0.6092738E+000  0.1000000E+03  0.7546771E-02  0.1280296E+00
         21   -1    0    0  503  502  0.00000000000E+00  0.00000000000E+00  0.15108954079E+02  0.15108954079E+02  0.00000000000E+00 0. -1.
         21   -1    0    0  501  503 -0.00000000000E+00 -0.00000000000E+00 -0.22048869451E+04  0.22048869451E+04  0.00000000000E+00 0.  1.
          6    1    1    2  501    0  0.35913296940E+02  0.38725414355E+02 -0.12432471858E+04  0.12563367334E+04  0.17300000000E+03 0. -1.
         -6    1    1    2    0  502 -0.35913296940E+02 -0.38725414355E+02 -0.94653080516E+03  0.96365916574E+03  0.17300000000E+03 0.  1.
</event>
<event>
 4    1  0.6092738E+000  0.1000000E+03  0.7546771E-02  0.1280296E+00
         21   -1    0    0  503  502  0.00000000000E+00  0.00000000000E+00  0.81615374679E+02  0.81615374679E+02  0.00000000000E+00 0. -1.
         21   -1    0    0  501  503 -0.00000000000E+00 -0.00000000000E+00 -0.63757017891E+03  0.63757017891E+03  0.00000000000E+00 0.  1.
          6    1    1    2  501    0 -0.11588527475E+03 -0.80585752528E+02 -0.35163111860E+03  0.41652959556E+03  0.17300000000E+03 0.  1.
         -6    1    1    2    0  502  0.11588527475E+03  0.80585752528E+02 -0.20432368563E+03  0.30265595802E+03  0.17300000000E+03 0. -1.
</event>
<event>
 4    1  0.6092738E+000  0.1000000E+03  0.7546771E-02  0.1280296E+00
         21   -1    0    0  501  502  0.00000000000E+00  0.00000000000E+00  0.13376810648E+03  0.13376810648E+03  0.00000000000E+00 0.  1.
         21   -1    0    0  502  503 -0.00000000000E+00 -0.00000000000E+00 -0.29184072619E+03  0.29184072619E+03  0.00000000000E+00 0.  1.
          6    1    1    2  501    0 -0.84216457594E+02 -0.43713228706E+02 -0.67909750158E+02  0.20867197287E+03  0.17300000000E+03 0.  1.
         -6    1    1    2    0  503  0.84216457594E+02  0.43713228706E+02 -0.90162869550E+02  0.21693685980E+03  0.17300000000E+03 0.  1.
</event>
<event>
 4    1  0.6092738E+000  0.1000000E+03  0.7546771E-02  0.1280296E+00
         21   -1    0    0  503  502  0.00000000000E+00  0.00000000000E+00  0.44983281800E+03  0.44983281800E+03  0.00000000000E+00 0.  1.
         21   -1    0    0  501  503 -0.00000000000E+00 -0.00000000000E+00 -0.11735208204E+03  0.11735208204E+03  0.00000000000E+00 0.  1.
          6    1    1    2  501    0  0.76217334041E+02  0.10473775534E+02  0.55855788028E+01  0.18941747721E+03  0.17300000000E+03 0. -1.
         -6    1    1    2    0  502 -0.76217334041E+02 -0.10473775534E+02  0.32689515715E+03  0.37776742283E+03  0.17300000000E+03 0. -1.
</event>
<event>
 4    1  0.6092738E+000  0.1000000E+03  0.7546771E-02  0.1280296E+00
         21   -1    0    0  503  502  0.00000000000E+00  0.00000000000E+00  0.35330515779E+02  0.35330515779E+02  0.00000000000E+00 0.  1.
         21   -1    0    0  501  503 -0.00000000000E+00 -0.00000000000E+00 -0.15989766969E+04  0.15989766969E+04  0.00000000000E+00 0.  1.
          6    1    1    2  501    0  0.17084144631E+02  0.16041355347E+03 -0.86166316947E+03  0.89354171349E+03  0.17300000000E+03 0. -1.
         -6    1    1    2    0  502 -0.17084144631E+02 -0.16041355347E+03 -0.70198301169E+03  0.74076549922E+03  0.17300000000E+03 0. -1.
</event>
<event>
 4    1  0.6092738E+000  0.1000000E+03  0.7546771E-02  0.1280296E+00
         21   -1    0    0  503  502  0.00000000000E+00  0.00000000000E+00  0.16403455503E+03  0.16403455503E+03  0.00000000000E+00 0.  1.
         21   -1    0    0  501  503 -0.00000000000E+00 -0.00000000000E+00 -0.23547175461E+03  0.23547175461E+03  0.00000000000E+00 0.  1.
          6    1    1    2  501    0 -0.79992282817E+02  0.45728914646E+02 -0.21109362242E+02  0.19714082307E+03  0.17300000000E+03 0. -1.
         -6    1    1    2    0  502  0.79992282817E+02 -0.45728914646E+02 -0.50327837332E+02  0.20236548657E+03  0.17300000000E+03 0. -1.
</event>
<event>
 4    1  0.6092738E+000  0.1000000E+03  0.7546771E-02  0.1280296E+00
         21   -1    0    0  501  502  0.00000000000E+00  0.00000000000E+00  0.44026637451E+03  0.44026637451E+03  0.00000000000E+00 0.  1.
         21   -1    0    0  502  503 -0.00000000000E+00 -0.00000000000E+00 -0.13232725575E+03  0.13232725575E+03  0.00000000000E+00 0. -1.
          6    1    1    2  501    0 -0.33600087179E+02 -0.74078630546E+02  0.32875302224E+03  0.38029483167E+03  0.17300000000E+03 0.  1.
         -6    1    1    2    0  503  0.33600087179E+02  0.74078630546E+02 -0.20813903472E+02  0.19229879859E+03  0.17300000000E+03 0. -1.
</event>
<event>
 4    1  0.6092738E+000  0.1000000E+03  0.7546771E-02  0.1280296E+00
         21   -1    0    0  501  502  0.00000000000E+00  0.00000000000E+00  0.34399713688E+02  0.34399713688E+02  0.00000000000E+00 0.  1.
         21   -1    0    0  502  503 -0.00000000000E+00 -0.00000000000E+00 -0.12298417086E+04  0.12298417086E+04  0.00000000000E+00 0. -1.
          6    1    1    2  501    0 -0.97118113742E+02 -0.22478467066E+02 -0.44591382132E+03  0.48857481059E+03  0.17300000000E+03 0.  1.
         -6    1    1    2    0  503  0.97118113742E+02  0.22478467066E+02 -0.74952817363E+03  0.77566661173E+03  0.17300000000E+03 0. -1.
</event>
<event>
 4    1  0.6092738E+000  0.1000000E+03  0.7546771E-02  0.1280296E+00
         21   -1    0    0  501  502  0.00000000000E+00  0.00000000000E+00  0.43829412517E+03  0.43829412517E+03  0.00000000000E+00 0.  1.
         21   -1    0    0  502  503 -0.00000000000E+00 -0.00000000000E+00 -0.10738574003E+03  0.10738574003E+03  0.00000000000E+00 0. -1.
          6    1    1    2  501    0  0.38398816687E+02 -0.44424419397E+02  0.31259944089E+03  0.36207099940E+03  0.17300000000E+03 0.  1.
         -6    1    1    2    0  503 -0.38398816687E+02  0.44424419397E+02  0.18308944243E+02  0.18360886580E+03  0.17300000000E+03 0. -1.
</event>
<event>
 4    1  0.6092738E+000  0.1000000E+03  0.7546771E-02  0.1280296E+00
         21   -1    0    0  501  502  0.00000000000E+00  0.00000000000E+00  0.60052353970E+03  0.60052353970E+03  0.00000000000E+00 0.  1.
         21   -1    0    0  502  503 -0.00000000000E+00 -0.00000000000E+00 -0.55304312990E+02  0.55304312990E+02  0.00000000000E+00 0. -1.
          6    1    1    2  501    0 -0.31068554893E+02  0.41169739225E+02  0.22772174888E+03  0.29059662325E+03  0.17300000000E+03 0.  1.
         -6    1    1    2    0  503  0.31068554893E+02 -0.41169739225E+02  0.31749747783E+03  0.36523122944E+03  0.17300000000E+03 0. -1.
</event>
<event>
 4    1  0.6092738E+000  0.1000000E+03  0.7546771E-02  0.1280296E+00
         21   -1    0    0  501  502  0.00000000000E+00  0.00000000000E+00  0.27444614215E+03  0.27444614215E+03  0.00000000000E+00 0.  1.
         21   -1    0    0  502  503 -0.00000000000E+00 -0.00000000000E+00 -0.30291849721E+03  0.30291849721E+03  0.00000000000E+00 0. -1.
          6    1    1    2  501    0  0.83574947224E+02  0.75212745336E+02  0.18741444242E+03  0.27873805282E+03  0.17300000000E+03 0.  1.
         -6    1    1    2    0  503 -0.83574947224E+02 -0.75212745336E+02 -0.21588679747E+03  0.29862658654E+03  0.17300000000E+03 0. -1.
</event>
<event>
 4    1  0.6092738E+000  0.1000000E+03  0.7546771E-02  0.1280296E+00
         21   -1    0    0  501  502  0.00000000000E+00  0.00000000000E+00  0.19175133907E+03  0.19175133907E+03  0.00000000000E+00 0.  1.
         21   -1    0    0  502  503 -0.00000000000E+00 -0.00000000000E+00 -0.18738365488E+03  0.18738365488E+03  0.00000000000E+00 0.  1.
          6    1    1    2  501    0 -0.44565622217E+02 -0.44860014932E+02  0.46947857252E+02  0.19008318422E+03  0.17300000000E+03 0.  1.
         -6    1    1    2    0  503  0.44565622217E+02  0.44860014932E+02 -0.42580173068E+02  0.18905180973E+03  0.17300000000E+03 0.  1.
</event>
<event>
 4    1  0.6092738E+000  0.1000000E+03  0.7546771E-02  0.1280296E+00
         21   -1    0    0  501  502  0.00000000000E+00  0.00000000000E+00  0.23361978860E+03  0.23361978860E+03  0.00000000000E+00 0.  1.
         21   -1    0    0  502  503 -0.00000000000E+00 -0.00000000000E+00 -0.26689562631E+03  0.26689562631E+03  0.00000000000E+00 0.  1.
          6    1    1    2  501    0 -0.10950816007E+03  0.12883284150E+02  0.12603321757E+03  0.24077248195E+03  0.17300000000E+03 0.  1.
         -6    1    1    2    0  503  0.10950816007E+03 -0.12883284150E+02 -0.15930905528E+03  0.25974293296E+03  0.17300000000E+03 0.  1.
</event>
<event>
 4    1  0.6092738E+000  0.1000000E+03  0.7546771E-02  0.1280296E+00
         21   -1    0    0  503  502  0.00000000000E+00  0.00000000000E+00  0.14985511795E+03  0.14985511795E+03  0.00000000000E+00 0. -1.
         21   -1    0    0  501  503 -0.00000000000E+00 -0.00000000000E+00 -0.27486701190E+03  0.27486701190E+03  0.00000000000E+00 0. -1.
          6    1    1    2  501    0  0.36314623691E+02 -0.16111189294E+02 -0.16546882081E+03  0.24266695897E+03  0.17300000000E+03 0. -1.
         -6    1    1    2    0  502 -0.36314623691E+02  0.16111189294E+02  0.40456926856E+02  0.18205517088E+03  0.17300000000E+03 0. -1.
</event>
<event>
 4    1  0.6092738E+000  0.1000000E+03  0.7546771E-02  0.1280296E+00
         21   -1    0    0  503  502  0.00000000000E+00  0.00000000000E+00  0.40905056108E+03  0.40905056108E+03  0.00000000000E+00 0. -1.
         21   -1    0    0  501  503 -0.00000000000E+00 -0.00000000000E+00 -0.16538415939E+03  0.16538415939E+03  0.00000000000E+00 0. -1.
          6    1    1    2  501    0 -0.90199715948E+02 -0.24213901657E+02 -0.66214533059E+02  0.20745039450E+03  0.17300000000E+03 0. -1.
         -6    1    1    2    0  502  0.90199715948E+02  0.24213901657E+02  0.30988093475E+03  0.36698432597E+03  0.17300000000E+03 0. -1.
</event>
<event>
 4    1  0.6092738E+000  0.1000000E+03  0.7546771E-02  0.1280296E+00
         21   -1    0    0  503  502  0.00000000000E+00  0.00000000000E+00  0.16817435614E+03  0.16817435614E+03  0.00000000000E+00 0. -1.
         21   -1    0    0  501  503 -0.00000000000E+00 -0.00000000000E+00 -0.33154623963E+03  0.33154623963E+03  0.00000000000E+00 0. -1.
          6    1    1    2  501    0  0.13487736151E+03  0.22188655309E+02 -0.17112480243E+03  0.27910022766E+03  0.17300000000E+03 0. -1.
         -6    1    1    2    0  502 -0.13487736151E+03 -0.22188655309E+02  0.77529189421E+01  0.22062036811E+03  0.17300000000E+03 0. -1.
</event>
<event>
 4    1  0.6092738E+000  0.1000000E+03  0.7546771E-02  0.1280296E+00
         21   -1    0    0  503  502  0.00000000000E+00  0.00000000000E+00  0.11654485532E+03  0.11654485532E+03  0.00000000000E+00 0. -1.
         21   -1    0    0  501  503 -0.00000000000E+00 -0.00000000000E+00 -0.45267228451E+03  0.45267228451E+03  0.00000000000E+00 0. -1.
          6    1    1    2  501    0 -0.65977432729E+02  0.10503360536E+03 -0.27496187496E+03  0.34773281779E+03  0.17300000000E+03 0. -1.
         -6    1    1    2    0  502  0.65977432729E+02 -0.10503360536E+03 -0.61165554228E+02  0.22148432204E+03  0.17300000000E+03 0. -1.
</event>
<event>
 4    1  0.6092738E+000  0.1000000E+03  0.7546771E-02  0.1280296E+00
         21   -1    0    0  503  502  0.00000000000E+00  0.00000000000E+00  0.50429764511E+03  0.50429764511E+03  0.00000000000E+00 0. -1.
         21   -1    0    0  501  503 -0.00000000000E+00 -0.00000000000E+00 -0.34926443969E+03  0.34926443969E+03  0.00000000000E+00 0. -1.
          6    1    1    2  501    0 -0.70964419556E+02 -0.69114432052E+02 -0.29804232209E+03  0.35856795635E+03  0.17300000000E+03 0. -1.
         -6    1    1    2    0  502  0.70964419556E+02  0.69114432052E+02  0.45307552751E+03  0.49499412844E+03  0.17300000000E+03 0. -1.
</event>
<event>
 4    1  0.6092738E+000  0.1000000E+03  0.7546771E-02  0.1280296E+00
         21   -1    0    0  503  502  0.00000000000E+00  0.00000000000E+00  0.41638412570E+02  0.41638412570E+02  0.00000000000E+00 0. -1.
         21   -1    0    0  501  503 -0.00000000000E+00 -0.00000000000E+00 -0.84008906695E+03  0.84008906695E+03  0.00000000000E+00 0. -1.
          6    1    1    2  501    0  0.65436840231E+02  0.28952638553E+01 -0.46423475991E+03  0.49973320374E+03  0.17300000000E+03 0. -1.
         -6    1    1    2    0  502 -0.65436840231E+02 -0.28952638553E+01 -0.33421589447E+03  0.38199427578E+03  0.17300000000E+03 0. -1.
</event>
<event>
 4    1  0.6092738E+000  0.1000000E+03  0.7546771E-02  0.1280296E+00
         21   -1    0    0  501  502  0.00000000000E+00  0.00000000000E+00  0.21378855573E+03  0.21378855573E+03  0.00000000000E+00 0.  1.
         21   -1    0    0  502  503 -0.00000000000E+00 -0.00000000000E+00 -0.46218919271E+03  0.46218919271E+03  0.00000000000E+00 0.  1.
          6    1    1    2  501    0  0.15296488384E+02 -0.24292171532E+03 -0.18648163257E+02  0.29920176524E+03  0.17300000000E+03 0.  1.
         -6    1    1    2    0  503 -0.15296488384E+02  0.24292171532E+03 -0.22975247373E+03  0.37677598320E+03  0.17300000000E+03 0.  1.
</event>
<event>
 4    1  0.6092738E+000  0.1000000E+03  0.7546771E-02  0.1280296E+00
         21   -1    0    0  503  502  0.00000000000E+00  0.00000000000E+00  0.77491374972E+02  0.77491374972E+02  0.00000000000E+00 0.  1.
         21   -1    0    0  501  503 -0.00000000000E+00 -0.00000000000E+00 -0.64305061577E+03  0.64305061577E+03  0.00000000000E+00 0.  1.
          6    1    1    2  501    0  0.41536744241E+02 -0.67828246225E+02 -0.47082575923E+03  0.50786993184E+03  0.17300000000E+03 0.  1.
         -6    1    1    2    0  502 -0.41536744241E+02  0.67828246225E+02 -0.94733481562E+02  0.21267205890E+03  0.17300000000E+03 0.  1.
</event>
<event>
 4    1  0.6092738E+000  0.1000000E+03  0.7546771E-02  0.1280296E+00
         21   -1    0    0  503  502  0.00000000000E+00  0.00000000000E+00  0.14994901175E+03  0.14994901175E+03  0.00000000000E+00 0.  1.
         21   -1    0    0  501  503 -0.00000000000E+00 -0.00000000000E+00 -0.34102106982E+03  0.34102106982E+03  0.00000000000E+00 0.  1.
          6    1    1    2  501    0 -0.12905279315E+03 -0.26519370159E+02 -0.16288475054E+03  0.27169531165E+03  0.17300000000E+03 0.  1.
         -6    1    1    2    0  502  0.12905279315E+03  0.26519370159E+02 -0.28187307532E+02  0.21927476991E+03  0.17300000000E+03 0.  1.
</event>
<event>
 4    1  0.6092738E+000  0.1000000E+03  0.7546771E-02  0.1280296E+00
         21   -1    0    0  503  502  0.00000000000E+00  0.00000000000E+00  0.78014703938E+02  0.78014703938E+02  0.00000000000E+00 0.  1.
         21   -1    0    0  501  503 -0.00000000000E+00 -0.00000000000E+00 -0.68117771146E+03  0.68117771146E+03  0.00000000000E+00 0. -1.
          6    1    1    2  501    0  0.20191088171E+02 -0.56369781207E+01 -0.55007645205E+03  0.57702041443E+03  0.17300000000E+03 0.  1.
         -6    1    1    2    0  502 -0.20191088171E+02  0.56369781207E+01 -0.53086555463E+02  0.18217200096E+03  0.17300000000E+03 0. -1.
</event>
<event>
 4    1  0.6092738E+000  0.1000000E+03  0.7546771E-02  0.1280296E+00
         21   -1    0    0  503  502  0.00000000000E+00  0.00000000000E+00  0.25709563899E+03  0.25709563899E+03  0.00000000000E+00 0.  1.
         21   -1    0    0  501  503 -0.00000000000E+00 -0.00000000000E+00 -0.27269630403E+03  0.27269630403E+03  0.00000000000E+00 0. -1.
          6    1    1    2  501    0 -0.16760430064E+03 -0.53039208234E+02  0.88551737320E+02  0.26205871363E+03  0.17300000000E+03 0.  1.
         -6    1    1    2    0  502  0.16760430064E+03  0.53039208234E+02 -0.10415240236E+03  0.26773322939E+03  0.17300000000E+03 0. -1.
</event>
<event>
 4    1  0.6092738E+000  0.1000000E+03  0.7546771E-02  0.1280296E+00
         21   -1    0    0  503  502  0.00000000000E+00  0.00000000000E+00  0.41709468141E+03  0.41709468141E+03  0.00000000000E+00 0. -1.
         21   -1    0    0  501  503 -0.00000000000E+00 -0.00000000000E+00 -0.88202582632E+02  0.88202582632E+02  0.00000000000E+00 0.  1.
          6    1    1    2  501    0 -0.62753739972E+02 -0.45106135541E+02  0.12521067884E+03  0.22711078671E+03  0.17300000000E+03 0. -1.
         -6    1    1    2    0  502  0.62753739972E+02  0.45106135541E+02  0.20368141994E+03  0.27818647734E+03  0.17300000000E+03 0.  1.
</event>
<event>
 4    1  0.6092738E+000  0.1000000E+03  0.7546771E-02  0.1280296E+00
         21   -1    0    0  503  502  0.00000000000E+00  0.00000000000E+00  0.44828350095E+02  0.44828350095E+02  0.00000000000E+00 0. -1.
         21   -1    0    0  501  503 -0.00000000000E+00 -0.00000000000E+00 -0.13495199805E+04  0.13495199805E+04  0.00000000000E+00 0.  1.
          6    1    1    2  501    0 -0.15557137387E+03  0.93078821702E+01 -0.87694537877E+03  0.90733196041E+03  0.17300000000E+03 0. -1.
         -6    1    1    2    0  502  0.15557137387E+03 -0.93078821702E+01 -0.42774625163E+03  0.48701637018E+03  0.17300000000E+03 0.  1.
</event>
<event>
 4    1  0.6092738E+000  0.1000000E+03  0.7546771E-02  0.1280296E+00
         21   -1    0    0  503  502  0.00000000000E+00  0.00000000000E+00  0.22095701152E+04  0.22095701152E+04  0.00000000000E+00 0. -1.
         21   -1    0    0  501  503 -0.00000000000E+00 -0.00000000000E+00 -0.49091258623E+02  0.49091258623E+02  0.00000000000E+00 0.  1.
          6    1    1    2  501    0  0.98865264190E+02 -0.23498975838E+03  0.68113409214E+03  0.74757419597E+03  0.17300000000E+03 0.  1.
         -6    1    1    2    0  502 -0.98865264190E+02  0.23498975838E+03  0.14793447644E+04  0.15110871778E+04  0.17300000000E+03 0.  1.
</event>
<event>
 4    1  0.6092738E+000  0.1000000E+03  0.7546771E-02  0.1280296E+00
         21   -1    0    0  501  502  0.00000000000E+00  0.00000000000E+00  0.18927314086E+03  0.18927314086E+03  0.00000000000E+00 0. -1.
         21   -1    0    0  502  503 -0.00000000000E+00 -0.00000000000E+00 -0.42963893314E+03  0.42963893314E+03  0.00000000000E+00 0. -1.
          6    1    1    2  501    0  0.17550341491E+03  0.10148569392E+03 -0.10106071176E+02  0.26670569434E+03  0.17300000000E+03 0. -1.
         -6    1    1    2    0  503 -0.17550341491E+03 -0.10148569392E+03 -0.23025972110E+03  0.35220637966E+03  0.17300000000E+03 0. -1.
</event>
<event>
 4    1  0.6092738E+000  0.1000000E+03  0.7546771E-02  0.1280296E+00
         21   -1    0    0  501  502  0.00000000000E+00  0.00000000000E+00  0.22301963476E+03  0.22301963476E+03  0.00000000000E+00 0. -1.
         21   -1    0    0  502  503 -0.00000000000E+00 -0.00000000000E+00 -0.39794487967E+03  0.39794487967E+03  0.00000000000E+00 0. -1.
          6    1    1    2  501    0 -0.53043005161E+02  0.19450328446E+03  0.53043797180E+02  0.27090170262E+03  0.17300000000E+03 0. -1.
         -6    1    1    2    0  503  0.53043005161E+02 -0.19450328446E+03 -0.22796904209E+03  0.35006281181E+03  0.17300000000E+03 0. -1.
</event>
<event>
 4    1  0.6092738E+000  0.1000000E+03  0.7546771E-02  0.1280296E+00
         21   -1    0    0  501  502  0.00000000000E+00  0.00000000000E+00  0.39885589863E+02  0.39885589863E+02  0.00000000000E+00 0. -1.
         21   -1    0    0  502  503 -0.00000000000E+00 -0.00000000000E+00 -0.13107804626E+04  0.13107804626E+04  0.00000000000E+00 0. -1.
          6    1    1    2  501    0  0.50415637065E+02 -0.21284338810E+02 -0.22451582787E+03  0.28867129491E+03  0.17300000000E+03 0. -1.
         -6    1    1    2    0  503 -0.50415637065E+02  0.21284338810E+02 -0.10463790448E+04  0.10619947575E+04  0.17300000000E+03 0. -1.
</event>
<event>
 4    1  0.6092738E+000  0.1000000E+03  0.7546771E-02  0.1280296E+00
         21   -1    0    0  501  502  0.00000000000E+00  0.00000000000E+00  0.30412248554E+03  0.30412248554E+03  0.00000000000E+00 0. -1.
         21   -1    0    0  502  503 -0.00000000000E+00 -0.00000000000E+00 -0.12210628685E+03  0.12210628685E+03  0.00000000000E+00 0. -1.
          6    1    1    2  501    0  0.49816313524E+02 -0.19351708903E+02  0.16394877720E+03  0.24426288149E+03  0.17300000000E+03 0. -1.
         -6    1    1    2    0  503 -0.49816313524E+02  0.19351708903E+02  0.18067421495E+02  0.18196589090E+03  0.17300000000E+03 0. -1.
</event>
<event>
 4    1  0.6092738E+000  0.1000000E+03  0.7546771E-02  0.1280296E+00
         21   -1    0    0  501  502  0.00000000000E+00  0.00000000000E+00  0.11345625872E+03  0.11345625872E+03  0.00000000000E+00 0. -1.
         21   -1    0    0  502  503 -0.00000000000E+00 -0.00000000000E+00 -0.41227963923E+03  0.41227963923E+03  0.00000000000E+00 0. -1.
          6    1    1    2  501    0  0.23558643716E+02 -0.11210489968E+03 -0.75239139498E+02  0.22070896298E+03  0.17300000000E+03 0. -1.
         -6    1    1    2    0  503 -0.23558643716E+02  0.11210489968E+03 -0.22358424102E+03  0.30502693497E+03  0.17300000000E+03 0. -1.
</event>
<event>
 4    1  0.6092738E+000  0.1000000E+03  0.7546771E-02  0.1280296E+00
         21   -1    0    0  503  502  0.00000000000E+00  0.00000000000E+00  0.16755652221E+03  0.16755652221E+03  0.00000000000E+00 0. -1.
         21   -1    0    0  501  503 -0.00000000000E+00 -0.00000000000E+00 -0.28399698067E+03  0.28399698067E+03  0.00000000000E+00 0. -1.
          6    1    1    2  501    0 -0.11491130766E+03 -0.38913105390E+02 -0.11431805156E+03  0.24024249273E+03  0.17300000000E+03 0. -1.
         -6    1    1    2    0  502  0.11491130766E+03  0.38913105390E+02 -0.21224069047E+01  0.21131101015E+03  0.17300000000E+03 0. -1.
</event>
<event>
 4    1  0.6092738E+000  0.1000000E+03  0.7546771E-02  0.1280296E+00
         21   -1    0    0  503  502  0.00000000000E+00  0.00000000000E+00  0.78876959955E+03  0.78876959955E+03  0.00000000000E+00 0. -1.
         21   -1    0    0  501  503 -0.00000000000E+00 -0.00000000000E+00 -0.63539231025E+02  0.63539231025E+02  0.00000000000E+00 0. -1.
          6    1    1    2  501    0 -0.30956230437E+02  0.37059011643E+02  0.10823863559E+03  0.20970517586E+03  0.17300000000E+03 0. -1.
         -6    1    1    2    0  502  0.30956230437E+02 -0.37059011643E+02  0.61699173294E+03  0.64260365472E+03  0.17300000000E+03 0. -1.
</event>
<event>
 4    1  0.6092738E+000  0.1000000E+03  0.7546771E-02  0.1280296E+00
         21   -1    0    0  503  502  0.00000000000E+00  0.00000000000E+00  0.16682417315E+03  0.16682417315E+03  0.00000000000E+00 0. -1.
         21   -1    0    0  501  503 -0.00000000000E+00 -0.00000000000E+00 -0.29730181786E+03  0.29730181786E+03  0.00000000000E+00 0. -1.
          6    1    1    2  501    0  0.52611259512E+02  0.12990631063E+03 -0.60077304030E+02  0.23061196116E+03  0.17300000000E+03 0. -1.
         -6    1    1    2    0  502 -0.52611259512E+02 -0.12990631063E+03 -0.70400340685E+02  0.23351402985E+03  0.17300000000E+03 0. -1.
</event>
<event>
 4    1  0.6092738E+000  0.1000000E+03  0.7546771E-02  0.1280296E+00
         21   -1    0    0  503  502  0.00000000000E+00  0.00000000000E+00  0.39212645728E+03  0.39212645728E+03  0.00000000000E+00 0. -1.
         21   -1    0    0  501  503 -0.00000000000E+00 -0.00000000000E+00 -0.27895357465E+03  0.27895357465E+03  0.00000000000E+00 0. -1.
          6    1    1    2  501    0 -0.48678045675E+02  0.13173361787E+03 -0.19136785730E+03  0.29372428401E+03  0.17300000000E+03 0. -1.
         -6    1    1    2    0  502  0.48678045675E+02 -0.13173361787E+03  0.30454073993E+03  0.37735574792E+03  0.17300000000E+03 0. -1.
</event>
<event>
 4    1  0.6092738E+000  0.1000000E+03  0.7546771E-02  0.1280296E+00
         21   -1    0    0  503  502  0.00000000000E+00  0.00000000000E+00  0.16137868376E+03  0.16137868376E+03  0.00000000000E+00 0. -1.
         21   -1    0    0  501  503 -0.00000000000E+00 -0.00000000000E+00 -0.66545176284E+03  0.66545176284E+03  0.00000000000E+00 0. -1.
          6    1    1    2  501    0 -0.10932295657E+03  0.10285397633E+02 -0.57466699207E+03  0.61010527781E+03  0.17300000000E+03 0. -1.
         -6    1    1    2    0  502  0.10932295657E+03 -0.10285397633E+02  0.70593912978E+02  0.21672516879E+03  0.17300000000E+03 0. -1.
</event>
<event>
 4    1  0.6092738E+000  0.1000000E+03  0.7546771E-02  0.1280296E+00
         21   -1    0    0  501  502  0.00000000000E+00  0.00000000000E+00  0.23072829757E+03  0.23072829757E+03  0.00000000000E+00 0.  1.
         21   -1    0    0  502  503 -0.00000000000E+00 -0.00000000000E+00 -0.26261019161E+03  0.26261019161E+03  0.00000000000E+00 0.  1.
          6    1    1    2  501    0 -0.48621781512E+01 -0.82943542392E+02  0.13852255730E+03  0.23668707375E+03  0.17300000000E+03 0.  1.
         -6    1    1    2    0  503  0.48621781512E+01  0.82943542392E+02 -0.17040445135E+03  0.25665141542E+03  0.17300000000E+03 0.  1.
</event>
<event>
 4    1  0.6092738E+000  0.1000000E+03  0.7546771E-02  0.1280296E+00
         21   -1    0    0  503  502  0.00000000000E+00  0.00000000000E+00  0.11372313821E+03  0.11372313821E+03  0.00000000000E+00 0. -1.
         21   -1    0    0  501  503 -0.00000000000E+00 -0.00000000000E+00 -0.34226668521E+03  0.34226668521E+03  0.00000000000E+00 0.  1.
          6    1    1    2  501    0 -0.24410439728E+01  0.87740892734E+02 -0.15578151898E+03  0.24879972791E+03  0.17300000000E+03 0.  1.
         -6    1    1    2    0  502  0.24410439728E+01 -0.87740892734E+02 -0.72762028019E+02  0.20719009550E+03  0.17300000000E+03 0. -1.
</event>
<event>
 4    1  0.6092738E+000  0.1000000E+03  0.7546771E-02  0.1280296E+00
         21   -1    0    0  503  502  0.00000000000E+00  0.00000000000E+00  0.18875019584E+03  0.18875019584E+03  0.00000000000E+00 0. -1.
         21   -1    0    0  501  503 -0.00000000000E+00 -0.00000000000E+00 -0.19515896315E+03  0.19515896315E+03  0.00000000000E+00 0.  1.
          6    1    1    2  501    0  0.37008313427E+02  0.51326489307E+01 -0.77453083616E+02  0.19319404626E+03  0.17300000000E+03 0.  1.
         -6    1    1    2    0  502 -0.37008313427E+02 -0.51326489307E+01  0.71044316303E+02  0.19071511274E+03  0.17300000000E+03 0. -1.
</event>
<event>
 4    1  0.6092738E+000  0.1000000E+03  0.7546771E-02  0.1280296E+00
         21   -1    0    0  503  502  0.00000000000E+00  0.00000000000E+00  0.14430919494E+04  0.14430919494E+04  0.00000000000E+00 0. -1.
         21   -1    0    0  501  503 -0.00000000000E+00 -0.00000000000E+00 -0.66957831814E+02  0.66957831814E+02  0.00000000000E+00 0.  1.
          6    1    1    2  501    0 -0.42930488341E+02 -0.56845545528E+02  0.85112588204E+02  0.20554219894E+03  0.17300000000E+03 0.  1.
         -6    1    1    2    0  502  0.42930488341E+02  0.56845545528E+02  0.12910215294E+04  0.13045075823E+04  0.17300000000E+03 0. -1.
</event>
<event>
 4    1  0.6092738E+000  0.1000000E+03  0.7546771E-02  0.1280296E+00
         21   -1    0    0  503  502  0.00000000000E+00  0.00000000000E+00  0.59916956093E+02  0.59916956093E+02  0.00000000000E+00 0. -1.
         21   -1    0    0  501  503 -0.00000000000E+00 -0.00000000000E+00 -0.58400427828E+03  0.58400427828E+03  0.00000000000E+00 0.  1.
          6    1    1    2  501    0 -0.83042814512E+01 -0.42556691693E+02 -0.35914371357E+03  0.40099032419E+03  0.17300000000E+03 0.  1.
         -6    1    1    2    0  502  0.83042814512E+01  0.42556691693E+02 -0.16494360862E+03  0.24293091018E+03  0.17300000000E+03 0. -1.
</event>
<event>
 4    1  0.6092738E+000  0.1000000E+03  0.7546771E-02  0.1280296E+00
         21   -1    0    0  501  502  0.00000000000E+00  0.00000000000E+00  0.10424851294E+03  0.10424851294E+03  0.00000000000E+00 0.  1.
         21   -1    0    0  502  503 -0.00000000000E+00 -0.00000000000E+00 -0.66541163403E+03  0.66541163403E+03  0.00000000000E+00 0. -1.
          6    1    1    2  501    0 -0.89038720826E+02  0.82032110887E+02 -0.50566030864E+02  0.21712458290E+03  0.17300000000E+03 0. -1.
         -6    1    1    2    0  503  0.89038720826E+02 -0.82032110887E+02 -0.51059709022E+03  0.55253556407E+03  0.17300000000E+03 0. -1.
</event>
<event>
 4    1  0.6092738E+000  0.1000000E+03  0.7546771E-02  0.1280296E+00
         21   -1    0    0  503  502  0.00000000000E+00  0.00000000000E+00  0.55553457818E+03  0.55553457818E+03  0.00000000000E+00 0. -1.
         21   -1    0    0  501  503 -0.00000000000E+00 -0.00000000000E+00 -0.94671039692E+02  0.94671039692E+02  0.00000000000E+00 0. -1.
          6    1    1    2  501    0  0.12491605579E+03 -0.64003715930E+01  0.11166477117E+03  0.24092116318E+03  0.17300000000E+03 0. -1.
         -6    1    1    2    0  502 -0.12491605579E+03  0.64003715930E+01  0.34919876732E+03  0.40928445469E+03  0.17300000000E+03 0. -1.
</event>
<event>
 4    1  0.6092738E+000  0.1000000E+03  0.7546771E-02  0.1280296E+00
         21   -1    0    0  503  502  0.00000000000E+00  0.00000000000E+00  0.22111762291E+03  0.22111762291E+03  0.00000000000E+00 0. -1.
         21   -1    0    0  501  503 -0.00000000000E+00 -0.00000000000E+00 -0.17906853825E+03  0.17906853825E+03  0.00000000000E+00 0. -1.
          6    1    1    2  501    0  0.94645133463E+02  0.25455360528E+02  0.28848136287E+02  0.20091513541E+03  0.17300000000E+03 0. -1.
         -6    1    1    2    0  502 -0.94645133463E+02 -0.25455360528E+02  0.13200948375E+02  0.19927102576E+03  0.17300000000E+03 0. -1.
</event>
<event>
 4    1  0.6092738E+000  0.1000000E+03  0.7546771E-02  0.1280296E+00
         21   -1    0    0  501  502  0.00000000000E+00  0.00000000000E+00  0.66851436161E+03  0.66851436161E+03  0.00000000000E+00 0.  1.
         21   -1    0    0  502  503 -0.00000000000E+00 -0.00000000000E+00 -0.93487684128E+02  0.93487684128E+02  0.00000000000E+00 0.  1.
          6    1    1    2  501    0  0.53738220661E+02  0.11488977655E+03  0.48316820364E+03  0.52864730220E+03  0.17300000000E+03 0.  1.
         -6    1    1    2    0  503 -0.53738220661E+02 -0.11488977655E+03  0.91858473848E+02  0.23335474354E+03  0.17300000000E+03 0.  1.
</event>
<event>
 4    1  0.6092738E+000  0.1000000E+03  0.7546771E-02  0.1280296E+00
         21   -1    0    0  503  502  0.00000000000E+00  0.00000000000E+00  0.87004395086E+03  0.87004395086E+03  0.00000000000E+00 0. -1.
         21   -1    0    0  501  503 -0.00000000000E+00 -0.00000000000E+00 -0.13768676796E+03  0.13768676796E+03  0.00000000000E+00 0.  1.
          6    1    1    2  501    0  0.27376867689E+03  0.68378131050E+02  0.51349158158E+03  0.61092344987E+03  0.17300000000E+03 0. -1.
         -6    1    1    2    0  502 -0.27376867689E+03 -0.68378131050E+02  0.21886560132E+03  0.39680726895E+03  0.17300000000E+03 0.  1.
</event>
<event>
 4    1  0.6092738E+000  0.1000000E+03  0.7546771E-02  0.1280296E+00
         21   -1    0    0  503  502  0.00000000000E+00  0.00000000000E+00  0.65225450706E+03  0.65225450706E+03  0.00000000000E+00 0. -1.
         21   -1    0    0  501  503 -0.00000000000E+00 -0.00000000000E+00 -0.90449136353E+02  0.90449136353E+02  0.00000000000E+00 0.  1.
          6    1    1    2  501    0  0.41481237770E+02  0.14081476140E+03  0.14834415790E+03  0.27108020824E+03  0.17300000000E+03 0. -1.
         -6    1    1    2    0  502 -0.41481237770E+02 -0.14081476140E+03  0.41346121280E+03  0.47162343518E+03  0.17300000000E+03 0.  1.
</event>
<event>
 4    1  0.6092738E+000  0.1000000E+03  0.7546771E-02  0.1280296E+00
         21   -1    0    0  501  502  0.00000000000E+00  0.00000000000E+00  0.29466564716E+03  0.29466564716E+03  0.00000000000E+00 0.  1.
         21   -1    0    0  502  503 -0.00000000000E+00 -0.00000000000E+00 -0.15111652222E+03  0.15111652222E+03  0.00000000000E+00 0.  1.
          6    1    1    2  501    0 -0.62967312545E+02 -0.91888905971E+02  0.12122068437E+03  0.23881354193E+03  0.17300000000E+03 0.  1.
         -6    1    1    2    0  503  0.62967312545E+02  0.91888905971E+02  0.22328440575E+02  0.20696862745E+03  0.17300000000E+03 0.  1.
</event>
<event>
 4    1  0.6092738E+000  0.1000000E+03  0.7546771E-02  0.1280296E+00
         21   -1    0    0  501  502  0.00000000000E+00  0.00000000000E+00  0.16762626217E+04  0.16762626217E+04  0.00000000000E+00 0.  1.
         21   -1    0    0  502  503 -0.00000000000E+00 -0.00000000000E+00 -0.10868808651E+03  0.10868808651E+03  0.00000000000E+00 0.  1.
          6    1    1    2  501    0 -0.21180635022E+03 -0.39432140718E+02  0.14640352396E+04  0.14898808700E+04  0.17300000000E+03 0.  1.
         -6    1    1    2    0  503  0.21180635022E+03  0.39432140718E+02  0.10353929552E+03  0.29506983823E+03  0.17300000000E+03 0.  1.
</event>
<event>
 4    1  0.6092738E+000  0.1000000E+03  0.7546771E-02  0.1280296E+00
         21   -1    0    0  501  502  0.00000000000E+00  0.00000000000E+00  0.12631030815E+04  0.12631030815E+04  0.00000000000E+00 0. -1.
         21   -1    0    0  502  503 -0.00000000000E+00 -0.00000000000E+00 -0.48264468589E+02  0.48264468589E+02  0.00000000000E+00 0. -1.
          6    1    1    2  501    0 -0.13743710004E+03  0.15127983174E+02  0.89730709707E+03  0.92423310847E+03  0.17300000000E+03 0.  1.
         -6    1    1    2    0  503  0.13743710004E+03 -0.15127983174E+02  0.31753151589E+03  0.38713444167E+03  0.17300000000E+03 0.  1.
</event>
<event>
 4    1  0.6092738E+000  0.1000000E+03  0.7546771E-02  0.1280296E+00
         21   -1    0    0  501  502  0.00000000000E+00  0.00000000000E+00  0.19132289438E+03  0.19132289438E+03  0.00000000000E+00 0. -1.
         21   -1    0    0  502  503 -0.00000000000E+00 -0.00000000000E+00 -0.26480795075E+03  0.26480795075E+03  0.00000000000E+00 0. -1.
          6    1    1    2  501    0 -0.24261557000E+02 -0.12526280012E+03  0.30889956495E+02  0.21716947680E+03  0.17300000000E+03 0.  1.
         -6    1    1    2    0  503  0.24261557000E+02  0.12526280012E+03 -0.10437501287E+03  0.23896136833E+03  0.17300000000E+03 0.  1.
</event>
<event>
 4    1  0.6092738E+000  0.1000000E+03  0.7546771E-02  0.1280296E+00
         21   -1    0    0  501  502  0.00000000000E+00  0.00000000000E+00  0.41964340580E+03  0.41964340580E+03  0.00000000000E+00 0. -1.
         21   -1    0    0  502  503 -0.00000000000E+00 -0.00000000000E+00 -0.10514088415E+03  0.10514088415E+03  0.00000000000E+00 0. -1.
          6    1    1    2  501    0 -0.60636201466E+02  0.68510636869E+02  0.25256800780E+03  0.31951534370E+03  0.17300000000E+03 0.  1.
         -6    1    1    2    0  503  0.60636201466E+02 -0.68510636869E+02  0.61934513847E+02  0.20526894626E+03  0.17300000000E+03 0.  1.
</event>
<event>
 4    1  0.6092738E+000  0.1000000E+03  0.7546771E-02  0.1280296E+00
         21   -1    0    0  501  502  0.00000000000E+00  0.00000000000E+00  0.43897542032E+03  0.43897542032E+03  0.00000000000E+00 0. -1.
         21   -1    0    0  502  503 -0.00000000000E+00 -0.00000000000E+00 -0.73154491331E+02  0.73154491331E+02  0.00000000000E+00 0. -1.
          6    1    1    2  501    0 -0.35808688269E+02  0.95617388242E+01  0.22358679171E+03  0.28512057525E+03  0.17300000000E+03 0.  1.
         -6    1    1    2    0  503  0.35808688269E+02 -0.95617388242E+01  0.14223413728E+03  0.22700933640E+03  0.17300000000E+03 0.  1.
</event>
<event>
 4    1  0.6092738E+000  0.1000000E+03  0.7546771E-02  0.1280296E+00
         21   -1    0    0  503  502  0.00000000000E+00  0.00000000000E+00  0.40520145462E+02  0.40520145462E+02  0.00000000000E+00 0. -1.
         21   -1    0    0  501  503 -0.00000000000E+00 -0.00000000000E+00 -0.77574801119E+03  0.77574801119E+03  0.00000000000E+00 0. -1.
          6    1    1    2  501    0  0.31852100313E+02  0.12697161745E+02 -0.40934625506E+03  0.44572315482E+03  0.17300000000E+03 0. -1.
         -6    1    1    2    0  502 -0.31852100313E+02 -0.12697161745E+02 -0.32588161066E+03  0.37054500183E+03  0.17300000000E+03 0. -1.
</event>
<event>
 4    1  0.6092738E+000  0.1000000E+03  0.7546771E-02  0.1280296E+00
         21   -1    0    0  503  502  0.00000000000E+00  0.00000000000E+00  0.71804014371E+02  0.71804014371E+02  0.00000000000E+00 0. -1.
         21   -1    0    0  501  503 -0.00000000000E+00 -0.00000000000E+00 -0.57395455980E+03  0.57395455980E+03  0.00000000000E+00 0. -1.
          6    1    1    2  501    0 -0.46529142248E+01  0.36475753875E+02 -0.40957407721E+03  0.44613008748E+03  0.17300000000E+03 0. -1.
         -6    1    1    2    0  502  0.46529142248E+01 -0.36475753875E+02 -0.92576468223E+02  0.19962848670E+03  0.17300000000E+03 0. -1.
</event>
<event>
 4    1  0.6092738E+000  0.1000000E+03  0.7546771E-02  0.1280296E+00
         21   -1    0    0  503  502  0.00000000000E+00  0.00000000000E+00  0.11946670059E+04  0.11946670059E+04  0.00000000000E+00 0. -1.
         21   -1    0    0  501  503 -0.00000000000E+00 -0.00000000000E+00 -0.16378163679E+03  0.16378163679E+03  0.00000000000E+00 0. -1.
          6    1    1    2  501    0 -0.42730471023E+02 -0.95421403790E+02 -0.88712925579E+02  0.22074899914E+03  0.17300000000E+03 0. -1.
         -6    1    1    2    0  502  0.42730471023E+02  0.95421403790E+02  0.11195982947E+04  0.11376996435E+04  0.17300000000E+03 0. -1.
</event>
<event>
 4    1  0.6092738E+000  0.1000000E+03  0.7546771E-02  0.1280296E+00
         21   -1    0    0  501  502  0.00000000000E+00  0.00000000000E+00  0.11592318648E+03  0.11592318648E+03  0.00000000000E+00 0.  1.
         21   -1    0    0  502  503 -0.00000000000E+00 -0.00000000000E+00 -0.45106778312E+03  0.45106778312E+03  0.00000000000E+00 0.  1.
          6    1    1    2  501    0  0.56034740100E+02  0.22659871738E+02  0.19943560749E+01  0.18326576151E+03  0.17300000000E+03 0.  1.
         -6    1    1    2    0  503 -0.56034740100E+02 -0.22659871738E+02 -0.33713895272E+03  0.38372520809E+03  0.17300000000E+03 0.  1.
</event>
<event>
 4    1  0.6092738E+000  0.1000000E+03  0.7546771E-02  0.1280296E+00
         21   -1    0    0  501  502  0.00000000000E+00  0.00000000000E+00  0.10234030624E+04  0.10234030624E+04  0.00000000000E+00 0.  1.
         21   -1    0    0  502  503 -0.00000000000E+00 -0.00000000000E+00 -0.80232718891E+02  0.80232718891E+02  0.00000000000E+00 0.  1.
          6    1    1    2  501    0 -0.97018530018E+02  0.57599927219E+01  0.86968478846E+03  0.89203497912E+03  0.17300000000E+03 0.  1.
         -6    1    1    2    0  503  0.97018530018E+02 -0.57599927219E+01  0.73485555054E+02  0.21160080218E+03  0.17300000000E+03 0.  1.
</event>
<event>
 4    1  0.6092738E+000  0.1000000E+03  0.7546771E-02  0.1280296E+00
         21   -1    0    0  503  502  0.00000000000E+00  0.00000000000E+00  0.38623323268E+03  0.38623323268E+03  0.00000000000E+00 0.  1.
         21   -1    0    0  501  503 -0.00000000000E+00 -0.00000000000E+00 -0.22237308832E+03  0.22237308832E+03  0.00000000000E+00 0. -1.
          6    1    1    2  501    0 -0.76164614583E+02  0.43258212209E+01  0.31443323434E+03  0.36690192164E+03  0.17300000000E+03 0. -1.
         -6    1    1    2    0  502  0.76164614583E+02 -0.43258212209E+01 -0.15057308998E+03  0.24170439936E+03  0.17300000000E+03 0.  1.
</event>
<event>
 4    1  0.6092738E+000  0.1000000E+03  0.7546771E-02  0.1280296E+00
         21   -1    0    0  503  502  0.00000000000E+00  0.00000000000E+00  0.11104865070E+04  0.11104865070E+04  0.00000000000E+00 0.  1.
         21   -1    0    0  501  503 -0.00000000000E+00 -0.00000000000E+00 -0.36993464274E+02  0.36993464274E+02  0.00000000000E+00 0. -1.
          6    1    1    2  501    0  0.10074205350E+03  0.31356988312E+02  0.54925330057E+03  0.58544035584E+03  0.17300000000E+03 0. -1.
         -6    1    1    2    0  502 -0.10074205350E+03 -0.31356988312E+02  0.52423974212E+03  0.56203961540E+03  0.17300000000E+03 0.  1.
</event>
<event>
 4    1  0.6092738E+000  0.1000000E+03  0.7546771E-02  0.1280296E+00
         21   -1    0    0  501  502  0.00000000000E+00  0.00000000000E+00  0.51404359092E+02  0.51404359092E+02  0.00000000000E+00 0. -1.
         21   -1    0    0  502  503 -0.00000000000E+00 -0.00000000000E+00 -0.62645873411E+03  0.62645873411E+03  0.00000000000E+00 0. -1.
          6    1    1    2  501    0  0.29769617100E+02 -0.37217962715E+02 -0.28466102500E+03  0.33650008322E+03  0.17300000000E+03 0. -1.
         -6    1    1    2    0  503 -0.29769617100E+02  0.37217962715E+02 -0.29039335001E+03  0.34136300998E+03  0.17300000000E+03 0. -1.
</event>
<event>
 4    1  0.6092738E+000  0.1000000E+03  0.7546771E-02  0.1280296E+00
         21   -1    0    0  501  502  0.00000000000E+00  0.00000000000E+00  0.26647452618E+03  0.26647452618E+03  0.00000000000E+00 0. -1.
         21   -1    0    0  502  503 -0.00000000000E+00 -0.00000000000E+00 -0.23579467744E+03  0.23579467744E+03  0.00000000000E+00 0. -1.
          6    1    1    2  501    0 -0.10332205997E+03  0.28984847709E+02  0.16186230177E+03  0.26008455204E+03  0.17300000000E+03 0. -1.
         -6    1    1    2    0  503  0.10332205997E+03 -0.28984847709E+02 -0.13118245303E+03  0.24218465157E+03  0.17300000000E+03 0. -1.
</event>
<event>
 4    1  0.6092738E+000  0.1000000E+03  0.7546771E-02  0.1280296E+00
         21   -1    0    0  501  502  0.00000000000E+00  0.00000000000E+00  0.88373131059E+03  0.88373131059E+03  0.00000000000E+00 0. -1.
         21   -1    0    0  502  503 -0.00000000000E+00 -0.00000000000E+00 -0.60307676541E+02  0.60307676541E+02  0.00000000000E+00 0. -1.
          6    1    1    2  501    0  0.27512827992E+02 -0.39342146390E+02  0.70844324353E+03  0.73083896277E+03  0.17300000000E+03 0. -1.
         -6    1    1    2    0  503 -0.27512827992E+02  0.39342146390E+02  0.11498039052E+03  0.21320002437E+03  0.17300000000E+03 0. -1.
</event>
<event>
 4    1  0.6092738E+000  0.1000000E+03  0.7546771E-02  0.1280296E+00
         21   -1    0    0  501  502  0.00000000000E+00  0.00000000000E+00  0.48269169237E+02  0.48269169237E+02  0.00000000000E+00 0. -1.
         21   -1    0    0  502  503 -0.00000000000E+00 -0.00000000000E+00 -0.93090995892E+03  0.93090995892E+03  0.00000000000E+00 0. -1.
          6    1    1    2  501    0  0.51584797215E+02 -0.48191295293E+02 -0.67253620461E+03  0.69800955492E+03  0.17300000000E+03 0.  1.
         -6    1    1    2    0  503 -0.51584797215E+02  0.48191295293E+02 -0.21010458507E+03  0.28116957323E+03  0.17300000000E+03 0.  1.
</event>
<event>
 4    1  0.6092738E+000  0.1000000E+03  0.7546771E-02  0.1280296E+00
         21   -1    0    0  501  502  0.00000000000E+00  0.00000000000E+00  0.37667088446E+02  0.37667088446E+02  0.00000000000E+00 0.  1.
         21   -1    0    0  502  503 -0.00000000000E+00 -0.00000000000E+00 -0.12744922658E+04  0.12744922658E+04  0.00000000000E+00 0.  1.
          6    1    1    2  501    0  0.10114895307E+03  0.23356248869E+02 -0.36255881857E+03  0.41491507805E+03  0.17300000000E+03 0.  1.
         -6    1    1    2    0  503 -0.10114895307E+03 -0.23356248869E+02 -0.87426635880E+03  0.89724427622E+03  0.17300000000E+03 0.  1.
</event>
<event>
 4    1  0.6092738E+000  0.1000000E+03  0.7546771E-02  0.1280296E+00
         21   -1    0    0  501  502  0.00000000000E+00  0.00000000000E+00  0.16855101266E+03  0.16855101266E+03  0.00000000000E+00 0. -1.
         21   -1    0    0  502  503 -0.00000000000E+00 -0.00000000000E+00 -0.24468850063E+03  0.24468850063E+03  0.00000000000E+00 0. -1.
          6    1    1    2  501    0 -0.17108474740E+01 -0.18873135177E+02  0.68417407622E+02  0.18700017085E+03  0.17300000000E+03 0. -1.
         -6    1    1    2    0  503  0.17108474740E+01  0.18873135177E+02 -0.14455489559E+03  0.22623934245E+03  0.17300000000E+03 0. -1.
</event>
<event>
 4    1  0.6092738E+000  0.1000000E+03  0.7546771E-02  0.1280296E+00
         21   -1    0    0  501  502  0.00000000000E+00  0.00000000000E+00  0.99426788225E+03  0.99426788225E+03  0.00000000000E+00 0. -1.
         21   -1    0    0  502  503 -0.00000000000E+00 -0.00000000000E+00 -0.84102489280E+02  0.84102489280E+02  0.00000000000E+00 0. -1.
          6    1    1    2  501    0 -0.16161312534E+03 -0.81049603339E+02  0.72530943038E+03  0.76726176125E+03  0.17300000000E+03 0. -1.
         -6    1    1    2    0  503  0.16161312534E+03  0.81049603339E+02  0.18485596259E+03  0.31110861028E+03  0.17300000000E+03 0. -1.
</event>
<event>
 4    1  0.6092738E+000  0.1000000E+03  0.7546771E-02  0.1280296E+00
         21   -1    0    0  503  502  0.00000000000E+00  0.00000000000E+00  0.17220941154E+03  0.17220941154E+03  0.00000000000E+00 0. -1.
         21   -1    0    0  501  503 -0.00000000000E+00 -0.00000000000E+00 -0.26452217041E+03  0.26452217041E+03  0.00000000000E+00 0. -1.
          6    1    1    2  501    0  0.89638507906E+02 -0.26667867041E+02 -0.13100704709E+03  0.23630083288E+03  0.17300000000E+03 0. -1.
         -6    1    1    2    0  502 -0.89638507906E+02  0.26667867041E+02  0.38694288221E+02  0.20043074907E+03  0.17300000000E+03 0. -1.
</event>
<event>
 4    1  0.6092738E+000  0.1000000E+03  0.7546771E-02  0.1280296E+00
         21   -1    0    0  501  502  0.00000000000E+00  0.00000000000E+00  0.92305286144E+03  0.92305286144E+03  0.00000000000E+00 0. -1.
         21   -1    0    0  502  503 -0.00000000000E+00 -0.00000000000E+00 -0.14815193219E+03  0.14815193219E+03  0.00000000000E+00 0. -1.
          6    1    1    2  501    0  0.19546286180E+03  0.26145349643E+03  0.36412320450E+03  0.51872764452E+03  0.17300000000E+03 0. -1.
         -6    1    1    2    0  503 -0.19546286180E+03 -0.26145349643E+03  0.41077772475E+03  0.55247714911E+03  0.17300000000E+03 0. -1.
</event>
<event>
 4    1  0.6092738E+000  0.1000000E+03  0.7546771E-02  0.1280296E+00
         21   -1    0    0  503  502  0.00000000000E+00  0.00000000000E+00  0.17334731687E+04  0.17334731687E+04  0.00000000000E+00 0.  1.
         21   -1    0    0  501  503 -0.00000000000E+00 -0.00000000000E+00 -0.13810937409E+03  0.13810937409E+03  0.00000000000E+00 0.  1.
          6    1    1    2  501    0  0.55415777794E+02 -0.39034899987E+02 -0.68011708527E+02  0.19786162928E+03  0.17300000000E+03 0.  1.
         -6    1    1    2    0  502 -0.55415777794E+02  0.39034899987E+02  0.16633755031E+04  0.16737209135E+04  0.17300000000E+03 0.  1.
</event>
<event>
 4    1  0.6092738E+000  0.1000000E+03  0.7546771E-02  0.1280296E+00
         21   -1    0    0  503  502  0.00000000000E+00  0.00000000000E+00  0.10103038759E+03  0.10103038759E+03  0.00000000000E+00 0.  1.
         21   -1    0    0  501  503 -0.00000000000E+00 -0.00000000000E+00 -0.65845071206E+03  0.65845071206E+03  0.00000000000E+00 0.  1.
          6    1    1    2  501    0 -0.30841932082E+02 -0.10514353671E+03 -0.50957733829E+03  0.54918526181E+03  0.17300000000E+03 0.  1.
         -6    1    1    2    0  502  0.30841932082E+02  0.10514353671E+03 -0.47842986184E+02  0.21029583784E+03  0.17300000000E+03 0.  1.
</event>
<event>
 4    1  0.6092738E+000  0.1000000E+03  0.7546771E-02  0.1280296E+00
         21   -1    0    0  503  502  0.00000000000E+00  0.00000000000E+00  0.13259268453E+04  0.13259268453E+04  0.00000000000E+00 0.  1.
         21   -1    0    0  501  503 -0.00000000000E+00 -0.00000000000E+00 -0.66749330055E+02  0.66749330055E+02  0.00000000000E+00 0. -1.
          6    1    1    2  501    0  0.16755617732E+03 -0.14827326569E+03  0.41359213729E+03  0.50104639496E+03  0.17300000000E+03 0. -1.
         -6    1    1    2    0  502 -0.16755617732E+03  0.14827326569E+03  0.84558537796E+03  0.89162978040E+03  0.17300000000E+03 0.  1.
</event>
<event>
 4    1  0.6092738E+000  0.1000000E+03  0.7546771E-02  0.1280296E+00
         21   -1    0    0  501  502  0.00000000000E+00  0.00000000000E+00  0.19944501364E+03  0.19944501364E+03  0.00000000000E+00 0.  1.
         21   -1    0    0  502  503 -0.00000000000E+00 -0.00000000000E+00 -0.24711767600E+03  0.24711767600E+03  0.00000000000E+00 0.  1.
          6    1    1    2  501    0 -0.62197726222E+02  0.15285800519E+02  0.10038539079E+03  0.21002009316E+03  0.17300000000E+03 0.  1.
         -6    1    1    2    0  503  0.62197726222E+02 -0.15285800519E+02 -0.14805805315E+03  0.23654259648E+03  0.17300000000E+03 0.  1.
</event>
<event>
 4    1  0.6092738E+000  0.1000000E+03  0.7546771E-02  0.1280296E+00
         21   -1    0    0  501  502  0.00000000000E+00  0.00000000000E+00  0.48925481496E+03  0.48925481496E+03  0.00000000000E+00 0.  1.
         21   -1    0    0  502  503 -0.00000000000E+00 -0.00000000000E+00 -0.12526938167E+03  0.12526938167E+03  0.00000000000E+00 0.  1.
          6    1    1    2  501    0 -0.79605888505E+02 -0.37849943950E+02  0.37261879752E+03  0.42017077958E+03  0.17300000000E+03 0.  1.
         -6    1    1    2    0  503  0.79605888505E+02  0.37849943950E+02 -0.86333642392E+01  0.19435341705E+03  0.17300000000E+03 0.  1.
</event>
<event>
 4    1  0.6092738E+000  0.1000000E+03  0.7546771E-02  0.1280296E+00
         21   -1    0    0  503  502  0.00000000000E+00  0.00000000000E+00  0.60365924568E+03  0.60365924568E+03  0.00000000000E+00 0. -1.
         21   -1    0    0  501  503 -0.00000000000E+00 -0.00000000000E+00 -0.18508219044E+03  0.18508219044E+03  0.00000000000E+00 0. -1.
          6    1    1    2  501    0  0.85666214212E+02  0.18354533315E+03 -0.28941608043E+02  0.26794440889E+03  0.17300000000E+03 0. -1.
         -6    1    1    2    0  502 -0.85666214212E+02 -0.18354533315E+03  0.44751866329E+03  0.52079702723E+03  0.17300000000E+03 0. -1.
</event>
<event>
 4    1  0.6092738E+000  0.1000000E+03  0.7546771E-02  0.1280296E+00
         21   -1    0    0  501  502  0.00000000000E+00  0.00000000000E+00  0.79039515568E+03  0.79039515568E+03  0.00000000000E+00 0. -1.
         21   -1    0    0  502  503 -0.00000000000E+00 -0.00000000000E+00 -0.52216461200E+02  0.52216461200E+02  0.00000000000E+00 0. -1.
          6    1    1    2  501    0  0.85837288455E+02 -0.22067612051E+02  0.49156113950E+03  0.52859849930E+03  0.17300000000E+03 0. -1.
         -6    1    1    2    0  503 -0.85837288455E+02  0.22067612051E+02  0.24661755498E+03  0.31401311758E+03  0.17300000000E+03 0. -1.
</event>
<event>
 4    1  0.6092738E+000  0.1000000E+03  0.7546771E-02  0.1280296E+00
         21   -1    0    0  501  502  0.00000000000E+00  0.00000000000E+00  0.11226393240E+03  0.11226393240E+03  0.00000000000E+00 0. -1.
         21   -1    0    0  502  503 -0.00000000000E+00 -0.00000000000E+00 -0.41723468536E+03  0.41723468536E+03  0.00000000000E+00 0. -1.
          6    1    1    2  501    0 -0.27467580461E+02  0.11912612846E+03 -0.98247126774E+02  0.23351017190E+03  0.17300000000E+03 0. -1.
         -6    1    1    2    0  503  0.27467580461E+02 -0.11912612846E+03 -0.20672362619E+03  0.29598844587E+03  0.17300000000E+03 0. -1.
</event>
<event>
 4    1  0.6092738E+000  0.1000000E+03  0.7546771E-02  0.1280296E+00
         21   -1    0    0  501  502  0.00000000000E+00  0.00000000000E+00  0.68327220114E+03  0.68327220114E+03  0.00000000000E+00 0. -1.
         21   -1    0    0  502  503 -0.00000000000E+00 -0.00000000000E+00 -0.75410315228E+02  0.75410315228E+02  0.00000000000E+00 0. -1.
          6    1    1    2  501    0  0.13959995042E+03  0.21379375488E+02  0.37184559119E+03  0.43375496256E+03  0.17300000000E+03 0. -1.
         -6    1    1    2    0  503 -0.13959995042E+03 -0.21379375488E+02  0.23601629472E+03  0.32492755382E+03  0.17300000000E+03 0. -1.
</event>
<event>
 4    1  0.6092738E+000  0.1000000E+03  0.7546771E-02  0.1280296E+00
         21   -1    0    0  503  502  0.00000000000E+00  0.00000000000E+00  0.13859901299E+03  0.13859901299E+03  0.00000000000E+00 0.  1.
         21   -1    0    0  501  503 -0.00000000000E+00 -0.00000000000E+00 -0.48698878655E+03  0.48698878655E+03  0.00000000000E+00 0.  1.
          6    1    1    2  501    0  0.72117199875E+02 -0.17050538028E+03 -0.10509250082E+03  0.27431078898E+03  0.17300000000E+03 0.  1.
         -6    1    1    2    0  502 -0.72117199875E+02  0.17050538028E+03 -0.24329727274E+03  0.35127701056E+03  0.17300000000E+03 0.  1.
</event>
<event>
 4    1  0.6092738E+000  0.1000000E+03  0.7546771E-02  0.1280296E+00
         21   -1    0    0  501  502  0.00000000000E+00  0.00000000000E+00  0.37988763735E+03  0.37988763735E+03  0.00000000000E+00 0. -1.
         21   -1    0    0  502  503 -0.00000000000E+00 -0.00000000000E+00 -0.19064481166E+03  0.19064481166E+03  0.00000000000E+00 0. -1.
          6    1    1    2  501    0  0.26746463480E+02  0.17125214118E+03  0.21290616163E+03  0.32450069773E+03  0.17300000000E+03 0. -1.
         -6    1    1    2    0  503 -0.26746463480E+02 -0.17125214118E+03 -0.23663335942E+02  0.24603175127E+03  0.17300000000E+03 0. -1.
</event>
<event>
 4    1  0.6092738E+000  0.1000000E+03  0.7546771E-02  0.1280296E+00
         21   -1    0    0  503  502  0.00000000000E+00  0.00000000000E+00  0.43184804574E+02  0.43184804574E+02  0.00000000000E+00 0.  1.
         21   -1    0    0  501  503 -0.00000000000E+00 -0.00000000000E+00 -0.12865208421E+04  0.12865208421E+04  0.00000000000E+00 0.  1.
          6    1    1    2  501    0 -0.75563407059E+02  0.25676810360E+02 -0.10131213900E+04  0.10308797592E+04  0.17300000000E+03 0.  1.
         -6    1    1    2    0  502  0.75563407059E+02 -0.25676810360E+02 -0.23021464749E+03  0.29882588742E+03  0.17300000000E+03 0.  1.
</event>
<event>
 4    1  0.6092738E+000  0.1000000E+03  0.7546771E-02  0.1280296E+00
         21   -1    0    0  501  502  0.00000000000E+00  0.00000000000E+00  0.11116322817E+04  0.11116322817E+04  0.00000000000E+00 0.  1.
         21   -1    0    0  502  503 -0.00000000000E+00 -0.00000000000E+00 -0.19129003381E+03  0.19129003381E+03  0.00000000000E+00 0.  1.
          6    1    1    2  501    0 -0.53358234202E+02  0.15233440227E+03  0.10193413472E+04  0.10464409460E+04  0.17300000000E+03 0.  1.
         -6    1    1    2    0  503  0.53358234202E+02 -0.15233440227E+03 -0.98999099300E+02  0.25648136957E+03  0.17300000000E+03 0.  1.
</event>
<event>
 4    1  0.6092738E+000  0.1000000E+03  0.7546771E-02  0.1280296E+00
         21   -1    0    0  501  502  0.00000000000E+00  0.00000000000E+00  0.59908461389E+03  0.59908461389E+03  0.00000000000E+00 0.  1.
         21   -1    0    0  502  503 -0.00000000000E+00 -0.00000000000E+00 -0.96162840788E+02  0.96162840788E+02  0.00000000000E+00 0.  1.
          6    1    1    2  501    0  0.12533340871E+03  0.81467351397E+02  0.35724988983E+03  0.42414841326E+03  0.17300000000E+03 0.  1.
         -6    1    1    2    0  503 -0.12533340871E+03 -0.81467351397E+02  0.14567188327E+03  0.27109904142E+03  0.17300000000E+03 0.  1.
</event>
<event>
 4    1  0.6092738E+000  0.1000000E+03  0.7546771E-02  0.1280296E+00
         21   -1    0    0  501  502  0.00000000000E+00  0.00000000000E+00  0.10041482249E+04  0.10041482249E+04  0.00000000000E+00 0.  1.
         21   -1    0    0  502  503 -0.00000000000E+00 -0.00000000000E+00 -0.77525301200E+02  0.77525301200E+02  0.00000000000E+00 0.  1.
          6    1    1    2  501    0 -0.19300689109E+03 -0.76903836563E+02  0.59693572018E+03  0.65530688545E+03  0.17300000000E+03 0.  1.
         -6    1    1    2    0  503  0.19300689109E+03  0.76903836563E+02  0.32968720347E+03  0.42636664060E+03  0.17300000000E+03 0.  1.
</event>
<event>
 4    1  0.6092738E+000  0.1000000E+03  0.7546771E-02  0.1280296E+00
         21   -1    0    0  501  502  0.00000000000E+00  0.00000000000E+00  0.95517777428E+02  0.95517777428E+02  0.00000000000E+00 0.  1.
         21   -1    0    0  502  503 -0.00000000000E+00 -0.00000000000E+00 -0.46249936351E+03  0.46249936351E+03  0.00000000000E+00 0.  1.
          6    1    1    2  501    0 -0.26430099524E+02  0.86164411829E+02 -0.79600523065E+02  0.21068483405E+03  0.17300000000E+03 0.  1.
         -6    1    1    2    0  503  0.26430099524E+02 -0.86164411829E+02 -0.28738106301E+03  0.34733230688E+03  0.17300000000E+03 0.  1.
</event>
<event>
 4    1  0.6092738E+000  0.1000000E+03  0.7546771E-02  0.1280296E+00
         21   -1    0    0  501  502  0.00000000000E+00  0.00000000000E+00  0.67043998930E+03  0.67043998930E+03  0.00000000000E+00 0.  1.
         21   -1    0    0  502  503 -0.00000000000E+00 -0.00000000000E+00 -0.57565471589E+02  0.57565471589E+02  0.00000000000E+00 0.  1.
          6    1    1    2  501    0 -0.61025303373E+02  0.41153114592E+02  0.41202660057E+03  0.45289357036E+03  0.17300000000E+03 0.  1.
         -6    1    1    2    0  503  0.61025303373E+02 -0.41153114592E+02  0.20084791714E+03  0.27511189053E+03  0.17300000000E+03 0.  1.
</event>
<event>
 4    1  0.6092738E+000  0.1000000E+03  0.7546771E-02  0.1280296E+00
         21   -1    0    0  501  502  0.00000000000E+00  0.00000000000E+00  0.10804407228E+04  0.10804407228E+04  0.00000000000E+00 0.  1.
         21   -1    0    0  502  503 -0.00000000000E+00 -0.00000000000E+00 -0.35693596763E+02  0.35693596763E+02  0.00000000000E+00 0.  1.
          6    1    1    2  501    0  0.34759191983E+02 -0.79837854574E+02  0.61461254564E+03  0.64440659968E+03  0.17300000000E+03 0.  1.
         -6    1    1    2    0  503 -0.34759191983E+02  0.79837854574E+02  0.43013458035E+03  0.47172771984E+03  0.17300000000E+03 0.  1.
</event>
<event>
 4    1  0.6092738E+000  0.1000000E+03  0.7546771E-02  0.1280296E+00
         21   -1    0    0  501  502  0.00000000000E+00  0.00000000000E+00  0.10469698447E+03  0.10469698447E+03  0.00000000000E+00 0.  1.
         21   -1    0    0  502  503 -0.00000000000E+00 -0.00000000000E+00 -0.11606550879E+04  0.11606550879E+04  0.00000000000E+00 0.  1.
          6    1    1    2  501    0  0.22924943018E+03 -0.42802303714E+01 -0.16949029225E+03  0.33351099049E+03  0.17300000000E+03 0.  1.
         -6    1    1    2    0  503 -0.22924943018E+03  0.42802303714E+01 -0.88646781124E+03  0.93184108193E+03  0.17300000000E+03 0.  1.
</event>
<event>
 4    1  0.6092738E+000  0.1000000E+03  0.7546771E-02  0.1280296E+00
         21   -1    0    0  503  502  0.00000000000E+00  0.00000000000E+00  0.21808849397E+03  0.21808849397E+03  0.00000000000E+00 0. -1.
         21   -1    0    0  501  503 -0.00000000000E+00 -0.00000000000E+00 -0.35687286902E+03  0.35687286902E+03  0.00000000000E+00 0. -1.
          6    1    1    2  501    0 -0.12743520943E+03  0.17494375228E+03 -0.10287561804E+03  0.29556292367E+03  0.17300000000E+03 0. -1.
         -6    1    1    2    0  502  0.12743520943E+03 -0.17494375228E+03 -0.35908757014E+02  0.27939843932E+03  0.17300000000E+03 0. -1.
</event>
<event>
 4    1  0.6092738E+000  0.1000000E+03  0.7546771E-02  0.1280296E+00
         21   -1    0    0  501  502  0.00000000000E+00  0.00000000000E+00  0.11727083571E+03  0.11727083571E+03  0.00000000000E+00 0. -1.
         21   -1    0    0  502  503 -0.00000000000E+00 -0.00000000000E+00 -0.55826689214E+03  0.55826689214E+03  0.00000000000E+00 0. -1.
          6    1    1    2  501    0  0.38354001305E+02  0.69057761232E+02  0.54628151896E+01  0.19025994364E+03  0.17300000000E+03 0. -1.
         -6    1    1    2    0  503 -0.38354001305E+02 -0.69057761232E+02 -0.44645887162E+03  0.48527778421E+03  0.17300000000E+03 0. -1.
</event>
<event>
 4    1  0.6092738E+000  0.1000000E+03  0.7546771E-02  0.1280296E+00
         21   -1    0    0  501  502  0.00000000000E+00  0.00000000000E+00  0.20994160863E+03  0.20994160863E+03  0.00000000000E+00 0. -1.
         21   -1    0    0  502  503 -0.00000000000E+00 -0.00000000000E+00 -0.48393088946E+03  0.48393088946E+03  0.00000000000E+00 0. -1.
          6    1    1    2  501    0  0.17102703027E+03 -0.10360151621E+03  0.56751748020E+02  0.27043165522E+03  0.17300000000E+03 0. -1.
         -6    1    1    2    0  503 -0.17102703027E+03  0.10360151621E+03 -0.33074102885E+03  0.42344084286E+03  0.17300000000E+03 0. -1.
</event>
<event>
 4    1  0.6092738E+000  0.1000000E+03  0.7546771E-02  0.1280296E+00
         21   -1    0    0  501  502  0.00000000000E+00  0.00000000000E+00  0.42638911332E+03  0.42638911332E+03  0.00000000000E+00 0. -1.
         21   -1    0    0  502  503 -0.00000000000E+00 -0.00000000000E+00 -0.10705291648E+03  0.10705291648E+03  0.00000000000E+00 0.  1.
          6    1    1    2  501    0 -0.53109897979E+02 -0.11132927824E+03  0.13168802073E+03  0.24997120686E+03  0.17300000000E+03 0. -1.
         -6    1    1    2    0  503  0.53109897979E+02  0.11132927824E+03  0.18764817611E+03  0.28347082293E+03  0.17300000000E+03 0.  1.
</event>
<event>
 4    1  0.6092738E+000  0.1000000E+03  0.7546771E-02  0.1280296E+00
         21   -1    0    0  501  502  0.00000000000E+00  0.00000000000E+00  0.57880571118E+03  0.57880571118E+03  0.00000000000E+00 0. -1.
         21   -1    0    0  502  503 -0.00000000000E+00 -0.00000000000E+00 -0.88735731380E+02  0.88735731380E+02  0.00000000000E+00 0.  1.
          6    1    1    2  501    0 -0.21629327706E+02  0.10268948562E+03  0.94706530897E+02  0.22340833751E+03  0.17300000000E+03 0. -1.
         -6    1    1    2    0  503  0.21629327706E+02 -0.10268948562E+03  0.39536344891E+03  0.44413310505E+03  0.17300000000E+03 0.  1.
</event>
<event>
 4    1  0.6092738E+000  0.1000000E+03  0.7546771E-02  0.1280296E+00
         21   -1    0    0  501  502  0.00000000000E+00  0.00000000000E+00  0.12421680624E+03  0.12421680624E+03  0.00000000000E+00 0. -1.
         21   -1    0    0  502  503 -0.00000000000E+00 -0.00000000000E+00 -0.39241369711E+03  0.39241369711E+03  0.00000000000E+00 0. -1.
          6    1    1    2  501    0  0.76595576021E+02  0.25061339308E+02 -0.42309086783E+01  0.19089749496E+03  0.17300000000E+03 0. -1.
         -6    1    1    2    0  503 -0.76595576021E+02 -0.25061339308E+02 -0.26396598219E+03  0.32573300838E+03  0.17300000000E+03 0. -1.
</event>
<event>
 4    1  0.6092738E+000  0.1000000E+03  0.7546771E-02  0.1280296E+00
         21   -1    0    0  501  502  0.00000000000E+00  0.00000000000E+00  0.69824761940E+03  0.69824761940E+03  0.00000000000E+00 0. -1.
         21   -1    0    0  502  503 -0.00000000000E+00 -0.00000000000E+00 -0.40026886901E+03  0.40026886901E+03  0.00000000000E+00 0. -1.
          6    1    1    2  501    0  0.37940252639E+03 -0.14980685690E+03  0.44861418050E+03  0.63053315087E+03  0.17300000000E+03 0. -1.
         -6    1    1    2    0  503 -0.37940252639E+03  0.14980685690E+03 -0.15063543011E+03  0.46798333753E+03  0.17300000000E+03 0. -1.
</event>
<event>
 4    1  0.6092738E+000  0.1000000E+03  0.7546771E-02  0.1280296E+00
         21   -1    0    0  501  502  0.00000000000E+00  0.00000000000E+00  0.23119518910E+03  0.23119518910E+03  0.00000000000E+00 0. -1.
         21   -1    0    0  502  503 -0.00000000000E+00 -0.00000000000E+00 -0.22599107696E+03  0.22599107696E+03  0.00000000000E+00 0. -1.
          6    1    1    2  501    0  0.78222194626E+02 -0.72899363270E+02  0.10694491192E+03  0.22978085883E+03  0.17300000000E+03 0. -1.
         -6    1    1    2    0  503 -0.78222194626E+02  0.72899363270E+02 -0.10174079978E+03  0.22740540723E+03  0.17300000000E+03 0. -1.
</event>
<event>
 4    1  0.6092738E+000  0.1000000E+03  0.7546771E-02  0.1280296E+00
         21   -1    0    0  501  502  0.00000000000E+00  0.00000000000E+00  0.71219812005E+03  0.71219812005E+03  0.00000000000E+00 0. -1.
         21   -1    0    0  502  503 -0.00000000000E+00 -0.00000000000E+00 -0.52570437670E+02  0.52570437670E+02  0.00000000000E+00 0. -1.
          6    1    1    2  501    0 -0.21438058808E+02  0.35100371066E+02  0.48057452263E+03  0.51241828442E+03  0.17300000000E+03 0. -1.
         -6    1    1    2    0  503  0.21438058808E+02 -0.35100371066E+02  0.17905315975E+03  0.25235027329E+03  0.17300000000E+03 0. -1.
</event>
<event>
 4    1  0.6092738E+000  0.1000000E+03  0.7546771E-02  0.1280296E+00
         21   -1    0    0  503  502  0.00000000000E+00  0.00000000000E+00  0.10736898164E+03  0.10736898164E+03  0.00000000000E+00 0. -1.
         21   -1    0    0  501  503 -0.00000000000E+00 -0.00000000000E+00 -0.34789179935E+03  0.34789179935E+03  0.00000000000E+00 0. -1.
          6    1    1    2  501    0 -0.27345116092E+02  0.61583926439E+02 -0.18350625751E+03  0.26104383141E+03  0.17300000000E+03 0. -1.
         -6    1    1    2    0  502  0.27345116092E+02 -0.61583926439E+02 -0.57016560198E+02  0.19421694959E+03  0.17300000000E+03 0. -1.
</event>
<event>
 4    1  0.6092738E+000  0.1000000E+03  0.7546771E-02  0.1280296E+00
         21   -1    0    0  501  502  0.00000000000E+00  0.00000000000E+00  0.10359573670E+04  0.10359573670E+04  0.00000000000E+00 0.  1.
         21   -1    0    0  502  503 -0.00000000000E+00 -0.00000000000E+00 -0.41827473036E+02  0.41827473036E+02  0.00000000000E+00 0. -1.
          6    1    1    2  501    0  0.73830279464E+02 -0.88089246178E+02  0.53292286289E+03  0.57196713476E+03  0.17300000000E+03 0.  1.
         -6    1    1    2    0  503 -0.73830279464E+02  0.88089246178E+02  0.46120703110E+03  0.50581770530E+03  0.17300000000E+03 0. -1.
</event>
<event>
 4    1  0.6092738E+000  0.1000000E+03  0.7546771E-02  0.1280296E+00
         21   -1    0    0  501  502  0.00000000000E+00  0.00000000000E+00  0.12707052864E+03  0.12707052864E+03  0.00000000000E+00 0.  1.
         21   -1    0    0  502  503 -0.00000000000E+00 -0.00000000000E+00 -0.67082608445E+03  0.67082608445E+03  0.00000000000E+00 0. -1.
          6    1    1    2  501    0 -0.57823307258E+02 -0.11040183126E+02  0.39261201660E+02  0.18691137596E+03  0.17300000000E+03 0.  1.
         -6    1    1    2    0  503  0.57823307258E+02  0.11040183126E+02 -0.58301675747E+03  0.61098523714E+03  0.17300000000E+03 0. -1.
</event>
<event>
 4    1  0.6092738E+000  0.1000000E+03  0.7546771E-02  0.1280296E+00
         21   -1    0    0  501  502  0.00000000000E+00  0.00000000000E+00  0.15994921310E+03  0.15994921310E+03  0.00000000000E+00 0.  1.
         21   -1    0    0  502  503 -0.00000000000E+00 -0.00000000000E+00 -0.31041295752E+03  0.31041295752E+03  0.00000000000E+00 0.  1.
          6    1    1    2  501    0  0.10909853115E+03  0.33267372025E+02  0.11239161126E+02  0.20751994189E+03  0.17300000000E+03 0.  1.
         -6    1    1    2    0  503 -0.10909853115E+03 -0.33267372025E+02 -0.16170290555E+03  0.26284222873E+03  0.17300000000E+03 0.  1.
</event>
<event>
 4    1  0.6092738E+000  0.1000000E+03  0.7546771E-02  0.1280296E+00
         21   -1    0    0  501  502  0.00000000000E+00  0.00000000000E+00  0.21927033422E+03  0.21927033422E+03  0.00000000000E+00 0.  1.
         21   -1    0    0  502  503 -0.00000000000E+00 -0.00000000000E+00 -0.52166148084E+03  0.52166148084E+03  0.00000000000E+00 0.  1.
          6    1    1    2  501    0 -0.73075421590E+02  0.15425851273E+03  0.10643993611E+03  0.26531898912E+03  0.17300000000E+03 0.  1.
         -6    1    1    2    0  503  0.73075421590E+02 -0.15425851273E+03 -0.40883108273E+03  0.47561282594E+03  0.17300000000E+03 0.  1.
</event>
<event>
 4    1  0.6092738E+000  0.1000000E+03  0.7546771E-02  0.1280296E+00
         21   -1    0    0  501  502  0.00000000000E+00  0.00000000000E+00  0.10464935730E+04  0.10464935730E+04  0.00000000000E+00 0.  1.
         21   -1    0    0  502  503 -0.00000000000E+00 -0.00000000000E+00 -0.42319189364E+02  0.42319189364E+02  0.00000000000E+00 0.  1.
          6    1    1    2  501    0 -0.20366818118E+02  0.78578202435E+02  0.73009649184E+03  0.75469147907E+03  0.17300000000E+03 0.  1.
         -6    1    1    2    0  503  0.20366818118E+02 -0.78578202435E+02  0.27407789177E+03  0.33412128327E+03  0.17300000000E+03 0.  1.
</event>
<event>
 4    1  0.6092738E+000  0.1000000E+03  0.7546771E-02  0.1280296E+00
         21   -1    0    0  501  502  0.00000000000E+00  0.00000000000E+00  0.28858565833E+03  0.28858565833E+03  0.00000000000E+00 0.  1.
         21   -1    0    0  502  503 -0.00000000000E+00 -0.00000000000E+00 -0.25964041546E+03  0.25964041546E+03  0.00000000000E+00 0.  1.
          6    1    1    2  501    0 -0.11273025187E+03 -0.16904693807E+03  0.75504637021E+02  0.27733540555E+03  0.17300000000E+03 0.  1.
         -6    1    1    2    0  503  0.11273025187E+03  0.16904693807E+03 -0.46559394148E+02  0.27089066824E+03  0.17300000000E+03 0.  1.
</event>
<event>
 4    1  0.6092738E+000  0.1000000E+03  0.7546771E-02  0.1280296E+00
         21   -1    0    0  501  502  0.00000000000E+00  0.00000000000E+00  0.97881537233E+03  0.97881537233E+03  0.00000000000E+00 0. -1.
         21   -1    0    0  502  503 -0.00000000000E+00 -0.00000000000E+00 -0.40703620343E+02  0.40703620343E+02  0.00000000000E+00 0.  1.
          6    1    1    2  501    0 -0.21086784715E+02 -0.11761185894E+02  0.71573030909E+03  0.73673730280E+03  0.17300000000E+03 0. -1.
         -6    1    1    2    0  503  0.21086784715E+02  0.11761185894E+02  0.22238144289E+03  0.28278168987E+03  0.17300000000E+03 0.  1.
</event>
<event>
 4    1  0.6092738E+000  0.1000000E+03  0.7546771E-02  0.1280296E+00
         21   -1    0    0  501  502  0.00000000000E+00  0.00000000000E+00  0.41077011688E+03  0.41077011688E+03  0.00000000000E+00 0. -1.
         21   -1    0    0  502  503 -0.00000000000E+00 -0.00000000000E+00 -0.98499971220E+02  0.98499971220E+02  0.00000000000E+00 0.  1.
          6    1    1    2  501    0 -0.30367321171E+02  0.51409479967E+02  0.26179623252E+03  0.31942350600E+03  0.17300000000E+03 0. -1.
         -6    1    1    2    0  503  0.30367321171E+02 -0.51409479967E+02  0.50473913139E+02  0.18984658209E+03  0.17300000000E+03 0.  1.
</event>
<event>
 4    1  0.6092738E+000  0.1000000E+03  0.7546771E-02  0.1280296E+00
         21   -1    0    0  501  502  0.00000000000E+00  0.00000000000E+00  0.12439240845E+04  0.12439240845E+04  0.00000000000E+00 0. -1.
         21   -1    0    0  502  503 -0.00000000000E+00 -0.00000000000E+00 -0.14079714012E+03  0.14079714012E+03  0.00000000000E+00 0.  1.
          6    1    1    2  501    0 -0.49938181542E+01  0.24275452370E+03  0.10374516351E+04  0.10794394806E+04  0.17300000000E+03 0. -1.
         -6    1    1    2    0  503  0.49938181542E+01 -0.24275452370E+03  0.65675309247E+02  0.30528174403E+03  0.17300000000E+03 0.  1.
</event>
<event>
 4    1  0.6092738E+000  0.1000000E+03  0.7546771E-02  0.1280296E+00
         21   -1    0    0  501  502  0.00000000000E+00  0.00000000000E+00  0.53964841874E+03  0.53964841874E+03  0.00000000000E+00 0.  1.
         21   -1    0    0  502  503 -0.00000000000E+00 -0.00000000000E+00 -0.10209813527E+03  0.10209813527E+03  0.00000000000E+00 0.  1.
          6    1    1    2  501    0 -0.52413904595E+02 -0.47284508652E+01  0.42336253424E+03  0.46036334676E+03  0.17300000000E+03 0.  1.
         -6    1    1    2    0  503  0.52413904595E+02  0.47284508652E+01  0.14187749226E+02  0.18138320725E+03  0.17300000000E+03 0.  1.
</event>
<event>
 4    1  0.6092738E+000  0.1000000E+03  0.7546771E-02  0.1280296E+00
         21   -1    0    0  501  502  0.00000000000E+00  0.00000000000E+00  0.15779762980E+04  0.15779762980E+04  0.00000000000E+00 0.  1.
         21   -1    0    0  502  503 -0.00000000000E+00 -0.00000000000E+00 -0.16085559315E+03  0.16085559315E+03  0.00000000000E+00 0.  1.
          6    1    1    2  501    0  0.31850459744E+03 -0.89571250200E+02  0.12923112622E+04  0.13451637766E+04  0.17300000000E+03 0.  1.
         -6    1    1    2    0  503 -0.31850459744E+03  0.89571250200E+02  0.12480944266E+03  0.39366811457E+03  0.17300000000E+03 0.  1.
</event>
<event>
 4    1  0.6092738E+000  0.1000000E+03  0.7546771E-02  0.1280296E+00
         21   -1    0    0  501  502  0.00000000000E+00  0.00000000000E+00  0.33155257367E+03  0.33155257367E+03  0.00000000000E+00 0.  1.
         21   -1    0    0  502  503 -0.00000000000E+00 -0.00000000000E+00 -0.29224605084E+03  0.29224605084E+03  0.00000000000E+00 0.  1.
          6    1    1    2  501    0 -0.84497361652E+02  0.48497741869E+01  0.26468590418E+03  0.32733920069E+03  0.17300000000E+03 0.  1.
         -6    1    1    2    0  503  0.84497361652E+02 -0.48497741869E+01 -0.22537938135E+03  0.29645942382E+03  0.17300000000E+03 0.  1.
</event>
<event>
 4    1  0.6092738E+000  0.1000000E+03  0.7546771E-02  0.1280296E+00
         21   -1    0    0  501  502  0.00000000000E+00  0.00000000000E+00  0.26832793790E+02  0.26832793790E+02  0.00000000000E+00 0.  1.
         21   -1    0    0  502  503 -0.00000000000E+00 -0.00000000000E+00 -0.14506893975E+04  0.14506893975E+04  0.00000000000E+00 0.  1.
          6    1    1    2  501    0 -0.51368517973E+02 -0.59392326698E+02 -0.51270308805E+03  0.54677200880E+03  0.17300000000E+03 0.  1.
         -6    1    1    2    0  503  0.51368517973E+02  0.59392326698E+02 -0.91115351567E+03  0.93075018250E+03  0.17300000000E+03 0.  1.
</event>
<event>
 4    1  0.6092738E+000  0.1000000E+03  0.7546771E-02  0.1280296E+00
         21   -1    0    0  501  502  0.00000000000E+00  0.00000000000E+00  0.52237087695E+02  0.52237087695E+02  0.00000000000E+00 0. -1.
         21   -1    0    0  502  503 -0.00000000000E+00 -0.00000000000E+00 -0.90132623120E+03  0.90132623120E+03  0.00000000000E+00 0. -1.
          6    1    1    2  501    0  0.24155593838E+02 -0.82408632277E+02 -0.20725650262E+03  0.28330007636E+03  0.17300000000E+03 0.  1.
         -6    1    1    2    0  503 -0.24155593838E+02  0.82408632277E+02 -0.64183264088E+03  0.67026324253E+03  0.17300000000E+03 0.  1.
</event>
<event>
 4    1  0.6092738E+000  0.1000000E+03  0.7546771E-02  0.1280296E+00
         21   -1    0    0  501  502  0.00000000000E+00  0.00000000000E+00  0.19507953139E+03  0.19507953139E+03  0.00000000000E+00 0. -1.
         21   -1    0    0  502  503 -0.00000000000E+00 -0.00000000000E+00 -0.73410436462E+03  0.73410436462E+03  0.00000000000E+00 0. -1.
          6    1    1    2  501    0 -0.54114437357E+02 -0.27125110623E+02  0.13695252193E+03  0.22879933833E+03  0.17300000000E+03 0.  1.
         -6    1    1    2    0  503  0.54114437357E+02  0.27125110623E+02 -0.67597735516E+03  0.70038455769E+03  0.17300000000E+03 0.  1.
</event>
<event>
 4    1  0.6092738E+000  0.1000000E+03  0.7546771E-02  0.1280296E+00
         21   -1    0    0  501  502  0.00000000000E+00  0.00000000000E+00  0.76686936764E+03  0.76686936764E+03  0.00000000000E+00 0. -1.
         21   -1    0    0  502  503 -0.00000000000E+00 -0.00000000000E+00 -0.67715816065E+02  0.67715816065E+02  0.00000000000E+00 0. -1.
          6    1    1    2  501    0 -0.77349259890E+02  0.12653515266E+03  0.34504214026E+03  0.41349381062E+03  0.17300000000E+03 0.  1.
         -6    1    1    2    0  503  0.77349259890E+02 -0.12653515266E+03  0.35411141131E+03  0.42109137308E+03  0.17300000000E+03 0.  1.
</event>
<event>
 4    1  0.6092738E+000  0.1000000E+03  0.7546771E-02  0.1280296E+00
         21   -1    0    0  501  502  0.00000000000E+00  0.00000000000E+00  0.11101455464E+04  0.11101455464E+04  0.00000000000E+00 0. -1.
         21   -1    0    0  502  503 -0.00000000000E+00 -0.00000000000E+00 -0.92324363350E+02  0.92324363350E+02  0.00000000000E+00 0. -1.
          6    1    1    2  501    0 -0.79295606300E+02  0.24767063564E+03  0.37696915560E+03  0.48955416576E+03  0.17300000000E+03 0.  1.
         -6    1    1    2    0  503  0.79295606300E+02 -0.24767063564E+03  0.64085202743E+03  0.71291574397E+03  0.17300000000E+03 0.  1.
</event>
<event>
 4    1  0.6092738E+000  0.1000000E+03  0.7546771E-02  0.1280296E+00
         21   -1    0    0  503  502  0.00000000000E+00  0.00000000000E+00  0.24008230703E+03  0.24008230703E+03  0.00000000000E+00 0.  1.
         21   -1    0    0  501  503 -0.00000000000E+00 -0.00000000000E+00 -0.21584208265E+03  0.21584208265E+03  0.00000000000E+00 0.  1.
          6    1    1    2  501    0  0.68651703564E+02 -0.45154940086E+02 -0.11109415317E+03  0.22141123703E+03  0.17300000000E+03 0.  1.
         -6    1    1    2    0  502 -0.68651703564E+02  0.45154940086E+02  0.13533437755E+03  0.23451315264E+03  0.17300000000E+03 0.  1.
</event>
<event>
 4    1  0.6092738E+000  0.1000000E+03  0.7546771E-02  0.1280296E+00
         21   -1    0    0  503  502  0.00000000000E+00  0.00000000000E+00  0.44155217898E+03  0.44155217898E+03  0.00000000000E+00 0.  1.
         21   -1    0    0  501  503 -0.00000000000E+00 -0.00000000000E+00 -0.68293747724E+03  0.68293747724E+03  0.00000000000E+00 0.  1.
          6    1    1    2  501    0  0.41667596778E+03 -0.26609834803E+03 -0.28954192288E+03  0.59849036588E+03  0.17300000000E+03 0.  1.
         -6    1    1    2    0  502 -0.41667596778E+03  0.26609834803E+03  0.48156624616E+02  0.52599929034E+03  0.17300000000E+03 0.  1.
</event>
<event>
 4    1  0.6092738E+000  0.1000000E+03  0.7546771E-02  0.1280296E+00
         21   -1    0    0  501  502  0.00000000000E+00  0.00000000000E+00  0.13095016291E+03  0.13095016291E+03  0.00000000000E+00 0.  1.
         21   -1    0    0  502  503 -0.00000000000E+00 -0.00000000000E+00 -0.11768364784E+04  0.11768364784E+04  0.00000000000E+00 0. -1.
          6    1    1    2  501    0 -0.10559659370E+03 -0.31119169258E+02  0.34651966766E+02  0.20796346337E+03  0.17300000000E+03 0.  1.
         -6    1    1    2    0  503  0.10559659370E+03  0.31119169258E+02 -0.10805382823E+04  0.10998231779E+04  0.17300000000E+03 0. -1.
</event>
<event>
 4    1  0.6092738E+000  0.1000000E+03  0.7546771E-02  0.1280296E+00
         21   -1    0    0  501  502  0.00000000000E+00  0.00000000000E+00  0.21251927903E+03  0.21251927903E+03  0.00000000000E+00 0.  1.
         21   -1    0    0  502  503 -0.00000000000E+00 -0.00000000000E+00 -0.58521294335E+03  0.58521294335E+03  0.00000000000E+00 0. -1.
          6    1    1    2  501    0 -0.18455908592E+03  0.76491405848E+02  0.77758383286E+02  0.27547841574E+03  0.17300000000E+03 0.  1.
         -6    1    1    2    0  503  0.18455908592E+03 -0.76491405848E+02 -0.45045204761E+03  0.52225380665E+03  0.17300000000E+03 0. -1.
</event>
<event>
 4    1  0.6092738E+000  0.1000000E+03  0.7546771E-02  0.1280296E+00
         21   -1    0    0  503  502  0.00000000000E+00  0.00000000000E+00  0.22136118296E+03  0.22136118296E+03  0.00000000000E+00 0. -1.
         21   -1    0    0  501  503 -0.00000000000E+00 -0.00000000000E+00 -0.17231129892E+03  0.17231129892E+03  0.00000000000E+00 0. -1.
          6    1    1    2  501    0 -0.78515827039E+02  0.11460867428E+02 -0.19613366151E+02  0.19133679915E+03  0.17300000000E+03 0. -1.
         -6    1    1    2    0  502  0.78515827039E+02 -0.11460867428E+02  0.68663250188E+02  0.20233568273E+03  0.17300000000E+03 0. -1.
</event>
<event>
 4    1  0.6092738E+000  0.1000000E+03  0.7546771E-02  0.1280296E+00
         21   -1    0    0  503  502  0.00000000000E+00  0.00000000000E+00  0.12980066672E+04  0.12980066672E+04  0.00000000000E+00 0. -1.
         21   -1    0    0  501  503 -0.00000000000E+00 -0.00000000000E+00 -0.36755156683E+02  0.36755156683E+02  0.00000000000E+00 0. -1.
          6    1    1    2  501    0 -0.64461916922E+02 -0.70839546118E+02  0.34717783275E+03  0.39954352401E+03  0.17300000000E+03 0.  1.
         -6    1    1    2    0  502  0.64461916922E+02  0.70839546118E+02  0.91407367779E+03  0.93521829989E+03  0.17300000000E+03 0.  1.
</event>
<event>
 4    1  0.6092738E+000  0.1000000E+03  0.7546771E-02  0.1280296E+00
         21   -1    0    0  503  502  0.00000000000E+00  0.00000000000E+00  0.57840159359E+03  0.57840159359E+03  0.00000000000E+00 0. -1.
         21   -1    0    0  501  503 -0.00000000000E+00 -0.00000000000E+00 -0.83127915011E+02  0.83127915011E+02  0.00000000000E+00 0. -1.
          6    1    1    2  501    0 -0.12142188737E+03 -0.84894643725E+01  0.16049888234E+03  0.26552633950E+03  0.17300000000E+03 0.  1.
         -6    1    1    2    0  502  0.12142188737E+03  0.84894643725E+01  0.33477479625E+03  0.39600316910E+03  0.17300000000E+03 0.  1.
</event>
<event>
 4    1  0.6092738E+000  0.1000000E+03  0.7546771E-02  0.1280296E+00
         21   -1    0    0  501  502  0.00000000000E+00  0.00000000000E+00  0.76006082950E+02  0.76006082950E+02  0.00000000000E+00 0. -1.
         21   -1    0    0  502  503 -0.00000000000E+00 -0.00000000000E+00 -0.16947454450E+04  0.16947454450E+04  0.00000000000E+00 0. -1.
          6    1    1    2  501    0 -0.15262590018E+03 -0.11839664045E+03 -0.19725309697E+03  0.32580701978E+03  0.17300000000E+03 0. -1.
         -6    1    1    2    0  503  0.15262590018E+03  0.11839664045E+03 -0.14214862651E+04  0.14449445082E+04  0.17300000000E+03 0. -1.
</event>
<event>
 4    1  0.6092738E+000  0.1000000E+03  0.7546771E-02  0.1280296E+00
         21   -1    0    0  501  502  0.00000000000E+00  0.00000000000E+00  0.83218316924E+03  0.83218316924E+03  0.00000000000E+00 0. -1.
         21   -1    0    0  502  503 -0.00000000000E+00 -0.00000000000E+00 -0.50512423610E+02  0.50512423610E+02  0.00000000000E+00 0. -1.
          6    1    1    2  501    0  0.45136041061E+02  0.97733614400E+02  0.34186721119E+03  0.39798405957E+03  0.17300000000E+03 0. -1.
         -6    1    1    2    0  503 -0.45136041061E+02 -0.97733614400E+02  0.43980353444E+03  0.48471153328E+03  0.17300000000E+03 0. -1.
</event>
<event>
 4    1  0.6092738E+000  0.1000000E+03  0.7546771E-02  0.1280296E+00
         21   -1    0    0  503  502  0.00000000000E+00  0.00000000000E+00  0.62894186815E+02  0.62894186815E+02  0.00000000000E+00 0.  1.
         21   -1    0    0  501  503 -0.00000000000E+00 -0.00000000000E+00 -0.74359460386E+03  0.74359460386E+03  0.00000000000E+00 0. -1.
          6    1    1    2  501    0 -0.76761770133E+02 -0.16880056875E+02 -0.53288249236E+03  0.56574734320E+03  0.17300000000E+03 0. -1.
         -6    1    1    2    0  502  0.76761770133E+02  0.16880056875E+02 -0.14781792468E+03  0.24074144747E+03  0.17300000000E+03 0.  1.
</event>
<event>
 4    1  0.6092738E+000  0.1000000E+03  0.7546771E-02  0.1280296E+00
         21   -1    0    0  503  502  0.00000000000E+00  0.00000000000E+00  0.11995617477E+03  0.11995617477E+03  0.00000000000E+00 0. -1.
         21   -1    0    0  501  503 -0.00000000000E+00 -0.00000000000E+00 -0.26391537777E+03  0.26391537777E+03  0.00000000000E+00 0. -1.
          6    1    1    2  501    0 -0.29375074518E+02  0.29316866351E+02 -0.74814324515E+02  0.19299885183E+03  0.17300000000E+03 0. -1.
         -6    1    1    2    0  502  0.29375074518E+02 -0.29316866351E+02 -0.69144878486E+02  0.19087270071E+03  0.17300000000E+03 0. -1.
</event>
<event>
 4    1  0.6092738E+000  0.1000000E+03  0.7546771E-02  0.1280296E+00
         21   -1    0    0  503  502  0.00000000000E+00  0.00000000000E+00  0.94694081214E+02  0.94694081214E+02  0.00000000000E+00 0. -1.
         21   -1    0    0  501  503 -0.00000000000E+00 -0.00000000000E+00 -0.34396843936E+03  0.34396843936E+03  0.00000000000E+00 0.  1.
          6    1    1    2  501    0 -0.84395914324E+01  0.49059113450E+02 -0.14023612266E+03  0.22819551576E+03  0.17300000000E+03 0.  1.
         -6    1    1    2    0  502  0.84395914324E+01 -0.49059113450E+02 -0.10903823549E+03  0.21046700481E+03  0.17300000000E+03 0. -1.
</event>
<event>
 4    1  0.6092738E+000  0.1000000E+03  0.7546771E-02  0.1280296E+00
         21   -1    0    0  501  502  0.00000000000E+00  0.00000000000E+00  0.47157614443E+03  0.47157614443E+03  0.00000000000E+00 0. -1.
         21   -1    0    0  502  503 -0.00000000000E+00 -0.00000000000E+00 -0.12176278984E+03  0.12176278984E+03  0.00000000000E+00 0.  1.
          6    1    1    2  501    0  0.51898586736E+02 -0.15615858769E+03  0.14976292345E+03  0.28184552694E+03  0.17300000000E+03 0. -1.
         -6    1    1    2    0  503 -0.51898586736E+02  0.15615858769E+03  0.20005043114E+03  0.31149340734E+03  0.17300000000E+03 0.  1.
</event>
<event>
 4    1  0.6092738E+000  0.1000000E+03  0.7546771E-02  0.1280296E+00
         21   -1    0    0  501  502  0.00000000000E+00  0.00000000000E+00  0.30532172398E+04  0.30532172398E+04  0.00000000000E+00 0. -1.
         21   -1    0    0  502  503 -0.00000000000E+00 -0.00000000000E+00 -0.18567262403E+02  0.18567262403E+02  0.00000000000E+00 0.  1.
          6    1    1    2  501    0  0.39359378555E+02  0.28188994692E+02  0.25253122628E+04  0.25316940583E+04  0.17300000000E+03 0. -1.
         -6    1    1    2    0  503 -0.39359378555E+02 -0.28188994692E+02  0.50933771459E+03  0.54009044391E+03  0.17300000000E+03 0.  1.
</event>
<event>
 4    1  0.6092738E+000  0.1000000E+03  0.7546771E-02  0.1280296E+00
         21   -1    0    0  503  502  0.00000000000E+00  0.00000000000E+00  0.64024695955E+03  0.64024695955E+03  0.00000000000E+00 0. -1.
         21   -1    0    0  501  503 -0.00000000000E+00 -0.00000000000E+00 -0.18566279677E+03  0.18566279677E+03  0.00000000000E+00 0. -1.
          6    1    1    2  501    0 -0.81912645121E+02 -0.28158584360E+03  0.16233939767E+03  0.37720465106E+03  0.17300000000E+03 0. -1.
         -6    1    1    2    0  502  0.81912645121E+02  0.28158584360E+03  0.29224476511E+03  0.44870510525E+03  0.17300000000E+03 0. -1.
</event>
<event>
 4    1  0.6092738E+000  0.1000000E+03  0.7546771E-02  0.1280296E+00
         21   -1    0    0  503  502  0.00000000000E+00  0.00000000000E+00  0.17844129169E+04  0.17844129169E+04  0.00000000000E+00 0. -1.
         21   -1    0    0  501  503 -0.00000000000E+00 -0.00000000000E+00 -0.18668607710E+02  0.18668607710E+02  0.00000000000E+00 0. -1.
          6    1    1    2  501    0 -0.32745898510E+02 -0.42049440181E+02  0.76776460410E+03  0.78881679533E+03  0.17300000000E+03 0. -1.
         -6    1    1    2    0  502  0.32745898510E+02  0.42049440181E+02  0.99797970512E+03  0.10142647293E+04  0.17300000000E+03 0. -1.
</event>
<event>
 4    1  0.6092738E+000  0.1000000E+03  0.7546771E-02  0.1280296E+00
         21   -1    0    0  501  502  0.00000000000E+00  0.00000000000E+00  0.24459442585E+03  0.24459442585E+03  0.00000000000E+00 0. -1.
         21   -1    0    0  502  503 -0.00000000000E+00 -0.00000000000E+00 -0.22831536604E+03  0.22831536604E+03  0.00000000000E+00 0.  1.
          6    1    1    2  501    0 -0.15424061156E+03 -0.33626171927E+02 -0.23419309469E+02  0.23536854027E+03  0.17300000000E+03 0. -1.
         -6    1    1    2    0  503  0.15424061156E+03  0.33626171927E+02  0.39698369281E+02  0.23754125161E+03  0.17300000000E+03 0.  1.
</event>
<event>
 4    1  0.6092738E+000  0.1000000E+03  0.7546771E-02  0.1280296E+00
         21   -1    0    0  501  502  0.00000000000E+00  0.00000000000E+00  0.11227172724E+03  0.11227172724E+03  0.00000000000E+00 0. -1.
         21   -1    0    0  502  503 -0.00000000000E+00 -0.00000000000E+00 -0.48154045618E+03  0.48154045618E+03  0.00000000000E+00 0.  1.
          6    1    1    2  501    0  0.15534950199E+03  0.90794140568E-01 -0.18342111658E+03  0.29615161998E+03  0.17300000000E+03 0. -1.
         -6    1    1    2    0  503 -0.15534950199E+03 -0.90794140568E-01 -0.18584761236E+03  0.29766056344E+03  0.17300000000E+03 0.  1.
</event>
<event>
 4    1  0.6092738E+000  0.1000000E+03  0.7546771E-02  0.1280296E+00
         21   -1    0    0  501  502  0.00000000000E+00  0.00000000000E+00  0.33440782912E+02  0.33440782912E+02  0.00000000000E+00 0.  1.
         21   -1    0    0  502  503 -0.00000000000E+00 -0.00000000000E+00 -0.14963479875E+04  0.14963479875E+04  0.00000000000E+00 0.  1.
          6    1    1    2  501    0  0.24816168225E+02 -0.13807115426E+03 -0.80240565858E+03  0.83274445466E+03  0.17300000000E+03 0.  1.
         -6    1    1    2    0  503 -0.24816168225E+02  0.13807115426E+03 -0.66050154598E+03  0.69704431573E+03  0.17300000000E+03 0.  1.
</event>
<event>
 4    1  0.6092738E+000  0.1000000E+03  0.7546771E-02  0.1280296E+00
         21   -1    0    0  503  502  0.00000000000E+00  0.00000000000E+00  0.10654675537E+04  0.10654675537E+04  0.00000000000E+00 0.  1.
         21   -1    0    0  501  503 -0.00000000000E+00 -0.00000000000E+00 -0.91153097880E+02  0.91153097880E+02  0.00000000000E+00 0. -1.
          6    1    1    2  501    0  0.12699589234E+02  0.16232342516E+03  0.11287124392E+03  0.26301918490E+03  0.17300000000E+03 0. -1.
         -6    1    1    2    0  502 -0.12699589234E+02 -0.16232342516E+03  0.86144321191E+03  0.89360146669E+03  0.17300000000E+03 0. -1.
</event>
<event>
 4    1  0.6092738E+000  0.1000000E+03  0.7546771E-02  0.1280296E+00
         21   -1    0    0  503  502  0.00000000000E+00  0.00000000000E+00  0.54053010777E+03  0.54053010777E+03  0.00000000000E+00 0.  1.
         21   -1    0    0  501  503 -0.00000000000E+00 -0.00000000000E+00 -0.21125738151E+03  0.21125738151E+03  0.00000000000E+00 0. -1.
          6    1    1    2  501    0  0.18655887232E+03 -0.80520429527E+02 -0.65960408623E+02  0.27489548545E+03  0.17300000000E+03 0. -1.
         -6    1    1    2    0  502 -0.18655887232E+03  0.80520429527E+02  0.39523313488E+03  0.47689200383E+03  0.17300000000E+03 0. -1.
</event>
<event>
 4    1  0.6092738E+000  0.1000000E+03  0.7546771E-02  0.1280296E+00
         21   -1    0    0  503  502  0.00000000000E+00  0.00000000000E+00  0.92952567709E+03  0.92952567709E+03  0.00000000000E+00 0.  1.
         21   -1    0    0  501  503 -0.00000000000E+00 -0.00000000000E+00 -0.74589023076E+02  0.74589023076E+02  0.00000000000E+00 0. -1.
          6    1    1    2  501    0 -0.11578640890E+03 -0.95670760254E+02  0.18000655570E+03  0.29136016706E+03  0.17300000000E+03 0. -1.
         -6    1    1    2    0  502  0.11578640890E+03  0.95670760254E+02  0.67493009831E+03  0.71275453311E+03  0.17300000000E+03 0. -1.
</event>
<event>
 4    1  0.6092738E+000  0.1000000E+03  0.7546771E-02  0.1280296E+00
         21   -1    0    0  501  502  0.00000000000E+00  0.00000000000E+00  0.31449529043E+03  0.31449529043E+03  0.00000000000E+00 0.  1.
         21   -1    0    0  502  503 -0.00000000000E+00 -0.00000000000E+00 -0.18995759850E+03  0.18995759850E+03  0.00000000000E+00 0.  1.
          6    1    1    2  501    0 -0.38017022825E+02 -0.20740649417E+02  0.23474921171E+03  0.29480783735E+03  0.17300000000E+03 0.  1.
         -6    1    1    2    0  503  0.38017022825E+02  0.20740649417E+02 -0.11021151977E+03  0.20964505158E+03  0.17300000000E+03 0.  1.
</event>
<event>
 4    1  0.6092738E+000  0.1000000E+03  0.7546771E-02  0.1280296E+00
         21   -1    0    0  501  502  0.00000000000E+00  0.00000000000E+00  0.19075434260E+03  0.19075434260E+03  0.00000000000E+00 0.  1.
         21   -1    0    0  502  503 -0.00000000000E+00 -0.00000000000E+00 -0.44686297684E+03  0.44686297684E+03  0.00000000000E+00 0.  1.
          6    1    1    2  501    0 -0.10051510647E+03  0.56330478856E+02  0.95825301142E+02  0.22888402700E+03  0.17300000000E+03 0.  1.
         -6    1    1    2    0  503  0.10051510647E+03 -0.56330478856E+02 -0.35193393538E+03  0.40873329244E+03  0.17300000000E+03 0.  1.
</event>
<event>
 4    1  0.6092738E+000  0.1000000E+03  0.7546771E-02  0.1280296E+00
         21   -1    0    0  501  502  0.00000000000E+00  0.00000000000E+00  0.61094127881E+02  0.61094127881E+02  0.00000000000E+00 0. -1.
         21   -1    0    0  502  503 -0.00000000000E+00 -0.00000000000E+00 -0.10286824487E+04  0.10286824487E+04  0.00000000000E+00 0. -1.
          6    1    1    2  501    0  0.79157120577E+01 -0.87831630802E+02 -0.13916407086E+03  0.23889891688E+03  0.17300000000E+03 0. -1.
         -6    1    1    2    0  503 -0.79157120577E+01  0.87831630802E+02 -0.82842424996E+03  0.85087765971E+03  0.17300000000E+03 0. -1.
</event>
<event>
 4    1  0.6092738E+000  0.1000000E+03  0.7546771E-02  0.1280296E+00
         21   -1    0    0  501  502  0.00000000000E+00  0.00000000000E+00  0.24122505346E+02  0.24122505346E+02  0.00000000000E+00 0. -1.
         21   -1    0    0  502  503 -0.00000000000E+00 -0.00000000000E+00 -0.26602393941E+04  0.26602393941E+04  0.00000000000E+00 0. -1.
          6    1    1    2  501    0  0.13610689630E+03 -0.77393086724E+02 -0.79548395712E+03  0.82899849405E+03  0.17300000000E+03 0. -1.
         -6    1    1    2    0  503 -0.13610689630E+03  0.77393086724E+02 -0.18406329316E+04  0.18553634054E+04  0.17300000000E+03 0. -1.
</event>
<event>
 4    1  0.6092738E+000  0.1000000E+03  0.7546771E-02  0.1280296E+00
         21   -1    0    0  501  502  0.00000000000E+00  0.00000000000E+00  0.31864980996E+03  0.31864980996E+03  0.00000000000E+00 0. -1.
         21   -1    0    0  502  503 -0.00000000000E+00 -0.00000000000E+00 -0.13829369557E+03  0.13829369557E+03  0.00000000000E+00 0.  1.
          6    1    1    2  501    0 -0.36007771208E+02 -0.37549982483E+02  0.20654506886E+03  0.27440194285E+03  0.17300000000E+03 0.  1.
         -6    1    1    2    0  503  0.36007771208E+02  0.37549982483E+02 -0.26188954466E+02  0.18254156269E+03  0.17300000000E+03 0.  1.
</event>
<event>
 4    1  0.6092738E+000  0.1000000E+03  0.7546771E-02  0.1280296E+00
         21   -1    0    0  501  502  0.00000000000E+00  0.00000000000E+00  0.17395110877E+04  0.17395110877E+04  0.00000000000E+00 0. -1.
         21   -1    0    0  502  503 -0.00000000000E+00 -0.00000000000E+00 -0.20701091317E+02  0.20701091317E+02  0.00000000000E+00 0.  1.
          6    1    1    2  501    0 -0.60240491916E+02  0.49331630102E+02  0.87921896585E+03  0.89945401022E+03  0.17300000000E+03 0.  1.
         -6    1    1    2    0  503  0.60240491916E+02 -0.49331630102E+02  0.83959103050E+03  0.86075816877E+03  0.17300000000E+03 0.  1.
</event>
<event>
 4    1  0.6092738E+000  0.1000000E+03  0.7546771E-02  0.1280296E+00
         21   -1    0    0  501  502  0.00000000000E+00  0.00000000000E+00  0.36757997773E+03  0.36757997773E+03  0.00000000000E+00 0. -1.
         21   -1    0    0  502  503 -0.00000000000E+00 -0.00000000000E+00 -0.28472514000E+03  0.28472514000E+03  0.00000000000E+00 0.  1.
          6    1    1    2  501    0 -0.23056390507E+03 -0.83590642955E+02  0.16317424298E+03  0.34161666160E+03  0.17300000000E+03 0.  1.
         -6    1    1    2    0  503  0.23056390507E+03  0.83590642955E+02 -0.80319405251E+02  0.31068845613E+03  0.17300000000E+03 0.  1.
</event>
<event>
 4    1  0.6092738E+000  0.1000000E+03  0.7546771E-02  0.1280296E+00
         21   -1    0    0  501  502  0.00000000000E+00  0.00000000000E+00  0.23152981642E+02  0.23152981642E+02  0.00000000000E+00 0. -1.
         21   -1    0    0  502  503 -0.00000000000E+00 -0.00000000000E+00 -0.25235709840E+04  0.25235709840E+04  0.00000000000E+00 0. -1.
          6    1    1    2  501    0 -0.23789737218E+02 -0.15771153633E+03 -0.95878619711E+03  0.98723799160E+03  0.17300000000E+03 0. -1.
         -6    1    1    2    0  503  0.23789737218E+02  0.15771153633E+03 -0.15416318053E+04  0.15594859741E+04  0.17300000000E+03 0. -1.
</event>
<event>
 4    1  0.6092738E+000  0.1000000E+03  0.7546771E-02  0.1280296E+00
         21   -1    0    0  501  502  0.00000000000E+00  0.00000000000E+00  0.73783754278E+03  0.73783754278E+03  0.00000000000E+00 0. -1.
         21   -1    0    0  502  503 -0.00000000000E+00 -0.00000000000E+00 -0.50660185241E+02  0.50660185241E+02  0.00000000000E+00 0. -1.
          6    1    1    2  501    0 -0.43000364363E+02  0.42471650232E+02  0.46924476187E+03  0.50375839343E+03  0.17300000000E+03 0. -1.
         -6    1    1    2    0  503  0.43000364363E+02 -0.42471650232E+02  0.21793259568E+03  0.28473933460E+03  0.17300000000E+03 0. -1.
</event>
<event>
 4    1  0.6092738E+000  0.1000000E+03  0.7546771E-02  0.1280296E+00
         21   -1    0    0  503  502  0.00000000000E+00  0.00000000000E+00  0.51970378837E+02  0.51970378837E+02  0.00000000000E+00 0. -1.
         21   -1    0    0  501  503 -0.00000000000E+00 -0.00000000000E+00 -0.11928909119E+04  0.11928909119E+04  0.00000000000E+00 0.  1.
          6    1    1    2  501    0  0.17287048835E+03  0.42950117579E+02 -0.52456420093E+03  0.58036671100E+03  0.17300000000E+03 0.  1.
         -6    1    1    2    0  502 -0.17287048835E+03 -0.42950117579E+02 -0.61635633217E+03  0.66449457977E+03  0.17300000000E+03 0. -1.
</event>
<event>
 4    1  0.6092738E+000  0.1000000E+03  0.7546771E-02  0.1280296E+00
         21   -1    0    0  501  502  0.00000000000E+00  0.00000000000E+00  0.11910011931E+03  0.11910011931E+03  0.00000000000E+00 0.  1.
         21   -1    0    0  502  503 -0.00000000000E+00 -0.00000000000E+00 -0.31519755992E+03  0.31519755992E+03  0.00000000000E+00 0.  1.
          6    1    1    2  501    0  0.80165042545E+02 -0.56716681649E+01 -0.13609602422E+03  0.23432825198E+03  0.17300000000E+03 0.  1.
         -6    1    1    2    0  503 -0.80165042545E+02  0.56716681649E+01 -0.60001416395E+02  0.19996942725E+03  0.17300000000E+03 0.  1.
</event>
<event>
 4    1  0.6092738E+000  0.1000000E+03  0.7546771E-02  0.1280296E+00
         21   -1    0    0  503  502  0.00000000000E+00  0.00000000000E+00  0.49016026681E+02  0.49016026681E+02  0.00000000000E+00 0.  1.
         21   -1    0    0  501  503 -0.00000000000E+00 -0.00000000000E+00 -0.11003705694E+04  0.11003705694E+04  0.00000000000E+00 0. -1.
          6    1    1    2  501    0  0.42934707489E+02  0.50924829600E+02 -0.87185070884E+03  0.89134134084E+03  0.17300000000E+03 0. -1.
         -6    1    1    2    0  502 -0.42934707489E+02 -0.50924829600E+02 -0.17950383388E+03  0.25804525524E+03  0.17300000000E+03 0.  1.
</event>
<event>
 4    1  0.6092738E+000  0.1000000E+03  0.7546771E-02  0.1280296E+00
         21   -1    0    0  501  502  0.00000000000E+00  0.00000000000E+00  0.13197765414E+03  0.13197765414E+03  0.00000000000E+00 0. -1.
         21   -1    0    0  502  503 -0.00000000000E+00 -0.00000000000E+00 -0.80166804185E+03  0.80166804185E+03  0.00000000000E+00 0. -1.
          6    1    1    2  501    0  0.18404166033E+03  0.12329192086E+03 -0.99892507050E+02  0.29829472582E+03  0.17300000000E+03 0. -1.
         -6    1    1    2    0  503 -0.18404166033E+03 -0.12329192086E+03 -0.56979788066E+03  0.63535097017E+03  0.17300000000E+03 0. -1.
</event>
<event>
 4    1  0.6092738E+000  0.1000000E+03  0.7546771E-02  0.1280296E+00
         21   -1    0    0  503  502  0.00000000000E+00  0.00000000000E+00  0.25551741763E+03  0.25551741763E+03  0.00000000000E+00 0.  1.
         21   -1    0    0  501  503 -0.00000000000E+00 -0.00000000000E+00 -0.30018238200E+03  0.30018238200E+03  0.00000000000E+00 0. -1.
          6    1    1    2  501    0  0.95079321043E+02 -0.10280092840E+03 -0.18768468981E+03  0.29114025994E+03  0.17300000000E+03 0. -1.
         -6    1    1    2    0  502 -0.95079321043E+02  0.10280092840E+03  0.14301972545E+03  0.26455953968E+03  0.17300000000E+03 0.  1.
</event>
<event>
 4    1  0.6092738E+000  0.1000000E+03  0.7546771E-02  0.1280296E+00
         21   -1    0    0  503  502  0.00000000000E+00  0.00000000000E+00  0.76048750830E+03  0.76048750830E+03  0.00000000000E+00 0.  1.
         21   -1    0    0  501  503 -0.00000000000E+00 -0.00000000000E+00 -0.91226823842E+02  0.91226823842E+02  0.00000000000E+00 0. -1.
          6    1    1    2  501    0 -0.78554832038E+02  0.45147013241E+02  0.48869029337E+02  0.20131144148E+03  0.17300000000E+03 0. -1.
         -6    1    1    2    0  502  0.78554832038E+02 -0.45147013241E+02  0.62039165512E+03  0.65040289067E+03  0.17300000000E+03 0.  1.
</event>
<event>
 4    1  0.6092738E+000  0.1000000E+03  0.7546771E-02  0.1280296E+00
         21   -1    0    0  503  502  0.00000000000E+00  0.00000000000E+00  0.11293231965E+04  0.11293231965E+04  0.00000000000E+00 0.  1.
         21   -1    0    0  501  503 -0.00000000000E+00 -0.00000000000E+00 -0.89609131082E+02  0.89609131082E+02  0.00000000000E+00 0. -1.
          6    1    1    2  501    0 -0.40955048185E+02 -0.38541431569E+02  0.19872292126E+02  0.18299362260E+03  0.17300000000E+03 0. -1.
         -6    1    1    2    0  502  0.40955048185E+02  0.38541431569E+02  0.10198417733E+04  0.10359387049E+04  0.17300000000E+03 0.  1.
</event>
<event>
 4    1  0.6092738E+000  0.1000000E+03  0.7546771E-02  0.1280296E+00
         21   -1    0    0  501  502  0.00000000000E+00  0.00000000000E+00  0.78157723786E+02  0.78157723786E+02  0.00000000000E+00 0.  1.
         21   -1    0    0  502  503 -0.00000000000E+00 -0.00000000000E+00 -0.44712237141E+03  0.44712237141E+03  0.00000000000E+00 0. -1.
          6    1    1    2  501    0 -0.58039943144E+02  0.88884494333E+01 -0.24014093868E+03  0.30173549669E+03  0.17300000000E+03 0.  1.
         -6    1    1    2    0  503  0.58039943144E+02 -0.88884494333E+01 -0.12882370894E+03  0.22354459850E+03  0.17300000000E+03 0. -1.
</event>
<event>
 4    1  0.6092738E+000  0.1000000E+03  0.7546771E-02  0.1280296E+00
         21   -1    0    0  501  502  0.00000000000E+00  0.00000000000E+00  0.12330107751E+03  0.12330107751E+03  0.00000000000E+00 0.  1.
         21   -1    0    0  502  503 -0.00000000000E+00 -0.00000000000E+00 -0.64756471510E+03  0.64756471510E+03  0.00000000000E+00 0. -1.
          6    1    1    2  501    0 -0.14941266316E+03 -0.14084452435E+03 -0.38225243306E+03  0.46712658513E+03  0.17300000000E+03 0.  1.
         -6    1    1    2    0  503  0.14941266316E+03  0.14084452435E+03 -0.14201120453E+03  0.30373920749E+03  0.17300000000E+03 0. -1.
</event>
<event>
 4    1  0.6092738E+000  0.1000000E+03  0.7546771E-02  0.1280296E+00
         21   -1    0    0  501  502  0.00000000000E+00  0.00000000000E+00  0.33409186134E+03  0.33409186134E+03  0.00000000000E+00 0. -1.
         21   -1    0    0  502  503 -0.00000000000E+00 -0.00000000000E+00 -0.11114601079E+03  0.11114601079E+03  0.00000000000E+00 0. -1.
          6    1    1    2  501    0 -0.70224733173E+02 -0.85574784456E+01  0.16565029782E+03  0.24974740190E+03  0.17300000000E+03 0. -1.
         -6    1    1    2    0  503  0.70224733173E+02  0.85574784456E+01  0.57295552723E+02  0.19549047022E+03  0.17300000000E+03 0. -1.
</event>
<event>
 4    1  0.6092738E+000  0.1000000E+03  0.7546771E-02  0.1280296E+00
         21   -1    0    0  501  502  0.00000000000E+00  0.00000000000E+00  0.51854863010E+02  0.51854863010E+02  0.00000000000E+00 0. -1.
         21   -1    0    0  502  503 -0.00000000000E+00 -0.00000000000E+00 -0.15749227973E+04  0.15749227973E+04  0.00000000000E+00 0. -1.
          6    1    1    2  501    0 -0.83678903425E+02  0.12687318132E+03 -0.27985674840E+03  0.36241931880E+03  0.17300000000E+03 0. -1.
         -6    1    1    2    0  503  0.83678903425E+02 -0.12687318132E+03 -0.12432111859E+04  0.12643583415E+04  0.17300000000E+03 0. -1.
</event>
<event>
 4    1  0.6092738E+000  0.1000000E+03  0.7546771E-02  0.1280296E+00
         21   -1    0    0  501  502  0.00000000000E+00  0.00000000000E+00  0.17183364298E+03  0.17183364298E+03  0.00000000000E+00 0.  1.
         21   -1    0    0  502  503 -0.00000000000E+00 -0.00000000000E+00 -0.20451178506E+03  0.20451178506E+03  0.00000000000E+00 0. -1.
          6    1    1    2  501    0 -0.31533367233E+01  0.18656379623E+01  0.56042424317E+02  0.18188781559E+03  0.17300000000E+03 0.  1.
         -6    1    1    2    0  503  0.31533367233E+01 -0.18656379623E+01 -0.88720566390E+02  0.19445761245E+03  0.17300000000E+03 0.  1.
</event>
<event>
 4    1  0.6092738E+000  0.1000000E+03  0.7546771E-02  0.1280296E+00
         21   -1    0    0  501  502  0.00000000000E+00  0.00000000000E+00  0.73789577630E+03  0.73789577630E+03  0.00000000000E+00 0.  1.
         21   -1    0    0  502  503 -0.00000000000E+00 -0.00000000000E+00 -0.31682971979E+03  0.31682971979E+03  0.00000000000E+00 0. -1.
          6    1    1    2  501    0 -0.13138929897E+03  0.29246167329E+03 -0.13619703019E+03  0.38894165277E+03  0.17300000000E+03 0.  1.
         -6    1    1    2    0  503  0.13138929897E+03 -0.29246167329E+03  0.55726308670E+03  0.66578384332E+03  0.17300000000E+03 0.  1.
</event>
<event>
 4    1  0.6092738E+000  0.1000000E+03  0.7546771E-02  0.1280296E+00
         21   -1    0    0  503  502  0.00000000000E+00  0.00000000000E+00  0.10144315371E+03  0.10144315371E+03  0.00000000000E+00 0.  1.
         21   -1    0    0  501  503 -0.00000000000E+00 -0.00000000000E+00 -0.93092906798E+03  0.93092906798E+03  0.00000000000E+00 0. -1.
          6    1    1    2  501    0 -0.13471364464E+03  0.64353318871E+01 -0.77624644299E+03  0.80664534946E+03  0.17300000000E+03 0. -1.
         -6    1    1    2    0  502  0.13471364464E+03 -0.64353318871E+01 -0.53239471276E+02  0.22572687224E+03  0.17300000000E+03 0.  1.
</event>
<event>
 4    1  0.6092738E+000  0.1000000E+03  0.7546771E-02  0.1280296E+00
         21   -1    0    0  503  502  0.00000000000E+00  0.00000000000E+00  0.46560141390E+02  0.46560141390E+02  0.00000000000E+00 0.  1.
         21   -1    0    0  501  503 -0.00000000000E+00 -0.00000000000E+00 -0.12785376054E+04  0.12785376054E+04  0.00000000000E+00 0. -1.
          6    1    1    2  501    0  0.11656830234E+03 -0.11397204178E+03 -0.76527098069E+03  0.80134042036E+03  0.17300000000E+03 0. -1.
         -6    1    1    2    0  502 -0.11656830234E+03  0.11397204178E+03 -0.46670648335E+03  0.52375732645E+03  0.17300000000E+03 0.  1.
</event>
<event>
 4    1  0.6092738E+000  0.1000000E+03  0.7546771E-02  0.1280296E+00
         21   -1    0    0  501  502  0.00000000000E+00  0.00000000000E+00  0.19488811409E+03  0.19488811409E+03  0.00000000000E+00 0. -1.
         21   -1    0    0  502  503 -0.00000000000E+00 -0.00000000000E+00 -0.19674304623E+03  0.19674304623E+03  0.00000000000E+00 0. -1.
          6    1    1    2  501    0 -0.64181103310E+02 -0.62287662172E+02 -0.21297141267E+02  0.19591205963E+03  0.17300000000E+03 0. -1.
         -6    1    1    2    0  503  0.64181103310E+02  0.62287662172E+02  0.19442209132E+02  0.19571910069E+03  0.17300000000E+03 0. -1.
</event>
<event>
 4    1  0.6092738E+000  0.1000000E+03  0.7546771E-02  0.1280296E+00
         21   -1    0    0  501  502  0.00000000000E+00  0.00000000000E+00  0.28011818952E+03  0.28011818952E+03  0.00000000000E+00 0. -1.
         21   -1    0    0  502  503 -0.00000000000E+00 -0.00000000000E+00 -0.28264331881E+03  0.28264331881E+03  0.00000000000E+00 0. -1.
          6    1    1    2  501    0  0.13346968041E+03 -0.17524678239E+03  0.25550844175E+02  0.28126044152E+03  0.17300000000E+03 0. -1.
         -6    1    1    2    0  503 -0.13346968041E+03  0.17524678239E+03 -0.28075973458E+02  0.28150106681E+03  0.17300000000E+03 0. -1.
</event>
<event>
 4    1  0.6092738E+000  0.1000000E+03  0.7546771E-02  0.1280296E+00
         21   -1    0    0  501  502  0.00000000000E+00  0.00000000000E+00  0.30040371806E+03  0.30040371806E+03  0.00000000000E+00 0. -1.
         21   -1    0    0  502  503 -0.00000000000E+00 -0.00000000000E+00 -0.79960101434E+03  0.79960101434E+03  0.00000000000E+00 0. -1.
          6    1    1    2  501    0 -0.58610333249E+02  0.31800494983E+03  0.11527035363E+03  0.38441978840E+03  0.17300000000E+03 0. -1.
         -6    1    1    2    0  503  0.58610333249E+02 -0.31800494983E+03 -0.61446764992E+03  0.71558494400E+03  0.17300000000E+03 0. -1.
</event>
<event>
 4    1  0.6092738E+000  0.1000000E+03  0.7546771E-02  0.1280296E+00
         21   -1    0    0  503  502  0.00000000000E+00  0.00000000000E+00  0.13233156187E+03  0.13233156187E+03  0.00000000000E+00 0.  1.
         21   -1    0    0  501  503 -0.00000000000E+00 -0.00000000000E+00 -0.27067702356E+03  0.27067702356E+03  0.00000000000E+00 0.  1.
          6    1    1    2  501    0  0.23024866106E+02  0.28894335547E+01 -0.14706054598E+03  0.22824175225E+03  0.17300000000E+03 0.  1.
         -6    1    1    2    0  502 -0.23024866106E+02 -0.28894335547E+01  0.87150842986E+01  0.17476683318E+03  0.17300000000E+03 0.  1.
</event>
<event>
 4    1  0.6092738E+000  0.1000000E+03  0.7546771E-02  0.1280296E+00
         21   -1    0    0  501  502  0.00000000000E+00  0.00000000000E+00  0.24004298070E+03  0.24004298070E+03  0.00000000000E+00 0.  1.
         21   -1    0    0  502  503 -0.00000000000E+00 -0.00000000000E+00 -0.20262130885E+03  0.20262130885E+03  0.00000000000E+00 0. -1.
          6    1    1    2  501    0  0.73835425692E+02  0.38593592064E-01  0.13426418472E+03  0.23110072020E+03  0.17300000000E+03 0.  1.
         -6    1    1    2    0  503 -0.73835425692E+02 -0.38593592064E-01 -0.96842512869E+02  0.21156356935E+03  0.17300000000E+03 0. -1.
</event>
<event>
 4    1  0.6092738E+000  0.1000000E+03  0.7546771E-02  0.1280296E+00
         21   -1    0    0  501  502  0.00000000000E+00  0.00000000000E+00  0.44355021368E+03  0.44355021368E+03  0.00000000000E+00 0.  1.
         21   -1    0    0  502  503 -0.00000000000E+00 -0.00000000000E+00 -0.14494220766E+03  0.14494220766E+03  0.00000000000E+00 0.  1.
          6    1    1    2  501    0 -0.64186829655E+02  0.46270329774E+02  0.34383528392E+03  0.39295368046E+03  0.17300000000E+03 0.  1.
         -6    1    1    2    0  503  0.64186829655E+02 -0.46270329774E+02 -0.45227277898E+02  0.19553874088E+03  0.17300000000E+03 0.  1.
</event>
<event>
 4    1  0.6092738E+000  0.1000000E+03  0.7546771E-02  0.1280296E+00
         21   -1    0    0  501  502  0.00000000000E+00  0.00000000000E+00  0.10841453948E+04  0.10841453948E+04  0.00000000000E+00 0.  1.
         21   -1    0    0  502  503 -0.00000000000E+00 -0.00000000000E+00 -0.37765325993E+02  0.37765325993E+02  0.00000000000E+00 0.  1.
          6    1    1    2  501    0 -0.80865919989E+02 -0.34461358687E+02  0.68213707130E+03  0.70920156958E+03  0.17300000000E+03 0.  1.
         -6    1    1    2    0  503  0.80865919989E+02  0.34461358687E+02  0.36424299749E+03  0.41270915120E+03  0.17300000000E+03 0.  1.
</event>
<event>
 4    1  0.6092738E+000  0.1000000E+03  0.7546771E-02  0.1280296E+00
         21   -1    0    0  501  502  0.00000000000E+00  0.00000000000E+00  0.61685454552E+03  0.61685454552E+03  0.00000000000E+00 0.  1.
         21   -1    0    0  502  503 -0.00000000000E+00 -0.00000000000E+00 -0.10327728825E+03  0.10327728825E+03  0.00000000000E+00 0.  1.
          6    1    1    2  501    0  0.38821228510E+02 -0.16056043193E+02  0.51203091552E+03  0.54209735542E+03  0.17300000000E+03 0.  1.
         -6    1    1    2    0  503 -0.38821228510E+02  0.16056043193E+02  0.15463417507E+01  0.17803447834E+03  0.17300000000E+03 0.  1.
</event>
<event>
 4    1  0.6092738E+000  0.1000000E+03  0.7546771E-02  0.1280296E+00
         21   -1    0    0  501  502  0.00000000000E+00  0.00000000000E+00  0.19374888108E+04  0.19374888108E+04  0.00000000000E+00 0.  1.
         21   -1    0    0  502  503 -0.00000000000E+00 -0.00000000000E+00 -0.25504310325E+02  0.25504310325E+02  0.00000000000E+00 0.  1.
          6    1    1    2  501    0  0.95659205520E+02  0.25894562430E+02  0.13900456719E+04  0.14042710500E+04  0.17300000000E+03 0.  1.
         -6    1    1    2    0  503 -0.95659205520E+02 -0.25894562430E+02  0.52193882859E+03  0.55872207112E+03  0.17300000000E+03 0.  1.
</event>
<event>
 4    1  0.6092738E+000  0.1000000E+03  0.7546771E-02  0.1280296E+00
         21   -1    0    0  503  502  0.00000000000E+00  0.00000000000E+00  0.78933640253E+03  0.78933640253E+03  0.00000000000E+00 0. -1.
         21   -1    0    0  501  503 -0.00000000000E+00 -0.00000000000E+00 -0.62388758975E+02  0.62388758975E+02  0.00000000000E+00 0.  1.
          6    1    1    2  501    0  0.73672937699E+02 -0.11339070906E+03  0.42510966102E+03  0.47846878534E+03  0.17300000000E+03 0.  1.
         -6    1    1    2    0  502 -0.73672937699E+02  0.11339070906E+03  0.30183798254E+03  0.37325637617E+03  0.17300000000E+03 0. -1.
</event>
<event>
 4    1  0.6092738E+000  0.1000000E+03  0.7546771E-02  0.1280296E+00
         21   -1    0    0  503  502  0.00000000000E+00  0.00000000000E+00  0.48128126291E+03  0.48128126291E+03  0.00000000000E+00 0. -1.
         21   -1    0    0  501  503 -0.00000000000E+00 -0.00000000000E+00 -0.15236203920E+03  0.15236203920E+03  0.00000000000E+00 0.  1.
          6    1    1    2  501    0  0.12640321266E+03  0.42100336047E+02 -0.22918494278E+02  0.21955515900E+03  0.17300000000E+03 0.  1.
         -6    1    1    2    0  502 -0.12640321266E+03 -0.42100336047E+02  0.35183771799E+03  0.41408814311E+03  0.17300000000E+03 0. -1.
</event>
<event>
 4    1  0.6092738E+000  0.1000000E+03  0.7546771E-02  0.1280296E+00
         21   -1    0    0  501  502  0.00000000000E+00  0.00000000000E+00  0.40814171541E+03  0.40814171541E+03  0.00000000000E+00 0.  1.
         21   -1    0    0  502  503 -0.00000000000E+00 -0.00000000000E+00 -0.19220554429E+03  0.19220554429E+03  0.00000000000E+00 0.  1.
          6    1    1    2  501    0 -0.44172120118E+02 -0.12659416928E+03  0.29526239498E+03  0.36754066684E+03  0.17300000000E+03 0.  1.
         -6    1    1    2    0  503  0.44172120118E+02  0.12659416928E+03 -0.79326223848E+02  0.23280659286E+03  0.17300000000E+03 0.  1.
</event>
<event>
 4    1  0.6092738E+000  0.1000000E+03  0.7546771E-02  0.1280296E+00
         21   -1    0    0  501  502  0.00000000000E+00  0.00000000000E+00  0.19624163708E+03  0.19624163708E+03  0.00000000000E+00 0. -1.
         21   -1    0    0  502  503 -0.00000000000E+00 -0.00000000000E+00 -0.17161612968E+03  0.17161612968E+03  0.00000000000E+00 0.  1.
          6    1    1    2  501    0 -0.74288558749E+01  0.37930079630E+02  0.59910064035E+02  0.18711519076E+03  0.17300000000E+03 0. -1.
         -6    1    1    2    0  503  0.74288558749E+01 -0.37930079630E+02 -0.35284556641E+02  0.18074257600E+03  0.17300000000E+03 0. -1.
</event>
<event>
 4    1  0.6092738E+000  0.1000000E+03  0.7546771E-02  0.1280296E+00
         21   -1    0    0  501  502  0.00000000000E+00  0.00000000000E+00  0.34329232340E+03  0.34329232340E+03  0.00000000000E+00 0. -1.
         21   -1    0    0  502  503 -0.00000000000E+00 -0.00000000000E+00 -0.12835889592E+03  0.12835889592E+03  0.00000000000E+00 0.  1.
          6    1    1    2  501    0 -0.13992931898E+01 -0.11721043298E+03  0.12980517606E+03  0.24600534009E+03  0.17300000000E+03 0. -1.
         -6    1    1    2    0  503  0.13992931898E+01  0.11721043298E+03  0.85128251420E+02  0.22564587923E+03  0.17300000000E+03 0. -1.
</event>
<event>
 4    1  0.6092738E+000  0.1000000E+03  0.7546771E-02  0.1280296E+00
         21   -1    0    0  503  502  0.00000000000E+00  0.00000000000E+00  0.68724989591E+03  0.68724989591E+03  0.00000000000E+00 0.  1.
         21   -1    0    0  501  503 -0.00000000000E+00 -0.00000000000E+00 -0.92968296680E+02  0.92968296680E+02  0.00000000000E+00 0.  1.
          6    1    1    2  501    0 -0.98751347720E+01  0.49393453935E+02  0.23546291042E+02  0.18171587548E+03  0.17300000000E+03 0.  1.
         -6    1    1    2    0  502  0.98751347720E+01 -0.49393453935E+02  0.57073530819E+03  0.59850231711E+03  0.17300000000E+03 0.  1.
</event>
<event>
 4    1  0.6092738E+000  0.1000000E+03  0.7546771E-02  0.1280296E+00
         21   -1    0    0  503  502  0.00000000000E+00  0.00000000000E+00  0.11542738681E+04  0.11542738681E+04  0.00000000000E+00 0.  1.
         21   -1    0    0  501  503 -0.00000000000E+00 -0.00000000000E+00 -0.71494185588E+02  0.71494185588E+02  0.00000000000E+00 0.  1.
          6    1    1    2  501    0  0.92577132113E+02 -0.48481298761E+02  0.10585728344E+03  0.22815724003E+03  0.17300000000E+03 0.  1.
         -6    1    1    2    0  502 -0.92577132113E+02  0.48481298761E+02  0.97692239904E+03  0.99761081363E+03  0.17300000000E+03 0.  1.
</event>
<event>
 4    1  0.6092738E+000  0.1000000E+03  0.7546771E-02  0.1280296E+00
         21   -1    0    0  503  502  0.00000000000E+00  0.00000000000E+00  0.16886545421E+03  0.16886545421E+03  0.00000000000E+00 0.  1.
         21   -1    0    0  501  503 -0.00000000000E+00 -0.00000000000E+00 -0.47645504722E+03  0.47645504722E+03  0.00000000000E+00 0.  1.
          6    1    1    2  501    0 -0.16175177075E+03  0.56490265583E+02 -0.31931668086E+03  0.40155563515E+03  0.17300000000E+03 0.  1.
         -6    1    1    2    0  502  0.16175177075E+03 -0.56490265583E+02  0.11727087839E+02  0.24376486628E+03  0.17300000000E+03 0.  1.
</event>
<event>
 4    1  0.6092738E+000  0.1000000E+03  0.7546771E-02  0.1280296E+00
         21   -1    0    0  503  502  0.00000000000E+00  0.00000000000E+00  0.88051808445E+02  0.88051808445E+02  0.00000000000E+00 0.  1.
         21   -1    0    0  501  503 -0.00000000000E+00 -0.00000000000E+00 -0.50074358690E+03  0.50074358690E+03  0.00000000000E+00 0.  1.
          6    1    1    2  501    0 -0.60564626872E+02 -0.65259180129E+02 -0.31705789971E+03  0.37199670212E+03  0.17300000000E+03 0.  1.
         -6    1    1    2    0  502  0.60564626872E+02  0.65259180129E+02 -0.95633878740E+02  0.21679869322E+03  0.17300000000E+03 0.  1.
</event>
<event>
 4    1  0.6092738E+000  0.1000000E+03  0.7546771E-02  0.1280296E+00
         21   -1    0    0  503  502  0.00000000000E+00  0.00000000000E+00  0.12175860160E+03  0.12175860160E+03  0.00000000000E+00 0.  1.
         21   -1    0    0  501  503 -0.00000000000E+00 -0.00000000000E+00 -0.10247018632E+04  0.10247018632E+04  0.00000000000E+00 0.  1.
          6    1    1    2  501    0 -0.27189434496E+03  0.12594296257E+03 -0.33615616981E+03  0.48240868063E+03  0.17300000000E+03 0.  1.
         -6    1    1    2    0  502  0.27189434496E+03 -0.12594296257E+03 -0.56678709174E+03  0.66405178413E+03  0.17300000000E+03 0.  1.
</event>
<event>
 4    1  0.6092738E+000  0.1000000E+03  0.7546771E-02  0.1280296E+00
         21   -1    0    0  501  502  0.00000000000E+00  0.00000000000E+00  0.93888568363E+02  0.93888568363E+02  0.00000000000E+00 0. -1.
         21   -1    0    0  502  503 -0.00000000000E+00 -0.00000000000E+00 -0.62722960592E+03  0.62722960592E+03  0.00000000000E+00 0. -1.
          6    1    1    2  501    0  0.65162655077E+02 -0.14179082042E+02 -0.34043998721E+02  0.18850785616E+03  0.17300000000E+03 0. -1.
         -6    1    1    2    0  503 -0.65162655077E+02  0.14179082042E+02 -0.49929703884E+03  0.53261031813E+03  0.17300000000E+03 0. -1.
</event>
<event>
 4    1  0.6092738E+000  0.1000000E+03  0.7546771E-02  0.1280296E+00
         21   -1    0    0  501  502  0.00000000000E+00  0.00000000000E+00  0.36489059151E+03  0.36489059151E+03  0.00000000000E+00 0. -1.
         21   -1    0    0  502  503 -0.00000000000E+00 -0.00000000000E+00 -0.55217696500E+03  0.55217696500E+03  0.00000000000E+00 0. -1.
          6    1    1    2  501    0  0.17462085677E+03  0.97595306160E+02  0.27684664852E+03  0.38287119793E+03  0.17300000000E+03 0. -1.
         -6    1    1    2    0  503 -0.17462085677E+03 -0.97595306160E+02 -0.46413302201E+03  0.53419635859E+03  0.17300000000E+03 0. -1.
</event>
<event>
 4    1  0.6092738E+000  0.1000000E+03  0.7546771E-02  0.1280296E+00
         21   -1    0    0  503  502  0.00000000000E+00  0.00000000000E+00  0.30846495087E+03  0.30846495087E+03  0.00000000000E+00 0.  1.
         21   -1    0    0  501  503 -0.00000000000E+00 -0.00000000000E+00 -0.19806710893E+03  0.19806710893E+03  0.00000000000E+00 0.  1.
          6    1    1    2  501    0 -0.69378408304E+02  0.14434557342E+03 -0.20919246530E+02  0.23667619859E+03  0.17300000000E+03 0. -1.
         -6    1    1    2    0  502  0.69378408304E+02 -0.14434557342E+03  0.13131708846E+03  0.26985586121E+03  0.17300000000E+03 0. -1.
</event>
<event>
 4    1  0.6092738E+000  0.1000000E+03  0.7546771E-02  0.1280296E+00
         21   -1    0    0  503  502  0.00000000000E+00  0.00000000000E+00  0.88991559650E+03  0.88991559650E+03  0.00000000000E+00 0.  1.
         21   -1    0    0  501  503 -0.00000000000E+00 -0.00000000000E+00 -0.19803946869E+03  0.19803946869E+03  0.00000000000E+00 0.  1.
          6    1    1    2  501    0 -0.30976770677E+02 -0.31161358584E+03  0.63055782223E+03  0.72497914065E+03  0.17300000000E+03 0. -1.
         -6    1    1    2    0  502  0.30976770677E+02  0.31161358584E+03  0.61318305587E+02  0.36297592455E+03  0.17300000000E+03 0. -1.
</event>
<event>
 4    1  0.6092738E+000  0.1000000E+03  0.7546771E-02  0.1280296E+00
         21   -1    0    0  503  502  0.00000000000E+00  0.00000000000E+00  0.11144969404E+03  0.11144969404E+03  0.00000000000E+00 0.  1.
         21   -1    0    0  501  503 -0.00000000000E+00 -0.00000000000E+00 -0.60824625614E+03  0.60824625614E+03  0.00000000000E+00 0.  1.
          6    1    1    2  501    0 -0.10462099129E+03 -0.15722996622E+03 -0.18367453018E+03  0.31517002893E+03  0.17300000000E+03 0. -1.
         -6    1    1    2    0  502  0.10462099129E+03  0.15722996622E+03 -0.31312203192E+03  0.40452592125E+03  0.17300000000E+03 0. -1.
</event>
<event>
 4    1  0.6092738E+000  0.1000000E+03  0.7546771E-02  0.1280296E+00
         21   -1    0    0  501  502  0.00000000000E+00  0.00000000000E+00  0.35706360908E+03  0.35706360908E+03  0.00000000000E+00 0. -1.
         21   -1    0    0  502  503 -0.00000000000E+00 -0.00000000000E+00 -0.11932016042E+03  0.11932016042E+03  0.00000000000E+00 0. -1.
          6    1    1    2  501    0 -0.82284702825E+02 -0.29917155641E+02  0.37191011194E+02  0.19742841699E+03  0.17300000000E+03 0. -1.
         -6    1    1    2    0  503  0.82284702825E+02  0.29917155641E+02  0.20055243746E+03  0.27895535251E+03  0.17300000000E+03 0. -1.
</event>
<event>
 4    1  0.6092738E+000  0.1000000E+03  0.7546771E-02  0.1280296E+00
         21   -1    0    0  501  502  0.00000000000E+00  0.00000000000E+00  0.13645323895E+04  0.13645323895E+04  0.00000000000E+00 0. -1.
         21   -1    0    0  502  503 -0.00000000000E+00 -0.00000000000E+00 -0.30671192057E+02  0.30671192057E+02  0.00000000000E+00 0. -1.
          6    1    1    2  501    0 -0.86468942589E+02  0.24627334412E+02  0.87822350623E+03  0.89960486356E+03  0.17300000000E+03 0. -1.
         -6    1    1    2    0  503  0.86468942589E+02 -0.24627334412E+02  0.45563769121E+03  0.49559871800E+03  0.17300000000E+03 0. -1.
</event>
<event>
 4    1  0.6092738E+000  0.1000000E+03  0.7546771E-02  0.1280296E+00
         21   -1    0    0  501  502  0.00000000000E+00  0.00000000000E+00  0.95907541932E+03  0.95907541932E+03  0.00000000000E+00 0. -1.
         21   -1    0    0  502  503 -0.00000000000E+00 -0.00000000000E+00 -0.60662640479E+02  0.60662640479E+02  0.00000000000E+00 0. -1.
          6    1    1    2  501    0 -0.70311097589E+02  0.27166066230E+02  0.76677065124E+03  0.78965047787E+03  0.17300000000E+03 0. -1.
         -6    1    1    2    0  503  0.70311097589E+02 -0.27166066230E+02  0.13164212760E+03  0.23008758193E+03  0.17300000000E+03 0. -1.
</event>
<event>
 4    1  0.6092738E+000  0.1000000E+03  0.7546771E-02  0.1280296E+00
         21   -1    0    0  501  502  0.00000000000E+00  0.00000000000E+00  0.22074021098E+03  0.22074021098E+03  0.00000000000E+00 0.  1.
         21   -1    0    0  502  503 -0.00000000000E+00 -0.00000000000E+00 -0.48941190278E+03  0.48941190278E+03  0.00000000000E+00 0.  1.
          6    1    1    2  501    0 -0.25794072673E+03  0.97463527110E+02 -0.85169498355E+02  0.33647496351E+03  0.17300000000E+03 0.  1.
         -6    1    1    2    0  503  0.25794072673E+03 -0.97463527110E+02 -0.18350219344E+03  0.37367715025E+03  0.17300000000E+03 0.  1.
</event>
<event>
 4    1  0.6092738E+000  0.1000000E+03  0.7546771E-02  0.1280296E+00
         21   -1    0    0  501  502  0.00000000000E+00  0.00000000000E+00  0.22509157345E+04  0.22509157345E+04  0.00000000000E+00 0.  1.
         21   -1    0    0  502  503 -0.00000000000E+00 -0.00000000000E+00 -0.38070360245E+02  0.38070360245E+02  0.00000000000E+00 0.  1.
          6    1    1    2  501    0 -0.10253771508E+03  0.11653415006E+03  0.18021898908E+04  0.18171162851E+04  0.17300000000E+03 0.  1.
         -6    1    1    2    0  503  0.10253771508E+03 -0.11653415006E+03  0.41065548345E+03  0.47186980962E+03  0.17300000000E+03 0.  1.
</event>
<event>
 4    1  0.6092738E+000  0.1000000E+03  0.7546771E-02  0.1280296E+00
         21   -1    0    0  501  502  0.00000000000E+00  0.00000000000E+00  0.13552676765E+03  0.13552676765E+03  0.00000000000E+00 0.  1.
         21   -1    0    0  502  503 -0.00000000000E+00 -0.00000000000E+00 -0.36714490340E+03  0.36714490340E+03  0.00000000000E+00 0.  1.
          6    1    1    2  501    0 -0.11900283762E+03  0.64329684464E+02 -0.71751168088E+02  0.23103509211E+03  0.17300000000E+03 0.  1.
         -6    1    1    2    0  503  0.11900283762E+03 -0.64329684464E+02 -0.15986696766E+03  0.27163657893E+03  0.17300000000E+03 0.  1.
</event>
<event>
 4    1  0.6092738E+000  0.1000000E+03  0.7546771E-02  0.1280296E+00
         21   -1    0    0  501  502  0.00000000000E+00  0.00000000000E+00  0.12111983114E+03  0.12111983114E+03  0.00000000000E+00 0. -1.
         21   -1    0    0  502  503 -0.00000000000E+00 -0.00000000000E+00 -0.10428763192E+04  0.10428763192E+04  0.00000000000E+00 0.  1.
          6    1    1    2  501    0 -0.58765882540E+02  0.11466798178E+03  0.16619841476E+01  0.21571726215E+03  0.17300000000E+03 0.  1.
         -6    1    1    2    0  503  0.58765882540E+02 -0.11466798178E+03 -0.92341847216E+03  0.94827888815E+03  0.17300000000E+03 0. -1.
</event>
<event>
 4    1  0.6092738E+000  0.1000000E+03  0.7546771E-02  0.1280296E+00
         21   -1    0    0  501  502  0.00000000000E+00  0.00000000000E+00  0.15745727334E+04  0.15745727334E+04  0.00000000000E+00 0. -1.
         21   -1    0    0  502  503 -0.00000000000E+00 -0.00000000000E+00 -0.32489857268E+02  0.32489857268E+02  0.00000000000E+00 0.  1.
          6    1    1    2  501    0 -0.14365081179E+01 -0.11719145028E+03  0.10785576188E+04  0.10986134155E+04  0.17300000000E+03 0.  1.
         -6    1    1    2    0  503  0.14365081179E+01  0.11719145028E+03  0.46352525732E+03  0.50844917518E+03  0.17300000000E+03 0. -1.
</event>
<event>
 4    1  0.6092738E+000  0.1000000E+03  0.7546771E-02  0.1280296E+00
         21   -1    0    0  501  502  0.00000000000E+00  0.00000000000E+00  0.27451446718E+02  0.27451446718E+02  0.00000000000E+00 0. -1.
         21   -1    0    0  502  503 -0.00000000000E+00 -0.00000000000E+00 -0.15148426668E+04  0.15148426668E+04  0.00000000000E+00 0.  1.
          6    1    1    2  501    0  0.66578637039E+02  0.42255475598E+02 -0.46484874265E+03  0.50222663577E+03  0.17300000000E+03 0.  1.
         -6    1    1    2    0  503 -0.66578637039E+02 -0.42255475598E+02 -0.10225424774E+04  0.10400674777E+04  0.17300000000E+03 0. -1.
</event>
<event>
 4    1  0.6092738E+000  0.1000000E+03  0.7546771E-02  0.1280296E+00
         21   -1    0    0  501  502  0.00000000000E+00  0.00000000000E+00  0.20029703686E+03  0.20029703686E+03  0.00000000000E+00 0. -1.
         21   -1    0    0  502  503 -0.00000000000E+00 -0.00000000000E+00 -0.36266933864E+03  0.36266933864E+03  0.00000000000E+00 0.  1.
          6    1    1    2  501    0  0.38266213233E+02  0.16979181182E+03  0.35200626096E+02  0.24791459520E+03  0.17300000000E+03 0.  1.
         -6    1    1    2    0  503 -0.38266213233E+02 -0.16979181182E+03 -0.19757292788E+03  0.31505178030E+03  0.17300000000E+03 0. -1.
</event>
<event>
 4    1  0.6092738E+000  0.1000000E+03  0.7546771E-02  0.1280296E+00
         21   -1    0    0  501  502  0.00000000000E+00  0.00000000000E+00  0.94408743770E+03  0.94408743770E+03  0.00000000000E+00 0. -1.
         21   -1    0    0  502  503 -0.00000000000E+00 -0.00000000000E+00 -0.91275871274E+02  0.91275871274E+02  0.00000000000E+00 0.  1.
          6    1    1    2  501    0 -0.88568633654E+02 -0.60726397893E+02  0.79930145761E+03  0.82482962992E+03  0.17300000000E+03 0.  1.
         -6    1    1    2    0  503  0.88568633654E+02  0.60726397893E+02  0.53510108818E+02  0.21053367905E+03  0.17300000000E+03 0. -1.
</event>
<event>
 4    1  0.6092738E+000  0.1000000E+03  0.7546771E-02  0.1280296E+00
         21   -1    0    0  501  502  0.00000000000E+00  0.00000000000E+00  0.21215329694E+04  0.21215329694E+04  0.00000000000E+00 0.  1.
         21   -1    0    0  502  503 -0.00000000000E+00 -0.00000000000E+00 -0.36247093763E+02  0.36247093763E+02  0.00000000000E+00 0.  1.
          6    1    1    2  501    0  0.12708093361E+03  0.55139172304E+02  0.16911068597E+04  0.17055677362E+04  0.17300000000E+03 0.  1.
         -6    1    1    2    0  503 -0.12708093361E+03 -0.55139172304E+02  0.39417901595E+03  0.45221232692E+03  0.17300000000E+03 0.  1.
</event>
<event>
 4    1  0.6092738E+000  0.1000000E+03  0.7546771E-02  0.1280296E+00
         21   -1    0    0  501  502  0.00000000000E+00  0.00000000000E+00  0.31673410000E+02  0.31673410000E+02  0.00000000000E+00 0.  1.
         21   -1    0    0  502  503 -0.00000000000E+00 -0.00000000000E+00 -0.14694906275E+04  0.14694906275E+04  0.00000000000E+00 0.  1.
          6    1    1    2  501    0 -0.11868633058E+03  0.23129361703E+02 -0.56357660895E+03  0.60180479110E+03  0.17300000000E+03 0.  1.
         -6    1    1    2    0  503  0.11868633058E+03 -0.23129361703E+02 -0.87424060852E+03  0.89935924637E+03  0.17300000000E+03 0.  1.
</event>
<event>
 4    1  0.6092738E+000  0.1000000E+03  0.7546771E-02  0.1280296E+00
         21   -1    0    0  501  502  0.00000000000E+00  0.00000000000E+00  0.32446915647E+03  0.32446915647E+03  0.00000000000E+00 0. -1.
         21   -1    0    0  502  503 -0.00000000000E+00 -0.00000000000E+00 -0.28923219290E+03  0.28923219290E+03  0.00000000000E+00 0. -1.
          6    1    1    2  501    0 -0.36936695996E+02 -0.19685208746E+02  0.26736179230E+03  0.32119021613E+03  0.17300000000E+03 0. -1.
         -6    1    1    2    0  503  0.36936695996E+02  0.19685208746E+02 -0.23212482873E+03  0.29251113324E+03  0.17300000000E+03 0. -1.
</event>
<event>
 4    1  0.6092738E+000  0.1000000E+03  0.7546771E-02  0.1280296E+00
         21   -1    0    0  501  502  0.00000000000E+00  0.00000000000E+00  0.14516533930E+03  0.14516533930E+03  0.00000000000E+00 0. -1.
         21   -1    0    0  502  503 -0.00000000000E+00 -0.00000000000E+00 -0.32683298236E+03  0.32683298236E+03  0.00000000000E+00 0. -1.
          6    1    1    2  501    0  0.65773360880E+02 -0.71972138932E+02  0.61332091892E+01  0.19867747743E+03  0.17300000000E+03 0. -1.
         -6    1    1    2    0  503 -0.65773360880E+02  0.71972138932E+02 -0.18780085224E+03  0.27332084422E+03  0.17300000000E+03 0. -1.
</event>
<event>
 4    1  0.6092738E+000  0.1000000E+03  0.7546771E-02  0.1280296E+00
         21   -1    0    0  503  502  0.00000000000E+00  0.00000000000E+00  0.13831433975E+03  0.13831433975E+03  0.00000000000E+00 0.  1.
         21   -1    0    0  501  503 -0.00000000000E+00 -0.00000000000E+00 -0.87020353953E+03  0.87020353953E+03  0.00000000000E+00 0. -1.
          6    1    1    2  501    0  0.27133201897E+02  0.29935305552E+03 -0.37927909837E+03  0.51393588798E+03  0.17300000000E+03 0. -1.
         -6    1    1    2    0  502 -0.27133201897E+02 -0.29935305552E+03 -0.35261010141E+03  0.49458199129E+03  0.17300000000E+03 0.  1.
</event>
<event>
 4    1  0.6092738E+000  0.1000000E+03  0.7546771E-02  0.1280296E+00
         21   -1    0    0  503  502  0.00000000000E+00  0.00000000000E+00  0.16272202575E+04  0.16272202575E+04  0.00000000000E+00 0.  1.
         21   -1    0    0  501  503 -0.00000000000E+00 -0.00000000000E+00 -0.20589548807E+02  0.20589548807E+02  0.00000000000E+00 0. -1.
          6    1    1    2  501    0 -0.18596480195E+02  0.38618576183E+02  0.61568900262E+03  0.64096737159E+03  0.17300000000E+03 0. -1.
         -6    1    1    2    0  502  0.18596480195E+02 -0.38618576183E+02  0.99094170612E+03  0.10068424348E+04  0.17300000000E+03 0.  1.
</event>
<event>
 4    1  0.6092738E+000  0.1000000E+03  0.7546771E-02  0.1280296E+00
         21   -1    0    0  503  502  0.00000000000E+00  0.00000000000E+00  0.11849188476E+03  0.11849188476E+03  0.00000000000E+00 0.  1.
         21   -1    0    0  501  503 -0.00000000000E+00 -0.00000000000E+00 -0.53203082293E+03  0.53203082293E+03  0.00000000000E+00 0. -1.
          6    1    1    2  501    0 -0.15245161064E+03  0.29430533206E+02 -0.32969837868E+03  0.40340757402E+03  0.17300000000E+03 0. -1.
         -6    1    1    2    0  502  0.15245161064E+03 -0.29430533206E+02 -0.83840559495E+02  0.24711513367E+03  0.17300000000E+03 0.  1.
</event>
<event>
 4    1  0.6092738E+000  0.1000000E+03  0.7546771E-02  0.1280296E+00
         21   -1    0    0  501  502  0.00000000000E+00  0.00000000000E+00  0.14543128181E+03  0.14543128181E+03  0.00000000000E+00 0.  1.
         21   -1    0    0  502  503 -0.00000000000E+00 -0.00000000000E+00 -0.31085102046E+03  0.31085102046E+03  0.00000000000E+00 0.  1.
          6    1    1    2  501    0  0.39986560354E+02  0.68536328249E+02  0.18983482250E+02  0.19127343228E+03  0.17300000000E+03 0.  1.
         -6    1    1    2    0  503 -0.39986560354E+02 -0.68536328249E+02 -0.18440322090E+03  0.26500887000E+03  0.17300000000E+03 0.  1.
</event>
<event>
 4    1  0.6092738E+000  0.1000000E+03  0.7546771E-02  0.1280296E+00
         21   -1    0    0  501  502  0.00000000000E+00  0.00000000000E+00  0.22660376795E+03  0.22660376795E+03  0.00000000000E+00 0.  1.
         21   -1    0    0  502  503 -0.00000000000E+00 -0.00000000000E+00 -0.29154462120E+03  0.29154462120E+03  0.00000000000E+00 0.  1.
          6    1    1    2  501    0  0.42543985668E+02  0.12674611840E+02  0.15383769896E+03  0.23572372414E+03  0.17300000000E+03 0.  1.
         -6    1    1    2    0  503 -0.42543985668E+02 -0.12674611840E+02 -0.21877855221E+03  0.28242466501E+03  0.17300000000E+03 0.  1.
</event>
<event>
 4    1  0.6092738E+000  0.1000000E+03  0.7546771E-02  0.1280296E+00
         21   -1    0    0  503  502  0.00000000000E+00  0.00000000000E+00  0.14438953063E+04  0.14438953063E+04  0.00000000000E+00 0.  1.
         21   -1    0    0  501  503 -0.00000000000E+00 -0.00000000000E+00 -0.25220646533E+02  0.25220646533E+02  0.00000000000E+00 0. -1.
          6    1    1    2  501    0  0.75113391375E+02 -0.24974607408E+02  0.65208503843E+03  0.67927141109E+03  0.17300000000E+03 0.  1.
         -6    1    1    2    0  502 -0.75113391375E+02  0.24974607408E+02  0.76658962132E+03  0.78984454172E+03  0.17300000000E+03 0. -1.
</event>
<event>
 4    1  0.6092738E+000  0.1000000E+03  0.7546771E-02  0.1280296E+00
         21   -1    0    0  503  502  0.00000000000E+00  0.00000000000E+00  0.15692065285E+04  0.15692065285E+04  0.00000000000E+00 0. -1.
         21   -1    0    0  501  503 -0.00000000000E+00 -0.00000000000E+00 -0.23261493406E+03  0.23261493406E+03  0.00000000000E+00 0. -1.
          6    1    1    2  501    0 -0.27323595290E+03  0.72811389858E+02 -0.84896366588E+02  0.34219260295E+03  0.17300000000E+03 0. -1.
         -6    1    1    2    0  502  0.27323595290E+03 -0.72811389858E+02  0.14214879611E+04  0.14596288597E+04  0.17300000000E+03 0. -1.
</event>
<event>
 4    1  0.6092738E+000  0.1000000E+03  0.7546771E-02  0.1280296E+00
         21   -1    0    0  503  502  0.00000000000E+00  0.00000000000E+00  0.24015180102E+03  0.24015180102E+03  0.00000000000E+00 0. -1.
         21   -1    0    0  501  503 -0.00000000000E+00 -0.00000000000E+00 -0.30453166258E+03  0.30453166258E+03  0.00000000000E+00 0. -1.
          6    1    1    2  501    0 -0.33942743146E+02  0.12321395351E+03 -0.19727100047E+03  0.29185379178E+03  0.17300000000E+03 0. -1.
         -6    1    1    2    0  502  0.33942743146E+02 -0.12321395351E+03  0.13289113891E+03  0.25282967182E+03  0.17300000000E+03 0. -1.
</event>
<event>
 4    1  0.6092738E+000  0.1000000E+03  0.7546771E-02  0.1280296E+00
         21   -1    0    0  503  502  0.00000000000E+00  0.00000000000E+00  0.77694886291E+03  0.77694886291E+03  0.00000000000E+00 0. -1.
         21   -1    0    0  501  503 -0.00000000000E+00 -0.00000000000E+00 -0.95046423300E+02  0.95046423300E+02  0.00000000000E+00 0. -1.
          6    1    1    2  501    0 -0.94200636663E+02 -0.18008923518E+03  0.25896329196E+03  0.37188288366E+03  0.17300000000E+03 0. -1.
         -6    1    1    2    0  502  0.94200636663E+02  0.18008923518E+03  0.42293914765E+03  0.50011240255E+03  0.17300000000E+03 0. -1.
</event>
<event>
 4    1  0.6092738E+000  0.1000000E+03  0.7546771E-02  0.1280296E+00
         21   -1    0    0  503  502  0.00000000000E+00  0.00000000000E+00  0.77190104846E+02  0.77190104846E+02  0.00000000000E+00 0.  1.
         21   -1    0    0  501  503 -0.00000000000E+00 -0.00000000000E+00 -0.40364120206E+03  0.40364120206E+03  0.00000000000E+00 0.  1.
          6    1    1    2  501    0 -0.66773958816E+01  0.32630029968E+02 -0.17807098034E+03  0.25049467162E+03  0.17300000000E+03 0.  1.
         -6    1    1    2    0  502  0.66773958816E+01 -0.32630029968E+02 -0.14838011688E+03  0.23033663529E+03  0.17300000000E+03 0.  1.
</event>
<event>
 4    1  0.6092738E+000  0.1000000E+03  0.7546771E-02  0.1280296E+00
         21   -1    0    0  503  502  0.00000000000E+00  0.00000000000E+00  0.75193546941E+03  0.75193546941E+03  0.00000000000E+00 0.  1.
         21   -1    0    0  501  503 -0.00000000000E+00 -0.00000000000E+00 -0.17586200009E+03  0.17586200009E+03  0.00000000000E+00 0.  1.
          6    1    1    2  501    0  0.76002952576E+02  0.84278569174E+02 -0.93454875941E+02  0.22702894058E+03  0.17300000000E+03 0.  1.
         -6    1    1    2    0  502 -0.76002952576E+02 -0.84278569174E+02  0.66952834526E+03  0.70076852892E+03  0.17300000000E+03 0.  1.
</event>
<event>
 4    1  0.6092738E+000  0.1000000E+03  0.7546771E-02  0.1280296E+00
         21   -1    0    0  503  502  0.00000000000E+00  0.00000000000E+00  0.39828164095E+03  0.39828164095E+03  0.00000000000E+00 0.  1.
         21   -1    0    0  501  503 -0.00000000000E+00 -0.00000000000E+00 -0.10267365737E+03  0.10267365737E+03  0.00000000000E+00 0.  1.
          6    1    1    2  501    0 -0.16643689933E+02  0.72635686514E+02  0.56689765767E+02  0.19671218801E+03  0.17300000000E+03 0.  1.
         -6    1    1    2    0  502  0.16643689933E+02 -0.72635686514E+02  0.23891821781E+03  0.30424311031E+03  0.17300000000E+03 0.  1.
</event>
<event>
 4    1  0.6092738E+000  0.1000000E+03  0.7546771E-02  0.1280296E+00
         21   -1    0    0  503  502  0.00000000000E+00  0.00000000000E+00  0.28929527937E+02  0.28929527937E+02  0.00000000000E+00 0.  1.
         21   -1    0    0  501  503 -0.00000000000E+00 -0.00000000000E+00 -0.11942636738E+04  0.11942636738E+04  0.00000000000E+00 0.  1.
          6    1    1    2  501    0 -0.44457672493E+02 -0.18395624495E+02 -0.42467462680E+03  0.46107745801E+03  0.17300000000E+03 0.  1.
         -6    1    1    2    0  502  0.44457672493E+02  0.18395624495E+02 -0.74065951904E+03  0.76211574370E+03  0.17300000000E+03 0.  1.
</event>
<event>
 4    1  0.6092738E+000  0.1000000E+03  0.7546771E-02  0.1280296E+00
         21   -1    0    0  503  502  0.00000000000E+00  0.00000000000E+00  0.67494679735E+02  0.67494679735E+02  0.00000000000E+00 0.  1.
         21   -1    0    0  501  503 -0.00000000000E+00 -0.00000000000E+00 -0.13050792491E+04  0.13050792491E+04  0.00000000000E+00 0.  1.
          6    1    1    2  501    0  0.55573159209E+02 -0.46775604213E+02 -0.11505338534E+04  0.11657330230E+04  0.17300000000E+03 0.  1.
         -6    1    1    2    0  502 -0.55573159209E+02  0.46775604213E+02 -0.87050716014E+02  0.20684090585E+03  0.17300000000E+03 0.  1.
</event>
<event>
 4    1  0.6092738E+000  0.1000000E+03  0.7546771E-02  0.1280296E+00
         21   -1    0    0  501  502  0.00000000000E+00  0.00000000000E+00  0.66579455071E+02  0.66579455071E+02  0.00000000000E+00 0. -1.
         21   -1    0    0  502  503 -0.00000000000E+00 -0.00000000000E+00 -0.68656874494E+03  0.68656874494E+03  0.00000000000E+00 0. -1.
          6    1    1    2  501    0 -0.10921788252E+03  0.22735022141E+01 -0.20072664654E+03  0.28662501863E+03  0.17300000000E+03 0. -1.
         -6    1    1    2    0  503  0.10921788252E+03 -0.22735022141E+01 -0.41926264333E+03  0.46652318138E+03  0.17300000000E+03 0. -1.
</event>
<event>
 4    1  0.6092738E+000  0.1000000E+03  0.7546771E-02  0.1280296E+00
         21   -1    0    0  501  502  0.00000000000E+00  0.00000000000E+00  0.61390542437E+03  0.61390542437E+03  0.00000000000E+00 0. -1.
         21   -1    0    0  502  503 -0.00000000000E+00 -0.00000000000E+00 -0.13020217016E+03  0.13020217016E+03  0.00000000000E+00 0. -1.
          6    1    1    2  501    0 -0.15204686783E+03 -0.16832369844E+02  0.27218460039E+02  0.23253262837E+03  0.17300000000E+03 0. -1.
         -6    1    1    2    0  503  0.15204686783E+03  0.16832369844E+02  0.45648479417E+03  0.51157496616E+03  0.17300000000E+03 0. -1.
</event>
<event>
 4    1  0.6092738E+000  0.1000000E+03  0.7546771E-02  0.1280296E+00
         21   -1    0    0  501  502  0.00000000000E+00  0.00000000000E+00  0.45857430125E+03  0.45857430125E+03  0.00000000000E+00 0. -1.
         21   -1    0    0  502  503 -0.00000000000E+00 -0.00000000000E+00 -0.11147464868E+03  0.11147464868E+03  0.00000000000E+00 0. -1.
          6    1    1    2  501    0  0.13872528222E+03  0.43860425502E+02  0.17945846155E+03  0.28862221029E+03  0.17300000000E+03 0. -1.
         -6    1    1    2    0  503 -0.13872528222E+03 -0.43860425502E+02  0.16764119103E+03  0.28142673964E+03  0.17300000000E+03 0. -1.
</event>
<event>
 4    1  0.6092738E+000  0.1000000E+03  0.7546771E-02  0.1280296E+00
         21   -1    0    0  503  502  0.00000000000E+00  0.00000000000E+00  0.24576579241E+03  0.24576579241E+03  0.00000000000E+00 0. -1.
         21   -1    0    0  501  503 -0.00000000000E+00 -0.00000000000E+00 -0.17911884661E+03  0.17911884661E+03  0.00000000000E+00 0. -1.
          6    1    1    2  501    0  0.73738159578E+02 -0.40358960704E+02 -0.51549137808E+02  0.19912929341E+03  0.17300000000E+03 0.  1.
         -6    1    1    2    0  502 -0.73738159578E+02  0.40358960704E+02  0.11819608361E+03  0.22575534560E+03  0.17300000000E+03 0.  1.
</event>
<event>
 4    1  0.6092738E+000  0.1000000E+03  0.7546771E-02  0.1280296E+00
         21   -1    0    0  501  502  0.00000000000E+00  0.00000000000E+00  0.10537796610E+03  0.10537796610E+03  0.00000000000E+00 0.  1.
         21   -1    0    0  502  503 -0.00000000000E+00 -0.00000000000E+00 -0.45344657708E+03  0.45344657708E+03  0.00000000000E+00 0.  1.
          6    1    1    2  501    0 -0.83026326131E+02  0.90823680302E+02 -0.10746873631E+03  0.23795134170E+03  0.17300000000E+03 0.  1.
         -6    1    1    2    0  503  0.83026326131E+02 -0.90823680302E+02 -0.24059987467E+03  0.32087320148E+03  0.17300000000E+03 0.  1.
</event>
<event>
 4    1  0.6092738E+000  0.1000000E+03  0.7546771E-02  0.1280296E+00
         21   -1    0    0  501  502  0.00000000000E+00  0.00000000000E+00  0.42867159781E+03  0.42867159781E+03  0.00000000000E+00 0.  1.
         21   -1    0    0  502  503 -0.00000000000E+00 -0.00000000000E+00 -0.11237564106E+03  0.11237564106E+03  0.00000000000E+00 0.  1.
          6    1    1    2  501    0 -0.63051183941E+02 -0.95204074402E+02  0.24706286326E+03  0.32250321856E+03  0.17300000000E+03 0.  1.
         -6    1    1    2    0  503  0.63051183941E+02  0.95204074402E+02  0.69233093486E+02  0.21854402031E+03  0.17300000000E+03 0.  1.
</event>
<event>
 4    1  0.6092738E+000  0.1000000E+03  0.7546771E-02  0.1280296E+00
         21   -1    0    0  501  502  0.00000000000E+00  0.00000000000E+00  0.21145944000E+03  0.21145944000E+03  0.00000000000E+00 0. -1.
         21   -1    0    0  502  503 -0.00000000000E+00 -0.00000000000E+00 -0.25400163139E+03  0.25400163139E+03  0.00000000000E+00 0. -1.
          6    1    1    2  501    0 -0.14719974423E+03  0.34955383518E+02 -0.51269707777E+02  0.23547234758E+03  0.17300000000E+03 0. -1.
         -6    1    1    2    0  503  0.14719974423E+03 -0.34955383518E+02  0.87275163875E+01  0.22998872381E+03  0.17300000000E+03 0. -1.
</event>
<event>
 4    1  0.6092738E+000  0.1000000E+03  0.7546771E-02  0.1280296E+00
         21   -1    0    0  501  502  0.00000000000E+00  0.00000000000E+00  0.12905783413E+03  0.12905783413E+03  0.00000000000E+00 0. -1.
         21   -1    0    0  502  503 -0.00000000000E+00 -0.00000000000E+00 -0.67179752031E+03  0.67179752031E+03  0.00000000000E+00 0. -1.
          6    1    1    2  501    0 -0.14740109738E+03 -0.83042356224E+02 -0.43208938187E+02  0.24580302841E+03  0.17300000000E+03 0. -1.
         -6    1    1    2    0  503  0.14740109738E+03  0.83042356224E+02 -0.49953074799E+03  0.55505232602E+03  0.17300000000E+03 0. -1.
</event>
<event>
 4    1  0.6092738E+000  0.1000000E+03  0.7546771E-02  0.1280296E+00
         21   -1    0    0  501  502  0.00000000000E+00  0.00000000000E+00  0.60630315976E+03  0.60630315976E+03  0.00000000000E+00 0. -1.
         21   -1    0    0  502  503 -0.00000000000E+00 -0.00000000000E+00 -0.10953701199E+03  0.10953701199E+03  0.00000000000E+00 0. -1.
          6    1    1    2  501    0  0.78442889975E+01  0.62656407188E+01  0.51329959332E+03  0.54176218364E+03  0.17300000000E+03 0. -1.
         -6    1    1    2    0  503 -0.78442889975E+01 -0.62656407188E+01 -0.16533445550E+02  0.17407798811E+03  0.17300000000E+03 0. -1.
</event>
<event>
 4    1  0.6092738E+000  0.1000000E+03  0.7546771E-02  0.1280296E+00
         21   -1    0    0  501  502  0.00000000000E+00  0.00000000000E+00  0.18521880079E+04  0.18521880079E+04  0.00000000000E+00 0. -1.
         21   -1    0    0  502  503 -0.00000000000E+00 -0.00000000000E+00 -0.30975128691E+02  0.30975128691E+02  0.00000000000E+00 0. -1.
          6    1    1    2  501    0 -0.23348073708E+02  0.40144311108E+01  0.15551254253E+04  0.15648978678E+04  0.17300000000E+03 0. -1.
         -6    1    1    2    0  503  0.23348073708E+02 -0.40144311108E+01  0.26608745397E+03  0.31826526886E+03  0.17300000000E+03 0. -1.
</event>
<event>
 4    1  0.6092738E+000  0.1000000E+03  0.7546771E-02  0.1280296E+00
         21   -1    0    0  501  502  0.00000000000E+00  0.00000000000E+00  0.37219620799E+03  0.37219620799E+03  0.00000000000E+00 0. -1.
         21   -1    0    0  502  503 -0.00000000000E+00 -0.00000000000E+00 -0.18254572715E+03  0.18254572715E+03  0.00000000000E+00 0. -1.
          6    1    1    2  501    0 -0.11817601104E+03  0.66175891513E+02  0.24406358930E+03  0.32839131204E+03  0.17300000000E+03 0. -1.
         -6    1    1    2    0  503  0.11817601104E+03 -0.66175891513E+02 -0.54413108465E+02  0.22635062310E+03  0.17300000000E+03 0. -1.
</event>
<event>
 4    1  0.6092738E+000  0.1000000E+03  0.7546771E-02  0.1280296E+00
         21   -1    0    0  501  502  0.00000000000E+00  0.00000000000E+00  0.17161232786E+02  0.17161232786E+02  0.00000000000E+00 0.  1.
         21   -1    0    0  502  503 -0.00000000000E+00 -0.00000000000E+00 -0.21171535709E+04  0.21171535709E+04  0.00000000000E+00 0.  1.
          6    1    1    2  501    0  0.50993333165E+02  0.60240331477E+02 -0.97598729347E+03  0.99433868203E+03  0.17300000000E+03 0.  1.
         -6    1    1    2    0  503 -0.50993333165E+02 -0.60240331477E+02 -0.11240050447E+04  0.11399761217E+04  0.17300000000E+03 0.  1.
</event>
<event>
 4    1  0.6092738E+000  0.1000000E+03  0.7546771E-02  0.1280296E+00
         21   -1    0    0  501  502  0.00000000000E+00  0.00000000000E+00  0.18251447708E+03  0.18251447708E+03  0.00000000000E+00 0.  1.
         21   -1    0    0  502  503 -0.00000000000E+00 -0.00000000000E+00 -0.21454529910E+03  0.21454529910E+03  0.00000000000E+00 0.  1.
          6    1    1    2  501    0 -0.29856230882E+02 -0.83287333011E+02 -0.53560344661E+02  0.20155863882E+03  0.17300000000E+03 0.  1.
         -6    1    1    2    0  503  0.29856230882E+02  0.83287333011E+02  0.21529522639E+02  0.19550113736E+03  0.17300000000E+03 0.  1.
</event>
<event>
 4    1  0.6092738E+000  0.1000000E+03  0.7546771E-02  0.1280296E+00
         21   -1    0    0  503  502  0.00000000000E+00  0.00000000000E+00  0.85480397022E+02  0.85480397022E+02  0.00000000000E+00 0. -1.
         21   -1    0    0  501  503 -0.00000000000E+00 -0.00000000000E+00 -0.87517959660E+03  0.87517959660E+03  0.00000000000E+00 0. -1.
          6    1    1    2  501    0  0.24217022855E+02  0.17923770938E+03 -0.58857506043E+03  0.63957972327E+03  0.17300000000E+03 0. -1.
         -6    1    1    2    0  502 -0.24217022855E+02 -0.17923770938E+03 -0.20112413914E+03  0.32108027035E+03  0.17300000000E+03 0. -1.
</event>
<event>
 4    1  0.6092738E+000  0.1000000E+03  0.7546771E-02  0.1280296E+00
         21   -1    0    0  503  502  0.00000000000E+00  0.00000000000E+00  0.75914528765E+02  0.75914528765E+02  0.00000000000E+00 0. -1.
         21   -1    0    0  501  503 -0.00000000000E+00 -0.00000000000E+00 -0.15827601766E+04  0.15827601766E+04  0.00000000000E+00 0. -1.
          6    1    1    2  501    0  0.20069883333E+02  0.84100778140E+01 -0.14701983981E+04  0.14805018945E+04  0.17300000000E+03 0. -1.
         -6    1    1    2    0  502 -0.20069883333E+02 -0.84100778140E+01 -0.36647249668E+02  0.17817281087E+03  0.17300000000E+03 0. -1.
</event>
<event>
 4    1  0.6092738E+000  0.1000000E+03  0.7546771E-02  0.1280296E+00
         21   -1    0    0  503  502  0.00000000000E+00  0.00000000000E+00  0.13197112427E+03  0.13197112427E+03  0.00000000000E+00 0. -1.
         21   -1    0    0  501  503 -0.00000000000E+00 -0.00000000000E+00 -0.38685629530E+03  0.38685629530E+03  0.00000000000E+00 0. -1.
          6    1    1    2  501    0 -0.62466363401E+02  0.23319641393E+02 -0.27571615416E+03  0.33225630152E+03  0.17300000000E+03 0. -1.
         -6    1    1    2    0  502  0.62466363401E+02 -0.23319641393E+02  0.20830983134E+02  0.18657111805E+03  0.17300000000E+03 0. -1.
</event>
<event>
 4    1  0.6092738E+000  0.1000000E+03  0.7546771E-02  0.1280296E+00
         21   -1    0    0  503  502  0.00000000000E+00  0.00000000000E+00  0.10096238201E+04  0.10096238201E+04  0.00000000000E+00 0.  1.
         21   -1    0    0  501  503 -0.00000000000E+00 -0.00000000000E+00 -0.13350493065E+03  0.13350493065E+03  0.00000000000E+00 0. -1.
          6    1    1    2  501    0 -0.12651994984E+03 -0.72041984976E+02 -0.12243195501E+02  0.22644257802E+03  0.17300000000E+03 0. -1.
         -6    1    1    2    0  502  0.12651994984E+03  0.72041984976E+02  0.88836208497E+03  0.91668617276E+03  0.17300000000E+03 0.  1.
</event>
<event>
 4    1  0.6092738E+000  0.1000000E+03  0.7546771E-02  0.1280296E+00
         21   -1    0    0  503  502  0.00000000000E+00  0.00000000000E+00  0.40262132805E+03  0.40262132805E+03  0.00000000000E+00 0. -1.
         21   -1    0    0  501  503 -0.00000000000E+00 -0.00000000000E+00 -0.13200915599E+03  0.13200915599E+03  0.00000000000E+00 0. -1.
          6    1    1    2  501    0  0.16256216274E+02  0.95829123679E+02 -0.77287629386E+00  0.19843659655E+03  0.17300000000E+03 0. -1.
         -6    1    1    2    0  502 -0.16256216274E+02 -0.95829123679E+02  0.27138504835E+03  0.33619388748E+03  0.17300000000E+03 0. -1.
</event>
<event>
 4    1  0.6092738E+000  0.1000000E+03  0.7546771E-02  0.1280296E+00
         21   -1    0    0  501  502  0.00000000000E+00  0.00000000000E+00  0.17960609931E+03  0.17960609931E+03  0.00000000000E+00 0.  1.
         21   -1    0    0  502  503 -0.00000000000E+00 -0.00000000000E+00 -0.40858512664E+03  0.40858512664E+03  0.00000000000E+00 0. -1.
          6    1    1    2  501    0 -0.10610060634E+03  0.64862610579E+02  0.67143603207E+02  0.22338701925E+03  0.17300000000E+03 0.  1.
         -6    1    1    2    0  503  0.10610060634E+03 -0.64862610579E+02 -0.29612263053E+03  0.36480420670E+03  0.17300000000E+03 0.  1.
</event>
<event>
 4    1  0.6092738E+000  0.1000000E+03  0.7546771E-02  0.1280296E+00
         21   -1    0    0  501  502  0.00000000000E+00  0.00000000000E+00  0.52741517197E+03  0.52741517197E+03  0.00000000000E+00 0.  1.
         21   -1    0    0  502  503 -0.00000000000E+00 -0.00000000000E+00 -0.50855390677E+03  0.50855390677E+03  0.00000000000E+00 0. -1.
          6    1    1    2  501    0  0.38194458343E+02  0.12047033577E+03  0.48101503080E+03  0.52657039254E+03  0.17300000000E+03 0.  1.
         -6    1    1    2    0  503 -0.38194458343E+02 -0.12047033577E+03 -0.46215376560E+03  0.50939868620E+03  0.17300000000E+03 0.  1.
</event>
<event>
 4    1  0.6092738E+000  0.1000000E+03  0.7546771E-02  0.1280296E+00
         21   -1    0    0  503  502  0.00000000000E+00  0.00000000000E+00  0.65550050778E+03  0.65550050778E+03  0.00000000000E+00 0.  1.
         21   -1    0    0  501  503 -0.00000000000E+00 -0.00000000000E+00 -0.66946497682E+02  0.66946497682E+02  0.00000000000E+00 0.  1.
          6    1    1    2  501    0  0.61082622135E+02 -0.99257761285E+02  0.32750257386E+03  0.38829128987E+03  0.17300000000E+03 0.  1.
         -6    1    1    2    0  502 -0.61082622135E+02  0.99257761285E+02  0.26105143623E+03  0.33415571559E+03  0.17300000000E+03 0.  1.
</event>
<event>
 4    1  0.6092738E+000  0.1000000E+03  0.7546771E-02  0.1280296E+00
         21   -1    0    0  503  502  0.00000000000E+00  0.00000000000E+00  0.85004855369E+03  0.85004855369E+03  0.00000000000E+00 0.  1.
         21   -1    0    0  501  503 -0.00000000000E+00 -0.00000000000E+00 -0.32977249882E+03  0.32977249882E+03  0.00000000000E+00 0.  1.
          6    1    1    2  501    0 -0.19285519223E+03  0.20821533252E+03 -0.19904503055E+03  0.38742053902E+03  0.17300000000E+03 0.  1.
         -6    1    1    2    0  502  0.19285519223E+03 -0.20821533252E+03  0.71932108541E+03  0.79240051349E+03  0.17300000000E+03 0.  1.
</event>
<event>
 4    1  0.6092738E+000  0.1000000E+03  0.7546771E-02  0.1280296E+00
         21   -1    0    0  503  502  0.00000000000E+00  0.00000000000E+00  0.46508409324E+02  0.46508409324E+02  0.00000000000E+00 0.  1.
         21   -1    0    0  501  503 -0.00000000000E+00 -0.00000000000E+00 -0.97322026838E+03  0.97322026838E+03  0.00000000000E+00 0.  1.
          6    1    1    2  501    0 -0.12268066053E+03  0.14712246096E+02 -0.48296242894E+03  0.52768238783E+03  0.17300000000E+03 0.  1.
         -6    1    1    2    0  502  0.12268066053E+03 -0.14712246096E+02 -0.44374943011E+03  0.49204628987E+03  0.17300000000E+03 0.  1.
</event>
<event>
 4    1  0.6092738E+000  0.1000000E+03  0.7546771E-02  0.1280296E+00
         21   -1    0    0  503  502  0.00000000000E+00  0.00000000000E+00  0.13599037116E+03  0.13599037116E+03  0.00000000000E+00 0.  1.
         21   -1    0    0  501  503 -0.00000000000E+00 -0.00000000000E+00 -0.39970904987E+03  0.39970904987E+03  0.00000000000E+00 0.  1.
          6    1    1    2  501    0 -0.11899765877E+03 -0.96055852622E+02 -0.16891613627E+03  0.28609234647E+03  0.17300000000E+03 0.  1.
         -6    1    1    2    0  502  0.11899765877E+03  0.96055852622E+02 -0.94802542444E+02  0.24960707456E+03  0.17300000000E+03 0.  1.
</event>
<event>
 4    1  0.6092738E+000  0.1000000E+03  0.7546771E-02  0.1280296E+00
         21   -1    0    0  501  502  0.00000000000E+00  0.00000000000E+00  0.63177488632E+02  0.63177488632E+02  0.00000000000E+00 0. -1.
         21   -1    0    0  502  503 -0.00000000000E+00 -0.00000000000E+00 -0.83276507127E+03  0.83276507127E+03  0.00000000000E+00 0. -1.
          6    1    1    2  501    0 -0.92866992578E+02  0.11561119192E+03 -0.33338879235E+03  0.40381593935E+03  0.17300000000E+03 0. -1.
         -6    1    1    2    0  503  0.92866992578E+02 -0.11561119192E+03 -0.43619879028E+03  0.49212662055E+03  0.17300000000E+03 0. -1.
</event>
<event>
 4    1  0.6092738E+000  0.1000000E+03  0.7546771E-02  0.1280296E+00
         21   -1    0    0  501  502  0.00000000000E+00  0.00000000000E+00  0.43966921264E+03  0.43966921264E+03  0.00000000000E+00 0. -1.
         21   -1    0    0  502  503 -0.00000000000E+00 -0.00000000000E+00 -0.99385177405E+02  0.99385177405E+02  0.00000000000E+00 0. -1.
          6    1    1    2  501    0 -0.11251400729E+02 -0.17916578062E+02  0.31895161703E+03  0.36346489761E+03  0.17300000000E+03 0. -1.
         -6    1    1    2    0  503  0.11251400729E+02  0.17916578062E+02  0.21332418206E+02  0.17558949244E+03  0.17300000000E+03 0. -1.
</event>
<event>
 4    1  0.6092738E+000  0.1000000E+03  0.7546771E-02  0.1280296E+00
         21   -1    0    0  501  502  0.00000000000E+00  0.00000000000E+00  0.67137541936E+03  0.67137541936E+03  0.00000000000E+00 0. -1.
         21   -1    0    0  502  503 -0.00000000000E+00 -0.00000000000E+00 -0.14728993209E+03  0.14728993209E+03  0.00000000000E+00 0. -1.
          6    1    1    2  501    0 -0.10632530880E+03  0.70603282377E+02  0.56077378471E+03  0.60057150481E+03  0.17300000000E+03 0. -1.
         -6    1    1    2    0  503  0.10632530880E+03 -0.70603282377E+02 -0.36688297444E+02  0.21809384664E+03  0.17300000000E+03 0. -1.
</event>
<event>
 4    1  0.6092738E+000  0.1000000E+03  0.7546771E-02  0.1280296E+00
         21   -1    0    0  503  502  0.00000000000E+00  0.00000000000E+00  0.16017529236E+03  0.16017529236E+03  0.00000000000E+00 0.  1.
         21   -1    0    0  501  503 -0.00000000000E+00 -0.00000000000E+00 -0.78879103060E+03  0.78879103060E+03  0.00000000000E+00 0.  1.
          6    1    1    2  501    0 -0.20259993326E+03  0.11854659899E+03 -0.58563933992E+03  0.65421897370E+03  0.17300000000E+03 0.  1.
         -6    1    1    2    0  502  0.20259993326E+03 -0.11854659899E+03 -0.42976398317E+02  0.29474734927E+03  0.17300000000E+03 0.  1.
</event>
<event>
 4    1  0.6092738E+000  0.1000000E+03  0.7546771E-02  0.1280296E+00
         21   -1    0    0  503  502  0.00000000000E+00  0.00000000000E+00  0.66918988099E+03  0.66918988099E+03  0.00000000000E+00 0.  1.
         21   -1    0    0  501  503 -0.00000000000E+00 -0.00000000000E+00 -0.98551216966E+02  0.98551216966E+02  0.00000000000E+00 0.  1.
          6    1    1    2  501    0  0.10635480344E+03  0.13767235287E+03  0.39872088230E+03  0.46815848058E+03  0.17300000000E+03 0.  1.
         -6    1    1    2    0  502 -0.10635480344E+03 -0.13767235287E+03  0.17191778173E+03  0.29958261738E+03  0.17300000000E+03 0.  1.
</event>
<event>
 4    1  0.6092738E+000  0.1000000E+03  0.7546771E-02  0.1280296E+00
         21   -1    0    0  501  502  0.00000000000E+00  0.00000000000E+00  0.47777356202E+02  0.47777356202E+02  0.00000000000E+00 0. -1.
         21   -1    0    0  502  503 -0.00000000000E+00 -0.00000000000E+00 -0.12167929647E+04  0.12167929647E+04  0.00000000000E+00 0. -1.
          6    1    1    2  501    0  0.25008027904E+02  0.77143762320E+02 -0.19883614661E+03  0.27575600578E+03  0.17300000000E+03 0. -1.
         -6    1    1    2    0  503 -0.25008027904E+02 -0.77143762320E+02 -0.97017946193E+03  0.98881431517E+03  0.17300000000E+03 0. -1.
</event>
<event>
 4    1  0.6092738E+000  0.1000000E+03  0.7546771E-02  0.1280296E+00
         21   -1    0    0  503  502  0.00000000000E+00  0.00000000000E+00  0.50758964696E+02  0.50758964696E+02  0.00000000000E+00 0. -1.
         21   -1    0    0  501  503 -0.00000000000E+00 -0.00000000000E+00 -0.25779301986E+04  0.25779301986E+04  0.00000000000E+00 0.  1.
          6    1    1    2  501    0  0.48706289988E+01 -0.15150195148E+03 -0.22780069875E+04  0.22895897884E+04  0.17300000000E+03 0.  1.
         -6    1    1    2    0  502 -0.48706289988E+01  0.15150195148E+03 -0.24916424642E+03  0.33909937485E+03  0.17300000000E+03 0.  1.
</event>
<event>
 4    1  0.6092738E+000  0.1000000E+03  0.7546771E-02  0.1280296E+00
         21   -1    0    0  503  502  0.00000000000E+00  0.00000000000E+00  0.31293165846E+03  0.31293165846E+03  0.00000000000E+00 0. -1.
         21   -1    0    0  501  503 -0.00000000000E+00 -0.00000000000E+00 -0.23440064226E+03  0.23440064226E+03  0.00000000000E+00 0.  1.
          6    1    1    2  501    0  0.83414615053E+02 -0.10248541314E+03 -0.12354359272E+03  0.25030636670E+03  0.17300000000E+03 0.  1.
         -6    1    1    2    0  502 -0.83414615053E+02  0.10248541314E+03  0.20207460892E+03  0.29702593402E+03  0.17300000000E+03 0.  1.
</event>
<event>
 4    1  0.6092738E+000  0.1000000E+03  0.7546771E-02  0.1280296E+00
         21   -1    0    0  501  502  0.00000000000E+00  0.00000000000E+00  0.73715888762E+02  0.73715888762E+02  0.00000000000E+00 0. -1.
         21   -1    0    0  502  503 -0.00000000000E+00 -0.00000000000E+00 -0.50608112845E+03  0.50608112845E+03  0.00000000000E+00 0. -1.
          6    1    1    2  501    0  0.81811698930E+02  0.21814917149E+02 -0.23783821586E+03  0.30604748262E+03  0.17300000000E+03 0. -1.
         -6    1    1    2    0  503 -0.81811698930E+02 -0.21814917149E+02 -0.19452702383E+03  0.27374953459E+03  0.17300000000E+03 0. -1.
</event>
<event>
 4    1  0.6092738E+000  0.1000000E+03  0.7546771E-02  0.1280296E+00
         21   -1    0    0  503  502  0.00000000000E+00  0.00000000000E+00  0.19701997226E+03  0.19701997226E+03  0.00000000000E+00 0. -1.
         21   -1    0    0  501  503 -0.00000000000E+00 -0.00000000000E+00 -0.98557848031E+03  0.98557848031E+03  0.00000000000E+00 0. -1.
          6    1    1    2  501    0 -0.40148111728E+02 -0.75841145914E+01 -0.93533308722E+03  0.95207477317E+03  0.17300000000E+03 0. -1.
         -6    1    1    2    0  502  0.40148111728E+02  0.75841145914E+01  0.14677457917E+03  0.23052367939E+03  0.17300000000E+03 0. -1.
</event>
<event>
 4    1  0.6092738E+000  0.1000000E+03  0.7546771E-02  0.1280296E+00
         21   -1    0    0  503  502  0.00000000000E+00  0.00000000000E+00  0.16885449124E+04  0.16885449124E+04  0.00000000000E+00 0. -1.
         21   -1    0    0  501  503 -0.00000000000E+00 -0.00000000000E+00 -0.20119679517E+02  0.20119679517E+02  0.00000000000E+00 0. -1.
          6    1    1    2  501    0 -0.24636761209E+02  0.44576069633E+02  0.65771373150E+03  0.68198999156E+03  0.17300000000E+03 0. -1.
         -6    1    1    2    0  502  0.24636761209E+02 -0.44576069633E+02  0.10107115014E+04  0.10266746004E+04  0.17300000000E+03 0. -1.
</event>
<event>
 4    1  0.6092738E+000  0.1000000E+03  0.7546771E-02  0.1280296E+00
         21   -1    0    0  503  502  0.00000000000E+00  0.00000000000E+00  0.68951475679E+02  0.68951475679E+02  0.00000000000E+00 0. -1.
         21   -1    0    0  501  503 -0.00000000000E+00 -0.00000000000E+00 -0.16660311455E+04  0.16660311455E+04  0.00000000000E+00 0.  1.
          6    1    1    2  501    0  0.18201099545E+02  0.20678410853E+03 -0.13221732170E+04  0.13495043399E+04  0.17300000000E+03 0.  1.
         -6    1    1    2    0  502 -0.18201099545E+02 -0.20678410853E+03 -0.27490645285E+03  0.38547828134E+03  0.17300000000E+03 0. -1.
</event>
<event>
 4    1  0.6092738E+000  0.1000000E+03  0.7546771E-02  0.1280296E+00
         21   -1    0    0  503  502  0.00000000000E+00  0.00000000000E+00  0.22331210846E+03  0.22331210846E+03  0.00000000000E+00 0. -1.
         21   -1    0    0  501  503 -0.00000000000E+00 -0.00000000000E+00 -0.37356406640E+03  0.37356406640E+03  0.00000000000E+00 0.  1.
          6    1    1    2  501    0 -0.63597681905E+02  0.82071914908E+02 -0.28867131298E+03  0.35219396829E+03  0.17300000000E+03 0.  1.
         -6    1    1    2    0  502  0.63597681905E+02 -0.82071914908E+02  0.13841935504E+03  0.24468220657E+03  0.17300000000E+03 0. -1.
</event>
<event>
 4    1  0.6092738E+000  0.1000000E+03  0.7546771E-02  0.1280296E+00
         21   -1    0    0  501  502  0.00000000000E+00  0.00000000000E+00  0.61689399789E+03  0.61689399789E+03  0.00000000000E+00 0. -1.
         21   -1    0    0  502  503 -0.00000000000E+00 -0.00000000000E+00 -0.19372670430E+03  0.19372670430E+03  0.00000000000E+00 0. -1.
          6    1    1    2  501    0 -0.18239190889E+03 -0.51713429389E+02  0.48311939772E+03  0.54705981360E+03  0.17300000000E+03 0. -1.
         -6    1    1    2    0  503  0.18239190889E+03  0.51713429389E+02 -0.59952104126E+02  0.26356088859E+03  0.17300000000E+03 0. -1.
</event>
<event>
 4    1  0.6092738E+000  0.1000000E+03  0.7546771E-02  0.1280296E+00
         21   -1    0    0  501  502  0.00000000000E+00  0.00000000000E+00  0.14683342572E+03  0.14683342572E+03  0.00000000000E+00 0. -1.
         21   -1    0    0  502  503 -0.00000000000E+00 -0.00000000000E+00 -0.39382425581E+03  0.39382425581E+03  0.00000000000E+00 0. -1.
          6    1    1    2  501    0  0.86289040836E+01  0.61482207114E+02  0.50815032947E+02  0.19069789551E+03  0.17300000000E+03 0. -1.
         -6    1    1    2    0  503 -0.86289040836E+01 -0.61482207114E+02 -0.29780586303E+03  0.34995978602E+03  0.17300000000E+03 0. -1.
</event>
<event>
 4    1  0.6092738E+000  0.1000000E+03  0.7546771E-02  0.1280296E+00
         21   -1    0    0  501  502  0.00000000000E+00  0.00000000000E+00  0.36529536288E+03  0.36529536288E+03  0.00000000000E+00 0. -1.
         21   -1    0    0  502  503 -0.00000000000E+00 -0.00000000000E+00 -0.18126043055E+03  0.18126043055E+03  0.00000000000E+00 0. -1.
          6    1    1    2  501    0  0.39506650137E+02  0.12450210400E+03  0.23926296226E+03  0.32285804066E+03  0.17300000000E+03 0. -1.
         -6    1    1    2    0  503 -0.39506650137E+02 -0.12450210400E+03 -0.55228029924E+02  0.22369775277E+03  0.17300000000E+03 0. -1.
</event>
<event>
 4    1  0.6092738E+000  0.1000000E+03  0.7546771E-02  0.1280296E+00
         21   -1    0    0  503  502  0.00000000000E+00  0.00000000000E+00  0.64392414936E+03  0.64392414936E+03  0.00000000000E+00 0. -1.
         21   -1    0    0  501  503 -0.00000000000E+00 -0.00000000000E+00 -0.56297494903E+02  0.56297494903E+02  0.00000000000E+00 0. -1.
          6    1    1    2  501    0 -0.28185355753E+02 -0.24034371692E+01  0.15716736950E+03  0.23543740745E+03  0.17300000000E+03 0. -1.
         -6    1    1    2    0  502  0.28185355753E+02  0.24034371692E+01  0.43045928495E+03  0.46478423682E+03  0.17300000000E+03 0. -1.
</event>
<event>
 4    1  0.6092738E+000  0.1000000E+03  0.7546771E-02  0.1280296E+00
         21   -1    0    0  503  502  0.00000000000E+00  0.00000000000E+00  0.17695559002E+03  0.17695559002E+03  0.00000000000E+00 0. -1.
         21   -1    0    0  501  503 -0.00000000000E+00 -0.00000000000E+00 -0.60330516531E+03  0.60330516531E+03  0.00000000000E+00 0. -1.
          6    1    1    2  501    0  0.18756952240E+02  0.55813531555E+02 -0.53657881078E+03  0.56684459400E+03  0.17300000000E+03 0. -1.
         -6    1    1    2    0  502 -0.18756952240E+02 -0.55813531555E+02  0.11022923550E+03  0.21341616134E+03  0.17300000000E+03 0. -1.
</event>
<event>
 4    1  0.6092738E+000  0.1000000E+03  0.7546771E-02  0.1280296E+00
         21   -1    0    0  503  502  0.00000000000E+00  0.00000000000E+00  0.27526469610E+03  0.27526469610E+03  0.00000000000E+00 0. -1.
         21   -1    0    0  501  503 -0.00000000000E+00 -0.00000000000E+00 -0.30020161635E+03  0.30020161635E+03  0.00000000000E+00 0. -1.
          6    1    1    2  501    0  0.16569766669E+03  0.15862929839E+03 -0.31357653397E+01  0.28732873869E+03  0.17300000000E+03 0. -1.
         -6    1    1    2    0  502 -0.16569766669E+03 -0.15862929839E+03 -0.21801154905E+02  0.28813757376E+03  0.17300000000E+03 0. -1.
</event>
<event>
 4    1  0.6092738E+000  0.1000000E+03  0.7546771E-02  0.1280296E+00
         21   -1    0    0  503  502  0.00000000000E+00  0.00000000000E+00  0.25453947409E+03  0.25453947409E+03  0.00000000000E+00 0. -1.
         21   -1    0    0  501  503 -0.00000000000E+00 -0.00000000000E+00 -0.18520680842E+03  0.18520680842E+03  0.00000000000E+00 0. -1.
          6    1    1    2  501    0  0.99215963651E+01 -0.60168073888E+02 -0.82972172449E+02  0.20132564812E+03  0.17300000000E+03 0. -1.
         -6    1    1    2    0  502 -0.99215963651E+01  0.60168073888E+02  0.15230483811E+03  0.23842063439E+03  0.17300000000E+03 0. -1.
</event>
<event>
 4    1  0.6092738E+000  0.1000000E+03  0.7546771E-02  0.1280296E+00
         21   -1    0    0  503  502  0.00000000000E+00  0.00000000000E+00  0.34256182550E+03  0.34256182550E+03  0.00000000000E+00 0. -1.
         21   -1    0    0  501  503 -0.00000000000E+00 -0.00000000000E+00 -0.30486175630E+03  0.30486175630E+03  0.00000000000E+00 0. -1.
          6    1    1    2  501    0 -0.18864413550E+03 -0.80320840697E+02 -0.16164211830E+03  0.31320156723E+03  0.17300000000E+03 0. -1.
         -6    1    1    2    0  502  0.18864413550E+03  0.80320840697E+02  0.19934218749E+03  0.33422201457E+03  0.17300000000E+03 0. -1.
</event>
<event>
 4    1  0.6092738E+000  0.1000000E+03  0.7546771E-02  0.1280296E+00
         21   -1    0    0  501  502  0.00000000000E+00  0.00000000000E+00  0.62490324975E+03  0.62490324975E+03  0.00000000000E+00 0. -1.
         21   -1    0    0  502  503 -0.00000000000E+00 -0.00000000000E+00 -0.88392845513E+02  0.88392845513E+02  0.00000000000E+00 0. -1.
          6    1    1    2  501    0  0.42466899218E+02  0.14685990033E+03  0.20147356857E+03  0.30641779760E+03  0.17300000000E+03 0. -1.
         -6    1    1    2    0  503 -0.42466899218E+02 -0.14685990033E+03  0.33503683567E+03  0.40687829766E+03  0.17300000000E+03 0. -1.
</event>
<event>
 4    1  0.6092738E+000  0.1000000E+03  0.7546771E-02  0.1280296E+00
         21   -1    0    0  501  502  0.00000000000E+00  0.00000000000E+00  0.10026001310E+04  0.10026001310E+04  0.00000000000E+00 0.  1.
         21   -1    0    0  502  503 -0.00000000000E+00 -0.00000000000E+00 -0.18168135162E+03  0.18168135162E+03  0.00000000000E+00 0.  1.
          6    1    1    2  501    0  0.33377662821E+02  0.14156517581E+03  0.91275282738E+03  0.94031988774E+03  0.17300000000E+03 0.  1.
         -6    1    1    2    0  503 -0.33377662821E+02 -0.14156517581E+03 -0.91834048042E+02  0.24396159484E+03  0.17300000000E+03 0.  1.
</event>
<event>
 4    1  0.6092738E+000  0.1000000E+03  0.7546771E-02  0.1280296E+00
         21   -1    0    0  501  502  0.00000000000E+00  0.00000000000E+00  0.89133977512E+03  0.89133977512E+03  0.00000000000E+00 0.  1.
         21   -1    0    0  502  503 -0.00000000000E+00 -0.00000000000E+00 -0.33194182074E+03  0.33194182074E+03  0.00000000000E+00 0.  1.
          6    1    1    2  501    0 -0.94771033039E+02  0.54969640333E+02  0.84634259991E+03  0.87076288763E+03  0.17300000000E+03 0.  1.
         -6    1    1    2    0  503  0.94771033039E+02 -0.54969640333E+02 -0.28694464552E+03  0.35251870823E+03  0.17300000000E+03 0.  1.
</event>
<event>
 4    1  0.6092738E+000  0.1000000E+03  0.7546771E-02  0.1280296E+00
         21   -1    0    0  501  502  0.00000000000E+00  0.00000000000E+00  0.33278219511E+03  0.33278219511E+03  0.00000000000E+00 0.  1.
         21   -1    0    0  502  503 -0.00000000000E+00 -0.00000000000E+00 -0.18569170412E+03  0.18569170412E+03  0.00000000000E+00 0.  1.
          6    1    1    2  501    0 -0.10656278839E+03  0.12694116703E+03  0.14269005525E+03  0.27885325823E+03  0.17300000000E+03 0.  1.
         -6    1    1    2    0  503  0.10656278839E+03 -0.12694116703E+03  0.44004357380E+01  0.23962064100E+03  0.17300000000E+03 0.  1.
</event>
<event>
 4    1  0.6092738E+000  0.1000000E+03  0.7546771E-02  0.1280296E+00
         21   -1    0    0  501  502  0.00000000000E+00  0.00000000000E+00  0.49723614302E+03  0.49723614302E+03  0.00000000000E+00 0. -1.
         21   -1    0    0  502  503 -0.00000000000E+00 -0.00000000000E+00 -0.88618284584E+02  0.88618284584E+02  0.00000000000E+00 0.  1.
          6    1    1    2  501    0  0.10744226052E+03  0.29141932799E+02  0.26255357972E+03  0.33355130612E+03  0.17300000000E+03 0. -1.
         -6    1    1    2    0  503 -0.10744226052E+03 -0.29141932799E+02  0.14606427872E+03  0.25230312149E+03  0.17300000000E+03 0.  1.
</event>
<event>
 4    1  0.6092738E+000  0.1000000E+03  0.7546771E-02  0.1280296E+00
         21   -1    0    0  501  502  0.00000000000E+00  0.00000000000E+00  0.12705288613E+04  0.12705288613E+04  0.00000000000E+00 0. -1.
         21   -1    0    0  502  503 -0.00000000000E+00 -0.00000000000E+00 -0.34706413979E+02  0.34706413979E+02  0.00000000000E+00 0.  1.
          6    1    1    2  501    0 -0.92165916182E+01 -0.10618068934E+03  0.78257558169E+03  0.80852509263E+03  0.17300000000E+03 0. -1.
         -6    1    1    2    0  503  0.92165916182E+01  0.10618068934E+03  0.45324686567E+03  0.49671018269E+03  0.17300000000E+03 0.  1.
</event>
<event>
 4    1  0.6092738E+000  0.1000000E+03  0.7546771E-02  0.1280296E+00
         21   -1    0    0  501  502  0.00000000000E+00  0.00000000000E+00  0.44143144491E+03  0.44143144491E+03  0.00000000000E+00 0.  1.
         21   -1    0    0  502  503 -0.00000000000E+00 -0.00000000000E+00 -0.22228889758E+03  0.22228889758E+03  0.00000000000E+00 0.  1.
          6    1    1    2  501    0 -0.20189370694E+03  0.43387571111E+02  0.27892061558E+03  0.38777475424E+03  0.17300000000E+03 0.  1.
         -6    1    1    2    0  503  0.20189370694E+03 -0.43387571111E+02 -0.59778068247E+02  0.27594558825E+03  0.17300000000E+03 0.  1.
</event>
<event>
 4    1  0.6092738E+000  0.1000000E+03  0.7546771E-02  0.1280296E+00
         21   -1    0    0  501  502  0.00000000000E+00  0.00000000000E+00  0.96791481276E+03  0.96791481276E+03  0.00000000000E+00 0. -1.
         21   -1    0    0  502  503 -0.00000000000E+00 -0.00000000000E+00 -0.90565890543E+02  0.90565890543E+02  0.00000000000E+00 0. -1.
          6    1    1    2  501    0  0.18556710209E+03 -0.76103456096E+02  0.67517000123E+03  0.72526575541E+03  0.17300000000E+03 0. -1.
         -6    1    1    2    0  503 -0.18556710209E+03  0.76103456096E+02  0.20217892099E+03  0.33321494790E+03  0.17300000000E+03 0. -1.
</event>
<event>
 4    1  0.6092738E+000  0.1000000E+03  0.7546771E-02  0.1280296E+00
         21   -1    0    0  503  502  0.00000000000E+00  0.00000000000E+00  0.39171564693E+03  0.39171564693E+03  0.00000000000E+00 0. -1.
         21   -1    0    0  501  503 -0.00000000000E+00 -0.00000000000E+00 -0.15103599151E+03  0.15103599151E+03  0.00000000000E+00 0. -1.
          6    1    1    2  501    0  0.13990110217E+03  0.27131013643E+02  0.14933218751E+02  0.22463394960E+03  0.17300000000E+03 0.  1.
         -6    1    1    2    0  502 -0.13990110217E+03 -0.27131013643E+02  0.22574643667E+03  0.31811768885E+03  0.17300000000E+03 0.  1.
</event>
<event>
 4    1  0.6092738E+000  0.1000000E+03  0.7546771E-02  0.1280296E+00
         21   -1    0    0  503  502  0.00000000000E+00  0.00000000000E+00  0.24900780883E+03  0.24900780883E+03  0.00000000000E+00 0. -1.
         21   -1    0    0  501  503 -0.00000000000E+00 -0.00000000000E+00 -0.17468377601E+03  0.17468377601E+03  0.00000000000E+00 0. -1.
          6    1    1    2  501    0  0.71517005522E+02  0.89760131904E+02  0.57402256471E+02  0.21539633796E+03  0.17300000000E+03 0.  1.
         -6    1    1    2    0  502 -0.71517005522E+02 -0.89760131904E+02  0.16921776351E+02  0.20829524688E+03  0.17300000000E+03 0.  1.
</event>
<event>
 4    1  0.6092738E+000  0.1000000E+03  0.7546771E-02  0.1280296E+00
         21   -1    0    0  503  502  0.00000000000E+00  0.00000000000E+00  0.77839617216E+02  0.77839617216E+02  0.00000000000E+00 0. -1.
         21   -1    0    0  501  503 -0.00000000000E+00 -0.00000000000E+00 -0.46831215736E+03  0.46831215736E+03  0.00000000000E+00 0. -1.
          6    1    1    2  501    0 -0.25227008796E+02 -0.70351601313E+02 -0.23905198993E+03  0.30440204281E+03  0.17300000000E+03 0.  1.
         -6    1    1    2    0  502  0.25227008796E+02  0.70351601313E+02 -0.15142055022E+03  0.24174973177E+03  0.17300000000E+03 0.  1.
</event>
<event>
 4    1  0.6092738E+000  0.1000000E+03  0.7546771E-02  0.1280296E+00
         21   -1    0    0  503  502  0.00000000000E+00  0.00000000000E+00  0.36098824181E+02  0.36098824181E+02  0.00000000000E+00 0.  1.
         21   -1    0    0  501  503 -0.00000000000E+00 -0.00000000000E+00 -0.18300863946E+04  0.18300863946E+04  0.00000000000E+00 0. -1.
          6    1    1    2  501    0 -0.72734814335E+02  0.11540624959E+03 -0.13775940098E+04  0.13950997138E+04  0.17300000000E+03 0. -1.
         -6    1    1    2    0  502  0.72734814335E+02 -0.11540624959E+03 -0.41639356061E+03  0.47108550495E+03  0.17300000000E+03 0.  1.
</event>
<event>
 4    1  0.6092738E+000  0.1000000E+03  0.7546771E-02  0.1280296E+00
         21   -1    0    0  501  502  0.00000000000E+00  0.00000000000E+00  0.10875043116E+03  0.10875043116E+03  0.00000000000E+00 0. -1.
         21   -1    0    0  502  503 -0.00000000000E+00 -0.00000000000E+00 -0.64082023040E+03  0.64082023040E+03  0.00000000000E+00 0. -1.
          6    1    1    2  501    0  0.16252603118E+03  0.66091116924E+02 -0.13151632747E+03  0.27929964364E+03  0.17300000000E+03 0. -1.
         -6    1    1    2    0  503 -0.16252603118E+03 -0.66091116924E+02 -0.40055347177E+03  0.47027101792E+03  0.17300000000E+03 0. -1.
</event>
<event>
 4    1  0.6092738E+000  0.1000000E+03  0.7546771E-02  0.1280296E+00
         21   -1    0    0  501  502  0.00000000000E+00  0.00000000000E+00  0.10647528122E+03  0.10647528122E+03  0.00000000000E+00 0. -1.
         21   -1    0    0  502  503 -0.00000000000E+00 -0.00000000000E+00 -0.78100826168E+03  0.78100826168E+03  0.00000000000E+00 0.  1.
          6    1    1    2  501    0  0.10632558108E+02 -0.14139594588E+03 -0.57210860984E+02  0.23088513901E+03  0.17300000000E+03 0.  1.
         -6    1    1    2    0  503 -0.10632558108E+02  0.14139594588E+03 -0.61732211947E+03  0.65659840389E+03  0.17300000000E+03 0. -1.
</event>
<event>
 4    1  0.6092738E+000  0.1000000E+03  0.7546771E-02  0.1280296E+00
         21   -1    0    0  501  502  0.00000000000E+00  0.00000000000E+00  0.13715677454E+03  0.13715677454E+03  0.00000000000E+00 0. -1.
         21   -1    0    0  502  503 -0.00000000000E+00 -0.00000000000E+00 -0.28590069987E+03  0.28590069987E+03  0.00000000000E+00 0.  1.
          6    1    1    2  501    0  0.57729252714E+00 -0.33407984783E+01  0.28490470667E+02  0.17536305517E+03  0.17300000000E+03 0.  1.
         -6    1    1    2    0  503 -0.57729252714E+00  0.33407984783E+01 -0.17723439600E+03  0.24769441925E+03  0.17300000000E+03 0. -1.
</event>
<event>
 4    1  0.6092738E+000  0.1000000E+03  0.7546771E-02  0.1280296E+00
         21   -1    0    0  503  502  0.00000000000E+00  0.00000000000E+00  0.11154974818E+03  0.11154974818E+03  0.00000000000E+00 0. -1.
         21   -1    0    0  501  503 -0.00000000000E+00 -0.00000000000E+00 -0.45604164891E+03  0.45604164891E+03  0.00000000000E+00 0.  1.
          6    1    1    2  501    0 -0.13056297689E+03 -0.62106214446E+02 -0.16444290299E+03  0.27905974477E+03  0.17300000000E+03 0. -1.
         -6    1    1    2    0  502  0.13056297689E+03  0.62106214446E+02 -0.18004899774E+03  0.28853165232E+03  0.17300000000E+03 0.  1.
</event>
<event>
 4    1  0.6092738E+000  0.1000000E+03  0.7546771E-02  0.1280296E+00
         21   -1    0    0  503  502  0.00000000000E+00  0.00000000000E+00  0.11902409052E+04  0.11902409052E+04  0.00000000000E+00 0. -1.
         21   -1    0    0  501  503 -0.00000000000E+00 -0.00000000000E+00 -0.50781062682E+02  0.50781062682E+02  0.00000000000E+00 0.  1.
          6    1    1    2  501    0  0.15460839449E+03  0.25006684297E+02  0.37449265582E+03  0.44125144665E+03  0.17300000000E+03 0.  1.
         -6    1    1    2    0  502 -0.15460839449E+03 -0.25006684297E+02  0.76496718665E+03  0.79977052118E+03  0.17300000000E+03 0. -1.
</event>
<event>
 4    1  0.6092738E+000  0.1000000E+03  0.7546771E-02  0.1280296E+00
         21   -1    0    0  503  502  0.00000000000E+00  0.00000000000E+00  0.19015007837E+04  0.19015007837E+04  0.00000000000E+00 0. -1.
         21   -1    0    0  501  503 -0.00000000000E+00 -0.00000000000E+00 -0.30938590247E+02  0.30938590247E+02  0.00000000000E+00 0.  1.
          6    1    1    2  501    0  0.14516477870E+03 -0.23056217991E+02  0.59500594253E+03  0.63684022628E+03  0.17300000000E+03 0.  1.
         -6    1    1    2    0  502 -0.14516477870E+03  0.23056217991E+02  0.12755562509E+04  0.12955991477E+04  0.17300000000E+03 0. -1.
</event>
<event>
 4    1  0.6092738E+000  0.1000000E+03  0.7546771E-02  0.1280296E+00
         21   -1    0    0  503  502  0.00000000000E+00  0.00000000000E+00  0.57728312016E+02  0.57728312016E+02  0.00000000000E+00 0.  1.
         21   -1    0    0  501  503 -0.00000000000E+00 -0.00000000000E+00 -0.86279503492E+03  0.86279503492E+03  0.00000000000E+00 0. -1.
          6    1    1    2  501    0 -0.95171753364E+02 -0.99292877217E+02 -0.33856934588E+03  0.40432034338E+03  0.17300000000E+03 0. -1.
         -6    1    1    2    0  502  0.95171753364E+02  0.99292877217E+02 -0.46649737702E+03  0.51620300355E+03  0.17300000000E+03 0.  1.
</event>
<event>
 4    1  0.6092738E+000  0.1000000E+03  0.7546771E-02  0.1280296E+00
         21   -1    0    0  503  502  0.00000000000E+00  0.00000000000E+00  0.31641823076E+02  0.31641823076E+02  0.00000000000E+00 0.  1.
         21   -1    0    0  501  503 -0.00000000000E+00 -0.00000000000E+00 -0.13061256717E+04  0.13061256717E+04  0.00000000000E+00 0. -1.
          6    1    1    2  501    0  0.43945525829E+02 -0.91000504131E+02 -0.75059513420E+03  0.77687473667E+03  0.17300000000E+03 0. -1.
         -6    1    1    2    0  502 -0.43945525829E+02  0.91000504131E+02 -0.52388871440E+03  0.56089275808E+03  0.17300000000E+03 0.  1.
</event>
<event>
 4    1  0.6092738E+000  0.1000000E+03  0.7546771E-02  0.1280296E+00
         21   -1    0    0  503  502  0.00000000000E+00  0.00000000000E+00  0.26461343979E+03  0.26461343979E+03  0.00000000000E+00 0.  1.
         21   -1    0    0  501  503 -0.00000000000E+00 -0.00000000000E+00 -0.13192242611E+03  0.13192242611E+03  0.00000000000E+00 0. -1.
          6    1    1    2  501    0 -0.43729288069E+02  0.54542094677E+02  0.56147382192E+02  0.19485538036E+03  0.17300000000E+03 0. -1.
         -6    1    1    2    0  502  0.43729288069E+02 -0.54542094677E+02  0.76543631489E+02  0.20168048554E+03  0.17300000000E+03 0.  1.
</event>
<event>
 4    1  0.6092738E+000  0.1000000E+03  0.7546771E-02  0.1280296E+00
         21   -1    0    0  503  502  0.00000000000E+00  0.00000000000E+00  0.11422917770E+03  0.11422917770E+03  0.00000000000E+00 0.  1.
         21   -1    0    0  501  503 -0.00000000000E+00 -0.00000000000E+00 -0.61976121012E+03  0.61976121012E+03  0.00000000000E+00 0. -1.
          6    1    1    2  501    0 -0.10354629324E+03  0.12492177392E+03 -0.41907660039E+03  0.48154073705E+03  0.17300000000E+03 0. -1.
         -6    1    1    2    0  502  0.10354629324E+03 -0.12492177392E+03 -0.86455432026E+02  0.25244965076E+03  0.17300000000E+03 0.  1.
</event>
<event>
 4    1  0.6092738E+000  0.1000000E+03  0.7546771E-02  0.1280296E+00
         21   -1    0    0  501  502  0.00000000000E+00  0.00000000000E+00  0.11976609921E+03  0.11976609921E+03  0.00000000000E+00 0.  1.
         21   -1    0    0  502  503 -0.00000000000E+00 -0.00000000000E+00 -0.26119648217E+03  0.26119648217E+03  0.00000000000E+00 0.  1.
          6    1    1    2  501    0 -0.15211515297E+02 -0.12166700923E+02 -0.37103089124E+02  0.17800297197E+03  0.17300000000E+03 0.  1.
         -6    1    1    2    0  503  0.15211515297E+02  0.12166700923E+02 -0.10432729384E+03  0.20295960940E+03  0.17300000000E+03 0.  1.
</event>
<event>
 4    1  0.6092738E+000  0.1000000E+03  0.7546771E-02  0.1280296E+00
         21   -1    0    0  503  502  0.00000000000E+00  0.00000000000E+00  0.51136136041E+03  0.51136136041E+03  0.00000000000E+00 0.  1.
         21   -1    0    0  501  503 -0.00000000000E+00 -0.00000000000E+00 -0.78702881116E+02  0.78702881116E+02  0.00000000000E+00 0. -1.
          6    1    1    2  501    0  0.46639336713E+01  0.78793957948E+02  0.12231816971E+03  0.22609947971E+03  0.17300000000E+03 0. -1.
         -6    1    1    2    0  502 -0.46639336713E+01 -0.78793957948E+02  0.31034030959E+03  0.36396476182E+03  0.17300000000E+03 0.  1.
</event>
<event>
 4    1  0.6092738E+000  0.1000000E+03  0.7546771E-02  0.1280296E+00
         21   -1    0    0  503  502  0.00000000000E+00  0.00000000000E+00  0.91576180364E+02  0.91576180364E+02  0.00000000000E+00 0.  1.
         21   -1    0    0  501  503 -0.00000000000E+00 -0.00000000000E+00 -0.42048163890E+03  0.42048163890E+03  0.00000000000E+00 0. -1.
          6    1    1    2  501    0 -0.70065396708E+02 -0.12229912629E+02 -0.87060903374E+02  0.20631851947E+03  0.17300000000E+03 0. -1.
         -6    1    1    2    0  502  0.70065396708E+02  0.12229912629E+02 -0.24184455516E+03  0.30573929980E+03  0.17300000000E+03 0.  1.
</event>
<event>
 4    1  0.6092738E+000  0.1000000E+03  0.7546771E-02  0.1280296E+00
         21   -1    0    0  503  502  0.00000000000E+00  0.00000000000E+00  0.74322187928E+02  0.74322187928E+02  0.00000000000E+00 0.  1.
         21   -1    0    0  501  503 -0.00000000000E+00 -0.00000000000E+00 -0.24387203457E+04  0.24387203457E+04  0.00000000000E+00 0. -1.
          6    1    1    2  501    0 -0.48863136710E+02 -0.77555017251E+02 -0.66426808170E+02  0.20674599796E+03  0.17300000000E+03 0. -1.
         -6    1    1    2    0  502  0.48863136710E+02  0.77555017251E+02 -0.22979713496E+04  0.23062965357E+04  0.17300000000E+03 0.  1.
</event>
<event>
 4    1  0.6092738E+000  0.1000000E+03  0.7546771E-02  0.1280296E+00
         21   -1    0    0  503  502  0.00000000000E+00  0.00000000000E+00  0.32117062212E+03  0.32117062212E+03  0.00000000000E+00 0. -1.
         21   -1    0    0  501  503 -0.00000000000E+00 -0.00000000000E+00 -0.13086897469E+03  0.13086897469E+03  0.00000000000E+00 0. -1.
          6    1    1    2  501    0  0.15294035843E+02 -0.26539700092E+02  0.21163589587E+03  0.27505820409E+03  0.17300000000E+03 0.  1.
         -6    1    1    2    0  502 -0.15294035843E+02  0.26539700092E+02 -0.21334248449E+02  0.17698139272E+03  0.17300000000E+03 0.  1.
</event>
<event>
 4    1  0.6092738E+000  0.1000000E+03  0.7546771E-02  0.1280296E+00
         21   -1    0    0  503  502  0.00000000000E+00  0.00000000000E+00  0.26950297975E+03  0.26950297975E+03  0.00000000000E+00 0. -1.
         21   -1    0    0  501  503 -0.00000000000E+00 -0.00000000000E+00 -0.33955308513E+03  0.33955308513E+03  0.00000000000E+00 0. -1.
          6    1    1    2  501    0  0.23846757017E+02 -0.55351064265E+02 -0.27735953952E+03  0.33239994329E+03  0.17300000000E+03 0.  1.
         -6    1    1    2    0  502 -0.23846757017E+02  0.55351064265E+02  0.20730943413E+03  0.27665612160E+03  0.17300000000E+03 0.  1.
</event>
<event>
 4    1  0.6092738E+000  0.1000000E+03  0.7546771E-02  0.1280296E+00
         21   -1    0    0  503  502  0.00000000000E+00  0.00000000000E+00  0.64648799996E+02  0.64648799996E+02  0.00000000000E+00 0. -1.
         21   -1    0    0  501  503 -0.00000000000E+00 -0.00000000000E+00 -0.76529032418E+03  0.76529032418E+03  0.00000000000E+00 0. -1.
          6    1    1    2  501    0  0.10282013473E+03 -0.40992973891E+02 -0.50965046959E+03  0.54947702879E+03  0.17300000000E+03 0.  1.
         -6    1    1    2    0  502 -0.10282013473E+03  0.40992973891E+02 -0.19099105460E+03  0.28046209539E+03  0.17300000000E+03 0.  1.
</event>
<event>
 4    1  0.6092738E+000  0.1000000E+03  0.7546771E-02  0.1280296E+00
         21   -1    0    0  501  502  0.00000000000E+00  0.00000000000E+00  0.30616461831E+03  0.30616461831E+03  0.00000000000E+00 0.  1.
         21   -1    0    0  502  503 -0.00000000000E+00 -0.00000000000E+00 -0.32008758071E+03  0.32008758071E+03  0.00000000000E+00 0. -1.
          6    1    1    2  501    0  0.25739223454E+03 -0.28479624522E+02 -0.38728434918E+02  0.31383234869E+03  0.17300000000E+03 0.  1.
         -6    1    1    2    0  503 -0.25739223454E+03  0.28479624522E+02  0.24805472525E+02  0.31241985033E+03  0.17300000000E+03 0. -1.
</event>
<event>
 4    1  0.6092738E+000  0.1000000E+03  0.7546771E-02  0.1280296E+00
         21   -1    0    0  501  502  0.00000000000E+00  0.00000000000E+00  0.14560520826E+03  0.14560520826E+03  0.00000000000E+00 0.  1.
         21   -1    0    0  502  503 -0.00000000000E+00 -0.00000000000E+00 -0.56504278988E+03  0.56504278988E+03  0.00000000000E+00 0. -1.
          6    1    1    2  501    0  0.83935398110E+02 -0.81108648067E+02  0.34042862629E+02  0.21145136638E+03  0.17300000000E+03 0.  1.
         -6    1    1    2    0  503 -0.83935398110E+02  0.81108648067E+02 -0.45348044425E+03  0.49919663177E+03  0.17300000000E+03 0. -1.
</event>
<event>
 4    1  0.6092738E+000  0.1000000E+03  0.7546771E-02  0.1280296E+00
         21   -1    0    0  501  502  0.00000000000E+00  0.00000000000E+00  0.13870136216E+04  0.13870136216E+04  0.00000000000E+00 0.  1.
         21   -1    0    0  502  503 -0.00000000000E+00 -0.00000000000E+00 -0.62283788749E+02  0.62283788749E+02  0.00000000000E+00 0.  1.
          6    1    1    2  501    0  0.10526738016E+03  0.14974479796E+03  0.10359037960E+04  0.10660817982E+04  0.17300000000E+03 0.  1.
         -6    1    1    2    0  503 -0.10526738016E+03 -0.14974479796E+03  0.28882603681E+03  0.38321561213E+03  0.17300000000E+03 0.  1.
</event>
<event>
 4    1  0.6092738E+000  0.1000000E+03  0.7546771E-02  0.1280296E+00
         21   -1    0    0  501  502  0.00000000000E+00  0.00000000000E+00  0.80933305405E+02  0.80933305405E+02  0.00000000000E+00 0.  1.
         21   -1    0    0  502  503 -0.00000000000E+00 -0.00000000000E+00 -0.92446569854E+03  0.92446569854E+03  0.00000000000E+00 0.  1.
          6    1    1    2  501    0 -0.71313091234E+02 -0.10126346471E+03 -0.10583892896E+03  0.23763569839E+03  0.17300000000E+03 0.  1.
         -6    1    1    2    0  503  0.71313091234E+02  0.10126346471E+03 -0.73769346417E+03  0.76776330555E+03  0.17300000000E+03 0.  1.
</event>
<event>
 4    1  0.6092738E+000  0.1000000E+03  0.7546771E-02  0.1280296E+00
         21   -1    0    0  503  502  0.00000000000E+00  0.00000000000E+00  0.33569650737E+03  0.33569650737E+03  0.00000000000E+00 0.  1.
         21   -1    0    0  501  503 -0.00000000000E+00 -0.00000000000E+00 -0.19505871295E+03  0.19505871295E+03  0.00000000000E+00 0.  1.
          6    1    1    2  501    0  0.10612837724E+03 -0.14084897971E+03  0.11387599898E+01  0.24704648209E+03  0.17300000000E+03 0.  1.
         -6    1    1    2    0  502 -0.10612837724E+03  0.14084897971E+03  0.13949903442E+03  0.28370873823E+03  0.17300000000E+03 0.  1.
</event>
<event>
 4    1  0.6092738E+000  0.1000000E+03  0.7546771E-02  0.1280296E+00
         21   -1    0    0  503  502  0.00000000000E+00  0.00000000000E+00  0.50034698467E+03  0.50034698467E+03  0.00000000000E+00 0.  1.
         21   -1    0    0  501  503 -0.00000000000E+00 -0.00000000000E+00 -0.44340683245E+03  0.44340683245E+03  0.00000000000E+00 0.  1.
          6    1    1    2  501    0 -0.73300151256E+02 -0.25931095923E+03 -0.31757773998E+03  0.45099856617E+03  0.17300000000E+03 0.  1.
         -6    1    1    2    0  502  0.73300151256E+02  0.25931095923E+03  0.37451789221E+03  0.49275525095E+03  0.17300000000E+03 0.  1.
</event>
<event>
 4    1  0.6092738E+000  0.1000000E+03  0.7546771E-02  0.1280296E+00
         21   -1    0    0  503  502  0.00000000000E+00  0.00000000000E+00  0.93489697188E+02  0.93489697188E+02  0.00000000000E+00 0.  1.
         21   -1    0    0  501  503 -0.00000000000E+00 -0.00000000000E+00 -0.50386284985E+03  0.50386284985E+03  0.00000000000E+00 0.  1.
          6    1    1    2  501    0 -0.33292716423E+02 -0.40266082087E+02 -0.37059394973E+03  0.41230891078E+03  0.17300000000E+03 0.  1.
         -6    1    1    2    0  502  0.33292716423E+02  0.40266082087E+02 -0.39779202932E+02  0.18504363626E+03  0.17300000000E+03 0.  1.
</event>
<event>
 4    1  0.6092738E+000  0.1000000E+03  0.7546771E-02  0.1280296E+00
         21   -1    0    0  503  502  0.00000000000E+00  0.00000000000E+00  0.79175108092E+02  0.79175108092E+02  0.00000000000E+00 0.  1.
         21   -1    0    0  501  503 -0.00000000000E+00 -0.00000000000E+00 -0.39031553233E+03  0.39031553233E+03  0.00000000000E+00 0.  1.
          6    1    1    2  501    0  0.18251740866E+01 -0.23937083128E+02 -0.12893145262E+03  0.21709130495E+03  0.17300000000E+03 0.  1.
         -6    1    1    2    0  502 -0.18251740866E+01  0.23937083128E+02 -0.18220897162E+03  0.25239933547E+03  0.17300000000E+03 0.  1.
</event>
<event>
 4    1  0.6092738E+000  0.1000000E+03  0.7546771E-02  0.1280296E+00
         21   -1    0    0  503  502  0.00000000000E+00  0.00000000000E+00  0.15494292839E+03  0.15494292839E+03  0.00000000000E+00 0.  1.
         21   -1    0    0  501  503 -0.00000000000E+00 -0.00000000000E+00 -0.25598664653E+03  0.25598664653E+03  0.00000000000E+00 0. -1.
          6    1    1    2  501    0  0.57818256590E+02  0.28408787802E+02 -0.12761711448E+03  0.22442178577E+03  0.17300000000E+03 0. -1.
         -6    1    1    2    0  502 -0.57818256590E+02 -0.28408787802E+02  0.26573396341E+02  0.18650778915E+03  0.17300000000E+03 0.  1.
</event>
<event>
 4    1  0.6092738E+000  0.1000000E+03  0.7546771E-02  0.1280296E+00
         21   -1    0    0  503  502  0.00000000000E+00  0.00000000000E+00  0.13724208879E+04  0.13724208879E+04  0.00000000000E+00 0.  1.
         21   -1    0    0  501  503 -0.00000000000E+00 -0.00000000000E+00 -0.30706850448E+02  0.30706850448E+02  0.00000000000E+00 0.  1.
          6    1    1    2  501    0  0.48397737768E+02 -0.35053944184E+02  0.35314898382E+03  0.39776164319E+03  0.17300000000E+03 0.  1.
         -6    1    1    2    0  502 -0.48397737768E+02  0.35053944184E+02  0.98856505368E+03  0.10053660952E+04  0.17300000000E+03 0.  1.
</event>
<event>
 4    1  0.6092738E+000  0.1000000E+03  0.7546771E-02  0.1280296E+00
         21   -1    0    0  503  502  0.00000000000E+00  0.00000000000E+00  0.13835460056E+03  0.13835460056E+03  0.00000000000E+00 0.  1.
         21   -1    0    0  501  503 -0.00000000000E+00 -0.00000000000E+00 -0.74647467055E+03  0.74647467055E+03  0.00000000000E+00 0.  1.
          6    1    1    2  501    0  0.14536054036E+03  0.79818355071E+02 -0.59883319699E+03  0.64500453822E+03  0.17300000000E+03 0.  1.
         -6    1    1    2    0  502 -0.14536054036E+03 -0.79818355071E+02 -0.92868729989E+01  0.23982473290E+03  0.17300000000E+03 0.  1.
</event>
<event>
 4    1  0.6092738E+000  0.1000000E+03  0.7546771E-02  0.1280296E+00
         21   -1    0    0  503  502  0.00000000000E+00  0.00000000000E+00  0.15978426839E+03  0.15978426839E+03  0.00000000000E+00 0.  1.
         21   -1    0    0  501  503 -0.00000000000E+00 -0.00000000000E+00 -0.51323422578E+03  0.51323422578E+03  0.00000000000E+00 0.  1.
          6    1    1    2  501    0  0.82229304198E+01 -0.27685917692E+02 -0.44273140351E+03  0.47620817116E+03  0.17300000000E+03 0.  1.
         -6    1    1    2    0  502 -0.82229304198E+01  0.27685917692E+02  0.89281446122E+02  0.19681032301E+03  0.17300000000E+03 0.  1.
</event>
<event>
 4    1  0.6092738E+000  0.1000000E+03  0.7546771E-02  0.1280296E+00
         21   -1    0    0  501  502  0.00000000000E+00  0.00000000000E+00  0.10053746301E+03  0.10053746301E+03  0.00000000000E+00 0.  1.
         21   -1    0    0  502  503 -0.00000000000E+00 -0.00000000000E+00 -0.83357973124E+03  0.83357973124E+03  0.00000000000E+00 0. -1.
          6    1    1    2  501    0 -0.81305099771E+02 -0.38622374871E+02 -0.21340048890E+02  0.19618003154E+03  0.17300000000E+03 0.  1.
         -6    1    1    2    0  503  0.81305099771E+02  0.38622374871E+02 -0.71170221934E+03  0.73793716271E+03  0.17300000000E+03 0. -1.
</event>
<event>
 4    1  0.6092738E+000  0.1000000E+03  0.7546771E-02  0.1280296E+00
         21   -1    0    0  501  502  0.00000000000E+00  0.00000000000E+00  0.29492799038E+03  0.29492799038E+03  0.00000000000E+00 0.  1.
         21   -1    0    0  502  503 -0.00000000000E+00 -0.00000000000E+00 -0.17452149565E+03  0.17452149565E+03  0.00000000000E+00 0. -1.
          6    1    1    2  501    0  0.90459159345E+02  0.68558968061E+02  0.15647798617E+03  0.25941771676E+03  0.17300000000E+03 0.  1.
         -6    1    1    2    0  503 -0.90459159345E+02 -0.68558968061E+02 -0.36071491445E+02  0.21003176928E+03  0.17300000000E+03 0. -1.
</event>
<event>
 4    1  0.6092738E+000  0.1000000E+03  0.7546771E-02  0.1280296E+00
         21   -1    0    0  503  502  0.00000000000E+00  0.00000000000E+00  0.31221567224E+03  0.31221567224E+03  0.00000000000E+00 0.  1.
         21   -1    0    0  501  503 -0.00000000000E+00 -0.00000000000E+00 -0.24233613259E+03  0.24233613259E+03  0.00000000000E+00 0.  1.
          6    1    1    2  501    0  0.20914963628E+03 -0.43946994038E+02  0.27313938359E+02  0.27631496497E+03  0.17300000000E+03 0.  1.
         -6    1    1    2    0  502 -0.20914963628E+03  0.43946994038E+02  0.42565601292E+02  0.27823683986E+03  0.17300000000E+03 0.  1.
</event>
<event>
 4    1  0.6092738E+000  0.1000000E+03  0.7546771E-02  0.1280296E+00
         21   -1    0    0  503  502  0.00000000000E+00  0.00000000000E+00  0.34994683296E+03  0.34994683296E+03  0.00000000000E+00 0.  1.
         21   -1    0    0  501  503 -0.00000000000E+00 -0.00000000000E+00 -0.55365751495E+03  0.55365751495E+03  0.00000000000E+00 0.  1.
          6    1    1    2  501    0  0.25960296505E+03  0.29449105946E+02 -0.41915269140E+03  0.52333443229E+03  0.17300000000E+03 0.  1.
         -6    1    1    2    0  502 -0.25960296505E+03 -0.29449105946E+02  0.21544200942E+03  0.38026991562E+03  0.17300000000E+03 0.  1.
</event>
<event>
 4    1  0.6092738E+000  0.1000000E+03  0.7546771E-02  0.1280296E+00
         21   -1    0    0  503  502  0.00000000000E+00  0.00000000000E+00  0.45020478031E+03  0.45020478031E+03  0.00000000000E+00 0.  1.
         21   -1    0    0  501  503 -0.00000000000E+00 -0.00000000000E+00 -0.11553876674E+03  0.11553876674E+03  0.00000000000E+00 0.  1.
          6    1    1    2  501    0  0.11126442204E+03 -0.85220929997E+01  0.45591138057E+02  0.21085528106E+03  0.17300000000E+03 0.  1.
         -6    1    1    2    0  502 -0.11126442204E+03  0.85220929997E+01  0.28907487551E+03  0.35488826598E+03  0.17300000000E+03 0.  1.
</event>
<event>
 4    1  0.6092738E+000  0.1000000E+03  0.7546771E-02  0.1280296E+00
         21   -1    0    0  501  502  0.00000000000E+00  0.00000000000E+00  0.75263369857E+02  0.75263369857E+02  0.00000000000E+00 0.  1.
         21   -1    0    0  502  503 -0.00000000000E+00 -0.00000000000E+00 -0.30143909611E+04  0.30143909611E+04  0.00000000000E+00 0. -1.
          6    1    1    2  501    0  0.70474492160E+02  0.31309608174E+03 -0.47545709997E+03  0.59915295573E+03  0.17300000000E+03 0.  1.
         -6    1    1    2    0  503 -0.70474492160E+02 -0.31309608174E+03 -0.24636704913E+04  0.24905013752E+04  0.17300000000E+03 0. -1.
</event>
<event>
 4    1  0.6092738E+000  0.1000000E+03  0.7546771E-02  0.1280296E+00
         21   -1    0    0  501  502  0.00000000000E+00  0.00000000000E+00  0.20141840182E+03  0.20141840182E+03  0.00000000000E+00 0.  1.
         21   -1    0    0  502  503 -0.00000000000E+00 -0.00000000000E+00 -0.67930723205E+03  0.67930723205E+03  0.00000000000E+00 0. -1.
          6    1    1    2  501    0 -0.27115043558E+02 -0.47626559970E+02  0.14478047355E+03  0.23215059837E+03  0.17300000000E+03 0.  1.
         -6    1    1    2    0  503  0.27115043558E+02  0.47626559970E+02 -0.62266930378E+03  0.64857503550E+03  0.17300000000E+03 0. -1.
</event>
<event>
 4    1  0.6092738E+000  0.1000000E+03  0.7546771E-02  0.1280296E+00
         21   -1    0    0  501  502  0.00000000000E+00  0.00000000000E+00  0.21573957519E+03  0.21573957519E+03  0.00000000000E+00 0.  1.
         21   -1    0    0  502  503 -0.00000000000E+00 -0.00000000000E+00 -0.21710059374E+03  0.21710059374E+03  0.00000000000E+00 0.  1.
          6    1    1    2  501    0  0.73444219629E+01  0.24484359269E+02  0.12681429925E+03  0.21601919099E+03  0.17300000000E+03 0.  1.
         -6    1    1    2    0  503 -0.73444219629E+01 -0.24484359269E+02 -0.12817531779E+03  0.21682097794E+03  0.17300000000E+03 0.  1.
</event>
<event>
 4    1  0.6092738E+000  0.1000000E+03  0.7546771E-02  0.1280296E+00
         21   -1    0    0  501  502  0.00000000000E+00  0.00000000000E+00  0.12277891782E+03  0.12277891782E+03  0.00000000000E+00 0.  1.
         21   -1    0    0  502  503 -0.00000000000E+00 -0.00000000000E+00 -0.61931946177E+03  0.61931946177E+03  0.00000000000E+00 0.  1.
          6    1    1    2  501    0 -0.16333871279E+03 -0.11413856209E+03 -0.35594447531E+03  0.44309436461E+03  0.17300000000E+03 0.  1.
         -6    1    1    2    0  503  0.16333871279E+03  0.11413856209E+03 -0.14059606864E+03  0.29900401497E+03  0.17300000000E+03 0.  1.
</event>
<event>
 4    1  0.6092738E+000  0.1000000E+03  0.7546771E-02  0.1280296E+00
         21   -1    0    0  501  502  0.00000000000E+00  0.00000000000E+00  0.75394472286E+03  0.75394472286E+03  0.00000000000E+00 0.  1.
         21   -1    0    0  502  503 -0.00000000000E+00 -0.00000000000E+00 -0.52774830881E+02  0.52774830881E+02  0.00000000000E+00 0.  1.
          6    1    1    2  501    0  0.19203326114E+02  0.85908343241E+02  0.44349950587E+03  0.48411757134E+03  0.17300000000E+03 0.  1.
         -6    1    1    2    0  503 -0.19203326114E+02 -0.85908343241E+02  0.25767038611E+03  0.32260198240E+03  0.17300000000E+03 0.  1.
</event>
<event>
 4    1  0.6092738E+000  0.1000000E+03  0.7546771E-02  0.1280296E+00
         21   -1    0    0  503  502  0.00000000000E+00  0.00000000000E+00  0.18153134286E+03  0.18153134286E+03  0.00000000000E+00 0. -1.
         21   -1    0    0  501  503 -0.00000000000E+00 -0.00000000000E+00 -0.76610312922E+03  0.76610312922E+03  0.00000000000E+00 0. -1.
          6    1    1    2  501    0  0.17707348477E+02 -0.18544179971E+02 -0.71076796765E+03  0.73196826477E+03  0.17300000000E+03 0. -1.
         -6    1    1    2    0  502 -0.17707348477E+02  0.18544179971E+02  0.12619618129E+03  0.21566620730E+03  0.17300000000E+03 0. -1.
</event>
<event>
 4    1  0.6092738E+000  0.1000000E+03  0.7546771E-02  0.1280296E+00
         21   -1    0    0  503  502  0.00000000000E+00  0.00000000000E+00  0.15893086078E+03  0.15893086078E+03  0.00000000000E+00 0.  1.
         21   -1    0    0  501  503 -0.00000000000E+00 -0.00000000000E+00 -0.39167167209E+03  0.39167167209E+03  0.00000000000E+00 0.  1.
          6    1    1    2  501    0 -0.13757023476E+03 -0.29041432111E+02 -0.23998726528E+03  0.32755436460E+03  0.17300000000E+03 0.  1.
         -6    1    1    2    0  502  0.13757023476E+03  0.29041432111E+02  0.72464539653E+01  0.22304816827E+03  0.17300000000E+03 0.  1.
</event>
<event>
 4    1  0.6092738E+000  0.1000000E+03  0.7546771E-02  0.1280296E+00
         21   -1    0    0  501  502  0.00000000000E+00  0.00000000000E+00  0.58247819860E+03  0.58247819860E+03  0.00000000000E+00 0. -1.
         21   -1    0    0  502  503 -0.00000000000E+00 -0.00000000000E+00 -0.93858476413E+02  0.93858476413E+02  0.00000000000E+00 0. -1.
          6    1    1    2  501    0  0.96538839362E+02  0.11662111927E+03  0.18258713381E+03  0.29357672659E+03  0.17300000000E+03 0. -1.
         -6    1    1    2    0  503 -0.96538839362E+02 -0.11662111927E+03  0.30603258839E+03  0.38275994843E+03  0.17300000000E+03 0. -1.
</event>
<event>
 4    1  0.6092738E+000  0.1000000E+03  0.7546771E-02  0.1280296E+00
         21   -1    0    0  503  502  0.00000000000E+00  0.00000000000E+00  0.21104086565E+04  0.21104086565E+04  0.00000000000E+00 0. -1.
         21   -1    0    0  501  503 -0.00000000000E+00 -0.00000000000E+00 -0.77519263908E+02  0.77519263908E+02  0.00000000000E+00 0. -1.
          6    1    1    2  501    0  0.28952830498E+03 -0.20365153676E+03  0.12638556630E+04  0.13238431647E+04  0.17300000000E+03 0. -1.
         -6    1    1    2    0  502 -0.28952830498E+03  0.20365153676E+03  0.76903372963E+03  0.86408475575E+03  0.17300000000E+03 0. -1.
</event>
<event>
 4    1  0.6092738E+000  0.1000000E+03  0.7546771E-02  0.1280296E+00
         21   -1    0    0  503  502  0.00000000000E+00  0.00000000000E+00  0.23095002715E+03  0.23095002715E+03  0.00000000000E+00 0. -1.
         21   -1    0    0  501  503 -0.00000000000E+00 -0.00000000000E+00 -0.41232909043E+03  0.41232909043E+03  0.00000000000E+00 0. -1.
          6    1    1    2  501    0 -0.31447852188E+02  0.83024753975E+02 -0.34043993812E+03  0.39205921574E+03  0.17300000000E+03 0. -1.
         -6    1    1    2    0  502  0.31447852188E+02 -0.83024753975E+02  0.15906087484E+03  0.25121990185E+03  0.17300000000E+03 0. -1.
</event>
<event>
 4    1  0.6092738E+000  0.1000000E+03  0.7546771E-02  0.1280296E+00
         21   -1    0    0  503  502  0.00000000000E+00  0.00000000000E+00  0.13457769504E+03  0.13457769504E+03  0.00000000000E+00 0.  1.
         21   -1    0    0  501  503 -0.00000000000E+00 -0.00000000000E+00 -0.11969378833E+04  0.11969378833E+04  0.00000000000E+00 0.  1.
          6    1    1    2  501    0 -0.13992937656E+03  0.11972765102E+03 -0.10484415653E+04  0.10784589268E+04  0.17300000000E+03 0.  1.
         -6    1    1    2    0  502  0.13992937656E+03 -0.11972765102E+03 -0.13918622938E+02  0.25305665157E+03  0.17300000000E+03 0.  1.
</event>
<event>
 4    1  0.6092738E+000  0.1000000E+03  0.7546771E-02  0.1280296E+00
         21   -1    0    0  503  502  0.00000000000E+00  0.00000000000E+00  0.33062569974E+02  0.33062569974E+02  0.00000000000E+00 0.  1.
         21   -1    0    0  501  503 -0.00000000000E+00 -0.00000000000E+00 -0.21721434774E+04  0.21721434774E+04  0.00000000000E+00 0.  1.
          6    1    1    2  501    0  0.63919906825E+02  0.17570886182E+03 -0.14120081077E+04  0.14348014688E+04  0.17300000000E+03 0.  1.
         -6    1    1    2    0  502 -0.63919906825E+02 -0.17570886182E+03 -0.72707279966E+03  0.77040457853E+03  0.17300000000E+03 0.  1.
</event>
<event>
 4    1  0.6092738E+000  0.1000000E+03  0.7546771E-02  0.1280296E+00
         21   -1    0    0  503  502  0.00000000000E+00  0.00000000000E+00  0.26505712434E+04  0.26505712434E+04  0.00000000000E+00 0.  1.
         21   -1    0    0  501  503 -0.00000000000E+00 -0.00000000000E+00 -0.19715322170E+02  0.19715322170E+02  0.00000000000E+00 0.  1.
          6    1    1    2  501    0  0.26889218036E+02 -0.10991400074E+03  0.74544725892E+03  0.77357917076E+03  0.17300000000E+03 0.  1.
         -6    1    1    2    0  502 -0.26889218036E+02  0.10991400074E+03  0.18854086623E+04  0.18967073948E+04  0.17300000000E+03 0.  1.
</event>
<event>
 4    1  0.6092738E+000  0.1000000E+03  0.7546771E-02  0.1280296E+00
         21   -1    0    0  503  502  0.00000000000E+00  0.00000000000E+00  0.10085888417E+03  0.10085888417E+03  0.00000000000E+00 0. -1.
         21   -1    0    0  501  503 -0.00000000000E+00 -0.00000000000E+00 -0.11674252801E+04  0.11674252801E+04  0.00000000000E+00 0. -1.
          6    1    1    2  501    0 -0.23303663437E+03  0.17965060859E+03 -0.46831684132E+03  0.57950847965E+03  0.17300000000E+03 0. -1.
         -6    1    1    2    0  502  0.23303663437E+03 -0.17965060859E+03 -0.59824955464E+03  0.68877568464E+03  0.17300000000E+03 0. -1.
</event>
<event>
 4    1  0.6092738E+000  0.1000000E+03  0.7546771E-02  0.1280296E+00
         21   -1    0    0  503  502  0.00000000000E+00  0.00000000000E+00  0.32351979635E+03  0.32351979635E+03  0.00000000000E+00 0. -1.
         21   -1    0    0  501  503 -0.00000000000E+00 -0.00000000000E+00 -0.17046235765E+03  0.17046235765E+03  0.00000000000E+00 0. -1.
          6    1    1    2  501    0  0.41761466465E+02 -0.27733870795E+02  0.23501242070E+03  0.29609631128E+03  0.17300000000E+03 0. -1.
         -6    1    1    2    0  502 -0.41761466465E+02  0.27733870795E+02 -0.81954982000E+02  0.19788584271E+03  0.17300000000E+03 0. -1.
</event>
<event>
 4    1  0.6092738E+000  0.1000000E+03  0.7546771E-02  0.1280296E+00
         21   -1    0    0  503  502  0.00000000000E+00  0.00000000000E+00  0.38921574524E+03  0.38921574524E+03  0.00000000000E+00 0. -1.
         21   -1    0    0  501  503 -0.00000000000E+00 -0.00000000000E+00 -0.22356377487E+03  0.22356377487E+03  0.00000000000E+00 0. -1.
          6    1    1    2  501    0  0.62196345518E+02  0.20512471147E+03  0.19245880479E+03  0.33602667185E+03  0.17300000000E+03 0. -1.
         -6    1    1    2    0  502 -0.62196345518E+02 -0.20512471147E+03 -0.26806834420E+02  0.27675284826E+03  0.17300000000E+03 0. -1.
</event>
<event>
 4    1  0.6092738E+000  0.1000000E+03  0.7546771E-02  0.1280296E+00
         21   -1    0    0  501  502  0.00000000000E+00  0.00000000000E+00  0.18404924462E+04  0.18404924462E+04  0.00000000000E+00 0. -1.
         21   -1    0    0  502  503 -0.00000000000E+00 -0.00000000000E+00 -0.44278336385E+02  0.44278336385E+02  0.00000000000E+00 0. -1.
          6    1    1    2  501    0 -0.97956889747E+02 -0.17820614641E+03  0.12317027571E+04  0.12603069724E+04  0.17300000000E+03 0. -1.
         -6    1    1    2    0  503  0.97956889747E+02  0.17820614641E+03  0.56451135269E+03  0.62446381015E+03  0.17300000000E+03 0. -1.
</event>
<event>
 4    1  0.6092738E+000  0.1000000E+03  0.7546771E-02  0.1280296E+00
         21   -1    0    0  501  502  0.00000000000E+00  0.00000000000E+00  0.19920537647E+02  0.19920537647E+02  0.00000000000E+00 0. -1.
         21   -1    0    0  502  503 -0.00000000000E+00 -0.00000000000E+00 -0.18831458998E+04  0.18831458998E+04  0.00000000000E+00 0. -1.
          6    1    1    2  501    0 -0.66034099348E+02 -0.52511412675E+01 -0.12093591546E+04  0.12234650144E+04  0.17300000000E+03 0. -1.
         -6    1    1    2    0  503  0.66034099348E+02  0.52511412675E+01 -0.65386620752E+03  0.67960142297E+03  0.17300000000E+03 0. -1.
</event>
<event>
 4    1  0.6092738E+000  0.1000000E+03  0.7546771E-02  0.1280296E+00
         21   -1    0    0  501  502  0.00000000000E+00  0.00000000000E+00  0.32436030978E+03  0.32436030978E+03  0.00000000000E+00 0.  1.
         21   -1    0    0  502  503 -0.00000000000E+00 -0.00000000000E+00 -0.12638393992E+03  0.12638393992E+03  0.00000000000E+00 0.  1.
          6    1    1    2  501    0  0.10068777311E+02  0.87877834293E+02  0.16235802160E+03  0.25320549207E+03  0.17300000000E+03 0.  1.
         -6    1    1    2    0  503 -0.10068777311E+02 -0.87877834293E+02  0.35618348264E+02  0.19753875764E+03  0.17300000000E+03 0.  1.
</event>
<event>
 4    1  0.6092738E+000  0.1000000E+03  0.7546771E-02  0.1280296E+00
         21   -1    0    0  501  502  0.00000000000E+00  0.00000000000E+00  0.32802644353E+03  0.32802644353E+03  0.00000000000E+00 0.  1.
         21   -1    0    0  502  503 -0.00000000000E+00 -0.00000000000E+00 -0.27951405197E+03  0.27951405197E+03  0.00000000000E+00 0.  1.
          6    1    1    2  501    0  0.17074789395E+03 -0.18550457540E+01  0.20539126996E+03  0.31823396780E+03  0.17300000000E+03 0.  1.
         -6    1    1    2    0  503 -0.17074789395E+03  0.18550457540E+01 -0.15687887840E+03  0.28930652771E+03  0.17300000000E+03 0.  1.
</event>
<event>
 4    1  0.6092738E+000  0.1000000E+03  0.7546771E-02  0.1280296E+00
         21   -1    0    0  503  502  0.00000000000E+00  0.00000000000E+00  0.25043139094E+03  0.25043139094E+03  0.00000000000E+00 0. -1.
         21   -1    0    0  501  503 -0.00000000000E+00 -0.00000000000E+00 -0.25870790103E+03  0.25870790103E+03  0.00000000000E+00 0. -1.
          6    1    1    2  501    0  0.13077761197E+03  0.50275342053E+01 -0.13731560473E+03  0.25673456175E+03  0.17300000000E+03 0. -1.
         -6    1    1    2    0  502 -0.13077761197E+03 -0.50275342053E+01  0.12903909464E+03  0.25240473022E+03  0.17300000000E+03 0. -1.
</event>
<event>
 4    1  0.6092738E+000  0.1000000E+03  0.7546771E-02  0.1280296E+00
         21   -1    0    0  501  502  0.00000000000E+00  0.00000000000E+00  0.38916053381E+03  0.38916053381E+03  0.00000000000E+00 0.  1.
         21   -1    0    0  502  503 -0.00000000000E+00 -0.00000000000E+00 -0.11815389729E+03  0.11815389729E+03  0.00000000000E+00 0.  1.
          6    1    1    2  501    0  0.45915661565E+02 -0.83269358975E+02  0.23454353947E+03  0.30656435871E+03  0.17300000000E+03 0.  1.
         -6    1    1    2    0  503 -0.45915661565E+02  0.83269358975E+02  0.36463097047E+02  0.20075007240E+03  0.17300000000E+03 0.  1.
</event>
<event>
 4    1  0.6092738E+000  0.1000000E+03  0.7546771E-02  0.1280296E+00
         21   -1    0    0  501  502  0.00000000000E+00  0.00000000000E+00  0.24492787356E+02  0.24492787356E+02  0.00000000000E+00 0.  1.
         21   -1    0    0  502  503 -0.00000000000E+00 -0.00000000000E+00 -0.15998446857E+04  0.15998446857E+04  0.00000000000E+00 0.  1.
          6    1    1    2  501    0 -0.62228160737E+02 -0.25976644240E+02 -0.10692098650E+04  0.10852123596E+04  0.17300000000E+03 0.  1.
         -6    1    1    2    0  503  0.62228160737E+02  0.25976644240E+02 -0.50614203340E+03  0.53912511350E+03  0.17300000000E+03 0.  1.
</event>
<event>
 4    1  0.6092738E+000  0.1000000E+03  0.7546771E-02  0.1280296E+00
         21   -1    0    0  501  502  0.00000000000E+00  0.00000000000E+00  0.59280970583E+03  0.59280970583E+03  0.00000000000E+00 0. -1.
         21   -1    0    0  502  503 -0.00000000000E+00 -0.00000000000E+00 -0.18783192621E+03  0.18783192621E+03  0.00000000000E+00 0. -1.
          6    1    1    2  501    0 -0.15286033541E+03 -0.65094311513E+02  0.47384225533E+03  0.53109230315E+03  0.17300000000E+03 0. -1.
         -6    1    1    2    0  503  0.15286033541E+03  0.65094311513E+02 -0.68864475712E+02  0.24954932888E+03  0.17300000000E+03 0. -1.
</event>
<event>
 4    1  0.6092738E+000  0.1000000E+03  0.7546771E-02  0.1280296E+00
         21   -1    0    0  501  502  0.00000000000E+00  0.00000000000E+00  0.39654208045E+04  0.39654208045E+04  0.00000000000E+00 0. -1.
         21   -1    0    0  502  503 -0.00000000000E+00 -0.00000000000E+00 -0.17681304001E+02  0.17681304001E+02  0.00000000000E+00 0. -1.
          6    1    1    2  501    0  0.14294514319E+03 -0.12363772382E+03  0.24764560015E+04  0.24896752656E+04  0.17300000000E+03 0. -1.
         -6    1    1    2    0  503 -0.14294514319E+03  0.12363772382E+03  0.14712834990E+04  0.14934268430E+04  0.17300000000E+03 0. -1.
</event>
<event>
 4    1  0.6092738E+000  0.1000000E+03  0.7546771E-02  0.1280296E+00
         21   -1    0    0  501  502  0.00000000000E+00  0.00000000000E+00  0.25631755111E+04  0.25631755111E+04  0.00000000000E+00 0. -1.
         21   -1    0    0  502  503 -0.00000000000E+00 -0.00000000000E+00 -0.14430256408E+02  0.14430256408E+02  0.00000000000E+00 0. -1.
          6    1    1    2  501    0  0.10761414415E+02  0.76686143370E+02  0.14927273994E+04  0.15047128170E+04  0.17300000000E+03 0. -1.
         -6    1    1    2    0  503 -0.10761414415E+02 -0.76686143370E+02  0.10560178553E+04  0.10728929505E+04  0.17300000000E+03 0. -1.
</event>
<event>
 4    1  0.6092738E+000  0.1000000E+03  0.7546771E-02  0.1280296E+00
         21   -1    0    0  501  502  0.00000000000E+00  0.00000000000E+00  0.11757350372E+03  0.11757350372E+03  0.00000000000E+00 0.  1.
         21   -1    0    0  502  503 -0.00000000000E+00 -0.00000000000E+00 -0.45597993475E+03  0.45597993475E+03  0.00000000000E+00 0. -1.
          6    1    1    2  501    0 -0.10042431388E+02  0.11193421172E+03 -0.38995257819E+02  0.20995177616E+03  0.17300000000E+03 0.  1.
         -6    1    1    2    0  503  0.10042431388E+02 -0.11193421172E+03 -0.29941117321E+03  0.36360166230E+03  0.17300000000E+03 0. -1.
</event>
<event>
 4    1  0.6092738E+000  0.1000000E+03  0.7546771E-02  0.1280296E+00
         21   -1    0    0  503  502  0.00000000000E+00  0.00000000000E+00  0.52813006591E+03  0.52813006591E+03  0.00000000000E+00 0.  1.
         21   -1    0    0  501  503 -0.00000000000E+00 -0.00000000000E+00 -0.10779174859E+03  0.10779174859E+03  0.00000000000E+00 0. -1.
          6    1    1    2  501    0  0.85213819774E+02  0.68927592436E+02  0.47028248543E+02  0.21012630545E+03  0.17300000000E+03 0.  1.
         -6    1    1    2    0  502 -0.85213819774E+02 -0.68927592436E+02  0.37331006877E+03  0.42579550905E+03  0.17300000000E+03 0. -1.
</event>
<event>
 4    1  0.6092738E+000  0.1000000E+03  0.7546771E-02  0.1280296E+00
         21   -1    0    0  503  502  0.00000000000E+00  0.00000000000E+00  0.34498401659E+03  0.34498401659E+03  0.00000000000E+00 0. -1.
         21   -1    0    0  501  503 -0.00000000000E+00 -0.00000000000E+00 -0.50376312078E+03  0.50376312078E+03  0.00000000000E+00 0. -1.
          6    1    1    2  501    0  0.97813583925E+02  0.14123490490E+03 -0.42361815797E+03  0.48877002703E+03  0.17300000000E+03 0. -1.
         -6    1    1    2    0  502 -0.97813583925E+02 -0.14123490490E+03  0.26483905378E+03  0.35997711034E+03  0.17300000000E+03 0. -1.
</event>
<event>
 4    1  0.6092738E+000  0.1000000E+03  0.7546771E-02  0.1280296E+00
         21   -1    0    0  503  502  0.00000000000E+00  0.00000000000E+00  0.44424383315E+02  0.44424383315E+02  0.00000000000E+00 0. -1.
         21   -1    0    0  501  503 -0.00000000000E+00 -0.00000000000E+00 -0.10024960119E+04  0.10024960119E+04  0.00000000000E+00 0. -1.
          6    1    1    2  501    0  0.16870374253E+02 -0.67750730922E+02 -0.72372875432E+03  0.74738683484E+03  0.17300000000E+03 0. -1.
         -6    1    1    2    0  502 -0.16870374253E+02  0.67750730922E+02 -0.23434287425E+03  0.29953356036E+03  0.17300000000E+03 0. -1.
</event>
<event>
 4    1  0.6092738E+000  0.1000000E+03  0.7546771E-02  0.1280296E+00
         21   -1    0    0  503  502  0.00000000000E+00  0.00000000000E+00  0.13255753813E+03  0.13255753813E+03  0.00000000000E+00 0. -1.
         21   -1    0    0  501  503 -0.00000000000E+00 -0.00000000000E+00 -0.55124895406E+03  0.55124895406E+03  0.00000000000E+00 0. -1.
          6    1    1    2  501    0 -0.20777410846E+02 -0.11901790130E+03 -0.42304426826E+03  0.47274984351E+03  0.17300000000E+03 0. -1.
         -6    1    1    2    0  502  0.20777410846E+02  0.11901790130E+03  0.43528523293E+01  0.21105664869E+03  0.17300000000E+03 0. -1.
</event>
<event>
 4    1  0.6092738E+000  0.1000000E+03  0.7546771E-02  0.1280296E+00
         21   -1    0    0  503  502  0.00000000000E+00  0.00000000000E+00  0.10187203389E+04  0.10187203389E+04  0.00000000000E+00 0. -1.
         21   -1    0    0  501  503 -0.00000000000E+00 -0.00000000000E+00 -0.77020848931E+02  0.77020848931E+02  0.00000000000E+00 0. -1.
          6    1    1    2  501    0  0.12097020562E+03 -0.85485134824E+02  0.15189906057E+03  0.27375869580E+03  0.17300000000E+03 0. -1.
         -6    1    1    2    0  502 -0.12097020562E+03  0.85485134824E+02  0.78980042937E+03  0.82198249200E+03  0.17300000000E+03 0. -1.
</event>
<event>
 4    1  0.6092738E+000  0.1000000E+03  0.7546771E-02  0.1280296E+00
         21   -1    0    0  501  502  0.00000000000E+00  0.00000000000E+00  0.25880664621E+03  0.25880664621E+03  0.00000000000E+00 0.  1.
         21   -1    0    0  502  503 -0.00000000000E+00 -0.00000000000E+00 -0.30683025579E+03  0.30683025579E+03  0.00000000000E+00 0. -1.
          6    1    1    2  501    0  0.11727368329E+03  0.10170971264E+03  0.13588510677E+03  0.26924291018E+03  0.17300000000E+03 0. -1.
         -6    1    1    2    0  503 -0.11727368329E+03 -0.10170971264E+03 -0.18390871635E+03  0.29639399182E+03  0.17300000000E+03 0.  1.
</event>
<event>
 4    1  0.6092738E+000  0.1000000E+03  0.7546771E-02  0.1280296E+00
         21   -1    0    0  501  502  0.00000000000E+00  0.00000000000E+00  0.12698176760E+04  0.12698176760E+04  0.00000000000E+00 0.  1.
         21   -1    0    0  502  503 -0.00000000000E+00 -0.00000000000E+00 -0.35263213583E+02  0.35263213583E+02  0.00000000000E+00 0.  1.
          6    1    1    2  501    0  0.30970256146E+02  0.10829283428E+03  0.47388040970E+03  0.51689277169E+03  0.17300000000E+03 0.  1.
         -6    1    1    2    0  503 -0.30970256146E+02 -0.10829283428E+03  0.76067405275E+03  0.78818811793E+03  0.17300000000E+03 0.  1.
</event>
<event>
 4    1  0.6092738E+000  0.1000000E+03  0.7546771E-02  0.1280296E+00
         21   -1    0    0  501  502  0.00000000000E+00  0.00000000000E+00  0.30720256626E+03  0.30720256626E+03  0.00000000000E+00 0.  1.
         21   -1    0    0  502  503 -0.00000000000E+00 -0.00000000000E+00 -0.26406342513E+03  0.26406342513E+03  0.00000000000E+00 0.  1.
          6    1    1    2  501    0  0.71083623840E+02  0.18600164952E+03  0.12931308643E+03  0.29376924537E+03  0.17300000000E+03 0.  1.
         -6    1    1    2    0  503 -0.71083623840E+02 -0.18600164952E+03 -0.86173945296E+02  0.27749674602E+03  0.17300000000E+03 0.  1.
</event>
<event>
 4    1  0.6092738E+000  0.1000000E+03  0.7546771E-02  0.1280296E+00
         21   -1    0    0  501  502  0.00000000000E+00  0.00000000000E+00  0.12530964032E+03  0.12530964032E+03  0.00000000000E+00 0.  1.
         21   -1    0    0  502  503 -0.00000000000E+00 -0.00000000000E+00 -0.25895835953E+03  0.25895835953E+03  0.00000000000E+00 0.  1.
          6    1    1    2  501    0 -0.44328319123E+02  0.24149190759E+01 -0.91841430580E+02  0.20083495732E+03  0.17300000000E+03 0.  1.
         -6    1    1    2    0  503  0.44328319123E+02 -0.24149190759E+01 -0.41807288636E+02  0.18343304253E+03  0.17300000000E+03 0.  1.
</event>
<event>
 4    1  0.6092738E+000  0.1000000E+03  0.7546771E-02  0.1280296E+00
         21   -1    0    0  501  502  0.00000000000E+00  0.00000000000E+00  0.15354220874E+03  0.15354220874E+03  0.00000000000E+00 0. -1.
         21   -1    0    0  502  503 -0.00000000000E+00 -0.00000000000E+00 -0.43469403795E+03  0.43469403795E+03  0.00000000000E+00 0. -1.
          6    1    1    2  501    0 -0.64699213169E+02  0.81196767539E+02  0.43121486786E+02  0.20631860281E+03  0.17300000000E+03 0. -1.
         -6    1    1    2    0  503  0.64699213169E+02 -0.81196767539E+02 -0.32427331599E+03  0.38191764388E+03  0.17300000000E+03 0. -1.
</event>
<event>
 4    1  0.6092738E+000  0.1000000E+03  0.7546771E-02  0.1280296E+00
         21   -1    0    0  501  502  0.00000000000E+00  0.00000000000E+00  0.23116201613E+03  0.23116201613E+03  0.00000000000E+00 0.  1.
         21   -1    0    0  502  503 -0.00000000000E+00 -0.00000000000E+00 -0.33184270867E+03  0.33184270867E+03  0.00000000000E+00 0.  1.
          6    1    1    2  501    0 -0.16360008077E+03  0.12938592288E+02  0.92850889270E+02  0.25589584060E+03  0.17300000000E+03 0.  1.
         -6    1    1    2    0  503  0.16360008077E+03 -0.12938592288E+02 -0.19353158181E+03  0.30710888420E+03  0.17300000000E+03 0.  1.
</event>
<event>
 4    1  0.6092738E+000  0.1000000E+03  0.7546771E-02  0.1280296E+00
         21   -1    0    0  503  502  0.00000000000E+00  0.00000000000E+00  0.32159239898E+03  0.32159239898E+03  0.00000000000E+00 0.  1.
         21   -1    0    0  501  503 -0.00000000000E+00 -0.00000000000E+00 -0.23068004334E+03  0.23068004334E+03  0.00000000000E+00 0.  1.
          6    1    1    2  501    0  0.66249042360E+02  0.97566406631E+02 -0.13115945840E+03  0.24706262939E+03  0.17300000000E+03 0.  1.
         -6    1    1    2    0  502 -0.66249042360E+02 -0.97566406631E+02  0.22207181403E+03  0.30520981292E+03  0.17300000000E+03 0.  1.
</event>
<event>
 4    1  0.6092738E+000  0.1000000E+03  0.7546771E-02  0.1280296E+00
         21   -1    0    0  503  502  0.00000000000E+00  0.00000000000E+00  0.29694978062E+04  0.29694978062E+04  0.00000000000E+00 0.  1.
         21   -1    0    0  501  503 -0.00000000000E+00 -0.00000000000E+00 -0.34196226389E+02  0.34196226389E+02  0.00000000000E+00 0.  1.
          6    1    1    2  501    0 -0.49566087664E+02  0.21798248760E+02  0.23248580463E+03  0.29480605497E+03  0.17300000000E+03 0.  1.
         -6    1    1    2    0  502  0.49566087664E+02 -0.21798248760E+02  0.27028157752E+04  0.27088879776E+04  0.17300000000E+03 0.  1.
</event>
<event>
 4    1  0.6092738E+000  0.1000000E+03  0.7546771E-02  0.1280296E+00
         21   -1    0    0  501  502  0.00000000000E+00  0.00000000000E+00  0.43187765244E+03  0.43187765244E+03  0.00000000000E+00 0.  1.
         21   -1    0    0  502  503 -0.00000000000E+00 -0.00000000000E+00 -0.12018774739E+03  0.12018774739E+03  0.00000000000E+00 0.  1.
          6    1    1    2  501    0  0.11522107101E+03  0.11362961688E+01  0.26885448614E+03  0.33983660940E+03  0.17300000000E+03 0.  1.
         -6    1    1    2    0  503 -0.11522107101E+03 -0.11362961688E+01  0.42835418914E+02  0.21222879043E+03  0.17300000000E+03 0.  1.
</event>
<event>
 4    1  0.6092738E+000  0.1000000E+03  0.7546771E-02  0.1280296E+00
         21   -1    0    0  501  502  0.00000000000E+00  0.00000000000E+00  0.21766200625E+03  0.21766200625E+03  0.00000000000E+00 0. -1.
         21   -1    0    0  502  503 -0.00000000000E+00 -0.00000000000E+00 -0.30139935852E+03  0.30139935852E+03  0.00000000000E+00 0. -1.
          6    1    1    2  501    0 -0.17797586212E+03  0.31812152952E+01  0.22125406807E+02  0.24920686438E+03  0.17300000000E+03 0. -1.
         -6    1    1    2    0  503  0.17797586212E+03 -0.31812152952E+01 -0.10586275908E+03  0.26985450040E+03  0.17300000000E+03 0. -1.
</event>
<event>
 4    1  0.6092738E+000  0.1000000E+03  0.7546771E-02  0.1280296E+00
         21   -1    0    0  503  502  0.00000000000E+00  0.00000000000E+00  0.51390760653E+03  0.51390760653E+03  0.00000000000E+00 0.  1.
         21   -1    0    0  501  503 -0.00000000000E+00 -0.00000000000E+00 -0.91126918092E+02  0.91126918092E+02  0.00000000000E+00 0. -1.
          6    1    1    2  501    0  0.27824778962E+02  0.10661603958E+03  0.11493729293E+03  0.23511864989E+03  0.17300000000E+03 0.  1.
         -6    1    1    2    0  502 -0.27824778962E+02 -0.10661603958E+03  0.30784339551E+03  0.36991587473E+03  0.17300000000E+03 0. -1.
</event>
<event>
 4    1  0.6092738E+000  0.1000000E+03  0.7546771E-02  0.1280296E+00
         21   -1    0    0  503  502  0.00000000000E+00  0.00000000000E+00  0.17302973296E+03  0.17302973296E+03  0.00000000000E+00 0.  1.
         21   -1    0    0  501  503 -0.00000000000E+00 -0.00000000000E+00 -0.77359920727E+03  0.77359920727E+03  0.00000000000E+00 0.  1.
          6    1    1    2  501    0 -0.21204195238E+03 -0.17186061940E+03 -0.52221559811E+03  0.61411399021E+03  0.17300000000E+03 0.  1.
         -6    1    1    2    0  502  0.21204195238E+03  0.17186061940E+03 -0.78353876196E+02  0.33251495001E+03  0.17300000000E+03 0.  1.
</event>
<event>
 4    1  0.6092738E+000  0.1000000E+03  0.7546771E-02  0.1280296E+00
         21   -1    0    0  503  502  0.00000000000E+00  0.00000000000E+00  0.79030817065E+03  0.79030817065E+03  0.00000000000E+00 0.  1.
         21   -1    0    0  501  503 -0.00000000000E+00 -0.00000000000E+00 -0.50419169734E+02  0.50419169734E+02  0.00000000000E+00 0.  1.
          6    1    1    2  501    0  0.80770952129E+02 -0.53210953848E+02  0.41988173876E+03  0.46431134690E+03  0.17300000000E+03 0.  1.
         -6    1    1    2    0  502 -0.80770952129E+02  0.53210953848E+02  0.32000726216E+03  0.37641599348E+03  0.17300000000E+03 0.  1.
</event>
<event>
 4    1  0.6092738E+000  0.1000000E+03  0.7546771E-02  0.1280296E+00
         21   -1    0    0  503  502  0.00000000000E+00  0.00000000000E+00  0.48853737988E+02  0.48853737988E+02  0.00000000000E+00 0.  1.
         21   -1    0    0  501  503 -0.00000000000E+00 -0.00000000000E+00 -0.85654089824E+03  0.85654089824E+03  0.00000000000E+00 0.  1.
          6    1    1    2  501    0  0.60569325993E+02 -0.15750567996E+02 -0.60177576459E+03  0.62926925437E+03  0.17300000000E+03 0.  1.
         -6    1    1    2    0  502 -0.60569325993E+02  0.15750567996E+02 -0.20591139566E+03  0.27612538186E+03  0.17300000000E+03 0.  1.
</event>
<event>
 4    1  0.6092738E+000  0.1000000E+03  0.7546771E-02  0.1280296E+00
         21   -1    0    0  503  502  0.00000000000E+00  0.00000000000E+00  0.17361130344E+04  0.17361130344E+04  0.00000000000E+00 0.  1.
         21   -1    0    0  501  503 -0.00000000000E+00 -0.00000000000E+00 -0.66104982681E+02  0.66104982681E+02  0.00000000000E+00 0.  1.
          6    1    1    2  501    0  0.11339238662E+03 -0.76997479842E+00  0.12137580720E+03  0.23983225967E+03  0.17300000000E+03 0.  1.
         -6    1    1    2    0  502 -0.11339238662E+03  0.76997479842E+00  0.15486322445E+04  0.15623857574E+04  0.17300000000E+03 0.  1.
</event>
<event>
 4    1  0.6092738E+000  0.1000000E+03  0.7546771E-02  0.1280296E+00
         21   -1    0    0  503  502  0.00000000000E+00  0.00000000000E+00  0.20292128015E+03  0.20292128015E+03  0.00000000000E+00 0. -1.
         21   -1    0    0  501  503 -0.00000000000E+00 -0.00000000000E+00 -0.21707536918E+03  0.21707536918E+03  0.00000000000E+00 0.  1.
          6    1    1    2  501    0 -0.74134979228E+02 -0.49313401324E+02 -0.85813604993E+02  0.21265178461E+03  0.17300000000E+03 0.  1.
         -6    1    1    2    0  502  0.74134979228E+02  0.49313401324E+02  0.71659515963E+02  0.20734486471E+03  0.17300000000E+03 0. -1.
</event>
<event>
 4    1  0.6092738E+000  0.1000000E+03  0.7546771E-02  0.1280296E+00
         21   -1    0    0  501  502  0.00000000000E+00  0.00000000000E+00  0.37073473249E+03  0.37073473249E+03  0.00000000000E+00 0.  1.
         21   -1    0    0  502  503 -0.00000000000E+00 -0.00000000000E+00 -0.10506661068E+03  0.10506661068E+03  0.00000000000E+00 0. -1.
          6    1    1    2  501    0  0.93701735041E+02  0.12795557676E+02  0.12211341651E+03  0.23191469970E+03  0.17300000000E+03 0. -1.
         -6    1    1    2    0  503 -0.93701735041E+02 -0.12795557676E+02  0.14355470530E+03  0.24388664346E+03  0.17300000000E+03 0.  1.
</event>
<event>
 4    1  0.6092738E+000  0.1000000E+03  0.7546771E-02  0.1280296E+00
         21   -1    0    0  501  502  0.00000000000E+00  0.00000000000E+00  0.10004530456E+03  0.10004530456E+03  0.00000000000E+00 0.  1.
         21   -1    0    0  502  503 -0.00000000000E+00 -0.00000000000E+00 -0.32702300868E+03  0.32702300868E+03  0.00000000000E+00 0. -1.
          6    1    1    2  501    0  0.22942693621E+02  0.26346242395E+02 -0.16023016526E+03  0.23837616814E+03  0.17300000000E+03 0. -1.
         -6    1    1    2    0  503 -0.22942693621E+02 -0.26346242395E+02 -0.66747538862E+02  0.18869214510E+03  0.17300000000E+03 0.  1.
</event>
<event>
 4    1  0.6092738E+000  0.1000000E+03  0.7546771E-02  0.1280296E+00
         21   -1    0    0  501  502  0.00000000000E+00  0.00000000000E+00  0.10908280515E+04  0.10908280515E+04  0.00000000000E+00 0.  1.
         21   -1    0    0  502  503 -0.00000000000E+00 -0.00000000000E+00 -0.56115945802E+02  0.56115945802E+02  0.00000000000E+00 0.  1.
          6    1    1    2  501    0  0.58618876385E+02 -0.13108103284E+02  0.90295996431E+03  0.92134341707E+03  0.17300000000E+03 0.  1.
         -6    1    1    2    0  503 -0.58618876385E+02  0.13108103284E+02  0.13175214140E+03  0.22560058024E+03  0.17300000000E+03 0.  1.
</event>
<event>
 4    1  0.6092738E+000  0.1000000E+03  0.7546771E-02  0.1280296E+00
         21   -1    0    0  501  502  0.00000000000E+00  0.00000000000E+00  0.69094633636E+02  0.69094633636E+02  0.00000000000E+00 0.  1.
         21   -1    0    0  502  503 -0.00000000000E+00 -0.00000000000E+00 -0.11691001833E+04  0.11691001833E+04  0.00000000000E+00 0.  1.
          6    1    1    2  501    0 -0.10486428626E+03 -0.40073947030E+02 -0.12400211692E+03  0.24064073796E+03  0.17300000000E+03 0.  1.
         -6    1    1    2    0  503  0.10486428626E+03  0.40073947030E+02 -0.97600343277E+03  0.99755407901E+03  0.17300000000E+03 0.  1.
</event>
<event>
 4    1  0.6092738E+000  0.1000000E+03  0.7546771E-02  0.1280296E+00
         21   -1    0    0  501  502  0.00000000000E+00  0.00000000000E+00  0.17351702984E+03  0.17351702984E+03  0.00000000000E+00 0.  1.
         21   -1    0    0  502  503 -0.00000000000E+00 -0.00000000000E+00 -0.20839244944E+03  0.20839244944E+03  0.00000000000E+00 0.  1.
          6    1    1    2  501    0 -0.67108651929E+02 -0.41542396658E+02 -0.16294079015E+02  0.19085030494E+03  0.17300000000E+03 0.  1.
         -6    1    1    2    0  503  0.67108651929E+02  0.41542396658E+02 -0.18581340589E+02  0.19105917435E+03  0.17300000000E+03 0.  1.
</event>
<event>
 4    1  0.6092738E+000  0.1000000E+03  0.7546771E-02  0.1280296E+00
         21   -1    0    0  501  502  0.00000000000E+00  0.00000000000E+00  0.95241116147E+02  0.95241116147E+02  0.00000000000E+00 0.  1.
         21   -1    0    0  502  503 -0.00000000000E+00 -0.00000000000E+00 -0.33965800399E+03  0.33965800399E+03  0.00000000000E+00 0.  1.
          6    1    1    2  501    0  0.99533209319E+01 -0.35040834576E+02 -0.82229571853E+02  0.19498110466E+03  0.17300000000E+03 0.  1.
         -6    1    1    2    0  503 -0.99533209319E+01  0.35040834576E+02 -0.16218731599E+03  0.23991801549E+03  0.17300000000E+03 0.  1.
</event>
<event>
 4    1  0.6092738E+000  0.1000000E+03  0.7546771E-02  0.1280296E+00
         21   -1    0    0  501  502  0.00000000000E+00  0.00000000000E+00  0.67179489736E+02  0.67179489736E+02  0.00000000000E+00 0.  1.
         21   -1    0    0  502  503 -0.00000000000E+00 -0.00000000000E+00 -0.51377660058E+03  0.51377660058E+03  0.00000000000E+00 0.  1.
          6    1    1    2  501    0 -0.40190352040E+02 -0.48615067327E+02 -0.18475936048E+03  0.26085189371E+03  0.17300000000E+03 0.  1.
         -6    1    1    2    0  503  0.40190352040E+02  0.48615067327E+02 -0.26183775037E+03  0.32010419661E+03  0.17300000000E+03 0.  1.
</event>
<event>
 4    1  0.6092738E+000  0.1000000E+03  0.7546771E-02  0.1280296E+00
         21   -1    0    0  501  502  0.00000000000E+00  0.00000000000E+00  0.93242477729E+03  0.93242477729E+03  0.00000000000E+00 0.  1.
         21   -1    0    0  502  503 -0.00000000000E+00 -0.00000000000E+00 -0.66955789351E+02  0.66955789351E+02  0.00000000000E+00 0.  1.
          6    1    1    2  501    0  0.87842041723E+02  0.62756085319E+02  0.72148906488E+03  0.74975330694E+03  0.17300000000E+03 0.  1.
         -6    1    1    2    0  503 -0.87842041723E+02 -0.62756085319E+02  0.14397992306E+03  0.24962725970E+03  0.17300000000E+03 0.  1.
</event>
<event>
 4    1  0.6092738E+000  0.1000000E+03  0.7546771E-02  0.1280296E+00
         21   -1    0    0  503  502  0.00000000000E+00  0.00000000000E+00  0.14236409108E+03  0.14236409108E+03  0.00000000000E+00 0. -1.
         21   -1    0    0  501  503 -0.00000000000E+00 -0.00000000000E+00 -0.26649367216E+03  0.26649367216E+03  0.00000000000E+00 0. -1.
          6    1    1    2  501    0  0.72897018929E+01  0.41162624716E+02 -0.14512191276E+03  0.22964509790E+03  0.17300000000E+03 0. -1.
         -6    1    1    2    0  502 -0.72897018929E+01 -0.41162624716E+02  0.20992331691E+02  0.17921266534E+03  0.17300000000E+03 0. -1.
</event>
<event>
 4    1  0.6092738E+000  0.1000000E+03  0.7546771E-02  0.1280296E+00
         21   -1    0    0  501  502  0.00000000000E+00  0.00000000000E+00  0.17692638110E+03  0.17692638110E+03  0.00000000000E+00 0.  1.
         21   -1    0    0  502  503 -0.00000000000E+00 -0.00000000000E+00 -0.45438287679E+03  0.45438287679E+03  0.00000000000E+00 0.  1.
          6    1    1    2  501    0 -0.12580848433E+03 -0.11135565190E+03  0.27279350408E+02  0.24269532113E+03  0.17300000000E+03 0.  1.
         -6    1    1    2    0  503  0.12580848433E+03  0.11135565190E+03 -0.30473584611E+03  0.38861393676E+03  0.17300000000E+03 0.  1.
</event>
<event>
 4    1  0.6092738E+000  0.1000000E+03  0.7546771E-02  0.1280296E+00
         21   -1    0    0  503  502  0.00000000000E+00  0.00000000000E+00  0.18800956880E+02  0.18800956880E+02  0.00000000000E+00 0.  1.
         21   -1    0    0  501  503 -0.00000000000E+00 -0.00000000000E+00 -0.21570510377E+04  0.21570510377E+04  0.00000000000E+00 0. -1.
          6    1    1    2  501    0 -0.55346394537E+02 -0.72354018719E+02 -0.13297433909E+04  0.13440404805E+04  0.17300000000E+03 0. -1.
         -6    1    1    2    0  502  0.55346394537E+02  0.72354018719E+02 -0.80850668985E+03  0.83181151408E+03  0.17300000000E+03 0.  1.
</event>
<event>
 4    1  0.6092738E+000  0.1000000E+03  0.7546771E-02  0.1280296E+00
         21   -1    0    0  503  502  0.00000000000E+00  0.00000000000E+00  0.16818127614E+03  0.16818127614E+03  0.00000000000E+00 0.  1.
         21   -1    0    0  501  503 -0.00000000000E+00 -0.00000000000E+00 -0.23353884306E+03  0.23353884306E+03  0.00000000000E+00 0. -1.
          6    1    1    2  501    0 -0.59612804289E+02  0.64869393721E+00 -0.10982332581E+03  0.21341103564E+03  0.17300000000E+03 0. -1.
         -6    1    1    2    0  502  0.59612804289E+02 -0.64869393721E+00  0.44465758900E+02  0.18830908357E+03  0.17300000000E+03 0.  1.
</event>
<event>
 4    1  0.6092738E+000  0.1000000E+03  0.7546771E-02  0.1280296E+00
         21   -1    0    0  503  502  0.00000000000E+00  0.00000000000E+00  0.68031846278E+03  0.68031846278E+03  0.00000000000E+00 0.  1.
         21   -1    0    0  501  503 -0.00000000000E+00 -0.00000000000E+00 -0.12280167287E+03  0.12280167287E+03  0.00000000000E+00 0.  1.
          6    1    1    2  501    0 -0.23063416716E+03 -0.11001240456E+02  0.30290559983E+03  0.41832278059E+03  0.17300000000E+03 0.  1.
         -6    1    1    2    0  502  0.23063416716E+03  0.11001240456E+02  0.25461119008E+03  0.38479735506E+03  0.17300000000E+03 0.  1.
</event>
<event>
 4    1  0.6092738E+000  0.1000000E+03  0.7546771E-02  0.1280296E+00
         21   -1    0    0  503  502  0.00000000000E+00  0.00000000000E+00  0.32567761955E+02  0.32567761955E+02  0.00000000000E+00 0.  1.
         21   -1    0    0  501  503 -0.00000000000E+00 -0.00000000000E+00 -0.23755497705E+04  0.23755497705E+04  0.00000000000E+00 0.  1.
          6    1    1    2  501    0  0.11422046513E+03  0.39743358962E+02 -0.19556148064E+04  0.19669733400E+04  0.17300000000E+03 0.  1.
         -6    1    1    2    0  502 -0.11422046513E+03 -0.39743358962E+02 -0.38736720207E+03  0.44114419239E+03  0.17300000000E+03 0.  1.
</event>
<event>
 4    1  0.6092738E+000  0.1000000E+03  0.7546771E-02  0.1280296E+00
         21   -1    0    0  501  502  0.00000000000E+00  0.00000000000E+00  0.32050969143E+02  0.32050969143E+02  0.00000000000E+00 0.  1.
         21   -1    0    0  502  503 -0.00000000000E+00 -0.00000000000E+00 -0.22353586907E+04  0.22353586907E+04  0.00000000000E+00 0.  1.
          6    1    1    2  501    0 -0.88272659867E+02 -0.40336131725E+02 -0.34047060859E+03  0.39404098939E+03  0.17300000000E+03 0.  1.
         -6    1    1    2    0  503  0.88272659867E+02  0.40336131725E+02 -0.18628371129E+04  0.18733686704E+04  0.17300000000E+03 0.  1.
</event>
<event>
 4    1  0.6092738E+000  0.1000000E+03  0.7546771E-02  0.1280296E+00
         21   -1    0    0  501  502  0.00000000000E+00  0.00000000000E+00  0.17086192177E+04  0.17086192177E+04  0.00000000000E+00 0. -1.
         21   -1    0    0  502  503 -0.00000000000E+00 -0.00000000000E+00 -0.21723978314E+02  0.21723978314E+02  0.00000000000E+00 0. -1.
          6    1    1    2  501    0  0.42493768667E+02 -0.57724981424E+01  0.11719098135E+04  0.11853862886E+04  0.17300000000E+03 0. -1.
         -6    1    1    2    0  503 -0.42493768667E+02  0.57724981424E+01  0.51498542581E+03  0.54495690739E+03  0.17300000000E+03 0. -1.
</event>
