<event>
 4    1  0.6069433E+000  0.1000000E+03  0.7546771E-02  0.1280296E+00
         21   -1    0    0  501  502  0.00000000000E+00  0.00000000000E+00  0.29208856766E+02  0.29208856766E+02  0.00000000000E+00 0.  1.
         21   -1    0    0  502  503 -0.00000000000E+00 -0.00000000000E+00 -0.14555352211E+04  0.14555352211E+04  0.00000000000E+00 0.  1.
          6    1    1    2  501    0  0.10464385473E+03  0.34511971847E+02 -0.63728849687E+03  0.66948266652E+03  0.17300000000E+03 0.  1.
         -6    1    1    2    0  503 -0.10464385473E+03 -0.34511971847E+02 -0.78903786751E+03  0.81526141139E+03  0.17300000000E+03 0.  1.
</event>
<event>
 4    1  0.6069433E+000  0.1000000E+03  0.7546771E-02  0.1280296E+00
         21   -1    0    0  501  502  0.00000000000E+00  0.00000000000E+00  0.10759144362E+03  0.10759144362E+03  0.00000000000E+00 0.  1.
         21   -1    0    0  502  503 -0.00000000000E+00 -0.00000000000E+00 -0.59123858006E+03  0.59123858006E+03  0.00000000000E+00 0.  1.
          6    1    1    2  501    0  0.12782421920E+03 -0.58856774303E+02 -0.78605962012E+02  0.23645517156E+03  0.17300000000E+03 0.  1.
         -6    1    1    2    0  503 -0.12782421920E+03  0.58856774303E+02 -0.40504117442E+03  0.46237485212E+03  0.17300000000E+03 0.  1.
</event>
<event>
 4    1  0.6069433E+000  0.1000000E+03  0.7546771E-02  0.1280296E+00
         21   -1    0    0  501  502  0.00000000000E+00  0.00000000000E+00  0.15204968014E+04  0.15204968014E+04  0.00000000000E+00 0.  1.
         21   -1    0    0  502  503 -0.00000000000E+00 -0.00000000000E+00 -0.53058309314E+02  0.53058309314E+02  0.00000000000E+00 0. -1.
          6    1    1    2  501    0 -0.14691214407E+03  0.14475702666E+03  0.48275788646E+03  0.55274040180E+03  0.17300000000E+03 0. -1.
         -6    1    1    2    0  503  0.14691214407E+03 -0.14475702666E+03  0.98468060564E+03  0.10208147089E+04  0.17300000000E+03 0.  1.
</event>
<event>
 4    1  0.6069433E+000  0.1000000E+03  0.7546771E-02  0.1280296E+00
         21   -1    0    0  501  502  0.00000000000E+00  0.00000000000E+00  0.32714284932E+03  0.32714284932E+03  0.00000000000E+00 0.  1.
         21   -1    0    0  502  503 -0.00000000000E+00 -0.00000000000E+00 -0.13703774534E+03  0.13703774534E+03  0.00000000000E+00 0. -1.
          6    1    1    2  501    0 -0.42047911453E+01  0.36537628538E+02  0.22264519477E+03  0.28434584809E+03  0.17300000000E+03 0. -1.
         -6    1    1    2    0  503  0.42047911453E+01 -0.36537628538E+02 -0.32540090799E+02  0.17983474658E+03  0.17300000000E+03 0.  1.
</event>
<event>
 4    1  0.6069433E+000  0.1000000E+03  0.7546771E-02  0.1280296E+00
         21   -1    0    0  503  502  0.00000000000E+00  0.00000000000E+00  0.41684708097E+03  0.41684708097E+03  0.00000000000E+00 0. -1.
         21   -1    0    0  501  503 -0.00000000000E+00 -0.00000000000E+00 -0.22569908872E+03  0.22569908872E+03  0.00000000000E+00 0. -1.
          6    1    1    2  501    0 -0.91137903160E+02  0.98119004323E+02 -0.12960812944E+03  0.25428472942E+03  0.17300000000E+03 0. -1.
         -6    1    1    2    0  502  0.91137903160E+02 -0.98119004323E+02  0.32075612168E+03  0.38826144027E+03  0.17300000000E+03 0. -1.
</event>
<event>
 4    1  0.6069433E+000  0.1000000E+03  0.7546771E-02  0.1280296E+00
         21   -1    0    0  503  502  0.00000000000E+00  0.00000000000E+00  0.74044726280E+03  0.74044726280E+03  0.00000000000E+00 0. -1.
         21   -1    0    0  501  503 -0.00000000000E+00 -0.00000000000E+00 -0.39713544155E+03  0.39713544155E+03  0.00000000000E+00 0. -1.
          6    1    1    2  501    0  0.33633227481E+02  0.50369277716E+02 -0.36365686425E+03  0.40723896308E+03  0.17300000000E+03 0. -1.
         -6    1    1    2    0  502 -0.33633227481E+02 -0.50369277716E+02  0.70696868551E+03  0.73034374127E+03  0.17300000000E+03 0. -1.
</event>
<event>
 4    1  0.6069433E+000  0.1000000E+03  0.7546771E-02  0.1280296E+00
         21   -1    0    0  503  502  0.00000000000E+00  0.00000000000E+00  0.14945128569E+03  0.14945128569E+03  0.00000000000E+00 0. -1.
         21   -1    0    0  501  503 -0.00000000000E+00 -0.00000000000E+00 -0.22526608501E+03  0.22526608501E+03  0.00000000000E+00 0. -1.
          6    1    1    2  501    0  0.50437593906E+02  0.34024640739E+02 -0.44006731292E+02  0.18859273437E+03  0.17300000000E+03 0. -1.
         -6    1    1    2    0  502 -0.50437593906E+02 -0.34024640739E+02 -0.31808068030E+02  0.18612463633E+03  0.17300000000E+03 0. -1.
</event>
<event>
 4    1  0.6069433E+000  0.1000000E+03  0.7546771E-02  0.1280296E+00
         21   -1    0    0  503  502  0.00000000000E+00  0.00000000000E+00  0.93783760627E+02  0.93783760627E+02  0.00000000000E+00 0. -1.
         21   -1    0    0  501  503 -0.00000000000E+00 -0.00000000000E+00 -0.45182219991E+03  0.45182219991E+03  0.00000000000E+00 0. -1.
          6    1    1    2  501    0  0.82324874603E+02 -0.25246498966E+01 -0.27872983965E+03  0.33823524705E+03  0.17300000000E+03 0. -1.
         -6    1    1    2    0  502 -0.82324874603E+02  0.25246498966E+01 -0.79308599630E+02  0.20737071348E+03  0.17300000000E+03 0. -1.
</event>
<event>
 4    1  0.6069433E+000  0.1000000E+03  0.7546771E-02  0.1280296E+00
         21   -1    0    0  503  502  0.00000000000E+00  0.00000000000E+00  0.11795572356E+04  0.11795572356E+04  0.00000000000E+00 0. -1.
         21   -1    0    0  501  503 -0.00000000000E+00 -0.00000000000E+00 -0.13033690083E+03  0.13033690083E+03  0.00000000000E+00 0. -1.
          6    1    1    2  501    0 -0.12369291276E+03 -0.31491429704E+03  0.36318036223E+03  0.52564239428E+03  0.17300000000E+03 0. -1.
         -6    1    1    2    0  502  0.12369291276E+03  0.31491429704E+03  0.68603997250E+03  0.78425174212E+03  0.17300000000E+03 0. -1.
</event>
<event>
 4    1  0.6069433E+000  0.1000000E+03  0.7546771E-02  0.1280296E+00
         21   -1    0    0  503  502  0.00000000000E+00  0.00000000000E+00  0.47864463540E+02  0.47864463540E+02  0.00000000000E+00 0. -1.
         21   -1    0    0  501  503 -0.00000000000E+00 -0.00000000000E+00 -0.11865355399E+04  0.11865355399E+04  0.00000000000E+00 0. -1.
          6    1    1    2  501    0  0.11349593685E+03 -0.23137195901E+02 -0.86966321380E+03  0.89423697249E+03  0.17300000000E+03 0. -1.
         -6    1    1    2    0  502 -0.11349593685E+03  0.23137195901E+02 -0.26900786260E+03  0.34016303099E+03  0.17300000000E+03 0. -1.
</event>
<event>
 4    1  0.6069433E+000  0.1000000E+03  0.7546771E-02  0.1280296E+00
         21   -1    0    0  503  502  0.00000000000E+00  0.00000000000E+00  0.43456413004E+03  0.43456413004E+03  0.00000000000E+00 0.  1.
         21   -1    0    0  501  503 -0.00000000000E+00 -0.00000000000E+00 -0.11628713071E+03  0.11628713071E+03  0.00000000000E+00 0.  1.
          6    1    1    2  501    0  0.10389328875E+03  0.43675501890E+01  0.37896108528E+02  0.20537284627E+03  0.17300000000E+03 0.  1.
         -6    1    1    2    0  502 -0.10389328875E+03 -0.43675501890E+01  0.28038089081E+03  0.34547841448E+03  0.17300000000E+03 0.  1.
</event>
<event>
 4    1  0.6069433E+000  0.1000000E+03  0.7546771E-02  0.1280296E+00
         21   -1    0    0  503  502  0.00000000000E+00  0.00000000000E+00  0.16836852425E+03  0.16836852425E+03  0.00000000000E+00 0.  1.
         21   -1    0    0  501  503 -0.00000000000E+00 -0.00000000000E+00 -0.20682951006E+03  0.20682951006E+03  0.00000000000E+00 0.  1.
          6    1    1    2  501    0 -0.46611032824E+02  0.52157341378E+02 -0.20503191093E+02  0.18772947953E+03  0.17300000000E+03 0.  1.
         -6    1    1    2    0  502  0.46611032824E+02 -0.52157341378E+02 -0.17957794723E+02  0.18746855478E+03  0.17300000000E+03 0.  1.
</event>
<event>
 4    1  0.6069433E+000  0.1000000E+03  0.7546771E-02  0.1280296E+00
         21   -1    0    0  503  502  0.00000000000E+00  0.00000000000E+00  0.16720139508E+03  0.16720139508E+03  0.00000000000E+00 0. -1.
         21   -1    0    0  501  503 -0.00000000000E+00 -0.00000000000E+00 -0.24850091485E+03  0.24850091485E+03  0.00000000000E+00 0.  1.
          6    1    1    2  501    0  0.79031651496E+01  0.39840955914E+02 -0.14247055931E+03  0.22776440033E+03  0.17300000000E+03 0. -1.
         -6    1    1    2    0  502 -0.79031651496E+01 -0.39840955914E+02  0.61171039533E+02  0.18793790960E+03  0.17300000000E+03 0. -1.
</event>
<event>
 4    1  0.6069433E+000  0.1000000E+03  0.7546771E-02  0.1280296E+00
         21   -1    0    0  503  502  0.00000000000E+00  0.00000000000E+00  0.94333030283E+02  0.94333030283E+02  0.00000000000E+00 0. -1.
         21   -1    0    0  501  503 -0.00000000000E+00 -0.00000000000E+00 -0.41748886312E+03  0.41748886312E+03  0.00000000000E+00 0. -1.
          6    1    1    2  501    0  0.32396715611E+02  0.59518190875E+02 -0.25149520894E+03  0.31268323004E+03  0.17300000000E+03 0.  1.
         -6    1    1    2    0  502 -0.32396715611E+02 -0.59518190875E+02 -0.71660623887E+02  0.19913866336E+03  0.17300000000E+03 0.  1.
</event>
<event>
 4    1  0.6069433E+000  0.1000000E+03  0.7546771E-02  0.1280296E+00
         21   -1    0    0  503  502  0.00000000000E+00  0.00000000000E+00  0.13922026359E+03  0.13922026359E+03  0.00000000000E+00 0. -1.
         21   -1    0    0  501  503 -0.00000000000E+00 -0.00000000000E+00 -0.47432149326E+03  0.47432149326E+03  0.00000000000E+00 0. -1.
          6    1    1    2  501    0  0.69075673215E+02  0.12103889817E+03 -0.13351992159E+02  0.22255143045E+03  0.17300000000E+03 0.  1.
         -6    1    1    2    0  502 -0.69075673215E+02 -0.12103889817E+03 -0.32174923751E+03  0.39099032640E+03  0.17300000000E+03 0.  1.
</event>
<event>
 4    1  0.6069433E+000  0.1000000E+03  0.7546771E-02  0.1280296E+00
         21   -1    0    0  503  502  0.00000000000E+00  0.00000000000E+00  0.66855889522E+03  0.66855889522E+03  0.00000000000E+00 0.  1.
         21   -1    0    0  501  503 -0.00000000000E+00 -0.00000000000E+00 -0.11607661494E+03  0.11607661494E+03  0.00000000000E+00 0.  1.
          6    1    1    2  501    0  0.63525504347E+02 -0.20858207477E+03  0.29248746493E+03  0.40375721512E+03  0.17300000000E+03 0.  1.
         -6    1    1    2    0  502 -0.63525504347E+02  0.20858207477E+03  0.25999481536E+03  0.38087829504E+03  0.17300000000E+03 0.  1.
</event>
<event>
 4    1  0.6069433E+000  0.1000000E+03  0.7546771E-02  0.1280296E+00
         21   -1    0    0  503  502  0.00000000000E+00  0.00000000000E+00  0.14326572443E+04  0.14326572443E+04  0.00000000000E+00 0.  1.
         21   -1    0    0  501  503 -0.00000000000E+00 -0.00000000000E+00 -0.29405777896E+02  0.29405777896E+02  0.00000000000E+00 0.  1.
          6    1    1    2  501    0  0.30491548860E+02  0.10561851443E+03  0.73971944081E+03  0.76759289748E+03  0.17300000000E+03 0.  1.
         -6    1    1    2    0  502 -0.30491548860E+02 -0.10561851443E+03  0.66353202560E+03  0.69447012473E+03  0.17300000000E+03 0.  1.
</event>
<event>
 4    1  0.6069433E+000  0.1000000E+03  0.7546771E-02  0.1280296E+00
         21   -1    0    0  503  502  0.00000000000E+00  0.00000000000E+00  0.24043797443E+02  0.24043797443E+02  0.00000000000E+00 0.  1.
         21   -1    0    0  501  503 -0.00000000000E+00 -0.00000000000E+00 -0.17162042894E+04  0.17162042894E+04  0.00000000000E+00 0.  1.
          6    1    1    2  501    0 -0.88226685657E+02 -0.58900345198E+02 -0.88483780578E+03  0.90781063073E+03  0.17300000000E+03 0.  1.
         -6    1    1    2    0  502  0.88226685657E+02  0.58900345198E+02 -0.80732268619E+03  0.83243745613E+03  0.17300000000E+03 0.  1.
</event>
<event>
 4    1  0.6069433E+000  0.1000000E+03  0.7546771E-02  0.1280296E+00
         21   -1    0    0  503  502  0.00000000000E+00  0.00000000000E+00  0.24452105704E+04  0.24452105704E+04  0.00000000000E+00 0.  1.
         21   -1    0    0  501  503 -0.00000000000E+00 -0.00000000000E+00 -0.17949523932E+02  0.17949523932E+02  0.00000000000E+00 0.  1.
          6    1    1    2  501    0 -0.32891788837E+02 -0.31785591918E+02  0.57317605940E+03  0.60045981439E+03  0.17300000000E+03 0.  1.
         -6    1    1    2    0  502  0.32891788837E+02  0.31785591918E+02  0.18540849870E+04  0.18627002799E+04  0.17300000000E+03 0.  1.
</event>
<event>
 4    1  0.6069433E+000  0.1000000E+03  0.7546771E-02  0.1280296E+00
         21   -1    0    0  503  502  0.00000000000E+00  0.00000000000E+00  0.29121515718E+03  0.29121515718E+03  0.00000000000E+00 0. -1.
         21   -1    0    0  501  503 -0.00000000000E+00 -0.00000000000E+00 -0.32318677612E+03  0.32318677612E+03  0.00000000000E+00 0.  1.
          6    1    1    2  501    0  0.13248796942E+03 -0.17216946067E+03 -0.14651795344E+03  0.31399346476E+03  0.17300000000E+03 0. -1.
         -6    1    1    2    0  502 -0.13248796942E+03  0.17216946067E+03  0.11454633449E+03  0.30040846855E+03  0.17300000000E+03 0. -1.
</event>
<event>
 4    1  0.6069433E+000  0.1000000E+03  0.7546771E-02  0.1280296E+00
         21   -1    0    0  503  502  0.00000000000E+00  0.00000000000E+00  0.18138501086E+04  0.18138501086E+04  0.00000000000E+00 0. -1.
         21   -1    0    0  501  503 -0.00000000000E+00 -0.00000000000E+00 -0.64071981916E+02  0.64071981916E+02  0.00000000000E+00 0.  1.
          6    1    1    2  501    0  0.19744566368E+01 -0.76316736830E+02  0.93616901740E+02  0.21100063292E+03  0.17300000000E+03 0. -1.
         -6    1    1    2    0  502 -0.19744566368E+01  0.76316736830E+02  0.16561612249E+04  0.16669214576E+04  0.17300000000E+03 0. -1.
</event>
<event>
 4    1  0.6069433E+000  0.1000000E+03  0.7546771E-02  0.1280296E+00
         21   -1    0    0  501  502  0.00000000000E+00  0.00000000000E+00  0.39929256418E+03  0.39929256418E+03  0.00000000000E+00 0. -1.
         21   -1    0    0  502  503 -0.00000000000E+00 -0.00000000000E+00 -0.13291703151E+03  0.13291703151E+03  0.00000000000E+00 0. -1.
          6    1    1    2  501    0  0.19724105435E+02 -0.13887014695E+02  0.30668978928E+03  0.35294406973E+03  0.17300000000E+03 0. -1.
         -6    1    1    2    0  503 -0.19724105435E+02  0.13887014695E+02 -0.40314256606E+02  0.17926552596E+03  0.17300000000E+03 0. -1.
</event>
<event>
 4    1  0.6069433E+000  0.1000000E+03  0.7546771E-02  0.1280296E+00
         21   -1    0    0  501  502  0.00000000000E+00  0.00000000000E+00  0.20137433537E+03  0.20137433537E+03  0.00000000000E+00 0. -1.
         21   -1    0    0  502  503 -0.00000000000E+00 -0.00000000000E+00 -0.87957226202E+03  0.87957226202E+03  0.00000000000E+00 0. -1.
          6    1    1    2  501    0 -0.11642182185E+03 -0.26674729343E+03 -0.18081837817E+02  0.33906358107E+03  0.17300000000E+03 0. -1.
         -6    1    1    2    0  503  0.11642182185E+03  0.26674729343E+03 -0.66011608884E+03  0.74188301632E+03  0.17300000000E+03 0. -1.
</event>
<event>
 4    1  0.6069433E+000  0.1000000E+03  0.7546771E-02  0.1280296E+00
         21   -1    0    0  503  502  0.00000000000E+00  0.00000000000E+00  0.10762101574E+04  0.10762101574E+04  0.00000000000E+00 0.  1.
         21   -1    0    0  501  503 -0.00000000000E+00 -0.00000000000E+00 -0.81096500690E+02  0.81096500690E+02  0.00000000000E+00 0.  1.
          6    1    1    2  501    0 -0.23825238296E+03 -0.15562792335E+02  0.46136162391E+03  0.54753077220E+03  0.17300000000E+03 0.  1.
         -6    1    1    2    0  502  0.23825238296E+03  0.15562792335E+02  0.53375203276E+03  0.60977588585E+03  0.17300000000E+03 0.  1.
</event>
<event>
 4    1  0.6069433E+000  0.1000000E+03  0.7546771E-02  0.1280296E+00
         21   -1    0    0  503  502  0.00000000000E+00  0.00000000000E+00  0.85075875711E+02  0.85075875711E+02  0.00000000000E+00 0. -1.
         21   -1    0    0  501  503 -0.00000000000E+00 -0.00000000000E+00 -0.24581624441E+04  0.24581624441E+04  0.00000000000E+00 0. -1.
          6    1    1    2  501    0 -0.23967427917E+02 -0.25501801081E+02 -0.23596295300E+04  0.23662217348E+04  0.17300000000E+03 0. -1.
         -6    1    1    2    0  502  0.23967427917E+02  0.25501801081E+02 -0.13457038320E+02  0.17701658493E+03  0.17300000000E+03 0. -1.
</event>
<event>
 4    1  0.6069433E+000  0.1000000E+03  0.7546771E-02  0.1280296E+00
         21   -1    0    0  501  502  0.00000000000E+00  0.00000000000E+00  0.32218079076E+04  0.32218079076E+04  0.00000000000E+00 0.  1.
         21   -1    0    0  502  503 -0.00000000000E+00 -0.00000000000E+00 -0.18938134255E+03  0.18938134255E+03  0.00000000000E+00 0.  1.
          6    1    1    2  501    0 -0.31577168991E+03 -0.27766943280E+03  0.29030659257E+04  0.29384575619E+04  0.17300000000E+03 0.  1.
         -6    1    1    2    0  503  0.31577168991E+03  0.27766943280E+03  0.12936063932E+03  0.47273168824E+03  0.17300000000E+03 0.  1.
</event>
<event>
 4    1  0.6069433E+000  0.1000000E+03  0.7546771E-02  0.1280296E+00
         21   -1    0    0  501  502  0.00000000000E+00  0.00000000000E+00  0.61428499784E+02  0.61428499784E+02  0.00000000000E+00 0.  1.
         21   -1    0    0  502  503 -0.00000000000E+00 -0.00000000000E+00 -0.18561508742E+04  0.18561508742E+04  0.00000000000E+00 0.  1.
          6    1    1    2  501    0 -0.20572466485E+03 -0.12440519960E+03 -0.43695004851E+03  0.52787653509E+03  0.17300000000E+03 0.  1.
         -6    1    1    2    0  503  0.20572466485E+03  0.12440519960E+03 -0.13577723260E+04  0.13897028389E+04  0.17300000000E+03 0.  1.
</event>
<event>
 4    1  0.6069433E+000  0.1000000E+03  0.7546771E-02  0.1280296E+00
         21   -1    0    0  501  502  0.00000000000E+00  0.00000000000E+00  0.36132664970E+03  0.36132664970E+03  0.00000000000E+00 0.  1.
         21   -1    0    0  502  503 -0.00000000000E+00 -0.00000000000E+00 -0.10288329722E+04  0.10288329722E+04  0.00000000000E+00 0.  1.
          6    1    1    2  501    0  0.50722249392E+02 -0.29361501444E+03  0.23970407192E+03  0.41972558343E+03  0.17300000000E+03 0.  1.
         -6    1    1    2    0  503 -0.50722249392E+02  0.29361501444E+03 -0.90721039439E+03  0.97043403844E+03  0.17300000000E+03 0.  1.
</event>
<event>
 4    1  0.6069433E+000  0.1000000E+03  0.7546771E-02  0.1280296E+00
         21   -1    0    0  501  502  0.00000000000E+00  0.00000000000E+00  0.93776247239E+02  0.93776247239E+02  0.00000000000E+00 0.  1.
         21   -1    0    0  502  503 -0.00000000000E+00 -0.00000000000E+00 -0.38272724649E+03  0.38272724649E+03  0.00000000000E+00 0.  1.
          6    1    1    2  501    0 -0.37674629313E+02  0.48240912224E+02 -0.20366541027E+03  0.27414441932E+03  0.17300000000E+03 0.  1.
         -6    1    1    2    0  503  0.37674629313E+02 -0.48240912224E+02 -0.85285588982E+02  0.20235907441E+03  0.17300000000E+03 0.  1.
</event>
<event>
 4    1  0.6069433E+000  0.1000000E+03  0.7546771E-02  0.1280296E+00
         21   -1    0    0  503  502  0.00000000000E+00  0.00000000000E+00  0.42825186326E+02  0.42825186326E+02  0.00000000000E+00 0.  1.
         21   -1    0    0  501  503 -0.00000000000E+00 -0.00000000000E+00 -0.30439785374E+04  0.30439785374E+04  0.00000000000E+00 0. -1.
          6    1    1    2  501    0 -0.15258690435E+03 -0.26403767416E+03 -0.18690794300E+04  0.19016796713E+04  0.17300000000E+03 0. -1.
         -6    1    1    2    0  502  0.15258690435E+03  0.26403767416E+03 -0.11320739211E+04  0.11851240524E+04  0.17300000000E+03 0.  1.
</event>
<event>
 4    1  0.6069433E+000  0.1000000E+03  0.7546771E-02  0.1280296E+00
         21   -1    0    0  503  502  0.00000000000E+00  0.00000000000E+00  0.10202895635E+04  0.10202895635E+04  0.00000000000E+00 0. -1.
         21   -1    0    0  501  503 -0.00000000000E+00 -0.00000000000E+00 -0.57024763906E+02  0.57024763906E+02  0.00000000000E+00 0.  1.
          6    1    1    2  501    0 -0.11730979600E+03 -0.11408521613E+03  0.39584472838E+03  0.46195137598E+03  0.17300000000E+03 0. -1.
         -6    1    1    2    0  502  0.11730979600E+03  0.11408521613E+03  0.56742007119E+03  0.61536295141E+03  0.17300000000E+03 0. -1.
</event>
<event>
 4    1  0.6069433E+000  0.1000000E+03  0.7546771E-02  0.1280296E+00
         21   -1    0    0  503  502  0.00000000000E+00  0.00000000000E+00  0.12843361839E+04  0.12843361839E+04  0.00000000000E+00 0. -1.
         21   -1    0    0  501  503 -0.00000000000E+00 -0.00000000000E+00 -0.28764135611E+02  0.28764135611E+02  0.00000000000E+00 0.  1.
          6    1    1    2  501    0  0.36920332691E+02 -0.28247724851E+02  0.38982930254E+03  0.42901856608E+03  0.17300000000E+03 0. -1.
         -6    1    1    2    0  502 -0.36920332691E+02  0.28247724851E+02  0.86574274573E+03  0.88408175341E+03  0.17300000000E+03 0. -1.
</event>
<event>
 4    1  0.6069433E+000  0.1000000E+03  0.7546771E-02  0.1280296E+00
         21   -1    0    0  501  502  0.00000000000E+00  0.00000000000E+00  0.11306431279E+04  0.11306431279E+04  0.00000000000E+00 0. -1.
         21   -1    0    0  502  503 -0.00000000000E+00 -0.00000000000E+00 -0.37825746162E+03  0.37825746162E+03  0.00000000000E+00 0.  1.
          6    1    1    2  501    0  0.23212249199E+02  0.51791966946E+03  0.79048913842E+03  0.96103156581E+03  0.17300000000E+03 0. -1.
         -6    1    1    2    0  503 -0.23212249199E+02 -0.51791966946E+03 -0.38103472155E+02  0.54786902369E+03  0.17300000000E+03 0.  1.
</event>
<event>
 4    1  0.6069433E+000  0.1000000E+03  0.7546771E-02  0.1280296E+00
         21   -1    0    0  501  502  0.00000000000E+00  0.00000000000E+00  0.27376163635E+03  0.27376163635E+03  0.00000000000E+00 0. -1.
         21   -1    0    0  502  503 -0.00000000000E+00 -0.00000000000E+00 -0.34732063178E+03  0.34732063178E+03  0.00000000000E+00 0.  1.
          6    1    1    2  501    0  0.69099970191E+02 -0.14414787778E+03  0.16363018266E+03  0.28680525314E+03  0.17300000000E+03 0. -1.
         -6    1    1    2    0  503 -0.69099970191E+02  0.14414787778E+03 -0.23718917809E+03  0.33427701499E+03  0.17300000000E+03 0.  1.
</event>
<event>
 4    1  0.6069433E+000  0.1000000E+03  0.7546771E-02  0.1280296E+00
         21   -1    0    0  503  502  0.00000000000E+00  0.00000000000E+00  0.36178860974E+03  0.36178860974E+03  0.00000000000E+00 0.  1.
         21   -1    0    0  501  503 -0.00000000000E+00 -0.00000000000E+00 -0.22767790329E+03  0.22767790329E+03  0.00000000000E+00 0.  1.
          6    1    1    2  501    0 -0.22749033992E+02 -0.80633194947E+01 -0.16680489629E+03  0.24152724297E+03  0.17300000000E+03 0.  1.
         -6    1    1    2    0  502  0.22749033992E+02  0.80633194947E+01  0.30091560275E+03  0.34793927005E+03  0.17300000000E+03 0.  1.
</event>
<event>
 4    1  0.6069433E+000  0.1000000E+03  0.7546771E-02  0.1280296E+00
         21   -1    0    0  501  502  0.00000000000E+00  0.00000000000E+00  0.10832776639E+04  0.10832776639E+04  0.00000000000E+00 0.  1.
         21   -1    0    0  502  503 -0.00000000000E+00 -0.00000000000E+00 -0.58889254735E+02  0.58889254735E+02  0.00000000000E+00 0. -1.
          6    1    1    2  501    0 -0.88572919031E+01  0.71113195731E+02  0.89543433227E+03  0.91480444995E+03  0.17300000000E+03 0.  1.
         -6    1    1    2    0  503  0.88572919031E+01 -0.71113195731E+02  0.12895407692E+03  0.22736246872E+03  0.17300000000E+03 0. -1.
</event>
<event>
 4    1  0.6069433E+000  0.1000000E+03  0.7546771E-02  0.1280296E+00
         21   -1    0    0  501  502  0.00000000000E+00  0.00000000000E+00  0.44071401720E+02  0.44071401720E+02  0.00000000000E+00 0.  1.
         21   -1    0    0  502  503 -0.00000000000E+00 -0.00000000000E+00 -0.95642668434E+03  0.95642668434E+03  0.00000000000E+00 0. -1.
          6    1    1    2  501    0 -0.31681743152E+02  0.45867911137E+02 -0.22355733732E+03  0.28812233719E+03  0.17300000000E+03 0.  1.
         -6    1    1    2    0  503  0.31681743152E+02 -0.45867911137E+02 -0.68879794531E+03  0.71237574887E+03  0.17300000000E+03 0. -1.
</event>
<event>
 4    1  0.6069433E+000  0.1000000E+03  0.7546771E-02  0.1280296E+00
         21   -1    0    0  501  502  0.00000000000E+00  0.00000000000E+00  0.55146075056E+03  0.55146075056E+03  0.00000000000E+00 0.  1.
         21   -1    0    0  502  503 -0.00000000000E+00 -0.00000000000E+00 -0.88254651793E+02  0.88254651793E+02  0.00000000000E+00 0. -1.
          6    1    1    2  501    0 -0.15615085374E+02  0.70686605385E+01  0.42852037194E+03  0.46244189475E+03  0.17300000000E+03 0.  1.
         -6    1    1    2    0  503  0.15615085374E+02 -0.70686605385E+01  0.34685726830E+02  0.17727350761E+03  0.17300000000E+03 0. -1.
</event>
<event>
 4    1  0.6069433E+000  0.1000000E+03  0.7546771E-02  0.1280296E+00
         21   -1    0    0  503  502  0.00000000000E+00  0.00000000000E+00  0.68514568336E+02  0.68514568336E+02  0.00000000000E+00 0. -1.
         21   -1    0    0  501  503 -0.00000000000E+00 -0.00000000000E+00 -0.12604233403E+04  0.12604233403E+04  0.00000000000E+00 0. -1.
          6    1    1    2  501    0  0.20581656046E+03  0.35164757385E+02 -0.85208476565E+03  0.89418927783E+03  0.17300000000E+03 0. -1.
         -6    1    1    2    0  502 -0.20581656046E+03 -0.35164757385E+02 -0.33982400628E+03  0.43474863078E+03  0.17300000000E+03 0. -1.
</event>
<event>
 4    1  0.6069433E+000  0.1000000E+03  0.7546771E-02  0.1280296E+00
         21   -1    0    0  503  502  0.00000000000E+00  0.00000000000E+00  0.15717508227E+03  0.15717508227E+03  0.00000000000E+00 0. -1.
         21   -1    0    0  501  503 -0.00000000000E+00 -0.00000000000E+00 -0.45455328800E+03  0.45455328800E+03  0.00000000000E+00 0. -1.
          6    1    1    2  501    0  0.12576927446E+03 -0.10171014245E+03 -0.29047569351E+03  0.37479059753E+03  0.17300000000E+03 0. -1.
         -6    1    1    2    0  502 -0.12576927446E+03  0.10171014245E+03 -0.69025122262E+01  0.23693777274E+03  0.17300000000E+03 0. -1.
</event>
<event>
 4    1  0.6069433E+000  0.1000000E+03  0.7546771E-02  0.1280296E+00
         21   -1    0    0  503  502  0.00000000000E+00  0.00000000000E+00  0.50575077224E+03  0.50575077224E+03  0.00000000000E+00 0. -1.
         21   -1    0    0  501  503 -0.00000000000E+00 -0.00000000000E+00 -0.22801640479E+03  0.22801640479E+03  0.00000000000E+00 0. -1.
          6    1    1    2  501    0  0.12076834500E+03  0.64588429217E+01 -0.14852994224E+03  0.25810240903E+03  0.17300000000E+03 0. -1.
         -6    1    1    2    0  502 -0.12076834500E+03 -0.64588429217E+01  0.42626430969E+03  0.47566476800E+03  0.17300000000E+03 0. -1.
</event>
<event>
 4    1  0.6069433E+000  0.1000000E+03  0.7546771E-02  0.1280296E+00
         21   -1    0    0  503  502  0.00000000000E+00  0.00000000000E+00  0.13123472719E+03  0.13123472719E+03  0.00000000000E+00 0.  1.
         21   -1    0    0  501  503 -0.00000000000E+00 -0.00000000000E+00 -0.10936786295E+04  0.10936786295E+04  0.00000000000E+00 0. -1.
          6    1    1    2  501    0  0.11202164495E+03  0.35233707981E+02 -0.99195239518E+03  0.10137498791E+04  0.17300000000E+03 0.  1.
         -6    1    1    2    0  502 -0.11202164495E+03 -0.35233707981E+02  0.29508492847E+02  0.21116347759E+03  0.17300000000E+03 0. -1.
</event>
<event>
 4    1  0.6069433E+000  0.1000000E+03  0.7546771E-02  0.1280296E+00
         21   -1    0    0  503  502  0.00000000000E+00  0.00000000000E+00  0.10490489843E+03  0.10490489843E+03  0.00000000000E+00 0.  1.
         21   -1    0    0  501  503 -0.00000000000E+00 -0.00000000000E+00 -0.45366818883E+03  0.45366818883E+03  0.00000000000E+00 0. -1.
          6    1    1    2  501    0  0.34275127026E+02 -0.27011483302E+02 -0.33509128483E+03  0.37963083876E+03  0.17300000000E+03 0.  1.
         -6    1    1    2    0  502 -0.34275127026E+02  0.27011483302E+02 -0.13672005569E+02  0.17894224850E+03  0.17300000000E+03 0. -1.
</event>
<event>
 4    1  0.6069433E+000  0.1000000E+03  0.7546771E-02  0.1280296E+00
         21   -1    0    0  503  502  0.00000000000E+00  0.00000000000E+00  0.16041904107E+03  0.16041904107E+03  0.00000000000E+00 0.  1.
         21   -1    0    0  501  503 -0.00000000000E+00 -0.00000000000E+00 -0.21977499638E+03  0.21977499638E+03  0.00000000000E+00 0. -1.
          6    1    1    2  501    0 -0.16524821262E+02  0.16211947499E+02 -0.99755740793E+02  0.20103757057E+03  0.17300000000E+03 0.  1.
         -6    1    1    2    0  502  0.16524821262E+02 -0.16211947499E+02  0.40399785486E+02  0.17915646689E+03  0.17300000000E+03 0. -1.
</event>
<event>
 4    1  0.6069433E+000  0.1000000E+03  0.7546771E-02  0.1280296E+00
         21   -1    0    0  501  502  0.00000000000E+00  0.00000000000E+00  0.14556232304E+03  0.14556232304E+03  0.00000000000E+00 0.  1.
         21   -1    0    0  502  503 -0.00000000000E+00 -0.00000000000E+00 -0.54011612102E+03  0.54011612102E+03  0.00000000000E+00 0.  1.
          6    1    1    2  501    0 -0.64807757842E+02  0.21135997102E+02  0.59330793646E+02  0.19518175869E+03  0.17300000000E+03 0.  1.
         -6    1    1    2    0  503  0.64807757842E+02 -0.21135997102E+02 -0.45388459162E+03  0.49049668538E+03  0.17300000000E+03 0.  1.
</event>
<event>
 4    1  0.6069433E+000  0.1000000E+03  0.7546771E-02  0.1280296E+00
         21   -1    0    0  501  502  0.00000000000E+00  0.00000000000E+00  0.18325885392E+03  0.18325885392E+03  0.00000000000E+00 0.  1.
         21   -1    0    0  502  503 -0.00000000000E+00 -0.00000000000E+00 -0.24188344141E+03  0.24188344141E+03  0.00000000000E+00 0.  1.
          6    1    1    2  501    0  0.40830233094E+02 -0.73943278437E+02 -0.11536087320E+03  0.22443673368E+03  0.17300000000E+03 0.  1.
         -6    1    1    2    0  503 -0.40830233094E+02  0.73943278437E+02  0.56736285710E+02  0.20070556165E+03  0.17300000000E+03 0.  1.
</event>
<event>
 4    1  0.6069433E+000  0.1000000E+03  0.7546771E-02  0.1280296E+00
         21   -1    0    0  501  502  0.00000000000E+00  0.00000000000E+00  0.74330409305E+03  0.74330409305E+03  0.00000000000E+00 0.  1.
         21   -1    0    0  502  503 -0.00000000000E+00 -0.00000000000E+00 -0.10437871585E+03  0.10437871585E+03  0.00000000000E+00 0.  1.
          6    1    1    2  501    0 -0.10114695287E+03  0.18195639623E+03  0.41944421896E+03  0.49920065006E+03  0.17300000000E+03 0.  1.
         -6    1    1    2    0  503  0.10114695287E+03 -0.18195639623E+03  0.21948115824E+03  0.34848215883E+03  0.17300000000E+03 0.  1.
</event>
<event>
 4    1  0.6069433E+000  0.1000000E+03  0.7546771E-02  0.1280296E+00
         21   -1    0    0  503  502  0.00000000000E+00  0.00000000000E+00  0.62493681397E+03  0.62493681397E+03  0.00000000000E+00 0. -1.
         21   -1    0    0  501  503 -0.00000000000E+00 -0.00000000000E+00 -0.12955472661E+03  0.12955472661E+03  0.00000000000E+00 0. -1.
          6    1    1    2  501    0 -0.20291633350E+02 -0.16538838416E+03  0.45448390752E+02  0.24445781685E+03  0.17300000000E+03 0. -1.
         -6    1    1    2    0  502  0.20291633350E+02  0.16538838416E+03  0.44993369661E+03  0.51003372373E+03  0.17300000000E+03 0. -1.
</event>
<event>
 4    1  0.6069433E+000  0.1000000E+03  0.7546771E-02  0.1280296E+00
         21   -1    0    0  503  502  0.00000000000E+00  0.00000000000E+00  0.12062721364E+03  0.12062721364E+03  0.00000000000E+00 0.  1.
         21   -1    0    0  501  503 -0.00000000000E+00 -0.00000000000E+00 -0.42005575265E+03  0.42005575265E+03  0.00000000000E+00 0.  1.
          6    1    1    2  501    0  0.12305482234E+03 -0.53104848120E+02 -0.21302028306E+03  0.30540015585E+03  0.17300000000E+03 0. -1.
         -6    1    1    2    0  502 -0.12305482234E+03  0.53104848120E+02 -0.86408255942E+02  0.23528281044E+03  0.17300000000E+03 0. -1.
</event>
<event>
 4    1  0.6069433E+000  0.1000000E+03  0.7546771E-02  0.1280296E+00
         21   -1    0    0  503  502  0.00000000000E+00  0.00000000000E+00  0.11523964174E+03  0.11523964174E+03  0.00000000000E+00 0.  1.
         21   -1    0    0  501  503 -0.00000000000E+00 -0.00000000000E+00 -0.11038943642E+04  0.11038943642E+04  0.00000000000E+00 0.  1.
          6    1    1    2  501    0 -0.12085814855E+03  0.48894690961E+01 -0.98567119085E+03  0.10080214757E+04  0.17300000000E+03 0. -1.
         -6    1    1    2    0  502  0.12085814855E+03 -0.48894690961E+01 -0.29835316262E+01  0.21111253028E+03  0.17300000000E+03 0. -1.
</event>
<event>
 4    1  0.6069433E+000  0.1000000E+03  0.7546771E-02  0.1280296E+00
         21   -1    0    0  501  502  0.00000000000E+00  0.00000000000E+00  0.14081896745E+03  0.14081896745E+03  0.00000000000E+00 0. -1.
         21   -1    0    0  502  503 -0.00000000000E+00 -0.00000000000E+00 -0.37659870349E+03  0.37659870349E+03  0.00000000000E+00 0.  1.
          6    1    1    2  501    0 -0.12758244427E+03 -0.16821283362E+02 -0.27017907864E+02  0.21729979983E+03  0.17300000000E+03 0. -1.
         -6    1    1    2    0  503  0.12758244427E+03  0.16821283362E+02 -0.20876182817E+03  0.30011787111E+03  0.17300000000E+03 0.  1.
</event>
<event>
 4    1  0.6069433E+000  0.1000000E+03  0.7546771E-02  0.1280296E+00
         21   -1    0    0  501  502  0.00000000000E+00  0.00000000000E+00  0.32414643126E+03  0.32414643126E+03  0.00000000000E+00 0. -1.
         21   -1    0    0  502  503 -0.00000000000E+00 -0.00000000000E+00 -0.13121653357E+03  0.13121653357E+03  0.00000000000E+00 0.  1.
          6    1    1    2  501    0  0.34314149160E+02 -0.10616902131E+03  0.82718278430E+02  0.22185724127E+03  0.17300000000E+03 0. -1.
         -6    1    1    2    0  503 -0.34314149160E+02  0.10616902131E+03  0.11021161926E+03  0.23350572356E+03  0.17300000000E+03 0.  1.
</event>
<event>
 4    1  0.6069433E+000  0.1000000E+03  0.7546771E-02  0.1280296E+00
         21   -1    0    0  501  502  0.00000000000E+00  0.00000000000E+00  0.14123615805E+03  0.14123615805E+03  0.00000000000E+00 0. -1.
         21   -1    0    0  502  503 -0.00000000000E+00 -0.00000000000E+00 -0.23777563062E+03  0.23777563062E+03  0.00000000000E+00 0.  1.
          6    1    1    2  501    0  0.48993996182E+02  0.14929492814E+02 -0.81461479767E+02  0.19796028416E+03  0.17300000000E+03 0. -1.
         -6    1    1    2    0  503 -0.48993996182E+02 -0.14929492814E+02 -0.15077992805E+02  0.18105150451E+03  0.17300000000E+03 0.  1.
</event>
<event>
 4    1  0.6069433E+000  0.1000000E+03  0.7546771E-02  0.1280296E+00
         21   -1    0    0  501  502  0.00000000000E+00  0.00000000000E+00  0.23204524336E+02  0.23204524336E+02  0.00000000000E+00 0. -1.
         21   -1    0    0  502  503 -0.00000000000E+00 -0.00000000000E+00 -0.14495300405E+04  0.14495300405E+04  0.00000000000E+00 0.  1.
          6    1    1    2  501    0 -0.30087441359E+02  0.52731154657E+02 -0.73148592852E+03  0.75411305016E+03  0.17300000000E+03 0. -1.
         -6    1    1    2    0  503  0.30087441359E+02 -0.52731154657E+02 -0.69483958767E+03  0.71862151470E+03  0.17300000000E+03 0.  1.
</event>
<event>
 4    1  0.6069433E+000  0.1000000E+03  0.7546771E-02  0.1280296E+00
         21   -1    0    0  501  502  0.00000000000E+00  0.00000000000E+00  0.76759802327E+03  0.76759802327E+03  0.00000000000E+00 0. -1.
         21   -1    0    0  502  503 -0.00000000000E+00 -0.00000000000E+00 -0.61566163914E+02  0.61566163914E+02  0.00000000000E+00 0.  1.
          6    1    1    2  501    0 -0.89047081488E+02  0.96905596731E+02  0.35873350471E+03  0.41945059876E+03  0.17300000000E+03 0. -1.
         -6    1    1    2    0  503  0.89047081488E+02 -0.96905596731E+02  0.34729835464E+03  0.40971358842E+03  0.17300000000E+03 0.  1.
</event>
<event>
 4    1  0.6069433E+000  0.1000000E+03  0.7546771E-02  0.1280296E+00
         21   -1    0    0  501  502  0.00000000000E+00  0.00000000000E+00  0.11166833334E+04  0.11166833334E+04  0.00000000000E+00 0.  1.
         21   -1    0    0  502  503 -0.00000000000E+00 -0.00000000000E+00 -0.11615781279E+03  0.11615781279E+03  0.00000000000E+00 0. -1.
          6    1    1    2  501    0  0.11317102807E+03 -0.21160222851E+03  0.85185603881E+03  0.90175988797E+03  0.17300000000E+03 0. -1.
         -6    1    1    2    0  503 -0.11317102807E+03  0.21160222851E+03  0.14866948177E+03  0.33108125818E+03  0.17300000000E+03 0.  1.
</event>
<event>
 4    1  0.6069433E+000  0.1000000E+03  0.7546771E-02  0.1280296E+00
         21   -1    0    0  501  502  0.00000000000E+00  0.00000000000E+00  0.50003234682E+03  0.50003234682E+03  0.00000000000E+00 0.  1.
         21   -1    0    0  502  503 -0.00000000000E+00 -0.00000000000E+00 -0.32241509482E+03  0.32241509482E+03  0.00000000000E+00 0. -1.
          6    1    1    2  501    0  0.11523524365E+03 -0.37063742238E+02  0.43858293659E+03  0.48676161993E+03  0.17300000000E+03 0. -1.
         -6    1    1    2    0  503 -0.11523524365E+03  0.37063742238E+02 -0.26096568459E+03  0.33568582172E+03  0.17300000000E+03 0.  1.
</event>
<event>
 4    1  0.6069433E+000  0.1000000E+03  0.7546771E-02  0.1280296E+00
         21   -1    0    0  503  502  0.00000000000E+00  0.00000000000E+00  0.14183026389E+03  0.14183026389E+03  0.00000000000E+00 0.  1.
         21   -1    0    0  501  503 -0.00000000000E+00 -0.00000000000E+00 -0.29991092610E+03  0.29991092610E+03  0.00000000000E+00 0.  1.
          6    1    1    2  501    0  0.29569191602E+02 -0.96111188838E+02 -0.25539851581E+02  0.20172501513E+03  0.17300000000E+03 0.  1.
         -6    1    1    2    0  502 -0.29569191602E+02  0.96111188838E+02 -0.13254081062E+03  0.24001617486E+03  0.17300000000E+03 0.  1.
</event>
<event>
 4    1  0.6069433E+000  0.1000000E+03  0.7546771E-02  0.1280296E+00
         21   -1    0    0  503  502  0.00000000000E+00  0.00000000000E+00  0.62492007564E+02  0.62492007564E+02  0.00000000000E+00 0.  1.
         21   -1    0    0  501  503 -0.00000000000E+00 -0.00000000000E+00 -0.56774854060E+03  0.56774854060E+03  0.00000000000E+00 0.  1.
          6    1    1    2  501    0  0.31556868642E+02  0.31936413615E+02 -0.35209533200E+03  0.39486186609E+03  0.17300000000E+03 0.  1.
         -6    1    1    2    0  502 -0.31556868642E+02 -0.31936413615E+02 -0.15316120103E+03  0.23537868207E+03  0.17300000000E+03 0.  1.
</event>
<event>
 4    1  0.6069433E+000  0.1000000E+03  0.7546771E-02  0.1280296E+00
         21   -1    0    0  503  502  0.00000000000E+00  0.00000000000E+00  0.40160814527E+03  0.40160814527E+03  0.00000000000E+00 0.  1.
         21   -1    0    0  501  503 -0.00000000000E+00 -0.00000000000E+00 -0.39627539991E+03  0.39627539991E+03  0.00000000000E+00 0.  1.
          6    1    1    2  501    0 -0.23117505218E+03 -0.19173252008E+03  0.20019335130E+03  0.40026196661E+03  0.17300000000E+03 0.  1.
         -6    1    1    2    0  502  0.23117505218E+03  0.19173252008E+03 -0.19486060594E+03  0.39762157858E+03  0.17300000000E+03 0.  1.
</event>
<event>
 4    1  0.6069433E+000  0.1000000E+03  0.7546771E-02  0.1280296E+00
         21   -1    0    0  501  502  0.00000000000E+00  0.00000000000E+00  0.63327053047E+02  0.63327053047E+02  0.00000000000E+00 0. -1.
         21   -1    0    0  502  503 -0.00000000000E+00 -0.00000000000E+00 -0.93401443339E+03  0.93401443339E+03  0.00000000000E+00 0.  1.
          6    1    1    2  501    0  0.59702965129E+02  0.15164129908E+03 -0.32959588785E+03  0.40635203570E+03  0.17300000000E+03 0.  1.
         -6    1    1    2    0  503 -0.59702965129E+02 -0.15164129908E+03 -0.54109149250E+03  0.59098945074E+03  0.17300000000E+03 0. -1.
</event>
<event>
 4    1  0.6069433E+000  0.1000000E+03  0.7546771E-02  0.1280296E+00
         21   -1    0    0  501  502  0.00000000000E+00  0.00000000000E+00  0.52858026687E+02  0.52858026687E+02  0.00000000000E+00 0. -1.
         21   -1    0    0  502  503 -0.00000000000E+00 -0.00000000000E+00 -0.87622631368E+03  0.87622631368E+03  0.00000000000E+00 0.  1.
          6    1    1    2  501    0  0.96649909350E+02 -0.56107736313E+02 -0.27692940438E+03  0.34512052686E+03  0.17300000000E+03 0.  1.
         -6    1    1    2    0  503 -0.96649909350E+02  0.56107736313E+02 -0.54643888262E+03  0.58396381351E+03  0.17300000000E+03 0. -1.
</event>
<event>
 4    1  0.6069433E+000  0.1000000E+03  0.7546771E-02  0.1280296E+00
         21   -1    0    0  501  502  0.00000000000E+00  0.00000000000E+00  0.35920442121E+03  0.35920442121E+03  0.00000000000E+00 0. -1.
         21   -1    0    0  502  503 -0.00000000000E+00 -0.00000000000E+00 -0.12902613891E+03  0.12902613891E+03  0.00000000000E+00 0.  1.
          6    1    1    2  501    0  0.12306323341E+03  0.11350174703E+02  0.76729970897E+02  0.22603069331E+03  0.17300000000E+03 0.  1.
         -6    1    1    2    0  503 -0.12306323341E+03 -0.11350174703E+02  0.15344831141E+03  0.26219986681E+03  0.17300000000E+03 0. -1.
</event>
<event>
 4    1  0.6069433E+000  0.1000000E+03  0.7546771E-02  0.1280296E+00
         21   -1    0    0  501  502  0.00000000000E+00  0.00000000000E+00  0.43034641269E+02  0.43034641269E+02  0.00000000000E+00 0. -1.
         21   -1    0    0  502  503 -0.00000000000E+00 -0.00000000000E+00 -0.89145956028E+03  0.89145956028E+03  0.00000000000E+00 0.  1.
          6    1    1    2  501    0  0.35571319315E+01  0.47352832274E+02 -0.23668263779E+03  0.29698925055E+03  0.17300000000E+03 0.  1.
         -6    1    1    2    0  503 -0.35571319315E+01 -0.47352832274E+02 -0.61174228123E+03  0.63750495100E+03  0.17300000000E+03 0. -1.
</event>
<event>
 4    1  0.6069433E+000  0.1000000E+03  0.7546771E-02  0.1280296E+00
         21   -1    0    0  501  502  0.00000000000E+00  0.00000000000E+00  0.27258679342E+03  0.27258679342E+03  0.00000000000E+00 0.  1.
         21   -1    0    0  502  503 -0.00000000000E+00 -0.00000000000E+00 -0.13830036437E+03  0.13830036437E+03  0.00000000000E+00 0.  1.
          6    1    1    2  501    0 -0.35159486753E+02 -0.12834458912E+01  0.15266014973E+03  0.23339228363E+03  0.17300000000E+03 0.  1.
         -6    1    1    2    0  503  0.35159486753E+02  0.12834458912E+01 -0.18373720674E+02  0.17749487416E+03  0.17300000000E+03 0.  1.
</event>
<event>
 4    1  0.6069433E+000  0.1000000E+03  0.7546771E-02  0.1280296E+00
         21   -1    0    0  501  502  0.00000000000E+00  0.00000000000E+00  0.44309431911E+02  0.44309431911E+02  0.00000000000E+00 0.  1.
         21   -1    0    0  502  503 -0.00000000000E+00 -0.00000000000E+00 -0.12761448432E+04  0.12761448432E+04  0.00000000000E+00 0.  1.
          6    1    1    2  501    0 -0.12222905138E+03 -0.27903310980E+02 -0.32607454046E+03  0.38983604464E+03  0.17300000000E+03 0.  1.
         -6    1    1    2    0  503  0.12222905138E+03  0.27903310980E+02 -0.90576087085E+03  0.93061823049E+03  0.17300000000E+03 0.  1.
</event>
<event>
 4    1  0.6069433E+000  0.1000000E+03  0.7546771E-02  0.1280296E+00
         21   -1    0    0  503  502  0.00000000000E+00  0.00000000000E+00  0.43477060078E+03  0.43477060078E+03  0.00000000000E+00 0. -1.
         21   -1    0    0  501  503 -0.00000000000E+00 -0.00000000000E+00 -0.15068066782E+03  0.15068066782E+03  0.00000000000E+00 0. -1.
          6    1    1    2  501    0 -0.11940194085E+02 -0.87118432597E+02 -0.48815998022E+02  0.20011044749E+03  0.17300000000E+03 0. -1.
         -6    1    1    2    0  502  0.11940194085E+02  0.87118432597E+02  0.33290593098E+03  0.38534082111E+03  0.17300000000E+03 0. -1.
</event>
<event>
 4    1  0.6069433E+000  0.1000000E+03  0.7546771E-02  0.1280296E+00
         21   -1    0    0  503  502  0.00000000000E+00  0.00000000000E+00  0.24819191388E+04  0.24819191388E+04  0.00000000000E+00 0. -1.
         21   -1    0    0  501  503 -0.00000000000E+00 -0.00000000000E+00 -0.21166686284E+03  0.21166686284E+03  0.00000000000E+00 0. -1.
          6    1    1    2  501    0 -0.17746012224E+03  0.26479885419E+03 -0.30928060933E+02  0.36400010044E+03  0.17300000000E+03 0. -1.
         -6    1    1    2    0  502  0.17746012224E+03 -0.26479885419E+03  0.23011803369E+04  0.23295859012E+04  0.17300000000E+03 0. -1.
</event>
<event>
 4    1  0.6069433E+000  0.1000000E+03  0.7546771E-02  0.1280296E+00
         21   -1    0    0  503  502  0.00000000000E+00  0.00000000000E+00  0.28452636409E+04  0.28452636409E+04  0.00000000000E+00 0. -1.
         21   -1    0    0  501  503 -0.00000000000E+00 -0.00000000000E+00 -0.20914070269E+02  0.20914070269E+02  0.00000000000E+00 0. -1.
          6    1    1    2  501    0 -0.15962821462E+02 -0.23785571241E+02  0.24084066581E+04  0.24147820183E+04  0.17300000000E+03 0. -1.
         -6    1    1    2    0  502  0.15962821462E+02  0.23785571241E+02  0.41594291255E+03  0.45139569290E+03  0.17300000000E+03 0. -1.
</event>
<event>
 4    1  0.6069433E+000  0.1000000E+03  0.7546771E-02  0.1280296E+00
         21   -1    0    0  503  502  0.00000000000E+00  0.00000000000E+00  0.12602013977E+03  0.12602013977E+03  0.00000000000E+00 0. -1.
         21   -1    0    0  501  503 -0.00000000000E+00 -0.00000000000E+00 -0.25866254531E+03  0.25866254531E+03  0.00000000000E+00 0. -1.
          6    1    1    2  501    0 -0.90719331781E+01  0.48203436985E+02 -0.49083225301E+02  0.18639751692E+03  0.17300000000E+03 0. -1.
         -6    1    1    2    0  502  0.90719331781E+01 -0.48203436985E+02 -0.83559180245E+02  0.19828516816E+03  0.17300000000E+03 0. -1.
</event>
<event>
 4    1  0.6069433E+000  0.1000000E+03  0.7546771E-02  0.1280296E+00
         21   -1    0    0  503  502  0.00000000000E+00  0.00000000000E+00  0.31055068788E+03  0.31055068788E+03  0.00000000000E+00 0. -1.
         21   -1    0    0  501  503 -0.00000000000E+00 -0.00000000000E+00 -0.19682936582E+03  0.19682936582E+03  0.00000000000E+00 0. -1.
          6    1    1    2  501    0 -0.30378848540E+02  0.12580775475E+03 -0.66468690105E+02  0.22604767718E+03  0.17300000000E+03 0. -1.
         -6    1    1    2    0  502  0.30378848540E+02 -0.12580775475E+03  0.18019001216E+03  0.28133237652E+03  0.17300000000E+03 0. -1.
</event>
<event>
 4    1  0.6069433E+000  0.1000000E+03  0.7546771E-02  0.1280296E+00
         21   -1    0    0  503  502  0.00000000000E+00  0.00000000000E+00  0.10375429196E+04  0.10375429196E+04  0.00000000000E+00 0. -1.
         21   -1    0    0  501  503 -0.00000000000E+00 -0.00000000000E+00 -0.43845905923E+02  0.43845905923E+02  0.00000000000E+00 0. -1.
          6    1    1    2  501    0 -0.12035521704E+03  0.31169834189E+02  0.47073978912E+03  0.51670289906E+03  0.17300000000E+03 0. -1.
         -6    1    1    2    0  502  0.12035521704E+03 -0.31169834189E+02  0.52295722453E+03  0.56468592644E+03  0.17300000000E+03 0. -1.
</event>
<event>
 4    1  0.6069433E+000  0.1000000E+03  0.7546771E-02  0.1280296E+00
         21   -1    0    0  501  502  0.00000000000E+00  0.00000000000E+00  0.15908346171E+04  0.15908346171E+04  0.00000000000E+00 0. -1.
         21   -1    0    0  502  503 -0.00000000000E+00 -0.00000000000E+00 -0.29566646497E+02  0.29566646497E+02  0.00000000000E+00 0.  1.
          6    1    1    2  501    0  0.75129085488E+02 -0.98263225804E+02  0.93941935248E+03  0.96319144558E+03  0.17300000000E+03 0. -1.
         -6    1    1    2    0  503 -0.75129085488E+02  0.98263225804E+02  0.62184861814E+03  0.65720981803E+03  0.17300000000E+03 0.  1.
</event>
<event>
 4    1  0.6069433E+000  0.1000000E+03  0.7546771E-02  0.1280296E+00
         21   -1    0    0  501  502  0.00000000000E+00  0.00000000000E+00  0.34612359848E+02  0.34612359848E+02  0.00000000000E+00 0. -1.
         21   -1    0    0  502  503 -0.00000000000E+00 -0.00000000000E+00 -0.20460356367E+04  0.20460356367E+04  0.00000000000E+00 0.  1.
          6    1    1    2  501    0 -0.10010275548E+03 -0.43268343883E+02 -0.34002700092E+03  0.39678718804E+03  0.17300000000E+03 0. -1.
         -6    1    1    2    0  503  0.10010275548E+03  0.43268343883E+02 -0.16713962760E+04  0.16838608085E+04  0.17300000000E+03 0.  1.
</event>
<event>
 4    1  0.6069433E+000  0.1000000E+03  0.7546771E-02  0.1280296E+00
         21   -1    0    0  503  502  0.00000000000E+00  0.00000000000E+00  0.51493898455E+02  0.51493898455E+02  0.00000000000E+00 0. -1.
         21   -1    0    0  501  503 -0.00000000000E+00 -0.00000000000E+00 -0.84426710178E+03  0.84426710178E+03  0.00000000000E+00 0. -1.
          6    1    1    2  501    0  0.10325555135E+03 -0.46813933785E+02 -0.45290730229E+03  0.49790287983E+03  0.17300000000E+03 0. -1.
         -6    1    1    2    0  502 -0.10325555135E+03  0.46813933785E+02 -0.33986590104E+03  0.39785812040E+03  0.17300000000E+03 0. -1.
</event>
<event>
 4    1  0.6069433E+000  0.1000000E+03  0.7546771E-02  0.1280296E+00
         21   -1    0    0  503  502  0.00000000000E+00  0.00000000000E+00  0.31443490024E+02  0.31443490024E+02  0.00000000000E+00 0.  1.
         21   -1    0    0  501  503 -0.00000000000E+00 -0.00000000000E+00 -0.14222995606E+04  0.14222995606E+04  0.00000000000E+00 0. -1.
          6    1    1    2  501    0 -0.10150003216E+03 -0.18299110884E+01 -0.92567657969E+03  0.94715982564E+03  0.17300000000E+03 0. -1.
         -6    1    1    2    0  502  0.10150003216E+03  0.18299110884E+01 -0.46517949090E+03  0.50658322501E+03  0.17300000000E+03 0.  1.
</event>
<event>
 4    1  0.6069433E+000  0.1000000E+03  0.7546771E-02  0.1280296E+00
         21   -1    0    0  501  502  0.00000000000E+00  0.00000000000E+00  0.55069810050E+03  0.55069810050E+03  0.00000000000E+00 0.  1.
         21   -1    0    0  502  503 -0.00000000000E+00 -0.00000000000E+00 -0.14211204097E+03  0.14211204097E+03  0.00000000000E+00 0.  1.
          6    1    1    2  501    0  0.15580178658E+03 -0.36508983931E+02  0.39095737183E+03  0.45649071096E+03  0.17300000000E+03 0.  1.
         -6    1    1    2    0  503 -0.15580178658E+03  0.36508983931E+02  0.17628687707E+02  0.23631943051E+03  0.17300000000E+03 0.  1.
</event>
<event>
 4    1  0.6069433E+000  0.1000000E+03  0.7546771E-02  0.1280296E+00
         21   -1    0    0  501  502  0.00000000000E+00  0.00000000000E+00  0.76028026697E+02  0.76028026697E+02  0.00000000000E+00 0.  1.
         21   -1    0    0  502  503 -0.00000000000E+00 -0.00000000000E+00 -0.10611418200E+04  0.10611418200E+04  0.00000000000E+00 0.  1.
          6    1    1    2  501    0  0.14114238298E+03 -0.12744805529E+03 -0.73429786586E+03  0.77800162910E+03  0.17300000000E+03 0.  1.
         -6    1    1    2    0  503 -0.14114238298E+03  0.12744805529E+03 -0.25081592741E+03  0.35916821757E+03  0.17300000000E+03 0.  1.
</event>
<event>
 4    1  0.6069433E+000  0.1000000E+03  0.7546771E-02  0.1280296E+00
         21   -1    0    0  501  502  0.00000000000E+00  0.00000000000E+00  0.24955838558E+03  0.24955838558E+03  0.00000000000E+00 0.  1.
         21   -1    0    0  502  503 -0.00000000000E+00 -0.00000000000E+00 -0.18107731717E+03  0.18107731717E+03  0.00000000000E+00 0.  1.
          6    1    1    2  501    0  0.42486868115E+01 -0.11982329034E+03  0.64367656940E+02  0.22010876291E+03  0.17300000000E+03 0.  1.
         -6    1    1    2    0  503 -0.42486868115E+01  0.11982329034E+03  0.41134114719E+01  0.21052693985E+03  0.17300000000E+03 0.  1.
</event>
<event>
 4    1  0.6069433E+000  0.1000000E+03  0.7546771E-02  0.1280296E+00
         21   -1    0    0  503  502  0.00000000000E+00  0.00000000000E+00  0.14852352679E+03  0.14852352679E+03  0.00000000000E+00 0.  1.
         21   -1    0    0  501  503 -0.00000000000E+00 -0.00000000000E+00 -0.28114747527E+03  0.28114747527E+03  0.00000000000E+00 0.  1.
          6    1    1    2  501    0 -0.23683117057E+02 -0.15891353004E+02 -0.17665007022E+03  0.24889289352E+03  0.17300000000E+03 0.  1.
         -6    1    1    2    0  502  0.23683117057E+02  0.15891353004E+02  0.44026121738E+02  0.18077810855E+03  0.17300000000E+03 0.  1.
</event>
<event>
 4    1  0.6069433E+000  0.1000000E+03  0.7546771E-02  0.1280296E+00
         21   -1    0    0  503  502  0.00000000000E+00  0.00000000000E+00  0.21561900176E+03  0.21561900176E+03  0.00000000000E+00 0.  1.
         21   -1    0    0  501  503 -0.00000000000E+00 -0.00000000000E+00 -0.19756062592E+03  0.19756062592E+03  0.00000000000E+00 0.  1.
          6    1    1    2  501    0 -0.10954912620E+02 -0.41539373015E+02 -0.95105386494E+02  0.20203852148E+03  0.17300000000E+03 0.  1.
         -6    1    1    2    0  502  0.10954912620E+02  0.41539373015E+02  0.11316376233E+03  0.21114110620E+03  0.17300000000E+03 0.  1.
</event>
<event>
 4    1  0.6069433E+000  0.1000000E+03  0.7546771E-02  0.1280296E+00
         21   -1    0    0  501  502  0.00000000000E+00  0.00000000000E+00  0.55083012209E+02  0.55083012209E+02  0.00000000000E+00 0. -1.
         21   -1    0    0  502  503 -0.00000000000E+00 -0.00000000000E+00 -0.97428444490E+03  0.97428444490E+03  0.00000000000E+00 0.  1.
          6    1    1    2  501    0 -0.39401408644E+02 -0.96138874054E+02 -0.20684814462E+03  0.28898150293E+03  0.17300000000E+03 0. -1.
         -6    1    1    2    0  503  0.39401408644E+02  0.96138874054E+02 -0.71235328807E+03  0.74038595417E+03  0.17300000000E+03 0.  1.
</event>
<event>
 4    1  0.6069433E+000  0.1000000E+03  0.7546771E-02  0.1280296E+00
         21   -1    0    0  503  502  0.00000000000E+00  0.00000000000E+00  0.73223142901E+03  0.73223142901E+03  0.00000000000E+00 0.  1.
         21   -1    0    0  501  503 -0.00000000000E+00 -0.00000000000E+00 -0.19335205044E+03  0.19335205044E+03  0.00000000000E+00 0.  1.
          6    1    1    2  501    0  0.28031707132E+03 -0.96328113694E+02  0.45915777197E+03  0.57324656608E+03  0.17300000000E+03 0.  1.
         -6    1    1    2    0  502 -0.28031707132E+03  0.96328113694E+02  0.79721606603E+02  0.35233691337E+03  0.17300000000E+03 0.  1.
</event>
<event>
 4    1  0.6069433E+000  0.1000000E+03  0.7546771E-02  0.1280296E+00
         21   -1    0    0  503  502  0.00000000000E+00  0.00000000000E+00  0.78524096810E+03  0.78524096810E+03  0.00000000000E+00 0.  1.
         21   -1    0    0  501  503 -0.00000000000E+00 -0.00000000000E+00 -0.95242697297E+02  0.95242697297E+02  0.00000000000E+00 0.  1.
          6    1    1    2  501    0 -0.18037739191E+03  0.97835797579E+02  0.42944303869E+03  0.50641699249E+03  0.17300000000E+03 0.  1.
         -6    1    1    2    0  502  0.18037739191E+03 -0.97835797579E+02  0.26055523211E+03  0.37406667291E+03  0.17300000000E+03 0.  1.
</event>
<event>
 4    1  0.6069433E+000  0.1000000E+03  0.7546771E-02  0.1280296E+00
         21   -1    0    0  503  502  0.00000000000E+00  0.00000000000E+00  0.56588043255E+03  0.56588043255E+03  0.00000000000E+00 0. -1.
         21   -1    0    0  501  503 -0.00000000000E+00 -0.00000000000E+00 -0.88605842224E+02  0.88605842224E+02  0.00000000000E+00 0.  1.
          6    1    1    2  501    0  0.13040068782E+03 -0.41053202978E+02  0.18163027433E+03  0.28567159714E+03  0.17300000000E+03 0.  1.
         -6    1    1    2    0  502 -0.13040068782E+03  0.41053202978E+02  0.29564431599E+03  0.36881467763E+03  0.17300000000E+03 0. -1.
</event>
<event>
 4    1  0.6069433E+000  0.1000000E+03  0.7546771E-02  0.1280296E+00
         21   -1    0    0  503  502  0.00000000000E+00  0.00000000000E+00  0.13489609132E+03  0.13489609132E+03  0.00000000000E+00 0. -1.
         21   -1    0    0  501  503 -0.00000000000E+00 -0.00000000000E+00 -0.48755669590E+03  0.48755669590E+03  0.00000000000E+00 0.  1.
          6    1    1    2  501    0 -0.13262951741E+03  0.85328217230E+02 -0.30343092364E+03  0.38323728807E+03  0.17300000000E+03 0.  1.
         -6    1    1    2    0  502  0.13262951741E+03 -0.85328217230E+02 -0.49229680936E+02  0.23921549914E+03  0.17300000000E+03 0. -1.
</event>
<event>
 4    1  0.6069433E+000  0.1000000E+03  0.7546771E-02  0.1280296E+00
         21   -1    0    0  503  502  0.00000000000E+00  0.00000000000E+00  0.25607683991E+03  0.25607683991E+03  0.00000000000E+00 0. -1.
         21   -1    0    0  501  503 -0.00000000000E+00 -0.00000000000E+00 -0.45971112203E+03  0.45971112203E+03  0.00000000000E+00 0.  1.
          6    1    1    2  501    0 -0.24110972304E+02  0.11780824432E+03 -0.38428838550E+03  0.43825413249E+03  0.17300000000E+03 0.  1.
         -6    1    1    2    0  502  0.24110972304E+02 -0.11780824432E+03  0.18065410339E+03  0.27753382944E+03  0.17300000000E+03 0. -1.
</event>
<event>
 4    1  0.6069433E+000  0.1000000E+03  0.7546771E-02  0.1280296E+00
         21   -1    0    0  503  502  0.00000000000E+00  0.00000000000E+00  0.27473672215E+03  0.27473672215E+03  0.00000000000E+00 0. -1.
         21   -1    0    0  501  503 -0.00000000000E+00 -0.00000000000E+00 -0.27681933464E+03  0.27681933464E+03  0.00000000000E+00 0. -1.
          6    1    1    2  501    0 -0.74934535953E+02 -0.19897351330E+03 -0.31336620050E+02  0.27589242003E+03  0.17300000000E+03 0. -1.
         -6    1    1    2    0  502  0.74934535953E+02  0.19897351330E+03  0.29254007557E+02  0.27566363676E+03  0.17300000000E+03 0. -1.
</event>
<event>
 4    1  0.6069433E+000  0.1000000E+03  0.7546771E-02  0.1280296E+00
         21   -1    0    0  503  502  0.00000000000E+00  0.00000000000E+00  0.46720281405E+03  0.46720281405E+03  0.00000000000E+00 0. -1.
         21   -1    0    0  501  503 -0.00000000000E+00 -0.00000000000E+00 -0.17186890846E+03  0.17186890846E+03  0.00000000000E+00 0. -1.
          6    1    1    2  501    0 -0.13100426775E+03  0.16075984961E+03  0.50908383941E+02  0.27482087069E+03  0.17300000000E+03 0. -1.
         -6    1    1    2    0  502  0.13100426775E+03 -0.16075984961E+03  0.24442552165E+03  0.36425085181E+03  0.17300000000E+03 0. -1.
</event>
<event>
 4    1  0.6069433E+000  0.1000000E+03  0.7546771E-02  0.1280296E+00
         21   -1    0    0  503  502  0.00000000000E+00  0.00000000000E+00  0.23543130943E+03  0.23543130943E+03  0.00000000000E+00 0. -1.
         21   -1    0    0  501  503 -0.00000000000E+00 -0.00000000000E+00 -0.15203953121E+03  0.15203953121E+03  0.00000000000E+00 0. -1.
          6    1    1    2  501    0  0.39919795935E+01  0.16332216153E+02 -0.34817918344E+02  0.17726805867E+03  0.17300000000E+03 0. -1.
         -6    1    1    2    0  502 -0.39919795935E+01 -0.16332216153E+02  0.11820969657E+03  0.21020278197E+03  0.17300000000E+03 0. -1.
</event>
<event>
 4    1  0.6069433E+000  0.1000000E+03  0.7546771E-02  0.1280296E+00
         21   -1    0    0  503  502  0.00000000000E+00  0.00000000000E+00  0.24046209336E+03  0.24046209336E+03  0.00000000000E+00 0. -1.
         21   -1    0    0  501  503 -0.00000000000E+00 -0.00000000000E+00 -0.31888387144E+03  0.31888387144E+03  0.00000000000E+00 0. -1.
          6    1    1    2  501    0  0.50185727290E+02  0.98638889013E+02 -0.22681165454E+03  0.30597510403E+03  0.17300000000E+03 0. -1.
         -6    1    1    2    0  502 -0.50185727290E+02 -0.98638889013E+02  0.14838987646E+03  0.25337086077E+03  0.17300000000E+03 0. -1.
</event>
<event>
 4    1  0.6069433E+000  0.1000000E+03  0.7546771E-02  0.1280296E+00
         21   -1    0    0  501  502  0.00000000000E+00  0.00000000000E+00  0.87101744856E+02  0.87101744856E+02  0.00000000000E+00 0. -1.
         21   -1    0    0  502  503 -0.00000000000E+00 -0.00000000000E+00 -0.78005040507E+03  0.78005040507E+03  0.00000000000E+00 0. -1.
          6    1    1    2  501    0 -0.19263670915E+03  0.17919766307E+02 -0.30625185064E+03  0.40143394943E+03  0.17300000000E+03 0. -1.
         -6    1    1    2    0  503  0.19263670915E+03 -0.17919766307E+02 -0.38669680958E+03  0.46571820050E+03  0.17300000000E+03 0. -1.
</event>
<event>
 4    1  0.6069433E+000  0.1000000E+03  0.7546771E-02  0.1280296E+00
         21   -1    0    0  501  502  0.00000000000E+00  0.00000000000E+00  0.83373125033E+03  0.83373125033E+03  0.00000000000E+00 0. -1.
         21   -1    0    0  502  503 -0.00000000000E+00 -0.00000000000E+00 -0.68286394990E+02  0.68286394990E+02  0.00000000000E+00 0. -1.
          6    1    1    2  501    0  0.11285732608E+03 -0.39815171155E+02  0.59558035727E+03  0.63163833471E+03  0.17300000000E+03 0. -1.
         -6    1    1    2    0  503 -0.11285732608E+03  0.39815171155E+02  0.16986449807E+03  0.27037931062E+03  0.17300000000E+03 0. -1.
</event>
<event>
 4    1  0.6069433E+000  0.1000000E+03  0.7546771E-02  0.1280296E+00
         21   -1    0    0  501  502  0.00000000000E+00  0.00000000000E+00  0.14794993194E+03  0.14794993194E+03  0.00000000000E+00 0. -1.
         21   -1    0    0  502  503 -0.00000000000E+00 -0.00000000000E+00 -0.69148146587E+03  0.69148146587E+03  0.00000000000E+00 0. -1.
          6    1    1    2  501    0  0.62532274932E+02 -0.21462441554E+03 -0.75362752749E+02  0.29254481649E+03  0.17300000000E+03 0. -1.
         -6    1    1    2    0  503 -0.62532274932E+02  0.21462441554E+03 -0.46816878119E+03  0.54688658132E+03  0.17300000000E+03 0. -1.
</event>
<event>
 4    1  0.6069433E+000  0.1000000E+03  0.7546771E-02  0.1280296E+00
         21   -1    0    0  501  502  0.00000000000E+00  0.00000000000E+00  0.48865341768E+02  0.48865341768E+02  0.00000000000E+00 0. -1.
         21   -1    0    0  502  503 -0.00000000000E+00 -0.00000000000E+00 -0.11384235930E+04  0.11384235930E+04  0.00000000000E+00 0. -1.
          6    1    1    2  501    0  0.12546890403E+03 -0.74588056047E+02 -0.37792560894E+03  0.44052535668E+03  0.17300000000E+03 0. -1.
         -6    1    1    2    0  503 -0.12546890403E+03  0.74588056047E+02 -0.71163264226E+03  0.74676357806E+03  0.17300000000E+03 0. -1.
</event>
<event>
 4    1  0.6069433E+000  0.1000000E+03  0.7546771E-02  0.1280296E+00
         21   -1    0    0  501  502  0.00000000000E+00  0.00000000000E+00  0.79202492059E+03  0.79202492059E+03  0.00000000000E+00 0. -1.
         21   -1    0    0  502  503 -0.00000000000E+00 -0.00000000000E+00 -0.71254792181E+02  0.71254792181E+02  0.00000000000E+00 0. -1.
          6    1    1    2  501    0  0.47430072024E+02  0.87984995117E+02  0.59388795170E+03  0.62659625779E+03  0.17300000000E+03 0. -1.
         -6    1    1    2    0  503 -0.47430072024E+02 -0.87984995117E+02  0.12688217671E+03  0.23668345499E+03  0.17300000000E+03 0. -1.
</event>
<event>
 4    1  0.6069433E+000  0.1000000E+03  0.7546771E-02  0.1280296E+00
         21   -1    0    0  501  502  0.00000000000E+00  0.00000000000E+00  0.13533619427E+03  0.13533619427E+03  0.00000000000E+00 0. -1.
         21   -1    0    0  502  503 -0.00000000000E+00 -0.00000000000E+00 -0.60646711645E+03  0.60646711645E+03  0.00000000000E+00 0. -1.
          6    1    1    2  501    0 -0.64985662743E+02 -0.44369234123E+02  0.41971068266E+02  0.19463385078E+03  0.17300000000E+03 0. -1.
         -6    1    1    2    0  503  0.64985662743E+02  0.44369234123E+02 -0.51310199044E+03  0.54716945994E+03  0.17300000000E+03 0. -1.
</event>
<event>
 4    1  0.6069433E+000  0.1000000E+03  0.7546771E-02  0.1280296E+00
         21   -1    0    0  501  502  0.00000000000E+00  0.00000000000E+00  0.40101974729E+03  0.40101974729E+03  0.00000000000E+00 0. -1.
         21   -1    0    0  502  503 -0.00000000000E+00 -0.00000000000E+00 -0.15381160057E+03  0.15381160057E+03  0.00000000000E+00 0. -1.
          6    1    1    2  501    0 -0.34463606340E+02  0.44202610431E+02  0.31254200838E+03  0.36159800599E+03  0.17300000000E+03 0. -1.
         -6    1    1    2    0  503  0.34463606340E+02 -0.44202610431E+02 -0.65333861664E+02  0.19323334187E+03  0.17300000000E+03 0. -1.
</event>
<event>
 4    1  0.6069433E+000  0.1000000E+03  0.7546771E-02  0.1280296E+00
         21   -1    0    0  501  502  0.00000000000E+00  0.00000000000E+00  0.47090831320E+03  0.47090831320E+03  0.00000000000E+00 0. -1.
         21   -1    0    0  502  503 -0.00000000000E+00 -0.00000000000E+00 -0.80551162500E+02  0.80551162500E+02  0.00000000000E+00 0. -1.
          6    1    1    2  501    0 -0.56466903050E+02 -0.68151351275E+02  0.17671463770E+03  0.26265981992E+03  0.17300000000E+03 0. -1.
         -6    1    1    2    0  503  0.56466903050E+02  0.68151351275E+02  0.21364251300E+03  0.28879965578E+03  0.17300000000E+03 0. -1.
</event>
<event>
 4    1  0.6069433E+000  0.1000000E+03  0.7546771E-02  0.1280296E+00
         21   -1    0    0  501  502  0.00000000000E+00  0.00000000000E+00  0.39360988062E+03  0.39360988062E+03  0.00000000000E+00 0. -1.
         21   -1    0    0  502  503 -0.00000000000E+00 -0.00000000000E+00 -0.84860616699E+02  0.84860616699E+02  0.00000000000E+00 0. -1.
          6    1    1    2  501    0 -0.35025098564E+02 -0.22583178483E+02  0.20891793370E+03  0.27443115804E+03  0.17300000000E+03 0. -1.
         -6    1    1    2    0  503  0.35025098564E+02  0.22583178483E+02  0.99831330216E+02  0.20403933928E+03  0.17300000000E+03 0. -1.
</event>
<event>
 4    1  0.6069433E+000  0.1000000E+03  0.7546771E-02  0.1280296E+00
         21   -1    0    0  501  502  0.00000000000E+00  0.00000000000E+00  0.15220875524E+03  0.15220875524E+03  0.00000000000E+00 0. -1.
         21   -1    0    0  502  503 -0.00000000000E+00 -0.00000000000E+00 -0.34378334921E+03  0.34378334921E+03  0.00000000000E+00 0. -1.
          6    1    1    2  501    0  0.10185340713E+03  0.10959888664E+03 -0.99511914591E+02  0.24943466808E+03  0.17300000000E+03 0. -1.
         -6    1    1    2    0  503 -0.10185340713E+03 -0.10959888664E+03 -0.92062679380E+02  0.24655743637E+03  0.17300000000E+03 0. -1.
</event>
<event>
 4    1  0.6069433E+000  0.1000000E+03  0.7546771E-02  0.1280296E+00
         21   -1    0    0  501  502  0.00000000000E+00  0.00000000000E+00  0.10344385425E+03  0.10344385425E+03  0.00000000000E+00 0. -1.
         21   -1    0    0  502  503 -0.00000000000E+00 -0.00000000000E+00 -0.40408746794E+03  0.40408746794E+03  0.00000000000E+00 0. -1.
          6    1    1    2  501    0 -0.83434782147E+02  0.21240599645E+02 -0.67441047512E+02  0.20467002916E+03  0.17300000000E+03 0. -1.
         -6    1    1    2    0  503  0.83434782147E+02 -0.21240599645E+02 -0.23320256618E+03  0.30286129304E+03  0.17300000000E+03 0. -1.
</event>
<event>
 4    1  0.6069433E+000  0.1000000E+03  0.7546771E-02  0.1280296E+00
         21   -1    0    0  501  502  0.00000000000E+00  0.00000000000E+00  0.68553352396E+03  0.68553352396E+03  0.00000000000E+00 0. -1.
         21   -1    0    0  502  503 -0.00000000000E+00 -0.00000000000E+00 -0.11420151195E+03  0.11420151195E+03  0.00000000000E+00 0.  1.
          6    1    1    2  501    0  0.12140570070E+02 -0.60311339755E+02  0.58739155180E+03  0.61542073923E+03  0.17300000000E+03 0. -1.
         -6    1    1    2    0  503 -0.12140570070E+02  0.60311339755E+02 -0.16059539796E+02  0.18431429669E+03  0.17300000000E+03 0.  1.
</event>
<event>
 4    1  0.6069433E+000  0.1000000E+03  0.7546771E-02  0.1280296E+00
         21   -1    0    0  503  502  0.00000000000E+00  0.00000000000E+00  0.23128085299E+03  0.23128085299E+03  0.00000000000E+00 0. -1.
         21   -1    0    0  501  503 -0.00000000000E+00 -0.00000000000E+00 -0.17305275004E+03  0.17305275004E+03  0.00000000000E+00 0. -1.
          6    1    1    2  501    0  0.20431195218E+02  0.39453755984E+02 -0.61950416061E+02  0.18905260286E+03  0.17300000000E+03 0. -1.
         -6    1    1    2    0  502 -0.20431195218E+02 -0.39453755984E+02  0.12017851902E+03  0.21528100017E+03  0.17300000000E+03 0. -1.
</event>
<event>
 4    1  0.6069433E+000  0.1000000E+03  0.7546771E-02  0.1280296E+00
         21   -1    0    0  503  502  0.00000000000E+00  0.00000000000E+00  0.16106364505E+04  0.16106364505E+04  0.00000000000E+00 0.  1.
         21   -1    0    0  501  503 -0.00000000000E+00 -0.00000000000E+00 -0.32385346894E+02  0.32385346894E+02  0.00000000000E+00 0.  1.
          6    1    1    2  501    0  0.68251734942E+02 -0.89216670305E+02  0.11418168604E+04  0.11602985203E+04  0.17300000000E+03 0.  1.
         -6    1    1    2    0  502 -0.68251734942E+02  0.89216670305E+02  0.43643424325E+03  0.48272327711E+03  0.17300000000E+03 0.  1.
</event>
<event>
 4    1  0.6069433E+000  0.1000000E+03  0.7546771E-02  0.1280296E+00
         21   -1    0    0  503  502  0.00000000000E+00  0.00000000000E+00  0.64838593631E+03  0.64838593631E+03  0.00000000000E+00 0.  1.
         21   -1    0    0  501  503 -0.00000000000E+00 -0.00000000000E+00 -0.23017419793E+03  0.23017419793E+03  0.00000000000E+00 0. -1.
          6    1    1    2  501    0 -0.16233133410E+03  0.15648450261E+03 -0.88443313858E+02  0.29764085969E+03  0.17300000000E+03 0. -1.
         -6    1    1    2    0  502  0.16233133410E+03 -0.15648450261E+03  0.50665505224E+03  0.58091927455E+03  0.17300000000E+03 0. -1.
</event>
<event>
 4    1  0.6069433E+000  0.1000000E+03  0.7546771E-02  0.1280296E+00
         21   -1    0    0  503  502  0.00000000000E+00  0.00000000000E+00  0.99649695912E+03  0.99649695912E+03  0.00000000000E+00 0. -1.
         21   -1    0    0  501  503 -0.00000000000E+00 -0.00000000000E+00 -0.54519360036E+02  0.54519360036E+02  0.00000000000E+00 0. -1.
          6    1    1    2  501    0 -0.11560664763E+02  0.11497706971E+03  0.23403229295E+03  0.31313493844E+03  0.17300000000E+03 0. -1.
         -6    1    1    2    0  502  0.11560664763E+02 -0.11497706971E+03  0.70794530613E+03  0.73788138071E+03  0.17300000000E+03 0. -1.
</event>
<event>
 4    1  0.6069433E+000  0.1000000E+03  0.7546771E-02  0.1280296E+00
         21   -1    0    0  503  502  0.00000000000E+00  0.00000000000E+00  0.11454022347E+03  0.11454022347E+03  0.00000000000E+00 0. -1.
         21   -1    0    0  501  503 -0.00000000000E+00 -0.00000000000E+00 -0.93198239455E+03  0.93198239455E+03  0.00000000000E+00 0. -1.
          6    1    1    2  501    0  0.85185670264E+02  0.26374961757E+03 -0.40854161649E+03  0.52312112516E+03  0.17300000000E+03 0. -1.
         -6    1    1    2    0  502 -0.85185670264E+02 -0.26374961757E+03 -0.40890055459E+03  0.52340149286E+03  0.17300000000E+03 0. -1.
</event>
<event>
 4    1  0.6069433E+000  0.1000000E+03  0.7546771E-02  0.1280296E+00
         21   -1    0    0  501  502  0.00000000000E+00  0.00000000000E+00  0.26742540498E+03  0.26742540498E+03  0.00000000000E+00 0. -1.
         21   -1    0    0  502  503 -0.00000000000E+00 -0.00000000000E+00 -0.18861098703E+03  0.18861098703E+03  0.00000000000E+00 0.  1.
          6    1    1    2  501    0  0.96180021937E+02  0.20881955570E+02  0.14503370978E+03  0.24627307945E+03  0.17300000000E+03 0. -1.
         -6    1    1    2    0  503 -0.96180021937E+02 -0.20881955570E+02 -0.66219291830E+02  0.20976331257E+03  0.17300000000E+03 0.  1.
</event>
<event>
 4    1  0.6069433E+000  0.1000000E+03  0.7546771E-02  0.1280296E+00
         21   -1    0    0  501  502  0.00000000000E+00  0.00000000000E+00  0.59690184931E+02  0.59690184931E+02  0.00000000000E+00 0. -1.
         21   -1    0    0  502  503 -0.00000000000E+00 -0.00000000000E+00 -0.57752333139E+03  0.57752333139E+03  0.00000000000E+00 0.  1.
          6    1    1    2  501    0  0.11371178241E+01 -0.36851433129E+02 -0.16208527865E+03  0.23991656615E+03  0.17300000000E+03 0. -1.
         -6    1    1    2    0  503 -0.11371178241E+01  0.36851433129E+02 -0.35574786781E+03  0.39729695016E+03  0.17300000000E+03 0.  1.
</event>
<event>
 4    1  0.6069433E+000  0.1000000E+03  0.7546771E-02  0.1280296E+00
         21   -1    0    0  501  502  0.00000000000E+00  0.00000000000E+00  0.28061015882E+03  0.28061015882E+03  0.00000000000E+00 0. -1.
         21   -1    0    0  502  503 -0.00000000000E+00 -0.00000000000E+00 -0.43366983994E+03  0.43366983994E+03  0.00000000000E+00 0.  1.
          6    1    1    2  501    0 -0.14860135847E+03  0.30517554368E+02  0.19190685916E+03  0.29961796918E+03  0.17300000000E+03 0. -1.
         -6    1    1    2    0  503  0.14860135847E+03 -0.30517554368E+02 -0.34496654029E+03  0.41466202958E+03  0.17300000000E+03 0.  1.
</event>
<event>
 4    1  0.6069433E+000  0.1000000E+03  0.7546771E-02  0.1280296E+00
         21   -1    0    0  501  502  0.00000000000E+00  0.00000000000E+00  0.39157500191E+03  0.39157500191E+03  0.00000000000E+00 0. -1.
         21   -1    0    0  502  503 -0.00000000000E+00 -0.00000000000E+00 -0.94651931155E+02  0.94651931155E+02  0.00000000000E+00 0. -1.
          6    1    1    2  501    0  0.20649550885E+02  0.61713993590E+02  0.21645764435E+03  0.28463649231E+03  0.17300000000E+03 0. -1.
         -6    1    1    2    0  503 -0.20649550885E+02 -0.61713993590E+02  0.80465426398E+02  0.20159044075E+03  0.17300000000E+03 0. -1.
</event>
<event>
 4    1  0.6069433E+000  0.1000000E+03  0.7546771E-02  0.1280296E+00
         21   -1    0    0  503  502  0.00000000000E+00  0.00000000000E+00  0.72087163918E+03  0.72087163918E+03  0.00000000000E+00 0.  1.
         21   -1    0    0  501  503 -0.00000000000E+00 -0.00000000000E+00 -0.15857279563E+03  0.15857279563E+03  0.00000000000E+00 0.  1.
          6    1    1    2  501    0 -0.12007923334E+03  0.72962407916E+02 -0.49511395364E+02  0.22830443167E+03  0.17300000000E+03 0.  1.
         -6    1    1    2    0  502  0.12007923334E+03 -0.72962407916E+02  0.61181023892E+03  0.65114000314E+03  0.17300000000E+03 0.  1.
</event>
<event>
 4    1  0.6069433E+000  0.1000000E+03  0.7546771E-02  0.1280296E+00
         21   -1    0    0  503  502  0.00000000000E+00  0.00000000000E+00  0.18277104718E+03  0.18277104718E+03  0.00000000000E+00 0.  1.
         21   -1    0    0  501  503 -0.00000000000E+00 -0.00000000000E+00 -0.40733551076E+03  0.40733551076E+03  0.00000000000E+00 0.  1.
          6    1    1    2  501    0  0.83417893542E+02 -0.12700426113E+03 -0.27058809495E+03  0.35529641771E+03  0.17300000000E+03 0.  1.
         -6    1    1    2    0  502 -0.83417893542E+02  0.12700426113E+03  0.46023631369E+02  0.23481014023E+03  0.17300000000E+03 0.  1.
</event>
<event>
 4    1  0.6069433E+000  0.1000000E+03  0.7546771E-02  0.1280296E+00
         21   -1    0    0  503  502  0.00000000000E+00  0.00000000000E+00  0.20978526709E+03  0.20978526709E+03  0.00000000000E+00 0.  1.
         21   -1    0    0  501  503 -0.00000000000E+00 -0.00000000000E+00 -0.41420119499E+03  0.41420119499E+03  0.00000000000E+00 0.  1.
          6    1    1    2  501    0 -0.18985980519E+02 -0.10312995006E+03 -0.32913177365E+03  0.38633273028E+03  0.17300000000E+03 0.  1.
         -6    1    1    2    0  502  0.18985980519E+02  0.10312995006E+03  0.12471584576E+03  0.23765373180E+03  0.17300000000E+03 0.  1.
</event>
<event>
 4    1  0.6069433E+000  0.1000000E+03  0.7546771E-02  0.1280296E+00
         21   -1    0    0  503  502  0.00000000000E+00  0.00000000000E+00  0.64782880197E+03  0.64782880197E+03  0.00000000000E+00 0.  1.
         21   -1    0    0  501  503 -0.00000000000E+00 -0.00000000000E+00 -0.11312514152E+03  0.11312514152E+03  0.00000000000E+00 0.  1.
          6    1    1    2  501    0 -0.18996067166E+03  0.53581974675E+02  0.36058632228E+03  0.44599056111E+03  0.17300000000E+03 0.  1.
         -6    1    1    2    0  502  0.18996067166E+03 -0.53581974675E+02  0.17411733817E+03  0.31496338238E+03  0.17300000000E+03 0.  1.
</event>
<event>
 4    1  0.6069433E+000  0.1000000E+03  0.7546771E-02  0.1280296E+00
         21   -1    0    0  503  502  0.00000000000E+00  0.00000000000E+00  0.16649314884E+03  0.16649314884E+03  0.00000000000E+00 0.  1.
         21   -1    0    0  501  503 -0.00000000000E+00 -0.00000000000E+00 -0.40823713535E+03  0.40823713535E+03  0.00000000000E+00 0.  1.
          6    1    1    2  501    0 -0.12547204973E+03  0.89054440136E+02 -0.25298449463E+03  0.34293451721E+03  0.17300000000E+03 0.  1.
         -6    1    1    2    0  502  0.12547204973E+03 -0.89054440136E+02  0.11240508117E+02  0.23179576699E+03  0.17300000000E+03 0.  1.
</event>
<event>
 4    1  0.6069433E+000  0.1000000E+03  0.7546771E-02  0.1280296E+00
         21   -1    0    0  501  502  0.00000000000E+00  0.00000000000E+00  0.25697920079E+03  0.25697920079E+03  0.00000000000E+00 0. -1.
         21   -1    0    0  502  503 -0.00000000000E+00 -0.00000000000E+00 -0.13665091561E+03  0.13665091561E+03  0.00000000000E+00 0. -1.
          6    1    1    2  501    0 -0.11278255357E+02 -0.19265704799E+02  0.13208365413E+03  0.21880004140E+03  0.17300000000E+03 0. -1.
         -6    1    1    2    0  503  0.11278255357E+02  0.19265704799E+02 -0.11755368958E+02  0.17483007500E+03  0.17300000000E+03 0. -1.
</event>
<event>
 4    1  0.6069433E+000  0.1000000E+03  0.7546771E-02  0.1280296E+00
         21   -1    0    0  501  502  0.00000000000E+00  0.00000000000E+00  0.30837577377E+03  0.30837577377E+03  0.00000000000E+00 0.  1.
         21   -1    0    0  502  503 -0.00000000000E+00 -0.00000000000E+00 -0.21407874988E+03  0.21407874988E+03  0.00000000000E+00 0.  1.
          6    1    1    2  501    0  0.16131478624E+03  0.75429073682E+01  0.14886063359E+03  0.27958512826E+03  0.17300000000E+03 0. -1.
         -6    1    1    2    0  503 -0.16131478624E+03 -0.75429073682E+01 -0.54563609704E+02  0.24286939539E+03  0.17300000000E+03 0. -1.
</event>
<event>
 4    1  0.6069433E+000  0.1000000E+03  0.7546771E-02  0.1280296E+00
         21   -1    0    0  501  502  0.00000000000E+00  0.00000000000E+00  0.74048300493E+02  0.74048300493E+02  0.00000000000E+00 0.  1.
         21   -1    0    0  502  503 -0.00000000000E+00 -0.00000000000E+00 -0.51421363378E+03  0.51421363378E+03  0.00000000000E+00 0.  1.
          6    1    1    2  501    0  0.63317038603E+01 -0.50025224110E+02 -0.10723295240E+03  0.20969148672E+03  0.17300000000E+03 0.  1.
         -6    1    1    2    0  503 -0.63317038603E+01  0.50025224110E+02 -0.33293238088E+03  0.37857044755E+03  0.17300000000E+03 0.  1.
</event>
<event>
 4    1  0.6069433E+000  0.1000000E+03  0.7546771E-02  0.1280296E+00
         21   -1    0    0  501  502  0.00000000000E+00  0.00000000000E+00  0.21590597923E+03  0.21590597923E+03  0.00000000000E+00 0.  1.
         21   -1    0    0  502  503 -0.00000000000E+00 -0.00000000000E+00 -0.31327803016E+03  0.31327803016E+03  0.00000000000E+00 0.  1.
          6    1    1    2  501    0 -0.70438563198E+02  0.34723816907E+02 -0.22937258637E+03  0.29783908076E+03  0.17300000000E+03 0.  1.
         -6    1    1    2    0  503  0.70438563198E+02 -0.34723816907E+02  0.13200053545E+03  0.23134492863E+03  0.17300000000E+03 0.  1.
</event>
<event>
 4    1  0.6069433E+000  0.1000000E+03  0.7546771E-02  0.1280296E+00
         21   -1    0    0  501  502  0.00000000000E+00  0.00000000000E+00  0.29860195854E+03  0.29860195854E+03  0.00000000000E+00 0.  1.
         21   -1    0    0  502  503 -0.00000000000E+00 -0.00000000000E+00 -0.30587311053E+03  0.30587311053E+03  0.00000000000E+00 0.  1.
          6    1    1    2  501    0 -0.77832450410E+02 -0.21200636905E+03  0.98355718501E+02  0.30101069452E+03  0.17300000000E+03 0.  1.
         -6    1    1    2    0  503  0.77832450410E+02  0.21200636905E+03 -0.10562687048E+03  0.30346437455E+03  0.17300000000E+03 0.  1.
</event>
<event>
 4    1  0.6069433E+000  0.1000000E+03  0.7546771E-02  0.1280296E+00
         21   -1    0    0  503  502  0.00000000000E+00  0.00000000000E+00  0.16555211974E+03  0.16555211974E+03  0.00000000000E+00 0.  1.
         21   -1    0    0  501  503 -0.00000000000E+00 -0.00000000000E+00 -0.26648984557E+03  0.26648984557E+03  0.00000000000E+00 0.  1.
          6    1    1    2  501    0  0.10127522446E+03  0.99090841456E+01 -0.11415132187E+03  0.23089908039E+03  0.17300000000E+03 0.  1.
         -6    1    1    2    0  502 -0.10127522446E+03 -0.99090841456E+01  0.13213596047E+02  0.20114288493E+03  0.17300000000E+03 0.  1.
</event>
<event>
 4    1  0.6069433E+000  0.1000000E+03  0.7546771E-02  0.1280296E+00
         21   -1    0    0  503  502  0.00000000000E+00  0.00000000000E+00  0.13045635959E+03  0.13045635959E+03  0.00000000000E+00 0.  1.
         21   -1    0    0  501  503 -0.00000000000E+00 -0.00000000000E+00 -0.10795693188E+04  0.10795693188E+04  0.00000000000E+00 0.  1.
          6    1    1    2  501    0  0.23537921049E+03  0.21503635780E+03 -0.31938983818E+03  0.48330412438E+03  0.17300000000E+03 0.  1.
         -6    1    1    2    0  502 -0.23537921049E+03 -0.21503635780E+03 -0.62972312101E+03  0.72672155399E+03  0.17300000000E+03 0.  1.
</event>
<event>
 4    1  0.6069433E+000  0.1000000E+03  0.7546771E-02  0.1280296E+00
         21   -1    0    0  503  502  0.00000000000E+00  0.00000000000E+00  0.63710960717E+03  0.63710960717E+03  0.00000000000E+00 0. -1.
         21   -1    0    0  501  503 -0.00000000000E+00 -0.00000000000E+00 -0.75288940647E+02  0.75288940647E+02  0.00000000000E+00 0. -1.
          6    1    1    2  501    0 -0.12570192244E+03  0.14170297765E+02  0.20751533135E+03  0.29831758813E+03  0.17300000000E+03 0. -1.
         -6    1    1    2    0  502  0.12570192244E+03 -0.14170297765E+02  0.35430533518E+03  0.41408095969E+03  0.17300000000E+03 0. -1.
</event>
<event>
 4    1  0.6069433E+000  0.1000000E+03  0.7546771E-02  0.1280296E+00
         21   -1    0    0  503  502  0.00000000000E+00  0.00000000000E+00  0.48647753139E+03  0.48647753139E+03  0.00000000000E+00 0. -1.
         21   -1    0    0  501  503 -0.00000000000E+00 -0.00000000000E+00 -0.11527262611E+03  0.11527262611E+03  0.00000000000E+00 0. -1.
          6    1    1    2  501    0  0.21334038611E+01  0.37408895994E+02 -0.14260200234E+02  0.17758471281E+03  0.17300000000E+03 0. -1.
         -6    1    1    2    0  502 -0.21334038611E+01 -0.37408895994E+02  0.38546510551E+03  0.42416544470E+03  0.17300000000E+03 0. -1.
</event>
<event>
 4    1  0.6069433E+000  0.1000000E+03  0.7546771E-02  0.1280296E+00
         21   -1    0    0  503  502  0.00000000000E+00  0.00000000000E+00  0.10247314210E+04  0.10247314210E+04  0.00000000000E+00 0. -1.
         21   -1    0    0  501  503 -0.00000000000E+00 -0.00000000000E+00 -0.11988373214E+03  0.11988373214E+03  0.00000000000E+00 0. -1.
          6    1    1    2  501    0  0.26855905532E+02 -0.20364455562E+03  0.84663294400E+02  0.28158341236E+03  0.17300000000E+03 0. -1.
         -6    1    1    2    0  502 -0.26855905532E+02  0.20364455562E+03  0.82018439449E+03  0.86303174082E+03  0.17300000000E+03 0. -1.
</event>
<event>
 4    1  0.6069433E+000  0.1000000E+03  0.7546771E-02  0.1280296E+00
         21   -1    0    0  503  502  0.00000000000E+00  0.00000000000E+00  0.56842595769E+02  0.56842595769E+02  0.00000000000E+00 0. -1.
         21   -1    0    0  501  503 -0.00000000000E+00 -0.00000000000E+00 -0.11294266700E+04  0.11294266700E+04  0.00000000000E+00 0. -1.
          6    1    1    2  501    0  0.61197454224E+02 -0.16911763651E+03 -0.63899006346E+03  0.68599067383E+03  0.17300000000E+03 0. -1.
         -6    1    1    2    0  502 -0.61197454224E+02  0.16911763651E+03 -0.43359401081E+03  0.50027859198E+03  0.17300000000E+03 0. -1.
</event>
<event>
 4    1  0.6069433E+000  0.1000000E+03  0.7546771E-02  0.1280296E+00
         21   -1    0    0  503  502  0.00000000000E+00  0.00000000000E+00  0.10529016595E+03  0.10529016595E+03  0.00000000000E+00 0. -1.
         21   -1    0    0  501  503 -0.00000000000E+00 -0.00000000000E+00 -0.51255192455E+03  0.51255192455E+03  0.00000000000E+00 0. -1.
          6    1    1    2  501    0 -0.13818415806E+03  0.62482180750E+02 -0.24649057762E+03  0.33717278851E+03  0.17300000000E+03 0. -1.
         -6    1    1    2    0  502  0.13818415806E+03 -0.62482180750E+02 -0.16077118098E+03  0.28066930200E+03  0.17300000000E+03 0. -1.
</event>
<event>
 4    1  0.6069433E+000  0.1000000E+03  0.7546771E-02  0.1280296E+00
         21   -1    0    0  501  502  0.00000000000E+00  0.00000000000E+00  0.14343069951E+04  0.14343069951E+04  0.00000000000E+00 0.  1.
         21   -1    0    0  502  503 -0.00000000000E+00 -0.00000000000E+00 -0.31223211945E+02  0.31223211945E+02  0.00000000000E+00 0.  1.
          6    1    1    2  501    0  0.59996602693E+02 -0.95113067614E+02  0.86426971951E+03  0.88855907852E+03  0.17300000000E+03 0. -1.
         -6    1    1    2    0  503 -0.59996602693E+02  0.95113067614E+02  0.53881406366E+03  0.57697112854E+03  0.17300000000E+03 0. -1.
</event>
<event>
 4    1  0.6069433E+000  0.1000000E+03  0.7546771E-02  0.1280296E+00
         21   -1    0    0  503  502  0.00000000000E+00  0.00000000000E+00  0.31055281268E+03  0.31055281268E+03  0.00000000000E+00 0. -1.
         21   -1    0    0  501  503 -0.00000000000E+00 -0.00000000000E+00 -0.12829428771E+03  0.12829428771E+03  0.00000000000E+00 0.  1.
          6    1    1    2  501    0 -0.21411563372E+02 -0.55246663710E+02  0.31689548765E+01  0.18289256730E+03  0.17300000000E+03 0.  1.
         -6    1    1    2    0  502  0.21411563372E+02  0.55246663710E+02  0.17908957009E+03  0.25595453309E+03  0.17300000000E+03 0. -1.
</event>
<event>
 4    1  0.6069433E+000  0.1000000E+03  0.7546771E-02  0.1280296E+00
         21   -1    0    0  503  502  0.00000000000E+00  0.00000000000E+00  0.21739196240E+04  0.21739196240E+04  0.00000000000E+00 0. -1.
         21   -1    0    0  501  503 -0.00000000000E+00 -0.00000000000E+00 -0.66645179308E+02  0.66645179308E+02  0.00000000000E+00 0.  1.
          6    1    1    2  501    0 -0.13596495321E+02 -0.28750440329E+02  0.60152817070E+02  0.18590001050E+03  0.17300000000E+03 0.  1.
         -6    1    1    2    0  502  0.13596495321E+02  0.28750440329E+02  0.20471216276E+04  0.20546647928E+04  0.17300000000E+03 0. -1.
</event>
<event>
 4    1  0.6069433E+000  0.1000000E+03  0.7546771E-02  0.1280296E+00
         21   -1    0    0  503  502  0.00000000000E+00  0.00000000000E+00  0.17634605298E+04  0.17634605298E+04  0.00000000000E+00 0. -1.
         21   -1    0    0  501  503 -0.00000000000E+00 -0.00000000000E+00 -0.62651573148E+02  0.62651573148E+02  0.00000000000E+00 0.  1.
          6    1    1    2  501    0 -0.28296840669E+03 -0.10428008339E+02  0.90357836925E+03  0.96258128588E+03  0.17300000000E+03 0.  1.
         -6    1    1    2    0  502  0.28296840669E+03  0.10428008339E+02  0.79723058744E+03  0.86353081711E+03  0.17300000000E+03 0. -1.
</event>
<event>
 4    1  0.6069433E+000  0.1000000E+03  0.7546771E-02  0.1280296E+00
         21   -1    0    0  503  502  0.00000000000E+00  0.00000000000E+00  0.11342681428E+04  0.11342681428E+04  0.00000000000E+00 0. -1.
         21   -1    0    0  501  503 -0.00000000000E+00 -0.00000000000E+00 -0.30440426910E+02  0.30440426910E+02  0.00000000000E+00 0.  1.
          6    1    1    2  501    0 -0.50358794799E+02  0.26075816918E+02  0.43537783940E+03  0.47190975777E+03  0.17300000000E+03 0.  1.
         -6    1    1    2    0  502  0.50358794799E+02 -0.26075816918E+02  0.66844987652E+03  0.69279881197E+03  0.17300000000E+03 0. -1.
</event>
<event>
 4    1  0.6069433E+000  0.1000000E+03  0.7546771E-02  0.1280296E+00
         21   -1    0    0  503  502  0.00000000000E+00  0.00000000000E+00  0.99352032600E+02  0.99352032600E+02  0.00000000000E+00 0.  1.
         21   -1    0    0  501  503 -0.00000000000E+00 -0.00000000000E+00 -0.11378724751E+04  0.11378724751E+04  0.00000000000E+00 0.  1.
          6    1    1    2  501    0  0.41008992730E+02 -0.30824486191E+01 -0.10442789221E+04  0.10593104862E+04  0.17300000000E+03 0.  1.
         -6    1    1    2    0  502 -0.41008992730E+02  0.30824486191E+01  0.57584795840E+01  0.17791402154E+03  0.17300000000E+03 0.  1.
</event>
<event>
 4    1  0.6069433E+000  0.1000000E+03  0.7546771E-02  0.1280296E+00
         21   -1    0    0  503  502  0.00000000000E+00  0.00000000000E+00  0.57698048965E+02  0.57698048965E+02  0.00000000000E+00 0.  1.
         21   -1    0    0  501  503 -0.00000000000E+00 -0.00000000000E+00 -0.82904879847E+03  0.82904879847E+03  0.00000000000E+00 0.  1.
          6    1    1    2  501    0  0.84639813909E+02 -0.10293852583E+03 -0.41010810616E+03  0.46462662099E+03  0.17300000000E+03 0.  1.
         -6    1    1    2    0  502 -0.84639813909E+02  0.10293852583E+03 -0.36124264335E+03  0.42212022645E+03  0.17300000000E+03 0.  1.
</event>
<event>
 4    1  0.6069433E+000  0.1000000E+03  0.7546771E-02  0.1280296E+00
         21   -1    0    0  503  502  0.00000000000E+00  0.00000000000E+00  0.17441339341E+03  0.17441339341E+03  0.00000000000E+00 0.  1.
         21   -1    0    0  501  503 -0.00000000000E+00 -0.00000000000E+00 -0.28323845364E+03  0.28323845364E+03  0.00000000000E+00 0.  1.
          6    1    1    2  501    0  0.18758169953E+02  0.12246057683E+03 -0.12052023565E+03  0.24454567880E+03  0.17300000000E+03 0.  1.
         -6    1    1    2    0  502 -0.18758169953E+02 -0.12246057683E+03  0.11695175414E+02  0.21310616825E+03  0.17300000000E+03 0.  1.
</event>
<event>
 4    1  0.6069433E+000  0.1000000E+03  0.7546771E-02  0.1280296E+00
         21   -1    0    0  501  502  0.00000000000E+00  0.00000000000E+00  0.16759903229E+04  0.16759903229E+04  0.00000000000E+00 0.  1.
         21   -1    0    0  502  503 -0.00000000000E+00 -0.00000000000E+00 -0.52504352466E+02  0.52504352466E+02  0.00000000000E+00 0.  1.
          6    1    1    2  501    0  0.89626203127E+02 -0.10947534882E+03  0.13800492210E+04  0.13980280973E+04  0.17300000000E+03 0.  1.
         -6    1    1    2    0  503 -0.89626203127E+02  0.10947534882E+03  0.24343674944E+03  0.33046657814E+03  0.17300000000E+03 0.  1.
</event>
<event>
 4    1  0.6069433E+000  0.1000000E+03  0.7546771E-02  0.1280296E+00
         21   -1    0    0  501  502  0.00000000000E+00  0.00000000000E+00  0.87337606329E+03  0.87337606329E+03  0.00000000000E+00 0.  1.
         21   -1    0    0  502  503 -0.00000000000E+00 -0.00000000000E+00 -0.57410898228E+02  0.57410898228E+02  0.00000000000E+00 0.  1.
          6    1    1    2  501    0  0.40879693514E+01  0.11454685281E+03  0.58279560183E+03  0.61864158161E+03  0.17300000000E+03 0.  1.
         -6    1    1    2    0  503 -0.40879693514E+01 -0.11454685281E+03  0.23316956323E+03  0.31214537991E+03  0.17300000000E+03 0.  1.
</event>
<event>
 4    1  0.6069433E+000  0.1000000E+03  0.7546771E-02  0.1280296E+00
         21   -1    0    0  501  502  0.00000000000E+00  0.00000000000E+00  0.24309193934E+03  0.24309193934E+03  0.00000000000E+00 0.  1.
         21   -1    0    0  502  503 -0.00000000000E+00 -0.00000000000E+00 -0.26454211196E+03  0.26454211196E+03  0.00000000000E+00 0.  1.
          6    1    1    2  501    0 -0.80884489563E+02  0.13298220716E+03  0.90124537685E+02  0.24955560576E+03  0.17300000000E+03 0.  1.
         -6    1    1    2    0  503  0.80884489563E+02 -0.13298220716E+03 -0.11157471030E+03  0.25807844554E+03  0.17300000000E+03 0.  1.
</event>
<event>
 4    1  0.6069433E+000  0.1000000E+03  0.7546771E-02  0.1280296E+00
         21   -1    0    0  501  502  0.00000000000E+00  0.00000000000E+00  0.40710753148E+03  0.40710753148E+03  0.00000000000E+00 0.  1.
         21   -1    0    0  502  503 -0.00000000000E+00 -0.00000000000E+00 -0.21036885555E+03  0.21036885555E+03  0.00000000000E+00 0.  1.
          6    1    1    2  501    0  0.58218915572E+02  0.17495665637E+02  0.33898436639E+03  0.38540231071E+03  0.17300000000E+03 0.  1.
         -6    1    1    2    0  503 -0.58218915572E+02 -0.17495665637E+02 -0.14224569046E+03  0.23207407632E+03  0.17300000000E+03 0.  1.
</event>
<event>
 4    1  0.6069433E+000  0.1000000E+03  0.7546771E-02  0.1280296E+00
         21   -1    0    0  501  502  0.00000000000E+00  0.00000000000E+00  0.75228740601E+02  0.75228740601E+02  0.00000000000E+00 0. -1.
         21   -1    0    0  502  503 -0.00000000000E+00 -0.00000000000E+00 -0.18550195642E+04  0.18550195642E+04  0.00000000000E+00 0. -1.
          6    1    1    2  501    0  0.86803837084E+02 -0.36422477881E+02 -0.69805008911E+02  0.20895751314E+03  0.17300000000E+03 0. -1.
         -6    1    1    2    0  503 -0.86803837084E+02  0.36422477881E+02 -0.17099858147E+04  0.17212907917E+04  0.17300000000E+03 0. -1.
</event>
<event>
 4    1  0.6069433E+000  0.1000000E+03  0.7546771E-02  0.1280296E+00
         21   -1    0    0  501  502  0.00000000000E+00  0.00000000000E+00  0.12885243468E+03  0.12885243468E+03  0.00000000000E+00 0. -1.
         21   -1    0    0  502  503 -0.00000000000E+00 -0.00000000000E+00 -0.35652771319E+03  0.35652771319E+03  0.00000000000E+00 0. -1.
          6    1    1    2  501    0  0.25705244637E+02  0.53728196328E+02  0.12569060321E+02  0.18339700096E+03  0.17300000000E+03 0. -1.
         -6    1    1    2    0  503 -0.25705244637E+02 -0.53728196328E+02 -0.24024433883E+03  0.30198314692E+03  0.17300000000E+03 0. -1.
</event>
<event>
 4    1  0.6069433E+000  0.1000000E+03  0.7546771E-02  0.1280296E+00
         21   -1    0    0  501  502  0.00000000000E+00  0.00000000000E+00  0.41811870487E+02  0.41811870487E+02  0.00000000000E+00 0. -1.
         21   -1    0    0  502  503 -0.00000000000E+00 -0.00000000000E+00 -0.15736884589E+04  0.15736884589E+04  0.00000000000E+00 0. -1.
          6    1    1    2  501    0 -0.91259426109E+02 -0.45177893934E+02 -0.26308360227E+03  0.33092492614E+03  0.17300000000E+03 0. -1.
         -6    1    1    2    0  503  0.91259426109E+02  0.45177893934E+02 -0.12687929862E+04  0.12845754033E+04  0.17300000000E+03 0. -1.
</event>
<event>
 4    1  0.6069433E+000  0.1000000E+03  0.7546771E-02  0.1280296E+00
         21   -1    0    0  501  502  0.00000000000E+00  0.00000000000E+00  0.10383569062E+03  0.10383569062E+03  0.00000000000E+00 0. -1.
         21   -1    0    0  502  503 -0.00000000000E+00 -0.00000000000E+00 -0.73644295193E+03  0.73644295193E+03  0.00000000000E+00 0. -1.
          6    1    1    2  501    0  0.44883416796E+02 -0.61767237828E+02 -0.97525416646E+01  0.18935106242E+03  0.17300000000E+03 0. -1.
         -6    1    1    2    0  503 -0.44883416796E+02  0.61767237828E+02 -0.62285471965E+03  0.65092758012E+03  0.17300000000E+03 0. -1.
</event>
<event>
 4    1  0.6069433E+000  0.1000000E+03  0.7546771E-02  0.1280296E+00
         21   -1    0    0  501  502  0.00000000000E+00  0.00000000000E+00  0.55887649193E+03  0.55887649193E+03  0.00000000000E+00 0. -1.
         21   -1    0    0  502  503 -0.00000000000E+00 -0.00000000000E+00 -0.12121300730E+03  0.12121300730E+03  0.00000000000E+00 0. -1.
          6    1    1    2  501    0 -0.16597224440E+03  0.47571640752E+02  0.33571813437E+03  0.41526559292E+03  0.17300000000E+03 0. -1.
         -6    1    1    2    0  503  0.16597224440E+03 -0.47571640752E+02  0.10194535027E+03  0.26482390631E+03  0.17300000000E+03 0. -1.
</event>
<event>
 4    1  0.6069433E+000  0.1000000E+03  0.7546771E-02  0.1280296E+00
         21   -1    0    0  501  502  0.00000000000E+00  0.00000000000E+00  0.23968725806E+03  0.23968725806E+03  0.00000000000E+00 0.  1.
         21   -1    0    0  502  503 -0.00000000000E+00 -0.00000000000E+00 -0.72804086848E+03  0.72804086848E+03  0.00000000000E+00 0. -1.
          6    1    1    2  501    0  0.21433914086E+03 -0.70192044666E+02  0.11039502830E+03  0.30493319385E+03  0.17300000000E+03 0.  1.
         -6    1    1    2    0  503 -0.21433914086E+03  0.70192044666E+02 -0.59874863872E+03  0.66279493269E+03  0.17300000000E+03 0. -1.
</event>
<event>
 4    1  0.6069433E+000  0.1000000E+03  0.7546771E-02  0.1280296E+00
         21   -1    0    0  501  502  0.00000000000E+00  0.00000000000E+00  0.33145942510E+04  0.33145942510E+04  0.00000000000E+00 0.  1.
         21   -1    0    0  502  503 -0.00000000000E+00 -0.00000000000E+00 -0.34533107712E+02  0.34533107712E+02  0.00000000000E+00 0. -1.
          6    1    1    2  501    0 -0.22789779133E+02 -0.12689698058E+03  0.29298888098E+04  0.29378222641E+04  0.17300000000E+03 0.  1.
         -6    1    1    2    0  503  0.22789779133E+02  0.12689698058E+03  0.35017233354E+03  0.41130509466E+03  0.17300000000E+03 0. -1.
</event>
<event>
 4    1  0.6069433E+000  0.1000000E+03  0.7546771E-02  0.1280296E+00
         21   -1    0    0  501  502  0.00000000000E+00  0.00000000000E+00  0.21302924360E+03  0.21302924360E+03  0.00000000000E+00 0.  1.
         21   -1    0    0  502  503 -0.00000000000E+00 -0.00000000000E+00 -0.21142306671E+03  0.21142306671E+03  0.00000000000E+00 0. -1.
          6    1    1    2  501    0 -0.69229219161E+01  0.53925632637E+02  0.11105085180E+03  0.21264334551E+03  0.17300000000E+03 0.  1.
         -6    1    1    2    0  503  0.69229219161E+01 -0.53925632637E+02 -0.10944467491E+03  0.21180896480E+03  0.17300000000E+03 0. -1.
</event>
<event>
 4    1  0.6069433E+000  0.1000000E+03  0.7546771E-02  0.1280296E+00
         21   -1    0    0  501  502  0.00000000000E+00  0.00000000000E+00  0.72737988488E+02  0.72737988488E+02  0.00000000000E+00 0. -1.
         21   -1    0    0  502  503 -0.00000000000E+00 -0.00000000000E+00 -0.10985953885E+04  0.10985953885E+04  0.00000000000E+00 0. -1.
          6    1    1    2  501    0 -0.11276341274E+03  0.18319854658E+01 -0.11300035841E+03  0.23540820806E+03  0.17300000000E+03 0. -1.
         -6    1    1    2    0  503  0.11276341274E+03 -0.18319854658E+01 -0.91285704159E+03  0.93592516891E+03  0.17300000000E+03 0. -1.
</event>
<event>
 4    1  0.6069433E+000  0.1000000E+03  0.7546771E-02  0.1280296E+00
         21   -1    0    0  501  502  0.00000000000E+00  0.00000000000E+00  0.31917813339E+03  0.31917813339E+03  0.00000000000E+00 0. -1.
         21   -1    0    0  502  503 -0.00000000000E+00 -0.00000000000E+00 -0.14377109860E+03  0.14377109860E+03  0.00000000000E+00 0. -1.
          6    1    1    2  501    0 -0.24086836295E+02  0.40441374803E+02  0.21438296737E+03  0.27947224760E+03  0.17300000000E+03 0. -1.
         -6    1    1    2    0  503  0.24086836295E+02 -0.40441374803E+02 -0.38975932582E+02  0.18347698439E+03  0.17300000000E+03 0. -1.
</event>
<event>
 4    1  0.6069433E+000  0.1000000E+03  0.7546771E-02  0.1280296E+00
         21   -1    0    0  503  502  0.00000000000E+00  0.00000000000E+00  0.82134267126E+03  0.82134267126E+03  0.00000000000E+00 0.  1.
         21   -1    0    0  501  503 -0.00000000000E+00 -0.00000000000E+00 -0.17279342753E+03  0.17279342753E+03  0.00000000000E+00 0.  1.
          6    1    1    2  501    0 -0.52862695512E+02  0.96847014280E+02 -0.92593233065E+02  0.22511400570E+03  0.17300000000E+03 0.  1.
         -6    1    1    2    0  502  0.52862695512E+02 -0.96847014280E+02  0.74114247679E+03  0.76902209309E+03  0.17300000000E+03 0.  1.
</event>
<event>
 4    1  0.6069433E+000  0.1000000E+03  0.7546771E-02  0.1280296E+00
         21   -1    0    0  503  502  0.00000000000E+00  0.00000000000E+00  0.68941528765E+03  0.68941528765E+03  0.00000000000E+00 0.  1.
         21   -1    0    0  501  503 -0.00000000000E+00 -0.00000000000E+00 -0.10151792504E+03  0.10151792504E+03  0.00000000000E+00 0.  1.
          6    1    1    2  501    0 -0.15171789830E+03 -0.70899080718E+02  0.13010036772E+03  0.27367883732E+03  0.17300000000E+03 0.  1.
         -6    1    1    2    0  502  0.15171789830E+03  0.70899080718E+02  0.45779699489E+03  0.51725437537E+03  0.17300000000E+03 0.  1.
</event>
<event>
 4    1  0.6069433E+000  0.1000000E+03  0.7546771E-02  0.1280296E+00
         21   -1    0    0  503  502  0.00000000000E+00  0.00000000000E+00  0.19927695925E+03  0.19927695925E+03  0.00000000000E+00 0.  1.
         21   -1    0    0  501  503 -0.00000000000E+00 -0.00000000000E+00 -0.83698254866E+03  0.83698254866E+03  0.00000000000E+00 0.  1.
          6    1    1    2  501    0 -0.10477681525E+03  0.17441161960E+03 -0.71084126362E+03  0.75935623796E+03  0.17300000000E+03 0.  1.
         -6    1    1    2    0  502  0.10477681525E+03 -0.17441161960E+03  0.73135674206E+02  0.27690326995E+03  0.17300000000E+03 0.  1.
</event>
<event>
 4    1  0.6069433E+000  0.1000000E+03  0.7546771E-02  0.1280296E+00
         21   -1    0    0  501  502  0.00000000000E+00  0.00000000000E+00  0.14651463085E+03  0.14651463085E+03  0.00000000000E+00 0. -1.
         21   -1    0    0  502  503 -0.00000000000E+00 -0.00000000000E+00 -0.73540701008E+03  0.73540701008E+03  0.00000000000E+00 0.  1.
          6    1    1    2  501    0  0.33667454896E+01 -0.76810844285E+02  0.65786531806E+02  0.20041983071E+03  0.17300000000E+03 0. -1.
         -6    1    1    2    0  503 -0.33667454896E+01  0.76810844285E+02 -0.65467891104E+03  0.68150181022E+03  0.17300000000E+03 0.  1.
</event>
<event>
 4    1  0.6069433E+000  0.1000000E+03  0.7546771E-02  0.1280296E+00
         21   -1    0    0  501  502  0.00000000000E+00  0.00000000000E+00  0.19435155337E+02  0.19435155337E+02  0.00000000000E+00 0. -1.
         21   -1    0    0  502  503 -0.00000000000E+00 -0.00000000000E+00 -0.22545857368E+04  0.22545857368E+04  0.00000000000E+00 0.  1.
          6    1    1    2  501    0 -0.42507689356E+02 -0.75814948941E+02 -0.68527026240E+03  0.71209489724E+03  0.17300000000E+03 0. -1.
         -6    1    1    2    0  503  0.42507689356E+02  0.75814948941E+02 -0.15498803191E+04  0.15619259949E+04  0.17300000000E+03 0.  1.
</event>
<event>
 4    1  0.6069433E+000  0.1000000E+03  0.7546771E-02  0.1280296E+00
         21   -1    0    0  503  502  0.00000000000E+00  0.00000000000E+00  0.75992618529E+03  0.75992618529E+03  0.00000000000E+00 0. -1.
         21   -1    0    0  501  503 -0.00000000000E+00 -0.00000000000E+00 -0.29676585164E+03  0.29676585164E+03  0.00000000000E+00 0. -1.
          6    1    1    2  501    0  0.20162144280E+03  0.56255888285E+01 -0.20630788835E+03  0.33641462252E+03  0.17300000000E+03 0. -1.
         -6    1    1    2    0  502 -0.20162144280E+03 -0.56255888285E+01  0.66946822200E+03  0.72027741442E+03  0.17300000000E+03 0. -1.
</event>
<event>
 4    1  0.6069433E+000  0.1000000E+03  0.7546771E-02  0.1280296E+00
         21   -1    0    0  503  502  0.00000000000E+00  0.00000000000E+00  0.92720108869E+02  0.92720108869E+02  0.00000000000E+00 0. -1.
         21   -1    0    0  501  503 -0.00000000000E+00 -0.00000000000E+00 -0.66623221195E+03  0.66623221195E+03  0.00000000000E+00 0. -1.
          6    1    1    2  501    0  0.10410356522E+03 -0.45725677434E+02 -0.49674493752E+03  0.53815696857E+03  0.17300000000E+03 0. -1.
         -6    1    1    2    0  502 -0.10410356522E+03  0.45725677434E+02 -0.76767165566E+02  0.22079535226E+03  0.17300000000E+03 0. -1.
</event>
<event>
 4    1  0.6069433E+000  0.1000000E+03  0.7546771E-02  0.1280296E+00
         21   -1    0    0  503  502  0.00000000000E+00  0.00000000000E+00  0.14824713055E+03  0.14824713055E+03  0.00000000000E+00 0. -1.
         21   -1    0    0  501  503 -0.00000000000E+00 -0.00000000000E+00 -0.55557692552E+03  0.55557692552E+03  0.00000000000E+00 0. -1.
          6    1    1    2  501    0 -0.27485729493E+02  0.57153412521E+02 -0.47346621210E+03  0.50805632748E+03  0.17300000000E+03 0. -1.
         -6    1    1    2    0  502  0.27485729493E+02 -0.57153412521E+02  0.66136417123E+02  0.19576772859E+03  0.17300000000E+03 0. -1.
</event>
<event>
 4    1  0.6069433E+000  0.1000000E+03  0.7546771E-02  0.1280296E+00
         21   -1    0    0  501  502  0.00000000000E+00  0.00000000000E+00  0.18025212195E+03  0.18025212195E+03  0.00000000000E+00 0.  1.
         21   -1    0    0  502  503 -0.00000000000E+00 -0.00000000000E+00 -0.24565664799E+03  0.24565664799E+03  0.00000000000E+00 0.  1.
          6    1    1    2  501    0 -0.64634657543E+02  0.82006943568E+02  0.26725321059E+02  0.20382840954E+03  0.17300000000E+03 0. -1.
         -6    1    1    2    0  503  0.64634657543E+02 -0.82006943568E+02 -0.92129847099E+02  0.22208036040E+03  0.17300000000E+03 0. -1.
</event>
<event>
 4    1  0.6069433E+000  0.1000000E+03  0.7546771E-02  0.1280296E+00
         21   -1    0    0  501  502  0.00000000000E+00  0.00000000000E+00  0.15631923380E+03  0.15631923380E+03  0.00000000000E+00 0.  1.
         21   -1    0    0  502  503 -0.00000000000E+00 -0.00000000000E+00 -0.80318128293E+03  0.80318128293E+03  0.00000000000E+00 0.  1.
          6    1    1    2  501    0  0.30172426450E+03 -0.24125684381E+02 -0.23775588868E+03  0.42199104615E+03  0.17300000000E+03 0. -1.
         -6    1    1    2    0  503 -0.30172426450E+03  0.24125684381E+02 -0.40910616045E+03  0.53750947057E+03  0.17300000000E+03 0. -1.
</event>
<event>
 4    1  0.6069433E+000  0.1000000E+03  0.7546771E-02  0.1280296E+00
         21   -1    0    0  501  502  0.00000000000E+00  0.00000000000E+00  0.17368589080E+03  0.17368589080E+03  0.00000000000E+00 0.  1.
         21   -1    0    0  502  503 -0.00000000000E+00 -0.00000000000E+00 -0.43207703914E+03  0.43207703914E+03  0.00000000000E+00 0. -1.
          6    1    1    2  501    0 -0.79867988426E+02  0.44224614027E+02  0.82849088674E+02  0.21243277420E+03  0.17300000000E+03 0.  1.
         -6    1    1    2    0  503  0.79867988426E+02 -0.44224614027E+02 -0.34124023701E+03  0.39333015574E+03  0.17300000000E+03 0.  1.
</event>
<event>
 4    1  0.6069433E+000  0.1000000E+03  0.7546771E-02  0.1280296E+00
         21   -1    0    0  501  502  0.00000000000E+00  0.00000000000E+00  0.13951112049E+03  0.13951112049E+03  0.00000000000E+00 0. -1.
         21   -1    0    0  502  503 -0.00000000000E+00 -0.00000000000E+00 -0.25955676350E+03  0.25955676350E+03  0.00000000000E+00 0.  1.
          6    1    1    2  501    0  0.22568536947E+02  0.13148504012E+02  0.18443578452E+02  0.17593006453E+03  0.17300000000E+03 0. -1.
         -6    1    1    2    0  503 -0.22568536947E+02 -0.13148504012E+02 -0.13848922146E+03  0.22313781947E+03  0.17300000000E+03 0.  1.
</event>
<event>
 4    1  0.6069433E+000  0.1000000E+03  0.7546771E-02  0.1280296E+00
         21   -1    0    0  503  502  0.00000000000E+00  0.00000000000E+00  0.15375585129E+03  0.15375585129E+03  0.00000000000E+00 0.  1.
         21   -1    0    0  501  503 -0.00000000000E+00 -0.00000000000E+00 -0.65948264343E+03  0.65948264343E+03  0.00000000000E+00 0.  1.
          6    1    1    2  501    0  0.89398233706E+02  0.28496298161E+02 -0.57252259908E+03  0.60540499640E+03  0.17300000000E+03 0.  1.
         -6    1    1    2    0  502 -0.89398233706E+02 -0.28496298161E+02  0.66795806944E+02  0.20783349832E+03  0.17300000000E+03 0.  1.
</event>
<event>
 4    1  0.6069433E+000  0.1000000E+03  0.7546771E-02  0.1280296E+00
         21   -1    0    0  501  502  0.00000000000E+00  0.00000000000E+00  0.11560768285E+03  0.11560768285E+03  0.00000000000E+00 0. -1.
         21   -1    0    0  502  503 -0.00000000000E+00 -0.00000000000E+00 -0.39609100656E+03  0.39609100656E+03  0.00000000000E+00 0. -1.
          6    1    1    2  501    0  0.42264043257E+02 -0.53797286716E+01  0.14632283771E+01  0.17817500349E+03  0.17300000000E+03 0. -1.
         -6    1    1    2    0  503 -0.42264043257E+02  0.53797286716E+01 -0.28194655209E+03  0.33352368592E+03  0.17300000000E+03 0. -1.
</event>
<event>
 4    1  0.6069433E+000  0.1000000E+03  0.7546771E-02  0.1280296E+00
         21   -1    0    0  501  502  0.00000000000E+00  0.00000000000E+00  0.59558162954E+03  0.59558162954E+03  0.00000000000E+00 0. -1.
         21   -1    0    0  502  503 -0.00000000000E+00 -0.00000000000E+00 -0.59780406269E+02  0.59780406269E+02  0.00000000000E+00 0. -1.
          6    1    1    2  501    0  0.73217521908E+02 -0.12184910156E+02  0.29026403553E+03  0.34596457603E+03  0.17300000000E+03 0. -1.
         -6    1    1    2    0  503 -0.73217521908E+02  0.12184910156E+02  0.24553718774E+03  0.30939745977E+03  0.17300000000E+03 0. -1.
</event>
<event>
 4    1  0.6069433E+000  0.1000000E+03  0.7546771E-02  0.1280296E+00
         21   -1    0    0  501  502  0.00000000000E+00  0.00000000000E+00  0.49896852861E+03  0.49896852861E+03  0.00000000000E+00 0. -1.
         21   -1    0    0  502  503 -0.00000000000E+00 -0.00000000000E+00 -0.29221736989E+03  0.29221736989E+03  0.00000000000E+00 0.  1.
          6    1    1    2  501    0 -0.27015614004E+02 -0.12682621793E+03  0.42944935263E+03  0.48080191288E+03  0.17300000000E+03 0. -1.
         -6    1    1    2    0  503  0.27015614004E+02  0.12682621793E+03 -0.22269819392E+03  0.31038398562E+03  0.17300000000E+03 0. -1.
</event>
<event>
 4    1  0.6069433E+000  0.1000000E+03  0.7546771E-02  0.1280296E+00
         21   -1    0    0  501  502  0.00000000000E+00  0.00000000000E+00  0.40577857214E+03  0.40577857214E+03  0.00000000000E+00 0.  1.
         21   -1    0    0  502  503 -0.00000000000E+00 -0.00000000000E+00 -0.10565546031E+03  0.10565546031E+03  0.00000000000E+00 0.  1.
          6    1    1    2  501    0 -0.47022684137E+02 -0.96326610474E+02  0.10297277827E+03  0.22808406734E+03  0.17300000000E+03 0.  1.
         -6    1    1    2    0  503  0.47022684137E+02  0.96326610474E+02  0.19715033356E+03  0.28334996512E+03  0.17300000000E+03 0.  1.
</event>
<event>
 4    1  0.6069433E+000  0.1000000E+03  0.7546771E-02  0.1280296E+00
         21   -1    0    0  503  502  0.00000000000E+00  0.00000000000E+00  0.45440131978E+03  0.45440131978E+03  0.00000000000E+00 0. -1.
         21   -1    0    0  501  503 -0.00000000000E+00 -0.00000000000E+00 -0.84889016421E+02  0.84889016421E+02  0.00000000000E+00 0.  1.
          6    1    1    2  501    0  0.32995260486E+02 -0.14660234669E+02  0.67123788032E+02  0.18904553053E+03  0.17300000000E+03 0. -1.
         -6    1    1    2    0  502 -0.32995260486E+02  0.14660234669E+02  0.30238851533E+03  0.35024480567E+03  0.17300000000E+03 0. -1.
</event>
<event>
 4    1  0.6069433E+000  0.1000000E+03  0.7546771E-02  0.1280296E+00
         21   -1    0    0  503  502  0.00000000000E+00  0.00000000000E+00  0.71235809236E+03  0.71235809236E+03  0.00000000000E+00 0. -1.
         21   -1    0    0  501  503 -0.00000000000E+00 -0.00000000000E+00 -0.62210875685E+02  0.62210875685E+02  0.00000000000E+00 0.  1.
          6    1    1    2  501    0  0.71401022191E+02  0.46940496395E+02  0.17021141402E+03  0.25729835140E+03  0.17300000000E+03 0. -1.
         -6    1    1    2    0  502 -0.71401022191E+02 -0.46940496395E+02  0.47993580265E+03  0.51727061664E+03  0.17300000000E+03 0. -1.
</event>
<event>
 4    1  0.6069433E+000  0.1000000E+03  0.7546771E-02  0.1280296E+00
         21   -1    0    0  503  502  0.00000000000E+00  0.00000000000E+00  0.14241491032E+04  0.14241491032E+04  0.00000000000E+00 0.  1.
         21   -1    0    0  501  503 -0.00000000000E+00 -0.00000000000E+00 -0.83516244339E+02  0.83516244339E+02  0.00000000000E+00 0.  1.
          6    1    1    2  501    0 -0.18929469432E+03  0.23059178751E+03  0.66517596466E+03  0.74926171510E+03  0.17300000000E+03 0. -1.
         -6    1    1    2    0  502  0.18929469432E+03 -0.23059178751E+03  0.67545689421E+03  0.75840363244E+03  0.17300000000E+03 0. -1.
</event>
<event>
 4    1  0.6069433E+000  0.1000000E+03  0.7546771E-02  0.1280296E+00
         21   -1    0    0  503  502  0.00000000000E+00  0.00000000000E+00  0.97152762075E+02  0.97152762075E+02  0.00000000000E+00 0.  1.
         21   -1    0    0  501  503 -0.00000000000E+00 -0.00000000000E+00 -0.99324184923E+03  0.99324184923E+03  0.00000000000E+00 0.  1.
          6    1    1    2  501    0  0.47025030324E+02 -0.23980411061E+03 -0.59330196491E+03  0.66457022692E+03  0.17300000000E+03 0. -1.
         -6    1    1    2    0  502 -0.47025030324E+02  0.23980411061E+03 -0.30278712224E+03  0.42582438439E+03  0.17300000000E+03 0. -1.
</event>
<event>
 4    1  0.6069433E+000  0.1000000E+03  0.7546771E-02  0.1280296E+00
         21   -1    0    0  503  502  0.00000000000E+00  0.00000000000E+00  0.76767632777E+03  0.76767632777E+03  0.00000000000E+00 0. -1.
         21   -1    0    0  501  503 -0.00000000000E+00 -0.00000000000E+00 -0.86600162461E+02  0.86600162461E+02  0.00000000000E+00 0. -1.
          6    1    1    2  501    0 -0.17039242744E+03 -0.75484374403E+01  0.19744180271E+03  0.31305402680E+03  0.17300000000E+03 0. -1.
         -6    1    1    2    0  502  0.17039242744E+03  0.75484374403E+01  0.48363436260E+03  0.54122246343E+03  0.17300000000E+03 0. -1.
</event>
<event>
 4    1  0.6069433E+000  0.1000000E+03  0.7546771E-02  0.1280296E+00
         21   -1    0    0  503  502  0.00000000000E+00  0.00000000000E+00  0.47021869656E+03  0.47021869656E+03  0.00000000000E+00 0. -1.
         21   -1    0    0  501  503 -0.00000000000E+00 -0.00000000000E+00 -0.85721033448E+02  0.85721033448E+02  0.00000000000E+00 0. -1.
          6    1    1    2  501    0 -0.79805376399E+02  0.63243113805E+02  0.18786112767E+03  0.27493525208E+03  0.17300000000E+03 0. -1.
         -6    1    1    2    0  502  0.79805376399E+02 -0.63243113805E+02  0.19663653544E+03  0.28100447793E+03  0.17300000000E+03 0. -1.
</event>
<event>
 4    1  0.6069433E+000  0.1000000E+03  0.7546771E-02  0.1280296E+00
         21   -1    0    0  503  502  0.00000000000E+00  0.00000000000E+00  0.52544501442E+03  0.52544501442E+03  0.00000000000E+00 0. -1.
         21   -1    0    0  501  503 -0.00000000000E+00 -0.00000000000E+00 -0.16107063464E+03  0.16107063464E+03  0.00000000000E+00 0. -1.
          6    1    1    2  501    0 -0.12011857330E+02 -0.31586867476E+02 -0.90886616524E+02  0.19832143600E+03  0.17300000000E+03 0. -1.
         -6    1    1    2    0  502  0.12011857330E+02  0.31586867476E+02  0.45526099630E+03  0.48819421306E+03  0.17300000000E+03 0. -1.
</event>
<event>
 4    1  0.6069433E+000  0.1000000E+03  0.7546771E-02  0.1280296E+00
         21   -1    0    0  503  502  0.00000000000E+00  0.00000000000E+00  0.21828985040E+03  0.21828985040E+03  0.00000000000E+00 0. -1.
         21   -1    0    0  501  503 -0.00000000000E+00 -0.00000000000E+00 -0.77504624918E+03  0.77504624918E+03  0.00000000000E+00 0. -1.
          6    1    1    2  501    0 -0.69253839669E+01 -0.88548274580E+02 -0.71603001725E+03  0.74196815529E+03  0.17300000000E+03 0. -1.
         -6    1    1    2    0  502  0.69253839669E+01  0.88548274580E+02  0.15927361847E+03  0.25136794429E+03  0.17300000000E+03 0. -1.
</event>
<event>
 4    1  0.6069433E+000  0.1000000E+03  0.7546771E-02  0.1280296E+00
         21   -1    0    0  503  502  0.00000000000E+00  0.00000000000E+00  0.11141713304E+03  0.11141713304E+03  0.00000000000E+00 0. -1.
         21   -1    0    0  501  503 -0.00000000000E+00 -0.00000000000E+00 -0.30771462102E+03  0.30771462102E+03  0.00000000000E+00 0. -1.
          6    1    1    2  501    0 -0.57131338221E+02 -0.13042701251E+02 -0.13250745001E+03  0.22565754180E+03  0.17300000000E+03 0. -1.
         -6    1    1    2    0  502  0.57131338221E+02  0.13042701251E+02 -0.63790037964E+02  0.19347421225E+03  0.17300000000E+03 0. -1.
</event>
<event>
 4    1  0.6069433E+000  0.1000000E+03  0.7546771E-02  0.1280296E+00
         21   -1    0    0  501  502  0.00000000000E+00  0.00000000000E+00  0.15366548947E+03  0.15366548947E+03  0.00000000000E+00 0.  1.
         21   -1    0    0  502  503 -0.00000000000E+00 -0.00000000000E+00 -0.27895130260E+03  0.27895130260E+03  0.00000000000E+00 0.  1.
          6    1    1    2  501    0 -0.11122817024E+03 -0.23436956856E+02 -0.58570759007E+02  0.21512910220E+03  0.17300000000E+03 0.  1.
         -6    1    1    2    0  503  0.11122817024E+03  0.23436956856E+02 -0.66715054121E+02  0.21748768988E+03  0.17300000000E+03 0.  1.
</event>
<event>
 4    1  0.6069433E+000  0.1000000E+03  0.7546771E-02  0.1280296E+00
         21   -1    0    0  501  502  0.00000000000E+00  0.00000000000E+00  0.38323983008E+02  0.38323983008E+02  0.00000000000E+00 0.  1.
         21   -1    0    0  502  503 -0.00000000000E+00 -0.00000000000E+00 -0.12649351321E+04  0.12649351321E+04  0.00000000000E+00 0.  1.
          6    1    1    2  501    0  0.37311072276E+02 -0.91463560048E+01 -0.22659957141E+03  0.28766671289E+03  0.17300000000E+03 0.  1.
         -6    1    1    2    0  503 -0.37311072276E+02  0.91463560048E+01 -0.10000115776E+04  0.10155924022E+04  0.17300000000E+03 0.  1.
</event>
<event>
 4    1  0.6069433E+000  0.1000000E+03  0.7546771E-02  0.1280296E+00
         21   -1    0    0  501  502  0.00000000000E+00  0.00000000000E+00  0.47477023743E+03  0.47477023743E+03  0.00000000000E+00 0.  1.
         21   -1    0    0  502  503 -0.00000000000E+00 -0.00000000000E+00 -0.97170791399E+02  0.97170791399E+02  0.00000000000E+00 0. -1.
          6    1    1    2  501    0 -0.92182227227E+01 -0.95351058026E+02  0.30041599533E+03  0.35966035387E+03  0.17300000000E+03 0.  1.
         -6    1    1    2    0  503  0.92182227227E+01  0.95351058026E+02  0.77183450695E+02  0.21228067495E+03  0.17300000000E+03 0. -1.
</event>
<event>
 4    1  0.6069433E+000  0.1000000E+03  0.7546771E-02  0.1280296E+00
         21   -1    0    0  501  502  0.00000000000E+00  0.00000000000E+00  0.36572281804E+02  0.36572281804E+02  0.00000000000E+00 0.  1.
         21   -1    0    0  502  503 -0.00000000000E+00 -0.00000000000E+00 -0.11356790758E+04  0.11356790758E+04  0.00000000000E+00 0. -1.
          6    1    1    2  501    0  0.55052040286E+02  0.90866917391E+02 -0.60082760519E+03  0.63420054791E+03  0.17300000000E+03 0.  1.
         -6    1    1    2    0  503 -0.55052040286E+02 -0.90866917391E+02 -0.49827918886E+03  0.53805080974E+03  0.17300000000E+03 0. -1.
</event>
<event>
 4    1  0.6069433E+000  0.1000000E+03  0.7546771E-02  0.1280296E+00
         21   -1    0    0  503  502  0.00000000000E+00  0.00000000000E+00  0.14899325155E+03  0.14899325155E+03  0.00000000000E+00 0.  1.
         21   -1    0    0  501  503 -0.00000000000E+00 -0.00000000000E+00 -0.23133609165E+03  0.23133609165E+03  0.00000000000E+00 0.  1.
          6    1    1    2  501    0  0.13861083688E+02 -0.45998763117E+02 -0.89546981500E+02  0.20063817619E+03  0.17300000000E+03 0.  1.
         -6    1    1    2    0  502 -0.13861083688E+02  0.45998763117E+02  0.72041414024E+01  0.17969116701E+03  0.17300000000E+03 0.  1.
</event>
<event>
 4    1  0.6069433E+000  0.1000000E+03  0.7546771E-02  0.1280296E+00
         21   -1    0    0  503  502  0.00000000000E+00  0.00000000000E+00  0.32362687999E+03  0.32362687999E+03  0.00000000000E+00 0.  1.
         21   -1    0    0  501  503 -0.00000000000E+00 -0.00000000000E+00 -0.39556598580E+03  0.39556598580E+03  0.00000000000E+00 0. -1.
          6    1    1    2  501    0  0.21146907763E+02 -0.15057605431E+03 -0.31114968379E+03  0.38712202929E+03  0.17300000000E+03 0. -1.
         -6    1    1    2    0  502 -0.21146907763E+02  0.15057605431E+03  0.23921057797E+03  0.33207083650E+03  0.17300000000E+03 0.  1.
</event>
<event>
 4    1  0.6069433E+000  0.1000000E+03  0.7546771E-02  0.1280296E+00
         21   -1    0    0  503  502  0.00000000000E+00  0.00000000000E+00  0.75740675088E+03  0.75740675088E+03  0.00000000000E+00 0.  1.
         21   -1    0    0  501  503 -0.00000000000E+00 -0.00000000000E+00 -0.82700365702E+02  0.82700365702E+02  0.00000000000E+00 0. -1.
          6    1    1    2  501    0  0.31743100301E+02  0.15743206195E+03  0.19777279472E+03  0.30795382264E+03  0.17300000000E+03 0. -1.
         -6    1    1    2    0  502 -0.31743100301E+02 -0.15743206195E+03  0.47693359046E+03  0.53215329395E+03  0.17300000000E+03 0.  1.
</event>
<event>
 4    1  0.6069433E+000  0.1000000E+03  0.7546771E-02  0.1280296E+00
         21   -1    0    0  503  502  0.00000000000E+00  0.00000000000E+00  0.23306561058E+03  0.23306561058E+03  0.00000000000E+00 0.  1.
         21   -1    0    0  501  503 -0.00000000000E+00 -0.00000000000E+00 -0.20636202454E+03  0.20636202454E+03  0.00000000000E+00 0. -1.
          6    1    1    2  501    0 -0.57209951990E+02 -0.10990231053E+02 -0.10841801016E+03  0.21231398615E+03  0.17300000000E+03 0. -1.
         -6    1    1    2    0  502  0.57209951990E+02  0.10990231053E+02  0.13512159621E+03  0.22711364897E+03  0.17300000000E+03 0.  1.
</event>
<event>
 4    1  0.6069433E+000  0.1000000E+03  0.7546771E-02  0.1280296E+00
         21   -1    0    0  501  502  0.00000000000E+00  0.00000000000E+00  0.69198771527E+03  0.69198771527E+03  0.00000000000E+00 0. -1.
         21   -1    0    0  502  503 -0.00000000000E+00 -0.00000000000E+00 -0.67778333525E+02  0.67778333525E+02  0.00000000000E+00 0. -1.
          6    1    1    2  501    0  0.10500777156E+03  0.73035567640E+02  0.35549697258E+03  0.41553330040E+03  0.17300000000E+03 0. -1.
         -6    1    1    2    0  503 -0.10500777156E+03 -0.73035567640E+02  0.26871240916E+03  0.34423274839E+03  0.17300000000E+03 0. -1.
</event>
<event>
 4    1  0.6069433E+000  0.1000000E+03  0.7546771E-02  0.1280296E+00
         21   -1    0    0  503  502  0.00000000000E+00  0.00000000000E+00  0.21701696579E+03  0.21701696579E+03  0.00000000000E+00 0.  1.
         21   -1    0    0  501  503 -0.00000000000E+00 -0.00000000000E+00 -0.16373414983E+03  0.16373414983E+03  0.00000000000E+00 0. -1.
          6    1    1    2  501    0  0.38771840348E+01 -0.45261414699E+02 -0.33451686367E+02  0.18196605051E+03  0.17300000000E+03 0. -1.
         -6    1    1    2    0  502 -0.38771840348E+01  0.45261414699E+02  0.86734502333E+02  0.19878506511E+03  0.17300000000E+03 0.  1.
</event>
<event>
 4    1  0.6069433E+000  0.1000000E+03  0.7546771E-02  0.1280296E+00
         21   -1    0    0  503  502  0.00000000000E+00  0.00000000000E+00  0.77075665611E+03  0.77075665611E+03  0.00000000000E+00 0.  1.
         21   -1    0    0  501  503 -0.00000000000E+00 -0.00000000000E+00 -0.14104034614E+03  0.14104034614E+03  0.00000000000E+00 0. -1.
          6    1    1    2  501    0 -0.20633047537E+03 -0.89535908894E+02  0.82699885951E+02  0.29556254022E+03  0.17300000000E+03 0. -1.
         -6    1    1    2    0  502  0.20633047537E+03  0.89535908894E+02  0.54701642402E+03  0.61623446203E+03  0.17300000000E+03 0.  1.
</event>
<event>
 4    1  0.6069433E+000  0.1000000E+03  0.7546771E-02  0.1280296E+00
         21   -1    0    0  501  502  0.00000000000E+00  0.00000000000E+00  0.61968885707E+03  0.61968885707E+03  0.00000000000E+00 0.  1.
         21   -1    0    0  502  503 -0.00000000000E+00 -0.00000000000E+00 -0.17567439713E+03  0.17567439713E+03  0.00000000000E+00 0. -1.
          6    1    1    2  501    0  0.11083189338E+03 -0.36330486336E+02  0.53008021297E+03  0.56966450215E+03  0.17300000000E+03 0. -1.
         -6    1    1    2    0  503 -0.11083189338E+03  0.36330486336E+02 -0.86065753035E+02  0.22569875204E+03  0.17300000000E+03 0. -1.
</event>
<event>
 4    1  0.6069433E+000  0.1000000E+03  0.7546771E-02  0.1280296E+00
         21   -1    0    0  503  502  0.00000000000E+00  0.00000000000E+00  0.13691001952E+03  0.13691001952E+03  0.00000000000E+00 0. -1.
         21   -1    0    0  501  503 -0.00000000000E+00 -0.00000000000E+00 -0.27636259188E+03  0.27636259188E+03  0.00000000000E+00 0.  1.
          6    1    1    2  501    0  0.23668394757E+02 -0.82200448899E+02 -0.95544921803E+02  0.21534841256E+03  0.17300000000E+03 0.  1.
         -6    1    1    2    0  502 -0.23668394757E+02  0.82200448899E+02 -0.43907650560E+02  0.19792419884E+03  0.17300000000E+03 0. -1.
</event>
<event>
 4    1  0.6069433E+000  0.1000000E+03  0.7546771E-02  0.1280296E+00
         21   -1    0    0  503  502  0.00000000000E+00  0.00000000000E+00  0.15562822189E+04  0.15562822189E+04  0.00000000000E+00 0.  1.
         21   -1    0    0  501  503 -0.00000000000E+00 -0.00000000000E+00 -0.36870413054E+02  0.36870413054E+02  0.00000000000E+00 0.  1.
          6    1    1    2  501    0  0.10666199483E+03 -0.10112104179E+03  0.50537191558E+03  0.55401445766E+03  0.17300000000E+03 0.  1.
         -6    1    1    2    0  502 -0.10666199483E+03  0.10112104179E+03  0.10140398902E+04  0.10391381743E+04  0.17300000000E+03 0.  1.
</event>
<event>
 4    1  0.6069433E+000  0.1000000E+03  0.7546771E-02  0.1280296E+00
         21   -1    0    0  501  502  0.00000000000E+00  0.00000000000E+00  0.14279873178E+04  0.14279873178E+04  0.00000000000E+00 0. -1.
         21   -1    0    0  502  503 -0.00000000000E+00 -0.00000000000E+00 -0.61175748189E+02  0.61175748189E+02  0.00000000000E+00 0.  1.
          6    1    1    2  501    0  0.17604055009E+03 -0.13015522698E+03  0.92892683655E+03  0.96993026865E+03  0.17300000000E+03 0. -1.
         -6    1    1    2    0  503 -0.17604055009E+03  0.13015522698E+03  0.43788473308E+03  0.51923279736E+03  0.17300000000E+03 0.  1.
</event>
<event>
 4    1  0.6069433E+000  0.1000000E+03  0.7546771E-02  0.1280296E+00
         21   -1    0    0  501  502  0.00000000000E+00  0.00000000000E+00  0.14195270325E+03  0.14195270325E+03  0.00000000000E+00 0. -1.
         21   -1    0    0  502  503 -0.00000000000E+00 -0.00000000000E+00 -0.26351745935E+03  0.26351745935E+03  0.00000000000E+00 0.  1.
          6    1    1    2  501    0 -0.63535670306E+02 -0.42213103658E+02 -0.18083812525E+02  0.18993354574E+03  0.17300000000E+03 0. -1.
         -6    1    1    2    0  503  0.63535670306E+02  0.42213103658E+02 -0.10348094358E+03  0.21553661686E+03  0.17300000000E+03 0.  1.
</event>
<event>
 4    1  0.6069433E+000  0.1000000E+03  0.7546771E-02  0.1280296E+00
         21   -1    0    0  501  502  0.00000000000E+00  0.00000000000E+00  0.14019466458E+04  0.14019466458E+04  0.00000000000E+00 0. -1.
         21   -1    0    0  502  503 -0.00000000000E+00 -0.00000000000E+00 -0.71381776651E+02  0.71381776651E+02  0.00000000000E+00 0.  1.
          6    1    1    2  501    0  0.98508036668E+02  0.24584393945E+03  0.66800460086E+03  0.73912260324E+03  0.17300000000E+03 0. -1.
         -6    1    1    2    0  503 -0.98508036668E+02 -0.24584393945E+03  0.66256026832E+03  0.73420581924E+03  0.17300000000E+03 0.  1.
</event>
<event>
 4    1  0.6069433E+000  0.1000000E+03  0.7546771E-02  0.1280296E+00
         21   -1    0    0  501  502  0.00000000000E+00  0.00000000000E+00  0.12587921389E+03  0.12587921389E+03  0.00000000000E+00 0.  1.
         21   -1    0    0  502  503 -0.00000000000E+00 -0.00000000000E+00 -0.32104454213E+03  0.32104454213E+03  0.00000000000E+00 0.  1.
          6    1    1    2  501    0  0.71544890293E+01  0.74931073809E+02 -0.20425478745E+02  0.18976841865E+03  0.17300000000E+03 0.  1.
         -6    1    1    2    0  503 -0.71544890293E+01 -0.74931073809E+02 -0.17473984950E+03  0.25715533737E+03  0.17300000000E+03 0.  1.
</event>
<event>
 4    1  0.6069433E+000  0.1000000E+03  0.7546771E-02  0.1280296E+00
         21   -1    0    0  501  502  0.00000000000E+00  0.00000000000E+00  0.81753360095E+03  0.81753360095E+03  0.00000000000E+00 0.  1.
         21   -1    0    0  502  503 -0.00000000000E+00 -0.00000000000E+00 -0.16707202983E+03  0.16707202983E+03  0.00000000000E+00 0. -1.
          6    1    1    2  501    0 -0.22550868186E+03 -0.22858847799E+03  0.40461086965E+03  0.54474380557E+03  0.17300000000E+03 0.  1.
         -6    1    1    2    0  503  0.22550868186E+03  0.22858847799E+03  0.24585070147E+03  0.43986182521E+03  0.17300000000E+03 0.  1.
</event>
<event>
 4    1  0.6069433E+000  0.1000000E+03  0.7546771E-02  0.1280296E+00
         21   -1    0    0  503  502  0.00000000000E+00  0.00000000000E+00  0.11311995353E+03  0.11311995353E+03  0.00000000000E+00 0.  1.
         21   -1    0    0  501  503 -0.00000000000E+00 -0.00000000000E+00 -0.46258440571E+03  0.46258440571E+03  0.00000000000E+00 0. -1.
          6    1    1    2  501    0 -0.13542328307E+03 -0.38081317122E+02 -0.23900558331E+03  0.32686743669E+03  0.17300000000E+03 0. -1.
         -6    1    1    2    0  502  0.13542328307E+03  0.38081317122E+02 -0.11045886887E+03  0.24883692255E+03  0.17300000000E+03 0.  1.
</event>
<event>
 4    1  0.6069433E+000  0.1000000E+03  0.7546771E-02  0.1280296E+00
         21   -1    0    0  501  502  0.00000000000E+00  0.00000000000E+00  0.58512828091E+03  0.58512828091E+03  0.00000000000E+00 0.  1.
         21   -1    0    0  502  503 -0.00000000000E+00 -0.00000000000E+00 -0.99715687217E+02  0.99715687217E+02  0.00000000000E+00 0.  1.
          6    1    1    2  501    0  0.57444815851E+02 -0.12596377278E+03  0.37905198511E+03  0.43906285010E+03  0.17300000000E+03 0.  1.
         -6    1    1    2    0  503 -0.57444815851E+02  0.12596377278E+03  0.10636060858E+03  0.24578111802E+03  0.17300000000E+03 0.  1.
</event>
<event>
 4    1  0.6069433E+000  0.1000000E+03  0.7546771E-02  0.1280296E+00
         21   -1    0    0  501  502  0.00000000000E+00  0.00000000000E+00  0.15315984515E+04  0.15315984515E+04  0.00000000000E+00 0.  1.
         21   -1    0    0  502  503 -0.00000000000E+00 -0.00000000000E+00 -0.59483173286E+02  0.59483173286E+02  0.00000000000E+00 0.  1.
          6    1    1    2  501    0 -0.59812113054E+02 -0.80366099477E+02  0.13320897247E+04  0.13470071393E+04  0.17300000000E+03 0.  1.
         -6    1    1    2    0  503  0.59812113054E+02  0.80366099477E+02  0.14002555356E+03  0.24407448548E+03  0.17300000000E+03 0.  1.
</event>
<event>
 4    1  0.6069433E+000  0.1000000E+03  0.7546771E-02  0.1280296E+00
         21   -1    0    0  501  502  0.00000000000E+00  0.00000000000E+00  0.41049075647E+03  0.41049075647E+03  0.00000000000E+00 0.  1.
         21   -1    0    0  502  503 -0.00000000000E+00 -0.00000000000E+00 -0.10556924061E+03  0.10556924061E+03  0.00000000000E+00 0.  1.
          6    1    1    2  501    0 -0.64663338780E+02 -0.88282292735E+02  0.10557048021E+03  0.23032419952E+03  0.17300000000E+03 0.  1.
         -6    1    1    2    0  503  0.64663338780E+02  0.88282292735E+02  0.19935103565E+03  0.28573579756E+03  0.17300000000E+03 0.  1.
</event>
<event>
 4    1  0.6069433E+000  0.1000000E+03  0.7546771E-02  0.1280296E+00
         21   -1    0    0  501  502  0.00000000000E+00  0.00000000000E+00  0.19440087494E+03  0.19440087494E+03  0.00000000000E+00 0. -1.
         21   -1    0    0  502  503 -0.00000000000E+00 -0.00000000000E+00 -0.21144696692E+03  0.21144696692E+03  0.00000000000E+00 0. -1.
          6    1    1    2  501    0  0.77534989256E+02  0.23742931226E+02  0.59368081038E+02  0.20007241286E+03  0.17300000000E+03 0. -1.
         -6    1    1    2    0  503 -0.77534989256E+02 -0.23742931226E+02 -0.76414173019E+02  0.20577542900E+03  0.17300000000E+03 0. -1.
</event>
<event>
 4    1  0.6069433E+000  0.1000000E+03  0.7546771E-02  0.1280296E+00
         21   -1    0    0  501  502  0.00000000000E+00  0.00000000000E+00  0.25286871594E+04  0.25286871594E+04  0.00000000000E+00 0. -1.
         21   -1    0    0  502  503 -0.00000000000E+00 -0.00000000000E+00 -0.18082671376E+02  0.18082671376E+02  0.00000000000E+00 0. -1.
          6    1    1    2  501    0 -0.28481659284E+02  0.12149822000E+03  0.13443082006E+04  0.13611269451E+04  0.17300000000E+03 0. -1.
         -6    1    1    2    0  503  0.28481659284E+02 -0.12149822000E+03  0.11662962874E+04  0.11856428857E+04  0.17300000000E+03 0. -1.
</event>
<event>
 4    1  0.6069433E+000  0.1000000E+03  0.7546771E-02  0.1280296E+00
         21   -1    0    0  503  502  0.00000000000E+00  0.00000000000E+00  0.15225918993E+04  0.15225918993E+04  0.00000000000E+00 0. -1.
         21   -1    0    0  501  503 -0.00000000000E+00 -0.00000000000E+00 -0.85597839131E+02  0.85597839131E+02  0.00000000000E+00 0. -1.
          6    1    1    2  501    0 -0.38525658233E+02 -0.27969700094E+03  0.39814149136E+03  0.51784195061E+03  0.17300000000E+03 0. -1.
         -6    1    1    2    0  502  0.38525658233E+02  0.27969700094E+03  0.10388525689E+04  0.10903477879E+04  0.17300000000E+03 0. -1.
</event>
<event>
 4    1  0.6069433E+000  0.1000000E+03  0.7546771E-02  0.1280296E+00
         21   -1    0    0  503  502  0.00000000000E+00  0.00000000000E+00  0.16420363443E+03  0.16420363443E+03  0.00000000000E+00 0.  1.
         21   -1    0    0  501  503 -0.00000000000E+00 -0.00000000000E+00 -0.22766565649E+03  0.22766565649E+03  0.00000000000E+00 0.  1.
          6    1    1    2  501    0 -0.13364704217E+02  0.85232398209E+02 -0.28316785951E+02  0.19538172225E+03  0.17300000000E+03 0.  1.
         -6    1    1    2    0  502  0.13364704217E+02 -0.85232398209E+02 -0.35145236110E+02  0.19648756868E+03  0.17300000000E+03 0.  1.
</event>
<event>
 4    1  0.6069433E+000  0.1000000E+03  0.7546771E-02  0.1280296E+00
         21   -1    0    0  503  502  0.00000000000E+00  0.00000000000E+00  0.67433018797E+03  0.67433018797E+03  0.00000000000E+00 0.  1.
         21   -1    0    0  501  503 -0.00000000000E+00 -0.00000000000E+00 -0.60221240415E+02  0.60221240415E+02  0.00000000000E+00 0.  1.
          6    1    1    2  501    0  0.42663525684E+02  0.83704641997E+02  0.22859225474E+03  0.30167874045E+03  0.17300000000E+03 0.  1.
         -6    1    1    2    0  502 -0.42663525684E+02 -0.83704641997E+02  0.38551669281E+03  0.43287268793E+03  0.17300000000E+03 0.  1.
</event>
<event>
 4    1  0.6069433E+000  0.1000000E+03  0.7546771E-02  0.1280296E+00
         21   -1    0    0  503  502  0.00000000000E+00  0.00000000000E+00  0.33981277008E+03  0.33981277008E+03  0.00000000000E+00 0.  1.
         21   -1    0    0  501  503 -0.00000000000E+00 -0.00000000000E+00 -0.68375264749E+03  0.68375264749E+03  0.00000000000E+00 0.  1.
          6    1    1    2  501    0 -0.23258468796E+03 -0.13801699924E+03 -0.55371442333E+03  0.64005702227E+03  0.17300000000E+03 0. -1.
         -6    1    1    2    0  502  0.23258468796E+03  0.13801699924E+03  0.20977454593E+03  0.38350839531E+03  0.17300000000E+03 0. -1.
</event>
<event>
 4    1  0.6069433E+000  0.1000000E+03  0.7546771E-02  0.1280296E+00
         21   -1    0    0  503  502  0.00000000000E+00  0.00000000000E+00  0.83245140111E+03  0.83245140111E+03  0.00000000000E+00 0. -1.
         21   -1    0    0  501  503 -0.00000000000E+00 -0.00000000000E+00 -0.40370740838E+02  0.40370740838E+02  0.00000000000E+00 0. -1.
          6    1    1    2  501    0 -0.37480150557E+02 -0.37814816333E+02  0.46515748626E+03  0.49913445989E+03  0.17300000000E+03 0. -1.
         -6    1    1    2    0  502  0.37480150557E+02  0.37814816333E+02  0.32692317401E+03  0.37368768206E+03  0.17300000000E+03 0. -1.
</event>
<event>
 4    1  0.6069433E+000  0.1000000E+03  0.7546771E-02  0.1280296E+00
         21   -1    0    0  503  502  0.00000000000E+00  0.00000000000E+00  0.16122880318E+03  0.16122880318E+03  0.00000000000E+00 0. -1.
         21   -1    0    0  501  503 -0.00000000000E+00 -0.00000000000E+00 -0.19799686232E+03  0.19799686232E+03  0.00000000000E+00 0. -1.
          6    1    1    2  501    0 -0.19032787060E+02 -0.22331360911E+02  0.15451665859E+02  0.17614962572E+03  0.17300000000E+03 0. -1.
         -6    1    1    2    0  502  0.19032787060E+02  0.22331360911E+02 -0.52219724992E+02  0.18307603978E+03  0.17300000000E+03 0. -1.
</event>
<event>
 4    1  0.6069433E+000  0.1000000E+03  0.7546771E-02  0.1280296E+00
         21   -1    0    0  503  502  0.00000000000E+00  0.00000000000E+00  0.88530021196E+03  0.88530021196E+03  0.00000000000E+00 0.  1.
         21   -1    0    0  501  503 -0.00000000000E+00 -0.00000000000E+00 -0.36585151257E+02  0.36585151257E+02  0.00000000000E+00 0.  1.
          6    1    1    2  501    0 -0.96066671109E+00 -0.44535633977E+02  0.36850756409E+03  0.40952554299E+03  0.17300000000E+03 0.  1.
         -6    1    1    2    0  502  0.96066671109E+00  0.44535633977E+02  0.48020749662E+03  0.51235982023E+03  0.17300000000E+03 0.  1.
</event>
<event>
 4    1  0.6069433E+000  0.1000000E+03  0.7546771E-02  0.1280296E+00
         21   -1    0    0  503  502  0.00000000000E+00  0.00000000000E+00  0.13341796807E+04  0.13341796807E+04  0.00000000000E+00 0.  1.
         21   -1    0    0  501  503 -0.00000000000E+00 -0.00000000000E+00 -0.72851153401E+02  0.72851153401E+02  0.00000000000E+00 0.  1.
          6    1    1    2  501    0 -0.72595079390E+02  0.12866301803E+03  0.14962201111E+03  0.27228654753E+03  0.17300000000E+03 0.  1.
         -6    1    1    2    0  502  0.72595079390E+02 -0.12866301803E+03  0.11117065162E+04  0.11347442866E+04  0.17300000000E+03 0.  1.
</event>
<event>
 4    1  0.6069433E+000  0.1000000E+03  0.7546771E-02  0.1280296E+00
         21   -1    0    0  501  502  0.00000000000E+00  0.00000000000E+00  0.60175832638E+03  0.60175832638E+03  0.00000000000E+00 0.  1.
         21   -1    0    0  502  503 -0.00000000000E+00 -0.00000000000E+00 -0.22138923583E+03  0.22138923583E+03  0.00000000000E+00 0. -1.
          6    1    1    2  501    0  0.13447903848E+03 -0.18853505436E+03  0.44147621724E+03  0.52769340426E+03  0.17300000000E+03 0.  1.
         -6    1    1    2    0  503 -0.13447903848E+03  0.18853505436E+03 -0.61107126686E+02  0.29545415794E+03  0.17300000000E+03 0. -1.
</event>
<event>
 4    1  0.6069433E+000  0.1000000E+03  0.7546771E-02  0.1280296E+00
         21   -1    0    0  501  502  0.00000000000E+00  0.00000000000E+00  0.28825372602E+03  0.28825372602E+03  0.00000000000E+00 0.  1.
         21   -1    0    0  502  503 -0.00000000000E+00 -0.00000000000E+00 -0.34060631855E+03  0.34060631855E+03  0.00000000000E+00 0. -1.
          6    1    1    2  501    0  0.81204400587E+02  0.12186240346E+03  0.19092761011E+03  0.29635612421E+03  0.17300000000E+03 0.  1.
         -6    1    1    2    0  503 -0.81204400587E+02 -0.12186240346E+03 -0.24328020264E+03  0.33250392035E+03  0.17300000000E+03 0. -1.
</event>
<event>
 4    1  0.6069433E+000  0.1000000E+03  0.7546771E-02  0.1280296E+00
         21   -1    0    0  501  502  0.00000000000E+00  0.00000000000E+00  0.10801089314E+03  0.10801089314E+03  0.00000000000E+00 0.  1.
         21   -1    0    0  502  503 -0.00000000000E+00 -0.00000000000E+00 -0.63549581798E+03  0.63549581798E+03  0.00000000000E+00 0. -1.
          6    1    1    2  501    0 -0.58620298110E+02  0.11781911443E+03 -0.56199212922E+02  0.22451065589E+03  0.17300000000E+03 0.  1.
         -6    1    1    2    0  503  0.58620298110E+02 -0.11781911443E+03 -0.47128571192E+03  0.51899605522E+03  0.17300000000E+03 0. -1.
</event>
<event>
 4    1  0.6069433E+000  0.1000000E+03  0.7546771E-02  0.1280296E+00
         21   -1    0    0  501  502  0.00000000000E+00  0.00000000000E+00  0.10300125517E+03  0.10300125517E+03  0.00000000000E+00 0.  1.
         21   -1    0    0  502  503 -0.00000000000E+00 -0.00000000000E+00 -0.31994273222E+03  0.31994273222E+03  0.00000000000E+00 0. -1.
          6    1    1    2  501    0 -0.53532299011E+02 -0.99001594086E+00 -0.93790186916E+02  0.20394186998E+03  0.17300000000E+03 0.  1.
         -6    1    1    2    0  503  0.53532299011E+02  0.99001594086E+00 -0.12315129013E+03  0.21900211741E+03  0.17300000000E+03 0. -1.
</event>
<event>
 4    1  0.6069433E+000  0.1000000E+03  0.7546771E-02  0.1280296E+00
         21   -1    0    0  503  502  0.00000000000E+00  0.00000000000E+00  0.40868810076E+03  0.40868810076E+03  0.00000000000E+00 0. -1.
         21   -1    0    0  501  503 -0.00000000000E+00 -0.00000000000E+00 -0.32120839941E+03  0.32120839941E+03  0.00000000000E+00 0. -1.
          6    1    1    2  501    0  0.17052228666E+03  0.93020591997E+02 -0.21031030031E+03  0.33449978057E+03  0.17300000000E+03 0. -1.
         -6    1    1    2    0  502 -0.17052228666E+03 -0.93020591997E+02  0.29779000165E+03  0.39539671960E+03  0.17300000000E+03 0. -1.
</event>
<event>
 4    1  0.6069433E+000  0.1000000E+03  0.7546771E-02  0.1280296E+00
         21   -1    0    0  503  502  0.00000000000E+00  0.00000000000E+00  0.15347152639E+04  0.15347152639E+04  0.00000000000E+00 0. -1.
         21   -1    0    0  501  503 -0.00000000000E+00 -0.00000000000E+00 -0.16907670897E+03  0.16907670897E+03  0.00000000000E+00 0. -1.
          6    1    1    2  501    0 -0.56317042750E+02 -0.80625416806E+02 -0.10138125346E+03  0.22333657491E+03  0.17300000000E+03 0. -1.
         -6    1    1    2    0  502  0.56317042750E+02  0.80625416806E+02  0.14670198084E+04  0.14804553979E+04  0.17300000000E+03 0. -1.
</event>
<event>
 4    1  0.6069433E+000  0.1000000E+03  0.7546771E-02  0.1280296E+00
         21   -1    0    0  501  502  0.00000000000E+00  0.00000000000E+00  0.24568941539E+03  0.24568941539E+03  0.00000000000E+00 0.  1.
         21   -1    0    0  502  503 -0.00000000000E+00 -0.00000000000E+00 -0.41926229186E+03  0.41926229186E+03  0.00000000000E+00 0.  1.
          6    1    1    2  501    0 -0.15867294312E+03  0.52200412173E+02  0.13339678420E+03  0.27500125080E+03  0.17300000000E+03 0.  1.
         -6    1    1    2    0  503  0.15867294312E+03 -0.52200412173E+02 -0.30696966067E+03  0.38995045644E+03  0.17300000000E+03 0.  1.
</event>
<event>
 4    1  0.6069433E+000  0.1000000E+03  0.7546771E-02  0.1280296E+00
         21   -1    0    0  501  502  0.00000000000E+00  0.00000000000E+00  0.17927060421E+03  0.17927060421E+03  0.00000000000E+00 0.  1.
         21   -1    0    0  502  503 -0.00000000000E+00 -0.00000000000E+00 -0.36753075526E+03  0.36753075526E+03  0.00000000000E+00 0.  1.
          6    1    1    2  501    0 -0.47654050510E+02  0.79698404491E+02  0.81971578496E+02  0.21277002582E+03  0.17300000000E+03 0.  1.
         -6    1    1    2    0  503  0.47654050510E+02 -0.79698404491E+02 -0.27023172954E+03  0.33403133365E+03  0.17300000000E+03 0.  1.
</event>
<event>
 4    1  0.6069433E+000  0.1000000E+03  0.7546771E-02  0.1280296E+00
         21   -1    0    0  503  502  0.00000000000E+00  0.00000000000E+00  0.44600668067E+03  0.44600668067E+03  0.00000000000E+00 0. -1.
         21   -1    0    0  501  503 -0.00000000000E+00 -0.00000000000E+00 -0.32137657639E+03  0.32137657639E+03  0.00000000000E+00 0. -1.
          6    1    1    2  501    0  0.20873829911E+03 -0.24222895146E+03 -0.44749937448E+02  0.36630328874E+03  0.17300000000E+03 0. -1.
         -6    1    1    2    0  502 -0.20873829911E+03  0.24222895146E+03  0.16938004173E+03  0.40107996831E+03  0.17300000000E+03 0. -1.
</event>
<event>
 4    1  0.6069433E+000  0.1000000E+03  0.7546771E-02  0.1280296E+00
         21   -1    0    0  503  502  0.00000000000E+00  0.00000000000E+00  0.95270284641E+02  0.95270284641E+02  0.00000000000E+00 0. -1.
         21   -1    0    0  501  503 -0.00000000000E+00 -0.00000000000E+00 -0.56724852392E+03  0.56724852392E+03  0.00000000000E+00 0. -1.
          6    1    1    2  501    0 -0.76512215723E+01  0.14865858143E+03 -0.29899450286E+03  0.37614442408E+03  0.17300000000E+03 0. -1.
         -6    1    1    2    0  502  0.76512215723E+01 -0.14865858143E+03 -0.17298373642E+03  0.28637438448E+03  0.17300000000E+03 0. -1.
</event>
<event>
 4    1  0.6069433E+000  0.1000000E+03  0.7546771E-02  0.1280296E+00
         21   -1    0    0  503  502  0.00000000000E+00  0.00000000000E+00  0.20654234540E+03  0.20654234540E+03  0.00000000000E+00 0. -1.
         21   -1    0    0  501  503 -0.00000000000E+00 -0.00000000000E+00 -0.25299443139E+03  0.25299443139E+03  0.00000000000E+00 0. -1.
          6    1    1    2  501    0 -0.24776960323E+02 -0.14278162251E+03 -0.59808116287E+02  0.23346627222E+03  0.17300000000E+03 0. -1.
         -6    1    1    2    0  502  0.24776960323E+02  0.14278162251E+03  0.13356030303E+02  0.22607050457E+03  0.17300000000E+03 0. -1.
</event>
<event>
 4    1  0.6069433E+000  0.1000000E+03  0.7546771E-02  0.1280296E+00
         21   -1    0    0  501  502  0.00000000000E+00  0.00000000000E+00  0.42391310989E+02  0.42391310989E+02  0.00000000000E+00 0. -1.
         21   -1    0    0  502  503 -0.00000000000E+00 -0.00000000000E+00 -0.82507477502E+03  0.82507477502E+03  0.00000000000E+00 0. -1.
          6    1    1    2  501    0 -0.14930994742E+02  0.66733308972E+02 -0.34668698717E+03  0.39344267207E+03  0.17300000000E+03 0.  1.
         -6    1    1    2    0  503  0.14930994742E+02 -0.66733308972E+02 -0.43599647686E+03  0.47402341394E+03  0.17300000000E+03 0.  1.
</event>
<event>
 4    1  0.6069433E+000  0.1000000E+03  0.7546771E-02  0.1280296E+00
         21   -1    0    0  501  502  0.00000000000E+00  0.00000000000E+00  0.15497676868E+03  0.15497676868E+03  0.00000000000E+00 0. -1.
         21   -1    0    0  502  503 -0.00000000000E+00 -0.00000000000E+00 -0.23980345928E+03  0.23980345928E+03  0.00000000000E+00 0. -1.
          6    1    1    2  501    0  0.82348357264E+02  0.69769159089E+01 -0.63020173691E+02  0.20181791692E+03  0.17300000000E+03 0.  1.
         -6    1    1    2    0  503 -0.82348357264E+02 -0.69769159089E+01 -0.21806516919E+02  0.19296231103E+03  0.17300000000E+03 0.  1.
</event>
<event>
 4    1  0.6069433E+000  0.1000000E+03  0.7546771E-02  0.1280296E+00
         21   -1    0    0  503  502  0.00000000000E+00  0.00000000000E+00  0.87425508263E+02  0.87425508263E+02  0.00000000000E+00 0. -1.
         21   -1    0    0  501  503 -0.00000000000E+00 -0.00000000000E+00 -0.54816163380E+03  0.54816163380E+03  0.00000000000E+00 0.  1.
          6    1    1    2  501    0  0.10037648125E+03  0.23501767094E+02 -0.35496387195E+03  0.40811287830E+03  0.17300000000E+03 0. -1.
         -6    1    1    2    0  502 -0.10037648125E+03 -0.23501767094E+02 -0.10577225358E+03  0.22747426376E+03  0.17300000000E+03 0.  1.
</event>
<event>
 4    1  0.6069433E+000  0.1000000E+03  0.7546771E-02  0.1280296E+00
         21   -1    0    0  503  502  0.00000000000E+00  0.00000000000E+00  0.24970041731E+03  0.24970041731E+03  0.00000000000E+00 0. -1.
         21   -1    0    0  501  503 -0.00000000000E+00 -0.00000000000E+00 -0.15070890702E+03  0.15070890702E+03  0.00000000000E+00 0.  1.
          6    1    1    2  501    0 -0.57438549218E+02 -0.53702987490E+02  0.92611610375E+01  0.19025763298E+03  0.17300000000E+03 0. -1.
         -6    1    1    2    0  502  0.57438549218E+02  0.53702987490E+02  0.89730349259E+02  0.21015169136E+03  0.17300000000E+03 0. -1.
</event>
<event>
 4    1  0.6069433E+000  0.1000000E+03  0.7546771E-02  0.1280296E+00
         21   -1    0    0  503  502  0.00000000000E+00  0.00000000000E+00  0.61308467600E+03  0.61308467600E+03  0.00000000000E+00 0. -1.
         21   -1    0    0  501  503 -0.00000000000E+00 -0.00000000000E+00 -0.88328539466E+02  0.88328539466E+02  0.00000000000E+00 0.  1.
          6    1    1    2  501    0 -0.65337569238E+02 -0.80770001714E+02  0.87719977801E+02  0.22003769140E+03  0.17300000000E+03 0. -1.
         -6    1    1    2    0  502  0.65337569238E+02  0.80770001714E+02  0.43703615873E+03  0.48137552407E+03  0.17300000000E+03 0. -1.
</event>
<event>
 4    1  0.6069433E+000  0.1000000E+03  0.7546771E-02  0.1280296E+00
         21   -1    0    0  503  502  0.00000000000E+00  0.00000000000E+00  0.28677258248E+03  0.28677258248E+03  0.00000000000E+00 0. -1.
         21   -1    0    0  501  503 -0.00000000000E+00 -0.00000000000E+00 -0.33387081019E+03  0.33387081019E+03  0.00000000000E+00 0.  1.
          6    1    1    2  501    0 -0.20022705994E+03  0.12366691131E+02 -0.18392460918E+03  0.32249197268E+03  0.17300000000E+03 0. -1.
         -6    1    1    2    0  502  0.20022705994E+03 -0.12366691131E+02  0.13682638147E+03  0.29815142000E+03  0.17300000000E+03 0. -1.
</event>
<event>
 4    1  0.6069433E+000  0.1000000E+03  0.7546771E-02  0.1280296E+00
         21   -1    0    0  503  502  0.00000000000E+00  0.00000000000E+00  0.10387374824E+03  0.10387374824E+03  0.00000000000E+00 0. -1.
         21   -1    0    0  501  503 -0.00000000000E+00 -0.00000000000E+00 -0.11147250603E+04  0.11147250603E+04  0.00000000000E+00 0.  1.
          6    1    1    2  501    0 -0.51075796337E+02  0.13011455841E+03 -0.96655896407E+03  0.99181841397E+03  0.17300000000E+03 0. -1.
         -6    1    1    2    0  502  0.51075796337E+02 -0.13011455841E+03 -0.44292348031E+02  0.22678039460E+03  0.17300000000E+03 0. -1.
</event>
<event>
 4    1  0.6069433E+000  0.1000000E+03  0.7546771E-02  0.1280296E+00
         21   -1    0    0  503  502  0.00000000000E+00  0.00000000000E+00  0.15562564755E+03  0.15562564755E+03  0.00000000000E+00 0. -1.
         21   -1    0    0  501  503 -0.00000000000E+00 -0.00000000000E+00 -0.10270577722E+04  0.10270577722E+04  0.00000000000E+00 0.  1.
          6    1    1    2  501    0  0.26652927463E+03 -0.10274241386E+03 -0.76082994757E+03  0.83089413704E+03  0.17300000000E+03 0. -1.
         -6    1    1    2    0  502 -0.26652927463E+03  0.10274241386E+03 -0.11060217703E+03  0.35178928267E+03  0.17300000000E+03 0. -1.
</event>
<event>
 4    1  0.6069433E+000  0.1000000E+03  0.7546771E-02  0.1280296E+00
         21   -1    0    0  501  502  0.00000000000E+00  0.00000000000E+00  0.63748536130E+03  0.63748536130E+03  0.00000000000E+00 0. -1.
         21   -1    0    0  502  503 -0.00000000000E+00 -0.00000000000E+00 -0.74288100443E+03  0.74288100443E+03  0.00000000000E+00 0.  1.
          6    1    1    2  501    0  0.23755166964E+02 -0.21646692883E+03  0.57860875771E+03  0.64198078922E+03  0.17300000000E+03 0. -1.
         -6    1    1    2    0  503 -0.23755166964E+02  0.21646692883E+03 -0.68400440083E+03  0.73838557651E+03  0.17300000000E+03 0.  1.
</event>
<event>
 4    1  0.6069433E+000  0.1000000E+03  0.7546771E-02  0.1280296E+00
         21   -1    0    0  501  502  0.00000000000E+00  0.00000000000E+00  0.16519068943E+04  0.16519068943E+04  0.00000000000E+00 0. -1.
         21   -1    0    0  502  503 -0.00000000000E+00 -0.00000000000E+00 -0.29087024940E+02  0.29087024940E+02  0.00000000000E+00 0.  1.
          6    1    1    2  501    0 -0.33599184086E+02  0.92835346577E+01  0.13099509419E+04  0.13217849899E+04  0.17300000000E+03 0. -1.
         -6    1    1    2    0  503  0.33599184086E+02 -0.92835346577E+01  0.31286892744E+03  0.35920892937E+03  0.17300000000E+03 0.  1.
</event>
<event>
 4    1  0.6069433E+000  0.1000000E+03  0.7546771E-02  0.1280296E+00
         21   -1    0    0  501  502  0.00000000000E+00  0.00000000000E+00  0.47923748395E+03  0.47923748395E+03  0.00000000000E+00 0.  1.
         21   -1    0    0  502  503 -0.00000000000E+00 -0.00000000000E+00 -0.15338588607E+03  0.15338588607E+03  0.00000000000E+00 0.  1.
          6    1    1    2  501    0  0.12311751390E+03 -0.75405335567E+02  0.33883892561E+03  0.40692100508E+03  0.17300000000E+03 0.  1.
         -6    1    1    2    0  503 -0.12311751390E+03  0.75405335567E+02 -0.12987327737E+02  0.22570236495E+03  0.17300000000E+03 0.  1.
</event>
<event>
 4    1  0.6069433E+000  0.1000000E+03  0.7546771E-02  0.1280296E+00
         21   -1    0    0  501  502  0.00000000000E+00  0.00000000000E+00  0.13913912480E+03  0.13913912480E+03  0.00000000000E+00 0.  1.
         21   -1    0    0  502  503 -0.00000000000E+00 -0.00000000000E+00 -0.23462555892E+03  0.23462555892E+03  0.00000000000E+00 0.  1.
          6    1    1    2  501    0  0.10145354872E+02  0.45907814811E+02 -0.24473506698E+02  0.18093758099E+03  0.17300000000E+03 0.  1.
         -6    1    1    2    0  503 -0.10145354872E+02 -0.45907814811E+02 -0.71012927417E+02  0.19282710273E+03  0.17300000000E+03 0.  1.
</event>
<event>
 4    1  0.6069433E+000  0.1000000E+03  0.7546771E-02  0.1280296E+00
         21   -1    0    0  501  502  0.00000000000E+00  0.00000000000E+00  0.24872700401E+03  0.24872700401E+03  0.00000000000E+00 0.  1.
         21   -1    0    0  502  503 -0.00000000000E+00 -0.00000000000E+00 -0.21038874736E+03  0.21038874736E+03  0.00000000000E+00 0.  1.
          6    1    1    2  501    0 -0.18271817161E+02 -0.11382690515E+02  0.16779947009E+03  0.24196918628E+03  0.17300000000E+03 0.  1.
         -6    1    1    2    0  503  0.18271817161E+02  0.11382690515E+02 -0.12946121343E+03  0.21714656509E+03  0.17300000000E+03 0.  1.
</event>
<event>
 4    1  0.6069433E+000  0.1000000E+03  0.7546771E-02  0.1280296E+00
         21   -1    0    0  503  502  0.00000000000E+00  0.00000000000E+00  0.10058239565E+03  0.10058239565E+03  0.00000000000E+00 0.  1.
         21   -1    0    0  501  503 -0.00000000000E+00 -0.00000000000E+00 -0.12074894233E+04  0.12074894233E+04  0.00000000000E+00 0. -1.
          6    1    1    2  501    0  0.40949307275E+02  0.27578307666E+03 -0.77383824848E+03  0.84052827790E+03  0.17300000000E+03 0. -1.
         -6    1    1    2    0  502 -0.40949307275E+02 -0.27578307666E+03 -0.33306877922E+03  0.46754354110E+03  0.17300000000E+03 0.  1.
</event>
<event>
 4    1  0.6069433E+000  0.1000000E+03  0.7546771E-02  0.1280296E+00
         21   -1    0    0  503  502  0.00000000000E+00  0.00000000000E+00  0.17610979053E+04  0.17610979053E+04  0.00000000000E+00 0.  1.
         21   -1    0    0  501  503 -0.00000000000E+00 -0.00000000000E+00 -0.41978378485E+02  0.41978378485E+02  0.00000000000E+00 0. -1.
          6    1    1    2  501    0 -0.31150703587E+02 -0.11548909096E+03  0.28822390221E+03  0.35680542915E+03  0.17300000000E+03 0. -1.
         -6    1    1    2    0  502  0.31150703587E+02  0.11548909096E+03  0.14308956246E+04  0.14462708547E+04  0.17300000000E+03 0.  1.
</event>
<event>
 4    1  0.6069433E+000  0.1000000E+03  0.7546771E-02  0.1280296E+00
         21   -1    0    0  503  502  0.00000000000E+00  0.00000000000E+00  0.15435146707E+04  0.15435146707E+04  0.00000000000E+00 0.  1.
         21   -1    0    0  501  503 -0.00000000000E+00 -0.00000000000E+00 -0.26010123491E+02  0.26010123491E+02  0.00000000000E+00 0. -1.
          6    1    1    2  501    0 -0.87482389215E+02  0.48696994975E+02  0.81322591032E+03  0.83743056247E+03  0.17300000000E+03 0. -1.
         -6    1    1    2    0  502  0.87482389215E+02 -0.48696994975E+02  0.70427863691E+03  0.73209423174E+03  0.17300000000E+03 0.  1.
</event>
<event>
 4    1  0.6069433E+000  0.1000000E+03  0.7546771E-02  0.1280296E+00
         21   -1    0    0  503  502  0.00000000000E+00  0.00000000000E+00  0.97112719406E+02  0.97112719406E+02  0.00000000000E+00 0. -1.
         21   -1    0    0  501  503 -0.00000000000E+00 -0.00000000000E+00 -0.45461094740E+03  0.45461094740E+03  0.00000000000E+00 0.  1.
          6    1    1    2  501    0  0.56786599955E+02 -0.18680451273E+02 -0.31421294134E+03  0.36363780015E+03  0.17300000000E+03 0.  1.
         -6    1    1    2    0  502 -0.56786599955E+02  0.18680451273E+02 -0.43285286654E+02  0.18808586665E+03  0.17300000000E+03 0. -1.
</event>
<event>
 4    1  0.6069433E+000  0.1000000E+03  0.7546771E-02  0.1280296E+00
         21   -1    0    0  503  502  0.00000000000E+00  0.00000000000E+00  0.97195133029E+02  0.97195133029E+02  0.00000000000E+00 0. -1.
         21   -1    0    0  501  503 -0.00000000000E+00 -0.00000000000E+00 -0.86095346128E+03  0.86095346128E+03  0.00000000000E+00 0.  1.
          6    1    1    2  501    0  0.14478398724E+03 -0.79279365247E+02 -0.65149499141E+03  0.69399016171E+03  0.17300000000E+03 0.  1.
         -6    1    1    2    0  502 -0.14478398724E+03  0.79279365247E+02 -0.11226333685E+03  0.26415843260E+03  0.17300000000E+03 0. -1.
</event>
<event>
 4    1  0.6069433E+000  0.1000000E+03  0.7546771E-02  0.1280296E+00
         21   -1    0    0  503  502  0.00000000000E+00  0.00000000000E+00  0.17791464186E+03  0.17791464186E+03  0.00000000000E+00 0.  1.
         21   -1    0    0  501  503 -0.00000000000E+00 -0.00000000000E+00 -0.20785564109E+03  0.20785564109E+03  0.00000000000E+00 0.  1.
          6    1    1    2  501    0  0.39991770760E+02  0.50634521908E+02  0.38935622183E+02  0.18870129627E+03  0.17300000000E+03 0.  1.
         -6    1    1    2    0  502 -0.39991770760E+02 -0.50634521908E+02 -0.68876621412E+02  0.19706898669E+03  0.17300000000E+03 0.  1.
</event>
<event>
 4    1  0.6069433E+000  0.1000000E+03  0.7546771E-02  0.1280296E+00
         21   -1    0    0  503  502  0.00000000000E+00  0.00000000000E+00  0.82711248576E+03  0.82711248576E+03  0.00000000000E+00 0.  1.
         21   -1    0    0  501  503 -0.00000000000E+00 -0.00000000000E+00 -0.85201083231E+02  0.85201083231E+02  0.00000000000E+00 0.  1.
          6    1    1    2  501    0  0.77024426259E+02  0.10288300124E+03  0.10461728708E+03  0.23956512880E+03  0.17300000000E+03 0.  1.
         -6    1    1    2    0  502 -0.77024426259E+02 -0.10288300124E+03  0.63729411546E+03  0.67274844019E+03  0.17300000000E+03 0.  1.
</event>
<event>
 4    1  0.6069433E+000  0.1000000E+03  0.7546771E-02  0.1280296E+00
         21   -1    0    0  503  502  0.00000000000E+00  0.00000000000E+00  0.25359053970E+03  0.25359053970E+03  0.00000000000E+00 0.  1.
         21   -1    0    0  501  503 -0.00000000000E+00 -0.00000000000E+00 -0.44452190270E+03  0.44452190270E+03  0.00000000000E+00 0. -1.
          6    1    1    2  501    0 -0.64744977130E+02 -0.27994659223E+03 -0.11142142540E+03  0.35342006253E+03  0.17300000000E+03 0.  1.
         -6    1    1    2    0  502  0.64744977130E+02  0.27994659223E+03 -0.79509937600E+02  0.34469237987E+03  0.17300000000E+03 0. -1.
</event>
<event>
 4    1  0.6069433E+000  0.1000000E+03  0.7546771E-02  0.1280296E+00
         21   -1    0    0  503  502  0.00000000000E+00  0.00000000000E+00  0.61422999447E+03  0.61422999447E+03  0.00000000000E+00 0.  1.
         21   -1    0    0  501  503 -0.00000000000E+00 -0.00000000000E+00 -0.54169628479E+02  0.54169628479E+02  0.00000000000E+00 0. -1.
          6    1    1    2  501    0 -0.30773778416E+02  0.30477199750E+01  0.19051103326E+03  0.25919060135E+03  0.17300000000E+03 0.  1.
         -6    1    1    2    0  502  0.30773778416E+02 -0.30477199750E+01  0.36954933273E+03  0.40920902159E+03  0.17300000000E+03 0. -1.
</event>
<event>
 4    1  0.6069433E+000  0.1000000E+03  0.7546771E-02  0.1280296E+00
         21   -1    0    0  501  502  0.00000000000E+00  0.00000000000E+00  0.13016205572E+03  0.13016205572E+03  0.00000000000E+00 0.  1.
         21   -1    0    0  502  503 -0.00000000000E+00 -0.00000000000E+00 -0.46086816224E+03  0.46086816224E+03  0.00000000000E+00 0. -1.
          6    1    1    2  501    0 -0.11202249813E+03  0.33371192444E+02 -0.10857358628E+02  0.20906831135E+03  0.17300000000E+03 0.  1.
         -6    1    1    2    0  503  0.11202249813E+03 -0.33371192444E+02 -0.31984874790E+03  0.38196190662E+03  0.17300000000E+03 0. -1.
</event>
<event>
 4    1  0.6069433E+000  0.1000000E+03  0.7546771E-02  0.1280296E+00
         21   -1    0    0  501  502  0.00000000000E+00  0.00000000000E+00  0.37010239690E+03  0.37010239690E+03  0.00000000000E+00 0.  1.
         21   -1    0    0  502  503 -0.00000000000E+00 -0.00000000000E+00 -0.12028952112E+03  0.12028952112E+03  0.00000000000E+00 0.  1.
          6    1    1    2  501    0 -0.47432990966E+02 -0.32963075019E+02  0.24818616629E+03  0.30799647090E+03  0.17300000000E+03 0. -1.
         -6    1    1    2    0  503  0.47432990966E+02  0.32963075019E+02  0.16267094902E+01  0.18239544712E+03  0.17300000000E+03 0. -1.
</event>
<event>
 4    1  0.6069433E+000  0.1000000E+03  0.7546771E-02  0.1280296E+00
         21   -1    0    0  501  502  0.00000000000E+00  0.00000000000E+00  0.40234364901E+03  0.40234364901E+03  0.00000000000E+00 0.  1.
         21   -1    0    0  502  503 -0.00000000000E+00 -0.00000000000E+00 -0.93877825856E+02  0.93877825856E+02  0.00000000000E+00 0.  1.
          6    1    1    2  501    0 -0.37125925726E+02 -0.45820745203E+02  0.23857053834E+03  0.30053747988E+03  0.17300000000E+03 0. -1.
         -6    1    1    2    0  503  0.37125925726E+02  0.45820745203E+02  0.69895284811E+02  0.19568399498E+03  0.17300000000E+03 0. -1.
</event>
<event>
 4    1  0.6069433E+000  0.1000000E+03  0.7546771E-02  0.1280296E+00
         21   -1    0    0  501  502  0.00000000000E+00  0.00000000000E+00  0.71184701671E+03  0.71184701671E+03  0.00000000000E+00 0. -1.
         21   -1    0    0  502  503 -0.00000000000E+00 -0.00000000000E+00 -0.49243663874E+02  0.49243663874E+02  0.00000000000E+00 0. -1.
          6    1    1    2  501    0  0.40241083388E+02 -0.42444322794E+02  0.24739739067E+03  0.30749851095E+03  0.17300000000E+03 0. -1.
         -6    1    1    2    0  503 -0.40241083388E+02  0.42444322794E+02  0.41520596217E+03  0.45359216963E+03  0.17300000000E+03 0. -1.
</event>
<event>
 4    1  0.6069433E+000  0.1000000E+03  0.7546771E-02  0.1280296E+00
         21   -1    0    0  501  502  0.00000000000E+00  0.00000000000E+00  0.23729882826E+03  0.23729882826E+03  0.00000000000E+00 0.  1.
         21   -1    0    0  502  503 -0.00000000000E+00 -0.00000000000E+00 -0.33322970958E+03  0.33322970958E+03  0.00000000000E+00 0.  1.
          6    1    1    2  501    0  0.67252905551E+02  0.16670277684E+03  0.83651477107E+02  0.26313368985E+03  0.17300000000E+03 0.  1.
         -6    1    1    2    0  503 -0.67252905551E+02 -0.16670277684E+03 -0.17958235843E+03  0.30739484799E+03  0.17300000000E+03 0.  1.
</event>
<event>
 4    1  0.6069433E+000  0.1000000E+03  0.7546771E-02  0.1280296E+00
         21   -1    0    0  501  502  0.00000000000E+00  0.00000000000E+00  0.13717712981E+04  0.13717712981E+04  0.00000000000E+00 0.  1.
         21   -1    0    0  502  503 -0.00000000000E+00 -0.00000000000E+00 -0.54783776134E+02  0.54783776134E+02  0.00000000000E+00 0.  1.
          6    1    1    2  501    0  0.63753286762E+02 -0.76774277347E+02  0.11470916509E+04  0.11643483271E+04  0.17300000000E+03 0.  1.
         -6    1    1    2    0  503 -0.63753286762E+02  0.76774277347E+02  0.16989587103E+03  0.26220674711E+03  0.17300000000E+03 0.  1.
</event>
<event>
 4    1  0.6069433E+000  0.1000000E+03  0.7546771E-02  0.1280296E+00
         21   -1    0    0  503  502  0.00000000000E+00  0.00000000000E+00  0.68965226558E+02  0.68965226558E+02  0.00000000000E+00 0. -1.
         21   -1    0    0  501  503 -0.00000000000E+00 -0.00000000000E+00 -0.67566540152E+03  0.67566540152E+03  0.00000000000E+00 0. -1.
          6    1    1    2  501    0 -0.21556803663E+02 -0.17551915454E+02 -0.52080496268E+03  0.54949028624E+03  0.17300000000E+03 0. -1.
         -6    1    1    2    0  502  0.21556803663E+02  0.17551915454E+02 -0.85895212286E+02  0.19514034184E+03  0.17300000000E+03 0. -1.
</event>
<event>
 4    1  0.6069433E+000  0.1000000E+03  0.7546771E-02  0.1280296E+00
         21   -1    0    0  503  502  0.00000000000E+00  0.00000000000E+00  0.18674616108E+04  0.18674616108E+04  0.00000000000E+00 0. -1.
         21   -1    0    0  501  503 -0.00000000000E+00 -0.00000000000E+00 -0.53403883665E+02  0.53403883665E+02  0.00000000000E+00 0. -1.
          6    1    1    2  501    0  0.12366987895E+03 -0.14970842208E+03  0.36219308374E+03  0.44589200543E+03  0.17300000000E+03 0. -1.
         -6    1    1    2    0  502 -0.12366987895E+03  0.14970842208E+03  0.14518646434E+04  0.14749734890E+04  0.17300000000E+03 0. -1.
</event>
<event>
 4    1  0.6069433E+000  0.1000000E+03  0.7546771E-02  0.1280296E+00
         21   -1    0    0  503  502  0.00000000000E+00  0.00000000000E+00  0.63384419078E+02  0.63384419078E+02  0.00000000000E+00 0. -1.
         21   -1    0    0  501  503 -0.00000000000E+00 -0.00000000000E+00 -0.70972036508E+03  0.70972036508E+03  0.00000000000E+00 0. -1.
          6    1    1    2  501    0 -0.98392971054E+02 -0.31021234423E+02 -0.44423520857E+03  0.48776778724E+03  0.17300000000E+03 0. -1.
         -6    1    1    2    0  502  0.98392971054E+02  0.31021234423E+02 -0.20210073743E+03  0.28533699691E+03  0.17300000000E+03 0. -1.
</event>
<event>
 4    1  0.6069433E+000  0.1000000E+03  0.7546771E-02  0.1280296E+00
         21   -1    0    0  503  502  0.00000000000E+00  0.00000000000E+00  0.54094955231E+02  0.54094955231E+02  0.00000000000E+00 0. -1.
         21   -1    0    0  501  503 -0.00000000000E+00 -0.00000000000E+00 -0.16187026709E+04  0.16187026709E+04  0.00000000000E+00 0. -1.
          6    1    1    2  501    0  0.32600612437E+02 -0.56249378337E+02 -0.14355157088E+04  0.14473635144E+04  0.17300000000E+03 0. -1.
         -6    1    1    2    0  502 -0.32600612437E+02  0.56249378337E+02 -0.12909200678E+03  0.22543411168E+03  0.17300000000E+03 0. -1.
</event>
<event>
 4    1  0.6069433E+000  0.1000000E+03  0.7546771E-02  0.1280296E+00
         21   -1    0    0  503  502  0.00000000000E+00  0.00000000000E+00  0.22179491140E+03  0.22179491140E+03  0.00000000000E+00 0.  1.
         21   -1    0    0  501  503 -0.00000000000E+00 -0.00000000000E+00 -0.17297691531E+03  0.17297691531E+03  0.00000000000E+00 0.  1.
          6    1    1    2  501    0  0.33403305479E+01 -0.90355322492E+02  0.40694364640E+02  0.19939978291E+03  0.17300000000E+03 0.  1.
         -6    1    1    2    0  502 -0.33403305479E+01  0.90355322492E+02  0.81236314539E+01  0.19537204380E+03  0.17300000000E+03 0.  1.
</event>
<event>
 4    1  0.6069433E+000  0.1000000E+03  0.7546771E-02  0.1280296E+00
         21   -1    0    0  503  502  0.00000000000E+00  0.00000000000E+00  0.38304431082E+03  0.38304431082E+03  0.00000000000E+00 0.  1.
         21   -1    0    0  501  503 -0.00000000000E+00 -0.00000000000E+00 -0.15806007207E+03  0.15806007207E+03  0.00000000000E+00 0.  1.
          6    1    1    2  501    0 -0.40684076233E+02  0.61566024740E+02 -0.61950360920E+02  0.19802125310E+03  0.17300000000E+03 0.  1.
         -6    1    1    2    0  502  0.40684076233E+02 -0.61566024740E+02  0.28693459967E+03  0.34308312979E+03  0.17300000000E+03 0.  1.
</event>
<event>
 4    1  0.6069433E+000  0.1000000E+03  0.7546771E-02  0.1280296E+00
         21   -1    0    0  503  502  0.00000000000E+00  0.00000000000E+00  0.31027496658E+02  0.31027496658E+02  0.00000000000E+00 0.  1.
         21   -1    0    0  501  503 -0.00000000000E+00 -0.00000000000E+00 -0.19122467248E+04  0.19122467248E+04  0.00000000000E+00 0.  1.
          6    1    1    2  501    0  0.45271301844E+02 -0.15445252995E+03 -0.11765369316E+04  0.12000305105E+04  0.17300000000E+03 0.  1.
         -6    1    1    2    0  502 -0.45271301844E+02  0.15445252995E+03 -0.70468229653E+03  0.74324371091E+03  0.17300000000E+03 0.  1.
</event>
<event>
 4    1  0.6069433E+000  0.1000000E+03  0.7546771E-02  0.1280296E+00
         21   -1    0    0  503  502  0.00000000000E+00  0.00000000000E+00  0.18430163371E+04  0.18430163371E+04  0.00000000000E+00 0.  1.
         21   -1    0    0  501  503 -0.00000000000E+00 -0.00000000000E+00 -0.28289247701E+02  0.28289247701E+02  0.00000000000E+00 0.  1.
          6    1    1    2  501    0  0.84163496987E+02 -0.62221704978E+02  0.47266974665E+03  0.51410186169E+03  0.17300000000E+03 0.  1.
         -6    1    1    2    0  502 -0.84163496987E+02  0.62221704978E+02  0.13420573427E+04  0.13572037231E+04  0.17300000000E+03 0.  1.
</event>
<event>
 4    1  0.6069433E+000  0.1000000E+03  0.7546771E-02  0.1280296E+00
         21   -1    0    0  503  502  0.00000000000E+00  0.00000000000E+00  0.12579623420E+04  0.12579623420E+04  0.00000000000E+00 0.  1.
         21   -1    0    0  501  503 -0.00000000000E+00 -0.00000000000E+00 -0.32981661554E+02  0.32981661554E+02  0.00000000000E+00 0.  1.
          6    1    1    2  501    0  0.17980349389E+02 -0.57632579259E+01  0.27706384529E+03  0.32718478337E+03  0.17300000000E+03 0.  1.
         -6    1    1    2    0  502 -0.17980349389E+02  0.57632579259E+01  0.94791683516E+03  0.96375922018E+03  0.17300000000E+03 0.  1.
</event>
<event>
 4    1  0.6069433E+000  0.1000000E+03  0.7546771E-02  0.1280296E+00
         21   -1    0    0  503  502  0.00000000000E+00  0.00000000000E+00  0.50813065701E+03  0.50813065701E+03  0.00000000000E+00 0. -1.
         21   -1    0    0  501  503 -0.00000000000E+00 -0.00000000000E+00 -0.83898546622E+02  0.83898546622E+02  0.00000000000E+00 0. -1.
          6    1    1    2  501    0 -0.32056356768E+02 -0.81006406540E+02  0.10960361129E+03  0.22255695792E+03  0.17300000000E+03 0. -1.
         -6    1    1    2    0  502  0.32056356768E+02  0.81006406540E+02  0.31462849910E+03  0.36947224572E+03  0.17300000000E+03 0. -1.
</event>
<event>
 4    1  0.6069433E+000  0.1000000E+03  0.7546771E-02  0.1280296E+00
         21   -1    0    0  503  502  0.00000000000E+00  0.00000000000E+00  0.14495936868E+03  0.14495936868E+03  0.00000000000E+00 0. -1.
         21   -1    0    0  501  503 -0.00000000000E+00 -0.00000000000E+00 -0.30925745200E+03  0.30925745200E+03  0.00000000000E+00 0. -1.
          6    1    1    2  501    0 -0.32505728273E+02 -0.11718787657E+03 -0.70840843176E+02  0.22301803929E+03  0.17300000000E+03 0. -1.
         -6    1    1    2    0  502  0.32505728273E+02  0.11718787657E+03 -0.93457240139E+02  0.23119878140E+03  0.17300000000E+03 0. -1.
</event>
<event>
 4    1  0.6069433E+000  0.1000000E+03  0.7546771E-02  0.1280296E+00
         21   -1    0    0  503  502  0.00000000000E+00  0.00000000000E+00  0.25151906163E+03  0.25151906163E+03  0.00000000000E+00 0. -1.
         21   -1    0    0  501  503 -0.00000000000E+00 -0.00000000000E+00 -0.28410511530E+03  0.28410511530E+03  0.00000000000E+00 0. -1.
          6    1    1    2  501    0  0.10475894658E+03 -0.17455209190E+03 -0.25582900358E+02  0.26837726146E+03  0.17300000000E+03 0. -1.
         -6    1    1    2    0  502 -0.10475894658E+03  0.17455209190E+03 -0.70031533169E+01  0.26724691548E+03  0.17300000000E+03 0. -1.
</event>
<event>
 4    1  0.6069433E+000  0.1000000E+03  0.7546771E-02  0.1280296E+00
         21   -1    0    0  501  502  0.00000000000E+00  0.00000000000E+00  0.42848729855E+03  0.42848729855E+03  0.00000000000E+00 0. -1.
         21   -1    0    0  502  503 -0.00000000000E+00 -0.00000000000E+00 -0.11172146155E+03  0.11172146155E+03  0.00000000000E+00 0. -1.
          6    1    1    2  501    0 -0.42903621050E+02  0.91752247759E+00  0.31502781463E+03  0.36195729933E+03  0.17300000000E+03 0. -1.
         -6    1    1    2    0  503  0.42903621050E+02 -0.91752247759E+00  0.17380223658E+01  0.17825146078E+03  0.17300000000E+03 0. -1.
</event>
<event>
 4    1  0.6069433E+000  0.1000000E+03  0.7546771E-02  0.1280296E+00
         21   -1    0    0  501  502  0.00000000000E+00  0.00000000000E+00  0.25082840680E+03  0.25082840680E+03  0.00000000000E+00 0. -1.
         21   -1    0    0  502  503 -0.00000000000E+00 -0.00000000000E+00 -0.27723071839E+03  0.27723071839E+03  0.00000000000E+00 0. -1.
          6    1    1    2  501    0  0.10498729730E+02 -0.80424080702E+02  0.16876824119E+03  0.25493131490E+03  0.17300000000E+03 0. -1.
         -6    1    1    2    0  503 -0.10498729730E+02  0.80424080702E+02 -0.19517055278E+03  0.27312781029E+03  0.17300000000E+03 0. -1.
</event>
<event>
 4    1  0.6069433E+000  0.1000000E+03  0.7546771E-02  0.1280296E+00
         21   -1    0    0  501  502  0.00000000000E+00  0.00000000000E+00  0.40451324901E+03  0.40451324901E+03  0.00000000000E+00 0. -1.
         21   -1    0    0  502  503 -0.00000000000E+00 -0.00000000000E+00 -0.20668080506E+03  0.20668080506E+03  0.00000000000E+00 0. -1.
          6    1    1    2  501    0  0.21692704334E+03 -0.80539718469E+02  0.11106527889E+03  0.30952945669E+03  0.17300000000E+03 0. -1.
         -6    1    1    2    0  503 -0.21692704334E+03  0.80539718469E+02  0.86767165053E+02  0.30166459739E+03  0.17300000000E+03 0. -1.
</event>
<event>
 4    1  0.6069433E+000  0.1000000E+03  0.7546771E-02  0.1280296E+00
         21   -1    0    0  503  502  0.00000000000E+00  0.00000000000E+00  0.81618439227E+03  0.81618439227E+03  0.00000000000E+00 0.  1.
         21   -1    0    0  501  503 -0.00000000000E+00 -0.00000000000E+00 -0.58861854894E+02  0.58861854894E+02  0.00000000000E+00 0. -1.
          6    1    1    2  501    0  0.10971602881E+03 -0.49263703899E+02  0.49923521776E+03  0.54187574420E+03  0.17300000000E+03 0.  1.
         -6    1    1    2    0  502 -0.10971602881E+03  0.49263703899E+02  0.25808731962E+03  0.33317050297E+03  0.17300000000E+03 0. -1.
</event>
<event>
 4    1  0.6069433E+000  0.1000000E+03  0.7546771E-02  0.1280296E+00
         21   -1    0    0  503  502  0.00000000000E+00  0.00000000000E+00  0.56315956072E+03  0.56315956072E+03  0.00000000000E+00 0.  1.
         21   -1    0    0  501  503 -0.00000000000E+00 -0.00000000000E+00 -0.61834696244E+02  0.61834696244E+02  0.00000000000E+00 0. -1.
          6    1    1    2  501    0  0.68276563816E+02  0.10659995100E+02  0.26889000532E+03  0.32711795980E+03  0.17300000000E+03 0.  1.
         -6    1    1    2    0  502 -0.68276563816E+02 -0.10659995100E+02  0.23243485915E+03  0.29787629716E+03  0.17300000000E+03 0. -1.
</event>
<event>
 4    1  0.6069433E+000  0.1000000E+03  0.7546771E-02  0.1280296E+00
         21   -1    0    0  503  502  0.00000000000E+00  0.00000000000E+00  0.17824284959E+04  0.17824284959E+04  0.00000000000E+00 0.  1.
         21   -1    0    0  501  503 -0.00000000000E+00 -0.00000000000E+00 -0.17936271301E+02  0.17936271301E+02  0.00000000000E+00 0. -1.
          6    1    1    2  501    0  0.20967766562E+02  0.40017708206E+02  0.88344674806E+03  0.90135909651E+03  0.17300000000E+03 0.  1.
         -6    1    1    2    0  502 -0.20967766562E+02 -0.40017708206E+02  0.88104547654E+03  0.89900567069E+03  0.17300000000E+03 0. -1.
</event>
<event>
 4    1  0.6069433E+000  0.1000000E+03  0.7546771E-02  0.1280296E+00
         21   -1    0    0  501  502  0.00000000000E+00  0.00000000000E+00  0.84831491934E+03  0.84831491934E+03  0.00000000000E+00 0. -1.
         21   -1    0    0  502  503 -0.00000000000E+00 -0.00000000000E+00 -0.89481896023E+02  0.89481896023E+02  0.00000000000E+00 0. -1.
          6    1    1    2  501    0 -0.23435239740E+02 -0.20014030196E+03  0.50418378951E+03  0.56985581030E+03  0.17300000000E+03 0. -1.
         -6    1    1    2    0  503  0.23435239740E+02  0.20014030196E+03  0.25464923381E+03  0.36794100507E+03  0.17300000000E+03 0. -1.
</event>
<event>
 4    1  0.6069433E+000  0.1000000E+03  0.7546771E-02  0.1280296E+00
         21   -1    0    0  501  502  0.00000000000E+00  0.00000000000E+00  0.15907455775E+04  0.15907455775E+04  0.00000000000E+00 0. -1.
         21   -1    0    0  502  503 -0.00000000000E+00 -0.00000000000E+00 -0.27200033147E+02  0.27200033147E+02  0.00000000000E+00 0. -1.
          6    1    1    2  501    0 -0.29895774409E+02 -0.30459724779E+02  0.11991543132E+04  0.12123207575E+04  0.17300000000E+03 0. -1.
         -6    1    1    2    0  503  0.29895774409E+02  0.30459724779E+02  0.36439123114E+03  0.40562485315E+03  0.17300000000E+03 0. -1.
</event>
<event>
 4    1  0.6069433E+000  0.1000000E+03  0.7546771E-02  0.1280296E+00
         21   -1    0    0  501  502  0.00000000000E+00  0.00000000000E+00  0.35541465180E+03  0.35541465180E+03  0.00000000000E+00 0. -1.
         21   -1    0    0  502  503 -0.00000000000E+00 -0.00000000000E+00 -0.18806227456E+03  0.18806227456E+03  0.00000000000E+00 0. -1.
          6    1    1    2  501    0 -0.23043646721E+02  0.11473561828E+03  0.24382531952E+03  0.32105304577E+03  0.17300000000E+03 0. -1.
         -6    1    1    2    0  503  0.23043646721E+02 -0.11473561828E+03 -0.76472942287E+02  0.22242388059E+03  0.17300000000E+03 0. -1.
</event>
<event>
 4    1  0.6069433E+000  0.1000000E+03  0.7546771E-02  0.1280296E+00
         21   -1    0    0  501  502  0.00000000000E+00  0.00000000000E+00  0.22648593781E+03  0.22648593781E+03  0.00000000000E+00 0. -1.
         21   -1    0    0  502  503 -0.00000000000E+00 -0.00000000000E+00 -0.56025569989E+03  0.56025569989E+03  0.00000000000E+00 0. -1.
          6    1    1    2  501    0  0.80591276346E+02  0.96781645658E+02  0.14759812992E+03  0.25995355107E+03  0.17300000000E+03 0. -1.
         -6    1    1    2    0  503 -0.80591276346E+02 -0.96781645658E+02 -0.48136789201E+03  0.52678808663E+03  0.17300000000E+03 0. -1.
</event>
<event>
 4    1  0.6069433E+000  0.1000000E+03  0.7546771E-02  0.1280296E+00
         21   -1    0    0  501  502  0.00000000000E+00  0.00000000000E+00  0.97537228530E+03  0.97537228530E+03  0.00000000000E+00 0. -1.
         21   -1    0    0  502  503 -0.00000000000E+00 -0.00000000000E+00 -0.80352188148E+02  0.80352188148E+02  0.00000000000E+00 0.  1.
          6    1    1    2  501    0 -0.11911372348E+03 -0.13144472943E+03  0.69319933054E+03  0.73615223145E+03  0.17300000000E+03 0. -1.
         -6    1    1    2    0  503  0.11911372348E+03  0.13144472943E+03  0.20182076661E+03  0.31957224199E+03  0.17300000000E+03 0.  1.
</event>
<event>
 4    1  0.6069433E+000  0.1000000E+03  0.7546771E-02  0.1280296E+00
         21   -1    0    0  503  502  0.00000000000E+00  0.00000000000E+00  0.18316870603E+03  0.18316870603E+03  0.00000000000E+00 0.  1.
         21   -1    0    0  501  503 -0.00000000000E+00 -0.00000000000E+00 -0.31267659342E+03  0.31267659342E+03  0.00000000000E+00 0.  1.
          6    1    1    2  501    0  0.15436259254E+03 -0.51765601747E+02 -0.34799126520E+02  0.24009886861E+03  0.17300000000E+03 0.  1.
         -6    1    1    2    0  502 -0.15436259254E+03  0.51765601747E+02 -0.94708760878E+02  0.25574643084E+03  0.17300000000E+03 0.  1.
</event>
<event>
 4    1  0.6069433E+000  0.1000000E+03  0.7546771E-02  0.1280296E+00
         21   -1    0    0  503  502  0.00000000000E+00  0.00000000000E+00  0.12407492653E+03  0.12407492653E+03  0.00000000000E+00 0.  1.
         21   -1    0    0  501  503 -0.00000000000E+00 -0.00000000000E+00 -0.57198950378E+03  0.57198950378E+03  0.00000000000E+00 0.  1.
          6    1    1    2  501    0 -0.59272865159E+02 -0.68560839428E+02 -0.46065659147E+03  0.50034723594E+03  0.17300000000E+03 0.  1.
         -6    1    1    2    0  502  0.59272865159E+02  0.68560839428E+02  0.12742014218E+02  0.19571719437E+03  0.17300000000E+03 0.  1.
</event>
<event>
 4    1  0.6069433E+000  0.1000000E+03  0.7546771E-02  0.1280296E+00
         21   -1    0    0  501  502  0.00000000000E+00  0.00000000000E+00  0.16120505711E+03  0.16120505711E+03  0.00000000000E+00 0. -1.
         21   -1    0    0  502  503 -0.00000000000E+00 -0.00000000000E+00 -0.65943968442E+03  0.65943968442E+03  0.00000000000E+00 0.  1.
          6    1    1    2  501    0  0.32766193256E+02  0.27413481367E+03 -0.26465808502E+03  0.41975757462E+03  0.17300000000E+03 0. -1.
         -6    1    1    2    0  503 -0.32766193256E+02 -0.27413481367E+03 -0.23357654229E+03  0.40088716691E+03  0.17300000000E+03 0.  1.
</event>
<event>
 4    1  0.6069433E+000  0.1000000E+03  0.7546771E-02  0.1280296E+00
         21   -1    0    0  501  502  0.00000000000E+00  0.00000000000E+00  0.22395119323E+04  0.22395119323E+04  0.00000000000E+00 0. -1.
         21   -1    0    0  502  503 -0.00000000000E+00 -0.00000000000E+00 -0.44997584119E+02  0.44997584119E+02  0.00000000000E+00 0.  1.
          6    1    1    2  501    0 -0.26306863403E+02 -0.22584896262E+03  0.15951157652E+04  0.16205008822E+04  0.17300000000E+03 0. -1.
         -6    1    1    2    0  503  0.26306863403E+02  0.22584896262E+03  0.59939858302E+03  0.66400863421E+03  0.17300000000E+03 0.  1.
</event>
<event>
 4    1  0.6069433E+000  0.1000000E+03  0.7546771E-02  0.1280296E+00
         21   -1    0    0  503  502  0.00000000000E+00  0.00000000000E+00  0.33736313985E+03  0.33736313985E+03  0.00000000000E+00 0. -1.
         21   -1    0    0  501  503 -0.00000000000E+00 -0.00000000000E+00 -0.13640446906E+03  0.13640446906E+03  0.00000000000E+00 0. -1.
          6    1    1    2  501    0 -0.24518635533E+02  0.84009328936E+02 -0.90920083990E+00  0.19387768691E+03  0.17300000000E+03 0. -1.
         -6    1    1    2    0  502  0.24518635533E+02 -0.84009328936E+02  0.20186787164E+03  0.27988992200E+03  0.17300000000E+03 0. -1.
</event>
<event>
 4    1  0.6069433E+000  0.1000000E+03  0.7546771E-02  0.1280296E+00
         21   -1    0    0  503  502  0.00000000000E+00  0.00000000000E+00  0.40371198681E+03  0.40371198681E+03  0.00000000000E+00 0. -1.
         21   -1    0    0  501  503 -0.00000000000E+00 -0.00000000000E+00 -0.11255157905E+04  0.11255157905E+04  0.00000000000E+00 0. -1.
          6    1    1    2  501    0 -0.13364291918E+03 -0.34628680249E+03 -0.96823848400E+03  0.10512800490E+04  0.17300000000E+03 0. -1.
         -6    1    1    2    0  502  0.13364291918E+03  0.34628680249E+03  0.24643468028E+03  0.47794772839E+03  0.17300000000E+03 0. -1.
</event>
<event>
 4    1  0.6069433E+000  0.1000000E+03  0.7546771E-02  0.1280296E+00
         21   -1    0    0  501  502  0.00000000000E+00  0.00000000000E+00  0.10915805599E+04  0.10915805599E+04  0.00000000000E+00 0.  1.
         21   -1    0    0  502  503 -0.00000000000E+00 -0.00000000000E+00 -0.41178977395E+02  0.41178977395E+02  0.00000000000E+00 0. -1.
          6    1    1    2  501    0  0.12015788421E+02  0.10991809582E+02  0.20069237107E+03  0.26546492584E+03  0.17300000000E+03 0.  1.
         -6    1    1    2    0  503 -0.12015788421E+02 -0.10991809582E+02  0.84970921148E+03  0.86729461149E+03  0.17300000000E+03 0. -1.
</event>
<event>
 4    1  0.6069433E+000  0.1000000E+03  0.7546771E-02  0.1280296E+00
         21   -1    0    0  501  502  0.00000000000E+00  0.00000000000E+00  0.77754247270E+03  0.77754247270E+03  0.00000000000E+00 0. -1.
         21   -1    0    0  502  503 -0.00000000000E+00 -0.00000000000E+00 -0.36146973546E+03  0.36146973546E+03  0.00000000000E+00 0.  1.
          6    1    1    2  501    0 -0.79352811823E+01 -0.20399743157E+03  0.69967016254E+03  0.74909629362E+03  0.17300000000E+03 0. -1.
         -6    1    1    2    0  503  0.79352811823E+01  0.20399743157E+03 -0.28359742530E+03  0.38991591454E+03  0.17300000000E+03 0.  1.
</event>
<event>
 4    1  0.6069433E+000  0.1000000E+03  0.7546771E-02  0.1280296E+00
         21   -1    0    0  501  502  0.00000000000E+00  0.00000000000E+00  0.10115790238E+03  0.10115790238E+03  0.00000000000E+00 0. -1.
         21   -1    0    0  502  503 -0.00000000000E+00 -0.00000000000E+00 -0.43727631825E+03  0.43727631825E+03  0.00000000000E+00 0.  1.
          6    1    1    2  501    0  0.10820077814E+03  0.47358035457E+02 -0.19216903280E+03  0.28426770671E+03  0.17300000000E+03 0.  1.
         -6    1    1    2    0  503 -0.10820077814E+03 -0.47358035457E+02 -0.14394938307E+03  0.25416651392E+03  0.17300000000E+03 0. -1.
</event>
<event>
 4    1  0.6069433E+000  0.1000000E+03  0.7546771E-02  0.1280296E+00
         21   -1    0    0  501  502  0.00000000000E+00  0.00000000000E+00  0.19788044078E+04  0.19788044078E+04  0.00000000000E+00 0. -1.
         21   -1    0    0  502  503 -0.00000000000E+00 -0.00000000000E+00 -0.20073758743E+02  0.20073758743E+02  0.00000000000E+00 0.  1.
          6    1    1    2  501    0  0.23767540257E+02  0.75106346112E+02  0.12797081870E+04  0.12937495519E+04  0.17300000000E+03 0.  1.
         -6    1    1    2    0  503 -0.23767540257E+02 -0.75106346112E+02  0.67902246210E+03  0.70512861468E+03  0.17300000000E+03 0. -1.
</event>
<event>
 4    1  0.6069433E+000  0.1000000E+03  0.7546771E-02  0.1280296E+00
         21   -1    0    0  501  502  0.00000000000E+00  0.00000000000E+00  0.87211069615E+03  0.87211069615E+03  0.00000000000E+00 0. -1.
         21   -1    0    0  502  503 -0.00000000000E+00 -0.00000000000E+00 -0.11646267150E+03  0.11646267150E+03  0.00000000000E+00 0.  1.
          6    1    1    2  501    0 -0.30438363990E+02 -0.24904177925E+03  0.52241312653E+03  0.60480804937E+03  0.17300000000E+03 0.  1.
         -6    1    1    2    0  503  0.30438363990E+02  0.24904177925E+03  0.23323489811E+03  0.38376531828E+03  0.17300000000E+03 0. -1.
</event>
<event>
 4    1  0.6069433E+000  0.1000000E+03  0.7546771E-02  0.1280296E+00
         21   -1    0    0  501  502  0.00000000000E+00  0.00000000000E+00  0.24677251148E+02  0.24677251148E+02  0.00000000000E+00 0. -1.
         21   -1    0    0  502  503 -0.00000000000E+00 -0.00000000000E+00 -0.12548845156E+04  0.12548845156E+04  0.00000000000E+00 0.  1.
          6    1    1    2  501    0 -0.21293741619E+02 -0.18754785393E+02 -0.67059153508E+03  0.69312853954E+03  0.17300000000E+03 0. -1.
         -6    1    1    2    0  503  0.21293741619E+02  0.18754785393E+02 -0.55961572932E+03  0.58643322716E+03  0.17300000000E+03 0. -1.
</event>
<event>
 4    1  0.6069433E+000  0.1000000E+03  0.7546771E-02  0.1280296E+00
         21   -1    0    0  501  502  0.00000000000E+00  0.00000000000E+00  0.29215370376E+03  0.29215370376E+03  0.00000000000E+00 0. -1.
         21   -1    0    0  502  503 -0.00000000000E+00 -0.00000000000E+00 -0.11280796717E+03  0.11280796717E+03  0.00000000000E+00 0.  1.
          6    1    1    2  501    0  0.16195202357E+02  0.27669681583E+02  0.13955711959E+03  0.22457311835E+03  0.17300000000E+03 0. -1.
         -6    1    1    2    0  503 -0.16195202357E+02 -0.27669681583E+02  0.39788616992E+02  0.18038855258E+03  0.17300000000E+03 0. -1.
</event>
<event>
 4    1  0.6069433E+000  0.1000000E+03  0.7546771E-02  0.1280296E+00
         21   -1    0    0  501  502  0.00000000000E+00  0.00000000000E+00  0.24157995967E+03  0.24157995967E+03  0.00000000000E+00 0. -1.
         21   -1    0    0  502  503 -0.00000000000E+00 -0.00000000000E+00 -0.16247080436E+03  0.16247080436E+03  0.00000000000E+00 0.  1.
          6    1    1    2  501    0 -0.52722915557E+01 -0.48075184939E+02  0.12476004732E+03  0.21870777277E+03  0.17300000000E+03 0. -1.
         -6    1    1    2    0  503  0.52722915557E+01  0.48075184939E+02 -0.45650892002E+02  0.18534299125E+03  0.17300000000E+03 0. -1.
</event>
<event>
 4    1  0.6069433E+000  0.1000000E+03  0.7546771E-02  0.1280296E+00
         21   -1    0    0  503  502  0.00000000000E+00  0.00000000000E+00  0.93128785515E+03  0.93128785515E+03  0.00000000000E+00 0.  1.
         21   -1    0    0  501  503 -0.00000000000E+00 -0.00000000000E+00 -0.38447156199E+03  0.38447156199E+03  0.00000000000E+00 0.  1.
          6    1    1    2  501    0 -0.16768783627E+03 -0.12994237304E+03 -0.31159478514E+03  0.41475841266E+03  0.17300000000E+03 0.  1.
         -6    1    1    2    0  502  0.16768783627E+03  0.12994237304E+03  0.85841107830E+03  0.90100100449E+03  0.17300000000E+03 0.  1.
</event>
<event>
 4    1  0.6069433E+000  0.1000000E+03  0.7546771E-02  0.1280296E+00
         21   -1    0    0  503  502  0.00000000000E+00  0.00000000000E+00  0.23059696665E+03  0.23059696665E+03  0.00000000000E+00 0. -1.
         21   -1    0    0  501  503 -0.00000000000E+00 -0.00000000000E+00 -0.52395280074E+03  0.52395280074E+03  0.00000000000E+00 0.  1.
          6    1    1    2  501    0 -0.25048688703E+03  0.16664254886E+03 -0.16782229084E+03  0.38549544870E+03  0.17300000000E+03 0. -1.
         -6    1    1    2    0  502  0.25048688703E+03 -0.16664254886E+03 -0.12553354324E+03  0.36905431869E+03  0.17300000000E+03 0.  1.
</event>
<event>
 4    1  0.6069433E+000  0.1000000E+03  0.7546771E-02  0.1280296E+00
         21   -1    0    0  501  502  0.00000000000E+00  0.00000000000E+00  0.97152130565E+03  0.97152130565E+03  0.00000000000E+00 0. -1.
         21   -1    0    0  502  503 -0.00000000000E+00 -0.00000000000E+00 -0.16158633051E+03  0.16158633051E+03  0.00000000000E+00 0. -1.
          6    1    1    2  501    0  0.14436542436E+02 -0.12615615243E+03  0.88122372472E+03  0.90697742064E+03  0.17300000000E+03 0. -1.
         -6    1    1    2    0  503 -0.14436542436E+02  0.12615615243E+03 -0.71288749570E+02  0.22613021552E+03  0.17300000000E+03 0. -1.
</event>
<event>
 4    1  0.6069433E+000  0.1000000E+03  0.7546771E-02  0.1280296E+00
         21   -1    0    0  501  502  0.00000000000E+00  0.00000000000E+00  0.75747676748E+02  0.75747676748E+02  0.00000000000E+00 0. -1.
         21   -1    0    0  502  503 -0.00000000000E+00 -0.00000000000E+00 -0.12400281791E+04  0.12400281791E+04  0.00000000000E+00 0. -1.
          6    1    1    2  501    0 -0.10014672908E+03 -0.29433273073E+02 -0.87468141718E+02  0.22017120776E+03  0.17300000000E+03 0. -1.
         -6    1    1    2    0  503  0.10014672908E+03  0.29433273073E+02 -0.10768123606E+04  0.10956046481E+04  0.17300000000E+03 0. -1.
</event>
<event>
 4    1  0.6069433E+000  0.1000000E+03  0.7546771E-02  0.1280296E+00
         21   -1    0    0  503  502  0.00000000000E+00  0.00000000000E+00  0.17676993338E+03  0.17676993338E+03  0.00000000000E+00 0. -1.
         21   -1    0    0  501  503 -0.00000000000E+00 -0.00000000000E+00 -0.31388819050E+03  0.31388819050E+03  0.00000000000E+00 0.  1.
          6    1    1    2  501    0 -0.89100020851E+02 -0.12408715648E+03 -0.11763730425E+03  0.25904434267E+03  0.17300000000E+03 0.  1.
         -6    1    1    2    0  502  0.89100020851E+02  0.12408715648E+03 -0.19480952877E+02  0.23161378121E+03  0.17300000000E+03 0. -1.
</event>
<event>
 4    1  0.6069433E+000  0.1000000E+03  0.7546771E-02  0.1280296E+00
         21   -1    0    0  503  502  0.00000000000E+00  0.00000000000E+00  0.19355803872E+04  0.19355803872E+04  0.00000000000E+00 0. -1.
         21   -1    0    0  501  503 -0.00000000000E+00 -0.00000000000E+00 -0.47657636340E+02  0.47657636340E+02  0.00000000000E+00 0.  1.
          6    1    1    2  501    0 -0.41217010571E+02 -0.15522437527E+03  0.32000439158E+03  0.39764966902E+03  0.17300000000E+03 0.  1.
         -6    1    1    2    0  502  0.41217010571E+02  0.15522437527E+03  0.15679183593E+04  0.15855883545E+04  0.17300000000E+03 0. -1.
</event>
<event>
 4    1  0.6069433E+000  0.1000000E+03  0.7546771E-02  0.1280296E+00
         21   -1    0    0  503  502  0.00000000000E+00  0.00000000000E+00  0.54618730283E+03  0.54618730283E+03  0.00000000000E+00 0. -1.
         21   -1    0    0  501  503 -0.00000000000E+00 -0.00000000000E+00 -0.11438832018E+03  0.11438832018E+03  0.00000000000E+00 0.  1.
          6    1    1    2  501    0  0.57645113540E+02  0.12236688077E+03  0.58150603529E+02  0.22717197299E+03  0.17300000000E+03 0.  1.
         -6    1    1    2    0  502 -0.57645113540E+02 -0.12236688077E+03  0.37364837912E+03  0.43340365001E+03  0.17300000000E+03 0. -1.
</event>
<event>
 4    1  0.6069433E+000  0.1000000E+03  0.7546771E-02  0.1280296E+00
         21   -1    0    0  503  502  0.00000000000E+00  0.00000000000E+00  0.98929933372E+01  0.98929933372E+01  0.00000000000E+00 0. -1.
         21   -1    0    0  501  503 -0.00000000000E+00 -0.00000000000E+00 -0.41916060354E+04  0.41916060354E+04  0.00000000000E+00 0.  1.
          6    1    1    2  501    0  0.13521891608E+02  0.13317744732E+02 -0.31815647361E+04  0.31863212917E+04  0.17300000000E+03 0. -1.
         -6    1    1    2    0  502 -0.13521891608E+02 -0.13317744732E+02 -0.10001483060E+04  0.10151777371E+04  0.17300000000E+03 0.  1.
</event>
<event>
 4    1  0.6069433E+000  0.1000000E+03  0.7546771E-02  0.1280296E+00
         21   -1    0    0  503  502  0.00000000000E+00  0.00000000000E+00  0.33204525848E+02  0.33204525848E+02  0.00000000000E+00 0.  1.
         21   -1    0    0  501  503 -0.00000000000E+00 -0.00000000000E+00 -0.99191864879E+03  0.99191864879E+03  0.00000000000E+00 0.  1.
          6    1    1    2  501    0 -0.42544943554E+01 -0.12301526266E+01 -0.63372914029E+03  0.65693320608E+03  0.17300000000E+03 0.  1.
         -6    1    1    2    0  502  0.42544943554E+01  0.12301526266E+01 -0.32498498265E+03  0.36818996856E+03  0.17300000000E+03 0.  1.
</event>
<event>
 4    1  0.6069433E+000  0.1000000E+03  0.7546771E-02  0.1280296E+00
         21   -1    0    0  503  502  0.00000000000E+00  0.00000000000E+00  0.11169686358E+03  0.11169686358E+03  0.00000000000E+00 0.  1.
         21   -1    0    0  501  503 -0.00000000000E+00 -0.00000000000E+00 -0.35351898262E+03  0.35351898262E+03  0.00000000000E+00 0.  1.
          6    1    1    2  501    0 -0.82722043495E+00  0.95732079390E+01 -0.23479760757E+03  0.29180686613E+03  0.17300000000E+03 0.  1.
         -6    1    1    2    0  502  0.82722043495E+00 -0.95732079390E+01 -0.70245114721E+01  0.17340898006E+03  0.17300000000E+03 0.  1.
</event>
<event>
 4    1  0.6069433E+000  0.1000000E+03  0.7546771E-02  0.1280296E+00
         21   -1    0    0  503  502  0.00000000000E+00  0.00000000000E+00  0.17670543580E+03  0.17670543580E+03  0.00000000000E+00 0. -1.
         21   -1    0    0  501  503 -0.00000000000E+00 -0.00000000000E+00 -0.17395565973E+03  0.17395565973E+03  0.00000000000E+00 0. -1.
          6    1    1    2  501    0 -0.10074946738E+01 -0.52708140673E+01 -0.26574390526E+02  0.17511137815E+03  0.17300000000E+03 0. -1.
         -6    1    1    2    0  502  0.10074946738E+01  0.52708140673E+01  0.29324166595E+02  0.17554971738E+03  0.17300000000E+03 0. -1.
</event>
<event>
 4    1  0.6069433E+000  0.1000000E+03  0.7546771E-02  0.1280296E+00
         21   -1    0    0  503  502  0.00000000000E+00  0.00000000000E+00  0.54450224020E+03  0.54450224020E+03  0.00000000000E+00 0. -1.
         21   -1    0    0  501  503 -0.00000000000E+00 -0.00000000000E+00 -0.71403973318E+02  0.71403973318E+02  0.00000000000E+00 0. -1.
          6    1    1    2  501    0 -0.81275526898E+02  0.38941187769E+02  0.28150317956E+03  0.34248382076E+03  0.17300000000E+03 0. -1.
         -6    1    1    2    0  502  0.81275526898E+02 -0.38941187769E+02  0.19159508732E+03  0.27342239276E+03  0.17300000000E+03 0. -1.
</event>
<event>
 4    1  0.6069433E+000  0.1000000E+03  0.7546771E-02  0.1280296E+00
         21   -1    0    0  503  502  0.00000000000E+00  0.00000000000E+00  0.60484228243E+03  0.60484228243E+03  0.00000000000E+00 0. -1.
         21   -1    0    0  501  503 -0.00000000000E+00 -0.00000000000E+00 -0.18481421161E+03  0.18481421161E+03  0.00000000000E+00 0. -1.
          6    1    1    2  501    0 -0.68474482074E+01  0.92180694271E+02 -0.10972959804E+03  0.22475264766E+03  0.17300000000E+03 0. -1.
         -6    1    1    2    0  502  0.68474482074E+01 -0.92180694271E+02  0.52975766886E+03  0.56490384638E+03  0.17300000000E+03 0. -1.
</event>
<event>
 4    1  0.6069433E+000  0.1000000E+03  0.7546771E-02  0.1280296E+00
         21   -1    0    0  503  502  0.00000000000E+00  0.00000000000E+00  0.15333400422E+04  0.15333400422E+04  0.00000000000E+00 0. -1.
         21   -1    0    0  501  503 -0.00000000000E+00 -0.00000000000E+00 -0.91186413261E+02  0.91186413261E+02  0.00000000000E+00 0. -1.
          6    1    1    2  501    0 -0.36826055251E+02  0.87274505764E+02  0.31001751542E+02  0.19965747244E+03  0.17300000000E+03 0. -1.
         -6    1    1    2    0  502  0.36826055251E+02 -0.87274505764E+02  0.14111518774E+04  0.14248689830E+04  0.17300000000E+03 0. -1.
</event>
<event>
 4    1  0.6069433E+000  0.1000000E+03  0.7546771E-02  0.1280296E+00
         21   -1    0    0  503  502  0.00000000000E+00  0.00000000000E+00  0.99601144716E+03  0.99601144716E+03  0.00000000000E+00 0. -1.
         21   -1    0    0  501  503 -0.00000000000E+00 -0.00000000000E+00 -0.13246994638E+03  0.13246994638E+03  0.00000000000E+00 0. -1.
          6    1    1    2  501    0  0.22772963314E+03  0.53527535158E+02  0.93984002673E+02  0.30575803438E+03  0.17300000000E+03 0. -1.
         -6    1    1    2    0  502 -0.22772963314E+03 -0.53527535158E+02  0.76955749811E+03  0.82272335917E+03  0.17300000000E+03 0. -1.
</event>
<event>
 4    1  0.6069433E+000  0.1000000E+03  0.7546771E-02  0.1280296E+00
         21   -1    0    0  503  502  0.00000000000E+00  0.00000000000E+00  0.16534656129E+04  0.16534656129E+04  0.00000000000E+00 0. -1.
         21   -1    0    0  501  503 -0.00000000000E+00 -0.00000000000E+00 -0.28210066862E+02  0.28210066862E+02  0.00000000000E+00 0. -1.
          6    1    1    2  501    0 -0.26468578213E+02  0.47756449507E+02  0.35636725507E+03  0.39988483916E+03  0.17300000000E+03 0. -1.
         -6    1    1    2    0  502  0.26468578213E+02 -0.47756449507E+02  0.12688882909E+04  0.12817908406E+04  0.17300000000E+03 0. -1.
</event>
<event>
 4    1  0.6069433E+000  0.1000000E+03  0.7546771E-02  0.1280296E+00
         21   -1    0    0  503  502  0.00000000000E+00  0.00000000000E+00  0.14253824176E+04  0.14253824176E+04  0.00000000000E+00 0. -1.
         21   -1    0    0  501  503 -0.00000000000E+00 -0.00000000000E+00 -0.51612344259E+02  0.51612344259E+02  0.00000000000E+00 0. -1.
          6    1    1    2  501    0  0.17123812912E+03  0.12313535944E+02  0.36284205774E+03  0.43710122271E+03  0.17300000000E+03 0.  1.
         -6    1    1    2    0  502 -0.17123812912E+03 -0.12313535944E+02  0.10109280156E+04  0.10398935392E+04  0.17300000000E+03 0.  1.
</event>
<event>
 4    1  0.6069433E+000  0.1000000E+03  0.7546771E-02  0.1280296E+00
         21   -1    0    0  503  502  0.00000000000E+00  0.00000000000E+00  0.65149219820E+02  0.65149219820E+02  0.00000000000E+00 0.  1.
         21   -1    0    0  501  503 -0.00000000000E+00 -0.00000000000E+00 -0.46384674775E+03  0.46384674775E+03  0.00000000000E+00 0. -1.
          6    1    1    2  501    0  0.27007531917E+01 -0.16808550252E+02 -0.20034916575E+03  0.26525197388E+03  0.17300000000E+03 0.  1.
         -6    1    1    2    0  502 -0.27007531917E+01  0.16808550252E+02 -0.19834836218E+03  0.26374399369E+03  0.17300000000E+03 0.  1.
</event>
<event>
 4    1  0.6069433E+000  0.1000000E+03  0.7546771E-02  0.1280296E+00
         21   -1    0    0  503  502  0.00000000000E+00  0.00000000000E+00  0.26346156111E+02  0.26346156111E+02  0.00000000000E+00 0.  1.
         21   -1    0    0  501  503 -0.00000000000E+00 -0.00000000000E+00 -0.14093137872E+04  0.14093137872E+04  0.00000000000E+00 0. -1.
          6    1    1    2  501    0 -0.26670334334E+02 -0.55357399977E+02 -0.90950837021E+03  0.92785247963E+03  0.17300000000E+03 0.  1.
         -6    1    1    2    0  502  0.26670334334E+02  0.55357399977E+02 -0.47345926092E+03  0.50780746373E+03  0.17300000000E+03 0.  1.
</event>
<event>
 4    1  0.6069433E+000  0.1000000E+03  0.7546771E-02  0.1280296E+00
         21   -1    0    0  503  502  0.00000000000E+00  0.00000000000E+00  0.17352732079E+03  0.17352732079E+03  0.00000000000E+00 0.  1.
         21   -1    0    0  501  503 -0.00000000000E+00 -0.00000000000E+00 -0.55084459074E+03  0.55084459074E+03  0.00000000000E+00 0. -1.
          6    1    1    2  501    0  0.20464197807E+03 -0.16440063811E+02 -0.36827667038E+03  0.45574699213E+03  0.17300000000E+03 0.  1.
         -6    1    1    2    0  502 -0.20464197807E+03  0.16440063811E+02 -0.90405995652E+01  0.26862491941E+03  0.17300000000E+03 0.  1.
</event>
<event>
 4    1  0.6069433E+000  0.1000000E+03  0.7546771E-02  0.1280296E+00
         21   -1    0    0  503  502  0.00000000000E+00  0.00000000000E+00  0.59602349567E+03  0.59602349567E+03  0.00000000000E+00 0.  1.
         21   -1    0    0  501  503 -0.00000000000E+00 -0.00000000000E+00 -0.15156295611E+03  0.15156295611E+03  0.00000000000E+00 0.  1.
          6    1    1    2  501    0 -0.20663392370E+03 -0.11364699287E+03  0.13613073129E+03  0.32260470148E+03  0.17300000000E+03 0.  1.
         -6    1    1    2    0  502  0.20663392370E+03  0.11364699287E+03  0.30832980827E+03  0.42498175030E+03  0.17300000000E+03 0.  1.
</event>
<event>
 4    1  0.6069433E+000  0.1000000E+03  0.7546771E-02  0.1280296E+00
         21   -1    0    0  503  502  0.00000000000E+00  0.00000000000E+00  0.12279005571E+03  0.12279005571E+03  0.00000000000E+00 0.  1.
         21   -1    0    0  501  503 -0.00000000000E+00 -0.00000000000E+00 -0.32935679957E+03  0.32935679957E+03  0.00000000000E+00 0.  1.
          6    1    1    2  501    0  0.92490424166E+02  0.35057530110E+02 -0.13364094869E+03  0.23994251842E+03  0.17300000000E+03 0.  1.
         -6    1    1    2    0  502 -0.92490424166E+02 -0.35057530110E+02 -0.72925795177E+02  0.21220433686E+03  0.17300000000E+03 0.  1.
</event>
<event>
 4    1  0.6069433E+000  0.1000000E+03  0.7546771E-02  0.1280296E+00
         21   -1    0    0  503  502  0.00000000000E+00  0.00000000000E+00  0.12264426589E+03  0.12264426589E+03  0.00000000000E+00 0.  1.
         21   -1    0    0  501  503 -0.00000000000E+00 -0.00000000000E+00 -0.12981597923E+04  0.12981597923E+04  0.00000000000E+00 0.  1.
          6    1    1    2  501    0 -0.89144672288E+02  0.14114202933E+02 -0.12074194843E+04  0.12230849498E+04  0.17300000000E+03 0.  1.
         -6    1    1    2    0  502  0.89144672288E+02 -0.14114202933E+02  0.31903957833E+02  0.19771910845E+03  0.17300000000E+03 0.  1.
</event>
<event>
 4    1  0.6069433E+000  0.1000000E+03  0.7546771E-02  0.1280296E+00
         21   -1    0    0  503  502  0.00000000000E+00  0.00000000000E+00  0.63115150614E+03  0.63115150614E+03  0.00000000000E+00 0.  1.
         21   -1    0    0  501  503 -0.00000000000E+00 -0.00000000000E+00 -0.80599492140E+02  0.80599492140E+02  0.00000000000E+00 0.  1.
          6    1    1    2  501    0 -0.19387275532E+02  0.79670537573E+01  0.49350724837E+02  0.18111828853E+03  0.17300000000E+03 0.  1.
         -6    1    1    2    0  502  0.19387275532E+02 -0.79670537573E+01  0.50120128917E+03  0.53063270975E+03  0.17300000000E+03 0.  1.
</event>
<event>
 4    1  0.6069433E+000  0.1000000E+03  0.7546771E-02  0.1280296E+00
         21   -1    0    0  503  502  0.00000000000E+00  0.00000000000E+00  0.24062458763E+03  0.24062458763E+03  0.00000000000E+00 0.  1.
         21   -1    0    0  501  503 -0.00000000000E+00 -0.00000000000E+00 -0.14827861341E+03  0.14827861341E+03  0.00000000000E+00 0.  1.
          6    1    1    2  501    0  0.32438934888E+02 -0.34562846890E+02 -0.14761035811E+02  0.17998267433E+03  0.17300000000E+03 0.  1.
         -6    1    1    2    0  502 -0.32438934888E+02  0.34562846890E+02  0.10710701003E+03  0.20892052671E+03  0.17300000000E+03 0.  1.
</event>
<event>
 4    1  0.6069433E+000  0.1000000E+03  0.7546771E-02  0.1280296E+00
         21   -1    0    0  503  502  0.00000000000E+00  0.00000000000E+00  0.71160334670E+03  0.71160334670E+03  0.00000000000E+00 0. -1.
         21   -1    0    0  501  503 -0.00000000000E+00 -0.00000000000E+00 -0.47945688551E+02  0.47945688551E+02  0.00000000000E+00 0. -1.
          6    1    1    2  501    0  0.63672069171E+02  0.65153061597E+01  0.31202978991E+03  0.36247506314E+03  0.17300000000E+03 0. -1.
         -6    1    1    2    0  502 -0.63672069171E+02 -0.65153061597E+01  0.35162786824E+03  0.39707397211E+03  0.17300000000E+03 0. -1.
</event>
<event>
 4    1  0.6069433E+000  0.1000000E+03  0.7546771E-02  0.1280296E+00
         21   -1    0    0  503  502  0.00000000000E+00  0.00000000000E+00  0.22269678998E+03  0.22269678998E+03  0.00000000000E+00 0. -1.
         21   -1    0    0  501  503 -0.00000000000E+00 -0.00000000000E+00 -0.16319112293E+03  0.16319112293E+03  0.00000000000E+00 0. -1.
          6    1    1    2  501    0 -0.28438925090E+02  0.31943199507E+02 -0.38772030474E+02  0.18237711151E+03  0.17300000000E+03 0. -1.
         -6    1    1    2    0  502  0.28438925090E+02 -0.31943199507E+02  0.98277697523E+02  0.20351080140E+03  0.17300000000E+03 0. -1.
</event>
<event>
 4    1  0.6069433E+000  0.1000000E+03  0.7546771E-02  0.1280296E+00
         21   -1    0    0  503  502  0.00000000000E+00  0.00000000000E+00  0.40899489787E+03  0.40899489787E+03  0.00000000000E+00 0. -1.
         21   -1    0    0  501  503 -0.00000000000E+00 -0.00000000000E+00 -0.18178446596E+03  0.18178446596E+03  0.00000000000E+00 0. -1.
          6    1    1    2  501    0 -0.83737168132E+02 -0.14432236590E+02 -0.95337774235E+02  0.21503137905E+03  0.17300000000E+03 0. -1.
         -6    1    1    2    0  502  0.83737168132E+02  0.14432236590E+02  0.32254820614E+03  0.37574798478E+03  0.17300000000E+03 0. -1.
</event>
<event>
 4    1  0.6069433E+000  0.1000000E+03  0.7546771E-02  0.1280296E+00
         21   -1    0    0  503  502  0.00000000000E+00  0.00000000000E+00  0.37246417286E+02  0.37246417286E+02  0.00000000000E+00 0.  1.
         21   -1    0    0  501  503 -0.00000000000E+00 -0.00000000000E+00 -0.10847778887E+04  0.10847778887E+04  0.00000000000E+00 0.  1.
          6    1    1    2  501    0  0.44987336712E+01  0.76022113263E+02 -0.71460738114E+03  0.73918354249E+03  0.17300000000E+03 0.  1.
         -6    1    1    2    0  502 -0.44987336712E+01 -0.76022113263E+02 -0.33292409028E+03  0.38284076351E+03  0.17300000000E+03 0.  1.
</event>
<event>
 4    1  0.6069433E+000  0.1000000E+03  0.7546771E-02  0.1280296E+00
         21   -1    0    0  503  502  0.00000000000E+00  0.00000000000E+00  0.89104147129E+03  0.89104147129E+03  0.00000000000E+00 0.  1.
         21   -1    0    0  501  503 -0.00000000000E+00 -0.00000000000E+00 -0.49864830805E+02  0.49864830805E+02  0.00000000000E+00 0.  1.
          6    1    1    2  501    0 -0.65733919611E+02  0.66217030037E+02  0.25065776191E+03  0.31853407488E+03  0.17300000000E+03 0.  1.
         -6    1    1    2    0  502  0.65733919611E+02 -0.66217030037E+02  0.59051887857E+03  0.62237222721E+03  0.17300000000E+03 0.  1.
</event>
<event>
 4    1  0.6069433E+000  0.1000000E+03  0.7546771E-02  0.1280296E+00
         21   -1    0    0  503  502  0.00000000000E+00  0.00000000000E+00  0.50533276901E+03  0.50533276901E+03  0.00000000000E+00 0.  1.
         21   -1    0    0  501  503 -0.00000000000E+00 -0.00000000000E+00 -0.29797798139E+03  0.29797798139E+03  0.00000000000E+00 0.  1.
          6    1    1    2  501    0  0.73078594824E+02  0.39178775022E+02 -0.24545767971E+03  0.31153479735E+03  0.17300000000E+03 0.  1.
         -6    1    1    2    0  502 -0.73078594824E+02 -0.39178775022E+02  0.45281246733E+03  0.49177595305E+03  0.17300000000E+03 0.  1.
</event>
<event>
 4    1  0.6069433E+000  0.1000000E+03  0.7546771E-02  0.1280296E+00
         21   -1    0    0  501  502  0.00000000000E+00  0.00000000000E+00  0.15715767844E+03  0.15715767844E+03  0.00000000000E+00 0. -1.
         21   -1    0    0  502  503 -0.00000000000E+00 -0.00000000000E+00 -0.36213617299E+03  0.36213617299E+03  0.00000000000E+00 0. -1.
          6    1    1    2  501    0  0.15418655817E+03 -0.52173728521E+02 -0.78448979580E+02  0.25015762044E+03  0.17300000000E+03 0. -1.
         -6    1    1    2    0  503 -0.15418655817E+03  0.52173728521E+02 -0.12652951497E+03  0.26913623098E+03  0.17300000000E+03 0. -1.
</event>
<event>
 4    1  0.6069433E+000  0.1000000E+03  0.7546771E-02  0.1280296E+00
         21   -1    0    0  503  502  0.00000000000E+00  0.00000000000E+00  0.58155925733E+03  0.58155925733E+03  0.00000000000E+00 0. -1.
         21   -1    0    0  501  503 -0.00000000000E+00 -0.00000000000E+00 -0.39343178602E+03  0.39343178602E+03  0.00000000000E+00 0. -1.
          6    1    1    2  501    0  0.27811914831E+03 -0.18428784956E+02 -0.26071974067E+03  0.41903897664E+03  0.17300000000E+03 0. -1.
         -6    1    1    2    0  502 -0.27811914831E+03  0.18428784956E+02  0.44884721198E+03  0.55595206670E+03  0.17300000000E+03 0. -1.
</event>
<event>
 4    1  0.6069433E+000  0.1000000E+03  0.7546771E-02  0.1280296E+00
         21   -1    0    0  503  502  0.00000000000E+00  0.00000000000E+00  0.77684695319E+03  0.77684695319E+03  0.00000000000E+00 0. -1.
         21   -1    0    0  501  503 -0.00000000000E+00 -0.00000000000E+00 -0.99718522850E+02  0.99718522850E+02  0.00000000000E+00 0. -1.
          6    1    1    2  501    0 -0.11337546700E+03  0.16826611108E+03  0.46424042940E+03  0.53536497546E+03  0.17300000000E+03 0. -1.
         -6    1    1    2    0  502  0.11337546700E+03 -0.16826611108E+03  0.21288800093E+03  0.34120050058E+03  0.17300000000E+03 0. -1.
</event>
<event>
 4    1  0.6069433E+000  0.1000000E+03  0.7546771E-02  0.1280296E+00
         21   -1    0    0  503  502  0.00000000000E+00  0.00000000000E+00  0.39669312065E+03  0.39669312065E+03  0.00000000000E+00 0. -1.
         21   -1    0    0  501  503 -0.00000000000E+00 -0.00000000000E+00 -0.13696562919E+03  0.13696562919E+03  0.00000000000E+00 0. -1.
          6    1    1    2  501    0 -0.20707974456E+02 -0.72374586512E+02 -0.26831357017E+02  0.19056710812E+03  0.17300000000E+03 0. -1.
         -6    1    1    2    0  502  0.20707974456E+02  0.72374586512E+02  0.28655884848E+03  0.34309164172E+03  0.17300000000E+03 0. -1.
</event>
<event>
 4    1  0.6069433E+000  0.1000000E+03  0.7546771E-02  0.1280296E+00
         21   -1    0    0  503  502  0.00000000000E+00  0.00000000000E+00  0.51109924937E+02  0.51109924937E+02  0.00000000000E+00 0. -1.
         21   -1    0    0  501  503 -0.00000000000E+00 -0.00000000000E+00 -0.60669584477E+03  0.60669584477E+03  0.00000000000E+00 0. -1.
          6    1    1    2  501    0 -0.60576530495E+01 -0.30304966724E+02 -0.29859965237E+03  0.34647631747E+03  0.17300000000E+03 0. -1.
         -6    1    1    2    0  502  0.60576530495E+01  0.30304966724E+02 -0.25698626746E+03  0.31132945224E+03  0.17300000000E+03 0. -1.
</event>
<event>
 4    1  0.6069433E+000  0.1000000E+03  0.7546771E-02  0.1280296E+00
         21   -1    0    0  503  502  0.00000000000E+00  0.00000000000E+00  0.44844531265E+02  0.44844531265E+02  0.00000000000E+00 0. -1.
         21   -1    0    0  501  503 -0.00000000000E+00 -0.00000000000E+00 -0.10244702928E+04  0.10244702928E+04  0.00000000000E+00 0.  1.
          6    1    1    2  501    0  0.25251180584E+02 -0.70052999759E+02 -0.74502412691E+03  0.76846274768E+03  0.17300000000E+03 0.  1.
         -6    1    1    2    0  502 -0.25251180584E+02  0.70052999759E+02 -0.23460163463E+03  0.30085207639E+03  0.17300000000E+03 0. -1.
</event>
<event>
 4    1  0.6069433E+000  0.1000000E+03  0.7546771E-02  0.1280296E+00
         21   -1    0    0  503  502  0.00000000000E+00  0.00000000000E+00  0.11065330834E+03  0.11065330834E+03  0.00000000000E+00 0.  1.
         21   -1    0    0  501  503 -0.00000000000E+00 -0.00000000000E+00 -0.96399259773E+03  0.96399259773E+03  0.00000000000E+00 0.  1.
          6    1    1    2  501    0 -0.23317807691E+02 -0.95381009362E+02 -0.85283038387E+03  0.87572251356E+03  0.17300000000E+03 0.  1.
         -6    1    1    2    0  502  0.23317807691E+02  0.95381009362E+02 -0.50890552519E+00  0.19892339251E+03  0.17300000000E+03 0.  1.
</event>
<event>
 4    1  0.6069433E+000  0.1000000E+03  0.7546771E-02  0.1280296E+00
         21   -1    0    0  503  502  0.00000000000E+00  0.00000000000E+00  0.41889818364E+02  0.41889818364E+02  0.00000000000E+00 0.  1.
         21   -1    0    0  501  503 -0.00000000000E+00 -0.00000000000E+00 -0.12880335419E+04  0.12880335419E+04  0.00000000000E+00 0.  1.
          6    1    1    2  501    0  0.70897782794E+02 -0.80278205285E+02 -0.94384217017E+03  0.96552479411E+03  0.17300000000E+03 0.  1.
         -6    1    1    2    0  502 -0.70897782794E+02  0.80278205285E+02 -0.30230155338E+03  0.36439856616E+03  0.17300000000E+03 0.  1.
</event>
<event>
 4    1  0.6069433E+000  0.1000000E+03  0.7546771E-02  0.1280296E+00
         21   -1    0    0  503  502  0.00000000000E+00  0.00000000000E+00  0.19620655789E+04  0.19620655789E+04  0.00000000000E+00 0.  1.
         21   -1    0    0  501  503 -0.00000000000E+00 -0.00000000000E+00 -0.18021885076E+02  0.18021885076E+02  0.00000000000E+00 0.  1.
          6    1    1    2  501    0  0.12415961534E+02 -0.76779073224E+01  0.13523426941E+04  0.13634415530E+04  0.17300000000E+03 0.  1.
         -6    1    1    2    0  502 -0.12415961534E+02  0.76779073224E+01  0.59170099978E+03  0.61664591096E+03  0.17300000000E+03 0.  1.
</event>
<event>
 4    1  0.6069433E+000  0.1000000E+03  0.7546771E-02  0.1280296E+00
         21   -1    0    0  503  502  0.00000000000E+00  0.00000000000E+00  0.94599190090E+02  0.94599190090E+02  0.00000000000E+00 0. -1.
         21   -1    0    0  501  503 -0.00000000000E+00 -0.00000000000E+00 -0.81081413755E+03  0.81081413755E+03  0.00000000000E+00 0. -1.
          6    1    1    2  501    0 -0.21013766295E+03 -0.50869676453E+02 -0.36672593775E+03  0.45952418303E+03  0.17300000000E+03 0. -1.
         -6    1    1    2    0  502  0.21013766295E+03  0.50869676453E+02 -0.34948900972E+03  0.44588914461E+03  0.17300000000E+03 0. -1.
</event>
<event>
 4    1  0.6069433E+000  0.1000000E+03  0.7546771E-02  0.1280296E+00
         21   -1    0    0  503  502  0.00000000000E+00  0.00000000000E+00  0.24967711948E+04  0.24967711948E+04  0.00000000000E+00 0. -1.
         21   -1    0    0  501  503 -0.00000000000E+00 -0.00000000000E+00 -0.40717391755E+02  0.40717391755E+02  0.00000000000E+00 0. -1.
          6    1    1    2  501    0 -0.14243956093E+03  0.88081417432E+02  0.39633181399E+03  0.46374052162E+03  0.17300000000E+03 0. -1.
         -6    1    1    2    0  502  0.14243956093E+03 -0.88081417432E+02  0.20597219890E+04  0.20737480649E+04  0.17300000000E+03 0. -1.
</event>
<event>
 4    1  0.6069433E+000  0.1000000E+03  0.7546771E-02  0.1280296E+00
         21   -1    0    0  501  502  0.00000000000E+00  0.00000000000E+00  0.41272631622E+03  0.41272631622E+03  0.00000000000E+00 0.  1.
         21   -1    0    0  502  503 -0.00000000000E+00 -0.00000000000E+00 -0.18417971432E+03  0.18417971432E+03  0.00000000000E+00 0.  1.
          6    1    1    2  501    0  0.12502223793E+02  0.98744493807E+01  0.34601978683E+03  0.38718536030E+03  0.17300000000E+03 0.  1.
         -6    1    1    2    0  503 -0.12502223793E+02 -0.98744493807E+01 -0.11747318493E+03  0.20972067025E+03  0.17300000000E+03 0.  1.
</event>
<event>
 4    1  0.6069433E+000  0.1000000E+03  0.7546771E-02  0.1280296E+00
         21   -1    0    0  503  502  0.00000000000E+00  0.00000000000E+00  0.47598943352E+03  0.47598943352E+03  0.00000000000E+00 0. -1.
         21   -1    0    0  501  503 -0.00000000000E+00 -0.00000000000E+00 -0.66901161922E+02  0.66901161922E+02  0.00000000000E+00 0.  1.
          6    1    1    2  501    0  0.43733059135E+02  0.23324664691E+00  0.20208606035E+03  0.26959304637E+03  0.17300000000E+03 0. -1.
         -6    1    1    2    0  502 -0.43733059135E+02 -0.23324664691E+00  0.20700221125E+03  0.27329754907E+03  0.17300000000E+03 0.  1.
</event>
<event>
 4    1  0.6069433E+000  0.1000000E+03  0.7546771E-02  0.1280296E+00
         21   -1    0    0  503  502  0.00000000000E+00  0.00000000000E+00  0.43082308993E+03  0.43082308993E+03  0.00000000000E+00 0. -1.
         21   -1    0    0  501  503 -0.00000000000E+00 -0.00000000000E+00 -0.19140730904E+03  0.19140730904E+03  0.00000000000E+00 0.  1.
          6    1    1    2  501    0  0.97681825736E+02  0.41113635859E+02 -0.10047117212E+03  0.22639683425E+03  0.17300000000E+03 0. -1.
         -6    1    1    2    0  502 -0.97681825736E+02 -0.41113635859E+02  0.33988695300E+03  0.39583356472E+03  0.17300000000E+03 0.  1.
</event>
<event>
 4    1  0.6069433E+000  0.1000000E+03  0.7546771E-02  0.1280296E+00
         21   -1    0    0  503  502  0.00000000000E+00  0.00000000000E+00  0.51886061280E+03  0.51886061280E+03  0.00000000000E+00 0.  1.
         21   -1    0    0  501  503 -0.00000000000E+00 -0.00000000000E+00 -0.74212070606E+02  0.74212070606E+02  0.00000000000E+00 0.  1.
          6    1    1    2  501    0  0.13283355035E+02  0.54101474821E+02  0.33412382164E+03  0.38035660279E+03  0.17300000000E+03 0.  1.
         -6    1    1    2    0  502 -0.13283355035E+02 -0.54101474821E+02  0.11052472055E+03  0.21271608061E+03  0.17300000000E+03 0.  1.
</event>
<event>
 4    1  0.6069433E+000  0.1000000E+03  0.7546771E-02  0.1280296E+00
         21   -1    0    0  501  502  0.00000000000E+00  0.00000000000E+00  0.16419126616E+04  0.16419126616E+04  0.00000000000E+00 0. -1.
         21   -1    0    0  502  503 -0.00000000000E+00 -0.00000000000E+00 -0.27298128592E+02  0.27298128592E+02  0.00000000000E+00 0. -1.
          6    1    1    2  501    0  0.11751993522E+03  0.32796864433E+02  0.81661412368E+03  0.84360784520E+03  0.17300000000E+03 0. -1.
         -6    1    1    2    0  503 -0.11751993522E+03 -0.32796864433E+02  0.79800040935E+03  0.82560294501E+03  0.17300000000E+03 0. -1.
</event>
<event>
 4    1  0.6069433E+000  0.1000000E+03  0.7546771E-02  0.1280296E+00
         21   -1    0    0  503  502  0.00000000000E+00  0.00000000000E+00  0.12402887828E+03  0.12402887828E+03  0.00000000000E+00 0.  1.
         21   -1    0    0  501  503 -0.00000000000E+00 -0.00000000000E+00 -0.85315617051E+03  0.85315617051E+03  0.00000000000E+00 0. -1.
          6    1    1    2  501    0  0.57689749966E+02 -0.29709173403E+02 -0.76668655144E+03  0.78863680512E+03  0.17300000000E+03 0. -1.
         -6    1    1    2    0  502 -0.57689749966E+02  0.29709173403E+02  0.37559259218E+02  0.18854824366E+03  0.17300000000E+03 0.  1.
</event>
<event>
 4    1  0.6069433E+000  0.1000000E+03  0.7546771E-02  0.1280296E+00
         21   -1    0    0  503  502  0.00000000000E+00  0.00000000000E+00  0.21894897676E+03  0.21894897676E+03  0.00000000000E+00 0.  1.
         21   -1    0    0  501  503 -0.00000000000E+00 -0.00000000000E+00 -0.32459659187E+03  0.32459659187E+03  0.00000000000E+00 0. -1.
          6    1    1    2  501    0 -0.67426601368E+02 -0.50665984971E+02 -0.24087619138E+03  0.30832406357E+03  0.17300000000E+03 0. -1.
         -6    1    1    2    0  502  0.67426601368E+02  0.50665984971E+02  0.13522857626E+03  0.23522150506E+03  0.17300000000E+03 0.  1.
</event>
<event>
 4    1  0.6069433E+000  0.1000000E+03  0.7546771E-02  0.1280296E+00
         21   -1    0    0  503  502  0.00000000000E+00  0.00000000000E+00  0.45070574200E+02  0.45070574200E+02  0.00000000000E+00 0. -1.
         21   -1    0    0  501  503 -0.00000000000E+00 -0.00000000000E+00 -0.12165745815E+04  0.12165745815E+04  0.00000000000E+00 0. -1.
          6    1    1    2  501    0 -0.20032979310E+02 -0.42115766323E+02 -0.99188534726E+03  0.10079387879E+04  0.17300000000E+03 0. -1.
         -6    1    1    2    0  502  0.20032979310E+02  0.42115766323E+02 -0.17961866006E+03  0.25370636782E+03  0.17300000000E+03 0. -1.
</event>
<event>
 4    1  0.6069433E+000  0.1000000E+03  0.7546771E-02  0.1280296E+00
         21   -1    0    0  503  502  0.00000000000E+00  0.00000000000E+00  0.71682439445E+03  0.71682439445E+03  0.00000000000E+00 0. -1.
         21   -1    0    0  501  503 -0.00000000000E+00 -0.00000000000E+00 -0.86791157484E+02  0.86791157484E+02  0.00000000000E+00 0. -1.
          6    1    1    2  501    0  0.14494119966E+03 -0.95412987319E+02  0.23991540101E+03  0.34292854817E+03  0.17300000000E+03 0. -1.
         -6    1    1    2    0  502 -0.14494119966E+03  0.95412987319E+02  0.39011783595E+03  0.46068700376E+03  0.17300000000E+03 0. -1.
</event>
<event>
 4    1  0.6069433E+000  0.1000000E+03  0.7546771E-02  0.1280296E+00
         21   -1    0    0  503  502  0.00000000000E+00  0.00000000000E+00  0.26224591200E+03  0.26224591200E+03  0.00000000000E+00 0. -1.
         21   -1    0    0  501  503 -0.00000000000E+00 -0.00000000000E+00 -0.28680729844E+03  0.28680729844E+03  0.00000000000E+00 0. -1.
          6    1    1    2  501    0  0.13134404486E+03  0.37706179976E+02 -0.17557609587E+03  0.28183147370E+03  0.17300000000E+03 0. -1.
         -6    1    1    2    0  502 -0.13134404486E+03 -0.37706179976E+02  0.15101470942E+03  0.26722173675E+03  0.17300000000E+03 0. -1.
</event>
<event>
 4    1  0.6069433E+000  0.1000000E+03  0.7546771E-02  0.1280296E+00
         21   -1    0    0  503  502  0.00000000000E+00  0.00000000000E+00  0.23737145656E+03  0.23737145656E+03  0.00000000000E+00 0. -1.
         21   -1    0    0  501  503 -0.00000000000E+00 -0.00000000000E+00 -0.19301652599E+03  0.19301652599E+03  0.00000000000E+00 0. -1.
          6    1    1    2  501    0 -0.81151743887E+02 -0.56706881122E+02  0.10061007755E+03  0.22327710050E+03  0.17300000000E+03 0. -1.
         -6    1    1    2    0  502  0.81151743887E+02  0.56706881122E+02 -0.56255146987E+02  0.20711088205E+03  0.17300000000E+03 0. -1.
</event>
<event>
 4    1  0.6069433E+000  0.1000000E+03  0.7546771E-02  0.1280296E+00
         21   -1    0    0  501  502  0.00000000000E+00  0.00000000000E+00  0.25872807657E+02  0.25872807657E+02  0.00000000000E+00 0. -1.
         21   -1    0    0  502  503 -0.00000000000E+00 -0.00000000000E+00 -0.20943784734E+04  0.20943784734E+04  0.00000000000E+00 0. -1.
          6    1    1    2  501    0  0.14490161168E+03 -0.29435594050E+02 -0.81135395142E+03  0.84266669909E+03  0.17300000000E+03 0. -1.
         -6    1    1    2    0  503 -0.14490161168E+03  0.29435594050E+02 -0.12571517144E+04  0.12775845820E+04  0.17300000000E+03 0. -1.
</event>
<event>
 4    1  0.6069433E+000  0.1000000E+03  0.7546771E-02  0.1280296E+00
         21   -1    0    0  501  502  0.00000000000E+00  0.00000000000E+00  0.27170831762E+03  0.27170831762E+03  0.00000000000E+00 0. -1.
         21   -1    0    0  502  503 -0.00000000000E+00 -0.00000000000E+00 -0.24520756394E+03  0.24520756394E+03  0.00000000000E+00 0. -1.
          6    1    1    2  501    0 -0.18867735086E+02 -0.12368482998E+03  0.15850001278E+03  0.26590446151E+03  0.17300000000E+03 0. -1.
         -6    1    1    2    0  503  0.18867735086E+02  0.12368482998E+03 -0.13199925910E+03  0.25101142006E+03  0.17300000000E+03 0. -1.
</event>
<event>
 4    1  0.6069433E+000  0.1000000E+03  0.7546771E-02  0.1280296E+00
         21   -1    0    0  501  502  0.00000000000E+00  0.00000000000E+00  0.17004885184E+03  0.17004885184E+03  0.00000000000E+00 0. -1.
         21   -1    0    0  502  503 -0.00000000000E+00 -0.00000000000E+00 -0.25121877210E+03  0.25121877210E+03  0.00000000000E+00 0. -1.
          6    1    1    2  501    0  0.10557930585E+03 -0.21735152531E+02 -0.57107626185E+01  0.20391424543E+03  0.17300000000E+03 0. -1.
         -6    1    1    2    0  503 -0.10557930585E+03  0.21735152531E+02 -0.75459157636E+02  0.21735337851E+03  0.17300000000E+03 0. -1.
</event>
<event>
 4    1  0.6069433E+000  0.1000000E+03  0.7546771E-02  0.1280296E+00
         21   -1    0    0  501  502  0.00000000000E+00  0.00000000000E+00  0.96923529415E+03  0.96923529415E+03  0.00000000000E+00 0. -1.
         21   -1    0    0  502  503 -0.00000000000E+00 -0.00000000000E+00 -0.61814122640E+02  0.61814122640E+02  0.00000000000E+00 0. -1.
          6    1    1    2  501    0  0.97698698737E+02  0.12950618536E+03  0.58124263152E+03  0.62776499144E+03  0.17300000000E+03 0. -1.
         -6    1    1    2    0  503 -0.97698698737E+02 -0.12950618536E+03  0.32617853999E+03  0.40328442535E+03  0.17300000000E+03 0. -1.
</event>
<event>
 4    1  0.6069433E+000  0.1000000E+03  0.7546771E-02  0.1280296E+00
         21   -1    0    0  501  502  0.00000000000E+00  0.00000000000E+00  0.43005652274E+02  0.43005652274E+02  0.00000000000E+00 0. -1.
         21   -1    0    0  502  503 -0.00000000000E+00 -0.00000000000E+00 -0.82799503086E+03  0.82799503086E+03  0.00000000000E+00 0. -1.
          6    1    1    2  501    0 -0.48251543188E+02  0.27004916332E+02 -0.27431921999E+03  0.32899469810E+03  0.17300000000E+03 0. -1.
         -6    1    1    2    0  503  0.48251543188E+02 -0.27004916332E+02 -0.51067015860E+03  0.54200598503E+03  0.17300000000E+03 0. -1.
</event>
<event>
 4    1  0.6069433E+000  0.1000000E+03  0.7546771E-02  0.1280296E+00
         21   -1    0    0  501  502  0.00000000000E+00  0.00000000000E+00  0.22907716961E+03  0.22907716961E+03  0.00000000000E+00 0. -1.
         21   -1    0    0  502  503 -0.00000000000E+00 -0.00000000000E+00 -0.33399083975E+03  0.33399083975E+03  0.00000000000E+00 0. -1.
          6    1    1    2  501    0  0.16452660428E+03 -0.13457658962E+03 -0.14362275905E+02  0.27443603437E+03  0.17300000000E+03 0. -1.
         -6    1    1    2    0  503 -0.16452660428E+03  0.13457658962E+03 -0.90551394231E+02  0.28863197500E+03  0.17300000000E+03 0. -1.
</event>
<event>
 4    1  0.6069433E+000  0.1000000E+03  0.7546771E-02  0.1280296E+00
         21   -1    0    0  501  502  0.00000000000E+00  0.00000000000E+00  0.19644013109E+04  0.19644013109E+04  0.00000000000E+00 0. -1.
         21   -1    0    0  502  503 -0.00000000000E+00 -0.00000000000E+00 -0.30462695496E+02  0.30462695496E+02  0.00000000000E+00 0. -1.
          6    1    1    2  501    0 -0.29108994813E+02  0.57800411879E+02  0.16209291242E+04  0.16314191512E+04  0.17300000000E+03 0. -1.
         -6    1    1    2    0  503  0.29108994813E+02 -0.57800411879E+02  0.31300949121E+03  0.36344485521E+03  0.17300000000E+03 0. -1.
</event>
<event>
 4    1  0.6069433E+000  0.1000000E+03  0.7546771E-02  0.1280296E+00
         21   -1    0    0  501  502  0.00000000000E+00  0.00000000000E+00  0.75560147809E+03  0.75560147809E+03  0.00000000000E+00 0. -1.
         21   -1    0    0  502  503 -0.00000000000E+00 -0.00000000000E+00 -0.88567349064E+02  0.88567349064E+02  0.00000000000E+00 0. -1.
          6    1    1    2  501    0 -0.13569763685E+03  0.12750106631E+03  0.41214384873E+03  0.48421268324E+03  0.17300000000E+03 0. -1.
         -6    1    1    2    0  503  0.13569763685E+03 -0.12750106631E+03  0.25489028029E+03  0.35995614392E+03  0.17300000000E+03 0. -1.
</event>
<event>
 4    1  0.6069433E+000  0.1000000E+03  0.7546771E-02  0.1280296E+00
         21   -1    0    0  503  502  0.00000000000E+00  0.00000000000E+00  0.66543445806E+02  0.66543445806E+02  0.00000000000E+00 0. -1.
         21   -1    0    0  501  503 -0.00000000000E+00 -0.00000000000E+00 -0.72047191889E+03  0.72047191889E+03  0.00000000000E+00 0.  1.
          6    1    1    2  501    0 -0.11751096256E+03 -0.54265104155E+02 -0.39076182164E+03  0.44651688557E+03  0.17300000000E+03 0.  1.
         -6    1    1    2    0  502  0.11751096256E+03  0.54265104155E+02 -0.26316665145E+03  0.34049847912E+03  0.17300000000E+03 0. -1.
</event>
<event>
 4    1  0.6069433E+000  0.1000000E+03  0.7546771E-02  0.1280296E+00
         21   -1    0    0  503  502  0.00000000000E+00  0.00000000000E+00  0.42733885482E+03  0.42733885482E+03  0.00000000000E+00 0. -1.
         21   -1    0    0  501  503 -0.00000000000E+00 -0.00000000000E+00 -0.17080026873E+03  0.17080026873E+03  0.00000000000E+00 0.  1.
          6    1    1    2  501    0  0.62782337701E+02  0.23714374733E+02 -0.89096450375E+02  0.20584258783E+03  0.17300000000E+03 0.  1.
         -6    1    1    2    0  502 -0.62782337701E+02 -0.23714374733E+02  0.34563503647E+03  0.39229653571E+03  0.17300000000E+03 0. -1.
</event>
<event>
 4    1  0.6069433E+000  0.1000000E+03  0.7546771E-02  0.1280296E+00
         21   -1    0    0  503  502  0.00000000000E+00  0.00000000000E+00  0.66899694882E+02  0.66899694882E+02  0.00000000000E+00 0. -1.
         21   -1    0    0  501  503 -0.00000000000E+00 -0.00000000000E+00 -0.56619656775E+03  0.56619656775E+03  0.00000000000E+00 0.  1.
          6    1    1    2  501    0 -0.88288970388E+02 -0.12217628779E+02 -0.25334479608E+03  0.31946329749E+03  0.17300000000E+03 0.  1.
         -6    1    1    2    0  502  0.88288970388E+02  0.12217628779E+02 -0.24595207679E+03  0.31363296514E+03  0.17300000000E+03 0. -1.
</event>
<event>
 4    1  0.6069433E+000  0.1000000E+03  0.7546771E-02  0.1280296E+00
         21   -1    0    0  503  502  0.00000000000E+00  0.00000000000E+00  0.40963838858E+03  0.40963838858E+03  0.00000000000E+00 0. -1.
         21   -1    0    0  501  503 -0.00000000000E+00 -0.00000000000E+00 -0.15359954226E+03  0.15359954226E+03  0.00000000000E+00 0.  1.
          6    1    1    2  501    0  0.72188625933E+02  0.41548024168E+02 -0.53199032716E+02  0.19923998873E+03  0.17300000000E+03 0.  1.
         -6    1    1    2    0  502 -0.72188625933E+02 -0.41548024168E+02  0.30923787904E+03  0.36399794211E+03  0.17300000000E+03 0. -1.
</event>
<event>
 4    1  0.6069433E+000  0.1000000E+03  0.7546771E-02  0.1280296E+00
         21   -1    0    0  503  502  0.00000000000E+00  0.00000000000E+00  0.40189450375E+03  0.40189450375E+03  0.00000000000E+00 0. -1.
         21   -1    0    0  501  503 -0.00000000000E+00 -0.00000000000E+00 -0.83820491797E+03  0.83820491797E+03  0.00000000000E+00 0. -1.
          6    1    1    2  501    0 -0.94135336115E+02 -0.39318808588E+02 -0.79989968501E+03  0.82472779528E+03  0.17300000000E+03 0. -1.
         -6    1    1    2    0  502  0.94135336115E+02  0.39318808588E+02  0.36358927080E+03  0.41537162644E+03  0.17300000000E+03 0. -1.
</event>
<event>
 4    1  0.6069433E+000  0.1000000E+03  0.7546771E-02  0.1280296E+00
         21   -1    0    0  501  502  0.00000000000E+00  0.00000000000E+00  0.26250528521E+03  0.26250528521E+03  0.00000000000E+00 0.  1.
         21   -1    0    0  502  503 -0.00000000000E+00 -0.00000000000E+00 -0.21734765295E+03  0.21734765295E+03  0.00000000000E+00 0.  1.
          6    1    1    2  501    0 -0.15124014812E+03 -0.49133984622E+02  0.65643900000E+02  0.24397920496E+03  0.17300000000E+03 0.  1.
         -6    1    1    2    0  503  0.15124014812E+03  0.49133984622E+02 -0.20486267731E+02  0.23587373320E+03  0.17300000000E+03 0.  1.
</event>
<event>
 4    1  0.6069433E+000  0.1000000E+03  0.7546771E-02  0.1280296E+00
         21   -1    0    0  501  502  0.00000000000E+00  0.00000000000E+00  0.73066799222E+03  0.73066799222E+03  0.00000000000E+00 0.  1.
         21   -1    0    0  502  503 -0.00000000000E+00 -0.00000000000E+00 -0.54658958676E+03  0.54658958676E+03  0.00000000000E+00 0.  1.
          6    1    1    2  501    0 -0.27233279870E+02 -0.39319829814E+03  0.55963012397E+03  0.70601800887E+03  0.17300000000E+03 0.  1.
         -6    1    1    2    0  503  0.27233279870E+02  0.39319829814E+03 -0.37555171850E+03  0.57123957011E+03  0.17300000000E+03 0.  1.
</event>
<event>
 4    1  0.6069433E+000  0.1000000E+03  0.7546771E-02  0.1280296E+00
         21   -1    0    0  501  502  0.00000000000E+00  0.00000000000E+00  0.37845610678E+03  0.37845610678E+03  0.00000000000E+00 0.  1.
         21   -1    0    0  502  503 -0.00000000000E+00 -0.00000000000E+00 -0.14105925923E+03  0.14105925923E+03  0.00000000000E+00 0.  1.
          6    1    1    2  501    0  0.84450885292E+02  0.41182671187E+01  0.26226209685E+03  0.32536029197E+03  0.17300000000E+03 0.  1.
         -6    1    1    2    0  503 -0.84450885292E+02 -0.41182671187E+01 -0.24865249291E+02  0.19415507403E+03  0.17300000000E+03 0.  1.
</event>
<event>
 4    1  0.6069433E+000  0.1000000E+03  0.7546771E-02  0.1280296E+00
         21   -1    0    0  503  502  0.00000000000E+00  0.00000000000E+00  0.21848702754E+04  0.21848702754E+04  0.00000000000E+00 0. -1.
         21   -1    0    0  501  503 -0.00000000000E+00 -0.00000000000E+00 -0.23342626817E+02  0.23342626817E+02  0.00000000000E+00 0. -1.
          6    1    1    2  501    0 -0.48548468733E+02  0.93495120438E+02  0.59251283113E+03  0.62617788720E+03  0.17300000000E+03 0. -1.
         -6    1    1    2    0  502  0.48548468733E+02 -0.93495120438E+02  0.15690148174E+04  0.15820350150E+04  0.17300000000E+03 0. -1.
</event>
<event>
 4    1  0.6069433E+000  0.1000000E+03  0.7546771E-02  0.1280296E+00
         21   -1    0    0  503  502  0.00000000000E+00  0.00000000000E+00  0.73305006978E+03  0.73305006978E+03  0.00000000000E+00 0. -1.
         21   -1    0    0  501  503 -0.00000000000E+00 -0.00000000000E+00 -0.14891290395E+03  0.14891290395E+03  0.00000000000E+00 0. -1.
          6    1    1    2  501    0  0.13066023620E+03 -0.24865841164E+03  0.31626007993E+03  0.45700387434E+03  0.17300000000E+03 0. -1.
         -6    1    1    2    0  502 -0.13066023620E+03  0.24865841164E+03  0.26787708589E+03  0.42495909939E+03  0.17300000000E+03 0. -1.
</event>
<event>
 4    1  0.6069433E+000  0.1000000E+03  0.7546771E-02  0.1280296E+00
         21   -1    0    0  503  502  0.00000000000E+00  0.00000000000E+00  0.12626183519E+04  0.12626183519E+04  0.00000000000E+00 0. -1.
         21   -1    0    0  501  503 -0.00000000000E+00 -0.00000000000E+00 -0.98226779890E+02  0.98226779890E+02  0.00000000000E+00 0. -1.
          6    1    1    2  501    0  0.28141404558E+03  0.27616908359E+02  0.35246874724E+03  0.48385925273E+03  0.17300000000E+03 0. -1.
         -6    1    1    2    0  502 -0.28141404558E+03 -0.27616908359E+02  0.81192282481E+03  0.87698587909E+03  0.17300000000E+03 0. -1.
</event>
<event>
 4    1  0.6069433E+000  0.1000000E+03  0.7546771E-02  0.1280296E+00
         21   -1    0    0  503  502  0.00000000000E+00  0.00000000000E+00  0.29331560268E+02  0.29331560268E+02  0.00000000000E+00 0. -1.
         21   -1    0    0  501  503 -0.00000000000E+00 -0.00000000000E+00 -0.10596928345E+04  0.10596928345E+04  0.00000000000E+00 0. -1.
          6    1    1    2  501    0  0.23103830525E+02 -0.14630484079E+02 -0.57738234629E+03  0.60336325033E+03  0.17300000000E+03 0. -1.
         -6    1    1    2    0  502 -0.23103830525E+02  0.14630484079E+02 -0.45297892792E+03  0.48566114441E+03  0.17300000000E+03 0. -1.
</event>
<event>
 4    1  0.6069433E+000  0.1000000E+03  0.7546771E-02  0.1280296E+00
         21   -1    0    0  503  502  0.00000000000E+00  0.00000000000E+00  0.17295294625E+03  0.17295294625E+03  0.00000000000E+00 0. -1.
         21   -1    0    0  501  503 -0.00000000000E+00 -0.00000000000E+00 -0.23327895737E+03  0.23327895737E+03  0.00000000000E+00 0. -1.
          6    1    1    2  501    0  0.65036244656E+02 -0.10562983726E+02 -0.10898563308E+03  0.21482122326E+03  0.17300000000E+03 0.  1.
         -6    1    1    2    0  502 -0.65036244656E+02  0.10562983726E+02  0.48659621958E+02  0.19141068035E+03  0.17300000000E+03 0.  1.
</event>
<event>
 4    1  0.6069433E+000  0.1000000E+03  0.7546771E-02  0.1280296E+00
         21   -1    0    0  503  502  0.00000000000E+00  0.00000000000E+00  0.52228525648E+03  0.52228525648E+03  0.00000000000E+00 0. -1.
         21   -1    0    0  501  503 -0.00000000000E+00 -0.00000000000E+00 -0.12879562410E+03  0.12879562410E+03  0.00000000000E+00 0. -1.
          6    1    1    2  501    0  0.16929293389E+03 -0.93159260093E+02  0.19744406522E+03  0.32596304100E+03  0.17300000000E+03 0.  1.
         -6    1    1    2    0  502 -0.16929293389E+03  0.93159260093E+02  0.19604556716E+03  0.32511783958E+03  0.17300000000E+03 0.  1.
</event>
<event>
 4    1  0.6069433E+000  0.1000000E+03  0.7546771E-02  0.1280296E+00
         21   -1    0    0  503  502  0.00000000000E+00  0.00000000000E+00  0.36155799156E+03  0.36155799156E+03  0.00000000000E+00 0.  1.
         21   -1    0    0  501  503 -0.00000000000E+00 -0.00000000000E+00 -0.14090468638E+03  0.14090468638E+03  0.00000000000E+00 0. -1.
          6    1    1    2  501    0 -0.30247392991E+02  0.12794795217E+03  0.42341617430E+02  0.22137614102E+03  0.17300000000E+03 0. -1.
         -6    1    1    2    0  502  0.30247392991E+02 -0.12794795217E+03  0.17831168776E+03  0.28108653692E+03  0.17300000000E+03 0.  1.
</event>
<event>
 4    1  0.6069433E+000  0.1000000E+03  0.7546771E-02  0.1280296E+00
         21   -1    0    0  503  502  0.00000000000E+00  0.00000000000E+00  0.54710213230E+02  0.54710213230E+02  0.00000000000E+00 0.  1.
         21   -1    0    0  501  503 -0.00000000000E+00 -0.00000000000E+00 -0.80417210227E+03  0.80417210227E+03  0.00000000000E+00 0. -1.
          6    1    1    2  501    0 -0.43861669555E+02 -0.36560809179E+02 -0.58756704460E+03  0.61516223122E+03  0.17300000000E+03 0. -1.
         -6    1    1    2    0  502  0.43861669555E+02  0.36560809179E+02 -0.16189484444E+03  0.24372008428E+03  0.17300000000E+03 0.  1.
</event>
<event>
 4    1  0.6069433E+000  0.1000000E+03  0.7546771E-02  0.1280296E+00
         21   -1    0    0  503  502  0.00000000000E+00  0.00000000000E+00  0.56858246130E+03  0.56858246130E+03  0.00000000000E+00 0.  1.
         21   -1    0    0  501  503 -0.00000000000E+00 -0.00000000000E+00 -0.67859004449E+02  0.67859004449E+02  0.00000000000E+00 0. -1.
          6    1    1    2  501    0  0.76303830070E+02  0.51665452156E+02  0.22968808588E+03  0.30195564281E+03  0.17300000000E+03 0. -1.
         -6    1    1    2    0  502 -0.76303830070E+02 -0.51665452156E+02  0.27103537098E+03  0.33448582294E+03  0.17300000000E+03 0.  1.
</event>
<event>
 4    1  0.6069433E+000  0.1000000E+03  0.7546771E-02  0.1280296E+00
         21   -1    0    0  501  502  0.00000000000E+00  0.00000000000E+00  0.78015263787E+02  0.78015263787E+02  0.00000000000E+00 0.  1.
         21   -1    0    0  502  503 -0.00000000000E+00 -0.00000000000E+00 -0.70678866775E+03  0.70678866775E+03  0.00000000000E+00 0.  1.
          6    1    1    2  501    0 -0.45938600530E+02 -0.78788517298E+01 -0.60741173488E+02  0.18918488703E+03  0.17300000000E+03 0.  1.
         -6    1    1    2    0  503  0.45938600530E+02  0.78788517298E+01 -0.56803223048E+03  0.59561904451E+03  0.17300000000E+03 0.  1.
</event>
<event>
 4    1  0.6069433E+000  0.1000000E+03  0.7546771E-02  0.1280296E+00
         21   -1    0    0  501  502  0.00000000000E+00  0.00000000000E+00  0.59827671707E+03  0.59827671707E+03  0.00000000000E+00 0.  1.
         21   -1    0    0  502  503 -0.00000000000E+00 -0.00000000000E+00 -0.11517616942E+03  0.11517616942E+03  0.00000000000E+00 0.  1.
          6    1    1    2  501    0 -0.40085346297E+02  0.95837501020E+02  0.46970210948E+03  0.51121495796E+03  0.17300000000E+03 0.  1.
         -6    1    1    2    0  503  0.40085346297E+02 -0.95837501020E+02  0.13398438167E+02  0.20223792853E+03  0.17300000000E+03 0.  1.
</event>
<event>
 4    1  0.6069433E+000  0.1000000E+03  0.7546771E-02  0.1280296E+00
         21   -1    0    0  503  502  0.00000000000E+00  0.00000000000E+00  0.47237378831E+03  0.47237378831E+03  0.00000000000E+00 0. -1.
         21   -1    0    0  501  503 -0.00000000000E+00 -0.00000000000E+00 -0.16326950619E+03  0.16326950619E+03  0.00000000000E+00 0.  1.
          6    1    1    2  501    0 -0.79823944492E+02 -0.10025934390E+03 -0.46200805392E+02  0.22019834825E+03  0.17300000000E+03 0.  1.
         -6    1    1    2    0  502  0.79823944492E+02  0.10025934390E+03  0.35530508751E+03  0.41544494625E+03  0.17300000000E+03 0. -1.
</event>
<event>
 4    1  0.6069433E+000  0.1000000E+03  0.7546771E-02  0.1280296E+00
         21   -1    0    0  503  502  0.00000000000E+00  0.00000000000E+00  0.92588402961E+03  0.92588402961E+03  0.00000000000E+00 0. -1.
         21   -1    0    0  501  503 -0.00000000000E+00 -0.00000000000E+00 -0.95671643484E+02  0.95671643484E+02  0.00000000000E+00 0. -1.
          6    1    1    2  501    0 -0.73947897161E+02  0.10173827575E+02  0.19714276693E+02  0.18944511334E+03  0.17300000000E+03 0. -1.
         -6    1    1    2    0  502  0.73947897161E+02 -0.10173827575E+02  0.81049810944E+03  0.83211055976E+03  0.17300000000E+03 0. -1.
</event>
<event>
 4    1  0.6069433E+000  0.1000000E+03  0.7546771E-02  0.1280296E+00
         21   -1    0    0  503  502  0.00000000000E+00  0.00000000000E+00  0.79872958262E+03  0.79872958262E+03  0.00000000000E+00 0. -1.
         21   -1    0    0  501  503 -0.00000000000E+00 -0.00000000000E+00 -0.51476329112E+02  0.51476329112E+02  0.00000000000E+00 0. -1.
          6    1    1    2  501    0  0.32565319906E+02  0.89567936665E+02  0.27746812729E+03  0.34058842758E+03  0.17300000000E+03 0. -1.
         -6    1    1    2    0  502 -0.32565319906E+02 -0.89567936665E+02  0.46978512622E+03  0.50961748415E+03  0.17300000000E+03 0. -1.
</event>
<event>
 4    1  0.6069433E+000  0.1000000E+03  0.7546771E-02  0.1280296E+00
         21   -1    0    0  503  502  0.00000000000E+00  0.00000000000E+00  0.20172607113E+03  0.20172607113E+03  0.00000000000E+00 0. -1.
         21   -1    0    0  501  503 -0.00000000000E+00 -0.00000000000E+00 -0.19174259850E+03  0.19174259850E+03  0.00000000000E+00 0. -1.
          6    1    1    2  501    0  0.87280115722E+02 -0.22959784050E+02  0.29606789681E+02  0.19735889207E+03  0.17300000000E+03 0. -1.
         -6    1    1    2    0  502 -0.87280115722E+02  0.22959784050E+02 -0.19623317048E+02  0.19610977756E+03  0.17300000000E+03 0. -1.
</event>
<event>
 4    1  0.6069433E+000  0.1000000E+03  0.7546771E-02  0.1280296E+00
         21   -1    0    0  503  502  0.00000000000E+00  0.00000000000E+00  0.19187003199E+03  0.19187003199E+03  0.00000000000E+00 0. -1.
         21   -1    0    0  501  503 -0.00000000000E+00 -0.00000000000E+00 -0.21329660161E+03  0.21329660161E+03  0.00000000000E+00 0. -1.
          6    1    1    2  501    0  0.10928962930E+02 -0.58563882218E+02 -0.97130531072E+02  0.20715335044E+03  0.17300000000E+03 0. -1.
         -6    1    1    2    0  502 -0.10928962930E+02  0.58563882218E+02  0.75703961454E+02  0.19801328317E+03  0.17300000000E+03 0. -1.
</event>
<event>
 4    1  0.6069433E+000  0.1000000E+03  0.7546771E-02  0.1280296E+00
         21   -1    0    0  503  502  0.00000000000E+00  0.00000000000E+00  0.14590538421E+03  0.14590538421E+03  0.00000000000E+00 0. -1.
         21   -1    0    0  501  503 -0.00000000000E+00 -0.00000000000E+00 -0.21062848604E+03  0.21062848604E+03  0.00000000000E+00 0. -1.
          6    1    1    2  501    0  0.27139954974E+02 -0.64598499153E+01 -0.37397329357E+02  0.17918110129E+03  0.17300000000E+03 0. -1.
         -6    1    1    2    0  502 -0.27139954974E+02  0.64598499153E+01 -0.27325772469E+02  0.17735276896E+03  0.17300000000E+03 0. -1.
</event>
<event>
 4    1  0.6069433E+000  0.1000000E+03  0.7546771E-02  0.1280296E+00
         21   -1    0    0  503  502  0.00000000000E+00  0.00000000000E+00  0.41611731548E+03  0.41611731548E+03  0.00000000000E+00 0. -1.
         21   -1    0    0  501  503 -0.00000000000E+00 -0.00000000000E+00 -0.13087034331E+03  0.13087034331E+03  0.00000000000E+00 0. -1.
          6    1    1    2  501    0 -0.90993670104E+02 -0.86300775375E+02  0.32677668286E+02  0.21615851090E+03  0.17300000000E+03 0. -1.
         -6    1    1    2    0  502  0.90993670104E+02  0.86300775375E+02  0.25256930389E+03  0.33082914789E+03  0.17300000000E+03 0. -1.
</event>
<event>
 4    1  0.6069433E+000  0.1000000E+03  0.7546771E-02  0.1280296E+00
         21   -1    0    0  501  502  0.00000000000E+00  0.00000000000E+00  0.39282462073E+03  0.39282462073E+03  0.00000000000E+00 0. -1.
         21   -1    0    0  502  503 -0.00000000000E+00 -0.00000000000E+00 -0.16814766741E+03  0.16814766741E+03  0.00000000000E+00 0. -1.
          6    1    1    2  501    0  0.22312363087E+02  0.12903026735E+03  0.26268008237E+03  0.34069998108E+03  0.17300000000E+03 0. -1.
         -6    1    1    2    0  503 -0.22312363087E+02 -0.12903026735E+03 -0.38003129048E+02  0.22027230706E+03  0.17300000000E+03 0. -1.
</event>
<event>
 4    1  0.6069433E+000  0.1000000E+03  0.7546771E-02  0.1280296E+00
         21   -1    0    0  503  502  0.00000000000E+00  0.00000000000E+00  0.12302249105E+04  0.12302249105E+04  0.00000000000E+00 0.  1.
         21   -1    0    0  501  503 -0.00000000000E+00 -0.00000000000E+00 -0.48784027043E+02  0.48784027043E+02  0.00000000000E+00 0.  1.
          6    1    1    2  501    0 -0.48435884230E+02  0.10732197827E+03  0.25823816982E+03  0.33238530992E+03  0.17300000000E+03 0.  1.
         -6    1    1    2    0  502  0.48435884230E+02 -0.10732197827E+03  0.92320271368E+03  0.94662362766E+03  0.17300000000E+03 0.  1.
</event>
<event>
 4    1  0.6069433E+000  0.1000000E+03  0.7546771E-02  0.1280296E+00
         21   -1    0    0  503  502  0.00000000000E+00  0.00000000000E+00  0.67784314917E+03  0.67784314917E+03  0.00000000000E+00 0. -1.
         21   -1    0    0  501  503 -0.00000000000E+00 -0.00000000000E+00 -0.53698994324E+02  0.53698994324E+02  0.00000000000E+00 0. -1.
          6    1    1    2  501    0 -0.78672406017E+02 -0.12840371166E+02  0.29139920738E+03  0.34813319385E+03  0.17300000000E+03 0. -1.
         -6    1    1    2    0  502  0.78672406017E+02  0.12840371166E+02  0.33274494746E+03  0.38340894964E+03  0.17300000000E+03 0. -1.
</event>
<event>
 4    1  0.6069433E+000  0.1000000E+03  0.7546771E-02  0.1280296E+00
         21   -1    0    0  501  502  0.00000000000E+00  0.00000000000E+00  0.51710658673E+02  0.51710658673E+02  0.00000000000E+00 0.  1.
         21   -1    0    0  502  503 -0.00000000000E+00 -0.00000000000E+00 -0.98243752898E+03  0.98243752898E+03  0.00000000000E+00 0. -1.
          6    1    1    2  501    0  0.13490510897E+03 -0.32039115855E+01 -0.34696002839E+03  0.41051177179E+03  0.17300000000E+03 0.  1.
         -6    1    1    2    0  503 -0.13490510897E+03  0.32039115855E+01 -0.58376684192E+03  0.62363641587E+03  0.17300000000E+03 0. -1.
</event>
<event>
 4    1  0.6069433E+000  0.1000000E+03  0.7546771E-02  0.1280296E+00
         21   -1    0    0  501  502  0.00000000000E+00  0.00000000000E+00  0.24197102529E+03  0.24197102529E+03  0.00000000000E+00 0.  1.
         21   -1    0    0  502  503 -0.00000000000E+00 -0.00000000000E+00 -0.18544043389E+03  0.18544043389E+03  0.00000000000E+00 0. -1.
          6    1    1    2  501    0  0.19053426459E+02 -0.10591925542E+03  0.86747085881E+02  0.22144068876E+03  0.17300000000E+03 0.  1.
         -6    1    1    2    0  503 -0.19053426459E+02  0.10591925542E+03 -0.30216494482E+02  0.20597077042E+03  0.17300000000E+03 0. -1.
</event>
<event>
 4    1  0.6069433E+000  0.1000000E+03  0.7546771E-02  0.1280296E+00
         21   -1    0    0  501  502  0.00000000000E+00  0.00000000000E+00  0.12767952240E+03  0.12767952240E+03  0.00000000000E+00 0. -1.
         21   -1    0    0  502  503 -0.00000000000E+00 -0.00000000000E+00 -0.56035893648E+03  0.56035893648E+03  0.00000000000E+00 0. -1.
          6    1    1    2  501    0 -0.35552557525E+02 -0.24628539967E+02  0.40073324583E+02  0.18277149852E+03  0.17300000000E+03 0. -1.
         -6    1    1    2    0  503  0.35552557525E+02  0.24628539967E+02 -0.47275273865E+03  0.50526696036E+03  0.17300000000E+03 0. -1.
</event>
<event>
 4    1  0.6069433E+000  0.1000000E+03  0.7546771E-02  0.1280296E+00
         21   -1    0    0  503  502  0.00000000000E+00  0.00000000000E+00  0.38274289699E+03  0.38274289699E+03  0.00000000000E+00 0. -1.
         21   -1    0    0  501  503 -0.00000000000E+00 -0.00000000000E+00 -0.11220869946E+03  0.11220869946E+03  0.00000000000E+00 0.  1.
          6    1    1    2  501    0  0.11200629896E+03  0.19383036387E+02  0.12350773894E+03  0.24104828289E+03  0.17300000000E+03 0.  1.
         -6    1    1    2    0  502 -0.11200629896E+03 -0.19383036387E+02  0.14702645859E+03  0.25390331355E+03  0.17300000000E+03 0. -1.
</event>
<event>
 4    1  0.6069433E+000  0.1000000E+03  0.7546771E-02  0.1280296E+00
         21   -1    0    0  503  502  0.00000000000E+00  0.00000000000E+00  0.16533077220E+03  0.16533077220E+03  0.00000000000E+00 0. -1.
         21   -1    0    0  501  503 -0.00000000000E+00 -0.00000000000E+00 -0.72342062374E+03  0.72342062374E+03  0.00000000000E+00 0.  1.
          6    1    1    2  501    0  0.14211501185E+03  0.26340815273E+03 -0.29151326262E+03  0.45220516782E+03  0.17300000000E+03 0.  1.
         -6    1    1    2    0  502 -0.14211501185E+03 -0.26340815273E+03 -0.26657658892E+03  0.43654622811E+03  0.17300000000E+03 0. -1.
</event>
<event>
 4    1  0.6069433E+000  0.1000000E+03  0.7546771E-02  0.1280296E+00
         21   -1    0    0  503  502  0.00000000000E+00  0.00000000000E+00  0.20595814793E+04  0.20595814793E+04  0.00000000000E+00 0. -1.
         21   -1    0    0  501  503 -0.00000000000E+00 -0.00000000000E+00 -0.23023651059E+02  0.23023651059E+02  0.00000000000E+00 0.  1.
          6    1    1    2  501    0  0.63703633601E+02  0.92496025583E+02  0.68435248130E+03  0.71475939052E+03  0.17300000000E+03 0.  1.
         -6    1    1    2    0  502 -0.63703633601E+02 -0.92496025583E+02  0.13522053469E+04  0.13678457398E+04  0.17300000000E+03 0. -1.
</event>
<event>
 4    1  0.6069433E+000  0.1000000E+03  0.7546771E-02  0.1280296E+00
         21   -1    0    0  501  502  0.00000000000E+00  0.00000000000E+00  0.11290740724E+03  0.11290740724E+03  0.00000000000E+00 0. -1.
         21   -1    0    0  502  503 -0.00000000000E+00 -0.00000000000E+00 -0.52188262898E+03  0.52188262898E+03  0.00000000000E+00 0. -1.
          6    1    1    2  501    0  0.14941470556E+03  0.15258941917E+02 -0.99576363572E+02  0.24980400663E+03  0.17300000000E+03 0. -1.
         -6    1    1    2    0  503 -0.14941470556E+03 -0.15258941917E+02 -0.30939885817E+03  0.38498602960E+03  0.17300000000E+03 0. -1.
</event>
<event>
 4    1  0.6069433E+000  0.1000000E+03  0.7546771E-02  0.1280296E+00
         21   -1    0    0  501  502  0.00000000000E+00  0.00000000000E+00  0.17074566612E+03  0.17074566612E+03  0.00000000000E+00 0. -1.
         21   -1    0    0  502  503 -0.00000000000E+00 -0.00000000000E+00 -0.21717700872E+03  0.21717700872E+03  0.00000000000E+00 0. -1.
          6    1    1    2  501    0 -0.83480470551E+02 -0.12393371415E+02 -0.17657708259E+02  0.19329609225E+03  0.17300000000E+03 0. -1.
         -6    1    1    2    0  503  0.83480470551E+02  0.12393371415E+02 -0.28773634337E+02  0.19462658259E+03  0.17300000000E+03 0. -1.
</event>
<event>
 4    1  0.6069433E+000  0.1000000E+03  0.7546771E-02  0.1280296E+00
         21   -1    0    0  503  502  0.00000000000E+00  0.00000000000E+00  0.24279511982E+04  0.24279511982E+04  0.00000000000E+00 0.  1.
         21   -1    0    0  501  503 -0.00000000000E+00 -0.00000000000E+00 -0.14958061960E+02  0.14958061960E+02  0.00000000000E+00 0.  1.
          6    1    1    2  501    0  0.66928819703E+02  0.39817470346E+02  0.10912075009E+04  0.11075774049E+04  0.17300000000E+03 0.  1.
         -6    1    1    2    0  502 -0.66928819703E+02 -0.39817470346E+02  0.13217856354E+04  0.13353318553E+04  0.17300000000E+03 0.  1.
</event>
<event>
 4    1  0.6069433E+000  0.1000000E+03  0.7546771E-02  0.1280296E+00
         21   -1    0    0  503  502  0.00000000000E+00  0.00000000000E+00  0.70325228442E+03  0.70325228442E+03  0.00000000000E+00 0.  1.
         21   -1    0    0  501  503 -0.00000000000E+00 -0.00000000000E+00 -0.91206964206E+02  0.91206964206E+02  0.00000000000E+00 0.  1.
          6    1    1    2  501    0  0.18686212406E+02  0.32674058762E+02  0.21981843335E+02  0.17840675460E+03  0.17300000000E+03 0.  1.
         -6    1    1    2    0  502 -0.18686212406E+02 -0.32674058762E+02  0.59006347688E+03  0.61605249402E+03  0.17300000000E+03 0.  1.
</event>
<event>
 4    1  0.6069433E+000  0.1000000E+03  0.7546771E-02  0.1280296E+00
         21   -1    0    0  503  502  0.00000000000E+00  0.00000000000E+00  0.81511944000E+03  0.81511944000E+03  0.00000000000E+00 0.  1.
         21   -1    0    0  501  503 -0.00000000000E+00 -0.00000000000E+00 -0.45000912327E+02  0.45000912327E+02  0.00000000000E+00 0.  1.
          6    1    1    2  501    0 -0.74464746049E+02 -0.30262287695E+02  0.34673369420E+03  0.39574494204E+03  0.17300000000E+03 0.  1.
         -6    1    1    2    0  502  0.74464746049E+02  0.30262287695E+02  0.42338483348E+03  0.46437541029E+03  0.17300000000E+03 0.  1.
</event>
<event>
 4    1  0.6069433E+000  0.1000000E+03  0.7546771E-02  0.1280296E+00
         21   -1    0    0  503  502  0.00000000000E+00  0.00000000000E+00  0.34637272013E+03  0.34637272013E+03  0.00000000000E+00 0. -1.
         21   -1    0    0  501  503 -0.00000000000E+00 -0.00000000000E+00 -0.14810362969E+03  0.14810362969E+03  0.00000000000E+00 0.  1.
          6    1    1    2  501    0 -0.11048026538E+03  0.91807803094E+02  0.69530517794E+02  0.23536791339E+03  0.17300000000E+03 0.  1.
         -6    1    1    2    0  502  0.11048026538E+03 -0.91807803094E+02  0.12873857265E+03  0.25910843644E+03  0.17300000000E+03 0. -1.
</event>
<event>
 4    1  0.6069433E+000  0.1000000E+03  0.7546771E-02  0.1280296E+00
         21   -1    0    0  503  502  0.00000000000E+00  0.00000000000E+00  0.10396219220E+04  0.10396219220E+04  0.00000000000E+00 0. -1.
         21   -1    0    0  501  503 -0.00000000000E+00 -0.00000000000E+00 -0.40594294921E+02  0.40594294921E+02  0.00000000000E+00 0.  1.
          6    1    1    2  501    0 -0.61305030258E+02 -0.43419724660E+02  0.28543592102E+03  0.34212021898E+03  0.17300000000E+03 0.  1.
         -6    1    1    2    0  502  0.61305030258E+02  0.43419724660E+02  0.71359170609E+03  0.73809599797E+03  0.17300000000E+03 0. -1.
</event>
<event>
 4    1  0.6069433E+000  0.1000000E+03  0.7546771E-02  0.1280296E+00
         21   -1    0    0  503  502  0.00000000000E+00  0.00000000000E+00  0.15068926511E+03  0.15068926511E+03  0.00000000000E+00 0.  1.
         21   -1    0    0  501  503 -0.00000000000E+00 -0.00000000000E+00 -0.41723952793E+03  0.41723952793E+03  0.00000000000E+00 0.  1.
          6    1    1    2  501    0 -0.67247689584E+02  0.55967597091E+02 -0.31337090344E+03  0.36849009051E+03  0.17300000000E+03 0.  1.
         -6    1    1    2    0  502  0.67247689584E+02 -0.55967597091E+02  0.46820640631E+02  0.19943870253E+03  0.17300000000E+03 0.  1.
</event>
<event>
 4    1  0.6069433E+000  0.1000000E+03  0.7546771E-02  0.1280296E+00
         21   -1    0    0  503  502  0.00000000000E+00  0.00000000000E+00  0.57517190266E+03  0.57517190266E+03  0.00000000000E+00 0.  1.
         21   -1    0    0  501  503 -0.00000000000E+00 -0.00000000000E+00 -0.76390399434E+02  0.76390399434E+02  0.00000000000E+00 0.  1.
          6    1    1    2  501    0 -0.45935538532E+02  0.79671033913E+02  0.13359414022E+03  0.23713696811E+03  0.17300000000E+03 0.  1.
         -6    1    1    2    0  502  0.45935538532E+02 -0.79671033913E+02  0.36518736300E+03  0.41442533397E+03  0.17300000000E+03 0.  1.
</event>
<event>
 4    1  0.6069433E+000  0.1000000E+03  0.7546771E-02  0.1280296E+00
         21   -1    0    0  503  502  0.00000000000E+00  0.00000000000E+00  0.41853694023E+03  0.41853694023E+03  0.00000000000E+00 0.  1.
         21   -1    0    0  501  503 -0.00000000000E+00 -0.00000000000E+00 -0.61157093022E+03  0.61157093022E+03  0.00000000000E+00 0.  1.
          6    1    1    2  501    0 -0.35480665888E+02  0.31510931219E+03 -0.45714156138E+03  0.58263209955E+03  0.17300000000E+03 0.  1.
         -6    1    1    2    0  502  0.35480665888E+02 -0.31510931219E+03  0.26410757139E+03  0.44747577090E+03  0.17300000000E+03 0.  1.
</event>
<event>
 4    1  0.6069433E+000  0.1000000E+03  0.7546771E-02  0.1280296E+00
         21   -1    0    0  503  502  0.00000000000E+00  0.00000000000E+00  0.18682976101E+04  0.18682976101E+04  0.00000000000E+00 0.  1.
         21   -1    0    0  501  503 -0.00000000000E+00 -0.00000000000E+00 -0.29515394510E+02  0.29515394510E+02  0.00000000000E+00 0.  1.
          6    1    1    2  501    0  0.12563607484E+03 -0.34027514265E+02  0.55186531960E+03  0.59281247120E+03  0.17300000000E+03 0.  1.
         -6    1    1    2    0  502 -0.12563607484E+03  0.34027514265E+02  0.12869168960E+04  0.13050005334E+04  0.17300000000E+03 0.  1.
</event>
<event>
 4    1  0.6069433E+000  0.1000000E+03  0.7546771E-02  0.1280296E+00
         21   -1    0    0  501  502  0.00000000000E+00  0.00000000000E+00  0.19267811298E+03  0.19267811298E+03  0.00000000000E+00 0. -1.
         21   -1    0    0  502  503 -0.00000000000E+00 -0.00000000000E+00 -0.11522235413E+04  0.11522235413E+04  0.00000000000E+00 0.  1.
          6    1    1    2  501    0 -0.14445846255E+03  0.13955563807E+03  0.76156103958E+02  0.27581293604E+03  0.17300000000E+03 0.  1.
         -6    1    1    2    0  503  0.14445846255E+03 -0.13955563807E+03 -0.10357015323E+04  0.10690887183E+04  0.17300000000E+03 0. -1.
</event>
<event>
 4    1  0.6069433E+000  0.1000000E+03  0.7546771E-02  0.1280296E+00
         21   -1    0    0  503  502  0.00000000000E+00  0.00000000000E+00  0.66634344450E+02  0.66634344450E+02  0.00000000000E+00 0.  1.
         21   -1    0    0  501  503 -0.00000000000E+00 -0.00000000000E+00 -0.48146342838E+03  0.48146342838E+03  0.00000000000E+00 0.  1.
          6    1    1    2  501    0 -0.28712346045E+02 -0.36289703875E+02 -0.20219035459E+03  0.27009494796E+03  0.17300000000E+03 0.  1.
         -6    1    1    2    0  502  0.28712346045E+02  0.36289703875E+02 -0.21263872934E+03  0.27800282488E+03  0.17300000000E+03 0.  1.
</event>
<event>
 4    1  0.6069433E+000  0.1000000E+03  0.7546771E-02  0.1280296E+00
         21   -1    0    0  503  502  0.00000000000E+00  0.00000000000E+00  0.41950502413E+03  0.41950502413E+03  0.00000000000E+00 0.  1.
         21   -1    0    0  501  503 -0.00000000000E+00 -0.00000000000E+00 -0.13912944129E+03  0.13912944129E+03  0.00000000000E+00 0.  1.
          6    1    1    2  501    0 -0.15118027352E+03  0.68462237795E+02  0.17475588233E+03  0.29666676847E+03  0.17300000000E+03 0.  1.
         -6    1    1    2    0  502  0.15118027352E+03 -0.68462237795E+02  0.10561970051E+03  0.26196769694E+03  0.17300000000E+03 0.  1.
</event>
<event>
 4    1  0.6069433E+000  0.1000000E+03  0.7546771E-02  0.1280296E+00
         21   -1    0    0  503  502  0.00000000000E+00  0.00000000000E+00  0.20320442536E+04  0.20320442536E+04  0.00000000000E+00 0.  1.
         21   -1    0    0  501  503 -0.00000000000E+00 -0.00000000000E+00 -0.49023269353E+02  0.49023269353E+02  0.00000000000E+00 0. -1.
          6    1    1    2  501    0 -0.98939056877E+02 -0.20967573818E+02  0.18761339266E+03  0.27451113135E+03  0.17300000000E+03 0. -1.
         -6    1    1    2    0  502  0.98939056877E+02  0.20967573818E+02  0.17954075916E+04  0.18065563916E+04  0.17300000000E+03 0.  1.
</event>
<event>
 4    1  0.6069433E+000  0.1000000E+03  0.7546771E-02  0.1280296E+00
         21   -1    0    0  503  502  0.00000000000E+00  0.00000000000E+00  0.53949490772E+02  0.53949490772E+02  0.00000000000E+00 0.  1.
         21   -1    0    0  501  503 -0.00000000000E+00 -0.00000000000E+00 -0.77511395574E+03  0.77511395574E+03  0.00000000000E+00 0. -1.
          6    1    1    2  501    0 -0.50588786946E+02 -0.51153849296E+02 -0.52665915312E+03  0.55899445903E+03  0.17300000000E+03 0. -1.
         -6    1    1    2    0  502  0.50588786946E+02  0.51153849296E+02 -0.19450531185E+03  0.27006898749E+03  0.17300000000E+03 0.  1.
</event>
<event>
 4    1  0.6069433E+000  0.1000000E+03  0.7546771E-02  0.1280296E+00
         21   -1    0    0  503  502  0.00000000000E+00  0.00000000000E+00  0.41554338931E+02  0.41554338931E+02  0.00000000000E+00 0.  1.
         21   -1    0    0  501  503 -0.00000000000E+00 -0.00000000000E+00 -0.10008649930E+04  0.10008649930E+04  0.00000000000E+00 0. -1.
          6    1    1    2  501    0  0.12268741972E+01 -0.54586571854E+02 -0.71776579529E+03  0.74033636675E+03  0.17300000000E+03 0. -1.
         -6    1    1    2    0  502 -0.12268741972E+01  0.54586571854E+02 -0.24154485877E+03  0.30208296517E+03  0.17300000000E+03 0.  1.
</event>
<event>
 4    1  0.6069433E+000  0.1000000E+03  0.7546771E-02  0.1280296E+00
         21   -1    0    0  501  502  0.00000000000E+00  0.00000000000E+00  0.32089189938E+03  0.32089189938E+03  0.00000000000E+00 0. -1.
         21   -1    0    0  502  503 -0.00000000000E+00 -0.00000000000E+00 -0.15835295650E+03  0.15835295650E+03  0.00000000000E+00 0.  1.
          6    1    1    2  501    0 -0.66286156889E+02 -0.86305472833E+02  0.18235380741E+03  0.27390582381E+03  0.17300000000E+03 0. -1.
         -6    1    1    2    0  503  0.66286156889E+02  0.86305472833E+02 -0.19814864529E+02  0.20533903207E+03  0.17300000000E+03 0.  1.
</event>
<event>
 4    1  0.6069433E+000  0.1000000E+03  0.7546771E-02  0.1280296E+00
         21   -1    0    0  501  502  0.00000000000E+00  0.00000000000E+00  0.14595406202E+04  0.14595406202E+04  0.00000000000E+00 0.  1.
         21   -1    0    0  502  503 -0.00000000000E+00 -0.00000000000E+00 -0.80691771055E+02  0.80691771055E+02  0.00000000000E+00 0. -1.
          6    1    1    2  501    0  0.26779401075E+02  0.98808387278E+02  0.13135933030E+04  0.13288854726E+04  0.17300000000E+03 0.  1.
         -6    1    1    2    0  503 -0.26779401075E+02 -0.98808387278E+02  0.65255546197E+02  0.21134691866E+03  0.17300000000E+03 0.  1.
</event>
<event>
 4    1  0.6069433E+000  0.1000000E+03  0.7546771E-02  0.1280296E+00
         21   -1    0    0  501  502  0.00000000000E+00  0.00000000000E+00  0.14316131456E+03  0.14316131456E+03  0.00000000000E+00 0.  1.
         21   -1    0    0  502  503 -0.00000000000E+00 -0.00000000000E+00 -0.69611714381E+03  0.69611714381E+03  0.00000000000E+00 0. -1.
          6    1    1    2  501    0 -0.29126097275E+02 -0.35226304896E+02  0.69238578404E+02  0.19186506414E+03  0.17300000000E+03 0.  1.
         -6    1    1    2    0  503  0.29126097275E+02  0.35226304896E+02 -0.62219440766E+03  0.64741339423E+03  0.17300000000E+03 0.  1.
</event>
<event>
 4    1  0.6069433E+000  0.1000000E+03  0.7546771E-02  0.1280296E+00
         21   -1    0    0  501  502  0.00000000000E+00  0.00000000000E+00  0.13831035801E+03  0.13831035801E+03  0.00000000000E+00 0.  1.
         21   -1    0    0  502  503 -0.00000000000E+00 -0.00000000000E+00 -0.33060736273E+03  0.33060736273E+03  0.00000000000E+00 0.  1.
          6    1    1    2  501    0  0.72883282033E+02  0.10005222541E+03 -0.72252194964E+02  0.22465929824E+03  0.17300000000E+03 0.  1.
         -6    1    1    2    0  503 -0.72883282033E+02 -0.10005222541E+03 -0.12004480976E+03  0.24425842249E+03  0.17300000000E+03 0.  1.
</event>
<event>
 4    1  0.6069433E+000  0.1000000E+03  0.7546771E-02  0.1280296E+00
         21   -1    0    0  501  502  0.00000000000E+00  0.00000000000E+00  0.40940430634E+02  0.40940430634E+02  0.00000000000E+00 0.  1.
         21   -1    0    0  502  503 -0.00000000000E+00 -0.00000000000E+00 -0.97219118798E+03  0.97219118798E+03  0.00000000000E+00 0.  1.
          6    1    1    2  501    0  0.90915210609E+02 -0.38786061347E+02 -0.43985711267E+03  0.48288012347E+03  0.17300000000E+03 0.  1.
         -6    1    1    2    0  503 -0.90915210609E+02  0.38786061347E+02 -0.49139364467E+03  0.53025149514E+03  0.17300000000E+03 0.  1.
</event>
<event>
 4    1  0.6069433E+000  0.1000000E+03  0.7546771E-02  0.1280296E+00
         21   -1    0    0  501  502  0.00000000000E+00  0.00000000000E+00  0.46727558216E+03  0.46727558216E+03  0.00000000000E+00 0.  1.
         21   -1    0    0  502  503 -0.00000000000E+00 -0.00000000000E+00 -0.27087261678E+03  0.27087261678E+03  0.00000000000E+00 0.  1.
          6    1    1    2  501    0 -0.28023596930E+03 -0.11864286180E+02  0.23726747140E+03  0.40607611696E+03  0.17300000000E+03 0.  1.
         -6    1    1    2    0  503  0.28023596930E+03  0.11864286180E+02 -0.40864506017E+02  0.33207208198E+03  0.17300000000E+03 0.  1.
</event>
<event>
 4    1  0.6069433E+000  0.1000000E+03  0.7546771E-02  0.1280296E+00
         21   -1    0    0  501  502  0.00000000000E+00  0.00000000000E+00  0.21318330363E+03  0.21318330363E+03  0.00000000000E+00 0.  1.
         21   -1    0    0  502  503 -0.00000000000E+00 -0.00000000000E+00 -0.39393127487E+03  0.39393127487E+03  0.00000000000E+00 0. -1.
          6    1    1    2  501    0 -0.59363426269E+02 -0.22305409576E+03 -0.61242487290E+02  0.29488436423E+03  0.17300000000E+03 0.  1.
         -6    1    1    2    0  503  0.59363426269E+02  0.22305409576E+03 -0.11950548394E+03  0.31223021428E+03  0.17300000000E+03 0. -1.
</event>
<event>
 4    1  0.6069433E+000  0.1000000E+03  0.7546771E-02  0.1280296E+00
         21   -1    0    0  501  502  0.00000000000E+00  0.00000000000E+00  0.89759231558E+02  0.89759231558E+02  0.00000000000E+00 0.  1.
         21   -1    0    0  502  503 -0.00000000000E+00 -0.00000000000E+00 -0.48078108386E+03  0.48078108386E+03  0.00000000000E+00 0. -1.
          6    1    1    2  501    0  0.81811941863E+02  0.80433210465E+02 -0.18462463258E+03  0.27780919735E+03  0.17300000000E+03 0.  1.
         -6    1    1    2    0  503 -0.81811941863E+02 -0.80433210465E+02 -0.20639721973E+03  0.29273111807E+03  0.17300000000E+03 0. -1.
</event>
<event>
 4    1  0.6069433E+000  0.1000000E+03  0.7546771E-02  0.1280296E+00
         21   -1    0    0  501  502  0.00000000000E+00  0.00000000000E+00  0.18070854245E+02  0.18070854245E+02  0.00000000000E+00 0.  1.
         21   -1    0    0  502  503 -0.00000000000E+00 -0.00000000000E+00 -0.17395493368E+04  0.17395493368E+04  0.00000000000E+00 0.  1.
          6    1    1    2  501    0 -0.37165551930E+02  0.10032749028E+02 -0.83635166114E+03  0.85492399393E+03  0.17300000000E+03 0.  1.
         -6    1    1    2    0  503  0.37165551930E+02 -0.10032749028E+02 -0.88512682146E+03  0.90269619716E+03  0.17300000000E+03 0.  1.
</event>
<event>
 4    1  0.6069433E+000  0.1000000E+03  0.7546771E-02  0.1280296E+00
         21   -1    0    0  501  502  0.00000000000E+00  0.00000000000E+00  0.16150427574E+04  0.16150427574E+04  0.00000000000E+00 0.  1.
         21   -1    0    0  502  503 -0.00000000000E+00 -0.00000000000E+00 -0.22430575601E+02  0.22430575601E+02  0.00000000000E+00 0.  1.
          6    1    1    2  501    0 -0.22227709088E+02 -0.71770756021E+02  0.68644822999E+03  0.71188853406E+03  0.17300000000E+03 0.  1.
         -6    1    1    2    0  503  0.22227709088E+02  0.71770756021E+02  0.90616395179E+03  0.92558479892E+03  0.17300000000E+03 0.  1.
</event>
<event>
 4    1  0.6069433E+000  0.1000000E+03  0.7546771E-02  0.1280296E+00
         21   -1    0    0  503  502  0.00000000000E+00  0.00000000000E+00  0.70640090943E+03  0.70640090943E+03  0.00000000000E+00 0. -1.
         21   -1    0    0  501  503 -0.00000000000E+00 -0.00000000000E+00 -0.68877260504E+02  0.68877260504E+02  0.00000000000E+00 0. -1.
          6    1    1    2  501    0  0.40129783884E+01  0.94980501789E+02  0.14578273248E+03  0.24539560877E+03  0.17300000000E+03 0. -1.
         -6    1    1    2    0  502 -0.40129783884E+01 -0.94980501789E+02  0.49174091644E+03  0.52988256116E+03  0.17300000000E+03 0. -1.
</event>
<event>
 4    1  0.6069433E+000  0.1000000E+03  0.7546771E-02  0.1280296E+00
         21   -1    0    0  503  502  0.00000000000E+00  0.00000000000E+00  0.26871789118E+03  0.26871789118E+03  0.00000000000E+00 0.  1.
         21   -1    0    0  501  503 -0.00000000000E+00 -0.00000000000E+00 -0.20841339606E+03  0.20841339606E+03  0.00000000000E+00 0.  1.
          6    1    1    2  501    0  0.15404732692E+01  0.65524059366E+02 -0.11862005031E+03  0.21976235289E+03  0.17300000000E+03 0.  1.
         -6    1    1    2    0  502 -0.15404732692E+01 -0.65524059366E+02  0.17892454542E+03  0.25736893435E+03  0.17300000000E+03 0.  1.
</event>
<event>
 4    1  0.6069433E+000  0.1000000E+03  0.7546771E-02  0.1280296E+00
         21   -1    0    0  501  502  0.00000000000E+00  0.00000000000E+00  0.12247951281E+03  0.12247951281E+03  0.00000000000E+00 0.  1.
         21   -1    0    0  502  503 -0.00000000000E+00 -0.00000000000E+00 -0.43255071716E+03  0.43255071716E+03  0.00000000000E+00 0.  1.
          6    1    1    2  501    0 -0.26075140849E+01  0.48539544834E+02  0.18377600825E+02  0.18063671486E+03  0.17300000000E+03 0.  1.
         -6    1    1    2    0  503  0.26075140849E+01 -0.48539544834E+02 -0.32844880517E+03  0.37439351511E+03  0.17300000000E+03 0.  1.
</event>
<event>
 4    1  0.6069433E+000  0.1000000E+03  0.7546771E-02  0.1280296E+00
         21   -1    0    0  501  502  0.00000000000E+00  0.00000000000E+00  0.14163034581E+03  0.14163034581E+03  0.00000000000E+00 0.  1.
         21   -1    0    0  502  503 -0.00000000000E+00 -0.00000000000E+00 -0.94153878104E+03  0.94153878104E+03  0.00000000000E+00 0.  1.
          6    1    1    2  501    0 -0.14626232252E+02 -0.11260202088E+03  0.46278332981E+02  0.21204675399E+03  0.17300000000E+03 0.  1.
         -6    1    1    2    0  503  0.14626232252E+02  0.11260202088E+03 -0.84618676822E+03  0.87112237285E+03  0.17300000000E+03 0.  1.
</event>
<event>
 4    1  0.6069433E+000  0.1000000E+03  0.7546771E-02  0.1280296E+00
         21   -1    0    0  501  502  0.00000000000E+00  0.00000000000E+00  0.67697551101E+02  0.67697551101E+02  0.00000000000E+00 0.  1.
         21   -1    0    0  502  503 -0.00000000000E+00 -0.00000000000E+00 -0.47507372940E+03  0.47507372940E+03  0.00000000000E+00 0.  1.
          6    1    1    2  501    0 -0.12381988596E+02  0.23677648805E+01 -0.27259491973E+03  0.32310355958E+03  0.17300000000E+03 0.  1.
         -6    1    1    2    0  503  0.12381988596E+02 -0.23677648805E+01 -0.13478125857E+03  0.21966772092E+03  0.17300000000E+03 0.  1.
</event>
<event>
 4    1  0.6069433E+000  0.1000000E+03  0.7546771E-02  0.1280296E+00
         21   -1    0    0  501  502  0.00000000000E+00  0.00000000000E+00  0.11983959454E+04  0.11983959454E+04  0.00000000000E+00 0.  1.
         21   -1    0    0  502  503 -0.00000000000E+00 -0.00000000000E+00 -0.38402500546E+02  0.38402500546E+02  0.00000000000E+00 0.  1.
          6    1    1    2  501    0 -0.45460891321E+01 -0.49326054681E+02  0.91664399295E+03  0.93414074764E+03  0.17300000000E+03 0.  1.
         -6    1    1    2    0  503  0.45460891321E+01  0.49326054681E+02  0.24334945187E+03  0.30265769827E+03  0.17300000000E+03 0.  1.
</event>
<event>
 4    1  0.6069433E+000  0.1000000E+03  0.7546771E-02  0.1280296E+00
         21   -1    0    0  501  502  0.00000000000E+00  0.00000000000E+00  0.13480474703E+03  0.13480474703E+03  0.00000000000E+00 0.  1.
         21   -1    0    0  502  503 -0.00000000000E+00 -0.00000000000E+00 -0.31182401697E+03  0.31182401697E+03  0.00000000000E+00 0.  1.
          6    1    1    2  501    0  0.95291471433E+02 -0.34803044635E+02 -0.42111052456E+02  0.20492451582E+03  0.17300000000E+03 0.  1.
         -6    1    1    2    0  503 -0.95291471433E+02  0.34803044635E+02 -0.13490821748E+03  0.24170424818E+03  0.17300000000E+03 0.  1.
</event>
<event>
 4    1  0.6069433E+000  0.1000000E+03  0.7546771E-02  0.1280296E+00
         21   -1    0    0  501  502  0.00000000000E+00  0.00000000000E+00  0.78542675252E+02  0.78542675252E+02  0.00000000000E+00 0.  1.
         21   -1    0    0  502  503 -0.00000000000E+00 -0.00000000000E+00 -0.60546277838E+03  0.60546277838E+03  0.00000000000E+00 0.  1.
          6    1    1    2  501    0 -0.78247997271E+02  0.90760129382E+02 -0.17383922984E+03  0.27296378513E+03  0.17300000000E+03 0.  1.
         -6    1    1    2    0  503  0.78247997271E+02 -0.90760129382E+02 -0.35308087329E+03  0.41104166850E+03  0.17300000000E+03 0.  1.
</event>
<event>
 4    1  0.6069433E+000  0.1000000E+03  0.7546771E-02  0.1280296E+00
         21   -1    0    0  501  502  0.00000000000E+00  0.00000000000E+00  0.10614867102E+03  0.10614867102E+03  0.00000000000E+00 0.  1.
         21   -1    0    0  502  503 -0.00000000000E+00 -0.00000000000E+00 -0.15590457331E+04  0.15590457331E+04  0.00000000000E+00 0.  1.
          6    1    1    2  501    0 -0.15114680916E+02  0.27747378117E+03 -0.23209577539E+03  0.40126998613E+03  0.17300000000E+03 0.  1.
         -6    1    1    2    0  503  0.15114680916E+02 -0.27747378117E+03 -0.12208012867E+04  0.12639244180E+04  0.17300000000E+03 0.  1.
</event>
<event>
 4    1  0.6069433E+000  0.1000000E+03  0.7546771E-02  0.1280296E+00
         21   -1    0    0  501  502  0.00000000000E+00  0.00000000000E+00  0.15843006922E+04  0.15843006922E+04  0.00000000000E+00 0.  1.
         21   -1    0    0  502  503 -0.00000000000E+00 -0.00000000000E+00 -0.34391957559E+02  0.34391957559E+02  0.00000000000E+00 0.  1.
          6    1    1    2  501    0 -0.15781629910E+02 -0.10943063254E+03  0.11600250966E+04  0.11780540514E+04  0.17300000000E+03 0.  1.
         -6    1    1    2    0  503  0.15781629910E+02  0.10943063254E+03  0.38988363798E+03  0.44063859833E+03  0.17300000000E+03 0.  1.
</event>
<event>
 4    1  0.6069433E+000  0.1000000E+03  0.7546771E-02  0.1280296E+00
         21   -1    0    0  501  502  0.00000000000E+00  0.00000000000E+00  0.65801337278E+03  0.65801337278E+03  0.00000000000E+00 0.  1.
         21   -1    0    0  502  503 -0.00000000000E+00 -0.00000000000E+00 -0.60200239255E+02  0.60200239255E+02  0.00000000000E+00 0.  1.
          6    1    1    2  501    0 -0.81183583138E+02  0.23183930255E+02  0.20769969128E+03  0.28318974302E+03  0.17300000000E+03 0.  1.
         -6    1    1    2    0  503  0.81183583138E+02 -0.23183930255E+02  0.39011344224E+03  0.43502386901E+03  0.17300000000E+03 0.  1.
</event>
<event>
 4    1  0.6069433E+000  0.1000000E+03  0.7546771E-02  0.1280296E+00
         21   -1    0    0  503  502  0.00000000000E+00  0.00000000000E+00  0.58225863766E+02  0.58225863766E+02  0.00000000000E+00 0. -1.
         21   -1    0    0  501  503 -0.00000000000E+00 -0.00000000000E+00 -0.77231390953E+03  0.77231390953E+03  0.00000000000E+00 0. -1.
          6    1    1    2  501    0 -0.10143842415E+03  0.61024359371E+02 -0.41976775594E+03  0.46919899324E+03  0.17300000000E+03 0. -1.
         -6    1    1    2    0  502  0.10143842415E+03 -0.61024359371E+02 -0.29432028982E+03  0.36134078006E+03  0.17300000000E+03 0. -1.
</event>
<event>
 4    1  0.6069433E+000  0.1000000E+03  0.7546771E-02  0.1280296E+00
         21   -1    0    0  503  502  0.00000000000E+00  0.00000000000E+00  0.20443667814E+03  0.20443667814E+03  0.00000000000E+00 0. -1.
         21   -1    0    0  501  503 -0.00000000000E+00 -0.00000000000E+00 -0.21522152904E+03  0.21522152904E+03  0.00000000000E+00 0. -1.
          6    1    1    2  501    0 -0.70390906012E+02 -0.86054228573E+02 -0.46757805209E+02  0.21089215787E+03  0.17300000000E+03 0. -1.
         -6    1    1    2    0  502  0.70390906012E+02  0.86054228573E+02  0.35972954307E+02  0.20876604931E+03  0.17300000000E+03 0. -1.
</event>
<event>
 4    1  0.6069433E+000  0.1000000E+03  0.7546771E-02  0.1280296E+00
         21   -1    0    0  503  502  0.00000000000E+00  0.00000000000E+00  0.24752452976E+04  0.24752452976E+04  0.00000000000E+00 0. -1.
         21   -1    0    0  501  503 -0.00000000000E+00 -0.00000000000E+00 -0.37088906746E+02  0.37088906746E+02  0.00000000000E+00 0. -1.
          6    1    1    2  501    0  0.16275860059E+02  0.24116141516E+03  0.14626430203E+04  0.14925405645E+04  0.17300000000E+03 0. -1.
         -6    1    1    2    0  502 -0.16275860059E+02 -0.24116141516E+03  0.97551337058E+03  0.10197936399E+04  0.17300000000E+03 0. -1.
</event>
<event>
 4    1  0.6069433E+000  0.1000000E+03  0.7546771E-02  0.1280296E+00
         21   -1    0    0  501  502  0.00000000000E+00  0.00000000000E+00  0.17539484053E+03  0.17539484053E+03  0.00000000000E+00 0.  1.
         21   -1    0    0  502  503 -0.00000000000E+00 -0.00000000000E+00 -0.10273346958E+04  0.10273346958E+04  0.00000000000E+00 0.  1.
          6    1    1    2  501    0 -0.36124880596E+03 -0.13084613167E+03 -0.35319589592E+03  0.54981610641E+03  0.17300000000E+03 0.  1.
         -6    1    1    2    0  503  0.36124880596E+03  0.13084613167E+03 -0.49874395937E+03  0.65291342993E+03  0.17300000000E+03 0.  1.
</event>
<event>
 4    1  0.6069433E+000  0.1000000E+03  0.7546771E-02  0.1280296E+00
         21   -1    0    0  503  502  0.00000000000E+00  0.00000000000E+00  0.10778617622E+03  0.10778617622E+03  0.00000000000E+00 0.  1.
         21   -1    0    0  501  503 -0.00000000000E+00 -0.00000000000E+00 -0.58133890643E+03  0.58133890643E+03  0.00000000000E+00 0.  1.
          6    1    1    2  501    0 -0.14428367961E+03  0.75718185171E+02 -0.34498843418E+03  0.41892367262E+03  0.17300000000E+03 0.  1.
         -6    1    1    2    0  502  0.14428367961E+03 -0.75718185171E+02 -0.12856429603E+03  0.27020141003E+03  0.17300000000E+03 0.  1.
</event>
<event>
 4    1  0.6069433E+000  0.1000000E+03  0.7546771E-02  0.1280296E+00
         21   -1    0    0  503  502  0.00000000000E+00  0.00000000000E+00  0.30084840018E+03  0.30084840018E+03  0.00000000000E+00 0.  1.
         21   -1    0    0  501  503 -0.00000000000E+00 -0.00000000000E+00 -0.35794818981E+03  0.35794818981E+03  0.00000000000E+00 0.  1.
          6    1    1    2  501    0  0.12569258354E+03  0.96710584077E+02 -0.25877970783E+03  0.34935297310E+03  0.17300000000E+03 0.  1.
         -6    1    1    2    0  502 -0.12569258354E+03 -0.96710584077E+02  0.20167991820E+03  0.30944361689E+03  0.17300000000E+03 0.  1.
</event>
<event>
 4    1  0.6069433E+000  0.1000000E+03  0.7546771E-02  0.1280296E+00
         21   -1    0    0  503  502  0.00000000000E+00  0.00000000000E+00  0.20365411648E+03  0.20365411648E+03  0.00000000000E+00 0. -1.
         21   -1    0    0  501  503 -0.00000000000E+00 -0.00000000000E+00 -0.29210415956E+03  0.29210415956E+03  0.00000000000E+00 0. -1.
          6    1    1    2  501    0 -0.13838894918E+03 -0.78309395786E+02 -0.11067738611E+03  0.25973514687E+03  0.17300000000E+03 0. -1.
         -6    1    1    2    0  502  0.13838894918E+03  0.78309395786E+02  0.22227343038E+02  0.23602312917E+03  0.17300000000E+03 0. -1.
</event>
<event>
 4    1  0.6069433E+000  0.1000000E+03  0.7546771E-02  0.1280296E+00
         21   -1    0    0  503  502  0.00000000000E+00  0.00000000000E+00  0.63324599687E+02  0.63324599687E+02  0.00000000000E+00 0. -1.
         21   -1    0    0  501  503 -0.00000000000E+00 -0.00000000000E+00 -0.73661134210E+03  0.73661134210E+03  0.00000000000E+00 0. -1.
          6    1    1    2  501    0 -0.10216365483E+03 -0.67314427075E+02 -0.41406944898E+03  0.46513562865E+03  0.17300000000E+03 0. -1.
         -6    1    1    2    0  502  0.10216365483E+03  0.67314427075E+02 -0.25921729344E+03  0.33480031314E+03  0.17300000000E+03 0. -1.
</event>
<event>
 4    1  0.6069433E+000  0.1000000E+03  0.7546771E-02  0.1280296E+00
         21   -1    0    0  503  502  0.00000000000E+00  0.00000000000E+00  0.20851006831E+03  0.20851006831E+03  0.00000000000E+00 0. -1.
         21   -1    0    0  501  503 -0.00000000000E+00 -0.00000000000E+00 -0.26070570229E+03  0.26070570229E+03  0.00000000000E+00 0. -1.
          6    1    1    2  501    0 -0.11338293379E+03 -0.10082307460E+03  0.11683732538E+02  0.23040505996E+03  0.17300000000E+03 0. -1.
         -6    1    1    2    0  502  0.11338293379E+03  0.10082307460E+03 -0.63879366520E+02  0.23881071064E+03  0.17300000000E+03 0. -1.
</event>
<event>
 4    1  0.6069433E+000  0.1000000E+03  0.7546771E-02  0.1280296E+00
         21   -1    0    0  503  502  0.00000000000E+00  0.00000000000E+00  0.14201959764E+03  0.14201959764E+03  0.00000000000E+00 0. -1.
         21   -1    0    0  501  503 -0.00000000000E+00 -0.00000000000E+00 -0.48596326364E+03  0.48596326364E+03  0.00000000000E+00 0. -1.
          6    1    1    2  501    0 -0.17647404796E+03  0.88774067676E+02 -0.16245644422E+03  0.30877989080E+03  0.17300000000E+03 0. -1.
         -6    1    1    2    0  502  0.17647404796E+03 -0.88774067676E+02 -0.18148722178E+03  0.31920297048E+03  0.17300000000E+03 0. -1.
</event>
<event>
 4    1  0.6069433E+000  0.1000000E+03  0.7546771E-02  0.1280296E+00
         21   -1    0    0  501  502  0.00000000000E+00  0.00000000000E+00  0.22127006593E+03  0.22127006593E+03  0.00000000000E+00 0. -1.
         21   -1    0    0  502  503 -0.00000000000E+00 -0.00000000000E+00 -0.16591566516E+03  0.16591566516E+03  0.00000000000E+00 0.  1.
          6    1    1    2  501    0 -0.77841130200E+02  0.92770365811E+01  0.53195326374E+02  0.19724109031E+03  0.17300000000E+03 0. -1.
         -6    1    1    2    0  503  0.77841130200E+02 -0.92770365811E+01  0.21590743998E+01  0.18994464078E+03  0.17300000000E+03 0.  1.
</event>
<event>
 4    1  0.6069433E+000  0.1000000E+03  0.7546771E-02  0.1280296E+00
         21   -1    0    0  503  502  0.00000000000E+00  0.00000000000E+00  0.49260426495E+03  0.49260426495E+03  0.00000000000E+00 0. -1.
         21   -1    0    0  501  503 -0.00000000000E+00 -0.00000000000E+00 -0.20695134177E+03  0.20695134177E+03  0.00000000000E+00 0.  1.
          6    1    1    2  501    0 -0.11184867221E+03  0.12606635787E+03 -0.85953678624E+02  0.25635890258E+03  0.17300000000E+03 0.  1.
         -6    1    1    2    0  502  0.11184867221E+03 -0.12606635787E+03  0.37160660180E+03  0.44319670415E+03  0.17300000000E+03 0. -1.
</event>
<event>
 4    1  0.6069433E+000  0.1000000E+03  0.7546771E-02  0.1280296E+00
         21   -1    0    0  503  502  0.00000000000E+00  0.00000000000E+00  0.47757426022E+02  0.47757426022E+02  0.00000000000E+00 0. -1.
         21   -1    0    0  501  503 -0.00000000000E+00 -0.00000000000E+00 -0.81596435739E+03  0.81596435739E+03  0.00000000000E+00 0.  1.
          6    1    1    2  501    0 -0.75119117888E+02  0.55231032798E+02 -0.34340938330E+03  0.39566697284E+03  0.17300000000E+03 0.  1.
         -6    1    1    2    0  502  0.75119117888E+02 -0.55231032798E+02 -0.42479754806E+03  0.46805481057E+03  0.17300000000E+03 0. -1.
</event>
<event>
 4    1  0.6069433E+000  0.1000000E+03  0.7546771E-02  0.1280296E+00
         21   -1    0    0  503  502  0.00000000000E+00  0.00000000000E+00  0.53461838463E+03  0.53461838463E+03  0.00000000000E+00 0. -1.
         21   -1    0    0  501  503 -0.00000000000E+00 -0.00000000000E+00 -0.10911227457E+03  0.10911227457E+03  0.00000000000E+00 0.  1.
          6    1    1    2  501    0  0.77062875159E+02  0.62635966182E+02  0.31285359845E+02  0.20191514239E+03  0.17300000000E+03 0.  1.
         -6    1    1    2    0  502 -0.77062875159E+02 -0.62635966182E+02  0.39422075021E+03  0.44181551680E+03  0.17300000000E+03 0. -1.
</event>
<event>
 4    1  0.6069433E+000  0.1000000E+03  0.7546771E-02  0.1280296E+00
         21   -1    0    0  503  502  0.00000000000E+00  0.00000000000E+00  0.23336764694E+03  0.23336764694E+03  0.00000000000E+00 0. -1.
         21   -1    0    0  501  503 -0.00000000000E+00 -0.00000000000E+00 -0.27656078003E+03  0.27656078003E+03  0.00000000000E+00 0.  1.
          6    1    1    2  501    0 -0.93316198124E+02 -0.73946526366E+01 -0.18295190449E+03  0.26863170527E+03  0.17300000000E+03 0.  1.
         -6    1    1    2    0  502  0.93316198124E+02  0.73946526366E+01  0.13975877139E+03  0.24129672170E+03  0.17300000000E+03 0. -1.
</event>
<event>
 4    1  0.6069433E+000  0.1000000E+03  0.7546771E-02  0.1280296E+00
         21   -1    0    0  501  502  0.00000000000E+00  0.00000000000E+00  0.15348802736E+03  0.15348802736E+03  0.00000000000E+00 0. -1.
         21   -1    0    0  502  503 -0.00000000000E+00 -0.00000000000E+00 -0.29966845568E+03  0.29966845568E+03  0.00000000000E+00 0. -1.
          6    1    1    2  501    0 -0.90399031361E+01 -0.14445024629E+02  0.59606702503E+02  0.18377251581E+03  0.17300000000E+03 0. -1.
         -6    1    1    2    0  503  0.90399031361E+01  0.14445024629E+02 -0.20578713082E+03  0.26938396722E+03  0.17300000000E+03 0. -1.
</event>
<event>
 4    1  0.6069433E+000  0.1000000E+03  0.7546771E-02  0.1280296E+00
         21   -1    0    0  501  502  0.00000000000E+00  0.00000000000E+00  0.38280596745E+03  0.38280596745E+03  0.00000000000E+00 0. -1.
         21   -1    0    0  502  503 -0.00000000000E+00 -0.00000000000E+00 -0.19626667595E+03  0.19626667595E+03  0.00000000000E+00 0. -1.
          6    1    1    2  501    0  0.10899979540E+03 -0.91502631529E+02  0.26011733342E+03  0.34328372248E+03  0.17300000000E+03 0. -1.
         -6    1    1    2    0  503 -0.10899979540E+03  0.91502631529E+02 -0.73578041921E+02  0.23578892092E+03  0.17300000000E+03 0. -1.
</event>
<event>
 4    1  0.6069433E+000  0.1000000E+03  0.7546771E-02  0.1280296E+00
         21   -1    0    0  503  502  0.00000000000E+00  0.00000000000E+00  0.22719072702E+03  0.22719072702E+03  0.00000000000E+00 0.  1.
         21   -1    0    0  501  503 -0.00000000000E+00 -0.00000000000E+00 -0.94255502922E+03  0.94255502922E+03  0.00000000000E+00 0. -1.
          6    1    1    2  501    0  0.22897760339E+03 -0.29936959959E+03 -0.61719096642E+03  0.74357688846E+03  0.17300000000E+03 0. -1.
         -6    1    1    2    0  502 -0.22897760339E+03  0.29936959959E+03 -0.98173335775E+02  0.42616886778E+03  0.17300000000E+03 0. -1.
</event>
<event>
 4    1  0.6069433E+000  0.1000000E+03  0.7546771E-02  0.1280296E+00
         21   -1    0    0  503  502  0.00000000000E+00  0.00000000000E+00  0.19243493922E+03  0.19243493922E+03  0.00000000000E+00 0.  1.
         21   -1    0    0  501  503 -0.00000000000E+00 -0.00000000000E+00 -0.48300151920E+03  0.48300151920E+03  0.00000000000E+00 0. -1.
          6    1    1    2  501    0  0.20861238666E+03 -0.12957157120E+03 -0.87622749871E+02  0.31291319280E+03  0.17300000000E+03 0. -1.
         -6    1    1    2    0  502 -0.20861238666E+03  0.12957157120E+03 -0.20294383011E+03  0.36252326562E+03  0.17300000000E+03 0. -1.
</event>
<event>
 4    1  0.6069433E+000  0.1000000E+03  0.7546771E-02  0.1280296E+00
         21   -1    0    0  503  502  0.00000000000E+00  0.00000000000E+00  0.46504870791E+03  0.46504870791E+03  0.00000000000E+00 0.  1.
         21   -1    0    0  501  503 -0.00000000000E+00 -0.00000000000E+00 -0.89495827919E+02  0.89495827919E+02  0.00000000000E+00 0. -1.
          6    1    1    2  501    0 -0.47305484463E+02  0.95058596091E+02  0.16002343009E+03  0.25847716287E+03  0.17300000000E+03 0. -1.
         -6    1    1    2    0  502  0.47305484463E+02 -0.95058596091E+02  0.21552944990E+03  0.29606737295E+03  0.17300000000E+03 0.  1.
</event>
<event>
 4    1  0.6069433E+000  0.1000000E+03  0.7546771E-02  0.1280296E+00
         21   -1    0    0  503  502  0.00000000000E+00  0.00000000000E+00  0.29442018824E+03  0.29442018824E+03  0.00000000000E+00 0.  1.
         21   -1    0    0  501  503 -0.00000000000E+00 -0.00000000000E+00 -0.11317874216E+03  0.11317874216E+03  0.00000000000E+00 0. -1.
          6    1    1    2  501    0  0.24750403169E+02  0.21680783651E+02  0.36956262301E+02  0.17993722283E+03  0.17300000000E+03 0. -1.
         -6    1    1    2    0  502 -0.24750403169E+02 -0.21680783651E+02  0.14428518377E+03  0.22766170757E+03  0.17300000000E+03 0.  1.
</event>
<event>
 4    1  0.6069433E+000  0.1000000E+03  0.7546771E-02  0.1280296E+00
         21   -1    0    0  501  502  0.00000000000E+00  0.00000000000E+00  0.72142995275E+02  0.72142995275E+02  0.00000000000E+00 0. -1.
         21   -1    0    0  502  503 -0.00000000000E+00 -0.00000000000E+00 -0.47613245250E+03  0.47613245250E+03  0.00000000000E+00 0. -1.
          6    1    1    2  501    0  0.55532585654E+02 -0.29811440774E+02 -0.17068625062E+03  0.25106848911E+03  0.17300000000E+03 0. -1.
         -6    1    1    2    0  503 -0.55532585654E+02  0.29811440774E+02 -0.23330320661E+03  0.29720695867E+03  0.17300000000E+03 0. -1.
</event>
<event>
 4    1  0.6069433E+000  0.1000000E+03  0.7546771E-02  0.1280296E+00
         21   -1    0    0  501  502  0.00000000000E+00  0.00000000000E+00  0.83537123145E+02  0.83537123145E+02  0.00000000000E+00 0.  1.
         21   -1    0    0  502  503 -0.00000000000E+00 -0.00000000000E+00 -0.12904029397E+04  0.12904029397E+04  0.00000000000E+00 0. -1.
          6    1    1    2  501    0 -0.19108864307E+03 -0.20243094507E+03 -0.64391834079E+03  0.72253234297E+03  0.17300000000E+03 0.  1.
         -6    1    1    2    0  503  0.19108864307E+03  0.20243094507E+03 -0.56294747575E+03  0.65140771986E+03  0.17300000000E+03 0. -1.
</event>
<event>
 4    1  0.6069433E+000  0.1000000E+03  0.7546771E-02  0.1280296E+00
         21   -1    0    0  503  502  0.00000000000E+00  0.00000000000E+00  0.13327375333E+03  0.13327375333E+03  0.00000000000E+00 0. -1.
         21   -1    0    0  501  503 -0.00000000000E+00 -0.00000000000E+00 -0.11017926530E+04  0.11017926530E+04  0.00000000000E+00 0. -1.
          6    1    1    2  501    0 -0.13643233566E+03  0.23814690299E+03 -0.81288218406E+03  0.87523378293E+03  0.17300000000E+03 0. -1.
         -6    1    1    2    0  502  0.13643233566E+03 -0.23814690299E+03 -0.15563671559E+03  0.35983262339E+03  0.17300000000E+03 0. -1.
</event>
<event>
 4    1  0.6069433E+000  0.1000000E+03  0.7546771E-02  0.1280296E+00
         21   -1    0    0  503  502  0.00000000000E+00  0.00000000000E+00  0.55425153173E+03  0.55425153173E+03  0.00000000000E+00 0. -1.
         21   -1    0    0  501  503 -0.00000000000E+00 -0.00000000000E+00 -0.78782953111E+02  0.78782953111E+02  0.00000000000E+00 0. -1.
          6    1    1    2  501    0 -0.91025335322E+01  0.31243712915E+02  0.67186770968E+02  0.18841997746E+03  0.17300000000E+03 0. -1.
         -6    1    1    2    0  502  0.91025335322E+01 -0.31243712915E+02  0.40828180765E+03  0.44461450738E+03  0.17300000000E+03 0. -1.
</event>
<event>
 4    1  0.6069433E+000  0.1000000E+03  0.7546771E-02  0.1280296E+00
         21   -1    0    0  501  502  0.00000000000E+00  0.00000000000E+00  0.37100472553E+03  0.37100472553E+03  0.00000000000E+00 0.  1.
         21   -1    0    0  502  503 -0.00000000000E+00 -0.00000000000E+00 -0.16473987289E+03  0.16473987289E+03  0.00000000000E+00 0. -1.
          6    1    1    2  501    0 -0.65165553090E+02  0.14460656168E+03  0.18974834017E+02  0.23547112629E+03  0.17300000000E+03 0. -1.
         -6    1    1    2    0  503  0.65165553090E+02 -0.14460656168E+03  0.18729001863E+03  0.30027347213E+03  0.17300000000E+03 0.  1.
</event>
<event>
 4    1  0.6069433E+000  0.1000000E+03  0.7546771E-02  0.1280296E+00
         21   -1    0    0  501  502  0.00000000000E+00  0.00000000000E+00  0.11115382534E+03  0.11115382534E+03  0.00000000000E+00 0. -1.
         21   -1    0    0  502  503 -0.00000000000E+00 -0.00000000000E+00 -0.63551124838E+03  0.63551124838E+03  0.00000000000E+00 0. -1.
          6    1    1    2  501    0  0.58652185815E+02  0.14058625989E+03 -0.76327832686E+02  0.24281580141E+03  0.17300000000E+03 0. -1.
         -6    1    1    2    0  503 -0.58652185815E+02 -0.14058625989E+03 -0.44802959035E+03  0.50384927231E+03  0.17300000000E+03 0. -1.
</event>
<event>
 4    1  0.6069433E+000  0.1000000E+03  0.7546771E-02  0.1280296E+00
         21   -1    0    0  503  502  0.00000000000E+00  0.00000000000E+00  0.15382049102E+03  0.15382049102E+03  0.00000000000E+00 0.  1.
         21   -1    0    0  501  503 -0.00000000000E+00 -0.00000000000E+00 -0.31261114263E+03  0.31261114263E+03  0.00000000000E+00 0.  1.
          6    1    1    2  501    0 -0.72569695837E+02 -0.26327837952E+02 -0.19685364989E+03  0.27320299281E+03  0.17300000000E+03 0.  1.
         -6    1    1    2    0  502  0.72569695837E+02  0.26327837952E+02  0.38062998273E+02  0.19322864084E+03  0.17300000000E+03 0.  1.
</event>
<event>
 4    1  0.6069433E+000  0.1000000E+03  0.7546771E-02  0.1280296E+00
         21   -1    0    0  503  502  0.00000000000E+00  0.00000000000E+00  0.59412901390E+02  0.59412901390E+02  0.00000000000E+00 0. -1.
         21   -1    0    0  501  503 -0.00000000000E+00 -0.00000000000E+00 -0.12876273280E+04  0.12876273280E+04  0.00000000000E+00 0. -1.
          6    1    1    2  501    0  0.61650049751E+02 -0.17133835536E+03 -0.89614824460E+03  0.93068159805E+03  0.17300000000E+03 0. -1.
         -6    1    1    2    0  502 -0.61650049751E+02  0.17133835536E+03 -0.33206618199E+03  0.41635863132E+03  0.17300000000E+03 0. -1.
</event>
<event>
 4    1  0.6069433E+000  0.1000000E+03  0.7546771E-02  0.1280296E+00
         21   -1    0    0  503  502  0.00000000000E+00  0.00000000000E+00  0.10727409851E+04  0.10727409851E+04  0.00000000000E+00 0. -1.
         21   -1    0    0  501  503 -0.00000000000E+00 -0.00000000000E+00 -0.31905176125E+02  0.31905176125E+02  0.00000000000E+00 0. -1.
          6    1    1    2  501    0 -0.19819304081E+02 -0.61231902722E+02  0.48326815932E+03  0.51731930617E+03  0.17300000000E+03 0. -1.
         -6    1    1    2    0  502  0.19819304081E+02  0.61231902722E+02  0.55756764966E+03  0.58732685506E+03  0.17300000000E+03 0. -1.
</event>
<event>
 4    1  0.6069433E+000  0.1000000E+03  0.7546771E-02  0.1280296E+00
         21   -1    0    0  503  502  0.00000000000E+00  0.00000000000E+00  0.10875934267E+04  0.10875934267E+04  0.00000000000E+00 0. -1.
         21   -1    0    0  501  503 -0.00000000000E+00 -0.00000000000E+00 -0.80096818092E+02  0.80096818092E+02  0.00000000000E+00 0.  1.
          6    1    1    2  501    0 -0.23887915221E+03 -0.10866364909E+02  0.50065480499E+03  0.58117601551E+03  0.17300000000E+03 0.  1.
         -6    1    1    2    0  502  0.23887915221E+03  0.10866364909E+02  0.50684180359E+03  0.58651422925E+03  0.17300000000E+03 0. -1.
</event>
<event>
 4    1  0.6069433E+000  0.1000000E+03  0.7546771E-02  0.1280296E+00
         21   -1    0    0  503  502  0.00000000000E+00  0.00000000000E+00  0.49323985743E+03  0.49323985743E+03  0.00000000000E+00 0. -1.
         21   -1    0    0  501  503 -0.00000000000E+00 -0.00000000000E+00 -0.12780588581E+03  0.12780588581E+03  0.00000000000E+00 0.  1.
          6    1    1    2  501    0 -0.16859223114E+03  0.38292751427E+01  0.98181641855E+02  0.26078082473E+03  0.17300000000E+03 0.  1.
         -6    1    1    2    0  502  0.16859223114E+03 -0.38292751427E+01  0.26725232976E+03  0.36026491851E+03  0.17300000000E+03 0. -1.
</event>
<event>
 4    1  0.6069433E+000  0.1000000E+03  0.7546771E-02  0.1280296E+00
         21   -1    0    0  503  502  0.00000000000E+00  0.00000000000E+00  0.21916122192E+03  0.21916122192E+03  0.00000000000E+00 0.  1.
         21   -1    0    0  501  503 -0.00000000000E+00 -0.00000000000E+00 -0.20883733448E+03  0.20883733448E+03  0.00000000000E+00 0.  1.
          6    1    1    2  501    0  0.15149623392E+02  0.18523949064E+02 -0.11843532950E+03  0.21101794960E+03  0.17300000000E+03 0.  1.
         -6    1    1    2    0  502 -0.15149623392E+02 -0.18523949064E+02  0.12875921694E+03  0.21698060680E+03  0.17300000000E+03 0.  1.
</event>
<event>
 4    1  0.6069433E+000  0.1000000E+03  0.7546771E-02  0.1280296E+00
         21   -1    0    0  503  502  0.00000000000E+00  0.00000000000E+00  0.19828057513E+03  0.19828057513E+03  0.00000000000E+00 0.  1.
         21   -1    0    0  501  503 -0.00000000000E+00 -0.00000000000E+00 -0.36957849839E+03  0.36957849839E+03  0.00000000000E+00 0.  1.
          6    1    1    2  501    0  0.22813911497E+02  0.96342935302E+02  0.10646354804E+03  0.22597770421E+03  0.17300000000E+03 0.  1.
         -6    1    1    2    0  502 -0.22813911497E+02 -0.96342935302E+02 -0.27776147130E+03  0.34188136931E+03  0.17300000000E+03 0.  1.
</event>
<event>
 4    1  0.6069433E+000  0.1000000E+03  0.7546771E-02  0.1280296E+00
         21   -1    0    0  503  502  0.00000000000E+00  0.00000000000E+00  0.85783620346E+03  0.85783620346E+03  0.00000000000E+00 0.  1.
         21   -1    0    0  501  503 -0.00000000000E+00 -0.00000000000E+00 -0.42093408239E+02  0.42093408239E+02  0.00000000000E+00 0. -1.
          6    1    1    2  501    0 -0.73228847929E+02 -0.19106726338E+02  0.35748847383E+03  0.40429511509E+03  0.17300000000E+03 0. -1.
         -6    1    1    2    0  502  0.73228847929E+02  0.19106726338E+02  0.45825432139E+03  0.49563449661E+03  0.17300000000E+03 0.  1.
</event>
<event>
 4    1  0.6069433E+000  0.1000000E+03  0.7546771E-02  0.1280296E+00
         21   -1    0    0  503  502  0.00000000000E+00  0.00000000000E+00  0.15410019956E+03  0.15410019956E+03  0.00000000000E+00 0.  1.
         21   -1    0    0  501  503 -0.00000000000E+00 -0.00000000000E+00 -0.34973561943E+03  0.34973561943E+03  0.00000000000E+00 0. -1.
          6    1    1    2  501    0 -0.97566362091E+02  0.38530957008E+02 -0.22135985194E+03  0.29988833540E+03  0.17300000000E+03 0. -1.
         -6    1    1    2    0  502  0.97566362091E+02 -0.38530957008E+02  0.25724432068E+02  0.20394748360E+03  0.17300000000E+03 0.  1.
</event>
<event>
 4    1  0.6069433E+000  0.1000000E+03  0.7546771E-02  0.1280296E+00
         21   -1    0    0  501  502  0.00000000000E+00  0.00000000000E+00  0.16947993931E+04  0.16947993931E+04  0.00000000000E+00 0. -1.
         21   -1    0    0  502  503 -0.00000000000E+00 -0.00000000000E+00 -0.36135978742E+02  0.36135978742E+02  0.00000000000E+00 0. -1.
          6    1    1    2  501    0 -0.16830995975E+03 -0.96368561694E+01  0.10174388414E+04  0.10457207598E+04  0.17300000000E+03 0. -1.
         -6    1    1    2    0  503  0.16830995975E+03  0.96368561694E+01  0.64122457297E+03  0.68521461202E+03  0.17300000000E+03 0. -1.
</event>
<event>
 4    1  0.6069433E+000  0.1000000E+03  0.7546771E-02  0.1280296E+00
         21   -1    0    0  501  502  0.00000000000E+00  0.00000000000E+00  0.91591488709E+03  0.91591488709E+03  0.00000000000E+00 0. -1.
         21   -1    0    0  502  503 -0.00000000000E+00 -0.00000000000E+00 -0.45370921206E+02  0.45370921206E+02  0.00000000000E+00 0. -1.
          6    1    1    2  501    0 -0.11440556730E+01  0.49250646777E+02  0.66142340067E+03  0.68544646037E+03  0.17300000000E+03 0. -1.
         -6    1    1    2    0  503  0.11440556730E+01 -0.49250646777E+02  0.20912056521E+03  0.27583934793E+03  0.17300000000E+03 0. -1.
</event>
<event>
 4    1  0.6069433E+000  0.1000000E+03  0.7546771E-02  0.1280296E+00
         21   -1    0    0  501  502  0.00000000000E+00  0.00000000000E+00  0.11136790058E+03  0.11136790058E+03  0.00000000000E+00 0. -1.
         21   -1    0    0  502  503 -0.00000000000E+00 -0.00000000000E+00 -0.15099929648E+04  0.15099929648E+04  0.00000000000E+00 0. -1.
          6    1    1    2  501    0  0.26012984805E+03 -0.22479838512E+03 -0.41950145431E+03  0.56930863507E+03  0.17300000000E+03 0. -1.
         -6    1    1    2    0  503 -0.26012984805E+03  0.22479838512E+03 -0.97912360987E+03  0.10520522303E+04  0.17300000000E+03 0. -1.
</event>
<event>
 4    1  0.6069433E+000  0.1000000E+03  0.7546771E-02  0.1280296E+00
         21   -1    0    0  503  502  0.00000000000E+00  0.00000000000E+00  0.50591251358E+03  0.50591251358E+03  0.00000000000E+00 0. -1.
         21   -1    0    0  501  503 -0.00000000000E+00 -0.00000000000E+00 -0.46758221607E+03  0.46758221607E+03  0.00000000000E+00 0. -1.
          6    1    1    2  501    0  0.18017885218E+03  0.26181530999E+03  0.34440199884E+03  0.49955321251E+03  0.17300000000E+03 0. -1.
         -6    1    1    2    0  502 -0.18017885218E+03 -0.26181530999E+03 -0.30607170134E+03  0.47394151715E+03  0.17300000000E+03 0. -1.
</event>
<event>
 4    1  0.6069433E+000  0.1000000E+03  0.7546771E-02  0.1280296E+00
         21   -1    0    0  503  502  0.00000000000E+00  0.00000000000E+00  0.12837364521E+04  0.12837364521E+04  0.00000000000E+00 0. -1.
         21   -1    0    0  501  503 -0.00000000000E+00 -0.00000000000E+00 -0.29616700929E+02  0.29616700929E+02  0.00000000000E+00 0. -1.
          6    1    1    2  501    0 -0.79129985543E+02  0.12883660071E+02  0.48970121945E+03  0.52551291862E+03  0.17300000000E+03 0. -1.
         -6    1    1    2    0  502  0.79129985543E+02 -0.12883660071E+02  0.76441853168E+03  0.78784023437E+03  0.17300000000E+03 0. -1.
</event>
<event>
 4    1  0.6069433E+000  0.1000000E+03  0.7546771E-02  0.1280296E+00
         21   -1    0    0  503  502  0.00000000000E+00  0.00000000000E+00  0.16993324838E+04  0.16993324838E+04  0.00000000000E+00 0. -1.
         21   -1    0    0  501  503 -0.00000000000E+00 -0.00000000000E+00 -0.13608308137E+03  0.13608308137E+03  0.00000000000E+00 0. -1.
          6    1    1    2  501    0  0.81777847266E+01  0.21905391814E+03  0.34502550570E+02  0.28137327736E+03  0.17300000000E+03 0. -1.
         -6    1    1    2    0  502 -0.81777847266E+01 -0.21905391814E+03  0.15287468519E+04  0.15540422878E+04  0.17300000000E+03 0. -1.
</event>
<event>
 4    1  0.6069433E+000  0.1000000E+03  0.7546771E-02  0.1280296E+00
         21   -1    0    0  501  502  0.00000000000E+00  0.00000000000E+00  0.29948410343E+03  0.29948410343E+03  0.00000000000E+00 0. -1.
         21   -1    0    0  502  503 -0.00000000000E+00 -0.00000000000E+00 -0.11446136097E+03  0.11446136097E+03  0.00000000000E+00 0.  1.
          6    1    1    2  501    0  0.41726850711E+02 -0.51048864855E+02  0.94523995623E+02  0.20787232240E+03  0.17300000000E+03 0. -1.
         -6    1    1    2    0  503 -0.41726850711E+02  0.51048864855E+02  0.90498746839E+02  0.20607314200E+03  0.17300000000E+03 0.  1.
</event>
<event>
 4    1  0.6069433E+000  0.1000000E+03  0.7546771E-02  0.1280296E+00
         21   -1    0    0  501  502  0.00000000000E+00  0.00000000000E+00  0.12571653216E+03  0.12571653216E+03  0.00000000000E+00 0. -1.
         21   -1    0    0  502  503 -0.00000000000E+00 -0.00000000000E+00 -0.44603766593E+03  0.44603766593E+03  0.00000000000E+00 0.  1.
          6    1    1    2  501    0  0.75357510157E+02 -0.46319256848E+02  0.32472946147E+01  0.19432903235E+03  0.17300000000E+03 0. -1.
         -6    1    1    2    0  503 -0.75357510157E+02  0.46319256848E+02 -0.32356842838E+03  0.37742516574E+03  0.17300000000E+03 0.  1.
</event>
<event>
 4    1  0.6069433E+000  0.1000000E+03  0.7546771E-02  0.1280296E+00
         21   -1    0    0  501  502  0.00000000000E+00  0.00000000000E+00  0.57202757401E+02  0.57202757401E+02  0.00000000000E+00 0. -1.
         21   -1    0    0  502  503 -0.00000000000E+00 -0.00000000000E+00 -0.71007364720E+03  0.71007364720E+03  0.00000000000E+00 0.  1.
          6    1    1    2  501    0 -0.97988648227E+02  0.11933949839E+02 -0.26791978439E+03  0.33384757781E+03  0.17300000000E+03 0. -1.
         -6    1    1    2    0  503  0.97988648227E+02 -0.11933949839E+02 -0.38495110541E+03  0.43342882679E+03  0.17300000000E+03 0.  1.
</event>
<event>
 4    1  0.6069433E+000  0.1000000E+03  0.7546771E-02  0.1280296E+00
         21   -1    0    0  501  502  0.00000000000E+00  0.00000000000E+00  0.19787027920E+03  0.19787027920E+03  0.00000000000E+00 0. -1.
         21   -1    0    0  502  503 -0.00000000000E+00 -0.00000000000E+00 -0.22993535159E+03  0.22993535159E+03  0.00000000000E+00 0.  1.
          6    1    1    2  501    0 -0.53785947665E+02 -0.41847211119E+02  0.88781454799E+02  0.20604675188E+03  0.17300000000E+03 0. -1.
         -6    1    1    2    0  503  0.53785947665E+02  0.41847211119E+02 -0.12084652719E+03  0.22175887891E+03  0.17300000000E+03 0.  1.
</event>
<event>
 4    1  0.6069433E+000  0.1000000E+03  0.7546771E-02  0.1280296E+00
         21   -1    0    0  503  502  0.00000000000E+00  0.00000000000E+00  0.19314173995E+03  0.19314173995E+03  0.00000000000E+00 0. -1.
         21   -1    0    0  501  503 -0.00000000000E+00 -0.00000000000E+00 -0.28022709678E+03  0.28022709678E+03  0.00000000000E+00 0.  1.
          6    1    1    2  501    0  0.21117787582E+02  0.13448679591E+03 -0.12009480182E+03  0.25076766269E+03  0.17300000000E+03 0.  1.
         -6    1    1    2    0  502 -0.21117787582E+02 -0.13448679591E+03  0.33009444988E+02  0.22260117404E+03  0.17300000000E+03 0. -1.
</event>
<event>
 4    1  0.6069433E+000  0.1000000E+03  0.7546771E-02  0.1280296E+00
         21   -1    0    0  503  502  0.00000000000E+00  0.00000000000E+00  0.95540770501E+02  0.95540770501E+02  0.00000000000E+00 0. -1.
         21   -1    0    0  501  503 -0.00000000000E+00 -0.00000000000E+00 -0.87916889118E+03  0.87916889118E+03  0.00000000000E+00 0.  1.
          6    1    1    2  501    0 -0.12138387982E+03  0.19355348118E+03 -0.46454026515E+03  0.54582383083E+03  0.17300000000E+03 0.  1.
         -6    1    1    2    0  502  0.12138387982E+03 -0.19355348118E+03 -0.31908785552E+03  0.42888583084E+03  0.17300000000E+03 0. -1.
</event>
<event>
 4    1  0.6069433E+000  0.1000000E+03  0.7546771E-02  0.1280296E+00
         21   -1    0    0  501  502  0.00000000000E+00  0.00000000000E+00  0.47290408455E+03  0.47290408455E+03  0.00000000000E+00 0. -1.
         21   -1    0    0  502  503 -0.00000000000E+00 -0.00000000000E+00 -0.20583242526E+04  0.20583242526E+04  0.00000000000E+00 0. -1.
          6    1    1    2  501    0 -0.50646344267E+03 -0.46105816338E+03  0.90820500504E+02  0.71221991834E+03  0.17300000000E+03 0. -1.
         -6    1    1    2    0  503  0.50646344267E+03  0.46105816338E+03 -0.16762406685E+04  0.18190084188E+04  0.17300000000E+03 0. -1.
</event>
<event>
 4    1  0.6069433E+000  0.1000000E+03  0.7546771E-02  0.1280296E+00
         21   -1    0    0  501  502  0.00000000000E+00  0.00000000000E+00  0.10258639923E+03  0.10258639923E+03  0.00000000000E+00 0. -1.
         21   -1    0    0  502  503 -0.00000000000E+00 -0.00000000000E+00 -0.36033629761E+03  0.36033629761E+03  0.00000000000E+00 0. -1.
          6    1    1    2  501    0  0.11611461724E+02  0.75986126678E+02 -0.88444167059E+02  0.20894996573E+03  0.17300000000E+03 0. -1.
         -6    1    1    2    0  503 -0.11611461724E+02 -0.75986126678E+02 -0.16930573132E+03  0.25397273111E+03  0.17300000000E+03 0. -1.
</event>
<event>
 4    1  0.6069433E+000  0.1000000E+03  0.7546771E-02  0.1280296E+00
         21   -1    0    0  501  502  0.00000000000E+00  0.00000000000E+00  0.18036865491E+04  0.18036865491E+04  0.00000000000E+00 0. -1.
         21   -1    0    0  502  503 -0.00000000000E+00 -0.00000000000E+00 -0.24049672481E+02  0.24049672481E+02  0.00000000000E+00 0. -1.
          6    1    1    2  501    0  0.46443639776E+02 -0.65181421155E+02  0.12580668312E+04  0.12724255503E+04  0.17300000000E+03 0. -1.
         -6    1    1    2    0  503 -0.46443639776E+02  0.65181421155E+02  0.52157004543E+03  0.55531067128E+03  0.17300000000E+03 0. -1.
</event>
<event>
 4    1  0.6069433E+000  0.1000000E+03  0.7546771E-02  0.1280296E+00
         21   -1    0    0  501  502  0.00000000000E+00  0.00000000000E+00  0.83649998399E+03  0.83649998399E+03  0.00000000000E+00 0. -1.
         21   -1    0    0  502  503 -0.00000000000E+00 -0.00000000000E+00 -0.34982528948E+03  0.34982528948E+03  0.00000000000E+00 0. -1.
          6    1    1    2  501    0  0.75305816315E+02 -0.33873301482E+03  0.65695647858E+03  0.76284456873E+03  0.17300000000E+03 0. -1.
         -6    1    1    2    0  503 -0.75305816315E+02  0.33873301482E+03 -0.17028178407E+03  0.42348070474E+03  0.17300000000E+03 0. -1.
</event>
<event>
 4    1  0.6069433E+000  0.1000000E+03  0.7546771E-02  0.1280296E+00
         21   -1    0    0  501  502  0.00000000000E+00  0.00000000000E+00  0.91422129891E+03  0.91422129891E+03  0.00000000000E+00 0.  1.
         21   -1    0    0  502  503 -0.00000000000E+00 -0.00000000000E+00 -0.15262463941E+03  0.15262463941E+03  0.00000000000E+00 0.  1.
          6    1    1    2  501    0  0.29151566310E+03 -0.15666084533E+03  0.36805021446E+03  0.52432238428E+03  0.17300000000E+03 0.  1.
         -6    1    1    2    0  503 -0.29151566310E+03  0.15666084533E+03  0.39354644503E+03  0.54252355404E+03  0.17300000000E+03 0.  1.
</event>
<event>
 4    1  0.6069433E+000  0.1000000E+03  0.7546771E-02  0.1280296E+00
         21   -1    0    0  501  502  0.00000000000E+00  0.00000000000E+00  0.12666319931E+03  0.12666319931E+03  0.00000000000E+00 0.  1.
         21   -1    0    0  502  503 -0.00000000000E+00 -0.00000000000E+00 -0.62728062179E+03  0.62728062179E+03  0.00000000000E+00 0.  1.
          6    1    1    2  501    0  0.48059814918E+02  0.19564303588E+03 -0.12386903354E+03  0.29301617834E+03  0.17300000000E+03 0.  1.
         -6    1    1    2    0  503 -0.48059814918E+02 -0.19564303588E+03 -0.37674838893E+03  0.46092764276E+03  0.17300000000E+03 0.  1.
</event>
<event>
 4    1  0.6069433E+000  0.1000000E+03  0.7546771E-02  0.1280296E+00
         21   -1    0    0  501  502  0.00000000000E+00  0.00000000000E+00  0.15209888635E+03  0.15209888635E+03  0.00000000000E+00 0.  1.
         21   -1    0    0  502  503 -0.00000000000E+00 -0.00000000000E+00 -0.21691634919E+03  0.21691634919E+03  0.00000000000E+00 0. -1.
          6    1    1    2  501    0 -0.20462909079E+01  0.51955109676E+02 -0.51687783882E+02  0.18789398003E+03  0.17300000000E+03 0.  1.
         -6    1    1    2    0  503  0.20462909079E+01 -0.51955109676E+02 -0.13129678957E+02  0.18112125551E+03  0.17300000000E+03 0. -1.
</event>
<event>
 4    1  0.6069433E+000  0.1000000E+03  0.7546771E-02  0.1280296E+00
         21   -1    0    0  501  502  0.00000000000E+00  0.00000000000E+00  0.93311758839E+03  0.93311758839E+03  0.00000000000E+00 0.  1.
         21   -1    0    0  502  503 -0.00000000000E+00 -0.00000000000E+00 -0.45853954497E+02  0.45853954497E+02  0.00000000000E+00 0. -1.
          6    1    1    2  501    0  0.94976031293E+02 -0.16470146706E+02  0.58495053209E+03  0.61756605901E+03  0.17300000000E+03 0.  1.
         -6    1    1    2    0  503 -0.94976031293E+02  0.16470146706E+02  0.30231310181E+03  0.36140548388E+03  0.17300000000E+03 0. -1.
</event>
<event>
 4    1  0.6069433E+000  0.1000000E+03  0.7546771E-02  0.1280296E+00
         21   -1    0    0  501  502  0.00000000000E+00  0.00000000000E+00  0.23450484575E+03  0.23450484575E+03  0.00000000000E+00 0.  1.
         21   -1    0    0  502  503 -0.00000000000E+00 -0.00000000000E+00 -0.17925726198E+04  0.17925726198E+04  0.00000000000E+00 0. -1.
          6    1    1    2  501    0  0.21279770398E+03 -0.19831770769E+03  0.85461513561E+02  0.34906367084E+03  0.17300000000E+03 0.  1.
         -6    1    1    2    0  503 -0.21279770398E+03  0.19831770769E+03 -0.16435292876E+04  0.16780137947E+04  0.17300000000E+03 0. -1.
</event>
<event>
 4    1  0.6069433E+000  0.1000000E+03  0.7546771E-02  0.1280296E+00
         21   -1    0    0  503  502  0.00000000000E+00  0.00000000000E+00  0.44501226139E+03  0.44501226139E+03  0.00000000000E+00 0.  1.
         21   -1    0    0  501  503 -0.00000000000E+00 -0.00000000000E+00 -0.56986619318E+03  0.56986619318E+03  0.00000000000E+00 0. -1.
          6    1    1    2  501    0  0.27051391929E+03  0.26512321050E+02 -0.45241363712E+03  0.55541676492E+03  0.17300000000E+03 0. -1.
         -6    1    1    2    0  502 -0.27051391929E+03 -0.26512321050E+02  0.32755970533E+03  0.45946168965E+03  0.17300000000E+03 0.  1.
</event>
<event>
 4    1  0.6069433E+000  0.1000000E+03  0.7546771E-02  0.1280296E+00
         21   -1    0    0  503  502  0.00000000000E+00  0.00000000000E+00  0.54992536141E+03  0.54992536141E+03  0.00000000000E+00 0.  1.
         21   -1    0    0  501  503 -0.00000000000E+00 -0.00000000000E+00 -0.44606367690E+03  0.44606367690E+03  0.00000000000E+00 0. -1.
          6    1    1    2  501    0 -0.11861678815E+02 -0.15788429137E+02 -0.41427323826E+03  0.44937878216E+03  0.17300000000E+03 0. -1.
         -6    1    1    2    0  502  0.11861678815E+02  0.15788429137E+02  0.51813492278E+03  0.54661025614E+03  0.17300000000E+03 0.  1.
</event>
<event>
 4    1  0.6069433E+000  0.1000000E+03  0.7546771E-02  0.1280296E+00
         21   -1    0    0  503  502  0.00000000000E+00  0.00000000000E+00  0.10024312632E+04  0.10024312632E+04  0.00000000000E+00 0.  1.
         21   -1    0    0  501  503 -0.00000000000E+00 -0.00000000000E+00 -0.28706662731E+03  0.28706662731E+03  0.00000000000E+00 0. -1.
          6    1    1    2  501    0 -0.14009495651E+03  0.12628413535E+03 -0.20895333002E+03  0.33040092888E+03  0.17300000000E+03 0. -1.
         -6    1    1    2    0  502  0.14009495651E+03 -0.12628413535E+03  0.92431796587E+03  0.95909696158E+03  0.17300000000E+03 0.  1.
</event>
<event>
 4    1  0.6069433E+000  0.1000000E+03  0.7546771E-02  0.1280296E+00
         21   -1    0    0  503  502  0.00000000000E+00  0.00000000000E+00  0.58873080341E+03  0.58873080341E+03  0.00000000000E+00 0.  1.
         21   -1    0    0  501  503 -0.00000000000E+00 -0.00000000000E+00 -0.15943718350E+03  0.15943718350E+03  0.00000000000E+00 0. -1.
          6    1    1    2  501    0  0.26850665189E+01  0.84738993639E+01 -0.93900748882E+02  0.19704153672E+03  0.17300000000E+03 0. -1.
         -6    1    1    2    0  502 -0.26850665189E+01 -0.84738993639E+01  0.52319436880E+03  0.55112645018E+03  0.17300000000E+03 0.  1.
</event>
<event>
 4    1  0.6069433E+000  0.1000000E+03  0.7546771E-02  0.1280296E+00
         21   -1    0    0  501  502  0.00000000000E+00  0.00000000000E+00  0.64818360438E+03  0.64818360438E+03  0.00000000000E+00 0.  1.
         21   -1    0    0  502  503 -0.00000000000E+00 -0.00000000000E+00 -0.89864109953E+02  0.89864109953E+02  0.00000000000E+00 0.  1.
          6    1    1    2  501    0  0.73800768806E+02  0.13846109740E+03  0.37218398069E+03  0.43939497545E+03  0.17300000000E+03 0.  1.
         -6    1    1    2    0  503 -0.73800768806E+02 -0.13846109740E+03  0.18613551374E+03  0.29865273889E+03  0.17300000000E+03 0.  1.
</event>
<event>
 4    1  0.6069433E+000  0.1000000E+03  0.7546771E-02  0.1280296E+00
         21   -1    0    0  503  502  0.00000000000E+00  0.00000000000E+00  0.11786086798E+04  0.11786086798E+04  0.00000000000E+00 0.  1.
         21   -1    0    0  501  503 -0.00000000000E+00 -0.00000000000E+00 -0.71525227479E+02  0.71525227479E+02  0.00000000000E+00 0. -1.
          6    1    1    2  501    0  0.22942460994E+03  0.41204169917E+02  0.56678103094E+03  0.63679130985E+03  0.17300000000E+03 0.  1.
         -6    1    1    2    0  502 -0.22942460994E+03 -0.41204169917E+02  0.54030242136E+03  0.61334259741E+03  0.17300000000E+03 0.  1.
</event>
<event>
 4    1  0.6069433E+000  0.1000000E+03  0.7546771E-02  0.1280296E+00
         21   -1    0    0  503  502  0.00000000000E+00  0.00000000000E+00  0.32720792548E+03  0.32720792548E+03  0.00000000000E+00 0. -1.
         21   -1    0    0  501  503 -0.00000000000E+00 -0.00000000000E+00 -0.10715365697E+03  0.10715365697E+03  0.00000000000E+00 0. -1.
          6    1    1    2  501    0 -0.66312389159E+02  0.18378401841E+02  0.13314963470E+03  0.22889500613E+03  0.17300000000E+03 0. -1.
         -6    1    1    2    0  502  0.66312389159E+02 -0.18378401841E+02  0.86904633811E+02  0.20546657633E+03  0.17300000000E+03 0. -1.
</event>
<event>
 4    1  0.6069433E+000  0.1000000E+03  0.7546771E-02  0.1280296E+00
         21   -1    0    0  503  502  0.00000000000E+00  0.00000000000E+00  0.11364246464E+04  0.11364246464E+04  0.00000000000E+00 0. -1.
         21   -1    0    0  501  503 -0.00000000000E+00 -0.00000000000E+00 -0.38062390954E+02  0.38062390954E+02  0.00000000000E+00 0. -1.
          6    1    1    2  501    0  0.44536648625E+02  0.13245005103E+02  0.84756132803E+03  0.86628410351E+03  0.17300000000E+03 0. -1.
         -6    1    1    2    0  502 -0.44536648625E+02 -0.13245005103E+02  0.25080092738E+03  0.30820293381E+03  0.17300000000E+03 0. -1.
</event>
<event>
 4    1  0.6069433E+000  0.1000000E+03  0.7546771E-02  0.1280296E+00
         21   -1    0    0  501  502  0.00000000000E+00  0.00000000000E+00  0.28899262390E+03  0.28899262390E+03  0.00000000000E+00 0.  1.
         21   -1    0    0  502  503 -0.00000000000E+00 -0.00000000000E+00 -0.15441368977E+03  0.15441368977E+03  0.00000000000E+00 0.  1.
          6    1    1    2  501    0 -0.36499623810E+02  0.11548387500E+03  0.61869550346E+02  0.22005814955E+03  0.17300000000E+03 0.  1.
         -6    1    1    2    0  503  0.36499623810E+02 -0.11548387500E+03  0.72709383791E+02  0.22334816412E+03  0.17300000000E+03 0.  1.
</event>
<event>
 4    1  0.6069433E+000  0.1000000E+03  0.7546771E-02  0.1280296E+00
         21   -1    0    0  501  502  0.00000000000E+00  0.00000000000E+00  0.36456187958E+03  0.36456187958E+03  0.00000000000E+00 0.  1.
         21   -1    0    0  502  503 -0.00000000000E+00 -0.00000000000E+00 -0.19192981604E+03  0.19192981604E+03  0.00000000000E+00 0.  1.
          6    1    1    2  501    0  0.64528597550E+02 -0.41072190434E+02  0.28081805406E+03  0.33858328992E+03  0.17300000000E+03 0.  1.
         -6    1    1    2    0  503 -0.64528597550E+02  0.41072190434E+02 -0.10818599052E+03  0.21790840570E+03  0.17300000000E+03 0.  1.
</event>
<event>
 4    1  0.6069433E+000  0.1000000E+03  0.7546771E-02  0.1280296E+00
         21   -1    0    0  501  502  0.00000000000E+00  0.00000000000E+00  0.38513634472E+03  0.38513634472E+03  0.00000000000E+00 0.  1.
         21   -1    0    0  502  503 -0.00000000000E+00 -0.00000000000E+00 -0.29135488972E+03  0.29135488972E+03  0.00000000000E+00 0. -1.
          6    1    1    2  501    0  0.57171107866E+02  0.13123200225E+03  0.29789426227E+03  0.37304204251E+03  0.17300000000E+03 0. -1.
         -6    1    1    2    0  503 -0.57171107866E+02 -0.13123200225E+03 -0.20411280727E+03  0.30344919193E+03  0.17300000000E+03 0. -1.
</event>
<event>
 4    1  0.6069433E+000  0.1000000E+03  0.7546771E-02  0.1280296E+00
         21   -1    0    0  501  502  0.00000000000E+00  0.00000000000E+00  0.46333216686E+03  0.46333216686E+03  0.00000000000E+00 0. -1.
         21   -1    0    0  502  503 -0.00000000000E+00 -0.00000000000E+00 -0.36281300530E+03  0.36281300530E+03  0.00000000000E+00 0. -1.
          6    1    1    2  501    0 -0.12646714284E+03 -0.16792893116E+03  0.35911565606E+03  0.45065188180E+03  0.17300000000E+03 0. -1.
         -6    1    1    2    0  503  0.12646714284E+03  0.16792893116E+03 -0.25859649450E+03  0.37549329037E+03  0.17300000000E+03 0. -1.
</event>
<event>
 4    1  0.6069433E+000  0.1000000E+03  0.7546771E-02  0.1280296E+00
         21   -1    0    0  501  502  0.00000000000E+00  0.00000000000E+00  0.12278184957E+03  0.12278184957E+03  0.00000000000E+00 0. -1.
         21   -1    0    0  502  503 -0.00000000000E+00 -0.00000000000E+00 -0.53040962673E+03  0.53040962673E+03  0.00000000000E+00 0. -1.
          6    1    1    2  501    0 -0.53082023267E+02 -0.83845869044E+01  0.26219334569E+02  0.18304222463E+03  0.17300000000E+03 0.  1.
         -6    1    1    2    0  503  0.53082023267E+02  0.83845869044E+01 -0.43384711173E+03  0.47014925167E+03  0.17300000000E+03 0.  1.
</event>
<event>
 4    1  0.6069433E+000  0.1000000E+03  0.7546771E-02  0.1280296E+00
         21   -1    0    0  501  502  0.00000000000E+00  0.00000000000E+00  0.25346915874E+03  0.25346915874E+03  0.00000000000E+00 0. -1.
         21   -1    0    0  502  503 -0.00000000000E+00 -0.00000000000E+00 -0.52143419309E+03  0.52143419309E+03  0.00000000000E+00 0. -1.
          6    1    1    2  501    0  0.17519333488E+03 -0.98273862729E+02  0.13114729035E+03  0.29576860626E+03  0.17300000000E+03 0.  1.
         -6    1    1    2    0  503 -0.17519333488E+03  0.98273862729E+02 -0.39911232470E+03  0.47913474557E+03  0.17300000000E+03 0.  1.
</event>
<event>
 4    1  0.6069433E+000  0.1000000E+03  0.7546771E-02  0.1280296E+00
         21   -1    0    0  501  502  0.00000000000E+00  0.00000000000E+00  0.11177100599E+04  0.11177100599E+04  0.00000000000E+00 0. -1.
         21   -1    0    0  502  503 -0.00000000000E+00 -0.00000000000E+00 -0.76300147110E+02  0.76300147110E+02  0.00000000000E+00 0. -1.
          6    1    1    2  501    0 -0.60751064603E+02 -0.71497145550E+01  0.98513506148E+03  0.10020787891E+04  0.17300000000E+03 0.  1.
         -6    1    1    2    0  503  0.60751064603E+02  0.71497145550E+01  0.56274851270E+02  0.19193141784E+03  0.17300000000E+03 0.  1.
</event>
<event>
 4    1  0.6069433E+000  0.1000000E+03  0.7546771E-02  0.1280296E+00
         21   -1    0    0  501  502  0.00000000000E+00  0.00000000000E+00  0.45394017777E+02  0.45394017777E+02  0.00000000000E+00 0. -1.
         21   -1    0    0  502  503 -0.00000000000E+00 -0.00000000000E+00 -0.18085769674E+04  0.18085769674E+04  0.00000000000E+00 0. -1.
          6    1    1    2  501    0  0.14386818110E+03  0.16454615080E+03 -0.66708608723E+03  0.72298432698E+03  0.17300000000E+03 0.  1.
         -6    1    1    2    0  503 -0.14386818110E+03 -0.16454615080E+03 -0.10960968623E+04  0.11309866582E+04  0.17300000000E+03 0.  1.
</event>
<event>
 4    1  0.6069433E+000  0.1000000E+03  0.7546771E-02  0.1280296E+00
         21   -1    0    0  501  502  0.00000000000E+00  0.00000000000E+00  0.42042086596E+03  0.42042086596E+03  0.00000000000E+00 0. -1.
         21   -1    0    0  502  503 -0.00000000000E+00 -0.00000000000E+00 -0.16015898741E+03  0.16015898741E+03  0.00000000000E+00 0. -1.
          6    1    1    2  501    0 -0.65535441340E+01  0.10277244632E+03  0.31327043926E+03  0.37238755723E+03  0.17300000000E+03 0.  1.
         -6    1    1    2    0  503  0.65535441340E+01 -0.10277244632E+03 -0.53008560705E+02  0.20819229614E+03  0.17300000000E+03 0.  1.
</event>
<event>
 4    1  0.6069433E+000  0.1000000E+03  0.7546771E-02  0.1280296E+00
         21   -1    0    0  501  502  0.00000000000E+00  0.00000000000E+00  0.95684232174E+02  0.95684232174E+02  0.00000000000E+00 0. -1.
         21   -1    0    0  502  503 -0.00000000000E+00 -0.00000000000E+00 -0.83410506330E+03  0.83410506330E+03  0.00000000000E+00 0. -1.
          6    1    1    2  501    0  0.87714877272E+02  0.20378542858E+03 -0.41146425280E+03  0.49845183512E+03  0.17300000000E+03 0. -1.
         -6    1    1    2    0  503 -0.87714877272E+02 -0.20378542858E+03 -0.32695657832E+03  0.43133746036E+03  0.17300000000E+03 0. -1.
</event>
<event>
 4    1  0.6069433E+000  0.1000000E+03  0.7546771E-02  0.1280296E+00
         21   -1    0    0  501  502  0.00000000000E+00  0.00000000000E+00  0.10155012909E+03  0.10155012909E+03  0.00000000000E+00 0.  1.
         21   -1    0    0  502  503 -0.00000000000E+00 -0.00000000000E+00 -0.40891312201E+03  0.40891312201E+03  0.00000000000E+00 0. -1.
          6    1    1    2  501    0  0.93277890042E+02  0.45009201512E+02 -0.11674673264E+03  0.23299225861E+03  0.17300000000E+03 0.  1.
         -6    1    1    2    0  503 -0.93277890042E+02 -0.45009201512E+02 -0.19061626028E+03  0.27747099249E+03  0.17300000000E+03 0. -1.
</event>
<event>
 4    1  0.6069433E+000  0.1000000E+03  0.7546771E-02  0.1280296E+00
         21   -1    0    0  501  502  0.00000000000E+00  0.00000000000E+00  0.14714871926E+03  0.14714871926E+03  0.00000000000E+00 0.  1.
         21   -1    0    0  502  503 -0.00000000000E+00 -0.00000000000E+00 -0.49589078887E+03  0.49589078887E+03  0.00000000000E+00 0. -1.
          6    1    1    2  501    0  0.40704144915E+02 -0.16926188638E+03 -0.40056315279E+02  0.24867633982E+03  0.17300000000E+03 0.  1.
         -6    1    1    2    0  503 -0.40704144915E+02  0.16926188638E+03 -0.30868575433E+03  0.39436316831E+03  0.17300000000E+03 0. -1.
</event>
<event>
 4    1  0.6069433E+000  0.1000000E+03  0.7546771E-02  0.1280296E+00
         21   -1    0    0  503  502  0.00000000000E+00  0.00000000000E+00  0.27027412065E+03  0.27027412065E+03  0.00000000000E+00 0.  1.
         21   -1    0    0  501  503 -0.00000000000E+00 -0.00000000000E+00 -0.15053435083E+03  0.15053435083E+03  0.00000000000E+00 0.  1.
          6    1    1    2  501    0 -0.32277163271E+02  0.96307756026E+02  0.81739126392E+02  0.21662706184E+03  0.17300000000E+03 0.  1.
         -6    1    1    2    0  502  0.32277163271E+02 -0.96307756026E+02  0.38000643437E+02  0.20418140964E+03  0.17300000000E+03 0.  1.
</event>
<event>
 4    1  0.6069433E+000  0.1000000E+03  0.7546771E-02  0.1280296E+00
         21   -1    0    0  503  502  0.00000000000E+00  0.00000000000E+00  0.30823780196E+03  0.30823780196E+03  0.00000000000E+00 0.  1.
         21   -1    0    0  501  503 -0.00000000000E+00 -0.00000000000E+00 -0.14250318780E+03  0.14250318780E+03  0.00000000000E+00 0.  1.
          6    1    1    2  501    0 -0.53569605554E+02 -0.97116352663E+02  0.38601034116E+02  0.20909406598E+03  0.17300000000E+03 0.  1.
         -6    1    1    2    0  502  0.53569605554E+02  0.97116352663E+02  0.12713358005E+03  0.24164692377E+03  0.17300000000E+03 0.  1.
</event>
<event>
 4    1  0.6069433E+000  0.1000000E+03  0.7546771E-02  0.1280296E+00
         21   -1    0    0  503  502  0.00000000000E+00  0.00000000000E+00  0.66667825046E+03  0.66667825046E+03  0.00000000000E+00 0.  1.
         21   -1    0    0  501  503 -0.00000000000E+00 -0.00000000000E+00 -0.22265528579E+03  0.22265528579E+03  0.00000000000E+00 0. -1.
          6    1    1    2  501    0 -0.22675211435E+03 -0.13693586771E+03 -0.31749299036E+02  0.31797007913E+03  0.17300000000E+03 0. -1.
         -6    1    1    2    0  502  0.22675211435E+03  0.13693586771E+03  0.47577226371E+03  0.57136345713E+03  0.17300000000E+03 0.  1.
</event>
<event>
 4    1  0.6069433E+000  0.1000000E+03  0.7546771E-02  0.1280296E+00
         21   -1    0    0  503  502  0.00000000000E+00  0.00000000000E+00  0.25833535670E+02  0.25833535670E+02  0.00000000000E+00 0.  1.
         21   -1    0    0  501  503 -0.00000000000E+00 -0.00000000000E+00 -0.18211739036E+04  0.18211739036E+04  0.00000000000E+00 0. -1.
          6    1    1    2  501    0  0.40138448633E+02  0.92871220316E+02 -0.12508816024E+04  0.12668346150E+04  0.17300000000E+03 0. -1.
         -6    1    1    2    0  502 -0.40138448633E+02 -0.92871220316E+02 -0.54445876554E+03  0.58017282424E+03  0.17300000000E+03 0.  1.
</event>
<event>
 4    1  0.6069433E+000  0.1000000E+03  0.7546771E-02  0.1280296E+00
         21   -1    0    0  501  502  0.00000000000E+00  0.00000000000E+00  0.21800893725E+03  0.21800893725E+03  0.00000000000E+00 0.  1.
         21   -1    0    0  502  503 -0.00000000000E+00 -0.00000000000E+00 -0.22238099845E+03  0.22238099845E+03  0.00000000000E+00 0. -1.
          6    1    1    2  501    0  0.49818627711E+01 -0.14632988959E+02  0.13314654832E+03  0.21885142598E+03  0.17300000000E+03 0.  1.
         -6    1    1    2    0  503 -0.49818627711E+01  0.14632988959E+02 -0.13751860952E+03  0.22153850972E+03  0.17300000000E+03 0. -1.
</event>
<event>
 4    1  0.6069433E+000  0.1000000E+03  0.7546771E-02  0.1280296E+00
         21   -1    0    0  501  502  0.00000000000E+00  0.00000000000E+00  0.75414600227E+03  0.75414600227E+03  0.00000000000E+00 0.  1.
         21   -1    0    0  502  503 -0.00000000000E+00 -0.00000000000E+00 -0.18598130818E+03  0.18598130818E+03  0.00000000000E+00 0. -1.
          6    1    1    2  501    0  0.10864053560E+03 -0.78489337423E+02  0.66554090438E+03  0.70059762879E+03  0.17300000000E+03 0.  1.
         -6    1    1    2    0  503 -0.10864053560E+03  0.78489337423E+02 -0.97376210290E+02  0.23952968166E+03  0.17300000000E+03 0. -1.
</event>
<event>
 4    1  0.6069433E+000  0.1000000E+03  0.7546771E-02  0.1280296E+00
         21   -1    0    0  501  502  0.00000000000E+00  0.00000000000E+00  0.29459536601E+03  0.29459536601E+03  0.00000000000E+00 0.  1.
         21   -1    0    0  502  503 -0.00000000000E+00 -0.00000000000E+00 -0.13603385732E+03  0.13603385732E+03  0.00000000000E+00 0. -1.
          6    1    1    2  501    0  0.33638989902E+02  0.22454135774E+02  0.17850236306E+03  0.25184889015E+03  0.17300000000E+03 0.  1.
         -6    1    1    2    0  503 -0.33638989902E+02 -0.22454135774E+02 -0.19940854370E+02  0.17878033317E+03  0.17300000000E+03 0. -1.
</event>
<event>
 4    1  0.6069433E+000  0.1000000E+03  0.7546771E-02  0.1280296E+00
         21   -1    0    0  501  502  0.00000000000E+00  0.00000000000E+00  0.36269746685E+03  0.36269746685E+03  0.00000000000E+00 0.  1.
         21   -1    0    0  502  503 -0.00000000000E+00 -0.00000000000E+00 -0.60321132350E+03  0.60321132350E+03  0.00000000000E+00 0. -1.
          6    1    1    2  501    0 -0.23823976876E+03  0.69164457985E+01  0.25494525104E+03  0.38952805504E+03  0.17300000000E+03 0.  1.
         -6    1    1    2    0  503  0.23823976876E+03 -0.69164457985E+01 -0.49545910769E+03  0.57638073531E+03  0.17300000000E+03 0. -1.
</event>
<event>
 4    1  0.6069433E+000  0.1000000E+03  0.7546771E-02  0.1280296E+00
         21   -1    0    0  503  502  0.00000000000E+00  0.00000000000E+00  0.63014661418E+03  0.63014661418E+03  0.00000000000E+00 0.  1.
         21   -1    0    0  501  503 -0.00000000000E+00 -0.00000000000E+00 -0.48973101118E+02  0.48973101118E+02  0.00000000000E+00 0.  1.
          6    1    1    2  501    0 -0.19722739018E+02  0.16550761952E+02  0.25892441594E+03  0.31246402565E+03  0.17300000000E+03 0.  1.
         -6    1    1    2    0  502  0.19722739018E+02 -0.16550761952E+02  0.32224909712E+03  0.36665568965E+03  0.17300000000E+03 0.  1.
</event>
<event>
 4    1  0.6069433E+000  0.1000000E+03  0.7546771E-02  0.1280296E+00
         21   -1    0    0  503  502  0.00000000000E+00  0.00000000000E+00  0.36854954865E+03  0.36854954865E+03  0.00000000000E+00 0.  1.
         21   -1    0    0  501  503 -0.00000000000E+00 -0.00000000000E+00 -0.45835086967E+03  0.45835086967E+03  0.00000000000E+00 0.  1.
          6    1    1    2  501    0  0.90752078551E+02  0.30185706844E+01 -0.40864703927E+03  0.45295303756E+03  0.17300000000E+03 0.  1.
         -6    1    1    2    0  502 -0.90752078551E+02 -0.30185706844E+01  0.31884571825E+03  0.37394738076E+03  0.17300000000E+03 0.  1.
</event>
<event>
 4    1  0.6069433E+000  0.1000000E+03  0.7546771E-02  0.1280296E+00
         21   -1    0    0  501  502  0.00000000000E+00  0.00000000000E+00  0.16881930783E+04  0.16881930783E+04  0.00000000000E+00 0.  1.
         21   -1    0    0  502  503 -0.00000000000E+00 -0.00000000000E+00 -0.19620898683E+02  0.19620898683E+02  0.00000000000E+00 0.  1.
          6    1    1    2  501    0 -0.53660134290E+02  0.17737291384E+02  0.83859598699E+03  0.85811785375E+03  0.17300000000E+03 0.  1.
         -6    1    1    2    0  503  0.53660134290E+02 -0.17737291384E+02  0.82997619259E+03  0.84969612321E+03  0.17300000000E+03 0.  1.
</event>
<event>
 4    1  0.6069433E+000  0.1000000E+03  0.7546771E-02  0.1280296E+00
         21   -1    0    0  501  502  0.00000000000E+00  0.00000000000E+00  0.13632166823E+04  0.13632166823E+04  0.00000000000E+00 0.  1.
         21   -1    0    0  502  503 -0.00000000000E+00 -0.00000000000E+00 -0.32927455313E+02  0.32927455313E+02  0.00000000000E+00 0.  1.
          6    1    1    2  501    0  0.19645010323E+02 -0.11049642336E+03  0.82530631736E+03  0.85067908372E+03  0.17300000000E+03 0.  1.
         -6    1    1    2    0  503 -0.19645010323E+02  0.11049642336E+03  0.50498290965E+03  0.54546505391E+03  0.17300000000E+03 0.  1.
</event>
<event>
 4    1  0.6069433E+000  0.1000000E+03  0.7546771E-02  0.1280296E+00
         21   -1    0    0  501  502  0.00000000000E+00  0.00000000000E+00  0.10688336818E+03  0.10688336818E+03  0.00000000000E+00 0. -1.
         21   -1    0    0  502  503 -0.00000000000E+00 -0.00000000000E+00 -0.56842176278E+03  0.56842176278E+03  0.00000000000E+00 0. -1.
          6    1    1    2  501    0 -0.73712368224E+02 -0.14031831909E+03 -0.12731819546E+03  0.26694880932E+03  0.17300000000E+03 0.  1.
         -6    1    1    2    0  503  0.73712368224E+02  0.14031831909E+03 -0.33422019914E+03  0.40835632163E+03  0.17300000000E+03 0.  1.
</event>
<event>
 4    1  0.6069433E+000  0.1000000E+03  0.7546771E-02  0.1280296E+00
         21   -1    0    0  501  502  0.00000000000E+00  0.00000000000E+00  0.14454442814E+03  0.14454442814E+03  0.00000000000E+00 0. -1.
         21   -1    0    0  502  503 -0.00000000000E+00 -0.00000000000E+00 -0.31117116129E+03  0.31117116129E+03  0.00000000000E+00 0. -1.
          6    1    1    2  501    0  0.65839297410E+02 -0.52304225936E+02  0.12654204900E+02  0.19276844668E+03  0.17300000000E+03 0.  1.
         -6    1    1    2    0  503 -0.65839297410E+02  0.52304225936E+02 -0.17928093805E+03  0.26294714275E+03  0.17300000000E+03 0.  1.
</event>
<event>
 4    1  0.6069433E+000  0.1000000E+03  0.7546771E-02  0.1280296E+00
         21   -1    0    0  501  502  0.00000000000E+00  0.00000000000E+00  0.34149556271E+03  0.34149556271E+03  0.00000000000E+00 0. -1.
         21   -1    0    0  502  503 -0.00000000000E+00 -0.00000000000E+00 -0.17393973955E+03  0.17393973955E+03  0.00000000000E+00 0. -1.
          6    1    1    2  501    0 -0.54574137239E+02 -0.80604885536E+02  0.23330322544E+03  0.30632479336E+03  0.17300000000E+03 0. -1.
         -6    1    1    2    0  503  0.54574137239E+02  0.80604885536E+02 -0.65747402274E+02  0.20911050890E+03  0.17300000000E+03 0. -1.
</event>
<event>
 4    1  0.6069433E+000  0.1000000E+03  0.7546771E-02  0.1280296E+00
         21   -1    0    0  503  502  0.00000000000E+00  0.00000000000E+00  0.26266922375E+03  0.26266922375E+03  0.00000000000E+00 0. -1.
         21   -1    0    0  501  503 -0.00000000000E+00 -0.00000000000E+00 -0.73239287684E+03  0.73239287684E+03  0.00000000000E+00 0. -1.
          6    1    1    2  501    0 -0.95440261005E+02 -0.16408314338E+03 -0.63817691508E+03  0.68791779764E+03  0.17300000000E+03 0. -1.
         -6    1    1    2    0  502  0.95440261005E+02  0.16408314338E+03  0.16845326199E+03  0.30714430295E+03  0.17300000000E+03 0. -1.
</event>
<event>
 4    1  0.6069433E+000  0.1000000E+03  0.7546771E-02  0.1280296E+00
         21   -1    0    0  503  502  0.00000000000E+00  0.00000000000E+00  0.14901176361E+04  0.14901176361E+04  0.00000000000E+00 0.  1.
         21   -1    0    0  501  503 -0.00000000000E+00 -0.00000000000E+00 -0.18422157557E+03  0.18422157557E+03  0.00000000000E+00 0.  1.
          6    1    1    2  501    0  0.10406858804E+03 -0.25268512344E+02 -0.11851861480E+03  0.23546641116E+03  0.17300000000E+03 0.  1.
         -6    1    1    2    0  502 -0.10406858804E+03  0.25268512344E+02  0.14244146754E+04  0.14388728005E+04  0.17300000000E+03 0.  1.
</event>
<event>
 4    1  0.6069433E+000  0.1000000E+03  0.7546771E-02  0.1280296E+00
         21   -1    0    0  503  502  0.00000000000E+00  0.00000000000E+00  0.27342609391E+03  0.27342609391E+03  0.00000000000E+00 0.  1.
         21   -1    0    0  501  503 -0.00000000000E+00 -0.00000000000E+00 -0.13057822575E+04  0.13057822575E+04  0.00000000000E+00 0.  1.
          6    1    1    2  501    0 -0.21292254879E+02  0.56494427111E+02 -0.12677404260E+04  0.12809136458E+04  0.17300000000E+03 0.  1.
         -6    1    1    2    0  502  0.21292254879E+02 -0.56494427111E+02  0.23538426237E+03  0.29829470559E+03  0.17300000000E+03 0.  1.
</event>
<event>
 4    1  0.6069433E+000  0.1000000E+03  0.7546771E-02  0.1280296E+00
         21   -1    0    0  503  502  0.00000000000E+00  0.00000000000E+00  0.37029215119E+03  0.37029215119E+03  0.00000000000E+00 0.  1.
         21   -1    0    0  501  503 -0.00000000000E+00 -0.00000000000E+00 -0.21468757338E+03  0.21468757338E+03  0.00000000000E+00 0.  1.
          6    1    1    2  501    0 -0.92548911173E+02 -0.81779070873E+02 -0.11436397672E+03  0.24137364513E+03  0.17300000000E+03 0.  1.
         -6    1    1    2    0  502  0.92548911173E+02  0.81779070873E+02  0.26996855453E+03  0.34360607944E+03  0.17300000000E+03 0.  1.
</event>
<event>
 4    1  0.6069433E+000  0.1000000E+03  0.7546771E-02  0.1280296E+00
         21   -1    0    0  503  502  0.00000000000E+00  0.00000000000E+00  0.14758735675E+04  0.14758735675E+04  0.00000000000E+00 0. -1.
         21   -1    0    0  501  503 -0.00000000000E+00 -0.00000000000E+00 -0.52852905273E+02  0.52852905273E+02  0.00000000000E+00 0. -1.
          6    1    1    2  501    0 -0.69438460641E+02  0.14147107118E+03  0.29430136868E+03  0.37600273856E+03  0.17300000000E+03 0. -1.
         -6    1    1    2    0  502  0.69438460641E+02 -0.14147107118E+03  0.11287192935E+04  0.11527237342E+04  0.17300000000E+03 0. -1.
</event>
<event>
 4    1  0.6069433E+000  0.1000000E+03  0.7546771E-02  0.1280296E+00
         21   -1    0    0  503  502  0.00000000000E+00  0.00000000000E+00  0.11975453639E+03  0.11975453639E+03  0.00000000000E+00 0. -1.
         21   -1    0    0  501  503 -0.00000000000E+00 -0.00000000000E+00 -0.39206267038E+03  0.39206267038E+03  0.00000000000E+00 0. -1.
          6    1    1    2  501    0 -0.29372066119E+02 -0.97279992342E+02 -0.23279794054E+03  0.30732718119E+03  0.17300000000E+03 0. -1.
         -6    1    1    2    0  502  0.29372066119E+02  0.97279992342E+02 -0.39510193454E+02  0.20449002559E+03  0.17300000000E+03 0. -1.
</event>
<event>
 4    1  0.6069433E+000  0.1000000E+03  0.7546771E-02  0.1280296E+00
         21   -1    0    0  503  502  0.00000000000E+00  0.00000000000E+00  0.44938059090E+03  0.44938059090E+03  0.00000000000E+00 0. -1.
         21   -1    0    0  501  503 -0.00000000000E+00 -0.00000000000E+00 -0.79534324371E+03  0.79534324371E+03  0.00000000000E+00 0. -1.
          6    1    1    2  501    0 -0.16618731078E+03  0.20424478164E+02 -0.74264543177E+03  0.78069623984E+03  0.17300000000E+03 0. -1.
         -6    1    1    2    0  502  0.16618731078E+03 -0.20424478164E+02  0.39668277896E+03  0.46402759476E+03  0.17300000000E+03 0. -1.
</event>
<event>
 4    1  0.6069433E+000  0.1000000E+03  0.7546771E-02  0.1280296E+00
         21   -1    0    0  503  502  0.00000000000E+00  0.00000000000E+00  0.11217953735E+04  0.11217953735E+04  0.00000000000E+00 0.  1.
         21   -1    0    0  501  503 -0.00000000000E+00 -0.00000000000E+00 -0.22650347755E+03  0.22650347755E+03  0.00000000000E+00 0.  1.
          6    1    1    2  501    0  0.73684065535E+02  0.37627423412E+02 -0.17581341161E+03  0.26016248809E+03  0.17300000000E+03 0.  1.
         -6    1    1    2    0  502 -0.73684065535E+02 -0.37627423412E+02  0.10711053076E+04  0.10881363630E+04  0.17300000000E+03 0.  1.
</event>
<event>
 4    1  0.6069433E+000  0.1000000E+03  0.7546771E-02  0.1280296E+00
         21   -1    0    0  503  502  0.00000000000E+00  0.00000000000E+00  0.26890692962E+03  0.26890692962E+03  0.00000000000E+00 0.  1.
         21   -1    0    0  501  503 -0.00000000000E+00 -0.00000000000E+00 -0.17216756538E+03  0.17216756538E+03  0.00000000000E+00 0. -1.
          6    1    1    2  501    0 -0.25301157060E+02  0.57542943351E+02 -0.65841492126E+02  0.19548770029E+03  0.17300000000E+03 0. -1.
         -6    1    1    2    0  502  0.25301157060E+02 -0.57542943351E+02  0.16258085636E+03  0.24558679471E+03  0.17300000000E+03 0. -1.
</event>
<event>
 4    1  0.6069433E+000  0.1000000E+03  0.7546771E-02  0.1280296E+00
         21   -1    0    0  503  502  0.00000000000E+00  0.00000000000E+00  0.10415011457E+03  0.10415011457E+03  0.00000000000E+00 0.  1.
         21   -1    0    0  501  503 -0.00000000000E+00 -0.00000000000E+00 -0.39433609158E+03  0.39433609158E+03  0.00000000000E+00 0. -1.
          6    1    1    2  501    0  0.55775535652E+02 -0.85903021527E+02 -0.17647063453E+03  0.26750911075E+03  0.17300000000E+03 0. -1.
         -6    1    1    2    0  502 -0.55775535652E+02  0.85903021527E+02 -0.11371534248E+03  0.23097709540E+03  0.17300000000E+03 0. -1.
</event>
<event>
 4    1  0.6069433E+000  0.1000000E+03  0.7546771E-02  0.1280296E+00
         21   -1    0    0  503  502  0.00000000000E+00  0.00000000000E+00  0.46772554627E+03  0.46772554627E+03  0.00000000000E+00 0. -1.
         21   -1    0    0  501  503 -0.00000000000E+00 -0.00000000000E+00 -0.84715085533E+02  0.84715085533E+02  0.00000000000E+00 0.  1.
          6    1    1    2  501    0  0.13618751178E+02 -0.97459826713E+02  0.18700414212E+03  0.27309968395E+03  0.17300000000E+03 0.  1.
         -6    1    1    2    0  502 -0.13618751178E+02  0.97459826713E+02  0.19600631862E+03  0.27934094785E+03  0.17300000000E+03 0. -1.
</event>
<event>
 4    1  0.6069433E+000  0.1000000E+03  0.7546771E-02  0.1280296E+00
         21   -1    0    0  503  502  0.00000000000E+00  0.00000000000E+00  0.81719163581E+02  0.81719163581E+02  0.00000000000E+00 0. -1.
         21   -1    0    0  501  503 -0.00000000000E+00 -0.00000000000E+00 -0.68541615324E+03  0.68541615324E+03  0.00000000000E+00 0.  1.
          6    1    1    2  501    0 -0.51810882644E+02 -0.50483100291E+02 -0.53586851369E+03  0.56772966713E+03  0.17300000000E+03 0.  1.
         -6    1    1    2    0  502  0.51810882644E+02  0.50483100291E+02 -0.67828475964E+02  0.19940564969E+03  0.17300000000E+03 0. -1.
</event>
<event>
 4    1  0.6069433E+000  0.1000000E+03  0.7546771E-02  0.1280296E+00
         21   -1    0    0  503  502  0.00000000000E+00  0.00000000000E+00  0.19523242848E+03  0.19523242848E+03  0.00000000000E+00 0. -1.
         21   -1    0    0  501  503 -0.00000000000E+00 -0.00000000000E+00 -0.31878409759E+03  0.31878409759E+03  0.00000000000E+00 0.  1.
          6    1    1    2  501    0  0.72862495557E+02  0.66320651360E+02 -0.21665142488E+03  0.29423496046E+03  0.17300000000E+03 0.  1.
         -6    1    1    2    0  502 -0.72862495557E+02 -0.66320651360E+02  0.93099755774E+02  0.21978156561E+03  0.17300000000E+03 0. -1.
</event>
<event>
 4    1  0.6069433E+000  0.1000000E+03  0.7546771E-02  0.1280296E+00
         21   -1    0    0  503  502  0.00000000000E+00  0.00000000000E+00  0.30788908037E+03  0.30788908037E+03  0.00000000000E+00 0. -1.
         21   -1    0    0  501  503 -0.00000000000E+00 -0.00000000000E+00 -0.21613570453E+03  0.21613570453E+03  0.00000000000E+00 0.  1.
          6    1    1    2  501    0 -0.12346742720E+03  0.13247483994E+03 -0.16924164744E+02  0.25101636630E+03  0.17300000000E+03 0. -1.
         -6    1    1    2    0  502  0.12346742720E+03 -0.13247483994E+03  0.10867754058E+03  0.27300841860E+03  0.17300000000E+03 0. -1.
</event>
<event>
 4    1  0.6069433E+000  0.1000000E+03  0.7546771E-02  0.1280296E+00
         21   -1    0    0  503  502  0.00000000000E+00  0.00000000000E+00  0.62129584193E+02  0.62129584193E+02  0.00000000000E+00 0. -1.
         21   -1    0    0  501  503 -0.00000000000E+00 -0.00000000000E+00 -0.79772483819E+03  0.79772483819E+03  0.00000000000E+00 0. -1.
          6    1    1    2  501    0 -0.11350709164E+03  0.66084903970E+02 -0.27354103415E+03  0.34929181460E+03  0.17300000000E+03 0. -1.
         -6    1    1    2    0  502  0.11350709164E+03 -0.66084903970E+02 -0.46205421984E+03  0.51056260778E+03  0.17300000000E+03 0. -1.
</event>
<event>
 4    1  0.6069433E+000  0.1000000E+03  0.7546771E-02  0.1280296E+00
         21   -1    0    0  503  502  0.00000000000E+00  0.00000000000E+00  0.97721934026E+03  0.97721934026E+03  0.00000000000E+00 0. -1.
         21   -1    0    0  501  503 -0.00000000000E+00 -0.00000000000E+00 -0.52975764732E+02  0.52975764732E+02  0.00000000000E+00 0. -1.
          6    1    1    2  501    0 -0.61523325858E+02 -0.12629924678E+03  0.35829539251E+03  0.42194929512E+03  0.17300000000E+03 0. -1.
         -6    1    1    2    0  502  0.61523325858E+02  0.12629924678E+03  0.56594818302E+03  0.60824580987E+03  0.17300000000E+03 0. -1.
</event>
<event>
 4    1  0.6069433E+000  0.1000000E+03  0.7546771E-02  0.1280296E+00
         21   -1    0    0  503  502  0.00000000000E+00  0.00000000000E+00  0.71907483462E+02  0.71907483462E+02  0.00000000000E+00 0. -1.
         21   -1    0    0  501  503 -0.00000000000E+00 -0.00000000000E+00 -0.86324333392E+03  0.86324333392E+03  0.00000000000E+00 0. -1.
          6    1    1    2  501    0 -0.61594646882E+02 -0.78844876797E+02 -0.67487750436E+03  0.70384590715E+03  0.17300000000E+03 0. -1.
         -6    1    1    2    0  502  0.61594646882E+02  0.78844876797E+02 -0.11645834610E+03  0.23130491023E+03  0.17300000000E+03 0. -1.
</event>
<event>
 4    1  0.6069433E+000  0.1000000E+03  0.7546771E-02  0.1280296E+00
         21   -1    0    0  503  502  0.00000000000E+00  0.00000000000E+00  0.11752718443E+03  0.11752718443E+03  0.00000000000E+00 0. -1.
         21   -1    0    0  501  503 -0.00000000000E+00 -0.00000000000E+00 -0.66127608683E+03  0.66127608683E+03  0.00000000000E+00 0.  1.
          6    1    1    2  501    0 -0.18553106935E+03 -0.17867648551E+02 -0.43142829608E+03  0.50079976559E+03  0.17300000000E+03 0. -1.
         -6    1    1    2    0  502  0.18553106935E+03  0.17867648551E+02 -0.11232060632E+03  0.27800350567E+03  0.17300000000E+03 0.  1.
</event>
<event>
 4    1  0.6069433E+000  0.1000000E+03  0.7546771E-02  0.1280296E+00
         21   -1    0    0  503  502  0.00000000000E+00  0.00000000000E+00  0.11941779879E+04  0.11941779879E+04  0.00000000000E+00 0. -1.
         21   -1    0    0  501  503 -0.00000000000E+00 -0.00000000000E+00 -0.10478826759E+03  0.10478826759E+03  0.00000000000E+00 0.  1.
          6    1    1    2  501    0  0.82072289413E+02 -0.71182695069E+02  0.14457325767E+02  0.20479465578E+03  0.17300000000E+03 0. -1.
         -6    1    1    2    0  502 -0.82072289413E+02  0.71182695069E+02  0.10749323945E+04  0.10941715997E+04  0.17300000000E+03 0.  1.
</event>
<event>
 4    1  0.6069433E+000  0.1000000E+03  0.7546771E-02  0.1280296E+00
         21   -1    0    0  501  502  0.00000000000E+00  0.00000000000E+00  0.35431071731E+03  0.35431071731E+03  0.00000000000E+00 0.  1.
         21   -1    0    0  502  503 -0.00000000000E+00 -0.00000000000E+00 -0.35579402429E+03  0.35579402429E+03  0.00000000000E+00 0.  1.
          6    1    1    2  501    0  0.38807028156E+02  0.29537436099E+03 -0.86652477022E+02  0.35523182619E+03  0.17300000000E+03 0. -1.
         -6    1    1    2    0  503 -0.38807028156E+02 -0.29537436099E+03  0.85169170045E+02  0.35487291541E+03  0.17300000000E+03 0. -1.
</event>
<event>
 4    1  0.6069433E+000  0.1000000E+03  0.7546771E-02  0.1280296E+00
         21   -1    0    0  501  502  0.00000000000E+00  0.00000000000E+00  0.15148126945E+03  0.15148126945E+03  0.00000000000E+00 0.  1.
         21   -1    0    0  502  503 -0.00000000000E+00 -0.00000000000E+00 -0.34466177302E+03  0.34466177302E+03  0.00000000000E+00 0.  1.
          6    1    1    2  501    0 -0.13593657166E+02  0.13639959314E+03 -0.16073870024E+03  0.27304865185E+03  0.17300000000E+03 0.  1.
         -6    1    1    2    0  503  0.13593657166E+02 -0.13639959314E+03 -0.32441803330E+02  0.22309439062E+03  0.17300000000E+03 0.  1.
</event>
<event>
 4    1  0.6069433E+000  0.1000000E+03  0.7546771E-02  0.1280296E+00
         21   -1    0    0  501  502  0.00000000000E+00  0.00000000000E+00  0.25418421946E+03  0.25418421946E+03  0.00000000000E+00 0.  1.
         21   -1    0    0  502  503 -0.00000000000E+00 -0.00000000000E+00 -0.22524055508E+03  0.22524055508E+03  0.00000000000E+00 0.  1.
          6    1    1    2  501    0 -0.96991299727E+02 -0.86839340021E+02  0.11651674741E+03  0.24587300711E+03  0.17300000000E+03 0.  1.
         -6    1    1    2    0  503  0.96991299727E+02  0.86839340021E+02 -0.87573083029E+02  0.23355176743E+03  0.17300000000E+03 0.  1.
</event>
<event>
 4    1  0.6069433E+000  0.1000000E+03  0.7546771E-02  0.1280296E+00
         21   -1    0    0  501  502  0.00000000000E+00  0.00000000000E+00  0.33025127682E+02  0.33025127682E+02  0.00000000000E+00 0.  1.
         21   -1    0    0  502  503 -0.00000000000E+00 -0.00000000000E+00 -0.11460810081E+04  0.11460810081E+04  0.00000000000E+00 0.  1.
          6    1    1    2  501    0 -0.74411582499E+02  0.21367999145E+02 -0.68954609894E+03  0.71511991831E+03  0.17300000000E+03 0.  1.
         -6    1    1    2    0  503  0.74411582499E+02 -0.21367999145E+02 -0.42350978147E+03  0.46398621747E+03  0.17300000000E+03 0.  1.
</event>
<event>
 4    1  0.6069433E+000  0.1000000E+03  0.7546771E-02  0.1280296E+00
         21   -1    0    0  501  502  0.00000000000E+00  0.00000000000E+00  0.75573566281E+03  0.75573566281E+03  0.00000000000E+00 0.  1.
         21   -1    0    0  502  503 -0.00000000000E+00 -0.00000000000E+00 -0.79597890858E+02  0.79597890858E+02  0.00000000000E+00 0.  1.
          6    1    1    2  501    0  0.99861540260E+02  0.99651132652E+02  0.51109164871E+03  0.55771529372E+03  0.17300000000E+03 0.  1.
         -6    1    1    2    0  503 -0.99861540260E+02 -0.99651132652E+02  0.16504612324E+03  0.27761825995E+03  0.17300000000E+03 0.  1.
</event>
<event>
 4    1  0.6069433E+000  0.1000000E+03  0.7546771E-02  0.1280296E+00
         21   -1    0    0  501  502  0.00000000000E+00  0.00000000000E+00  0.56870756208E+03  0.56870756208E+03  0.00000000000E+00 0. -1.
         21   -1    0    0  502  503 -0.00000000000E+00 -0.00000000000E+00 -0.76324887731E+02  0.76324887731E+02  0.00000000000E+00 0. -1.
          6    1    1    2  501    0 -0.28709230898E+02 -0.28328113324E+02  0.41471020238E+03  0.45115435707E+03  0.17300000000E+03 0. -1.
         -6    1    1    2    0  503  0.28709230898E+02  0.28328113324E+02  0.77672471966E+02  0.19387809274E+03  0.17300000000E+03 0. -1.
</event>
<event>
 4    1  0.6069433E+000  0.1000000E+03  0.7546771E-02  0.1280296E+00
         21   -1    0    0  503  502  0.00000000000E+00  0.00000000000E+00  0.26395107525E+03  0.26395107525E+03  0.00000000000E+00 0.  1.
         21   -1    0    0  501  503 -0.00000000000E+00 -0.00000000000E+00 -0.93366451829E+03  0.93366451829E+03  0.00000000000E+00 0. -1.
          6    1    1    2  501    0  0.13887278508E+03  0.59543710529E+02 -0.86571004297E+03  0.89566398967E+03  0.17300000000E+03 0.  1.
         -6    1    1    2    0  502 -0.13887278508E+03 -0.59543710529E+02  0.19599659992E+03  0.30195160387E+03  0.17300000000E+03 0. -1.
</event>
<event>
 4    1  0.6069433E+000  0.1000000E+03  0.7546771E-02  0.1280296E+00
         21   -1    0    0  503  502  0.00000000000E+00  0.00000000000E+00  0.19528464205E+04  0.19528464205E+04  0.00000000000E+00 0.  1.
         21   -1    0    0  501  503 -0.00000000000E+00 -0.00000000000E+00 -0.59189373580E+02  0.59189373580E+02  0.00000000000E+00 0. -1.
          6    1    1    2  501    0 -0.26068325711E+02  0.49413691139E+02  0.96717969433E+02  0.20592385993E+03  0.17300000000E+03 0.  1.
         -6    1    1    2    0  502  0.26068325711E+02 -0.49413691139E+02  0.17969390775E+04  0.18061119342E+04  0.17300000000E+03 0. -1.
</event>
<event>
 4    1  0.6069433E+000  0.1000000E+03  0.7546771E-02  0.1280296E+00
         21   -1    0    0  503  502  0.00000000000E+00  0.00000000000E+00  0.49531014924E+03  0.49531014924E+03  0.00000000000E+00 0.  1.
         21   -1    0    0  501  503 -0.00000000000E+00 -0.00000000000E+00 -0.11657948163E+03  0.11657948163E+03  0.00000000000E+00 0. -1.
          6    1    1    2  501    0 -0.42285863185E+02 -0.97257025047E+02  0.25489443906E+02  0.20451341007E+03  0.17300000000E+03 0. -1.
         -6    1    1    2    0  502  0.42285863185E+02  0.97257025047E+02  0.35324122371E+03  0.40737622080E+03  0.17300000000E+03 0.  1.
</event>
<event>
 4    1  0.6069433E+000  0.1000000E+03  0.7546771E-02  0.1280296E+00
         21   -1    0    0  503  502  0.00000000000E+00  0.00000000000E+00  0.65459779437E+02  0.65459779437E+02  0.00000000000E+00 0.  1.
         21   -1    0    0  501  503 -0.00000000000E+00 -0.00000000000E+00 -0.77649297536E+03  0.77649297536E+03  0.00000000000E+00 0. -1.
          6    1    1    2  501    0 -0.44613632365E+02 -0.12282266926E+03 -0.24004472025E+03  0.32345981512E+03  0.17300000000E+03 0. -1.
         -6    1    1    2    0  502  0.44613632365E+02  0.12282266926E+03 -0.47098847568E+03  0.51849293968E+03  0.17300000000E+03 0.  1.
</event>
<event>
 4    1  0.6069433E+000  0.1000000E+03  0.7546771E-02  0.1280296E+00
         21   -1    0    0  503  502  0.00000000000E+00  0.00000000000E+00  0.28169901690E+03  0.28169901690E+03  0.00000000000E+00 0.  1.
         21   -1    0    0  501  503 -0.00000000000E+00 -0.00000000000E+00 -0.14073830596E+03  0.14073830596E+03  0.00000000000E+00 0. -1.
          6    1    1    2  501    0  0.36590514208E+02  0.90289446836E+02  0.54540359532E+02  0.20589973472E+03  0.17300000000E+03 0. -1.
         -6    1    1    2    0  502 -0.36590514208E+02 -0.90289446836E+02  0.86420351414E+02  0.21653758814E+03  0.17300000000E+03 0.  1.
</event>
<event>
 4    1  0.6069433E+000  0.1000000E+03  0.7546771E-02  0.1280296E+00
         21   -1    0    0  501  502  0.00000000000E+00  0.00000000000E+00  0.78113957006E+03  0.78113957006E+03  0.00000000000E+00 0. -1.
         21   -1    0    0  502  503 -0.00000000000E+00 -0.00000000000E+00 -0.88234611514E+02  0.88234611514E+02  0.00000000000E+00 0. -1.
          6    1    1    2  501    0 -0.14373944311E+03  0.10906209938E+03  0.47931466344E+03  0.54058035075E+03  0.17300000000E+03 0. -1.
         -6    1    1    2    0  503  0.14373944311E+03 -0.10906209938E+03  0.21359029510E+03  0.32879383082E+03  0.17300000000E+03 0. -1.
</event>
<event>
 4    1  0.6069433E+000  0.1000000E+03  0.7546771E-02  0.1280296E+00
         21   -1    0    0  501  502  0.00000000000E+00  0.00000000000E+00  0.14427727164E+03  0.14427727164E+03  0.00000000000E+00 0. -1.
         21   -1    0    0  502  503 -0.00000000000E+00 -0.00000000000E+00 -0.10918953356E+04  0.10918953356E+04  0.00000000000E+00 0. -1.
          6    1    1    2  501    0  0.47678889479E+02 -0.30102424287E+03 -0.18365019177E+03  0.39565801424E+03  0.17300000000E+03 0. -1.
         -6    1    1    2    0  503 -0.47678889479E+02  0.30102424287E+03 -0.76396787218E+03  0.84051459298E+03  0.17300000000E+03 0. -1.
</event>
<event>
 4    1  0.6069433E+000  0.1000000E+03  0.7546771E-02  0.1280296E+00
         21   -1    0    0  503  502  0.00000000000E+00  0.00000000000E+00  0.16327308028E+03  0.16327308028E+03  0.00000000000E+00 0.  1.
         21   -1    0    0  501  503 -0.00000000000E+00 -0.00000000000E+00 -0.44151053330E+03  0.44151053330E+03  0.00000000000E+00 0. -1.
          6    1    1    2  501    0  0.19063026229E+02  0.10069732483E+03 -0.33950107963E+03  0.39457994534E+03  0.17300000000E+03 0. -1.
         -6    1    1    2    0  502 -0.19063026229E+02 -0.10069732483E+03  0.61263626609E+02  0.21020366824E+03  0.17300000000E+03 0.  1.
</event>
<event>
 4    1  0.6069433E+000  0.1000000E+03  0.7546771E-02  0.1280296E+00
         21   -1    0    0  503  502  0.00000000000E+00  0.00000000000E+00  0.46685757479E+02  0.46685757479E+02  0.00000000000E+00 0.  1.
         21   -1    0    0  501  503 -0.00000000000E+00 -0.00000000000E+00 -0.87810505463E+03  0.87810505463E+03  0.00000000000E+00 0. -1.
          6    1    1    2  501    0 -0.14146002221E+02 -0.62908789774E+02 -0.60552703999E+03  0.63304788236E+03  0.17300000000E+03 0. -1.
         -6    1    1    2    0  502  0.14146002221E+02  0.62908789774E+02 -0.22589225717E+03  0.29174292975E+03  0.17300000000E+03 0.  1.
</event>
<event>
 4    1  0.6069433E+000  0.1000000E+03  0.7546771E-02  0.1280296E+00
         21   -1    0    0  501  502  0.00000000000E+00  0.00000000000E+00  0.89905884330E+03  0.89905884330E+03  0.00000000000E+00 0. -1.
         21   -1    0    0  502  503 -0.00000000000E+00 -0.00000000000E+00 -0.62298255918E+02  0.62298255918E+02  0.00000000000E+00 0. -1.
          6    1    1    2  501    0  0.14999631506E+02 -0.34680333333E+02  0.73728311545E+03  0.75825002921E+03  0.17300000000E+03 0. -1.
         -6    1    1    2    0  503 -0.14999631506E+02  0.34680333333E+02  0.99477471929E+02  0.20310707001E+03  0.17300000000E+03 0. -1.
</event>
<event>
 4    1  0.6069433E+000  0.1000000E+03  0.7546771E-02  0.1280296E+00
         21   -1    0    0  503  502  0.00000000000E+00  0.00000000000E+00  0.17341976480E+03  0.17341976480E+03  0.00000000000E+00 0.  1.
         21   -1    0    0  501  503 -0.00000000000E+00 -0.00000000000E+00 -0.26481391928E+03  0.26481391928E+03  0.00000000000E+00 0. -1.
          6    1    1    2  501    0  0.80419470502E+02  0.84065439610E+02  0.50234164577E+01  0.20853902293E+03  0.17300000000E+03 0. -1.
         -6    1    1    2    0  502 -0.80419470502E+02 -0.84065439610E+02 -0.96417570946E+02  0.22969466115E+03  0.17300000000E+03 0.  1.
</event>
<event>
 4    1  0.6069433E+000  0.1000000E+03  0.7546771E-02  0.1280296E+00
         21   -1    0    0  503  502  0.00000000000E+00  0.00000000000E+00  0.26946586851E+04  0.26946586851E+04  0.00000000000E+00 0. -1.
         21   -1    0    0  501  503 -0.00000000000E+00 -0.00000000000E+00 -0.12882638917E+02  0.12882638917E+02  0.00000000000E+00 0.  1.
          6    1    1    2  501    0 -0.17148126769E+01  0.67555351981E+02  0.14483275852E+04  0.14601878168E+04  0.17300000000E+03 0. -1.
         -6    1    1    2    0  502  0.17148126769E+01 -0.67555351981E+02  0.12334484609E+04  0.12473535072E+04  0.17300000000E+03 0.  1.
</event>
<event>
 4    1  0.6069433E+000  0.1000000E+03  0.7546771E-02  0.1280296E+00
         21   -1    0    0  503  502  0.00000000000E+00  0.00000000000E+00  0.50855772202E+03  0.50855772202E+03  0.00000000000E+00 0. -1.
         21   -1    0    0  501  503 -0.00000000000E+00 -0.00000000000E+00 -0.16292773276E+03  0.16292773276E+03  0.00000000000E+00 0.  1.
          6    1    1    2  501    0  0.73309926958E+02 -0.79943549261E+02 -0.63829781576E+02  0.21393587234E+03  0.17300000000E+03 0. -1.
         -6    1    1    2    0  502 -0.73309926958E+02  0.79943549261E+02  0.40945977084E+03  0.45754958244E+03  0.17300000000E+03 0.  1.
</event>
<event>
 4    1  0.6069433E+000  0.1000000E+03  0.7546771E-02  0.1280296E+00
         21   -1    0    0  503  502  0.00000000000E+00  0.00000000000E+00  0.83437271493E+02  0.83437271493E+02  0.00000000000E+00 0. -1.
         21   -1    0    0  501  503 -0.00000000000E+00 -0.00000000000E+00 -0.92176441326E+03  0.92176441326E+03  0.00000000000E+00 0.  1.
          6    1    1    2  501    0 -0.43686330377E+02 -0.20987657860E+03 -0.47715288188E+03  0.55096328951E+03  0.17300000000E+03 0.  1.
         -6    1    1    2    0  502  0.43686330377E+02  0.20987657860E+03 -0.36117425989E+03  0.45423839524E+03  0.17300000000E+03 0.  1.
</event>
<event>
 4    1  0.6069433E+000  0.1000000E+03  0.7546771E-02  0.1280296E+00
         21   -1    0    0  503  502  0.00000000000E+00  0.00000000000E+00  0.47793526478E+02  0.47793526478E+02  0.00000000000E+00 0. -1.
         21   -1    0    0  501  503 -0.00000000000E+00 -0.00000000000E+00 -0.89006593314E+03  0.89006593314E+03  0.00000000000E+00 0.  1.
          6    1    1    2  501    0 -0.66610943906E+02  0.90356051693E+02 -0.42801576376E+03  0.47510812238E+03  0.17300000000E+03 0.  1.
         -6    1    1    2    0  502  0.66610943906E+02 -0.90356051693E+02 -0.41425664291E+03  0.46275133724E+03  0.17300000000E+03 0.  1.
</event>
<event>
 4    1  0.6069433E+000  0.1000000E+03  0.7546771E-02  0.1280296E+00
         21   -1    0    0  503  502  0.00000000000E+00  0.00000000000E+00  0.22965719880E+03  0.22965719880E+03  0.00000000000E+00 0. -1.
         21   -1    0    0  501  503 -0.00000000000E+00 -0.00000000000E+00 -0.87085582450E+03  0.87085582450E+03  0.00000000000E+00 0.  1.
          6    1    1    2  501    0  0.11230414878E+03  0.27990896227E+03 -0.66666807241E+03  0.75188866714E+03  0.17300000000E+03 0.  1.
         -6    1    1    2    0  502 -0.11230414878E+03 -0.27990896227E+03  0.25469446709E+02  0.34862435616E+03  0.17300000000E+03 0.  1.
</event>
<event>
 4    1  0.6069433E+000  0.1000000E+03  0.7546771E-02  0.1280296E+00
         21   -1    0    0  503  502  0.00000000000E+00  0.00000000000E+00  0.52547126029E+03  0.52547126029E+03  0.00000000000E+00 0. -1.
         21   -1    0    0  501  503 -0.00000000000E+00 -0.00000000000E+00 -0.25777114058E+03  0.25777114058E+03  0.00000000000E+00 0. -1.
          6    1    1    2  501    0  0.21154765083E+03  0.20279804934E+03  0.28298418153E+03  0.44259293305E+03  0.17300000000E+03 0. -1.
         -6    1    1    2    0  502 -0.21154765083E+03 -0.20279804934E+03 -0.15284061820E+02  0.34064946783E+03  0.17300000000E+03 0. -1.
</event>
<event>
 4    1  0.6069433E+000  0.1000000E+03  0.7546771E-02  0.1280296E+00
         21   -1    0    0  503  502  0.00000000000E+00  0.00000000000E+00  0.38350895989E+02  0.38350895989E+02  0.00000000000E+00 0.  1.
         21   -1    0    0  501  503 -0.00000000000E+00 -0.00000000000E+00 -0.15871529196E+04  0.15871529196E+04  0.00000000000E+00 0.  1.
          6    1    1    2  501    0  0.82637428357E+02  0.11228681452E+03 -0.11277112978E+04  0.11493907275E+04  0.17300000000E+03 0.  1.
         -6    1    1    2    0  502 -0.82637428357E+02 -0.11228681452E+03 -0.42109072580E+03  0.47611308808E+03  0.17300000000E+03 0.  1.
</event>
<event>
 4    1  0.6069433E+000  0.1000000E+03  0.7546771E-02  0.1280296E+00
         21   -1    0    0  503  502  0.00000000000E+00  0.00000000000E+00  0.53291598477E+03  0.53291598477E+03  0.00000000000E+00 0. -1.
         21   -1    0    0  501  503 -0.00000000000E+00 -0.00000000000E+00 -0.13669542305E+03  0.13669542305E+03  0.00000000000E+00 0. -1.
          6    1    1    2  501    0 -0.40077436383E+02 -0.20324791626E+03  0.19624560203E+03  0.33370234145E+03  0.17300000000E+03 0. -1.
         -6    1    1    2    0  502  0.40077436383E+02  0.20324791626E+03  0.19997495969E+03  0.33590906638E+03  0.17300000000E+03 0. -1.
</event>
<event>
 4    1  0.6069433E+000  0.1000000E+03  0.7546771E-02  0.1280296E+00
         21   -1    0    0  503  502  0.00000000000E+00  0.00000000000E+00  0.13045034561E+03  0.13045034561E+03  0.00000000000E+00 0. -1.
         21   -1    0    0  501  503 -0.00000000000E+00 -0.00000000000E+00 -0.30232932280E+03  0.30232932280E+03  0.00000000000E+00 0. -1.
          6    1    1    2  501    0 -0.82119219964E+02 -0.24876731941E+02 -0.13643414210E+03  0.23644384790E+03  0.17300000000E+03 0. -1.
         -6    1    1    2    0  502  0.82119219964E+02  0.24876731941E+02 -0.35444835082E+02  0.19633582051E+03  0.17300000000E+03 0. -1.
</event>
<event>
 4    1  0.6069433E+000  0.1000000E+03  0.7546771E-02  0.1280296E+00
         21   -1    0    0  501  502  0.00000000000E+00  0.00000000000E+00  0.20432329232E+03  0.20432329232E+03  0.00000000000E+00 0.  1.
         21   -1    0    0  502  503 -0.00000000000E+00 -0.00000000000E+00 -0.62645161800E+03  0.62645161800E+03  0.00000000000E+00 0.  1.
          6    1    1    2  501    0 -0.28613539410E+02 -0.18208097857E+03  0.82884176598E+02  0.26602820174E+03  0.17300000000E+03 0.  1.
         -6    1    1    2    0  503  0.28613539410E+02  0.18208097857E+03 -0.50501250228E+03  0.56474670858E+03  0.17300000000E+03 0.  1.
</event>
<event>
 4    1  0.6069433E+000  0.1000000E+03  0.7546771E-02  0.1280296E+00
         21   -1    0    0  501  502  0.00000000000E+00  0.00000000000E+00  0.52692328963E+03  0.52692328963E+03  0.00000000000E+00 0.  1.
         21   -1    0    0  502  503 -0.00000000000E+00 -0.00000000000E+00 -0.13261354650E+03  0.13261354650E+03  0.00000000000E+00 0.  1.
          6    1    1    2  501    0 -0.19363931120E+03 -0.42094702553E+02  0.22968621912E+03  0.34921756267E+03  0.17300000000E+03 0.  1.
         -6    1    1    2    0  503  0.19363931120E+03  0.42094702553E+02  0.16462352401E+03  0.31031927346E+03  0.17300000000E+03 0.  1.
</event>
<event>
 4    1  0.6069433E+000  0.1000000E+03  0.7546771E-02  0.1280296E+00
         21   -1    0    0  503  502  0.00000000000E+00  0.00000000000E+00  0.43902609977E+03  0.43902609977E+03  0.00000000000E+00 0. -1.
         21   -1    0    0  501  503 -0.00000000000E+00 -0.00000000000E+00 -0.15585992363E+03  0.15585992363E+03  0.00000000000E+00 0.  1.
          6    1    1    2  501    0 -0.39280354285E+02  0.76681077669E+02 -0.58861542417E+02  0.20203122303E+03  0.17300000000E+03 0. -1.
         -6    1    1    2    0  502  0.39280354285E+02 -0.76681077669E+02  0.34202771856E+03  0.39285480036E+03  0.17300000000E+03 0.  1.
</event>
<event>
 4    1  0.6069433E+000  0.1000000E+03  0.7546771E-02  0.1280296E+00
         21   -1    0    0  503  502  0.00000000000E+00  0.00000000000E+00  0.37172863236E+03  0.37172863236E+03  0.00000000000E+00 0. -1.
         21   -1    0    0  501  503 -0.00000000000E+00 -0.00000000000E+00 -0.94876754196E+02  0.94876754196E+02  0.00000000000E+00 0. -1.
          6    1    1    2  501    0  0.22406019088E+01 -0.54487145338E+02  0.78004413274E+02  0.19745267229E+03  0.17300000000E+03 0. -1.
         -6    1    1    2    0  502 -0.22406019088E+01  0.54487145338E+02  0.19884746489E+03  0.26915271427E+03  0.17300000000E+03 0. -1.
</event>
<event>
 4    1  0.6069433E+000  0.1000000E+03  0.7546771E-02  0.1280296E+00
         21   -1    0    0  503  502  0.00000000000E+00  0.00000000000E+00  0.82458795323E+03  0.82458795323E+03  0.00000000000E+00 0. -1.
         21   -1    0    0  501  503 -0.00000000000E+00 -0.00000000000E+00 -0.36790929890E+02  0.36790929890E+02  0.00000000000E+00 0. -1.
          6    1    1    2  501    0 -0.20106790358E+02 -0.18073815513E+01  0.39167590816E+03  0.42865670026E+03  0.17300000000E+03 0. -1.
         -6    1    1    2    0  502  0.20106790358E+02  0.18073815513E+01  0.39612111519E+03  0.43272218286E+03  0.17300000000E+03 0. -1.
</event>
<event>
 4    1  0.6069433E+000  0.1000000E+03  0.7546771E-02  0.1280296E+00
         21   -1    0    0  503  502  0.00000000000E+00  0.00000000000E+00  0.31454659094E+03  0.31454659094E+03  0.00000000000E+00 0. -1.
         21   -1    0    0  501  503 -0.00000000000E+00 -0.00000000000E+00 -0.35029505256E+03  0.35029505256E+03  0.00000000000E+00 0. -1.
          6    1    1    2  501    0  0.24417519192E+03 -0.11389937814E+03  0.69776977071E+02  0.32770782600E+03  0.17300000000E+03 0. -1.
         -6    1    1    2    0  502 -0.24417519192E+03  0.11389937814E+03 -0.10552543870E+03  0.33713381750E+03  0.17300000000E+03 0. -1.
</event>
<event>
 4    1  0.6069433E+000  0.1000000E+03  0.7546771E-02  0.1280296E+00
         21   -1    0    0  501  502  0.00000000000E+00  0.00000000000E+00  0.25089764754E+03  0.25089764754E+03  0.00000000000E+00 0. -1.
         21   -1    0    0  502  503 -0.00000000000E+00 -0.00000000000E+00 -0.18974077921E+03  0.18974077921E+03  0.00000000000E+00 0.  1.
          6    1    1    2  501    0 -0.62532165667E+02 -0.78621712221E+02  0.11852073057E+03  0.23252485663E+03  0.17300000000E+03 0. -1.
         -6    1    1    2    0  503  0.62532165667E+02  0.78621712221E+02 -0.57363862252E+02  0.20811357012E+03  0.17300000000E+03 0.  1.
</event>
<event>
 4    1  0.6069433E+000  0.1000000E+03  0.7546771E-02  0.1280296E+00
         21   -1    0    0  501  502  0.00000000000E+00  0.00000000000E+00  0.12350682459E+03  0.12350682459E+03  0.00000000000E+00 0. -1.
         21   -1    0    0  502  503 -0.00000000000E+00 -0.00000000000E+00 -0.31831450600E+03  0.31831450600E+03  0.00000000000E+00 0.  1.
          6    1    1    2  501    0  0.77990387090E+02 -0.32585092354E+02 -0.44664185861E+02  0.19765671813E+03  0.17300000000E+03 0. -1.
         -6    1    1    2    0  503 -0.77990387090E+02  0.32585092354E+02 -0.15014349555E+03  0.24416461246E+03  0.17300000000E+03 0.  1.
</event>
<event>
 4    1  0.6069433E+000  0.1000000E+03  0.7546771E-02  0.1280296E+00
         21   -1    0    0  503  502  0.00000000000E+00  0.00000000000E+00  0.12736090013E+04  0.12736090013E+04  0.00000000000E+00 0. -1.
         21   -1    0    0  501  503 -0.00000000000E+00 -0.00000000000E+00 -0.45642158442E+02  0.45642158442E+02  0.00000000000E+00 0.  1.
          6    1    1    2  501    0  0.59021426660E+02  0.12232294021E+03  0.34377040315E+03  0.40810969186E+03  0.17300000000E+03 0. -1.
         -6    1    1    2    0  502 -0.59021426660E+02 -0.12232294021E+03  0.88419643968E+03  0.91114146786E+03  0.17300000000E+03 0.  1.
</event>
<event>
 4    1  0.6069433E+000  0.1000000E+03  0.7546771E-02  0.1280296E+00
         21   -1    0    0  501  502  0.00000000000E+00  0.00000000000E+00  0.82817919028E+02  0.82817919028E+02  0.00000000000E+00 0.  1.
         21   -1    0    0  502  503 -0.00000000000E+00 -0.00000000000E+00 -0.70213663590E+03  0.70213663590E+03  0.00000000000E+00 0.  1.
          6    1    1    2  501    0  0.11142091038E+03  0.14799350055E+02 -0.10646072058E+03  0.23215625139E+03  0.17300000000E+03 0.  1.
         -6    1    1    2    0  503 -0.11142091038E+03 -0.14799350055E+02 -0.51285799630E+03  0.55279830354E+03  0.17300000000E+03 0.  1.
</event>
<event>
 4    1  0.6069433E+000  0.1000000E+03  0.7546771E-02  0.1280296E+00
         21   -1    0    0  501  502  0.00000000000E+00  0.00000000000E+00  0.28524368813E+03  0.28524368813E+03  0.00000000000E+00 0.  1.
         21   -1    0    0  502  503 -0.00000000000E+00 -0.00000000000E+00 -0.26259631517E+03  0.26259631517E+03  0.00000000000E+00 0.  1.
          6    1    1    2  501    0 -0.13620293221E+03  0.10005301354E+03  0.13954690695E+03  0.27922067170E+03  0.17300000000E+03 0.  1.
         -6    1    1    2    0  503  0.13620293221E+03 -0.10005301354E+03 -0.11689953400E+03  0.26861933160E+03  0.17300000000E+03 0.  1.
</event>
<event>
 4    1  0.6069433E+000  0.1000000E+03  0.7546771E-02  0.1280296E+00
         21   -1    0    0  501  502  0.00000000000E+00  0.00000000000E+00  0.42102690430E+03  0.42102690430E+03  0.00000000000E+00 0.  1.
         21   -1    0    0  502  503 -0.00000000000E+00 -0.00000000000E+00 -0.70814146091E+03  0.70814146091E+03  0.00000000000E+00 0.  1.
          6    1    1    2  501    0 -0.11447609460E+03  0.40720481672E+03  0.16542414615E+03  0.48601922505E+03  0.17300000000E+03 0.  1.
         -6    1    1    2    0  503  0.11447609460E+03 -0.40720481672E+03 -0.45253870276E+03  0.64314914016E+03  0.17300000000E+03 0.  1.
</event>
<event>
 4    1  0.6069433E+000  0.1000000E+03  0.7546771E-02  0.1280296E+00
         21   -1    0    0  501  502  0.00000000000E+00  0.00000000000E+00  0.14423755407E+03  0.14423755407E+03  0.00000000000E+00 0. -1.
         21   -1    0    0  502  503 -0.00000000000E+00 -0.00000000000E+00 -0.40389870324E+03  0.40389870324E+03  0.00000000000E+00 0. -1.
          6    1    1    2  501    0 -0.67644082420E+02  0.42103530191E+02  0.38512905828E+02  0.19432105665E+03  0.17300000000E+03 0. -1.
         -6    1    1    2    0  503  0.67644082420E+02 -0.42103530191E+02 -0.29817405501E+03  0.35381520066E+03  0.17300000000E+03 0. -1.
</event>
<event>
 4    1  0.6069433E+000  0.1000000E+03  0.7546771E-02  0.1280296E+00
         21   -1    0    0  501  502  0.00000000000E+00  0.00000000000E+00  0.28017462143E+03  0.28017462143E+03  0.00000000000E+00 0. -1.
         21   -1    0    0  502  503 -0.00000000000E+00 -0.00000000000E+00 -0.51419460303E+03  0.51419460303E+03  0.00000000000E+00 0. -1.
          6    1    1    2  501    0  0.18084727225E+03 -0.68923622101E+01  0.18151352012E+03  0.30924003384E+03  0.17300000000E+03 0. -1.
         -6    1    1    2    0  503 -0.18084727225E+03  0.68923622101E+01 -0.41553350172E+03  0.48512919062E+03  0.17300000000E+03 0. -1.
</event>
<event>
 4    1  0.6069433E+000  0.1000000E+03  0.7546771E-02  0.1280296E+00
         21   -1    0    0  501  502  0.00000000000E+00  0.00000000000E+00  0.12081817691E+03  0.12081817691E+03  0.00000000000E+00 0. -1.
         21   -1    0    0  502  503 -0.00000000000E+00 -0.00000000000E+00 -0.63215709841E+03  0.63215709841E+03  0.00000000000E+00 0. -1.
          6    1    1    2  501    0  0.21248342464E+03 -0.25684275014E+02 -0.29008414655E+03  0.39985834969E+03  0.17300000000E+03 0. -1.
         -6    1    1    2    0  503 -0.21248342464E+03  0.25684275014E+02 -0.22125477495E+03  0.35311692563E+03  0.17300000000E+03 0. -1.
</event>
<event>
 4    1  0.6069433E+000  0.1000000E+03  0.7546771E-02  0.1280296E+00
         21   -1    0    0  501  502  0.00000000000E+00  0.00000000000E+00  0.21949819196E+04  0.21949819196E+04  0.00000000000E+00 0. -1.
         21   -1    0    0  502  503 -0.00000000000E+00 -0.00000000000E+00 -0.33100773385E+02  0.33100773385E+02  0.00000000000E+00 0. -1.
          6    1    1    2  501    0  0.78459380947E+01  0.42418259706E+02  0.19164404775E+04  0.19247165951E+04  0.17300000000E+03 0. -1.
         -6    1    1    2    0  503 -0.78459380947E+01 -0.42418259706E+02  0.24544066864E+03  0.30336609784E+03  0.17300000000E+03 0. -1.
</event>
<event>
 4    1  0.6069433E+000  0.1000000E+03  0.7546771E-02  0.1280296E+00
         21   -1    0    0  501  502  0.00000000000E+00  0.00000000000E+00  0.11228722316E+03  0.11228722316E+03  0.00000000000E+00 0. -1.
         21   -1    0    0  502  503 -0.00000000000E+00 -0.00000000000E+00 -0.29481739068E+03  0.29481739068E+03  0.00000000000E+00 0.  1.
          6    1    1    2  501    0  0.23746012261E+01  0.31159530897E+02 -0.38806756629E+02  0.18003199565E+03  0.17300000000E+03 0. -1.
         -6    1    1    2    0  503 -0.23746012261E+01 -0.31159530897E+02 -0.14372341088E+03  0.22707261819E+03  0.17300000000E+03 0.  1.
</event>
<event>
 4    1  0.6069433E+000  0.1000000E+03  0.7546771E-02  0.1280296E+00
         21   -1    0    0  501  502  0.00000000000E+00  0.00000000000E+00  0.13817232565E+04  0.13817232565E+04  0.00000000000E+00 0. -1.
         21   -1    0    0  502  503 -0.00000000000E+00 -0.00000000000E+00 -0.38919701516E+02  0.38919701516E+02  0.00000000000E+00 0.  1.
          6    1    1    2  501    0 -0.41597069182E+02 -0.22456043168E+02  0.11217141100E+04  0.11359604459E+04  0.17300000000E+03 0. -1.
         -6    1    1    2    0  503  0.41597069182E+02  0.22456043168E+02  0.22108944505E+03  0.28468251220E+03  0.17300000000E+03 0.  1.
</event>
<event>
 4    1  0.6069433E+000  0.1000000E+03  0.7546771E-02  0.1280296E+00
         21   -1    0    0  503  502  0.00000000000E+00  0.00000000000E+00  0.33240522589E+03  0.33240522589E+03  0.00000000000E+00 0. -1.
         21   -1    0    0  501  503 -0.00000000000E+00 -0.00000000000E+00 -0.21872699383E+03  0.21872699383E+03  0.00000000000E+00 0. -1.
          6    1    1    2  501    0 -0.20564240426E+03 -0.22002259243E+02  0.58907942522E+02  0.27599283240E+03  0.17300000000E+03 0. -1.
         -6    1    1    2    0  502  0.20564240426E+03  0.22002259243E+02  0.54770289536E+02  0.27513938732E+03  0.17300000000E+03 0. -1.
</event>
<event>
 4    1  0.6069433E+000  0.1000000E+03  0.7546771E-02  0.1280296E+00
         21   -1    0    0  501  502  0.00000000000E+00  0.00000000000E+00  0.19417172048E+03  0.19417172048E+03  0.00000000000E+00 0.  1.
         21   -1    0    0  502  503 -0.00000000000E+00 -0.00000000000E+00 -0.24049490655E+03  0.24049490655E+03  0.00000000000E+00 0.  1.
          6    1    1    2  501    0  0.21615965174E+02 -0.32060121537E+01  0.10520479682E+03  0.20365308183E+03  0.17300000000E+03 0.  1.
         -6    1    1    2    0  503 -0.21615965174E+02  0.32060121537E+01 -0.15152798290E+03  0.23101354520E+03  0.17300000000E+03 0.  1.
</event>
<event>
 4    1  0.6069433E+000  0.1000000E+03  0.7546771E-02  0.1280296E+00
         21   -1    0    0  501  502  0.00000000000E+00  0.00000000000E+00  0.42668809059E+03  0.42668809059E+03  0.00000000000E+00 0.  1.
         21   -1    0    0  502  503 -0.00000000000E+00 -0.00000000000E+00 -0.12702052622E+03  0.12702052622E+03  0.00000000000E+00 0.  1.
          6    1    1    2  501    0  0.34855015525E+01  0.98155041970E+00  0.33504571547E+03  0.37709116088E+03  0.17300000000E+03 0.  1.
         -6    1    1    2    0  503 -0.34855015525E+01 -0.98155041970E+00 -0.35378151092E+02  0.17661745592E+03  0.17300000000E+03 0.  1.
</event>
<event>
 4    1  0.6069433E+000  0.1000000E+03  0.7546771E-02  0.1280296E+00
         21   -1    0    0  501  502  0.00000000000E+00  0.00000000000E+00  0.99525678506E+02  0.99525678506E+02  0.00000000000E+00 0.  1.
         21   -1    0    0  502  503 -0.00000000000E+00 -0.00000000000E+00 -0.62113742166E+03  0.62113742166E+03  0.00000000000E+00 0.  1.
          6    1    1    2  501    0  0.11541848113E+02  0.32684635234E+02 -0.69252371440E+01  0.17657422957E+03  0.17300000000E+03 0.  1.
         -6    1    1    2    0  503 -0.11541848113E+02 -0.32684635234E+02 -0.51468650601E+03  0.54408887059E+03  0.17300000000E+03 0.  1.
</event>
<event>
 4    1  0.6069433E+000  0.1000000E+03  0.7546771E-02  0.1280296E+00
         21   -1    0    0  503  502  0.00000000000E+00  0.00000000000E+00  0.13301202345E+03  0.13301202345E+03  0.00000000000E+00 0. -1.
         21   -1    0    0  501  503 -0.00000000000E+00 -0.00000000000E+00 -0.32405379334E+03  0.32405379334E+03  0.00000000000E+00 0. -1.
          6    1    1    2  501    0  0.15975529790E+00  0.19454121974E+02 -0.22003667567E+03  0.28057731024E+03  0.17300000000E+03 0. -1.
         -6    1    1    2    0  502 -0.15975529790E+00 -0.19454121974E+02  0.28994905783E+02  0.17648850655E+03  0.17300000000E+03 0. -1.
</event>
<event>
 4    1  0.6069433E+000  0.1000000E+03  0.7546771E-02  0.1280296E+00
         21   -1    0    0  503  502  0.00000000000E+00  0.00000000000E+00  0.36868364138E+03  0.36868364138E+03  0.00000000000E+00 0.  1.
         21   -1    0    0  501  503 -0.00000000000E+00 -0.00000000000E+00 -0.31828962899E+03  0.31828962899E+03  0.00000000000E+00 0.  1.
          6    1    1    2  501    0 -0.10721229420E+03 -0.84035286379E+02 -0.23792908995E+03  0.32418460362E+03  0.17300000000E+03 0.  1.
         -6    1    1    2    0  502  0.10721229420E+03  0.84035286379E+02  0.28832310234E+03  0.36278866675E+03  0.17300000000E+03 0.  1.
</event>
<event>
 4    1  0.6069433E+000  0.1000000E+03  0.7546771E-02  0.1280296E+00
         21   -1    0    0  503  502  0.00000000000E+00  0.00000000000E+00  0.89671584200E+02  0.89671584200E+02  0.00000000000E+00 0.  1.
         21   -1    0    0  501  503 -0.00000000000E+00 -0.00000000000E+00 -0.73191642233E+03  0.73191642233E+03  0.00000000000E+00 0.  1.
          6    1    1    2  501    0 -0.24224077797E+02  0.16533326152E+03 -0.46256805285E+03  0.52136368960E+03  0.17300000000E+03 0.  1.
         -6    1    1    2    0  502  0.24224077797E+02 -0.16533326152E+03 -0.17967678528E+03  0.30022431693E+03  0.17300000000E+03 0.  1.
</event>
<event>
 4    1  0.6069433E+000  0.1000000E+03  0.7546771E-02  0.1280296E+00
         21   -1    0    0  503  502  0.00000000000E+00  0.00000000000E+00  0.25256498444E+04  0.25256498444E+04  0.00000000000E+00 0.  1.
         21   -1    0    0  501  503 -0.00000000000E+00 -0.00000000000E+00 -0.56544009588E+02  0.56544009588E+02  0.00000000000E+00 0.  1.
          6    1    1    2  501    0 -0.18217559493E+03  0.23292530997E+03  0.68963525363E+03  0.77004410943E+03  0.17300000000E+03 0. -1.
         -6    1    1    2    0  502  0.18217559493E+03 -0.23292530997E+03  0.17794705812E+04  0.18121497446E+04  0.17300000000E+03 0. -1.
</event>
<event>
 4    1  0.6069433E+000  0.1000000E+03  0.7546771E-02  0.1280296E+00
         21   -1    0    0  501  502  0.00000000000E+00  0.00000000000E+00  0.26416842889E+03  0.26416842889E+03  0.00000000000E+00 0. -1.
         21   -1    0    0  502  503 -0.00000000000E+00 -0.00000000000E+00 -0.34432651581E+03  0.34432651581E+03  0.00000000000E+00 0. -1.
          6    1    1    2  501    0  0.86955776136E+02  0.28393300437E+02  0.19142416055E+03  0.27375115663E+03  0.17300000000E+03 0. -1.
         -6    1    1    2    0  503 -0.86955776136E+02 -0.28393300437E+02 -0.27158224747E+03  0.33474378808E+03  0.17300000000E+03 0. -1.
</event>
<event>
 4    1  0.6069433E+000  0.1000000E+03  0.7546771E-02  0.1280296E+00
         21   -1    0    0  501  502  0.00000000000E+00  0.00000000000E+00  0.67251052002E+02  0.67251052002E+02  0.00000000000E+00 0. -1.
         21   -1    0    0  502  503 -0.00000000000E+00 -0.00000000000E+00 -0.64449918211E+03  0.64449918211E+03  0.00000000000E+00 0. -1.
          6    1    1    2  501    0  0.75965927389E+02 -0.34807658703E+02 -0.15153432774E+03  0.24469174018E+03  0.17300000000E+03 0. -1.
         -6    1    1    2    0  503 -0.75965927389E+02  0.34807658703E+02 -0.42571380237E+03  0.46705849393E+03  0.17300000000E+03 0. -1.
</event>
<event>
 4    1  0.6069433E+000  0.1000000E+03  0.7546771E-02  0.1280296E+00
         21   -1    0    0  501  502  0.00000000000E+00  0.00000000000E+00  0.24138312669E+03  0.24138312669E+03  0.00000000000E+00 0.  1.
         21   -1    0    0  502  503 -0.00000000000E+00 -0.00000000000E+00 -0.79521376691E+03  0.79521376691E+03  0.00000000000E+00 0. -1.
          6    1    1    2  501    0 -0.39989712881E+03  0.30338775196E+02 -0.23620861421E+03  0.49654976018E+03  0.17300000000E+03 0.  1.
         -6    1    1    2    0  503  0.39989712881E+03 -0.30338775196E+02 -0.31762202601E+03  0.54004713342E+03  0.17300000000E+03 0. -1.
</event>
<event>
 4    1  0.6069433E+000  0.1000000E+03  0.7546771E-02  0.1280296E+00
         21   -1    0    0  503  502  0.00000000000E+00  0.00000000000E+00  0.51267616235E+03  0.51267616235E+03  0.00000000000E+00 0.  1.
         21   -1    0    0  501  503 -0.00000000000E+00 -0.00000000000E+00 -0.10653890322E+03  0.10653890322E+03  0.00000000000E+00 0.  1.
          6    1    1    2  501    0 -0.81676142676E+01  0.16256019492E+02 -0.36951108050E+01  0.17399316635E+03  0.17300000000E+03 0.  1.
         -6    1    1    2    0  502  0.81676142676E+01 -0.16256019492E+02  0.40983236993E+03  0.44522189921E+03  0.17300000000E+03 0.  1.
</event>
<event>
 4    1  0.6069433E+000  0.1000000E+03  0.7546771E-02  0.1280296E+00
         21   -1    0    0  501  502  0.00000000000E+00  0.00000000000E+00  0.38643091354E+03  0.38643091354E+03  0.00000000000E+00 0.  1.
         21   -1    0    0  502  503 -0.00000000000E+00 -0.00000000000E+00 -0.11193248336E+03  0.11193248336E+03  0.00000000000E+00 0.  1.
          6    1    1    2  501    0 -0.69332178817E+01  0.31006609097E+02  0.27021244593E+03  0.32241781162E+03  0.17300000000E+03 0.  1.
         -6    1    1    2    0  503  0.69332178817E+01 -0.31006609097E+02  0.42859842464E+01  0.17594558528E+03  0.17300000000E+03 0.  1.
</event>
<event>
 4    1  0.6069433E+000  0.1000000E+03  0.7546771E-02  0.1280296E+00
         21   -1    0    0  501  502  0.00000000000E+00  0.00000000000E+00  0.60796813389E+03  0.60796813389E+03  0.00000000000E+00 0. -1.
         21   -1    0    0  502  503 -0.00000000000E+00 -0.00000000000E+00 -0.70508995897E+02  0.70508995897E+02  0.00000000000E+00 0. -1.
          6    1    1    2  501    0 -0.56634301688E+02  0.42428223760E+02  0.41464332395E+03  0.45482489421E+03  0.17300000000E+03 0. -1.
         -6    1    1    2    0  503  0.56634301688E+02 -0.42428223760E+02  0.12281581404E+03  0.22365223558E+03  0.17300000000E+03 0. -1.
</event>
<event>
 4    1  0.6069433E+000  0.1000000E+03  0.7546771E-02  0.1280296E+00
         21   -1    0    0  501  502  0.00000000000E+00  0.00000000000E+00  0.39121802989E+03  0.39121802989E+03  0.00000000000E+00 0. -1.
         21   -1    0    0  502  503 -0.00000000000E+00 -0.00000000000E+00 -0.81746815641E+02  0.81746815641E+02  0.00000000000E+00 0. -1.
          6    1    1    2  501    0 -0.23988101854E+02  0.38111745993E+02  0.16119955740E+03  0.24071192641E+03  0.17300000000E+03 0. -1.
         -6    1    1    2    0  503  0.23988101854E+02 -0.38111745993E+02  0.14827165685E+03  0.23225291912E+03  0.17300000000E+03 0. -1.
</event>
<event>
 4    1  0.6069433E+000  0.1000000E+03  0.7546771E-02  0.1280296E+00
         21   -1    0    0  501  502  0.00000000000E+00  0.00000000000E+00  0.59596567264E+03  0.59596567264E+03  0.00000000000E+00 0. -1.
         21   -1    0    0  502  503 -0.00000000000E+00 -0.00000000000E+00 -0.14904357210E+03  0.14904357210E+03  0.00000000000E+00 0. -1.
          6    1    1    2  501    0  0.10662831438E+03 -0.18062503058E+03  0.37603134745E+03  0.46402971172E+03  0.17300000000E+03 0. -1.
         -6    1    1    2    0  503 -0.10662831438E+03  0.18062503058E+03  0.70890753094E+02  0.28097953301E+03  0.17300000000E+03 0. -1.
</event>
<event>
 4    1  0.6069433E+000  0.1000000E+03  0.7546771E-02  0.1280296E+00
         21   -1    0    0  501  502  0.00000000000E+00  0.00000000000E+00  0.39377395242E+03  0.39377395242E+03  0.00000000000E+00 0. -1.
         21   -1    0    0  502  503 -0.00000000000E+00 -0.00000000000E+00 -0.13639250487E+03  0.13639250487E+03  0.00000000000E+00 0. -1.
          6    1    1    2  501    0 -0.45861970222E+02 -0.14303054987E+03  0.88775013425E+02  0.24570523299E+03  0.17300000000E+03 0. -1.
         -6    1    1    2    0  503  0.45861970222E+02  0.14303054987E+03  0.16860643412E+03  0.28446122431E+03  0.17300000000E+03 0. -1.
</event>
<event>
 4    1  0.6069433E+000  0.1000000E+03  0.7546771E-02  0.1280296E+00
         21   -1    0    0  501  502  0.00000000000E+00  0.00000000000E+00  0.44608121798E+02  0.44608121798E+02  0.00000000000E+00 0. -1.
         21   -1    0    0  502  503 -0.00000000000E+00 -0.00000000000E+00 -0.13468866246E+04  0.13468866246E+04  0.00000000000E+00 0. -1.
          6    1    1    2  501    0 -0.79356479555E+02  0.95487201747E+02 -0.30655470279E+03  0.37325600109E+03  0.17300000000E+03 0. -1.
         -6    1    1    2    0  503  0.79356479555E+02 -0.95487201747E+02 -0.99572380006E+03  0.10182387454E+04  0.17300000000E+03 0. -1.
</event>
<event>
 4    1  0.6069433E+000  0.1000000E+03  0.7546771E-02  0.1280296E+00
         21   -1    0    0  501  502  0.00000000000E+00  0.00000000000E+00  0.39924961953E+03  0.39924961953E+03  0.00000000000E+00 0. -1.
         21   -1    0    0  502  503 -0.00000000000E+00 -0.00000000000E+00 -0.24143394554E+03  0.24143394554E+03  0.00000000000E+00 0.  1.
          6    1    1    2  501    0  0.17073981288E+03 -0.88442697940E+02 -0.98275869559E+02  0.27669720103E+03  0.17300000000E+03 0. -1.
         -6    1    1    2    0  503 -0.17073981288E+03  0.88442697940E+02  0.25609154355E+03  0.36398636403E+03  0.17300000000E+03 0.  1.
</event>
<event>
 4    1  0.6069433E+000  0.1000000E+03  0.7546771E-02  0.1280296E+00
         21   -1    0    0  501  502  0.00000000000E+00  0.00000000000E+00  0.82191548356E+03  0.82191548356E+03  0.00000000000E+00 0. -1.
         21   -1    0    0  502  503 -0.00000000000E+00 -0.00000000000E+00 -0.93026385856E+02  0.93026385856E+02  0.00000000000E+00 0.  1.
          6    1    1    2  501    0 -0.32381797071E+02 -0.36532342446E+02  0.71206119760E+03  0.73439998771E+03  0.17300000000E+03 0. -1.
         -6    1    1    2    0  503  0.32381797071E+02  0.36532342446E+02  0.16827900102E+02  0.18054188170E+03  0.17300000000E+03 0.  1.
</event>
<event>
 4    1  0.6069433E+000  0.1000000E+03  0.7546771E-02  0.1280296E+00
         21   -1    0    0  501  502  0.00000000000E+00  0.00000000000E+00  0.14438790444E+04  0.14438790444E+04  0.00000000000E+00 0. -1.
         21   -1    0    0  502  503 -0.00000000000E+00 -0.00000000000E+00 -0.30942478910E+02  0.30942478910E+02  0.00000000000E+00 0. -1.
          6    1    1    2  501    0  0.23622408994E+02  0.18347687669E+02  0.11170947234E+04  0.11308069140E+04  0.17300000000E+03 0. -1.
         -6    1    1    2    0  503 -0.23622408994E+02 -0.18347687669E+02  0.29584184216E+03  0.34401460931E+03  0.17300000000E+03 0. -1.
</event>
<event>
 4    1  0.6069433E+000  0.1000000E+03  0.7546771E-02  0.1280296E+00
         21   -1    0    0  501  502  0.00000000000E+00  0.00000000000E+00  0.33876241171E+03  0.33876241171E+03  0.00000000000E+00 0. -1.
         21   -1    0    0  502  503 -0.00000000000E+00 -0.00000000000E+00 -0.14176926607E+03  0.14176926607E+03  0.00000000000E+00 0. -1.
          6    1    1    2  501    0 -0.10162584008E+03 -0.65651546111E+02  0.16297861734E+03  0.26670014359E+03  0.17300000000E+03 0. -1.
         -6    1    1    2    0  503  0.10162584008E+03  0.65651546111E+02  0.34014528305E+02  0.21383153419E+03  0.17300000000E+03 0. -1.
</event>
<event>
 4    1  0.6069433E+000  0.1000000E+03  0.7546771E-02  0.1280296E+00
         21   -1    0    0  503  502  0.00000000000E+00  0.00000000000E+00  0.10031706834E+04  0.10031706834E+04  0.00000000000E+00 0. -1.
         21   -1    0    0  501  503 -0.00000000000E+00 -0.00000000000E+00 -0.16669735199E+03  0.16669735199E+03  0.00000000000E+00 0. -1.
          6    1    1    2  501    0 -0.44338701714E+02  0.99533663753E+01 -0.10777417909E+03  0.20882831142E+03  0.17300000000E+03 0. -1.
         -6    1    1    2    0  502  0.44338701714E+02 -0.99533663753E+01  0.94424751045E+03  0.96103972393E+03  0.17300000000E+03 0. -1.
</event>
<event>
 4    1  0.6069433E+000  0.1000000E+03  0.7546771E-02  0.1280296E+00
         21   -1    0    0  503  502  0.00000000000E+00  0.00000000000E+00  0.96319282190E+03  0.96319282190E+03  0.00000000000E+00 0. -1.
         21   -1    0    0  501  503 -0.00000000000E+00 -0.00000000000E+00 -0.52265749397E+02  0.52265749397E+02  0.00000000000E+00 0. -1.
          6    1    1    2  501    0 -0.11178403017E+03  0.46874624713E+02  0.28431680142E+03  0.35420042831E+03  0.17300000000E+03 0. -1.
         -6    1    1    2    0  502  0.11178403017E+03 -0.46874624713E+02  0.62661027108E+03  0.66125814299E+03  0.17300000000E+03 0. -1.
</event>
<event>
 4    1  0.6069433E+000  0.1000000E+03  0.7546771E-02  0.1280296E+00
         21   -1    0    0  501  502  0.00000000000E+00  0.00000000000E+00  0.89330009763E+02  0.89330009763E+02  0.00000000000E+00 0.  1.
         21   -1    0    0  502  503 -0.00000000000E+00 -0.00000000000E+00 -0.91892477673E+03  0.91892477673E+03  0.00000000000E+00 0. -1.
          6    1    1    2  501    0 -0.57359855135E+02 -0.10696020874E+03 -0.74389607796E+02  0.22403895416E+03  0.17300000000E+03 0.  1.
         -6    1    1    2    0  503  0.57359855135E+02  0.10696020874E+03 -0.75520515918E+03  0.78421583233E+03  0.17300000000E+03 0. -1.
</event>
<event>
 4    1  0.6069433E+000  0.1000000E+03  0.7546771E-02  0.1280296E+00
         21   -1    0    0  503  502  0.00000000000E+00  0.00000000000E+00  0.87904376904E+02  0.87904376904E+02  0.00000000000E+00 0.  1.
         21   -1    0    0  501  503 -0.00000000000E+00 -0.00000000000E+00 -0.44377546417E+03  0.44377546417E+03  0.00000000000E+00 0.  1.
          6    1    1    2  501    0  0.41616878920E+02 -0.85644372668E+02 -0.17292059063E+03  0.26248324488E+03  0.17300000000E+03 0. -1.
         -6    1    1    2    0  502 -0.41616878920E+02  0.85644372668E+02 -0.18295049664E+03  0.26919659619E+03  0.17300000000E+03 0. -1.
</event>
<event>
 4    1  0.6069433E+000  0.1000000E+03  0.7546771E-02  0.1280296E+00
         21   -1    0    0  501  502  0.00000000000E+00  0.00000000000E+00  0.18151308743E+03  0.18151308743E+03  0.00000000000E+00 0.  1.
         21   -1    0    0  502  503 -0.00000000000E+00 -0.00000000000E+00 -0.30425369722E+03  0.30425369722E+03  0.00000000000E+00 0.  1.
          6    1    1    2  501    0  0.22297737826E+02  0.11739145341E+03  0.47121939166E+02  0.21547022902E+03  0.17300000000E+03 0.  1.
         -6    1    1    2    0  503 -0.22297737826E+02 -0.11739145341E+03 -0.16986254895E+03  0.27029655562E+03  0.17300000000E+03 0.  1.
</event>
<event>
 4    1  0.6069433E+000  0.1000000E+03  0.7546771E-02  0.1280296E+00
         21   -1    0    0  501  502  0.00000000000E+00  0.00000000000E+00  0.69817670806E+02  0.69817670806E+02  0.00000000000E+00 0.  1.
         21   -1    0    0  502  503 -0.00000000000E+00 -0.00000000000E+00 -0.12976385161E+04  0.12976385161E+04  0.00000000000E+00 0.  1.
          6    1    1    2  501    0 -0.81557832178E+02  0.17194319284E+02 -0.87409597425E+02  0.21098995788E+03  0.17300000000E+03 0.  1.
         -6    1    1    2    0  503  0.81557832178E+02 -0.17194319284E+02 -0.11404112478E+04  0.11564662290E+04  0.17300000000E+03 0.  1.
</event>
<event>
 4    1  0.6069433E+000  0.1000000E+03  0.7546771E-02  0.1280296E+00
         21   -1    0    0  503  502  0.00000000000E+00  0.00000000000E+00  0.42292999715E+03  0.42292999715E+03  0.00000000000E+00 0. -1.
         21   -1    0    0  501  503 -0.00000000000E+00 -0.00000000000E+00 -0.14272436347E+03  0.14272436347E+03  0.00000000000E+00 0.  1.
          6    1    1    2  501    0  0.13803263203E+03  0.75851485218E+01  0.17608439882E+02  0.22214769668E+03  0.17300000000E+03 0. -1.
         -6    1    1    2    0  502 -0.13803263203E+03 -0.75851485218E+01  0.26259719379E+03  0.34350666394E+03  0.17300000000E+03 0.  1.
</event>
<event>
 4    1  0.6069433E+000  0.1000000E+03  0.7546771E-02  0.1280296E+00
         21   -1    0    0  503  502  0.00000000000E+00  0.00000000000E+00  0.47208301980E+03  0.47208301980E+03  0.00000000000E+00 0. -1.
         21   -1    0    0  501  503 -0.00000000000E+00 -0.00000000000E+00 -0.13145340358E+03  0.13145340358E+03  0.00000000000E+00 0.  1.
          6    1    1    2  501    0 -0.48800228340E+02  0.17145447360E+03  0.14765786723E+03  0.28898087230E+03  0.17300000000E+03 0. -1.
         -6    1    1    2    0  502  0.48800228340E+02 -0.17145447360E+03  0.19297174899E+03  0.31455555107E+03  0.17300000000E+03 0.  1.
</event>
<event>
 4    1  0.6069433E+000  0.1000000E+03  0.7546771E-02  0.1280296E+00
         21   -1    0    0  503  502  0.00000000000E+00  0.00000000000E+00  0.67464203668E+03  0.67464203668E+03  0.00000000000E+00 0. -1.
         21   -1    0    0  501  503 -0.00000000000E+00 -0.00000000000E+00 -0.81014751223E+02  0.81014751223E+02  0.00000000000E+00 0. -1.
          6    1    1    2  501    0 -0.13198905968E+03 -0.20553625652E+01  0.43491103139E+03  0.48631465289E+03  0.17300000000E+03 0. -1.
         -6    1    1    2    0  502  0.13198905968E+03  0.20553625652E+01  0.15871625407E+03  0.26934213502E+03  0.17300000000E+03 0. -1.
</event>
<event>
 4    1  0.6069433E+000  0.1000000E+03  0.7546771E-02  0.1280296E+00
         21   -1    0    0  503  502  0.00000000000E+00  0.00000000000E+00  0.66438948271E+03  0.66438948271E+03  0.00000000000E+00 0. -1.
         21   -1    0    0  501  503 -0.00000000000E+00 -0.00000000000E+00 -0.84658332382E+02  0.84658332382E+02  0.00000000000E+00 0.  1.
          6    1    1    2  501    0  0.10749005125E+03  0.11888727561E+03  0.32946538669E+03  0.40517247740E+03  0.17300000000E+03 0. -1.
         -6    1    1    2    0  502 -0.10749005125E+03 -0.11888727561E+03  0.25026576364E+03  0.34387533769E+03  0.17300000000E+03 0.  1.
</event>
<event>
 4    1  0.6069433E+000  0.1000000E+03  0.7546771E-02  0.1280296E+00
         21   -1    0    0  503  502  0.00000000000E+00  0.00000000000E+00  0.14421113626E+03  0.14421113626E+03  0.00000000000E+00 0. -1.
         21   -1    0    0  501  503 -0.00000000000E+00 -0.00000000000E+00 -0.70532614238E+03  0.70532614238E+03  0.00000000000E+00 0.  1.
          6    1    1    2  501    0 -0.60381898863E+02  0.57238999622E+02 -0.61976227489E+03  0.64881164768E+03  0.17300000000E+03 0. -1.
         -6    1    1    2    0  502  0.60381898863E+02 -0.57238999622E+02  0.58647268776E+02  0.20072563096E+03  0.17300000000E+03 0.  1.
</event>
<event>
 4    1  0.6069433E+000  0.1000000E+03  0.7546771E-02  0.1280296E+00
         21   -1    0    0  503  502  0.00000000000E+00  0.00000000000E+00  0.82863784771E+02  0.82863784771E+02  0.00000000000E+00 0. -1.
         21   -1    0    0  501  503 -0.00000000000E+00 -0.00000000000E+00 -0.12909503478E+04  0.12909503478E+04  0.00000000000E+00 0.  1.
          6    1    1    2  501    0  0.12455636279E+03  0.94793938218E+02 -0.10854606914E+04  0.11102495624E+04  0.17300000000E+03 0. -1.
         -6    1    1    2    0  502 -0.12455636279E+03 -0.94793938218E+02 -0.12262587155E+03  0.26356457009E+03  0.17300000000E+03 0.  1.
</event>
<event>
 4    1  0.6069433E+000  0.1000000E+03  0.7546771E-02  0.1280296E+00
         21   -1    0    0  501  502  0.00000000000E+00  0.00000000000E+00  0.31261379562E+03  0.31261379562E+03  0.00000000000E+00 0. -1.
         21   -1    0    0  502  503 -0.00000000000E+00 -0.00000000000E+00 -0.40919762749E+03  0.40919762749E+03  0.00000000000E+00 0. -1.
          6    1    1    2  501    0  0.25939694083E+03 -0.17522292060E+03 -0.49711334219E+02  0.36109564047E+03  0.17300000000E+03 0. -1.
         -6    1    1    2    0  503 -0.25939694083E+03  0.17522292060E+03 -0.46872497651E+02  0.36071578265E+03  0.17300000000E+03 0. -1.
</event>
<event>
 4    1  0.6069433E+000  0.1000000E+03  0.7546771E-02  0.1280296E+00
         21   -1    0    0  501  502  0.00000000000E+00  0.00000000000E+00  0.52723621064E+03  0.52723621064E+03  0.00000000000E+00 0. -1.
         21   -1    0    0  502  503 -0.00000000000E+00 -0.00000000000E+00 -0.14572967316E+03  0.14572967316E+03  0.00000000000E+00 0. -1.
          6    1    1    2  501    0 -0.69950952625E+02  0.20350885472E+03  0.22038786268E+03  0.35328288911E+03  0.17300000000E+03 0. -1.
         -6    1    1    2    0  503  0.69950952625E+02 -0.20350885472E+03  0.16111867480E+03  0.31968299468E+03  0.17300000000E+03 0. -1.
</event>
<event>
 4    1  0.6069433E+000  0.1000000E+03  0.7546771E-02  0.1280296E+00
         21   -1    0    0  501  502  0.00000000000E+00  0.00000000000E+00  0.94140748545E+02  0.94140748545E+02  0.00000000000E+00 0. -1.
         21   -1    0    0  502  503 -0.00000000000E+00 -0.00000000000E+00 -0.82159469263E+03  0.82159469263E+03  0.00000000000E+00 0. -1.
          6    1    1    2  501    0 -0.14554150575E+02  0.20034635804E+03 -0.22533502079E+03  0.34793010516E+03  0.17300000000E+03 0. -1.
         -6    1    1    2    0  503  0.14554150575E+02 -0.20034635804E+03 -0.50211892329E+03  0.56780533602E+03  0.17300000000E+03 0. -1.
</event>
<event>
 4    1  0.6069433E+000  0.1000000E+03  0.7546771E-02  0.1280296E+00
         21   -1    0    0  503  502  0.00000000000E+00  0.00000000000E+00  0.16979027980E+03  0.16979027980E+03  0.00000000000E+00 0. -1.
         21   -1    0    0  501  503 -0.00000000000E+00 -0.00000000000E+00 -0.46188784571E+03  0.46188784571E+03  0.00000000000E+00 0.  1.
          6    1    1    2  501    0  0.69024795255E+02  0.14683631167E+03 -0.31397615069E+03  0.39349122987E+03  0.17300000000E+03 0.  1.
         -6    1    1    2    0  502 -0.69024795255E+02 -0.14683631167E+03  0.21878584775E+02  0.23818689564E+03  0.17300000000E+03 0. -1.
</event>
<event>
 4    1  0.6069433E+000  0.1000000E+03  0.7546771E-02  0.1280296E+00
         21   -1    0    0  501  502  0.00000000000E+00  0.00000000000E+00  0.83246941055E+03  0.83246941055E+03  0.00000000000E+00 0. -1.
         21   -1    0    0  502  503 -0.00000000000E+00 -0.00000000000E+00 -0.68333538349E+02  0.68333538349E+02  0.00000000000E+00 0. -1.
          6    1    1    2  501    0 -0.81032644814E+02 -0.30831993962E+02  0.64536332396E+03  0.67375048890E+03  0.17300000000E+03 0. -1.
         -6    1    1    2    0  503  0.81032644814E+02  0.30831993962E+02  0.11877254824E+03  0.22705246000E+03  0.17300000000E+03 0. -1.
</event>
<event>
 4    1  0.6069433E+000  0.1000000E+03  0.7546771E-02  0.1280296E+00
         21   -1    0    0  501  502  0.00000000000E+00  0.00000000000E+00  0.10228185458E+04  0.10228185458E+04  0.00000000000E+00 0. -1.
         21   -1    0    0  502  503 -0.00000000000E+00 -0.00000000000E+00 -0.37647327696E+02  0.37647327696E+02  0.00000000000E+00 0. -1.
          6    1    1    2  501    0  0.21306498093E+02  0.51949515008E+02  0.69160107560E+03  0.71511800896E+03  0.17300000000E+03 0. -1.
         -6    1    1    2    0  503 -0.21306498093E+02 -0.51949515008E+02  0.29357014252E+03  0.34534786455E+03  0.17300000000E+03 0. -1.
</event>
<event>
 4    1  0.6069433E+000  0.1000000E+03  0.7546771E-02  0.1280296E+00
         21   -1    0    0  501  502  0.00000000000E+00  0.00000000000E+00  0.85930770519E+03  0.85930770519E+03  0.00000000000E+00 0. -1.
         21   -1    0    0  502  503 -0.00000000000E+00 -0.00000000000E+00 -0.64104710789E+02  0.64104710789E+02  0.00000000000E+00 0. -1.
          6    1    1    2  501    0  0.12381733562E+02 -0.14363486803E+03  0.52768008063E+03  0.57372428059E+03  0.17300000000E+03 0. -1.
         -6    1    1    2    0  503 -0.12381733562E+02  0.14363486803E+03  0.26752291377E+03  0.34968813539E+03  0.17300000000E+03 0. -1.
</event>
<event>
 4    1  0.6069433E+000  0.1000000E+03  0.7546771E-02  0.1280296E+00
         21   -1    0    0  501  502  0.00000000000E+00  0.00000000000E+00  0.22223150152E+03  0.22223150152E+03  0.00000000000E+00 0. -1.
         21   -1    0    0  502  503 -0.00000000000E+00 -0.00000000000E+00 -0.56209024261E+03  0.56209024261E+03  0.00000000000E+00 0. -1.
          6    1    1    2  501    0  0.24242721945E+03  0.13148388441E+03 -0.17281755214E+02  0.32601629968E+03  0.17300000000E+03 0. -1.
         -6    1    1    2    0  503 -0.24242721945E+03 -0.13148388441E+03 -0.32257698589E+03  0.45830544445E+03  0.17300000000E+03 0. -1.
</event>
<event>
 4    1  0.6069433E+000  0.1000000E+03  0.7546771E-02  0.1280296E+00
         21   -1    0    0  503  502  0.00000000000E+00  0.00000000000E+00  0.36194192877E+03  0.36194192877E+03  0.00000000000E+00 0.  1.
         21   -1    0    0  501  503 -0.00000000000E+00 -0.00000000000E+00 -0.16143727478E+03  0.16143727478E+03  0.00000000000E+00 0. -1.
          6    1    1    2  501    0  0.14869105814E+03  0.79939541093E+02  0.98520987932E+02  0.26102633213E+03  0.17300000000E+03 0. -1.
         -6    1    1    2    0  502 -0.14869105814E+03 -0.79939541093E+02  0.10198366606E+03  0.26235287142E+03  0.17300000000E+03 0.  1.
</event>
<event>
 4    1  0.6069433E+000  0.1000000E+03  0.7546771E-02  0.1280296E+00
         21   -1    0    0  503  502  0.00000000000E+00  0.00000000000E+00  0.18446978534E+03  0.18446978534E+03  0.00000000000E+00 0.  1.
         21   -1    0    0  501  503 -0.00000000000E+00 -0.00000000000E+00 -0.30092810792E+03  0.30092810792E+03  0.00000000000E+00 0. -1.
          6    1    1    2  501    0 -0.30185648535E+02 -0.39857274377E+02 -0.21473245372E+03  0.28024775178E+03  0.17300000000E+03 0. -1.
         -6    1    1    2    0  502  0.30185648535E+02  0.39857274377E+02  0.98274131142E+02  0.20515014148E+03  0.17300000000E+03 0.  1.
</event>
<event>
 4    1  0.6069433E+000  0.1000000E+03  0.7546771E-02  0.1280296E+00
         21   -1    0    0  501  502  0.00000000000E+00  0.00000000000E+00  0.20824067747E+03  0.20824067747E+03  0.00000000000E+00 0. -1.
         21   -1    0    0  502  503 -0.00000000000E+00 -0.00000000000E+00 -0.54923318802E+03  0.54923318802E+03  0.00000000000E+00 0. -1.
          6    1    1    2  501    0  0.48262392485E+02 -0.14962353781E+03  0.10319610375E+03  0.25552866263E+03  0.17300000000E+03 0. -1.
         -6    1    1    2    0  503 -0.48262392485E+02  0.14962353781E+03 -0.44418861431E+03  0.50194520286E+03  0.17300000000E+03 0. -1.
</event>
<event>
 4    1  0.6069433E+000  0.1000000E+03  0.7546771E-02  0.1280296E+00
         21   -1    0    0  501  502  0.00000000000E+00  0.00000000000E+00  0.21341513435E+04  0.21341513435E+04  0.00000000000E+00 0. -1.
         21   -1    0    0  502  503 -0.00000000000E+00 -0.00000000000E+00 -0.32977964635E+02  0.32977964635E+02  0.00000000000E+00 0. -1.
          6    1    1    2  501    0  0.29374000122E+02  0.19892396751E+03  0.10335537325E+04  0.10670500900E+04  0.17300000000E+03 0. -1.
         -6    1    1    2    0  503 -0.29374000122E+02 -0.19892396751E+03  0.10676196464E+04  0.11000792181E+04  0.17300000000E+03 0. -1.
</event>
<event>
 4    1  0.6069433E+000  0.1000000E+03  0.7546771E-02  0.1280296E+00
         21   -1    0    0  503  502  0.00000000000E+00  0.00000000000E+00  0.11081051869E+04  0.11081051869E+04  0.00000000000E+00 0. -1.
         21   -1    0    0  501  503 -0.00000000000E+00 -0.00000000000E+00 -0.29709703791E+02  0.29709703791E+02  0.00000000000E+00 0.  1.
          6    1    1    2  501    0  0.33618617506E+02  0.42489980628E+02  0.56284234487E+03  0.59131727107E+03  0.17300000000E+03 0.  1.
         -6    1    1    2    0  502 -0.33618617506E+02 -0.42489980628E+02  0.51555313828E+03  0.54649761966E+03  0.17300000000E+03 0. -1.
</event>
<event>
 4    1  0.6069433E+000  0.1000000E+03  0.7546771E-02  0.1280296E+00
         21   -1    0    0  503  502  0.00000000000E+00  0.00000000000E+00  0.68633627921E+03  0.68633627921E+03  0.00000000000E+00 0. -1.
         21   -1    0    0  501  503 -0.00000000000E+00 -0.00000000000E+00 -0.66084044365E+02  0.66084044365E+02  0.00000000000E+00 0. -1.
          6    1    1    2  501    0 -0.77120152498E+02 -0.31223014970E+02  0.14721989092E+03  0.24191959588E+03  0.17300000000E+03 0. -1.
         -6    1    1    2    0  502  0.77120152498E+02  0.31223014970E+02  0.47303234392E+03  0.51050072770E+03  0.17300000000E+03 0. -1.
</event>
<event>
 4    1  0.6069433E+000  0.1000000E+03  0.7546771E-02  0.1280296E+00
         21   -1    0    0  503  502  0.00000000000E+00  0.00000000000E+00  0.58741782328E+03  0.58741782328E+03  0.00000000000E+00 0.  1.
         21   -1    0    0  501  503 -0.00000000000E+00 -0.00000000000E+00 -0.18732596573E+03  0.18732596573E+03  0.00000000000E+00 0.  1.
          6    1    1    2  501    0  0.86328036779E+02 -0.67478980627E+02 -0.10470203336E+03  0.22999447504E+03  0.17300000000E+03 0.  1.
         -6    1    1    2    0  502 -0.86328036779E+02  0.67478980627E+02  0.50479389091E+03  0.54474931396E+03  0.17300000000E+03 0.  1.
</event>
<event>
 4    1  0.6069433E+000  0.1000000E+03  0.7546771E-02  0.1280296E+00
         21   -1    0    0  501  502  0.00000000000E+00  0.00000000000E+00  0.10972790939E+04  0.10972790939E+04  0.00000000000E+00 0. -1.
         21   -1    0    0  502  503 -0.00000000000E+00 -0.00000000000E+00 -0.33383026030E+02  0.33383026030E+02  0.00000000000E+00 0. -1.
          6    1    1    2  501    0 -0.25961120043E+02 -0.49003735548E+02  0.70981871526E+03  0.73269840616E+03  0.17300000000E+03 0. -1.
         -6    1    1    2    0  503  0.25961120043E+02  0.49003735548E+02  0.35407735265E+03  0.39796371381E+03  0.17300000000E+03 0. -1.
</event>
<event>
 4    1  0.6069433E+000  0.1000000E+03  0.7546771E-02  0.1280296E+00
         21   -1    0    0  501  502  0.00000000000E+00  0.00000000000E+00  0.19398365138E+02  0.19398365138E+02  0.00000000000E+00 0. -1.
         21   -1    0    0  502  503 -0.00000000000E+00 -0.00000000000E+00 -0.25186689920E+04  0.25186689920E+04  0.00000000000E+00 0. -1.
          6    1    1    2  501    0 -0.11084177635E+03  0.36405025857E+02 -0.83096469524E+03  0.85676283184E+03  0.17300000000E+03 0. -1.
         -6    1    1    2    0  503  0.11084177635E+03 -0.36405025857E+02 -0.16683059316E+04  0.16813045253E+04  0.17300000000E+03 0. -1.
</event>
<event>
 4    1  0.6069433E+000  0.1000000E+03  0.7546771E-02  0.1280296E+00
         21   -1    0    0  501  502  0.00000000000E+00  0.00000000000E+00  0.22000867775E+03  0.22000867775E+03  0.00000000000E+00 0. -1.
         21   -1    0    0  502  503 -0.00000000000E+00 -0.00000000000E+00 -0.50852613583E+03  0.50852613583E+03  0.00000000000E+00 0. -1.
          6    1    1    2  501    0 -0.11732846511E+02 -0.46841789600E+02  0.16303456483E+03  0.24257180848E+03  0.17300000000E+03 0. -1.
         -6    1    1    2    0  503  0.11732846511E+02  0.46841789600E+02 -0.45155202290E+03  0.48596300510E+03  0.17300000000E+03 0. -1.
</event>
<event>
 4    1  0.6069433E+000  0.1000000E+03  0.7546771E-02  0.1280296E+00
         21   -1    0    0  503  502  0.00000000000E+00  0.00000000000E+00  0.10099987067E+04  0.10099987067E+04  0.00000000000E+00 0. -1.
         21   -1    0    0  501  503 -0.00000000000E+00 -0.00000000000E+00 -0.86322715187E+02  0.86322715187E+02  0.00000000000E+00 0. -1.
          6    1    1    2  501    0 -0.23020361077E+03 -0.58031432824E+02  0.40628427388E+03  0.50135542364E+03  0.17300000000E+03 0. -1.
         -6    1    1    2    0  502  0.23020361077E+03  0.58031432824E+02  0.51739171768E+03  0.59496599830E+03  0.17300000000E+03 0. -1.
</event>
<event>
 4    1  0.6069433E+000  0.1000000E+03  0.7546771E-02  0.1280296E+00
         21   -1    0    0  503  502  0.00000000000E+00  0.00000000000E+00  0.79818502103E+03  0.79818502103E+03  0.00000000000E+00 0. -1.
         21   -1    0    0  501  503 -0.00000000000E+00 -0.00000000000E+00 -0.29004375194E+03  0.29004375194E+03  0.00000000000E+00 0. -1.
          6    1    1    2  501    0  0.91866166720E+02 -0.35675958498E+03 -0.36148944391E+02  0.40859826265E+03  0.17300000000E+03 0. -1.
         -6    1    1    2    0  502 -0.91866166720E+02  0.35675958498E+03  0.54429021348E+03  0.67963051032E+03  0.17300000000E+03 0. -1.
</event>
<event>
 4    1  0.6069433E+000  0.1000000E+03  0.7546771E-02  0.1280296E+00
         21   -1    0    0  501  502  0.00000000000E+00  0.00000000000E+00  0.13395677540E+04  0.13395677540E+04  0.00000000000E+00 0. -1.
         21   -1    0    0  502  503 -0.00000000000E+00 -0.00000000000E+00 -0.43675173856E+02  0.43675173856E+02  0.00000000000E+00 0. -1.
          6    1    1    2  501    0 -0.12936577634E+03 -0.58080861679E+02  0.91106897976E+03  0.93812823029E+03  0.17300000000E+03 0. -1.
         -6    1    1    2    0  503  0.12936577634E+03  0.58080861679E+02  0.38482360040E+03  0.44511469759E+03  0.17300000000E+03 0. -1.
</event>
<event>
 4    1  0.6069433E+000  0.1000000E+03  0.7546771E-02  0.1280296E+00
         21   -1    0    0  501  502  0.00000000000E+00  0.00000000000E+00  0.23809493273E+03  0.23809493273E+03  0.00000000000E+00 0. -1.
         21   -1    0    0  502  503 -0.00000000000E+00 -0.00000000000E+00 -0.94830373955E+03  0.94830373955E+03  0.00000000000E+00 0. -1.
          6    1    1    2  501    0  0.29739029468E+02  0.69671537613E+02  0.18922821568E+03  0.26734780836E+03  0.17300000000E+03 0. -1.
         -6    1    1    2    0  503 -0.29739029468E+02 -0.69671537613E+02 -0.89943702249E+03  0.91905086391E+03  0.17300000000E+03 0. -1.
</event>
<event>
 4    1  0.6069433E+000  0.1000000E+03  0.7546771E-02  0.1280296E+00
         21   -1    0    0  501  502  0.00000000000E+00  0.00000000000E+00  0.12844945768E+04  0.12844945768E+04  0.00000000000E+00 0.  1.
         21   -1    0    0  502  503 -0.00000000000E+00 -0.00000000000E+00 -0.29337407625E+02  0.29337407625E+02  0.00000000000E+00 0.  1.
          6    1    1    2  501    0  0.54573046283E+02 -0.23227703715E+02  0.84785191987E+03  0.86735207478E+03  0.17300000000E+03 0.  1.
         -6    1    1    2    0  503 -0.54573046283E+02  0.23227703715E+02  0.40730524927E+03  0.44647990961E+03  0.17300000000E+03 0.  1.
</event>
<event>
 4    1  0.6069433E+000  0.1000000E+03  0.7546771E-02  0.1280296E+00
         21   -1    0    0  503  502  0.00000000000E+00  0.00000000000E+00  0.36432567202E+02  0.36432567202E+02  0.00000000000E+00 0. -1.
         21   -1    0    0  501  503 -0.00000000000E+00 -0.00000000000E+00 -0.10079824230E+04  0.10079824230E+04  0.00000000000E+00 0. -1.
          6    1    1    2  501    0 -0.46776642642E+02  0.64547903669E+02 -0.54292928003E+03  0.57537439053E+03  0.17300000000E+03 0. -1.
         -6    1    1    2    0  502  0.46776642642E+02 -0.64547903669E+02 -0.42862057574E+03  0.46904059964E+03  0.17300000000E+03 0. -1.
</event>
<event>
 4    1  0.6069433E+000  0.1000000E+03  0.7546771E-02  0.1280296E+00
         21   -1    0    0  501  502  0.00000000000E+00  0.00000000000E+00  0.74688509955E+03  0.74688509955E+03  0.00000000000E+00 0.  1.
         21   -1    0    0  502  503 -0.00000000000E+00 -0.00000000000E+00 -0.93001631979E+02  0.93001631979E+02  0.00000000000E+00 0.  1.
          6    1    1    2  501    0 -0.89392229752E+02 -0.10324102515E+03  0.55719906117E+03  0.59920737127E+03  0.17300000000E+03 0.  1.
         -6    1    1    2    0  503  0.89392229752E+02  0.10324102515E+03  0.96684406399E+02  0.24067936026E+03  0.17300000000E+03 0.  1.
</event>
<event>
 4    1  0.6069433E+000  0.1000000E+03  0.7546771E-02  0.1280296E+00
         21   -1    0    0  501  502  0.00000000000E+00  0.00000000000E+00  0.22210830006E+02  0.22210830006E+02  0.00000000000E+00 0.  1.
         21   -1    0    0  502  503 -0.00000000000E+00 -0.00000000000E+00 -0.20534423526E+04  0.20534423526E+04  0.00000000000E+00 0.  1.
          6    1    1    2  501    0  0.84144000596E+02  0.52769820123E+02 -0.64504747891E+03  0.67518894896E+03  0.17300000000E+03 0.  1.
         -6    1    1    2    0  503 -0.84144000596E+02 -0.52769820123E+02 -0.13861840437E+04  0.14004642337E+04  0.17300000000E+03 0.  1.
</event>
<event>
 4    1  0.6069433E+000  0.1000000E+03  0.7546771E-02  0.1280296E+00
         21   -1    0    0  501  502  0.00000000000E+00  0.00000000000E+00  0.71226848301E+02  0.71226848301E+02  0.00000000000E+00 0.  1.
         21   -1    0    0  502  503 -0.00000000000E+00 -0.00000000000E+00 -0.48863134107E+03  0.48863134107E+03  0.00000000000E+00 0.  1.
          6    1    1    2  501    0 -0.42586764834E+02  0.18521170889E+02 -0.13047454498E+03  0.22160612175E+03  0.17300000000E+03 0.  1.
         -6    1    1    2    0  503  0.42586764834E+02 -0.18521170889E+02 -0.28692994780E+03  0.33825206763E+03  0.17300000000E+03 0.  1.
</event>
<event>
 4    1  0.6069433E+000  0.1000000E+03  0.7546771E-02  0.1280296E+00
         21   -1    0    0  503  502  0.00000000000E+00  0.00000000000E+00  0.66662680095E+03  0.66662680095E+03  0.00000000000E+00 0. -1.
         21   -1    0    0  501  503 -0.00000000000E+00 -0.00000000000E+00 -0.85892661731E+02  0.85892661731E+02  0.00000000000E+00 0.  1.
          6    1    1    2  501    0  0.80231963429E+02  0.14391631629E+03  0.31147946944E+03  0.39255258748E+03  0.17300000000E+03 0.  1.
         -6    1    1    2    0  502 -0.80231963429E+02 -0.14391631629E+03  0.26925466978E+03  0.35996687521E+03  0.17300000000E+03 0. -1.
</event>
<event>
 4    1  0.6069433E+000  0.1000000E+03  0.7546771E-02  0.1280296E+00
         21   -1    0    0  503  502  0.00000000000E+00  0.00000000000E+00  0.52926898405E+03  0.52926898405E+03  0.00000000000E+00 0. -1.
         21   -1    0    0  501  503 -0.00000000000E+00 -0.00000000000E+00 -0.95817003758E+02  0.95817003758E+02  0.00000000000E+00 0.  1.
          6    1    1    2  501    0 -0.11587915955E+03  0.84855469896E+02  0.23403484312E+03  0.32454543316E+03  0.17300000000E+03 0.  1.
         -6    1    1    2    0  502  0.11587915955E+03 -0.84855469896E+02  0.19941713717E+03  0.30054055465E+03  0.17300000000E+03 0. -1.
</event>
<event>
 4    1  0.6069433E+000  0.1000000E+03  0.7546771E-02  0.1280296E+00
         21   -1    0    0  501  502  0.00000000000E+00  0.00000000000E+00  0.39773867469E+03  0.39773867469E+03  0.00000000000E+00 0. -1.
         21   -1    0    0  502  503 -0.00000000000E+00 -0.00000000000E+00 -0.86044849110E+02  0.86044849110E+02  0.00000000000E+00 0. -1.
          6    1    1    2  501    0 -0.45092506304E+02 -0.43437318685E+02  0.13055226014E+03  0.22559483018E+03  0.17300000000E+03 0. -1.
         -6    1    1    2    0  503  0.45092506304E+02  0.43437318685E+02  0.18114156545E+03  0.25818869362E+03  0.17300000000E+03 0. -1.
</event>
<event>
 4    1  0.6069433E+000  0.1000000E+03  0.7546771E-02  0.1280296E+00
         21   -1    0    0  501  502  0.00000000000E+00  0.00000000000E+00  0.24754223715E+04  0.24754223715E+04  0.00000000000E+00 0.  1.
         21   -1    0    0  502  503 -0.00000000000E+00 -0.00000000000E+00 -0.92290901067E+02  0.92290901067E+02  0.00000000000E+00 0.  1.
          6    1    1    2  501    0 -0.15541480886E+03  0.15279249849E+01  0.23132048007E+04  0.23248659202E+04  0.17300000000E+03 0.  1.
         -6    1    1    2    0  503  0.15541480886E+03 -0.15279249849E+01  0.69926669736E+02  0.24284735227E+03  0.17300000000E+03 0.  1.
</event>
<event>
 4    1  0.6069433E+000  0.1000000E+03  0.7546771E-02  0.1280296E+00
         21   -1    0    0  501  502  0.00000000000E+00  0.00000000000E+00  0.17426005262E+04  0.17426005262E+04  0.00000000000E+00 0.  1.
         21   -1    0    0  502  503 -0.00000000000E+00 -0.00000000000E+00 -0.74845629936E+02  0.74845629936E+02  0.00000000000E+00 0.  1.
          6    1    1    2  501    0  0.17595745618E+03  0.15035320365E+03  0.13789751221E+04  0.14089245898E+04  0.17300000000E+03 0.  1.
         -6    1    1    2    0  503 -0.17595745618E+03 -0.15035320365E+03  0.28877977417E+03  0.40852156639E+03  0.17300000000E+03 0.  1.
</event>
<event>
 4    1  0.6069433E+000  0.1000000E+03  0.7546771E-02  0.1280296E+00
         21   -1    0    0  501  502  0.00000000000E+00  0.00000000000E+00  0.31270937622E+03  0.31270937622E+03  0.00000000000E+00 0.  1.
         21   -1    0    0  502  503 -0.00000000000E+00 -0.00000000000E+00 -0.31859400146E+03  0.31859400146E+03  0.00000000000E+00 0.  1.
          6    1    1    2  501    0  0.13183612568E+03  0.54786397572E+02  0.21913943681E+03  0.31358157815E+03  0.17300000000E+03 0.  1.
         -6    1    1    2    0  503 -0.13183612568E+03 -0.54786397572E+02 -0.22502406205E+03  0.31772179952E+03  0.17300000000E+03 0.  1.
</event>
<event>
 4    1  0.6069433E+000  0.1000000E+03  0.7546771E-02  0.1280296E+00
         21   -1    0    0  501  502  0.00000000000E+00  0.00000000000E+00  0.39194850236E+03  0.39194850236E+03  0.00000000000E+00 0.  1.
         21   -1    0    0  502  503 -0.00000000000E+00 -0.00000000000E+00 -0.10883997373E+03  0.10883997373E+03  0.00000000000E+00 0.  1.
          6    1    1    2  501    0  0.27869685289E+02 -0.80264073439E+02  0.23155693524E+03  0.30127504892E+03  0.17300000000E+03 0.  1.
         -6    1    1    2    0  503 -0.27869685289E+02  0.80264073439E+02  0.51551593387E+02  0.19951342718E+03  0.17300000000E+03 0.  1.
</event>
<event>
 4    1  0.6069433E+000  0.1000000E+03  0.7546771E-02  0.1280296E+00
         21   -1    0    0  501  502  0.00000000000E+00  0.00000000000E+00  0.53967530591E+03  0.53967530591E+03  0.00000000000E+00 0.  1.
         21   -1    0    0  502  503 -0.00000000000E+00 -0.00000000000E+00 -0.14924968083E+03  0.14924968083E+03  0.00000000000E+00 0.  1.
          6    1    1    2  501    0 -0.17799651103E+02  0.59715312328E+02  0.45759740245E+03  0.49316034800E+03  0.17300000000E+03 0.  1.
         -6    1    1    2    0  503  0.17799651103E+02 -0.59715312328E+02 -0.67171777375E+02  0.19576463874E+03  0.17300000000E+03 0.  1.
</event>
<event>
 4    1  0.6069433E+000  0.1000000E+03  0.7546771E-02  0.1280296E+00
         21   -1    0    0  501  502  0.00000000000E+00  0.00000000000E+00  0.15968633397E+04  0.15968633397E+04  0.00000000000E+00 0.  1.
         21   -1    0    0  502  503 -0.00000000000E+00 -0.00000000000E+00 -0.72259917231E+02  0.72259917231E+02  0.00000000000E+00 0.  1.
          6    1    1    2  501    0  0.12778124038E+03 -0.17782160783E+03  0.28646400673E+03  0.39992398873E+03  0.17300000000E+03 0.  1.
         -6    1    1    2    0  503 -0.12778124038E+03  0.17782160783E+03  0.12381394157E+04  0.12691992682E+04  0.17300000000E+03 0.  1.
</event>
<event>
 4    1  0.6069433E+000  0.1000000E+03  0.7546771E-02  0.1280296E+00
         21   -1    0    0  501  502  0.00000000000E+00  0.00000000000E+00  0.84752359890E+02  0.84752359890E+02  0.00000000000E+00 0.  1.
         21   -1    0    0  502  503 -0.00000000000E+00 -0.00000000000E+00 -0.12338724481E+04  0.12338724481E+04  0.00000000000E+00 0.  1.
          6    1    1    2  501    0  0.24713574085E+03 -0.80628852771E+02 -0.74596114124E+03  0.80868047493E+03  0.17300000000E+03 0.  1.
         -6    1    1    2    0  503 -0.24713574085E+03  0.80628852771E+02 -0.40315894702E+03  0.50994433310E+03  0.17300000000E+03 0.  1.
</event>
<event>
 4    1  0.6069433E+000  0.1000000E+03  0.7546771E-02  0.1280296E+00
         21   -1    0    0  503  502  0.00000000000E+00  0.00000000000E+00  0.49960501447E+02  0.49960501447E+02  0.00000000000E+00 0. -1.
         21   -1    0    0  501  503 -0.00000000000E+00 -0.00000000000E+00 -0.10082630936E+04  0.10082630936E+04  0.00000000000E+00 0. -1.
          6    1    1    2  501    0 -0.10103205519E+03  0.48024491569E+02 -0.68909238669E+03  0.71922954984E+03  0.17300000000E+03 0. -1.
         -6    1    1    2    0  502  0.10103205519E+03 -0.48024491569E+02 -0.26921020551E+03  0.33899404525E+03  0.17300000000E+03 0. -1.
</event>
<event>
 4    1  0.6069433E+000  0.1000000E+03  0.7546771E-02  0.1280296E+00
         21   -1    0    0  501  502  0.00000000000E+00  0.00000000000E+00  0.35127553843E+03  0.35127553843E+03  0.00000000000E+00 0. -1.
         21   -1    0    0  502  503 -0.00000000000E+00 -0.00000000000E+00 -0.21258306481E+03  0.21258306481E+03  0.00000000000E+00 0. -1.
          6    1    1    2  501    0  0.26977370734E+02 -0.97944035729E+02  0.26076810035E+03  0.32901339612E+03  0.17300000000E+03 0. -1.
         -6    1    1    2    0  503 -0.26977370734E+02  0.97944035729E+02 -0.12207562673E+03  0.23484520712E+03  0.17300000000E+03 0. -1.
</event>
<event>
 4    1  0.6069433E+000  0.1000000E+03  0.7546771E-02  0.1280296E+00
         21   -1    0    0  501  502  0.00000000000E+00  0.00000000000E+00  0.48792799046E+03  0.48792799046E+03  0.00000000000E+00 0. -1.
         21   -1    0    0  502  503 -0.00000000000E+00 -0.00000000000E+00 -0.13938181681E+03  0.13938181681E+03  0.00000000000E+00 0. -1.
          6    1    1    2  501    0 -0.14794181337E+03  0.31701734123E+02  0.32249569085E+03  0.39601041742E+03  0.17300000000E+03 0. -1.
         -6    1    1    2    0  503  0.14794181337E+03 -0.31701734123E+02  0.26050482806E+02  0.23129938985E+03  0.17300000000E+03 0. -1.
</event>
<event>
 4    1  0.6069433E+000  0.1000000E+03  0.7546771E-02  0.1280296E+00
         21   -1    0    0  501  502  0.00000000000E+00  0.00000000000E+00  0.25682177330E+03  0.25682177330E+03  0.00000000000E+00 0. -1.
         21   -1    0    0  502  503 -0.00000000000E+00 -0.00000000000E+00 -0.55315677620E+03  0.55315677620E+03  0.00000000000E+00 0. -1.
          6    1    1    2  501    0 -0.24481984311E+03  0.17534799725E+03  0.92008588673E+01  0.34741521487E+03  0.17300000000E+03 0. -1.
         -6    1    1    2    0  503  0.24481984311E+03 -0.17534799725E+03 -0.30553586177E+03  0.46256333463E+03  0.17300000000E+03 0. -1.
</event>
<event>
 4    1  0.6069433E+000  0.1000000E+03  0.7546771E-02  0.1280296E+00
         21   -1    0    0  503  502  0.00000000000E+00  0.00000000000E+00  0.15577124755E+03  0.15577124755E+03  0.00000000000E+00 0.  1.
         21   -1    0    0  501  503 -0.00000000000E+00 -0.00000000000E+00 -0.26539116559E+03  0.26539116559E+03  0.00000000000E+00 0. -1.
          6    1    1    2  501    0  0.84610972879E+02  0.38679682288E+01 -0.12222846624E+03  0.22812885804E+03  0.17300000000E+03 0.  1.
         -6    1    1    2    0  502 -0.84610972879E+02 -0.38679682288E+01  0.12608548200E+02  0.19303355511E+03  0.17300000000E+03 0. -1.
</event>
<event>
 4    1  0.6069433E+000  0.1000000E+03  0.7546771E-02  0.1280296E+00
         21   -1    0    0  503  502  0.00000000000E+00  0.00000000000E+00  0.14623288525E+03  0.14623288525E+03  0.00000000000E+00 0. -1.
         21   -1    0    0  501  503 -0.00000000000E+00 -0.00000000000E+00 -0.72088639640E+03  0.72088639640E+03  0.00000000000E+00 0. -1.
          6    1    1    2  501    0  0.92855680448E+02  0.13079145516E+03 -0.58520024488E+03  0.63096506143E+03  0.17300000000E+03 0. -1.
         -6    1    1    2    0  502 -0.92855680448E+02 -0.13079145516E+03  0.10546733735E+02  0.23615422022E+03  0.17300000000E+03 0. -1.
</event>
<event>
 4    1  0.6069433E+000  0.1000000E+03  0.7546771E-02  0.1280296E+00
         21   -1    0    0  501  502  0.00000000000E+00  0.00000000000E+00  0.56893123542E+03  0.56893123542E+03  0.00000000000E+00 0.  1.
         21   -1    0    0  502  503 -0.00000000000E+00 -0.00000000000E+00 -0.81377928213E+02  0.81377928213E+02  0.00000000000E+00 0. -1.
          6    1    1    2  501    0 -0.41918778512E+02 -0.69237141990E+02  0.39351353767E+03  0.43741612928E+03  0.17300000000E+03 0.  1.
         -6    1    1    2    0  503  0.41918778512E+02  0.69237141990E+02  0.94039769539E+02  0.21289303436E+03  0.17300000000E+03 0. -1.
</event>
<event>
 4    1  0.6069433E+000  0.1000000E+03  0.7546771E-02  0.1280296E+00
         21   -1    0    0  503  502  0.00000000000E+00  0.00000000000E+00  0.76221123073E+02  0.76221123073E+02  0.00000000000E+00 0.  1.
         21   -1    0    0  501  503 -0.00000000000E+00 -0.00000000000E+00 -0.44531518128E+03  0.44531518128E+03  0.00000000000E+00 0.  1.
          6    1    1    2  501    0 -0.39416651962E+02 -0.13352764044E+02 -0.25215361912E+03  0.30861370092E+03  0.17300000000E+03 0.  1.
         -6    1    1    2    0  502  0.39416651962E+02  0.13352764044E+02 -0.11694043909E+03  0.21292260344E+03  0.17300000000E+03 0.  1.
</event>
<event>
 4    1  0.6069433E+000  0.1000000E+03  0.7546771E-02  0.1280296E+00
         21   -1    0    0  501  502  0.00000000000E+00  0.00000000000E+00  0.21504489429E+03  0.21504489429E+03  0.00000000000E+00 0. -1.
         21   -1    0    0  502  503 -0.00000000000E+00 -0.00000000000E+00 -0.63483484865E+03  0.63483484865E+03  0.00000000000E+00 0. -1.
          6    1    1    2  501    0 -0.16632697468E+03  0.45521976648E+02  0.10893588098E+03  0.26745642454E+03  0.17300000000E+03 0. -1.
         -6    1    1    2    0  503  0.16632697468E+03 -0.45521976648E+02 -0.52872583533E+03  0.58242331840E+03  0.17300000000E+03 0. -1.
</event>
<event>
 4    1  0.6069433E+000  0.1000000E+03  0.7546771E-02  0.1280296E+00
         21   -1    0    0  501  502  0.00000000000E+00  0.00000000000E+00  0.12412715047E+03  0.12412715047E+03  0.00000000000E+00 0. -1.
         21   -1    0    0  502  503 -0.00000000000E+00 -0.00000000000E+00 -0.28569097380E+03  0.28569097380E+03  0.00000000000E+00 0. -1.
          6    1    1    2  501    0  0.10228163483E+02  0.68735950065E+02 -0.10964826385E+03  0.21628913039E+03  0.17300000000E+03 0. -1.
         -6    1    1    2    0  503 -0.10228163483E+02 -0.68735950065E+02 -0.51915559485E+02  0.19352899389E+03  0.17300000000E+03 0. -1.
</event>
<event>
 4    1  0.6069433E+000  0.1000000E+03  0.7546771E-02  0.1280296E+00
         21   -1    0    0  501  502  0.00000000000E+00  0.00000000000E+00  0.22481435988E+03  0.22481435988E+03  0.00000000000E+00 0. -1.
         21   -1    0    0  502  503 -0.00000000000E+00 -0.00000000000E+00 -0.28498718947E+03  0.28498718947E+03  0.00000000000E+00 0. -1.
          6    1    1    2  501    0  0.31731707956E+02  0.18173112733E+03 -0.19664231067E+02  0.25367062485E+03  0.17300000000E+03 0. -1.
         -6    1    1    2    0  503 -0.31731707956E+02 -0.18173112733E+03 -0.40508598520E+02  0.25613092450E+03  0.17300000000E+03 0. -1.
</event>
<event>
 4    1  0.6069433E+000  0.1000000E+03  0.7546771E-02  0.1280296E+00
         21   -1    0    0  503  502  0.00000000000E+00  0.00000000000E+00  0.23933010522E+03  0.23933010522E+03  0.00000000000E+00 0.  1.
         21   -1    0    0  501  503 -0.00000000000E+00 -0.00000000000E+00 -0.22302238462E+03  0.22302238462E+03  0.00000000000E+00 0. -1.
          6    1    1    2  501    0 -0.49392871485E+02 -0.87274693668E+02 -0.10763526738E+03  0.22709222508E+03  0.17300000000E+03 0. -1.
         -6    1    1    2    0  502  0.49392871485E+02  0.87274693668E+02  0.12394298797E+03  0.23526026476E+03  0.17300000000E+03 0.  1.
</event>
<event>
 4    1  0.6069433E+000  0.1000000E+03  0.7546771E-02  0.1280296E+00
         21   -1    0    0  503  502  0.00000000000E+00  0.00000000000E+00  0.36289618582E+03  0.36289618582E+03  0.00000000000E+00 0.  1.
         21   -1    0    0  501  503 -0.00000000000E+00 -0.00000000000E+00 -0.23031528413E+03  0.23031528413E+03  0.00000000000E+00 0. -1.
          6    1    1    2  501    0  0.68248138042E+02 -0.91548578014E+02 -0.14046515489E+03  0.25039650601E+03  0.17300000000E+03 0. -1.
         -6    1    1    2    0  502 -0.68248138042E+02  0.91548578014E+02  0.27304605659E+03  0.34281496394E+03  0.17300000000E+03 0.  1.
</event>
<event>
 4    1  0.6069433E+000  0.1000000E+03  0.7546771E-02  0.1280296E+00
         21   -1    0    0  501  502  0.00000000000E+00  0.00000000000E+00  0.44024078275E+02  0.44024078275E+02  0.00000000000E+00 0. -1.
         21   -1    0    0  502  503 -0.00000000000E+00 -0.00000000000E+00 -0.82946469483E+03  0.82946469483E+03  0.00000000000E+00 0. -1.
          6    1    1    2  501    0  0.26391900019E+02  0.25388123614E+02 -0.55826338491E+03  0.58560062853E+03  0.17300000000E+03 0. -1.
         -6    1    1    2    0  503 -0.26391900019E+02 -0.25388123614E+02 -0.22717723165E+03  0.28788814457E+03  0.17300000000E+03 0. -1.
</event>
<event>
 4    1  0.6069433E+000  0.1000000E+03  0.7546771E-02  0.1280296E+00
         21   -1    0    0  501  502  0.00000000000E+00  0.00000000000E+00  0.10542607911E+03  0.10542607911E+03  0.00000000000E+00 0. -1.
         21   -1    0    0  502  503 -0.00000000000E+00 -0.00000000000E+00 -0.45902279832E+03  0.45902279832E+03  0.00000000000E+00 0. -1.
          6    1    1    2  501    0 -0.17225746029E+02 -0.91560549886E+01 -0.42766802111E+01  0.17414892955E+03  0.17300000000E+03 0. -1.
         -6    1    1    2    0  503  0.17225746029E+02  0.91560549886E+01 -0.34932003900E+03  0.39029994788E+03  0.17300000000E+03 0. -1.
</event>
<event>
 4    1  0.6069433E+000  0.1000000E+03  0.7546771E-02  0.1280296E+00
         21   -1    0    0  503  502  0.00000000000E+00  0.00000000000E+00  0.36455688761E+02  0.36455688761E+02  0.00000000000E+00 0. -1.
         21   -1    0    0  501  503 -0.00000000000E+00 -0.00000000000E+00 -0.88354535870E+03  0.88354535870E+03  0.00000000000E+00 0. -1.
          6    1    1    2  501    0 -0.26432777018E+02  0.38649114927E+02 -0.44769884774E+03  0.48224029700E+03  0.17300000000E+03 0. -1.
         -6    1    1    2    0  502  0.26432777018E+02 -0.38649114927E+02 -0.39939082220E+03  0.43776075046E+03  0.17300000000E+03 0. -1.
</event>
<event>
 4    1  0.6069433E+000  0.1000000E+03  0.7546771E-02  0.1280296E+00
         21   -1    0    0  503  502  0.00000000000E+00  0.00000000000E+00  0.14123214718E+03  0.14123214718E+03  0.00000000000E+00 0.  1.
         21   -1    0    0  501  503 -0.00000000000E+00 -0.00000000000E+00 -0.89098845869E+03  0.89098845869E+03  0.00000000000E+00 0. -1.
          6    1    1    2  501    0  0.74799271647E+02  0.26965145071E+03 -0.18185887336E+03  0.37591020966E+03  0.17300000000E+03 0.  1.
         -6    1    1    2    0  502 -0.74799271647E+02 -0.26965145071E+03 -0.56789743816E+03  0.65631039621E+03  0.17300000000E+03 0.  1.
</event>
<event>
 4    1  0.6069433E+000  0.1000000E+03  0.7546771E-02  0.1280296E+00
         21   -1    0    0  503  502  0.00000000000E+00  0.00000000000E+00  0.27351010580E+03  0.27351010580E+03  0.00000000000E+00 0.  1.
         21   -1    0    0  501  503 -0.00000000000E+00 -0.00000000000E+00 -0.57746504165E+03  0.57746504165E+03  0.00000000000E+00 0. -1.
          6    1    1    2  501    0  0.43630889828E+02  0.13862879332E+03 -0.50201111901E+03  0.55051408746E+03  0.17300000000E+03 0.  1.
         -6    1    1    2    0  502 -0.43630889828E+02 -0.13862879332E+03  0.19805618316E+03  0.30046105999E+03  0.17300000000E+03 0.  1.
</event>
<event>
 4    1  0.6069433E+000  0.1000000E+03  0.7546771E-02  0.1280296E+00
         21   -1    0    0  503  502  0.00000000000E+00  0.00000000000E+00  0.37855504865E+03  0.37855504865E+03  0.00000000000E+00 0.  1.
         21   -1    0    0  501  503 -0.00000000000E+00 -0.00000000000E+00 -0.21818251211E+03  0.21818251211E+03  0.00000000000E+00 0.  1.
          6    1    1    2  501    0 -0.47712816277E+02 -0.13056321883E+03 -0.10938546012E+03  0.24742159533E+03  0.17300000000E+03 0. -1.
         -6    1    1    2    0  502  0.47712816277E+02  0.13056321883E+03  0.26975799666E+03  0.34931596544E+03  0.17300000000E+03 0. -1.
</event>
<event>
 4    1  0.6069433E+000  0.1000000E+03  0.7546771E-02  0.1280296E+00
         21   -1    0    0  501  502  0.00000000000E+00  0.00000000000E+00  0.14806654395E+03  0.14806654395E+03  0.00000000000E+00 0.  1.
         21   -1    0    0  502  503 -0.00000000000E+00 -0.00000000000E+00 -0.66360587978E+03  0.66360587978E+03  0.00000000000E+00 0. -1.
          6    1    1    2  501    0  0.68753673937E+02  0.24484363909E+03 -0.17951448983E+03  0.35613189599E+03  0.17300000000E+03 0.  1.
         -6    1    1    2    0  503 -0.68753673937E+02 -0.24484363909E+03 -0.33602484600E+03  0.45554052774E+03  0.17300000000E+03 0. -1.
</event>
<event>
 4    1  0.6069433E+000  0.1000000E+03  0.7546771E-02  0.1280296E+00
         21   -1    0    0  503  502  0.00000000000E+00  0.00000000000E+00  0.69287763994E+02  0.69287763994E+02  0.00000000000E+00 0. -1.
         21   -1    0    0  501  503 -0.00000000000E+00 -0.00000000000E+00 -0.55973610278E+03  0.55973610278E+03  0.00000000000E+00 0. -1.
          6    1    1    2  501    0 -0.44264777862E+02  0.66016674702E+02 -0.16479441484E+03  0.25180105452E+03  0.17300000000E+03 0. -1.
         -6    1    1    2    0  502  0.44264777862E+02 -0.66016674702E+02 -0.32565392395E+03  0.37722281225E+03  0.17300000000E+03 0. -1.
</event>
<event>
 4    1  0.6069433E+000  0.1000000E+03  0.7546771E-02  0.1280296E+00
         21   -1    0    0  503  502  0.00000000000E+00  0.00000000000E+00  0.12606253013E+04  0.12606253013E+04  0.00000000000E+00 0. -1.
         21   -1    0    0  501  503 -0.00000000000E+00 -0.00000000000E+00 -0.31442363911E+02  0.31442363911E+02  0.00000000000E+00 0. -1.
          6    1    1    2  501    0 -0.45267716799E+02 -0.81424994440E+02  0.71867435634E+03  0.74505102266E+03  0.17300000000E+03 0. -1.
         -6    1    1    2    0  502  0.45267716799E+02  0.81424994440E+02  0.51050858104E+03  0.54701664254E+03  0.17300000000E+03 0. -1.
</event>
<event>
 4    1  0.6069433E+000  0.1000000E+03  0.7546771E-02  0.1280296E+00
         21   -1    0    0  503  502  0.00000000000E+00  0.00000000000E+00  0.48894224233E+03  0.48894224233E+03  0.00000000000E+00 0. -1.
         21   -1    0    0  501  503 -0.00000000000E+00 -0.00000000000E+00 -0.72073765486E+03  0.72073765486E+03  0.00000000000E+00 0. -1.
          6    1    1    2  501    0  0.23608753137E+03 -0.29041553780E+03 -0.55103416412E+03  0.68821955587E+03  0.17300000000E+03 0. -1.
         -6    1    1    2    0  502 -0.23608753137E+03  0.29041553780E+03  0.31923875158E+03  0.52146034132E+03  0.17300000000E+03 0. -1.
</event>
<event>
 4    1  0.6069433E+000  0.1000000E+03  0.7546771E-02  0.1280296E+00
         21   -1    0    0  503  502  0.00000000000E+00  0.00000000000E+00  0.10100233873E+03  0.10100233873E+03  0.00000000000E+00 0.  1.
         21   -1    0    0  501  503 -0.00000000000E+00 -0.00000000000E+00 -0.70543310481E+03  0.70543310481E+03  0.00000000000E+00 0. -1.
          6    1    1    2  501    0 -0.14924618426E+03 -0.13620839562E+03 -0.33579812679E+03  0.42838829642E+03  0.17300000000E+03 0. -1.
         -6    1    1    2    0  502  0.14924618426E+03  0.13620839562E+03 -0.26863263929E+03  0.37804714712E+03  0.17300000000E+03 0.  1.
</event>
<event>
 4    1  0.6069433E+000  0.1000000E+03  0.7546771E-02  0.1280296E+00
         21   -1    0    0  503  502  0.00000000000E+00  0.00000000000E+00  0.20260944557E+04  0.20260944557E+04  0.00000000000E+00 0.  1.
         21   -1    0    0  501  503 -0.00000000000E+00 -0.00000000000E+00 -0.21549669744E+02  0.21549669744E+02  0.00000000000E+00 0. -1.
          6    1    1    2  501    0 -0.39975141497E+02  0.64415828296E+01  0.46345173440E+03  0.49634263976E+03  0.17300000000E+03 0. -1.
         -6    1    1    2    0  502  0.39975141497E+02 -0.64415828296E+01  0.15410930516E+04  0.15513014857E+04  0.17300000000E+03 0.  1.
</event>
<event>
 4    1  0.6069433E+000  0.1000000E+03  0.7546771E-02  0.1280296E+00
         21   -1    0    0  503  502  0.00000000000E+00  0.00000000000E+00  0.67402626569E+02  0.67402626569E+02  0.00000000000E+00 0.  1.
         21   -1    0    0  501  503 -0.00000000000E+00 -0.00000000000E+00 -0.18378265410E+04  0.18378265410E+04  0.00000000000E+00 0.  1.
          6    1    1    2  501    0  0.96708089211E+02 -0.53119301865E+02 -0.16591867172E+04  0.16718264495E+04  0.17300000000E+03 0.  1.
         -6    1    1    2    0  502 -0.96708089211E+02  0.53119301865E+02 -0.11123719723E+03  0.23340271806E+03  0.17300000000E+03 0.  1.
</event>
<event>
 4    1  0.6069433E+000  0.1000000E+03  0.7546771E-02  0.1280296E+00
         21   -1    0    0  501  502  0.00000000000E+00  0.00000000000E+00  0.17636538772E+03  0.17636538772E+03  0.00000000000E+00 0. -1.
         21   -1    0    0  502  503 -0.00000000000E+00 -0.00000000000E+00 -0.19677473432E+03  0.19677473432E+03  0.00000000000E+00 0. -1.
          6    1    1    2  501    0  0.42839033702E+02 -0.28802550945E+02  0.35804188717E+02  0.18405355112E+03  0.17300000000E+03 0. -1.
         -6    1    1    2    0  503 -0.42839033702E+02  0.28802550945E+02 -0.56213535314E+02  0.18908657092E+03  0.17300000000E+03 0. -1.
</event>
<event>
 4    1  0.6069433E+000  0.1000000E+03  0.7546771E-02  0.1280296E+00
         21   -1    0    0  503  502  0.00000000000E+00  0.00000000000E+00  0.31272977983E+03  0.31272977983E+03  0.00000000000E+00 0. -1.
         21   -1    0    0  501  503 -0.00000000000E+00 -0.00000000000E+00 -0.60495963765E+03  0.60495963765E+03  0.00000000000E+00 0. -1.
          6    1    1    2  501    0 -0.11760911775E+03  0.28076591586E+02 -0.54731560542E+03  0.58660341928E+03  0.17300000000E+03 0. -1.
         -6    1    1    2    0  502  0.11760911775E+03 -0.28076591586E+02  0.25508574760E+03  0.33108599820E+03  0.17300000000E+03 0. -1.
</event>
<event>
 4    1  0.6069433E+000  0.1000000E+03  0.7546771E-02  0.1280296E+00
         21   -1    0    0  503  502  0.00000000000E+00  0.00000000000E+00  0.27015483648E+03  0.27015483648E+03  0.00000000000E+00 0. -1.
         21   -1    0    0  501  503 -0.00000000000E+00 -0.00000000000E+00 -0.27858898762E+03  0.27858898762E+03  0.00000000000E+00 0. -1.
          6    1    1    2  501    0 -0.13919083932E+03  0.63111076963E+02 -0.15247785036E+03  0.27665066896E+03  0.17300000000E+03 0. -1.
         -6    1    1    2    0  502  0.13919083932E+03 -0.63111076963E+02  0.14404369922E+03  0.27209315513E+03  0.17300000000E+03 0. -1.
</event>
<event>
 4    1  0.6069433E+000  0.1000000E+03  0.7546771E-02  0.1280296E+00
         21   -1    0    0  503  502  0.00000000000E+00  0.00000000000E+00  0.16169250569E+03  0.16169250569E+03  0.00000000000E+00 0. -1.
         21   -1    0    0  501  503 -0.00000000000E+00 -0.00000000000E+00 -0.74652869827E+03  0.74652869827E+03  0.00000000000E+00 0. -1.
          6    1    1    2  501    0  0.40254283821E+02  0.70284979888E+02 -0.67173110255E+03  0.69836384492E+03  0.17300000000E+03 0. -1.
         -6    1    1    2    0  502 -0.40254283821E+02 -0.70284979888E+02  0.86894909973E+02  0.20985735904E+03  0.17300000000E+03 0. -1.
</event>
<event>
 4    1  0.6069433E+000  0.1000000E+03  0.7546771E-02  0.1280296E+00
         21   -1    0    0  503  502  0.00000000000E+00  0.00000000000E+00  0.11285932629E+04  0.11285932629E+04  0.00000000000E+00 0. -1.
         21   -1    0    0  501  503 -0.00000000000E+00 -0.00000000000E+00 -0.59868936456E+02  0.59868936456E+02  0.00000000000E+00 0. -1.
          6    1    1    2  501    0 -0.12040332320E+03  0.12918919778E+03  0.35073849501E+03  0.42910756337E+03  0.17300000000E+03 0. -1.
         -6    1    1    2    0  502  0.12040332320E+03 -0.12918919778E+03  0.71798583147E+03  0.75935463602E+03  0.17300000000E+03 0. -1.
</event>
<event>
 4    1  0.6069433E+000  0.1000000E+03  0.7546771E-02  0.1280296E+00
         21   -1    0    0  503  502  0.00000000000E+00  0.00000000000E+00  0.78516721882E+03  0.78516721882E+03  0.00000000000E+00 0.  1.
         21   -1    0    0  501  503 -0.00000000000E+00 -0.00000000000E+00 -0.29585233755E+03  0.29585233755E+03  0.00000000000E+00 0. -1.
          6    1    1    2  501    0  0.32829005483E+03 -0.14568564371E+03 -0.59103597634E+02  0.40301476665E+03  0.17300000000E+03 0. -1.
         -6    1    1    2    0  502 -0.32829005483E+03  0.14568564371E+03  0.54841847891E+03  0.67800478972E+03  0.17300000000E+03 0.  1.
</event>
<event>
 4    1  0.6069433E+000  0.1000000E+03  0.7546771E-02  0.1280296E+00
         21   -1    0    0  503  502  0.00000000000E+00  0.00000000000E+00  0.35834217182E+03  0.35834217182E+03  0.00000000000E+00 0.  1.
         21   -1    0    0  501  503 -0.00000000000E+00 -0.00000000000E+00 -0.13223889862E+03  0.13223889862E+03  0.00000000000E+00 0. -1.
          6    1    1    2  501    0 -0.25849771248E+02  0.27651623427E+01  0.25902479574E+03  0.31256791518E+03  0.17300000000E+03 0. -1.
         -6    1    1    2    0  502  0.25849771248E+02 -0.27651623427E+01 -0.32921522535E+02  0.17801315525E+03  0.17300000000E+03 0.  1.
</event>
<event>
 4    1  0.6069433E+000  0.1000000E+03  0.7546771E-02  0.1280296E+00
         21   -1    0    0  501  502  0.00000000000E+00  0.00000000000E+00  0.50074027827E+03  0.50074027827E+03  0.00000000000E+00 0. -1.
         21   -1    0    0  502  503 -0.00000000000E+00 -0.00000000000E+00 -0.83981794895E+02  0.83981794895E+02  0.00000000000E+00 0. -1.
          6    1    1    2  501    0  0.23457012737E+02 -0.24593735245E+02  0.35769438550E+03  0.39878485011E+03  0.17300000000E+03 0. -1.
         -6    1    1    2    0  503 -0.23457012737E+02  0.24593735245E+02  0.59064097878E+02  0.18593722306E+03  0.17300000000E+03 0. -1.
</event>
<event>
 4    1  0.6069433E+000  0.1000000E+03  0.7546771E-02  0.1280296E+00
         21   -1    0    0  501  502  0.00000000000E+00  0.00000000000E+00  0.28432396406E+03  0.28432396406E+03  0.00000000000E+00 0. -1.
         21   -1    0    0  502  503 -0.00000000000E+00 -0.00000000000E+00 -0.29963453544E+03  0.29963453544E+03  0.00000000000E+00 0. -1.
          6    1    1    2  501    0  0.84703621349E+02  0.19945854350E+03  0.83512572366E+02  0.28958895661E+03  0.17300000000E+03 0. -1.
         -6    1    1    2    0  503 -0.84703621349E+02 -0.19945854350E+03 -0.98823143744E+02  0.29436954290E+03  0.17300000000E+03 0. -1.
</event>
<event>
 4    1  0.6069433E+000  0.1000000E+03  0.7546771E-02  0.1280296E+00
         21   -1    0    0  503  502  0.00000000000E+00  0.00000000000E+00  0.65378141304E+03  0.65378141304E+03  0.00000000000E+00 0. -1.
         21   -1    0    0  501  503 -0.00000000000E+00 -0.00000000000E+00 -0.77706377975E+02  0.77706377975E+02  0.00000000000E+00 0. -1.
          6    1    1    2  501    0 -0.45553406905E+02 -0.44578341394E+02  0.77641476621E+02  0.20004884477E+03  0.17300000000E+03 0. -1.
         -6    1    1    2    0  502  0.45553406905E+02  0.44578341394E+02  0.49843355844E+03  0.53143894624E+03  0.17300000000E+03 0. -1.
</event>
<event>
 4    1  0.6069433E+000  0.1000000E+03  0.7546771E-02  0.1280296E+00
         21   -1    0    0  503  502  0.00000000000E+00  0.00000000000E+00  0.16783229510E+03  0.16783229510E+03  0.00000000000E+00 0. -1.
         21   -1    0    0  501  503 -0.00000000000E+00 -0.00000000000E+00 -0.15490559718E+04  0.15490559718E+04  0.00000000000E+00 0. -1.
          6    1    1    2  501    0  0.18013478022E+03 -0.23948151472E+03 -0.13211281199E+04  0.13656897321E+04  0.17300000000E+03 0. -1.
         -6    1    1    2    0  502 -0.18013478022E+03  0.23948151472E+03 -0.60095556760E+02  0.35119853485E+03  0.17300000000E+03 0. -1.
</event>
<event>
 4    1  0.6069433E+000  0.1000000E+03  0.7546771E-02  0.1280296E+00
         21   -1    0    0  501  502  0.00000000000E+00  0.00000000000E+00  0.97925611898E+03  0.97925611898E+03  0.00000000000E+00 0.  1.
         21   -1    0    0  502  503 -0.00000000000E+00 -0.00000000000E+00 -0.73621537765E+02  0.73621537765E+02  0.00000000000E+00 0.  1.
          6    1    1    2  501    0 -0.37571103338E+02 -0.65947054846E+02  0.82690745385E+03  0.84821314484E+03  0.17300000000E+03 0.  1.
         -6    1    1    2    0  503  0.37571103338E+02  0.65947054846E+02  0.78727127361E+02  0.20466451190E+03  0.17300000000E+03 0.  1.
</event>
<event>
 4    1  0.6069433E+000  0.1000000E+03  0.7546771E-02  0.1280296E+00
         21   -1    0    0  501  502  0.00000000000E+00  0.00000000000E+00  0.86221070961E+02  0.86221070961E+02  0.00000000000E+00 0.  1.
         21   -1    0    0  502  503 -0.00000000000E+00 -0.00000000000E+00 -0.51873288935E+03  0.51873288935E+03  0.00000000000E+00 0.  1.
          6    1    1    2  501    0  0.80741213370E+02  0.26988409518E+02 -0.91986614010E+02  0.21363065075E+03  0.17300000000E+03 0.  1.
         -6    1    1    2    0  503 -0.80741213370E+02 -0.26988409518E+02 -0.34052520438E+03  0.39132330956E+03  0.17300000000E+03 0.  1.
</event>
<event>
 4    1  0.6069433E+000  0.1000000E+03  0.7546771E-02  0.1280296E+00
         21   -1    0    0  503  502  0.00000000000E+00  0.00000000000E+00  0.37390542587E+03  0.37390542587E+03  0.00000000000E+00 0. -1.
         21   -1    0    0  501  503 -0.00000000000E+00 -0.00000000000E+00 -0.17185928196E+03  0.17185928196E+03  0.00000000000E+00 0.  1.
          6    1    1    2  501    0  0.11585182389E+03 -0.73753471122E+02  0.23490987333E+03  0.32244824110E+03  0.17300000000E+03 0. -1.
         -6    1    1    2    0  502 -0.11585182389E+03  0.73753471122E+02 -0.32863729421E+02  0.22331646673E+03  0.17300000000E+03 0. -1.
</event>
<event>
 4    1  0.6069433E+000  0.1000000E+03  0.7546771E-02  0.1280296E+00
         21   -1    0    0  503  502  0.00000000000E+00  0.00000000000E+00  0.75009241735E+02  0.75009241735E+02  0.00000000000E+00 0.  1.
         21   -1    0    0  501  503 -0.00000000000E+00 -0.00000000000E+00 -0.43817933624E+03  0.43817933624E+03  0.00000000000E+00 0.  1.
          6    1    1    2  501    0  0.31546400565E+02 -0.44063869305E+02 -0.18343032217E+03  0.25790014164E+03  0.17300000000E+03 0.  1.
         -6    1    1    2    0  502 -0.31546400565E+02  0.44063869305E+02 -0.17973977234E+03  0.25528843634E+03  0.17300000000E+03 0.  1.
</event>
<event>
 4    1  0.6069433E+000  0.1000000E+03  0.7546771E-02  0.1280296E+00
         21   -1    0    0  503  502  0.00000000000E+00  0.00000000000E+00  0.62004883805E+02  0.62004883805E+02  0.00000000000E+00 0.  1.
         21   -1    0    0  501  503 -0.00000000000E+00 -0.00000000000E+00 -0.66664212976E+03  0.66664212976E+03  0.00000000000E+00 0.  1.
          6    1    1    2  501    0 -0.10381494480E+03  0.23469986645E+02 -0.28652449042E+03  0.35121740652E+03  0.17300000000E+03 0.  1.
         -6    1    1    2    0  502  0.10381494480E+03 -0.23469986645E+02 -0.31811275554E+03  0.37742960705E+03  0.17300000000E+03 0.  1.
</event>
<event>
 4    1  0.6069433E+000  0.1000000E+03  0.7546771E-02  0.1280296E+00
         21   -1    0    0  503  502  0.00000000000E+00  0.00000000000E+00  0.23413051994E+03  0.23413051994E+03  0.00000000000E+00 0.  1.
         21   -1    0    0  501  503 -0.00000000000E+00 -0.00000000000E+00 -0.20350331654E+03  0.20350331654E+03  0.00000000000E+00 0.  1.
          6    1    1    2  501    0 -0.12390094622E+03 -0.32766394391E+02 -0.20722719965E+02  0.21629496573E+03  0.17300000000E+03 0.  1.
         -6    1    1    2    0  502  0.12390094622E+03  0.32766394391E+02  0.51349923365E+02  0.22133887075E+03  0.17300000000E+03 0.  1.
</event>
<event>
 4    1  0.6069433E+000  0.1000000E+03  0.7546771E-02  0.1280296E+00
         21   -1    0    0  501  502  0.00000000000E+00  0.00000000000E+00  0.27047017366E+04  0.27047017366E+04  0.00000000000E+00 0.  1.
         21   -1    0    0  502  503 -0.00000000000E+00 -0.00000000000E+00 -0.14742333617E+02  0.14742333617E+02  0.00000000000E+00 0.  1.
          6    1    1    2  501    0 -0.42453397503E+02  0.84024871317E+02  0.15689807919E+04  0.15812944682E+04  0.17300000000E+03 0.  1.
         -6    1    1    2    0  503  0.42453397503E+02 -0.84024871317E+02  0.11209786111E+04  0.11381496020E+04  0.17300000000E+03 0.  1.
</event>
<event>
 4    1  0.6069433E+000  0.1000000E+03  0.7546771E-02  0.1280296E+00
         21   -1    0    0  501  502  0.00000000000E+00  0.00000000000E+00  0.19183663216E+03  0.19183663216E+03  0.00000000000E+00 0.  1.
         21   -1    0    0  502  503 -0.00000000000E+00 -0.00000000000E+00 -0.18741805688E+03  0.18741805688E+03  0.00000000000E+00 0.  1.
          6    1    1    2  501    0  0.19308069340E+02  0.22647473474E+02  0.73900548531E+02  0.19046259651E+03  0.17300000000E+03 0.  1.
         -6    1    1    2    0  503 -0.19308069340E+02 -0.22647473474E+02 -0.69481973245E+02  0.18879209253E+03  0.17300000000E+03 0.  1.
</event>
<event>
 4    1  0.6069433E+000  0.1000000E+03  0.7546771E-02  0.1280296E+00
         21   -1    0    0  501  502  0.00000000000E+00  0.00000000000E+00  0.55567916603E+02  0.55567916603E+02  0.00000000000E+00 0.  1.
         21   -1    0    0  502  503 -0.00000000000E+00 -0.00000000000E+00 -0.11399692831E+04  0.11399692831E+04  0.00000000000E+00 0.  1.
          6    1    1    2  501    0 -0.64421524386E+02  0.69245178730E+02 -0.17065993448E+03  0.26076587357E+03  0.17300000000E+03 0.  1.
         -6    1    1    2    0  503  0.64421524386E+02 -0.69245178730E+02 -0.91374143202E+03  0.93477132613E+03  0.17300000000E+03 0.  1.
</event>
<event>
 4    1  0.6069433E+000  0.1000000E+03  0.7546771E-02  0.1280296E+00
         21   -1    0    0  503  502  0.00000000000E+00  0.00000000000E+00  0.29742600806E+03  0.29742600806E+03  0.00000000000E+00 0. -1.
         21   -1    0    0  501  503 -0.00000000000E+00 -0.00000000000E+00 -0.12684397902E+03  0.12684397902E+03  0.00000000000E+00 0. -1.
          6    1    1    2  501    0 -0.56560765142E+02  0.67803077929E+02  0.86546194519E+02  0.21263965133E+03  0.17300000000E+03 0. -1.
         -6    1    1    2    0  502  0.56560765142E+02 -0.67803077929E+02  0.84035834518E+02  0.21163033576E+03  0.17300000000E+03 0. -1.
</event>
<event>
 4    1  0.6069433E+000  0.1000000E+03  0.7546771E-02  0.1280296E+00
         21   -1    0    0  503  502  0.00000000000E+00  0.00000000000E+00  0.28242712514E+03  0.28242712514E+03  0.00000000000E+00 0. -1.
         21   -1    0    0  501  503 -0.00000000000E+00 -0.00000000000E+00 -0.86527075558E+03  0.86527075558E+03  0.00000000000E+00 0. -1.
          6    1    1    2  501    0 -0.19640751925E+03 -0.91946084753E+02 -0.76639387501E+03  0.81505740152E+03  0.17300000000E+03 0. -1.
         -6    1    1    2    0  502  0.19640751925E+03  0.91946084753E+02  0.18355024457E+03  0.33264047920E+03  0.17300000000E+03 0. -1.
</event>
<event>
 4    1  0.6069433E+000  0.1000000E+03  0.7546771E-02  0.1280296E+00
         21   -1    0    0  503  502  0.00000000000E+00  0.00000000000E+00  0.10957341933E+04  0.10957341933E+04  0.00000000000E+00 0. -1.
         21   -1    0    0  501  503 -0.00000000000E+00 -0.00000000000E+00 -0.24979119791E+03  0.24979119791E+03  0.00000000000E+00 0. -1.
          6    1    1    2  501    0  0.31678698218E+02 -0.24995001516E+03 -0.12305689839E+03  0.32947010523E+03  0.17300000000E+03 0. -1.
         -6    1    1    2    0  502 -0.31678698218E+02  0.24995001516E+03  0.96899989374E+03  0.10160552859E+04  0.17300000000E+03 0. -1.
</event>
<event>
 4    1  0.6069433E+000  0.1000000E+03  0.7546771E-02  0.1280296E+00
         21   -1    0    0  501  502  0.00000000000E+00  0.00000000000E+00  0.33921421142E+03  0.33921421142E+03  0.00000000000E+00 0.  1.
         21   -1    0    0  502  503 -0.00000000000E+00 -0.00000000000E+00 -0.12215145266E+03  0.12215145266E+03  0.00000000000E+00 0. -1.
          6    1    1    2  501    0 -0.28031312932E+02 -0.16992020800E+01  0.22585436780E+03  0.28588080951E+03  0.17300000000E+03 0.  1.
         -6    1    1    2    0  503  0.28031312932E+02  0.16992020800E+01 -0.87916090380E+01  0.17548485457E+03  0.17300000000E+03 0. -1.
</event>
<event>
 4    1  0.6069433E+000  0.1000000E+03  0.7546771E-02  0.1280296E+00
         21   -1    0    0  501  502  0.00000000000E+00  0.00000000000E+00  0.20873341629E+03  0.20873341629E+03  0.00000000000E+00 0.  1.
         21   -1    0    0  502  503 -0.00000000000E+00 -0.00000000000E+00 -0.23868732166E+03  0.23868732166E+03  0.00000000000E+00 0. -1.
          6    1    1    2  501    0 -0.28785528137E+02  0.12263724345E+03  0.48604799334E+02  0.21945370042E+03  0.17300000000E+03 0.  1.
         -6    1    1    2    0  503  0.28785528137E+02 -0.12263724345E+03 -0.78558704712E+02  0.22796703752E+03  0.17300000000E+03 0. -1.
</event>
<event>
 4    1  0.6069433E+000  0.1000000E+03  0.7546771E-02  0.1280296E+00
         21   -1    0    0  501  502  0.00000000000E+00  0.00000000000E+00  0.42555759123E+03  0.42555759123E+03  0.00000000000E+00 0.  1.
         21   -1    0    0  502  503 -0.00000000000E+00 -0.00000000000E+00 -0.14238522210E+03  0.14238522210E+03  0.00000000000E+00 0. -1.
          6    1    1    2  501    0 -0.46749323220E+02 -0.31400729477E+02  0.33286679368E+03  0.37934259894E+03  0.17300000000E+03 0.  1.
         -6    1    1    2    0  503  0.46749323220E+02  0.31400729477E+02 -0.49694424553E+02  0.18860021438E+03  0.17300000000E+03 0. -1.
</event>
<event>
 4    1  0.6069433E+000  0.1000000E+03  0.7546771E-02  0.1280296E+00
         21   -1    0    0  501  502  0.00000000000E+00  0.00000000000E+00  0.14214642862E+03  0.14214642862E+03  0.00000000000E+00 0.  1.
         21   -1    0    0  502  503 -0.00000000000E+00 -0.00000000000E+00 -0.27529811731E+03  0.27529811731E+03  0.00000000000E+00 0. -1.
          6    1    1    2  501    0  0.84761799058E+02 -0.44157810551E+01 -0.19394657660E+02  0.19367295745E+03  0.17300000000E+03 0. -1.
         -6    1    1    2    0  503 -0.84761799058E+02  0.44157810551E+01 -0.11375703102E+03  0.22377158848E+03  0.17300000000E+03 0. -1.
</event>
<event>
 4    1  0.6069433E+000  0.1000000E+03  0.7546771E-02  0.1280296E+00
         21   -1    0    0  501  502  0.00000000000E+00  0.00000000000E+00  0.12132376368E+04  0.12132376368E+04  0.00000000000E+00 0.  1.
         21   -1    0    0  502  503 -0.00000000000E+00 -0.00000000000E+00 -0.58335592483E+02  0.58335592483E+02  0.00000000000E+00 0. -1.
          6    1    1    2  501    0  0.15044571124E+03  0.30854291703E+02  0.89142416332E+03  0.92095164819E+03  0.17300000000E+03 0. -1.
         -6    1    1    2    0  503 -0.15044571124E+03 -0.30854291703E+02  0.26347788095E+03  0.35062158105E+03  0.17300000000E+03 0. -1.
</event>
<event>
 4    1  0.6069433E+000  0.1000000E+03  0.7546771E-02  0.1280296E+00
         21   -1    0    0  503  502  0.00000000000E+00  0.00000000000E+00  0.87665065652E+03  0.87665065652E+03  0.00000000000E+00 0.  1.
         21   -1    0    0  501  503 -0.00000000000E+00 -0.00000000000E+00 -0.43837463892E+02  0.43837463892E+02  0.00000000000E+00 0.  1.
          6    1    1    2  501    0  0.63208252684E+02  0.14308790159E+02  0.26243421746E+03  0.32093728854E+03  0.17300000000E+03 0.  1.
         -6    1    1    2    0  502 -0.63208252684E+02 -0.14308790159E+02  0.57037897517E+03  0.59955083187E+03  0.17300000000E+03 0.  1.
</event>
<event>
 4    1  0.6069433E+000  0.1000000E+03  0.7546771E-02  0.1280296E+00
         21   -1    0    0  503  502  0.00000000000E+00  0.00000000000E+00  0.80755947040E+03  0.80755947040E+03  0.00000000000E+00 0.  1.
         21   -1    0    0  501  503 -0.00000000000E+00 -0.00000000000E+00 -0.42176380170E+02  0.42176380170E+02  0.00000000000E+00 0.  1.
          6    1    1    2  501    0  0.51744593589E+01  0.63551345561E+02  0.40130712993E+03  0.44163555234E+03  0.17300000000E+03 0.  1.
         -6    1    1    2    0  502 -0.51744593589E+01 -0.63551345561E+02  0.36407596029E+03  0.40810029823E+03  0.17300000000E+03 0.  1.
</event>
<event>
 4    1  0.6069433E+000  0.1000000E+03  0.7546771E-02  0.1280296E+00
         21   -1    0    0  503  502  0.00000000000E+00  0.00000000000E+00  0.16478113447E+03  0.16478113447E+03  0.00000000000E+00 0.  1.
         21   -1    0    0  501  503 -0.00000000000E+00 -0.00000000000E+00 -0.21721564081E+03  0.21721564081E+03  0.00000000000E+00 0.  1.
          6    1    1    2  501    0  0.70765131348E+02 -0.15268081445E+02 -0.51420219291E+02  0.19445785425E+03  0.17300000000E+03 0.  1.
         -6    1    1    2    0  502 -0.70765131348E+02  0.15268081445E+02 -0.10142870535E+01  0.18753892104E+03  0.17300000000E+03 0.  1.
</event>
<event>
 4    1  0.6069433E+000  0.1000000E+03  0.7546771E-02  0.1280296E+00
         21   -1    0    0  503  502  0.00000000000E+00  0.00000000000E+00  0.52700599254E+03  0.52700599254E+03  0.00000000000E+00 0.  1.
         21   -1    0    0  501  503 -0.00000000000E+00 -0.00000000000E+00 -0.12368594830E+03  0.12368594830E+03  0.00000000000E+00 0.  1.
          6    1    1    2  501    0  0.17541830409E+03  0.43961737100E+02  0.13730991338E+03  0.28545967851E+03  0.17300000000E+03 0.  1.
         -6    1    1    2    0  502 -0.17541830409E+03 -0.43961737100E+02  0.26601013085E+03  0.36523226234E+03  0.17300000000E+03 0.  1.
</event>
<event>
 4    1  0.6069433E+000  0.1000000E+03  0.7546771E-02  0.1280296E+00
         21   -1    0    0  503  502  0.00000000000E+00  0.00000000000E+00  0.51460176935E+03  0.51460176935E+03  0.00000000000E+00 0.  1.
         21   -1    0    0  501  503 -0.00000000000E+00 -0.00000000000E+00 -0.93973956880E+02  0.93973956880E+02  0.00000000000E+00 0. -1.
          6    1    1    2  501    0 -0.41999996035E+01  0.39126716758E+02  0.30529361685E+02  0.18002661438E+03  0.17300000000E+03 0. -1.
         -6    1    1    2    0  502  0.41999996035E+01 -0.39126716758E+02  0.39009845079E+03  0.42854911185E+03  0.17300000000E+03 0. -1.
</event>
<event>
 4    1  0.6069433E+000  0.1000000E+03  0.7546771E-02  0.1280296E+00
         21   -1    0    0  503  502  0.00000000000E+00  0.00000000000E+00  0.55000513027E+03  0.55000513027E+03  0.00000000000E+00 0.  1.
         21   -1    0    0  501  503 -0.00000000000E+00 -0.00000000000E+00 -0.79064498078E+02  0.79064498078E+02  0.00000000000E+00 0. -1.
          6    1    1    2  501    0 -0.22017746813E+01 -0.59365710170E+02  0.84428841664E+02  0.20146057843E+03  0.17300000000E+03 0. -1.
         -6    1    1    2    0  502  0.22017746813E+01  0.59365710170E+02  0.38651179052E+03  0.42760904992E+03  0.17300000000E+03 0. -1.
</event>
<event>
 4    1  0.6069433E+000  0.1000000E+03  0.7546771E-02  0.1280296E+00
         21   -1    0    0  503  502  0.00000000000E+00  0.00000000000E+00  0.10308190613E+03  0.10308190613E+03  0.00000000000E+00 0.  1.
         21   -1    0    0  501  503 -0.00000000000E+00 -0.00000000000E+00 -0.60673164950E+03  0.60673164950E+03  0.00000000000E+00 0. -1.
          6    1    1    2  501    0 -0.68724490513E+02 -0.55915554209E+02 -0.47515077163E+03  0.51336815306E+03  0.17300000000E+03 0. -1.
         -6    1    1    2    0  502  0.68724490513E+02  0.55915554209E+02 -0.28498971741E+02  0.19644540257E+03  0.17300000000E+03 0. -1.
</event>
<event>
 4    1  0.6069433E+000  0.1000000E+03  0.7546771E-02  0.1280296E+00
         21   -1    0    0  501  502  0.00000000000E+00  0.00000000000E+00  0.36534837528E+03  0.36534837528E+03  0.00000000000E+00 0. -1.
         21   -1    0    0  502  503 -0.00000000000E+00 -0.00000000000E+00 -0.10343389881E+03  0.10343389881E+03  0.00000000000E+00 0. -1.
          6    1    1    2  501    0  0.16111103132E+02 -0.81298620615E+02  0.16892148655E+03  0.25560223391E+03  0.17300000000E+03 0. -1.
         -6    1    1    2    0  503 -0.16111103132E+02  0.81298620615E+02  0.92992989924E+02  0.21318004018E+03  0.17300000000E+03 0. -1.
</event>
<event>
 4    1  0.6069433E+000  0.1000000E+03  0.7546771E-02  0.1280296E+00
         21   -1    0    0  503  502  0.00000000000E+00  0.00000000000E+00  0.31965274389E+03  0.31965274389E+03  0.00000000000E+00 0. -1.
         21   -1    0    0  501  503 -0.00000000000E+00 -0.00000000000E+00 -0.14616264175E+03  0.14616264175E+03  0.00000000000E+00 0. -1.
          6    1    1    2  501    0 -0.26054602900E+02 -0.88128706413E+02 -0.11698180363E+02  0.19624311109E+03  0.17300000000E+03 0. -1.
         -6    1    1    2    0  502  0.26054602900E+02  0.88128706413E+02  0.18518828251E+03  0.26957227455E+03  0.17300000000E+03 0. -1.
</event>
<event>
 4    1  0.6069433E+000  0.1000000E+03  0.7546771E-02  0.1280296E+00
         21   -1    0    0  503  502  0.00000000000E+00  0.00000000000E+00  0.89580366415E+03  0.89580366415E+03  0.00000000000E+00 0. -1.
         21   -1    0    0  501  503 -0.00000000000E+00 -0.00000000000E+00 -0.47181679355E+02  0.47181679355E+02  0.00000000000E+00 0. -1.
          6    1    1    2  501    0 -0.72599598993E+02 -0.20679592990E+02  0.23745538067E+03  0.30333546636E+03  0.17300000000E+03 0. -1.
         -6    1    1    2    0  502  0.72599598993E+02  0.20679592990E+02  0.61116660412E+03  0.63964987715E+03  0.17300000000E+03 0. -1.
</event>
<event>
 4    1  0.6069433E+000  0.1000000E+03  0.7546771E-02  0.1280296E+00
         21   -1    0    0  503  502  0.00000000000E+00  0.00000000000E+00  0.99722668495E+03  0.99722668495E+03  0.00000000000E+00 0. -1.
         21   -1    0    0  501  503 -0.00000000000E+00 -0.00000000000E+00 -0.74135766697E+02  0.74135766697E+02  0.00000000000E+00 0. -1.
          6    1    1    2  501    0 -0.80659181339E+02 -0.18787024618E+03  0.36913735078E+03  0.45606196583E+03  0.17300000000E+03 0. -1.
         -6    1    1    2    0  502  0.80659181339E+02  0.18787024618E+03  0.55395356747E+03  0.61530048582E+03  0.17300000000E+03 0. -1.
</event>
<event>
 4    1  0.6069433E+000  0.1000000E+03  0.7546771E-02  0.1280296E+00
         21   -1    0    0  503  502  0.00000000000E+00  0.00000000000E+00  0.42732157013E+03  0.42732157013E+03  0.00000000000E+00 0. -1.
         21   -1    0    0  501  503 -0.00000000000E+00 -0.00000000000E+00 -0.23390064046E+03  0.23390064046E+03  0.00000000000E+00 0. -1.
          6    1    1    2  501    0  0.99926179912E+02  0.10457466607E+03 -0.13501198289E+03  0.26282758177E+03  0.17300000000E+03 0. -1.
         -6    1    1    2    0  502 -0.99926179912E+02 -0.10457466607E+03  0.32843291256E+03  0.39839462882E+03  0.17300000000E+03 0. -1.
</event>
<event>
 4    1  0.6069433E+000  0.1000000E+03  0.7546771E-02  0.1280296E+00
         21   -1    0    0  503  502  0.00000000000E+00  0.00000000000E+00  0.17431472200E+03  0.17431472200E+03  0.00000000000E+00 0. -1.
         21   -1    0    0  501  503 -0.00000000000E+00 -0.00000000000E+00 -0.25965476913E+03  0.25965476913E+03  0.00000000000E+00 0. -1.
          6    1    1    2  501    0  0.10368269017E+03  0.54382666358E+02 -0.83785054609E+02  0.22507001137E+03  0.17300000000E+03 0. -1.
         -6    1    1    2    0  502 -0.10368269017E+03 -0.54382666358E+02 -0.15549925202E+01  0.20889947976E+03  0.17300000000E+03 0. -1.
</event>
<event>
 4    1  0.6069433E+000  0.1000000E+03  0.7546771E-02  0.1280296E+00
         21   -1    0    0  501  502  0.00000000000E+00  0.00000000000E+00  0.33834354856E+02  0.33834354856E+02  0.00000000000E+00 0. -1.
         21   -1    0    0  502  503 -0.00000000000E+00 -0.00000000000E+00 -0.15163332554E+04  0.15163332554E+04  0.00000000000E+00 0. -1.
          6    1    1    2  501    0  0.78245297773E+02 -0.29461515456E+02 -0.33083272525E+03  0.38258280099E+03  0.17300000000E+03 0. -1.
         -6    1    1    2    0  503 -0.78245297773E+02  0.29461515456E+02 -0.11516661753E+04  0.11675848093E+04  0.17300000000E+03 0. -1.
</event>
<event>
 4    1  0.6069433E+000  0.1000000E+03  0.7546771E-02  0.1280296E+00
         21   -1    0    0  503  502  0.00000000000E+00  0.00000000000E+00  0.26801243965E+02  0.26801243965E+02  0.00000000000E+00 0. -1.
         21   -1    0    0  501  503 -0.00000000000E+00 -0.00000000000E+00 -0.19488523900E+04  0.19488523900E+04  0.00000000000E+00 0. -1.
          6    1    1    2  501    0 -0.35866568796E+02 -0.89532376132E+02 -0.14538464160E+04  0.14672766810E+04  0.17300000000E+03 0. -1.
         -6    1    1    2    0  502  0.35866568796E+02  0.89532376132E+02 -0.46820473004E+03  0.50837695302E+03  0.17300000000E+03 0. -1.
</event>
<event>
 4    1  0.6069433E+000  0.1000000E+03  0.7546771E-02  0.1280296E+00
         21   -1    0    0  503  502  0.00000000000E+00  0.00000000000E+00  0.22846308032E+03  0.22846308032E+03  0.00000000000E+00 0. -1.
         21   -1    0    0  501  503 -0.00000000000E+00 -0.00000000000E+00 -0.26999812943E+03  0.26999812943E+03  0.00000000000E+00 0. -1.
          6    1    1    2  501    0  0.49663142132E+02  0.10397941893E+03 -0.15717371526E+03  0.26059686110E+03  0.17300000000E+03 0. -1.
         -6    1    1    2    0  502 -0.49663142132E+02 -0.10397941893E+03  0.11563866615E+03  0.23786434865E+03  0.17300000000E+03 0. -1.
</event>
<event>
 4    1  0.6069433E+000  0.1000000E+03  0.7546771E-02  0.1280296E+00
         21   -1    0    0  501  502  0.00000000000E+00  0.00000000000E+00  0.18208124159E+03  0.18208124159E+03  0.00000000000E+00 0. -1.
         21   -1    0    0  502  503 -0.00000000000E+00 -0.00000000000E+00 -0.35069444003E+03  0.35069444003E+03  0.00000000000E+00 0. -1.
          6    1    1    2  501    0  0.90148818916E+02 -0.64356001297E+02  0.70832140338E+02  0.21728943039E+03  0.17300000000E+03 0. -1.
         -6    1    1    2    0  503 -0.90148818916E+02  0.64356001297E+02 -0.23944533878E+03  0.31548625123E+03  0.17300000000E+03 0. -1.
</event>
<event>
 4    1  0.6069433E+000  0.1000000E+03  0.7546771E-02  0.1280296E+00
         21   -1    0    0  501  502  0.00000000000E+00  0.00000000000E+00  0.15528035708E+03  0.15528035708E+03  0.00000000000E+00 0. -1.
         21   -1    0    0  502  503 -0.00000000000E+00 -0.00000000000E+00 -0.67004903047E+03  0.67004903047E+03  0.00000000000E+00 0. -1.
          6    1    1    2  501    0 -0.12431853025E+03  0.29709359870E+02  0.50133054042E+02  0.22086209755E+03  0.17300000000E+03 0. -1.
         -6    1    1    2    0  503  0.12431853025E+03 -0.29709359870E+02 -0.56490172743E+03  0.60446729000E+03  0.17300000000E+03 0. -1.
</event>
<event>
 4    1  0.6069433E+000  0.1000000E+03  0.7546771E-02  0.1280296E+00
         21   -1    0    0  501  502  0.00000000000E+00  0.00000000000E+00  0.33596885507E+03  0.33596885507E+03  0.00000000000E+00 0. -1.
         21   -1    0    0  502  503 -0.00000000000E+00 -0.00000000000E+00 -0.22807349203E+03  0.22807349203E+03  0.00000000000E+00 0. -1.
          6    1    1    2  501    0  0.12461362494E+03 -0.34086158801E+02  0.23042954050E+03  0.31578029526E+03  0.17300000000E+03 0. -1.
         -6    1    1    2    0  503 -0.12461362494E+03  0.34086158801E+02 -0.12253417745E+03  0.24826205185E+03  0.17300000000E+03 0. -1.
</event>
<event>
 4    1  0.6069433E+000  0.1000000E+03  0.7546771E-02  0.1280296E+00
         21   -1    0    0  501  502  0.00000000000E+00  0.00000000000E+00  0.10097488728E+03  0.10097488728E+03  0.00000000000E+00 0. -1.
         21   -1    0    0  502  503 -0.00000000000E+00 -0.00000000000E+00 -0.59846045426E+03  0.59846045426E+03  0.00000000000E+00 0. -1.
          6    1    1    2  501    0  0.13543031874E+03 -0.30260898980E+02 -0.97894047607E+02  0.24242388042E+03  0.17300000000E+03 0. -1.
         -6    1    1    2    0  503 -0.13543031874E+03  0.30260898980E+02 -0.39959151937E+03  0.45701146112E+03  0.17300000000E+03 0. -1.
</event>
<event>
 4    1  0.6069433E+000  0.1000000E+03  0.7546771E-02  0.1280296E+00
         21   -1    0    0  501  502  0.00000000000E+00  0.00000000000E+00  0.15957187371E+03  0.15957187371E+03  0.00000000000E+00 0. -1.
         21   -1    0    0  502  503 -0.00000000000E+00 -0.00000000000E+00 -0.52318110384E+03  0.52318110384E+03  0.00000000000E+00 0. -1.
          6    1    1    2  501    0 -0.18047398736E+03 -0.54430882359E+02 -0.23192696591E+02  0.25690559014E+03  0.17300000000E+03 0. -1.
         -6    1    1    2    0  503  0.18047398736E+03  0.54430882359E+02 -0.34041653353E+03  0.42584738742E+03  0.17300000000E+03 0. -1.
</event>
<event>
 4    1  0.6069433E+000  0.1000000E+03  0.7546771E-02  0.1280296E+00
         21   -1    0    0  503  502  0.00000000000E+00  0.00000000000E+00  0.14414733527E+04  0.14414733527E+04  0.00000000000E+00 0. -1.
         21   -1    0    0  501  503 -0.00000000000E+00 -0.00000000000E+00 -0.26662733890E+02  0.26662733890E+02  0.00000000000E+00 0.  1.
          6    1    1    2  501    0  0.37346233781E+02  0.62167031540E+02  0.49410211964E+03  0.52851242712E+03  0.17300000000E+03 0. -1.
         -6    1    1    2    0  502 -0.37346233781E+02 -0.62167031540E+02  0.92070849915E+03  0.93962365945E+03  0.17300000000E+03 0. -1.
</event>
<event>
 4    1  0.6069433E+000  0.1000000E+03  0.7546771E-02  0.1280296E+00
         21   -1    0    0  503  502  0.00000000000E+00  0.00000000000E+00  0.28751423105E+03  0.28751423105E+03  0.00000000000E+00 0. -1.
         21   -1    0    0  501  503 -0.00000000000E+00 -0.00000000000E+00 -0.21180156573E+03  0.21180156573E+03  0.00000000000E+00 0. -1.
          6    1    1    2  501    0  0.99977392332E+02  0.92303527494E+02 -0.75035535669E+02  0.23253978537E+03  0.17300000000E+03 0. -1.
         -6    1    1    2    0  502 -0.99977392332E+02 -0.92303527494E+02  0.15074820099E+03  0.26677601141E+03  0.17300000000E+03 0. -1.
</event>
<event>
 4    1  0.6069433E+000  0.1000000E+03  0.7546771E-02  0.1280296E+00
         21   -1    0    0  503  502  0.00000000000E+00  0.00000000000E+00  0.38655691697E+02  0.38655691697E+02  0.00000000000E+00 0. -1.
         21   -1    0    0  501  503 -0.00000000000E+00 -0.00000000000E+00 -0.92308452970E+03  0.92308452970E+03  0.00000000000E+00 0. -1.
          6    1    1    2  501    0 -0.65352714212E+02 -0.36715633836E+02 -0.41269618549E+03  0.45372475857E+03  0.17300000000E+03 0. -1.
         -6    1    1    2    0  502  0.65352714212E+02  0.36715633836E+02 -0.47173265251E+03  0.50801546283E+03  0.17300000000E+03 0. -1.
</event>
<event>
 4    1  0.6069433E+000  0.1000000E+03  0.7546771E-02  0.1280296E+00
         21   -1    0    0  501  502  0.00000000000E+00  0.00000000000E+00  0.67574255585E+02  0.67574255585E+02  0.00000000000E+00 0.  1.
         21   -1    0    0  502  503 -0.00000000000E+00 -0.00000000000E+00 -0.62280046209E+03  0.62280046209E+03  0.00000000000E+00 0.  1.
          6    1    1    2  501    0  0.70771133355E+02  0.74255732264E+02 -0.20960030741E+03  0.29048882243E+03  0.17300000000E+03 0.  1.
         -6    1    1    2    0  503 -0.70771133355E+02 -0.74255732264E+02 -0.34562589909E+03  0.39988589524E+03  0.17300000000E+03 0.  1.
</event>
<event>
 4    1  0.6069433E+000  0.1000000E+03  0.7546771E-02  0.1280296E+00
         21   -1    0    0  501  502  0.00000000000E+00  0.00000000000E+00  0.24105205167E+02  0.24105205167E+02  0.00000000000E+00 0.  1.
         21   -1    0    0  502  503 -0.00000000000E+00 -0.00000000000E+00 -0.15224000188E+04  0.15224000188E+04  0.00000000000E+00 0. -1.
          6    1    1    2  501    0  0.16152175131E+02 -0.35757443024E+02 -0.45725524991E+03  0.49045983634E+03  0.17300000000E+03 0.  1.
         -6    1    1    2    0  503 -0.16152175131E+02  0.35757443024E+02 -0.10410395638E+04  0.10560453877E+04  0.17300000000E+03 0.  1.
</event>
<event>
 4    1  0.6069433E+000  0.1000000E+03  0.7546771E-02  0.1280296E+00
         21   -1    0    0  501  502  0.00000000000E+00  0.00000000000E+00  0.17025752612E+03  0.17025752612E+03  0.00000000000E+00 0.  1.
         21   -1    0    0  502  503 -0.00000000000E+00 -0.00000000000E+00 -0.39186226786E+03  0.39186226786E+03  0.00000000000E+00 0. -1.
          6    1    1    2  501    0  0.94968936204E+02  0.27430016122E+02  0.68051163288E+02  0.21055038697E+03  0.17300000000E+03 0.  1.
         -6    1    1    2    0  503 -0.94968936204E+02 -0.27430016122E+02 -0.28965590502E+03  0.35156940701E+03  0.17300000000E+03 0.  1.
</event>
<event>
 4    1  0.6069433E+000  0.1000000E+03  0.7546771E-02  0.1280296E+00
         21   -1    0    0  503  502  0.00000000000E+00  0.00000000000E+00  0.69021469202E+02  0.69021469202E+02  0.00000000000E+00 0.  1.
         21   -1    0    0  501  503 -0.00000000000E+00 -0.00000000000E+00 -0.16854702493E+04  0.16854702493E+04  0.00000000000E+00 0. -1.
          6    1    1    2  501    0 -0.64644010213E+02 -0.15258786923E+03 -0.14326544389E+04  0.14525459192E+04  0.17300000000E+03 0.  1.
         -6    1    1    2    0  502  0.64644010213E+02  0.15258786923E+03 -0.18379434117E+03  0.30194579934E+03  0.17300000000E+03 0.  1.
</event>
<event>
 4    1  0.6069433E+000  0.1000000E+03  0.7546771E-02  0.1280296E+00
         21   -1    0    0  501  502  0.00000000000E+00  0.00000000000E+00  0.46511090207E+03  0.46511090207E+03  0.00000000000E+00 0.  1.
         21   -1    0    0  502  503 -0.00000000000E+00 -0.00000000000E+00 -0.33819599096E+03  0.33819599096E+03  0.00000000000E+00 0.  1.
          6    1    1    2  501    0 -0.14644642432E+03 -0.72162055614E+01  0.39297424399E+03  0.45371399059E+03  0.17300000000E+03 0. -1.
         -6    1    1    2    0  503  0.14644642432E+03  0.72162055614E+01 -0.26605933288E+03  0.34959290243E+03  0.17300000000E+03 0. -1.
</event>
<event>
 4    1  0.6069433E+000  0.1000000E+03  0.7546771E-02  0.1280296E+00
         21   -1    0    0  501  502  0.00000000000E+00  0.00000000000E+00  0.89620030454E+03  0.89620030454E+03  0.00000000000E+00 0.  1.
         21   -1    0    0  502  503 -0.00000000000E+00 -0.00000000000E+00 -0.69283831311E+02  0.69283831311E+02  0.00000000000E+00 0.  1.
          6    1    1    2  501    0  0.21528507748E+02  0.74448797373E+02  0.72678058559E+03  0.75109594572E+03  0.17300000000E+03 0. -1.
         -6    1    1    2    0  503 -0.21528507748E+02 -0.74448797373E+02  0.10013588763E+03  0.21438819013E+03  0.17300000000E+03 0. -1.
</event>
<event>
 4    1  0.6069433E+000  0.1000000E+03  0.7546771E-02  0.1280296E+00
         21   -1    0    0  501  502  0.00000000000E+00  0.00000000000E+00  0.51678631849E+03  0.51678631849E+03  0.00000000000E+00 0.  1.
         21   -1    0    0  502  503 -0.00000000000E+00 -0.00000000000E+00 -0.16432026481E+03  0.16432026481E+03  0.00000000000E+00 0.  1.
          6    1    1    2  501    0 -0.15027015461E+03 -0.16724949477E+03  0.25406847431E+03  0.38083238112E+03  0.17300000000E+03 0. -1.
         -6    1    1    2    0  503  0.15027015461E+03  0.16724949477E+03  0.98397579365E+02  0.30027420218E+03  0.17300000000E+03 0. -1.
</event>
<event>
 4    1  0.6069433E+000  0.1000000E+03  0.7546771E-02  0.1280296E+00
         21   -1    0    0  501  502  0.00000000000E+00  0.00000000000E+00  0.82822794195E+02  0.82822794195E+02  0.00000000000E+00 0.  1.
         21   -1    0    0  502  503 -0.00000000000E+00 -0.00000000000E+00 -0.17114845659E+04  0.17114845659E+04  0.00000000000E+00 0.  1.
          6    1    1    2  501    0 -0.31575862930E+03  0.22477994478E+02 -0.55755043992E+03  0.66407850836E+03  0.17300000000E+03 0. -1.
         -6    1    1    2    0  503  0.31575862930E+03 -0.22477994478E+02 -0.10711113318E+04  0.11302288518E+04  0.17300000000E+03 0. -1.
</event>
<event>
 4    1  0.6069433E+000  0.1000000E+03  0.7546771E-02  0.1280296E+00
         21   -1    0    0  501  502  0.00000000000E+00  0.00000000000E+00  0.11172518241E+03  0.11172518241E+03  0.00000000000E+00 0. -1.
         21   -1    0    0  502  503 -0.00000000000E+00 -0.00000000000E+00 -0.98725505360E+03  0.98725505360E+03  0.00000000000E+00 0.  1.
          6    1    1    2  501    0  0.10999509791E+03 -0.11337722530E+03 -0.48272747064E+02  0.23919150255E+03  0.17300000000E+03 0.  1.
         -6    1    1    2    0  503 -0.10999509791E+03  0.11337722530E+03 -0.82725712413E+03  0.85978873347E+03  0.17300000000E+03 0. -1.
</event>
<event>
 4    1  0.6069433E+000  0.1000000E+03  0.7546771E-02  0.1280296E+00
         21   -1    0    0  501  502  0.00000000000E+00  0.00000000000E+00  0.11045191287E+03  0.11045191287E+03  0.00000000000E+00 0. -1.
         21   -1    0    0  502  503 -0.00000000000E+00 -0.00000000000E+00 -0.71667599876E+03  0.71667599876E+03  0.00000000000E+00 0. -1.
          6    1    1    2  501    0  0.20637763709E+03  0.51553512378E+02 -0.21038166122E+03  0.34559938817E+03  0.17300000000E+03 0. -1.
         -6    1    1    2    0  503 -0.20637763709E+03 -0.51553512378E+02 -0.39584242468E+03  0.48152852346E+03  0.17300000000E+03 0. -1.
</event>
<event>
 4    1  0.6069433E+000  0.1000000E+03  0.7546771E-02  0.1280296E+00
         21   -1    0    0  501  502  0.00000000000E+00  0.00000000000E+00  0.69702213757E+02  0.69702213757E+02  0.00000000000E+00 0. -1.
         21   -1    0    0  502  503 -0.00000000000E+00 -0.00000000000E+00 -0.51088753883E+03  0.51088753883E+03  0.00000000000E+00 0. -1.
          6    1    1    2  501    0 -0.39382888037E+02 -0.64256055280E+02 -0.21895021338E+03  0.28904679283E+03  0.17300000000E+03 0. -1.
         -6    1    1    2    0  503  0.39382888037E+02  0.64256055280E+02 -0.22223511170E+03  0.29154295975E+03  0.17300000000E+03 0. -1.
</event>
<event>
 4    1  0.6069433E+000  0.1000000E+03  0.7546771E-02  0.1280296E+00
         21   -1    0    0  503  502  0.00000000000E+00  0.00000000000E+00  0.52816023531E+03  0.52816023531E+03  0.00000000000E+00 0. -1.
         21   -1    0    0  501  503 -0.00000000000E+00 -0.00000000000E+00 -0.11578038048E+03  0.11578038048E+03  0.00000000000E+00 0. -1.
          6    1    1    2  501    0 -0.17648759558E+03 -0.32178294629E+01  0.19582544358E+03  0.31533288787E+03  0.17300000000E+03 0. -1.
         -6    1    1    2    0  502  0.17648759558E+03  0.32178294629E+01  0.21655441125E+03  0.32860772792E+03  0.17300000000E+03 0. -1.
</event>
<event>
 4    1  0.6069433E+000  0.1000000E+03  0.7546771E-02  0.1280296E+00
         21   -1    0    0  503  502  0.00000000000E+00  0.00000000000E+00  0.12975961627E+03  0.12975961627E+03  0.00000000000E+00 0. -1.
         21   -1    0    0  501  503 -0.00000000000E+00 -0.00000000000E+00 -0.14986726374E+04  0.14986726374E+04  0.00000000000E+00 0. -1.
          6    1    1    2  501    0  0.84734183547E+02 -0.37977115520E+03 -0.47287152240E+03  0.63635091646E+03  0.17300000000E+03 0. -1.
         -6    1    1    2    0  502 -0.84734183547E+02  0.37977115520E+03 -0.89604149876E+03  0.99208133723E+03  0.17300000000E+03 0. -1.
</event>
<event>
 4    1  0.6069433E+000  0.1000000E+03  0.7546771E-02  0.1280296E+00
         21   -1    0    0  501  502  0.00000000000E+00  0.00000000000E+00  0.73233241803E+02  0.73233241803E+02  0.00000000000E+00 0. -1.
         21   -1    0    0  502  503 -0.00000000000E+00 -0.00000000000E+00 -0.72362700465E+03  0.72362700465E+03  0.00000000000E+00 0. -1.
          6    1    1    2  501    0 -0.11998660819E+03  0.37074387936E+02 -0.47300604281E+03  0.51907129850E+03  0.17300000000E+03 0. -1.
         -6    1    1    2    0  503  0.11998660819E+03 -0.37074387936E+02 -0.17738772003E+03  0.27778894795E+03  0.17300000000E+03 0. -1.
</event>
<event>
 4    1  0.6069433E+000  0.1000000E+03  0.7546771E-02  0.1280296E+00
         21   -1    0    0  501  502  0.00000000000E+00  0.00000000000E+00  0.12815534006E+04  0.12815534006E+04  0.00000000000E+00 0. -1.
         21   -1    0    0  502  503 -0.00000000000E+00 -0.00000000000E+00 -0.44214434843E+02  0.44214434843E+02  0.00000000000E+00 0. -1.
          6    1    1    2  501    0  0.14851187892E+03  0.22067231220E+02  0.79895780659E+03  0.83114698916E+03  0.17300000000E+03 0. -1.
         -6    1    1    2    0  503 -0.14851187892E+03 -0.22067231220E+02  0.43838115921E+03  0.49462084632E+03  0.17300000000E+03 0. -1.
</event>
<event>
 4    1  0.6069433E+000  0.1000000E+03  0.7546771E-02  0.1280296E+00
         21   -1    0    0  501  502  0.00000000000E+00  0.00000000000E+00  0.65472698793E+03  0.65472698793E+03  0.00000000000E+00 0. -1.
         21   -1    0    0  502  503 -0.00000000000E+00 -0.00000000000E+00 -0.51399646958E+02  0.51399646958E+02  0.00000000000E+00 0. -1.
          6    1    1    2  501    0 -0.57585085465E+02 -0.16210374111E+02  0.27849488976E+03  0.33326749305E+03  0.17300000000E+03 0. -1.
         -6    1    1    2    0  503  0.57585085465E+02  0.16210374111E+02  0.32483245121E+03  0.37285914184E+03  0.17300000000E+03 0. -1.
</event>
<event>
 4    1  0.6069433E+000  0.1000000E+03  0.7546771E-02  0.1280296E+00
         21   -1    0    0  501  502  0.00000000000E+00  0.00000000000E+00  0.33165057719E+03  0.33165057719E+03  0.00000000000E+00 0. -1.
         21   -1    0    0  502  503 -0.00000000000E+00 -0.00000000000E+00 -0.15206687690E+03  0.15206687690E+03  0.00000000000E+00 0. -1.
          6    1    1    2  501    0 -0.26101294311E+01  0.58693101870E+02  0.23042784893E+03  0.29407088694E+03  0.17300000000E+03 0. -1.
         -6    1    1    2    0  503  0.26101294311E+01 -0.58693101870E+02 -0.50844148634E+02  0.18964656715E+03  0.17300000000E+03 0. -1.
</event>
<event>
 4    1  0.6069433E+000  0.1000000E+03  0.7546771E-02  0.1280296E+00
         21   -1    0    0  503  502  0.00000000000E+00  0.00000000000E+00  0.36562842258E+03  0.36562842258E+03  0.00000000000E+00 0.  1.
         21   -1    0    0  501  503 -0.00000000000E+00 -0.00000000000E+00 -0.10496465298E+04  0.10496465298E+04  0.00000000000E+00 0. -1.
          6    1    1    2  501    0 -0.34957601002E+03 -0.22399024684E+03 -0.82861746912E+03  0.94282072930E+03  0.17300000000E+03 0. -1.
         -6    1    1    2    0  502  0.34957601002E+03  0.22399024684E+03  0.14459936190E+03  0.47245422309E+03  0.17300000000E+03 0.  1.
</event>
<event>
 4    1  0.6069433E+000  0.1000000E+03  0.7546771E-02  0.1280296E+00
         21   -1    0    0  501  502  0.00000000000E+00  0.00000000000E+00  0.86812031872E+03  0.86812031872E+03  0.00000000000E+00 0. -1.
         21   -1    0    0  502  503 -0.00000000000E+00 -0.00000000000E+00 -0.62166412681E+02  0.62166412681E+02  0.00000000000E+00 0. -1.
          6    1    1    2  501    0  0.57108839031E+02 -0.11714461769E+03  0.57115006097E+03  0.61084013710E+03  0.17300000000E+03 0. -1.
         -6    1    1    2    0  503 -0.57108839031E+02  0.11714461769E+03  0.23480384507E+03  0.31944659430E+03  0.17300000000E+03 0. -1.
</event>
<event>
 4    1  0.6069433E+000  0.1000000E+03  0.7546771E-02  0.1280296E+00
         21   -1    0    0  501  502  0.00000000000E+00  0.00000000000E+00  0.10730655623E+04  0.10730655623E+04  0.00000000000E+00 0. -1.
         21   -1    0    0  502  503 -0.00000000000E+00 -0.00000000000E+00 -0.87862985831E+02  0.87862985831E+02  0.00000000000E+00 0. -1.
          6    1    1    2  501    0 -0.81254957341E+02 -0.18222071115E+03  0.78878317715E+03  0.83181407551E+03  0.17300000000E+03 0. -1.
         -6    1    1    2    0  503  0.81254957341E+02  0.18222071115E+03  0.19641939935E+03  0.32911447265E+03  0.17300000000E+03 0. -1.
</event>
<event>
 4    1  0.6069433E+000  0.1000000E+03  0.7546771E-02  0.1280296E+00
         21   -1    0    0  503  502  0.00000000000E+00  0.00000000000E+00  0.20064927592E+03  0.20064927592E+03  0.00000000000E+00 0. -1.
         21   -1    0    0  501  503 -0.00000000000E+00 -0.00000000000E+00 -0.37297924143E+03  0.37297924143E+03  0.00000000000E+00 0. -1.
          6    1    1    2  501    0  0.21093188449E+02 -0.19450540907E+02 -0.30629984047E+03  0.35294735926E+03  0.17300000000E+03 0. -1.
         -6    1    1    2    0  502 -0.21093188449E+02  0.19450540907E+02  0.13396987496E+03  0.22068115809E+03  0.17300000000E+03 0. -1.
</event>
<event>
 4    1  0.6069433E+000  0.1000000E+03  0.7546771E-02  0.1280296E+00
         21   -1    0    0  503  502  0.00000000000E+00  0.00000000000E+00  0.12034870200E+04  0.12034870200E+04  0.00000000000E+00 0. -1.
         21   -1    0    0  501  503 -0.00000000000E+00 -0.00000000000E+00 -0.18630222341E+03  0.18630222341E+03  0.00000000000E+00 0. -1.
          6    1    1    2  501    0 -0.33002768712E+03 -0.24112347417E+02  0.81280264888E+02  0.38214547102E+03  0.17300000000E+03 0. -1.
         -6    1    1    2    0  502  0.33002768712E+03  0.24112347417E+02  0.93590453172E+03  0.10076437724E+04  0.17300000000E+03 0. -1.
</event>
<event>
 4    1  0.6069433E+000  0.1000000E+03  0.7546771E-02  0.1280296E+00
         21   -1    0    0  503  502  0.00000000000E+00  0.00000000000E+00  0.23309547358E+03  0.23309547358E+03  0.00000000000E+00 0. -1.
         21   -1    0    0  501  503 -0.00000000000E+00 -0.00000000000E+00 -0.17023063026E+03  0.17023063026E+03  0.00000000000E+00 0. -1.
          6    1    1    2  501    0 -0.48651486068E+02 -0.16323523651E+01 -0.55545432290E+02  0.18810615811E+03  0.17300000000E+03 0. -1.
         -6    1    1    2    0  502  0.48651486068E+02  0.16323523651E+01  0.11841027561E+03  0.21521994573E+03  0.17300000000E+03 0. -1.
</event>
<event>
 4    1  0.6069433E+000  0.1000000E+03  0.7546771E-02  0.1280296E+00
         21   -1    0    0  501  502  0.00000000000E+00  0.00000000000E+00  0.83038395303E+03  0.83038395303E+03  0.00000000000E+00 0. -1.
         21   -1    0    0  502  503 -0.00000000000E+00 -0.00000000000E+00 -0.36492479300E+02  0.36492479300E+02  0.00000000000E+00 0. -1.
          6    1    1    2  501    0  0.15195204323E+02 -0.10906553944E+02  0.38476747351E+03  0.42228527778E+03  0.17300000000E+03 0. -1.
         -6    1    1    2    0  503 -0.15195204323E+02  0.10906553944E+02  0.40912400022E+03  0.44459115456E+03  0.17300000000E+03 0. -1.
</event>
<event>
 4    1  0.6069433E+000  0.1000000E+03  0.7546771E-02  0.1280296E+00
         21   -1    0    0  501  502  0.00000000000E+00  0.00000000000E+00  0.57504835580E+02  0.57504835580E+02  0.00000000000E+00 0. -1.
         21   -1    0    0  502  503 -0.00000000000E+00 -0.00000000000E+00 -0.13672728654E+04  0.13672728654E+04  0.00000000000E+00 0.  1.
          6    1    1    2  501    0 -0.75062597850E+02  0.17909906781E+03 -0.38860556975E+03  0.46760470328E+03  0.17300000000E+03 0. -1.
         -6    1    1    2    0  503  0.75062597850E+02 -0.17909906781E+03 -0.92116246007E+03  0.95717299770E+03  0.17300000000E+03 0.  1.
</event>
<event>
 4    1  0.6069433E+000  0.1000000E+03  0.7546771E-02  0.1280296E+00
         21   -1    0    0  501  502  0.00000000000E+00  0.00000000000E+00  0.58164640574E+03  0.58164640574E+03  0.00000000000E+00 0. -1.
         21   -1    0    0  502  503 -0.00000000000E+00 -0.00000000000E+00 -0.67147513093E+02  0.67147513093E+02  0.00000000000E+00 0.  1.
          6    1    1    2  501    0  0.80089547787E+02  0.25195790644E+02  0.33207491140E+03  0.38373416620E+03  0.17300000000E+03 0. -1.
         -6    1    1    2    0  503 -0.80089547787E+02 -0.25195790644E+02  0.18242398125E+03  0.26505975263E+03  0.17300000000E+03 0.  1.
</event>
<event>
 4    1  0.6069433E+000  0.1000000E+03  0.7546771E-02  0.1280296E+00
         21   -1    0    0  501  502  0.00000000000E+00  0.00000000000E+00  0.68268337128E+03  0.68268337128E+03  0.00000000000E+00 0. -1.
         21   -1    0    0  502  503 -0.00000000000E+00 -0.00000000000E+00 -0.15377608374E+03  0.15377608374E+03  0.00000000000E+00 0.  1.
          6    1    1    2  501    0  0.15740206713E+02  0.44190878149E+02  0.61285349729E+03  0.63852877536E+03  0.17300000000E+03 0.  1.
         -6    1    1    2    0  503 -0.15740206713E+02 -0.44190878149E+02 -0.83946209753E+02  0.19793067966E+03  0.17300000000E+03 0. -1.
</event>
<event>
 4    1  0.6069433E+000  0.1000000E+03  0.7546771E-02  0.1280296E+00
         21   -1    0    0  501  502  0.00000000000E+00  0.00000000000E+00  0.30098262544E+03  0.30098262544E+03  0.00000000000E+00 0. -1.
         21   -1    0    0  502  503 -0.00000000000E+00 -0.00000000000E+00 -0.12764822258E+03  0.12764822258E+03  0.00000000000E+00 0.  1.
          6    1    1    2  501    0 -0.27122863230E+02  0.65389277081E+02  0.15116325162E+03  0.24039703806E+03  0.17300000000E+03 0.  1.
         -6    1    1    2    0  503  0.27122863230E+02 -0.65389277081E+02  0.22171151240E+02  0.18823380997E+03  0.17300000000E+03 0. -1.
</event>
<event>
 4    1  0.6069433E+000  0.1000000E+03  0.7546771E-02  0.1280296E+00
         21   -1    0    0  501  502  0.00000000000E+00  0.00000000000E+00  0.16962632701E+04  0.16962632701E+04  0.00000000000E+00 0. -1.
         21   -1    0    0  502  503 -0.00000000000E+00 -0.00000000000E+00 -0.48118851517E+03  0.48118851517E+03  0.00000000000E+00 0.  1.
          6    1    1    2  501    0 -0.33898533358E+03  0.55211076265E+02  0.15927072025E+04  0.16384762898E+04  0.17300000000E+03 0.  1.
         -6    1    1    2    0  503  0.33898533358E+03 -0.55211076265E+02 -0.37763244754E+03  0.53897549550E+03  0.17300000000E+03 0. -1.
</event>
<event>
 4    1  0.6069433E+000  0.1000000E+03  0.7546771E-02  0.1280296E+00
         21   -1    0    0  503  502  0.00000000000E+00  0.00000000000E+00  0.21909676893E+03  0.21909676893E+03  0.00000000000E+00 0.  1.
         21   -1    0    0  501  503 -0.00000000000E+00 -0.00000000000E+00 -0.29816612654E+03  0.29816612654E+03  0.00000000000E+00 0.  1.
          6    1    1    2  501    0  0.17919097343E+03 -0.57346173240E+02 -0.40036951289E+02  0.25870822564E+03  0.17300000000E+03 0.  1.
         -6    1    1    2    0  502 -0.17919097343E+03  0.57346173240E+02 -0.39032406320E+02  0.25855466983E+03  0.17300000000E+03 0.  1.
</event>
<event>
 4    1  0.6069433E+000  0.1000000E+03  0.7546771E-02  0.1280296E+00
         21   -1    0    0  503  502  0.00000000000E+00  0.00000000000E+00  0.20055245375E+02  0.20055245375E+02  0.00000000000E+00 0.  1.
         21   -1    0    0  501  503 -0.00000000000E+00 -0.00000000000E+00 -0.24818472780E+04  0.24818472780E+04  0.00000000000E+00 0.  1.
          6    1    1    2  501    0  0.10789098008E+03 -0.77976224137E+02 -0.14893283817E+04  0.15052404405E+04  0.17300000000E+03 0.  1.
         -6    1    1    2    0  502 -0.10789098008E+03  0.77976224137E+02 -0.97246365094E+03  0.99666208291E+03  0.17300000000E+03 0.  1.
</event>
<event>
 4    1  0.6069433E+000  0.1000000E+03  0.7546771E-02  0.1280296E+00
         21   -1    0    0  503  502  0.00000000000E+00  0.00000000000E+00  0.77669960583E+03  0.77669960583E+03  0.00000000000E+00 0. -1.
         21   -1    0    0  501  503 -0.00000000000E+00 -0.00000000000E+00 -0.17606561146E+03  0.17606561146E+03  0.00000000000E+00 0. -1.
          6    1    1    2  501    0  0.88629538726E+02  0.23618566857E+03  0.32619322684E+02  0.30762295979E+03  0.17300000000E+03 0. -1.
         -6    1    1    2    0  502 -0.88629538726E+02 -0.23618566857E+03  0.56801467169E+03  0.64514225751E+03  0.17300000000E+03 0. -1.
</event>
<event>
 4    1  0.6069433E+000  0.1000000E+03  0.7546771E-02  0.1280296E+00
         21   -1    0    0  503  502  0.00000000000E+00  0.00000000000E+00  0.84894408361E+02  0.84894408361E+02  0.00000000000E+00 0.  1.
         21   -1    0    0  501  503 -0.00000000000E+00 -0.00000000000E+00 -0.57994387053E+03  0.57994387053E+03  0.00000000000E+00 0. -1.
          6    1    1    2  501    0  0.20377701347E+02 -0.13018947567E+03 -0.31351862769E+03  0.38155927481E+03  0.17300000000E+03 0. -1.
         -6    1    1    2    0  502 -0.20377701347E+02  0.13018947567E+03 -0.18153083448E+03  0.28327900408E+03  0.17300000000E+03 0.  1.
</event>
<event>
 4    1  0.6069433E+000  0.1000000E+03  0.7546771E-02  0.1280296E+00
         21   -1    0    0  503  502  0.00000000000E+00  0.00000000000E+00  0.16580220431E+04  0.16580220431E+04  0.00000000000E+00 0.  1.
         21   -1    0    0  501  503 -0.00000000000E+00 -0.00000000000E+00 -0.58873596109E+02  0.58873596109E+02  0.00000000000E+00 0. -1.
          6    1    1    2  501    0  0.22500181752E+03  0.10848318884E+03  0.59972677024E+03  0.67230619445E+03  0.17300000000E+03 0. -1.
         -6    1    1    2    0  502 -0.22500181752E+03 -0.10848318884E+03  0.99942167671E+03  0.10445894447E+04  0.17300000000E+03 0.  1.
</event>
<event>
 4    1  0.6069433E+000  0.1000000E+03  0.7546771E-02  0.1280296E+00
         21   -1    0    0  503  502  0.00000000000E+00  0.00000000000E+00  0.49355880302E+03  0.49355880302E+03  0.00000000000E+00 0.  1.
         21   -1    0    0  501  503 -0.00000000000E+00 -0.00000000000E+00 -0.12644418118E+03  0.12644418118E+03  0.00000000000E+00 0. -1.
          6    1    1    2  501    0 -0.61139381518E+02 -0.10615397100E+03  0.19530218054E+02  0.21287817866E+03  0.17300000000E+03 0. -1.
         -6    1    1    2    0  502  0.61139381518E+02  0.10615397100E+03  0.34758440378E+03  0.40712480554E+03  0.17300000000E+03 0.  1.
</event>
<event>
 4    1  0.6069433E+000  0.1000000E+03  0.7546771E-02  0.1280296E+00
         21   -1    0    0  501  502  0.00000000000E+00  0.00000000000E+00  0.78229827042E+02  0.78229827042E+02  0.00000000000E+00 0.  1.
         21   -1    0    0  502  503 -0.00000000000E+00 -0.00000000000E+00 -0.64953721101E+03  0.64953721101E+03  0.00000000000E+00 0. -1.
          6    1    1    2  501    0 -0.62958318920E+01 -0.12906660619E+03 -0.18120756721E+03  0.28189183874E+03  0.17300000000E+03 0.  1.
         -6    1    1    2    0  503  0.62958318920E+01  0.12906660619E+03 -0.39009981676E+03  0.44587519932E+03  0.17300000000E+03 0. -1.
</event>
<event>
 4    1  0.6069433E+000  0.1000000E+03  0.7546771E-02  0.1280296E+00
         21   -1    0    0  501  502  0.00000000000E+00  0.00000000000E+00  0.31648487994E+03  0.31648487994E+03  0.00000000000E+00 0.  1.
         21   -1    0    0  502  503 -0.00000000000E+00 -0.00000000000E+00 -0.56516798961E+03  0.56516798961E+03  0.00000000000E+00 0. -1.
          6    1    1    2  501    0 -0.20601504106E+03 -0.53214173822E+02  0.21125440393E+03  0.34616667751E+03  0.17300000000E+03 0.  1.
         -6    1    1    2    0  503  0.20601504106E+03  0.53214173822E+02 -0.45993751361E+03  0.53548619204E+03  0.17300000000E+03 0. -1.
</event>
<event>
 4    1  0.6069433E+000  0.1000000E+03  0.7546771E-02  0.1280296E+00
         21   -1    0    0  501  502  0.00000000000E+00  0.00000000000E+00  0.14352330041E+03  0.14352330041E+03  0.00000000000E+00 0.  1.
         21   -1    0    0  502  503 -0.00000000000E+00 -0.00000000000E+00 -0.44070275199E+03  0.44070275199E+03  0.00000000000E+00 0. -1.
          6    1    1    2  501    0  0.34333373604E+02 -0.35201750726E+02  0.55595999006E+02  0.18824945924E+03  0.17300000000E+03 0.  1.
         -6    1    1    2    0  503 -0.34333373604E+02  0.35201750726E+02 -0.35277545059E+03  0.39597659316E+03  0.17300000000E+03 0. -1.
</event>
<event>
 4    1  0.6069433E+000  0.1000000E+03  0.7546771E-02  0.1280296E+00
         21   -1    0    0  501  502  0.00000000000E+00  0.00000000000E+00  0.34558772380E+03  0.34558772380E+03  0.00000000000E+00 0.  1.
         21   -1    0    0  502  503 -0.00000000000E+00 -0.00000000000E+00 -0.11463693523E+03  0.11463693523E+03  0.00000000000E+00 0. -1.
          6    1    1    2  501    0 -0.48846012588E+02 -0.20733476811E+02  0.21131604288E+03  0.27820726084E+03  0.17300000000E+03 0.  1.
         -6    1    1    2    0  503  0.48846012588E+02  0.20733476811E+02  0.19634745693E+02  0.18201739819E+03  0.17300000000E+03 0. -1.
</event>
<event>
 4    1  0.6069433E+000  0.1000000E+03  0.7546771E-02  0.1280296E+00
         21   -1    0    0  501  502  0.00000000000E+00  0.00000000000E+00  0.77836708626E+02  0.77836708626E+02  0.00000000000E+00 0.  1.
         21   -1    0    0  502  503 -0.00000000000E+00 -0.00000000000E+00 -0.88593707154E+03  0.88593707154E+03  0.00000000000E+00 0. -1.
          6    1    1    2  501    0 -0.54338584073E+02  0.32774278418E+02 -0.60728258157E+02  0.19401998965E+03  0.17300000000E+03 0.  1.
         -6    1    1    2    0  503  0.54338584073E+02 -0.32774278418E+02 -0.74737210475E+03  0.76975379051E+03  0.17300000000E+03 0. -1.
</event>
<event>
 4    1  0.6069433E+000  0.1000000E+03  0.7546771E-02  0.1280296E+00
         21   -1    0    0  501  502  0.00000000000E+00  0.00000000000E+00  0.18084405009E+03  0.18084405009E+03  0.00000000000E+00 0.  1.
         21   -1    0    0  502  503 -0.00000000000E+00 -0.00000000000E+00 -0.30404563115E+03  0.30404563115E+03  0.00000000000E+00 0. -1.
          6    1    1    2  501    0 -0.73389576576E+02 -0.31155486979E+02  0.79783895540E+02  0.20652158315E+03  0.17300000000E+03 0.  1.
         -6    1    1    2    0  503  0.73389576576E+02  0.31155486979E+02 -0.20298547660E+03  0.27836809808E+03  0.17300000000E+03 0. -1.
</event>
<event>
 4    1  0.6069433E+000  0.1000000E+03  0.7546771E-02  0.1280296E+00
         21   -1    0    0  501  502  0.00000000000E+00  0.00000000000E+00  0.45057864699E+02  0.45057864699E+02  0.00000000000E+00 0.  1.
         21   -1    0    0  502  503 -0.00000000000E+00 -0.00000000000E+00 -0.84867868641E+03  0.84867868641E+03  0.00000000000E+00 0. -1.
          6    1    1    2  501    0 -0.67555908897E+02 -0.52337801031E+02 -0.47434870494E+03  0.51209251129E+03  0.17300000000E+03 0.  1.
         -6    1    1    2    0  503  0.67555908897E+02  0.52337801031E+02 -0.32927211677E+03  0.38164403981E+03  0.17300000000E+03 0. -1.
</event>
<event>
 4    1  0.6069433E+000  0.1000000E+03  0.7546771E-02  0.1280296E+00
         21   -1    0    0  501  502  0.00000000000E+00  0.00000000000E+00  0.65831802969E+03  0.65831802969E+03  0.00000000000E+00 0.  1.
         21   -1    0    0  502  503 -0.00000000000E+00 -0.00000000000E+00 -0.18629833212E+03  0.18629833212E+03  0.00000000000E+00 0.  1.
          6    1    1    2  501    0 -0.10657388422E+03 -0.25961294917E+03  0.37847665012E+03  0.50192673854E+03  0.17300000000E+03 0. -1.
         -6    1    1    2    0  503  0.10657388422E+03  0.25961294917E+03  0.93543047443E+02  0.34268962327E+03  0.17300000000E+03 0. -1.
</event>
<event>
 4    1  0.6069433E+000  0.1000000E+03  0.7546771E-02  0.1280296E+00
         21   -1    0    0  503  502  0.00000000000E+00  0.00000000000E+00  0.25705503660E+03  0.25705503660E+03  0.00000000000E+00 0. -1.
         21   -1    0    0  501  503 -0.00000000000E+00 -0.00000000000E+00 -0.38377859304E+03  0.38377859304E+03  0.00000000000E+00 0.  1.
          6    1    1    2  501    0  0.25203002237E+03  0.22341092093E+02 -0.13333631078E+03  0.33425413736E+03  0.17300000000E+03 0.  1.
         -6    1    1    2    0  502 -0.25203002237E+03 -0.22341092093E+02  0.66127543378E+01  0.30657949229E+03  0.17300000000E+03 0. -1.
</event>
<event>
 4    1  0.6069433E+000  0.1000000E+03  0.7546771E-02  0.1280296E+00
         21   -1    0    0  503  502  0.00000000000E+00  0.00000000000E+00  0.91105040250E+03  0.91105040250E+03  0.00000000000E+00 0. -1.
         21   -1    0    0  501  503 -0.00000000000E+00 -0.00000000000E+00 -0.11316385877E+03  0.11316385877E+03  0.00000000000E+00 0.  1.
          6    1    1    2  501    0 -0.14580308282E+03 -0.18481806081E+02  0.36759051741E+02  0.22995726560E+03  0.17300000000E+03 0.  1.
         -6    1    1    2    0  502  0.14580308282E+03  0.18481806081E+02  0.76112749198E+03  0.79425699567E+03  0.17300000000E+03 0. -1.
</event>
<event>
 4    1  0.6069433E+000  0.1000000E+03  0.7546771E-02  0.1280296E+00
         21   -1    0    0  503  502  0.00000000000E+00  0.00000000000E+00  0.41928225080E+02  0.41928225080E+02  0.00000000000E+00 0. -1.
         21   -1    0    0  501  503 -0.00000000000E+00 -0.00000000000E+00 -0.88273864804E+03  0.88273864804E+03  0.00000000000E+00 0.  1.
          6    1    1    2  501    0 -0.44157053729E+02  0.43737585598E+01 -0.59225665068E+03  0.61859996397E+03  0.17300000000E+03 0.  1.
         -6    1    1    2    0  502  0.44157053729E+02 -0.43737585598E+01 -0.24855377229E+03  0.30606690915E+03  0.17300000000E+03 0. -1.
</event>
<event>
 4    1  0.6069433E+000  0.1000000E+03  0.7546771E-02  0.1280296E+00
         21   -1    0    0  501  502  0.00000000000E+00  0.00000000000E+00  0.17590489232E+04  0.17590489232E+04  0.00000000000E+00 0. -1.
         21   -1    0    0  502  503 -0.00000000000E+00 -0.00000000000E+00 -0.28715206864E+02  0.28715206864E+02  0.00000000000E+00 0. -1.
          6    1    1    2  501    0 -0.12921744324E+03  0.25496773783E+02  0.10913901093E+04  0.11128380852E+04  0.17300000000E+03 0. -1.
         -6    1    1    2    0  503  0.12921744324E+03 -0.25496773783E+02  0.63894360700E+03  0.67492604486E+03  0.17300000000E+03 0. -1.
</event>
<event>
 4    1  0.6069433E+000  0.1000000E+03  0.7546771E-02  0.1280296E+00
         21   -1    0    0  501  502  0.00000000000E+00  0.00000000000E+00  0.42711221738E+03  0.42711221738E+03  0.00000000000E+00 0. -1.
         21   -1    0    0  502  503 -0.00000000000E+00 -0.00000000000E+00 -0.11432065944E+03  0.11432065944E+03  0.00000000000E+00 0. -1.
          6    1    1    2  501    0  0.82130293513E+02 -0.95467476351E+01  0.29094927300E+03  0.34844942956E+03  0.17300000000E+03 0. -1.
         -6    1    1    2    0  503 -0.82130293513E+02  0.95467476351E+01  0.21842284942E+02  0.19298344726E+03  0.17300000000E+03 0. -1.
</event>
<event>
 4    1  0.6069433E+000  0.1000000E+03  0.7546771E-02  0.1280296E+00
         21   -1    0    0  503  502  0.00000000000E+00  0.00000000000E+00  0.18376973799E+04  0.18376973799E+04  0.00000000000E+00 0. -1.
         21   -1    0    0  501  503 -0.00000000000E+00 -0.00000000000E+00 -0.20970118621E+02  0.20970118621E+02  0.00000000000E+00 0. -1.
          6    1    1    2  501    0  0.20278454078E+02 -0.73261186060E+02  0.65655250430E+03  0.68320466040E+03  0.17300000000E+03 0. -1.
         -6    1    1    2    0  502 -0.20278454078E+02  0.73261186060E+02  0.11601747570E+04  0.11754628381E+04  0.17300000000E+03 0. -1.
</event>
<event>
 4    1  0.6069433E+000  0.1000000E+03  0.7546771E-02  0.1280296E+00
         21   -1    0    0  503  502  0.00000000000E+00  0.00000000000E+00  0.10064419301E+03  0.10064419301E+03  0.00000000000E+00 0. -1.
         21   -1    0    0  501  503 -0.00000000000E+00 -0.00000000000E+00 -0.34680453575E+03  0.34680453575E+03  0.00000000000E+00 0. -1.
          6    1    1    2  501    0  0.68255224565E+02 -0.17764083772E+02 -0.12394725062E+03  0.22420138110E+03  0.17300000000E+03 0. -1.
         -6    1    1    2    0  502 -0.68255224565E+02  0.17764083772E+02 -0.12221309212E+03  0.22324734766E+03  0.17300000000E+03 0. -1.
</event>
<event>
 4    1  0.6069433E+000  0.1000000E+03  0.7546771E-02  0.1280296E+00
         21   -1    0    0  503  502  0.00000000000E+00  0.00000000000E+00  0.11568641134E+04  0.11568641134E+04  0.00000000000E+00 0. -1.
         21   -1    0    0  501  503 -0.00000000000E+00 -0.00000000000E+00 -0.33211860252E+03  0.33211860252E+03  0.00000000000E+00 0.  1.
          6    1    1    2  501    0  0.28090786641E+03  0.23086041601E+03 -0.15364220684E+03  0.43097643650E+03  0.17300000000E+03 0.  1.
         -6    1    1    2    0  502 -0.28090786641E+03 -0.23086041601E+03  0.97838771775E+03  0.10580062794E+04  0.17300000000E+03 0. -1.
</event>
<event>
 4    1  0.6069433E+000  0.1000000E+03  0.7546771E-02  0.1280296E+00
         21   -1    0    0  503  502  0.00000000000E+00  0.00000000000E+00  0.19931412868E+03  0.19931412868E+03  0.00000000000E+00 0. -1.
         21   -1    0    0  501  503 -0.00000000000E+00 -0.00000000000E+00 -0.61975317250E+03  0.61975317250E+03  0.00000000000E+00 0.  1.
          6    1    1    2  501    0  0.10932026286E+03  0.91722119886E+02 -0.52554835473E+03  0.57139648258E+03  0.17300000000E+03 0.  1.
         -6    1    1    2    0  502 -0.10932026286E+03 -0.91722119886E+02  0.10510931091E+03  0.24767081860E+03  0.17300000000E+03 0. -1.
</event>
<event>
 4    1  0.6069433E+000  0.1000000E+03  0.7546771E-02  0.1280296E+00
         21   -1    0    0  503  502  0.00000000000E+00  0.00000000000E+00  0.10542175009E+03  0.10542175009E+03  0.00000000000E+00 0. -1.
         21   -1    0    0  501  503 -0.00000000000E+00 -0.00000000000E+00 -0.40838402949E+03  0.40838402949E+03  0.00000000000E+00 0.  1.
          6    1    1    2  501    0 -0.30498428191E+02 -0.81180474191E+02 -0.58801343604E+02  0.20225484301E+03  0.17300000000E+03 0.  1.
         -6    1    1    2    0  502  0.30498428191E+02  0.81180474191E+02 -0.24416093579E+03  0.31155093657E+03  0.17300000000E+03 0. -1.
</event>
<event>
 4    1  0.6069433E+000  0.1000000E+03  0.7546771E-02  0.1280296E+00
         21   -1    0    0  503  502  0.00000000000E+00  0.00000000000E+00  0.47807079763E+02  0.47807079763E+02  0.00000000000E+00 0. -1.
         21   -1    0    0  501  503 -0.00000000000E+00 -0.00000000000E+00 -0.76208114833E+03  0.76208114833E+03  0.00000000000E+00 0.  1.
          6    1    1    2  501    0 -0.51954479147E+01 -0.28690901894E+02 -0.51665708539E+03  0.54563147308E+03  0.17300000000E+03 0.  1.
         -6    1    1    2    0  502  0.51954479147E+01  0.28690901894E+02 -0.19761698318E+03  0.26425675502E+03  0.17300000000E+03 0. -1.
</event>
<event>
 4    1  0.6069433E+000  0.1000000E+03  0.7546771E-02  0.1280296E+00
         21   -1    0    0  501  502  0.00000000000E+00  0.00000000000E+00  0.15476853995E+03  0.15476853995E+03  0.00000000000E+00 0.  1.
         21   -1    0    0  502  503 -0.00000000000E+00 -0.00000000000E+00 -0.69528009928E+03  0.69528009928E+03  0.00000000000E+00 0. -1.
          6    1    1    2  501    0  0.11787256468E+03  0.14768625979E+03 -0.48079594085E+01  0.25623678368E+03  0.17300000000E+03 0.  1.
         -6    1    1    2    0  503 -0.11787256468E+03 -0.14768625979E+03 -0.53570359992E+03  0.59381185556E+03  0.17300000000E+03 0. -1.
</event>
<event>
 4    1  0.6069433E+000  0.1000000E+03  0.7546771E-02  0.1280296E+00
         21   -1    0    0  501  502  0.00000000000E+00  0.00000000000E+00  0.11971177002E+04  0.11971177002E+04  0.00000000000E+00 0.  1.
         21   -1    0    0  502  503 -0.00000000000E+00 -0.00000000000E+00 -0.17432075310E+03  0.17432075310E+03  0.00000000000E+00 0. -1.
          6    1    1    2  501    0 -0.22890907030E+03 -0.59915989351E+01  0.10449007949E+04  0.10835967575E+04  0.17300000000E+03 0.  1.
         -6    1    1    2    0  503  0.22890907030E+03  0.59915989351E+01 -0.22103847832E+02  0.28784169575E+03  0.17300000000E+03 0. -1.
</event>
<event>
 4    1  0.6069433E+000  0.1000000E+03  0.7546771E-02  0.1280296E+00
         21   -1    0    0  503  502  0.00000000000E+00  0.00000000000E+00  0.11163453633E+03  0.11163453633E+03  0.00000000000E+00 0. -1.
         21   -1    0    0  501  503 -0.00000000000E+00 -0.00000000000E+00 -0.29252925199E+03  0.29252925199E+03  0.00000000000E+00 0. -1.
          6    1    1    2  501    0 -0.21973448873E+02  0.47212391077E+02 -0.94853519661E+02  0.20405399413E+03  0.17300000000E+03 0. -1.
         -6    1    1    2    0  502  0.21973448873E+02 -0.47212391077E+02 -0.86041195998E+02  0.20010979420E+03  0.17300000000E+03 0. -1.
</event>
<event>
 4    1  0.6069433E+000  0.1000000E+03  0.7546771E-02  0.1280296E+00
         21   -1    0    0  503  502  0.00000000000E+00  0.00000000000E+00  0.14832942882E+03  0.14832942882E+03  0.00000000000E+00 0. -1.
         21   -1    0    0  501  503 -0.00000000000E+00 -0.00000000000E+00 -0.33382804105E+03  0.33382804105E+03  0.00000000000E+00 0. -1.
          6    1    1    2  501    0  0.30396497603E+01 -0.50736595935E+02 -0.23402271264E+03  0.29543031609E+03  0.17300000000E+03 0. -1.
         -6    1    1    2    0  502 -0.30396497603E+01  0.50736595935E+02  0.48524100410E+02  0.18672715378E+03  0.17300000000E+03 0. -1.
</event>
<event>
 4    1  0.6069433E+000  0.1000000E+03  0.7546771E-02  0.1280296E+00
         21   -1    0    0  503  502  0.00000000000E+00  0.00000000000E+00  0.10921993352E+04  0.10921993352E+04  0.00000000000E+00 0. -1.
         21   -1    0    0  501  503 -0.00000000000E+00 -0.00000000000E+00 -0.14465606212E+03  0.14465606212E+03  0.00000000000E+00 0. -1.
          6    1    1    2  501    0 -0.10379087996E+02  0.20957563112E+02 -0.81818121279E+02  0.19279561688E+03  0.17300000000E+03 0. -1.
         -6    1    1    2    0  502  0.10379087996E+02 -0.20957563112E+02  0.10293613943E+04  0.10440597804E+04  0.17300000000E+03 0. -1.
</event>
<event>
 4    1  0.6069433E+000  0.1000000E+03  0.7546771E-02  0.1280296E+00
         21   -1    0    0  501  502  0.00000000000E+00  0.00000000000E+00  0.11124363731E+03  0.11124363731E+03  0.00000000000E+00 0.  1.
         21   -1    0    0  502  503 -0.00000000000E+00 -0.00000000000E+00 -0.51219018683E+03  0.51219018683E+03  0.00000000000E+00 0.  1.
          6    1    1    2  501    0 -0.38269671867E+02 -0.11939891318E+03 -0.61481788475E+02  0.22232786278E+03  0.17300000000E+03 0.  1.
         -6    1    1    2    0  503  0.38269671867E+02  0.11939891318E+03 -0.33946476104E+03  0.40110596136E+03  0.17300000000E+03 0.  1.
</event>
<event>
 4    1  0.6069433E+000  0.1000000E+03  0.7546771E-02  0.1280296E+00
         21   -1    0    0  503  502  0.00000000000E+00  0.00000000000E+00  0.61619596365E+02  0.61619596365E+02  0.00000000000E+00 0.  1.
         21   -1    0    0  501  503 -0.00000000000E+00 -0.00000000000E+00 -0.69460302223E+03  0.69460302223E+03  0.00000000000E+00 0.  1.
          6    1    1    2  501    0  0.88557256333E+01 -0.40393023165E+02 -0.50958429750E+03  0.53973621007E+03  0.17300000000E+03 0.  1.
         -6    1    1    2    0  502 -0.88557256333E+01  0.40393023165E+02 -0.12339912837E+03  0.21648640853E+03  0.17300000000E+03 0.  1.
</event>
<event>
 4    1  0.6069433E+000  0.1000000E+03  0.7546771E-02  0.1280296E+00
         21   -1    0    0  501  502  0.00000000000E+00  0.00000000000E+00  0.99044630565E+03  0.99044630565E+03  0.00000000000E+00 0.  1.
         21   -1    0    0  502  503 -0.00000000000E+00 -0.00000000000E+00 -0.12708570552E+03  0.12708570552E+03  0.00000000000E+00 0.  1.
          6    1    1    2  501    0 -0.16819063075E+03 -0.20217196527E+03  0.17394176605E+03  0.35964750769E+03  0.17300000000E+03 0.  1.
         -6    1    1    2    0  503  0.16819063075E+03  0.20217196527E+03  0.68941883408E+03  0.75788450347E+03  0.17300000000E+03 0.  1.
</event>
<event>
 4    1  0.6069433E+000  0.1000000E+03  0.7546771E-02  0.1280296E+00
         21   -1    0    0  501  502  0.00000000000E+00  0.00000000000E+00  0.13464648312E+03  0.13464648312E+03  0.00000000000E+00 0.  1.
         21   -1    0    0  502  503 -0.00000000000E+00 -0.00000000000E+00 -0.70296098409E+03  0.70296098409E+03  0.00000000000E+00 0. -1.
          6    1    1    2  501    0 -0.38916241922E+02  0.10195089518E+03  0.28681824216E+02  0.20654323023E+03  0.17300000000E+03 0.  1.
         -6    1    1    2    0  503  0.38916241922E+02 -0.10195089518E+03 -0.59699632519E+03  0.63106423699E+03  0.17300000000E+03 0. -1.
</event>
<event>
 4    1  0.6069433E+000  0.1000000E+03  0.7546771E-02  0.1280296E+00
         21   -1    0    0  503  502  0.00000000000E+00  0.00000000000E+00  0.16480828295E+03  0.16480828295E+03  0.00000000000E+00 0.  1.
         21   -1    0    0  501  503 -0.00000000000E+00 -0.00000000000E+00 -0.33167058983E+03  0.33167058983E+03  0.00000000000E+00 0.  1.
          6    1    1    2  501    0 -0.11344978540E+03  0.88116202318E+02 -0.15139845947E+03  0.27108266719E+03  0.17300000000E+03 0.  1.
         -6    1    1    2    0  502  0.11344978540E+03 -0.88116202318E+02 -0.15463847408E+02  0.22539620559E+03  0.17300000000E+03 0.  1.
</event>
<event>
 4    1  0.6069433E+000  0.1000000E+03  0.7546771E-02  0.1280296E+00
         21   -1    0    0  503  502  0.00000000000E+00  0.00000000000E+00  0.64522586267E+02  0.64522586267E+02  0.00000000000E+00 0.  1.
         21   -1    0    0  501  503 -0.00000000000E+00 -0.00000000000E+00 -0.20571723727E+04  0.20571723727E+04  0.00000000000E+00 0.  1.
          6    1    1    2  501    0  0.14413053409E+03 -0.51278004640E+02 -0.18168229306E+04  0.18314414011E+04  0.17300000000E+03 0.  1.
         -6    1    1    2    0  502 -0.14413053409E+03  0.51278004640E+02 -0.17582685589E+03  0.29025355789E+03  0.17300000000E+03 0.  1.
</event>
<event>
 4    1  0.6069433E+000  0.1000000E+03  0.7546771E-02  0.1280296E+00
         21   -1    0    0  501  502  0.00000000000E+00  0.00000000000E+00  0.50664869654E+03  0.50664869654E+03  0.00000000000E+00 0.  1.
         21   -1    0    0  502  503 -0.00000000000E+00 -0.00000000000E+00 -0.11690703315E+03  0.11690703315E+03  0.00000000000E+00 0.  1.
          6    1    1    2  501    0  0.13902830132E+03  0.71454601187E+02  0.28424451041E+03  0.36763918493E+03  0.17300000000E+03 0.  1.
         -6    1    1    2    0  503 -0.13902830132E+03 -0.71454601187E+02  0.10549715298E+03  0.25591654477E+03  0.17300000000E+03 0.  1.
</event>
<event>
 4    1  0.6069433E+000  0.1000000E+03  0.7546771E-02  0.1280296E+00
         21   -1    0    0  501  502  0.00000000000E+00  0.00000000000E+00  0.28311047264E+02  0.28311047264E+02  0.00000000000E+00 0.  1.
         21   -1    0    0  502  503 -0.00000000000E+00 -0.00000000000E+00 -0.15837571524E+04  0.15837571524E+04  0.00000000000E+00 0.  1.
          6    1    1    2  501    0  0.22373770536E+02 -0.81526726921E+01 -0.32186192643E+03  0.36618458646E+03  0.17300000000E+03 0.  1.
         -6    1    1    2    0  503 -0.22373770536E+02  0.81526726921E+01 -0.12335841787E+04  0.12458836132E+04  0.17300000000E+03 0.  1.
</event>
<event>
 4    1  0.6069433E+000  0.1000000E+03  0.7546771E-02  0.1280296E+00
         21   -1    0    0  501  502  0.00000000000E+00  0.00000000000E+00  0.52308975327E+03  0.52308975327E+03  0.00000000000E+00 0.  1.
         21   -1    0    0  502  503 -0.00000000000E+00 -0.00000000000E+00 -0.27308098258E+03  0.27308098258E+03  0.00000000000E+00 0.  1.
          6    1    1    2  501    0  0.19985644563E+02 -0.11774321822E+03  0.45583041179E+03  0.50196937730E+03  0.17300000000E+03 0.  1.
         -6    1    1    2    0  503 -0.19985644563E+02  0.11774321822E+03 -0.20582164110E+03  0.29420135855E+03  0.17300000000E+03 0.  1.
</event>
<event>
 4    1  0.6069433E+000  0.1000000E+03  0.7546771E-02  0.1280296E+00
         21   -1    0    0  503  502  0.00000000000E+00  0.00000000000E+00  0.52787870191E+02  0.52787870191E+02  0.00000000000E+00 0.  1.
         21   -1    0    0  501  503 -0.00000000000E+00 -0.00000000000E+00 -0.83231363061E+03  0.83231363061E+03  0.00000000000E+00 0.  1.
          6    1    1    2  501    0  0.99839532952E+02 -0.40382588162E+02 -0.28614973792E+03  0.35129668128E+03  0.17300000000E+03 0.  1.
         -6    1    1    2    0  502 -0.99839532952E+02  0.40382588162E+02 -0.49337602250E+03  0.53380481952E+03  0.17300000000E+03 0.  1.
</event>
<event>
 4    1  0.6069433E+000  0.1000000E+03  0.7546771E-02  0.1280296E+00
         21   -1    0    0  501  502  0.00000000000E+00  0.00000000000E+00  0.25345907002E+03  0.25345907002E+03  0.00000000000E+00 0.  1.
         21   -1    0    0  502  503 -0.00000000000E+00 -0.00000000000E+00 -0.10822845501E+04  0.10822845501E+04  0.00000000000E+00 0.  1.
          6    1    1    2  501    0  0.10942357303E+03 -0.48154980862E+03 -0.44354974543E+03  0.68595124695E+03  0.17300000000E+03 0.  1.
         -6    1    1    2    0  503 -0.10942357303E+03  0.48154980862E+03 -0.38527573465E+03  0.64979237317E+03  0.17300000000E+03 0.  1.
</event>
<event>
 4    1  0.6069433E+000  0.1000000E+03  0.7546771E-02  0.1280296E+00
         21   -1    0    0  501  502  0.00000000000E+00  0.00000000000E+00  0.27891954606E+02  0.27891954606E+02  0.00000000000E+00 0.  1.
         21   -1    0    0  502  503 -0.00000000000E+00 -0.00000000000E+00 -0.11777929307E+04  0.11777929307E+04  0.00000000000E+00 0.  1.
          6    1    1    2  501    0  0.35000566477E+01 -0.45034587273E+02 -0.47619497324E+03  0.50865608911E+03  0.17300000000E+03 0.  1.
         -6    1    1    2    0  503 -0.35000566477E+01  0.45034587273E+02 -0.67370600282E+03  0.69702879617E+03  0.17300000000E+03 0.  1.
</event>
<event>
 4    1  0.6069433E+000  0.1000000E+03  0.7546771E-02  0.1280296E+00
         21   -1    0    0  501  502  0.00000000000E+00  0.00000000000E+00  0.54851835404E+02  0.54851835404E+02  0.00000000000E+00 0.  1.
         21   -1    0    0  502  503 -0.00000000000E+00 -0.00000000000E+00 -0.12146245469E+04  0.12146245469E+04  0.00000000000E+00 0.  1.
          6    1    1    2  501    0  0.11764588249E+03 -0.14165351584E+03 -0.70975703599E+03  0.75338590533E+03  0.17300000000E+03 0. -1.
         -6    1    1    2    0  503 -0.11764588249E+03  0.14165351584E+03 -0.45001567547E+03  0.51609047694E+03  0.17300000000E+03 0. -1.
</event>
<event>
 4    1  0.6069433E+000  0.1000000E+03  0.7546771E-02  0.1280296E+00
         21   -1    0    0  501  502  0.00000000000E+00  0.00000000000E+00  0.10034781754E+03  0.10034781754E+03  0.00000000000E+00 0.  1.
         21   -1    0    0  502  503 -0.00000000000E+00 -0.00000000000E+00 -0.61231857482E+03  0.61231857482E+03  0.00000000000E+00 0.  1.
          6    1    1    2  501    0 -0.29581129875E+02  0.11244768054E+03 -0.63141740805E+02  0.21779670231E+03  0.17300000000E+03 0. -1.
         -6    1    1    2    0  503  0.29581129875E+02 -0.11244768054E+03 -0.44882901647E+03  0.49486969005E+03  0.17300000000E+03 0. -1.
</event>
<event>
 4    1  0.6069433E+000  0.1000000E+03  0.7546771E-02  0.1280296E+00
         21   -1    0    0  501  502  0.00000000000E+00  0.00000000000E+00  0.69698348772E+03  0.69698348772E+03  0.00000000000E+00 0.  1.
         21   -1    0    0  502  503 -0.00000000000E+00 -0.00000000000E+00 -0.96769308401E+02  0.96769308401E+02  0.00000000000E+00 0.  1.
          6    1    1    2  501    0  0.45410684552E+02 -0.69604155016E+02  0.56747675565E+03  0.59905403502E+03  0.17300000000E+03 0. -1.
         -6    1    1    2    0  503 -0.45410684552E+02  0.69604155016E+02  0.32737423670E+02  0.19469876110E+03  0.17300000000E+03 0. -1.
</event>
<event>
 4    1  0.6069433E+000  0.1000000E+03  0.7546771E-02  0.1280296E+00
         21   -1    0    0  501  502  0.00000000000E+00  0.00000000000E+00  0.93443636579E+02  0.93443636579E+02  0.00000000000E+00 0.  1.
         21   -1    0    0  502  503 -0.00000000000E+00 -0.00000000000E+00 -0.52762948077E+03  0.52762948077E+03  0.00000000000E+00 0. -1.
          6    1    1    2  501    0  0.11362585508E+02  0.13673785723E+03 -0.18434606726E+03  0.28764356844E+03  0.17300000000E+03 0.  1.
         -6    1    1    2    0  503 -0.11362585508E+02 -0.13673785723E+03 -0.24983977693E+03  0.33342954891E+03  0.17300000000E+03 0. -1.
</event>
<event>
 4    1  0.6069433E+000  0.1000000E+03  0.7546771E-02  0.1280296E+00
         21   -1    0    0  501  502  0.00000000000E+00  0.00000000000E+00  0.87666453249E+02  0.87666453249E+02  0.00000000000E+00 0.  1.
         21   -1    0    0  502  503 -0.00000000000E+00 -0.00000000000E+00 -0.67139160327E+03  0.67139160327E+03  0.00000000000E+00 0. -1.
          6    1    1    2  501    0 -0.13345775229E+03  0.66565827425E+02 -0.16393224802E+03  0.28114900492E+03  0.17300000000E+03 0.  1.
         -6    1    1    2    0  503  0.13345775229E+03 -0.66565827425E+02 -0.41979290200E+03  0.47790905160E+03  0.17300000000E+03 0. -1.
</event>
<event>
 4    1  0.6069433E+000  0.1000000E+03  0.7546771E-02  0.1280296E+00
         21   -1    0    0  501  502  0.00000000000E+00  0.00000000000E+00  0.10947759215E+03  0.10947759215E+03  0.00000000000E+00 0.  1.
         21   -1    0    0  502  503 -0.00000000000E+00 -0.00000000000E+00 -0.46378396061E+03  0.46378396061E+03  0.00000000000E+00 0. -1.
          6    1    1    2  501    0 -0.40371508457E+02 -0.11498612214E+02 -0.14319535745E+01  0.17802563655E+03  0.17300000000E+03 0.  1.
         -6    1    1    2    0  503  0.40371508457E+02  0.11498612214E+02 -0.35287441489E+03  0.39523591621E+03  0.17300000000E+03 0. -1.
</event>
<event>
 4    1  0.6069433E+000  0.1000000E+03  0.7546771E-02  0.1280296E+00
         21   -1    0    0  503  502  0.00000000000E+00  0.00000000000E+00  0.41048986735E+03  0.41048986735E+03  0.00000000000E+00 0. -1.
         21   -1    0    0  501  503 -0.00000000000E+00 -0.00000000000E+00 -0.24606936091E+03  0.24606936091E+03  0.00000000000E+00 0. -1.
          6    1    1    2  501    0 -0.23186436353E+03  0.12152999292E+03  0.30057257875E+02  0.31521906828E+03  0.17300000000E+03 0. -1.
         -6    1    1    2    0  502  0.23186436353E+03 -0.12152999292E+03  0.13436324857E+03  0.34134015999E+03  0.17300000000E+03 0. -1.
</event>
<event>
 4    1  0.6069433E+000  0.1000000E+03  0.7546771E-02  0.1280296E+00
         21   -1    0    0  503  502  0.00000000000E+00  0.00000000000E+00  0.10669885679E+04  0.10669885679E+04  0.00000000000E+00 0. -1.
         21   -1    0    0  501  503 -0.00000000000E+00 -0.00000000000E+00 -0.93462214213E+02  0.93462214213E+02  0.00000000000E+00 0. -1.
          6    1    1    2  501    0 -0.80773161275E+02 -0.25105489709E+03  0.45822463864E+03  0.55628381640E+03  0.17300000000E+03 0. -1.
         -6    1    1    2    0  502  0.80773161275E+02  0.25105489709E+03  0.51530171509E+03  0.60416696576E+03  0.17300000000E+03 0. -1.
</event>
<event>
 4    1  0.6069433E+000  0.1000000E+03  0.7546771E-02  0.1280296E+00
         21   -1    0    0  503  502  0.00000000000E+00  0.00000000000E+00  0.12836218998E+03  0.12836218998E+03  0.00000000000E+00 0. -1.
         21   -1    0    0  501  503 -0.00000000000E+00 -0.00000000000E+00 -0.28770127879E+03  0.28770127879E+03  0.00000000000E+00 0. -1.
          6    1    1    2  501    0  0.63427222273E+02  0.44215288185E+02 -0.11429295765E+03  0.22129140156E+03  0.17300000000E+03 0. -1.
         -6    1    1    2    0  502 -0.63427222273E+02 -0.44215288185E+02 -0.45046131152E+02  0.19477206721E+03  0.17300000000E+03 0. -1.
</event>
<event>
 4    1  0.6069433E+000  0.1000000E+03  0.7546771E-02  0.1280296E+00
         21   -1    0    0  503  502  0.00000000000E+00  0.00000000000E+00  0.72579284055E+02  0.72579284055E+02  0.00000000000E+00 0.  1.
         21   -1    0    0  501  503 -0.00000000000E+00 -0.00000000000E+00 -0.57888796214E+03  0.57888796214E+03  0.00000000000E+00 0.  1.
          6    1    1    2  501    0 -0.74985625547E+02 -0.32926671906E+02 -0.36970652503E+03  0.41631589497E+03  0.17300000000E+03 0.  1.
         -6    1    1    2    0  502  0.74985625547E+02  0.32926671906E+02 -0.13660215306E+03  0.23515135122E+03  0.17300000000E+03 0.  1.
</event>
<event>
 4    1  0.6069433E+000  0.1000000E+03  0.7546771E-02  0.1280296E+00
         21   -1    0    0  503  502  0.00000000000E+00  0.00000000000E+00  0.15093304249E+03  0.15093304249E+03  0.00000000000E+00 0.  1.
         21   -1    0    0  501  503 -0.00000000000E+00 -0.00000000000E+00 -0.58954768175E+03  0.58954768175E+03  0.00000000000E+00 0.  1.
          6    1    1    2  501    0  0.70286162401E+02  0.22991462324E+03 -0.26323056459E+03  0.39625775543E+03  0.17300000000E+03 0.  1.
         -6    1    1    2    0  502 -0.70286162401E+02 -0.22991462324E+03 -0.17538407467E+03  0.34422296881E+03  0.17300000000E+03 0.  1.
</event>
<event>
 4    1  0.6069433E+000  0.1000000E+03  0.7546771E-02  0.1280296E+00
         21   -1    0    0  503  502  0.00000000000E+00  0.00000000000E+00  0.74220439100E+03  0.74220439100E+03  0.00000000000E+00 0.  1.
         21   -1    0    0  501  503 -0.00000000000E+00 -0.00000000000E+00 -0.50783182054E+02  0.50783182054E+02  0.00000000000E+00 0.  1.
          6    1    1    2  501    0 -0.26626652967E+02 -0.31647684988E+02  0.50458803105E+03  0.53502208898E+03  0.17300000000E+03 0.  1.
         -6    1    1    2    0  502  0.26626652967E+02  0.31647684988E+02  0.18683317790E+03  0.25796548408E+03  0.17300000000E+03 0.  1.
</event>
<event>
 4    1  0.6069433E+000  0.1000000E+03  0.7546771E-02  0.1280296E+00
         21   -1    0    0  501  502  0.00000000000E+00  0.00000000000E+00  0.39553659889E+03  0.39553659889E+03  0.00000000000E+00 0. -1.
         21   -1    0    0  502  503 -0.00000000000E+00 -0.00000000000E+00 -0.20320556156E+03  0.20320556156E+03  0.00000000000E+00 0.  1.
          6    1    1    2  501    0  0.13651235121E+03 -0.38632042867E+02 -0.87699993127E+02  0.24030885453E+03  0.17300000000E+03 0. -1.
         -6    1    1    2    0  503 -0.13651235121E+03  0.38632042867E+02  0.28003103046E+03  0.35843330592E+03  0.17300000000E+03 0. -1.
</event>
<event>
 4    1  0.6069433E+000  0.1000000E+03  0.7546771E-02  0.1280296E+00
         21   -1    0    0  501  502  0.00000000000E+00  0.00000000000E+00  0.59958976475E+03  0.59958976475E+03  0.00000000000E+00 0.  1.
         21   -1    0    0  502  503 -0.00000000000E+00 -0.00000000000E+00 -0.10642800010E+03  0.10642800010E+03  0.00000000000E+00 0. -1.
          6    1    1    2  501    0  0.63839735443E+02  0.17078207874E+03  0.28199162692E+03  0.37774370662E+03  0.17300000000E+03 0. -1.
         -6    1    1    2    0  503 -0.63839735443E+02 -0.17078207874E+03  0.21117013772E+03  0.32827405823E+03  0.17300000000E+03 0.  1.
</event>
<event>
 4    1  0.6069433E+000  0.1000000E+03  0.7546771E-02  0.1280296E+00
         21   -1    0    0  501  502  0.00000000000E+00  0.00000000000E+00  0.19312212018E+03  0.19312212018E+03  0.00000000000E+00 0.  1.
         21   -1    0    0  502  503 -0.00000000000E+00 -0.00000000000E+00 -0.30778555758E+03  0.30778555758E+03  0.00000000000E+00 0.  1.
          6    1    1    2  501    0  0.67706376977E+01 -0.19886701982E+02  0.11781788575E+03  0.21036011184E+03  0.17300000000E+03 0.  1.
         -6    1    1    2    0  503 -0.67706376977E+01  0.19886701982E+02 -0.23248132314E+03  0.29054756592E+03  0.17300000000E+03 0.  1.
</event>
<event>
 4    1  0.6069433E+000  0.1000000E+03  0.7546771E-02  0.1280296E+00
         21   -1    0    0  501  502  0.00000000000E+00  0.00000000000E+00  0.66979244952E+03  0.66979244952E+03  0.00000000000E+00 0.  1.
         21   -1    0    0  502  503 -0.00000000000E+00 -0.00000000000E+00 -0.27889509744E+03  0.27889509744E+03  0.00000000000E+00 0.  1.
          6    1    1    2  501    0 -0.24001469215E+02  0.13419003663E+03  0.60357791111E+03  0.64250940167E+03  0.17300000000E+03 0.  1.
         -6    1    1    2    0  503  0.24001469215E+02 -0.13419003663E+03 -0.21268055904E+03  0.30617814528E+03  0.17300000000E+03 0.  1.
</event>
<event>
 4    1  0.6069433E+000  0.1000000E+03  0.7546771E-02  0.1280296E+00
         21   -1    0    0  503  502  0.00000000000E+00  0.00000000000E+00  0.65571928773E+02  0.65571928773E+02  0.00000000000E+00 0. -1.
         21   -1    0    0  501  503 -0.00000000000E+00 -0.00000000000E+00 -0.58392083406E+03  0.58392083406E+03  0.00000000000E+00 0. -1.
          6    1    1    2  501    0  0.49274062086E+02 -0.71059568372E+02 -0.30847434825E+03  0.36409177274E+03  0.17300000000E+03 0. -1.
         -6    1    1    2    0  502 -0.49274062086E+02  0.71059568372E+02 -0.20987455703E+03  0.28540099009E+03  0.17300000000E+03 0. -1.
</event>
<event>
 4    1  0.6069433E+000  0.1000000E+03  0.7546771E-02  0.1280296E+00
         21   -1    0    0  501  502  0.00000000000E+00  0.00000000000E+00  0.18694317851E+02  0.18694317851E+02  0.00000000000E+00 0. -1.
         21   -1    0    0  502  503 -0.00000000000E+00 -0.00000000000E+00 -0.25563070552E+04  0.25563070552E+04  0.00000000000E+00 0. -1.
          6    1    1    2  501    0  0.12410401754E+02  0.44828655512E+02 -0.20066727798E+04  0.20146533875E+04  0.17300000000E+03 0. -1.
         -6    1    1    2    0  503 -0.12410401754E+02 -0.44828655512E+02 -0.53093995748E+03  0.56034798552E+03  0.17300000000E+03 0. -1.
</event>
<event>
 4    1  0.6069433E+000  0.1000000E+03  0.7546771E-02  0.1280296E+00
         21   -1    0    0  501  502  0.00000000000E+00  0.00000000000E+00  0.25766553175E+02  0.25766553175E+02  0.00000000000E+00 0. -1.
         21   -1    0    0  502  503 -0.00000000000E+00 -0.00000000000E+00 -0.25036449618E+04  0.25036449618E+04  0.00000000000E+00 0. -1.
          6    1    1    2  501    0  0.27685633279E+01  0.87790727496E+02 -0.42277057927E+03  0.46516538938E+03  0.17300000000E+03 0. -1.
         -6    1    1    2    0  503 -0.27685633279E+01 -0.87790727496E+02 -0.20551078293E+04  0.20642461256E+04  0.17300000000E+03 0. -1.
</event>
<event>
 4    1  0.6069433E+000  0.1000000E+03  0.7546771E-02  0.1280296E+00
         21   -1    0    0  501  502  0.00000000000E+00  0.00000000000E+00  0.25737117003E+03  0.25737117003E+03  0.00000000000E+00 0. -1.
         21   -1    0    0  502  503 -0.00000000000E+00 -0.00000000000E+00 -0.13484170766E+03  0.13484170766E+03  0.00000000000E+00 0. -1.
          6    1    1    2  501    0  0.56045866530E+01 -0.65679617205E+02  0.83097408761E+02  0.20292708752E+03  0.17300000000E+03 0. -1.
         -6    1    1    2    0  503 -0.56045866530E+01  0.65679617205E+02  0.39432053616E+02  0.18928579017E+03  0.17300000000E+03 0. -1.
</event>
<event>
 4    1  0.6069433E+000  0.1000000E+03  0.7546771E-02  0.1280296E+00
         21   -1    0    0  501  502  0.00000000000E+00  0.00000000000E+00  0.60088627628E+02  0.60088627628E+02  0.00000000000E+00 0. -1.
         21   -1    0    0  502  503 -0.00000000000E+00 -0.00000000000E+00 -0.73327493827E+03  0.73327493827E+03  0.00000000000E+00 0. -1.
          6    1    1    2  501    0  0.22948547498E+02 -0.20645864204E+02 -0.11964110380E+03  0.21259322957E+03  0.17300000000E+03 0. -1.
         -6    1    1    2    0  503 -0.22948547498E+02  0.20645864204E+02 -0.55354520684E+03  0.58077033633E+03  0.17300000000E+03 0. -1.
</event>
<event>
 4    1  0.6069433E+000  0.1000000E+03  0.7546771E-02  0.1280296E+00
         21   -1    0    0  501  502  0.00000000000E+00  0.00000000000E+00  0.29799371702E+03  0.29799371702E+03  0.00000000000E+00 0. -1.
         21   -1    0    0  502  503 -0.00000000000E+00 -0.00000000000E+00 -0.19984204261E+03  0.19984204261E+03  0.00000000000E+00 0. -1.
          6    1    1    2  501    0  0.63034033480E+02  0.12890629123E+03  0.14601836500E+03  0.26803075236E+03  0.17300000000E+03 0. -1.
         -6    1    1    2    0  503 -0.63034033480E+02 -0.12890629123E+03 -0.47866690585E+02  0.22980500726E+03  0.17300000000E+03 0. -1.
</event>
<event>
 4    1  0.6069433E+000  0.1000000E+03  0.7546771E-02  0.1280296E+00
         21   -1    0    0  501  502  0.00000000000E+00  0.00000000000E+00  0.78207279150E+03  0.78207279150E+03  0.00000000000E+00 0. -1.
         21   -1    0    0  502  503 -0.00000000000E+00 -0.00000000000E+00 -0.55997603368E+02  0.55997603368E+02  0.00000000000E+00 0.  1.
          6    1    1    2  501    0 -0.76047315352E+02  0.36645008185E+02  0.52741601148E+03  0.56144696985E+03  0.17300000000E+03 0. -1.
         -6    1    1    2    0  503  0.76047315352E+02 -0.36645008185E+02  0.19865917666E+03  0.27662342502E+03  0.17300000000E+03 0.  1.
</event>
<event>
 4    1  0.6069433E+000  0.1000000E+03  0.7546771E-02  0.1280296E+00
         21   -1    0    0  501  502  0.00000000000E+00  0.00000000000E+00  0.12152576317E+04  0.12152576317E+04  0.00000000000E+00 0.  1.
         21   -1    0    0  502  503 -0.00000000000E+00 -0.00000000000E+00 -0.90126144879E+02  0.90126144879E+02  0.00000000000E+00 0. -1.
          6    1    1    2  501    0 -0.12572724054E+03 -0.18666655190E+02  0.10593136590E+04  0.10808469879E+04  0.17300000000E+03 0.  1.
         -6    1    1    2    0  503  0.12572724054E+03  0.18666655190E+02  0.65817827827E+02  0.22453678872E+03  0.17300000000E+03 0. -1.
</event>
<event>
 4    1  0.6069433E+000  0.1000000E+03  0.7546771E-02  0.1280296E+00
         21   -1    0    0  501  502  0.00000000000E+00  0.00000000000E+00  0.61609280739E+03  0.61609280739E+03  0.00000000000E+00 0.  1.
         21   -1    0    0  502  503 -0.00000000000E+00 -0.00000000000E+00 -0.77000028352E+02  0.77000028352E+02  0.00000000000E+00 0. -1.
          6    1    1    2  501    0 -0.74380264390E+02  0.44629973472E+02  0.42854254579E+03  0.47021481455E+03  0.17300000000E+03 0.  1.
         -6    1    1    2    0  503  0.74380264390E+02 -0.44629973472E+02  0.11055023325E+03  0.22287802120E+03  0.17300000000E+03 0. -1.
</event>
<event>
 4    1  0.6069433E+000  0.1000000E+03  0.7546771E-02  0.1280296E+00
         21   -1    0    0  501  502  0.00000000000E+00  0.00000000000E+00  0.49292907652E+03  0.49292907652E+03  0.00000000000E+00 0. -1.
         21   -1    0    0  502  503 -0.00000000000E+00 -0.00000000000E+00 -0.10181211891E+03  0.10181211891E+03  0.00000000000E+00 0. -1.
          6    1    1    2  501    0 -0.13946430952E+03  0.24215636367E+02  0.21526790594E+03  0.31033201898E+03  0.17300000000E+03 0. -1.
         -6    1    1    2    0  503  0.13946430952E+03 -0.24215636367E+02  0.17584905167E+03  0.28440917645E+03  0.17300000000E+03 0. -1.
</event>
<event>
 4    1  0.6069433E+000  0.1000000E+03  0.7546771E-02  0.1280296E+00
         21   -1    0    0  501  502  0.00000000000E+00  0.00000000000E+00  0.23378061247E+03  0.23378061247E+03  0.00000000000E+00 0. -1.
         21   -1    0    0  502  503 -0.00000000000E+00 -0.00000000000E+00 -0.66400689709E+03  0.66400689709E+03  0.00000000000E+00 0. -1.
          6    1    1    2  501    0 -0.70847771166E+02  0.82365771393E+02  0.16872650192E+03  0.26495501397E+03  0.17300000000E+03 0. -1.
         -6    1    1    2    0  503  0.70847771166E+02 -0.82365771393E+02 -0.59895278654E+03  0.63283249560E+03  0.17300000000E+03 0. -1.
</event>
<event>
 4    1  0.6069433E+000  0.1000000E+03  0.7546771E-02  0.1280296E+00
         21   -1    0    0  503  502  0.00000000000E+00  0.00000000000E+00  0.46071756159E+03  0.46071756159E+03  0.00000000000E+00 0. -1.
         21   -1    0    0  501  503 -0.00000000000E+00 -0.00000000000E+00 -0.22306323829E+03  0.22306323829E+03  0.00000000000E+00 0. -1.
          6    1    1    2  501    0  0.42476807153E+02  0.15478187811E+03 -0.11257454823E+03  0.26146460152E+03  0.17300000000E+03 0. -1.
         -6    1    1    2    0  502 -0.42476807153E+02 -0.15478187811E+03  0.35022887153E+03  0.42231619835E+03  0.17300000000E+03 0. -1.
</event>
<event>
 4    1  0.6069433E+000  0.1000000E+03  0.7546771E-02  0.1280296E+00
         21   -1    0    0  503  502  0.00000000000E+00  0.00000000000E+00  0.13980605742E+03  0.13980605742E+03  0.00000000000E+00 0. -1.
         21   -1    0    0  501  503 -0.00000000000E+00 -0.00000000000E+00 -0.47628876446E+03  0.47628876446E+03  0.00000000000E+00 0. -1.
          6    1    1    2  501    0  0.27840532049E+02  0.22899612779E+02 -0.39271888018E+03  0.43064673033E+03  0.17300000000E+03 0. -1.
         -6    1    1    2    0  502 -0.27840532049E+02 -0.22899612779E+02  0.56236173144E+02  0.18544809155E+03  0.17300000000E+03 0. -1.
</event>
<event>
 4    1  0.6069433E+000  0.1000000E+03  0.7546771E-02  0.1280296E+00
         21   -1    0    0  501  502  0.00000000000E+00  0.00000000000E+00  0.25371831275E+03  0.25371831275E+03  0.00000000000E+00 0.  1.
         21   -1    0    0  502  503 -0.00000000000E+00 -0.00000000000E+00 -0.17759266332E+03  0.17759266332E+03  0.00000000000E+00 0. -1.
          6    1    1    2  501    0 -0.80188250965E+02  0.47136307423E+02  0.11982955034E+03  0.23008717523E+03  0.17300000000E+03 0.  1.
         -6    1    1    2    0  503  0.80188250965E+02 -0.47136307423E+02 -0.43703900908E+02  0.20122380084E+03  0.17300000000E+03 0. -1.
</event>
<event>
 4    1  0.6069433E+000  0.1000000E+03  0.7546771E-02  0.1280296E+00
         21   -1    0    0  503  502  0.00000000000E+00  0.00000000000E+00  0.36247489542E+03  0.36247489542E+03  0.00000000000E+00 0. -1.
         21   -1    0    0  501  503 -0.00000000000E+00 -0.00000000000E+00 -0.12772909036E+03  0.12772909036E+03  0.00000000000E+00 0. -1.
          6    1    1    2  501    0  0.14286830213E+02  0.79792697180E+02  0.46155177139E+01  0.19110544483E+03  0.17300000000E+03 0. -1.
         -6    1    1    2    0  502 -0.14286830213E+02 -0.79792697180E+02  0.23013028735E+03  0.29909854095E+03  0.17300000000E+03 0. -1.
</event>
<event>
 4    1  0.6069433E+000  0.1000000E+03  0.7546771E-02  0.1280296E+00
         21   -1    0    0  503  502  0.00000000000E+00  0.00000000000E+00  0.23645677503E+04  0.23645677503E+04  0.00000000000E+00 0. -1.
         21   -1    0    0  501  503 -0.00000000000E+00 -0.00000000000E+00 -0.28651430976E+02  0.28651430976E+02  0.00000000000E+00 0. -1.
          6    1    1    2  501    0  0.43604511407E+01  0.52862642633E+02  0.30780992659E+03  0.35705661096E+03  0.17300000000E+03 0. -1.
         -6    1    1    2    0  502 -0.43604511407E+01 -0.52862642633E+02  0.20281063927E+04  0.20361625703E+04  0.17300000000E+03 0. -1.
</event>
<event>
 4    1  0.6069433E+000  0.1000000E+03  0.7546771E-02  0.1280296E+00
         21   -1    0    0  501  502  0.00000000000E+00  0.00000000000E+00  0.62549870633E+03  0.62549870633E+03  0.00000000000E+00 0.  1.
         21   -1    0    0  502  503 -0.00000000000E+00 -0.00000000000E+00 -0.80402962331E+02  0.80402962331E+02  0.00000000000E+00 0. -1.
          6    1    1    2  501    0  0.13285431958E+03 -0.76527443255E+01  0.35362993359E+03  0.41556222718E+03  0.17300000000E+03 0.  1.
         -6    1    1    2    0  503 -0.13285431958E+03  0.76527443255E+01  0.19146581041E+03  0.29033944148E+03  0.17300000000E+03 0. -1.
</event>
<event>
 4    1  0.6069433E+000  0.1000000E+03  0.7546771E-02  0.1280296E+00
         21   -1    0    0  501  502  0.00000000000E+00  0.00000000000E+00  0.24516135604E+03  0.24516135604E+03  0.00000000000E+00 0.  1.
         21   -1    0    0  502  503 -0.00000000000E+00 -0.00000000000E+00 -0.14248486105E+03  0.14248486105E+03  0.00000000000E+00 0. -1.
          6    1    1    2  501    0  0.14051009039E+02  0.22528962559E+01 -0.20511998689E+02  0.17479201494E+03  0.17300000000E+03 0.  1.
         -6    1    1    2    0  503 -0.14051009039E+02 -0.22528962559E+01  0.12318849369E+03  0.21285420215E+03  0.17300000000E+03 0. -1.
</event>
<event>
 4    1  0.6069433E+000  0.1000000E+03  0.7546771E-02  0.1280296E+00
         21   -1    0    0  501  502  0.00000000000E+00  0.00000000000E+00  0.21332848119E+03  0.21332848119E+03  0.00000000000E+00 0.  1.
         21   -1    0    0  502  503 -0.00000000000E+00 -0.00000000000E+00 -0.21934903243E+03  0.21934903243E+03  0.00000000000E+00 0.  1.
          6    1    1    2  501    0 -0.26227874892E+02  0.10335762985E+03 -0.77136915560E+02  0.21737020222E+03  0.17300000000E+03 0.  1.
         -6    1    1    2    0  503  0.26227874892E+02 -0.10335762985E+03  0.71116364319E+02  0.21530731140E+03  0.17300000000E+03 0.  1.
</event>
<event>
 4    1  0.6069433E+000  0.1000000E+03  0.7546771E-02  0.1280296E+00
         21   -1    0    0  501  502  0.00000000000E+00  0.00000000000E+00  0.68138037356E+02  0.68138037356E+02  0.00000000000E+00 0.  1.
         21   -1    0    0  502  503 -0.00000000000E+00 -0.00000000000E+00 -0.90663212934E+03  0.90663212934E+03  0.00000000000E+00 0.  1.
          6    1    1    2  501    0  0.16320444320E+03  0.16950771985E+02 -0.28164466091E+03  0.36901996419E+03  0.17300000000E+03 0.  1.
         -6    1    1    2    0  503 -0.16320444320E+03 -0.16950771985E+02 -0.55684943107E+03  0.60575020251E+03  0.17300000000E+03 0.  1.
</event>
<event>
 4    1  0.6069433E+000  0.1000000E+03  0.7546771E-02  0.1280296E+00
         21   -1    0    0  501  502  0.00000000000E+00  0.00000000000E+00  0.19870686184E+03  0.19870686184E+03  0.00000000000E+00 0. -1.
         21   -1    0    0  502  503 -0.00000000000E+00 -0.00000000000E+00 -0.18774920298E+03  0.18774920298E+03  0.00000000000E+00 0. -1.
          6    1    1    2  501    0  0.31578775656E+02 -0.28646863494E+02  0.80075524089E+02  0.19534316322E+03  0.17300000000E+03 0. -1.
         -6    1    1    2    0  503 -0.31578775656E+02  0.28646863494E+02 -0.69117865233E+02  0.19111290159E+03  0.17300000000E+03 0. -1.
</event>
<event>
 4    1  0.6069433E+000  0.1000000E+03  0.7546771E-02  0.1280296E+00
         21   -1    0    0  501  502  0.00000000000E+00  0.00000000000E+00  0.88807683598E+03  0.88807683598E+03  0.00000000000E+00 0. -1.
         21   -1    0    0  502  503 -0.00000000000E+00 -0.00000000000E+00 -0.82162581964E+02  0.82162581964E+02  0.00000000000E+00 0. -1.
          6    1    1    2  501    0  0.54930097283E+02  0.20005077757E+03  0.40338451016E+03  0.48547470813E+03  0.17300000000E+03 0. -1.
         -6    1    1    2    0  503 -0.54930097283E+02 -0.20005077757E+03  0.40252974385E+03  0.48476470981E+03  0.17300000000E+03 0. -1.
</event>
<event>
 4    1  0.6069433E+000  0.1000000E+03  0.7546771E-02  0.1280296E+00
         21   -1    0    0  503  502  0.00000000000E+00  0.00000000000E+00  0.77581030979E+02  0.77581030979E+02  0.00000000000E+00 0. -1.
         21   -1    0    0  501  503 -0.00000000000E+00 -0.00000000000E+00 -0.40610682737E+03  0.40610682737E+03  0.00000000000E+00 0. -1.
          6    1    1    2  501    0 -0.36900839043E+02 -0.14321160706E+02 -0.16866080362E+03  0.24483103203E+03  0.17300000000E+03 0. -1.
         -6    1    1    2    0  502  0.36900839043E+02  0.14321160706E+02 -0.15986499277E+03  0.23885682632E+03  0.17300000000E+03 0. -1.
</event>
<event>
 4    1  0.6069433E+000  0.1000000E+03  0.7546771E-02  0.1280296E+00
         21   -1    0    0  501  502  0.00000000000E+00  0.00000000000E+00  0.53313817699E+02  0.53313817699E+02  0.00000000000E+00 0. -1.
         21   -1    0    0  502  503 -0.00000000000E+00 -0.00000000000E+00 -0.14541247806E+04  0.14541247806E+04  0.00000000000E+00 0. -1.
          6    1    1    2  501    0 -0.23112125585E+02  0.41448024706E+02 -0.12397355394E+03  0.21806088869E+03  0.17300000000E+03 0. -1.
         -6    1    1    2    0  503  0.23112125585E+02 -0.41448024706E+02 -0.12768374089E+04  0.12893777096E+04  0.17300000000E+03 0. -1.
</event>
<event>
 4    1  0.6069433E+000  0.1000000E+03  0.7546771E-02  0.1280296E+00
         21   -1    0    0  501  502  0.00000000000E+00  0.00000000000E+00  0.10365484219E+04  0.10365484219E+04  0.00000000000E+00 0. -1.
         21   -1    0    0  502  503 -0.00000000000E+00 -0.00000000000E+00 -0.44354649894E+02  0.44354649894E+02  0.00000000000E+00 0. -1.
          6    1    1    2  501    0 -0.36328222177E+02 -0.79204822554E+02  0.26435038043E+03  0.32772437700E+03  0.17300000000E+03 0. -1.
         -6    1    1    2    0  503  0.36328222177E+02  0.79204822554E+02  0.72784339158E+03  0.75317869480E+03  0.17300000000E+03 0. -1.
</event>
<event>
 4    1  0.6069433E+000  0.1000000E+03  0.7546771E-02  0.1280296E+00
         21   -1    0    0  501  502  0.00000000000E+00  0.00000000000E+00  0.42296581101E+03  0.42296581101E+03  0.00000000000E+00 0. -1.
         21   -1    0    0  502  503 -0.00000000000E+00 -0.00000000000E+00 -0.96865834945E+02  0.96865834945E+02  0.00000000000E+00 0. -1.
          6    1    1    2  501    0  0.91870964596E+02  0.34854276624E+02  0.21086983918E+03  0.28991409729E+03  0.17300000000E+03 0. -1.
         -6    1    1    2    0  503 -0.91870964596E+02 -0.34854276624E+02  0.11523013689E+03  0.22991754866E+03  0.17300000000E+03 0. -1.
</event>
<event>
 4    1  0.6069433E+000  0.1000000E+03  0.7546771E-02  0.1280296E+00
         21   -1    0    0  503  502  0.00000000000E+00  0.00000000000E+00  0.27558925615E+02  0.27558925615E+02  0.00000000000E+00 0. -1.
         21   -1    0    0  501  503 -0.00000000000E+00 -0.00000000000E+00 -0.11735553585E+04  0.11735553585E+04  0.00000000000E+00 0.  1.
          6    1    1    2  501    0 -0.12161493517E+01 -0.48163401706E+02 -0.54101419024E+03  0.57004082864E+03  0.17300000000E+03 0.  1.
         -6    1    1    2    0  502  0.12161493517E+01  0.48163401706E+02 -0.60498224269E+03  0.63107345551E+03  0.17300000000E+03 0. -1.
</event>
<event>
 4    1  0.6069433E+000  0.1000000E+03  0.7546771E-02  0.1280296E+00
         21   -1    0    0  503  502  0.00000000000E+00  0.00000000000E+00  0.31218148248E+03  0.31218148248E+03  0.00000000000E+00 0. -1.
         21   -1    0    0  501  503 -0.00000000000E+00 -0.00000000000E+00 -0.11758390836E+03  0.11758390836E+03  0.00000000000E+00 0.  1.
          6    1    1    2  501    0  0.80379424202E+02  0.27809011098E+01  0.77553736726E+02  0.20594214558E+03  0.17300000000E+03 0.  1.
         -6    1    1    2    0  502 -0.80379424202E+02 -0.27809011098E+01  0.11704383740E+03  0.22382324526E+03  0.17300000000E+03 0. -1.
</event>
<event>
 4    1  0.6069433E+000  0.1000000E+03  0.7546771E-02  0.1280296E+00
         21   -1    0    0  503  502  0.00000000000E+00  0.00000000000E+00  0.16051163948E+04  0.16051163948E+04  0.00000000000E+00 0. -1.
         21   -1    0    0  501  503 -0.00000000000E+00 -0.00000000000E+00 -0.45401473367E+02  0.45401473367E+02  0.00000000000E+00 0.  1.
          6    1    1    2  501    0  0.17618299286E+03  0.88272806232E+02  0.58379819727E+03  0.63998583612E+03  0.17300000000E+03 0.  1.
         -6    1    1    2    0  502 -0.17618299286E+03 -0.88272806232E+02  0.97591672411E+03  0.10105320320E+04  0.17300000000E+03 0. -1.
</event>
<event>
 4    1  0.6069433E+000  0.1000000E+03  0.7546771E-02  0.1280296E+00
         21   -1    0    0  503  502  0.00000000000E+00  0.00000000000E+00  0.99293621755E+03  0.99293621755E+03  0.00000000000E+00 0.  1.
         21   -1    0    0  501  503 -0.00000000000E+00 -0.00000000000E+00 -0.13036175717E+03  0.13036175717E+03  0.00000000000E+00 0.  1.
          6    1    1    2  501    0 -0.11214699698E+03  0.12887668720E+02 -0.28557453573E+02  0.20853673320E+03  0.17300000000E+03 0.  1.
         -6    1    1    2    0  502  0.11214699698E+03 -0.12887668720E+02  0.89113191395E+03  0.91476124153E+03  0.17300000000E+03 0.  1.
</event>
<event>
 4    1  0.6069433E+000  0.1000000E+03  0.7546771E-02  0.1280296E+00
         21   -1    0    0  503  502  0.00000000000E+00  0.00000000000E+00  0.70795199969E+03  0.70795199969E+03  0.00000000000E+00 0. -1.
         21   -1    0    0  501  503 -0.00000000000E+00 -0.00000000000E+00 -0.10514112772E+04  0.10514112772E+04  0.00000000000E+00 0.  1.
          6    1    1    2  501    0  0.44330897882E+03  0.14904014356E+03 -0.88958956878E+03  0.10198207764E+04  0.17300000000E+03 0.  1.
         -6    1    1    2    0  502 -0.44330897882E+03 -0.14904014356E+03  0.54613029123E+03  0.73954250053E+03  0.17300000000E+03 0.  1.
</event>
<event>
 4    1  0.6069433E+000  0.1000000E+03  0.7546771E-02  0.1280296E+00
         21   -1    0    0  503  502  0.00000000000E+00  0.00000000000E+00  0.30046692653E+03  0.30046692653E+03  0.00000000000E+00 0. -1.
         21   -1    0    0  501  503 -0.00000000000E+00 -0.00000000000E+00 -0.12371904193E+03  0.12371904193E+03  0.00000000000E+00 0.  1.
          6    1    1    2  501    0 -0.34517423179E+02 -0.77687329613E+02  0.83745048443E+02  0.21016423774E+03  0.17300000000E+03 0.  1.
         -6    1    1    2    0  502  0.34517423179E+02  0.77687329613E+02  0.93002836161E+02  0.21402173072E+03  0.17300000000E+03 0.  1.
</event>
<event>
 4    1  0.6069433E+000  0.1000000E+03  0.7546771E-02  0.1280296E+00
         21   -1    0    0  503  502  0.00000000000E+00  0.00000000000E+00  0.19566682051E+03  0.19566682051E+03  0.00000000000E+00 0.  1.
         21   -1    0    0  501  503 -0.00000000000E+00 -0.00000000000E+00 -0.45717912776E+03  0.45717912776E+03  0.00000000000E+00 0.  1.
          6    1    1    2  501    0 -0.21579365758E+03 -0.10448989935E+01 -0.25499128571E+03  0.37618818462E+03  0.17300000000E+03 0. -1.
         -6    1    1    2    0  502  0.21579365758E+03  0.10448989935E+01 -0.65210215483E+01  0.27665776365E+03  0.17300000000E+03 0. -1.
</event>
<event>
 4    1  0.6069433E+000  0.1000000E+03  0.7546771E-02  0.1280296E+00
         21   -1    0    0  503  502  0.00000000000E+00  0.00000000000E+00  0.15201835691E+03  0.15201835691E+03  0.00000000000E+00 0.  1.
         21   -1    0    0  501  503 -0.00000000000E+00 -0.00000000000E+00 -0.30997019265E+03  0.30997019265E+03  0.00000000000E+00 0.  1.
          6    1    1    2  501    0 -0.53093021022E+02  0.11962717556E+03 -0.70554557969E+02  0.22811504918E+03  0.17300000000E+03 0. -1.
         -6    1    1    2    0  502  0.53093021022E+02 -0.11962717556E+03 -0.87397277774E+02  0.23387350037E+03  0.17300000000E+03 0. -1.
</event>
<event>
 4    1  0.6069433E+000  0.1000000E+03  0.7546771E-02  0.1280296E+00
         21   -1    0    0  503  502  0.00000000000E+00  0.00000000000E+00  0.59130909351E+03  0.59130909351E+03  0.00000000000E+00 0.  1.
         21   -1    0    0  501  503 -0.00000000000E+00 -0.00000000000E+00 -0.12710507588E+03  0.12710507588E+03  0.00000000000E+00 0.  1.
          6    1    1    2  501    0 -0.20721674554E+03 -0.46291392693E+02  0.21617743676E+03  0.34891740690E+03  0.17300000000E+03 0. -1.
         -6    1    1    2    0  502  0.20721674554E+03  0.46291392693E+02  0.24802658087E+03  0.36949676249E+03  0.17300000000E+03 0. -1.
</event>
<event>
 4    1  0.6069433E+000  0.1000000E+03  0.7546771E-02  0.1280296E+00
         21   -1    0    0  503  502  0.00000000000E+00  0.00000000000E+00  0.17452925257E+03  0.17452925257E+03  0.00000000000E+00 0.  1.
         21   -1    0    0  501  503 -0.00000000000E+00 -0.00000000000E+00 -0.23753394167E+03  0.23753394167E+03  0.00000000000E+00 0.  1.
          6    1    1    2  501    0  0.67601652167E+01  0.10676277137E+03 -0.40756215086E+02  0.20744651902E+03  0.17300000000E+03 0. -1.
         -6    1    1    2    0  502 -0.67601652167E+01 -0.10676277137E+03 -0.22248474016E+02  0.20461667522E+03  0.17300000000E+03 0. -1.
</event>
<event>
 4    1  0.6069433E+000  0.1000000E+03  0.7546771E-02  0.1280296E+00
         21   -1    0    0  501  502  0.00000000000E+00  0.00000000000E+00  0.55425726721E+02  0.55425726721E+02  0.00000000000E+00 0. -1.
         21   -1    0    0  502  503 -0.00000000000E+00 -0.00000000000E+00 -0.75108416468E+03  0.75108416468E+03  0.00000000000E+00 0. -1.
          6    1    1    2  501    0 -0.46498022832E+02  0.55612120921E+02 -0.18915302844E+03  0.26638814217E+03  0.17300000000E+03 0.  1.
         -6    1    1    2    0  503  0.46498022832E+02 -0.55612120921E+02 -0.50650540952E+03  0.54012174923E+03  0.17300000000E+03 0.  1.
</event>
<event>
 4    1  0.6069433E+000  0.1000000E+03  0.7546771E-02  0.1280296E+00
         21   -1    0    0  501  502  0.00000000000E+00  0.00000000000E+00  0.93199401471E+03  0.93199401471E+03  0.00000000000E+00 0.  1.
         21   -1    0    0  502  503 -0.00000000000E+00 -0.00000000000E+00 -0.58697299468E+02  0.58697299468E+02  0.00000000000E+00 0.  1.
          6    1    1    2  501    0  0.95412358790E+02 -0.56633973387E+02  0.67310387202E+03  0.70378174719E+03  0.17300000000E+03 0.  1.
         -6    1    1    2    0  503 -0.95412358790E+02  0.56633973387E+02  0.20019284323E+03  0.28690956699E+03  0.17300000000E+03 0.  1.
</event>
<event>
 4    1  0.6069433E+000  0.1000000E+03  0.7546771E-02  0.1280296E+00
         21   -1    0    0  501  502  0.00000000000E+00  0.00000000000E+00  0.91375214666E+02  0.91375214666E+02  0.00000000000E+00 0.  1.
         21   -1    0    0  502  503 -0.00000000000E+00 -0.00000000000E+00 -0.65287010405E+03  0.65287010405E+03  0.00000000000E+00 0.  1.
          6    1    1    2  501    0 -0.69257063493E+02 -0.48673594714E+02 -0.51901946991E+02  0.19947047844E+03  0.17300000000E+03 0.  1.
         -6    1    1    2    0  503  0.69257063493E+02  0.48673594714E+02 -0.50959294239E+03  0.54477484028E+03  0.17300000000E+03 0.  1.
</event>
<event>
 4    1  0.6069433E+000  0.1000000E+03  0.7546771E-02  0.1280296E+00
         21   -1    0    0  501  502  0.00000000000E+00  0.00000000000E+00  0.84107150518E+03  0.84107150518E+03  0.00000000000E+00 0.  1.
         21   -1    0    0  502  503 -0.00000000000E+00 -0.00000000000E+00 -0.47551591406E+02  0.47551591406E+02  0.00000000000E+00 0.  1.
          6    1    1    2  501    0 -0.51084106225E+02  0.77218479825E+02  0.48260591056E+03  0.52097000340E+03  0.17300000000E+03 0.  1.
         -6    1    1    2    0  503  0.51084106225E+02 -0.77218479825E+02  0.31091400322E+03  0.36765309319E+03  0.17300000000E+03 0.  1.
</event>
<event>
 4    1  0.6069433E+000  0.1000000E+03  0.7546771E-02  0.1280296E+00
         21   -1    0    0  501  502  0.00000000000E+00  0.00000000000E+00  0.13464977844E+04  0.13464977844E+04  0.00000000000E+00 0.  1.
         21   -1    0    0  502  503 -0.00000000000E+00 -0.00000000000E+00 -0.28983413597E+02  0.28983413597E+02  0.00000000000E+00 0.  1.
          6    1    1    2  501    0  0.89626005195E+02 -0.37967479132E+01  0.77155846545E+03  0.79578810101E+03  0.17300000000E+03 0.  1.
         -6    1    1    2    0  503 -0.89626005195E+02  0.37967479132E+01  0.54595590532E+03  0.57969309696E+03  0.17300000000E+03 0.  1.
</event>
<event>
 4    1  0.6069433E+000  0.1000000E+03  0.7546771E-02  0.1280296E+00
         21   -1    0    0  501  502  0.00000000000E+00  0.00000000000E+00  0.53806212240E+03  0.53806212240E+03  0.00000000000E+00 0. -1.
         21   -1    0    0  502  503 -0.00000000000E+00 -0.00000000000E+00 -0.87073882370E+02  0.87073882370E+02  0.00000000000E+00 0. -1.
          6    1    1    2  501    0 -0.10362761871E+03 -0.73188579553E+02  0.26701939661E+03  0.34252534169E+03  0.17300000000E+03 0. -1.
         -6    1    1    2    0  503  0.10362761871E+03  0.73188579553E+02  0.18396884342E+03  0.28261066308E+03  0.17300000000E+03 0. -1.
</event>
<event>
 4    1  0.6069433E+000  0.1000000E+03  0.7546771E-02  0.1280296E+00
         21   -1    0    0  501  502  0.00000000000E+00  0.00000000000E+00  0.67733135164E+03  0.67733135164E+03  0.00000000000E+00 0. -1.
         21   -1    0    0  502  503 -0.00000000000E+00 -0.00000000000E+00 -0.72388889216E+02  0.72388889216E+02  0.00000000000E+00 0. -1.
          6    1    1    2  501    0 -0.85064909378E+02  0.10857439411E+03  0.28753655119E+03  0.36280946258E+03  0.17300000000E+03 0. -1.
         -6    1    1    2    0  503  0.85064909378E+02 -0.10857439411E+03  0.31740591123E+03  0.38691077828E+03  0.17300000000E+03 0. -1.
</event>
<event>
 4    1  0.6069433E+000  0.1000000E+03  0.7546771E-02  0.1280296E+00
         21   -1    0    0  501  502  0.00000000000E+00  0.00000000000E+00  0.61858646095E+02  0.61858646095E+02  0.00000000000E+00 0. -1.
         21   -1    0    0  502  503 -0.00000000000E+00 -0.00000000000E+00 -0.85662104631E+03  0.85662104631E+03  0.00000000000E+00 0. -1.
          6    1    1    2  501    0 -0.38168013118E+02  0.63542229468E+02 -0.13296899336E+03  0.23044341029E+03  0.17300000000E+03 0. -1.
         -6    1    1    2    0  503  0.38168013118E+02 -0.63542229468E+02 -0.66179340685E+03  0.68803628212E+03  0.17300000000E+03 0. -1.
</event>
<event>
 4    1  0.6069433E+000  0.1000000E+03  0.7546771E-02  0.1280296E+00
         21   -1    0    0  501  502  0.00000000000E+00  0.00000000000E+00  0.13594574132E+04  0.13594574132E+04  0.00000000000E+00 0. -1.
         21   -1    0    0  502  503 -0.00000000000E+00 -0.00000000000E+00 -0.46064714947E+02  0.46064714947E+02  0.00000000000E+00 0. -1.
          6    1    1    2  501    0  0.15123991595E+01 -0.13386652572E+02  0.11630641320E+04  0.11759373559E+04  0.17300000000E+03 0. -1.
         -6    1    1    2    0  503 -0.15123991595E+01  0.13386652572E+02  0.15032856622E+03  0.22958477223E+03  0.17300000000E+03 0. -1.
</event>
<event>
 4    1  0.6069433E+000  0.1000000E+03  0.7546771E-02  0.1280296E+00
         21   -1    0    0  501  502  0.00000000000E+00  0.00000000000E+00  0.55277888147E+03  0.55277888147E+03  0.00000000000E+00 0. -1.
         21   -1    0    0  502  503 -0.00000000000E+00 -0.00000000000E+00 -0.10321525739E+03  0.10321525739E+03  0.00000000000E+00 0.  1.
          6    1    1    2  501    0 -0.70050403487E+01 -0.63992694926E+02  0.43295123965E+03  0.47065901830E+03  0.17300000000E+03 0. -1.
         -6    1    1    2    0  503  0.70050403487E+01  0.63992694926E+02  0.16612384431E+02  0.18533512055E+03  0.17300000000E+03 0.  1.
</event>
<event>
 4    1  0.6069433E+000  0.1000000E+03  0.7546771E-02  0.1280296E+00
         21   -1    0    0  503  502  0.00000000000E+00  0.00000000000E+00  0.60438912573E+02  0.60438912573E+02  0.00000000000E+00 0.  1.
         21   -1    0    0  501  503 -0.00000000000E+00 -0.00000000000E+00 -0.12699662136E+04  0.12699662136E+04  0.00000000000E+00 0.  1.
          6    1    1    2  501    0  0.38932827166E+02 -0.12585715566E+03 -0.10169502915E+04  0.10399387886E+04  0.17300000000E+03 0. -1.
         -6    1    1    2    0  502 -0.38932827166E+02  0.12585715566E+03 -0.19257700953E+03  0.29046633757E+03  0.17300000000E+03 0. -1.
</event>
<event>
 4    1  0.6069433E+000  0.1000000E+03  0.7546771E-02  0.1280296E+00
         21   -1    0    0  503  502  0.00000000000E+00  0.00000000000E+00  0.23744902218E+03  0.23744902218E+03  0.00000000000E+00 0.  1.
         21   -1    0    0  501  503 -0.00000000000E+00 -0.00000000000E+00 -0.16804734924E+03  0.16804734924E+03  0.00000000000E+00 0.  1.
          6    1    1    2  501    0  0.81484362419E+02  0.11936069398E+02 -0.22638663046E+02  0.19293439335E+03  0.17300000000E+03 0. -1.
         -6    1    1    2    0  502 -0.81484362419E+02 -0.11936069398E+02  0.92040335990E+02  0.21256197807E+03  0.17300000000E+03 0. -1.
</event>
<event>
 4    1  0.6069433E+000  0.1000000E+03  0.7546771E-02  0.1280296E+00
         21   -1    0    0  503  502  0.00000000000E+00  0.00000000000E+00  0.12219503354E+03  0.12219503354E+03  0.00000000000E+00 0.  1.
         21   -1    0    0  501  503 -0.00000000000E+00 -0.00000000000E+00 -0.32644882998E+03  0.32644882998E+03  0.00000000000E+00 0.  1.
          6    1    1    2  501    0  0.16036935196E+01 -0.98807581279E+02 -0.11784760647E+03  0.23147908826E+03  0.17300000000E+03 0.  1.
         -6    1    1    2    0  502 -0.16036935196E+01  0.98807581279E+02 -0.86406189968E+02  0.21716477527E+03  0.17300000000E+03 0.  1.
</event>
<event>
 4    1  0.6069433E+000  0.1000000E+03  0.7546771E-02  0.1280296E+00
         21   -1    0    0  503  502  0.00000000000E+00  0.00000000000E+00  0.14967672202E+04  0.14967672202E+04  0.00000000000E+00 0. -1.
         21   -1    0    0  501  503 -0.00000000000E+00 -0.00000000000E+00 -0.34796084227E+02  0.34796084227E+02  0.00000000000E+00 0. -1.
          6    1    1    2  501    0  0.12886903190E+03 -0.77187211615E+01  0.48245266147E+03  0.52854174537E+03  0.17300000000E+03 0. -1.
         -6    1    1    2    0  502 -0.12886903190E+03  0.77187211615E+01  0.97951847448E+03  0.10030215590E+04  0.17300000000E+03 0. -1.
</event>
<event>
 4    1  0.6069433E+000  0.1000000E+03  0.7546771E-02  0.1280296E+00
         21   -1    0    0  501  502  0.00000000000E+00  0.00000000000E+00  0.20863767056E+03  0.20863767056E+03  0.00000000000E+00 0.  1.
         21   -1    0    0  502  503 -0.00000000000E+00 -0.00000000000E+00 -0.42613503798E+03  0.42613503798E+03  0.00000000000E+00 0.  1.
          6    1    1    2  501    0  0.24231087393E+03  0.92620384282E+01 -0.12296899215E+03  0.32225877491E+03  0.17300000000E+03 0.  1.
         -6    1    1    2    0  503 -0.24231087393E+03 -0.92620384282E+01 -0.94528375275E+02  0.31251393363E+03  0.17300000000E+03 0.  1.
</event>
<event>
 4    1  0.6069433E+000  0.1000000E+03  0.7546771E-02  0.1280296E+00
         21   -1    0    0  503  502  0.00000000000E+00  0.00000000000E+00  0.10938999559E+03  0.10938999559E+03  0.00000000000E+00 0.  1.
         21   -1    0    0  501  503 -0.00000000000E+00 -0.00000000000E+00 -0.75511268685E+03  0.75511268685E+03  0.00000000000E+00 0. -1.
          6    1    1    2  501    0 -0.17295053132E+03 -0.30827424044E+02 -0.54497489041E+03  0.59815453483E+03  0.17300000000E+03 0. -1.
         -6    1    1    2    0  502  0.17295053132E+03  0.30827424044E+02 -0.10074780085E+03  0.26634814761E+03  0.17300000000E+03 0.  1.
</event>
<event>
 4    1  0.6069433E+000  0.1000000E+03  0.7546771E-02  0.1280296E+00
         21   -1    0    0  503  502  0.00000000000E+00  0.00000000000E+00  0.66832805435E+03  0.66832805435E+03  0.00000000000E+00 0.  1.
         21   -1    0    0  501  503 -0.00000000000E+00 -0.00000000000E+00 -0.11191777117E+03  0.11191777117E+03  0.00000000000E+00 0. -1.
          6    1    1    2  501    0 -0.82957765519E+02  0.53802900173E+02  0.10989784173E+02  0.19956582444E+03  0.17300000000E+03 0. -1.
         -6    1    1    2    0  502  0.82957765519E+02 -0.53802900173E+02  0.54542049901E+03  0.58068000109E+03  0.17300000000E+03 0.  1.
</event>
<event>
 4    1  0.6069433E+000  0.1000000E+03  0.7546771E-02  0.1280296E+00
         21   -1    0    0  501  502  0.00000000000E+00  0.00000000000E+00  0.20590052401E+04  0.20590052401E+04  0.00000000000E+00 0.  1.
         21   -1    0    0  502  503 -0.00000000000E+00 -0.00000000000E+00 -0.18247580006E+02  0.18247580006E+02  0.00000000000E+00 0. -1.
          6    1    1    2  501    0 -0.28629561635E+02 -0.80372177872E+02  0.11225420533E+04  0.11389947323E+04  0.17300000000E+03 0.  1.
         -6    1    1    2    0  503  0.28629561635E+02  0.80372177872E+02  0.91821560672E+03  0.93825808774E+03  0.17300000000E+03 0. -1.
</event>
<event>
 4    1  0.6069433E+000  0.1000000E+03  0.7546771E-02  0.1280296E+00
         21   -1    0    0  501  502  0.00000000000E+00  0.00000000000E+00  0.29668235462E+02  0.29668235462E+02  0.00000000000E+00 0.  1.
         21   -1    0    0  502  503 -0.00000000000E+00 -0.00000000000E+00 -0.19522589187E+04  0.19522589187E+04  0.00000000000E+00 0. -1.
          6    1    1    2  501    0  0.35071208940E+01 -0.11386736457E+03 -0.14658135885E+04  0.14803771657E+04  0.17300000000E+03 0.  1.
         -6    1    1    2    0  503 -0.35071208940E+01  0.11386736457E+03 -0.45677709477E+03  0.50154998846E+03  0.17300000000E+03 0. -1.
</event>
<event>
 4    1  0.6069433E+000  0.1000000E+03  0.7546771E-02  0.1280296E+00
         21   -1    0    0  501  502  0.00000000000E+00  0.00000000000E+00  0.34857481993E+02  0.34857481993E+02  0.00000000000E+00 0.  1.
         21   -1    0    0  502  503 -0.00000000000E+00 -0.00000000000E+00 -0.12394024134E+04  0.12394024134E+04  0.00000000000E+00 0. -1.
          6    1    1    2  501    0 -0.35798914985E+02 -0.51178257097E+02 -0.30551235065E+03  0.35660562631E+03  0.17300000000E+03 0.  1.
         -6    1    1    2    0  503  0.35798914985E+02  0.51178257097E+02 -0.89903258079E+03  0.91765426912E+03  0.17300000000E+03 0. -1.
</event>
<event>
 4    1  0.6069433E+000  0.1000000E+03  0.7546771E-02  0.1280296E+00
         21   -1    0    0  501  502  0.00000000000E+00  0.00000000000E+00  0.50881041005E+03  0.50881041005E+03  0.00000000000E+00 0. -1.
         21   -1    0    0  502  503 -0.00000000000E+00 -0.00000000000E+00 -0.26438410781E+03  0.26438410781E+03  0.00000000000E+00 0. -1.
          6    1    1    2  501    0 -0.27018513229E+03  0.14061242543E+03  0.23681233164E+03  0.42282495233E+03  0.17300000000E+03 0. -1.
         -6    1    1    2    0  503  0.27018513229E+03 -0.14061242543E+03  0.76139705962E+01  0.35036956552E+03  0.17300000000E+03 0. -1.
</event>
<event>
 4    1  0.6069433E+000  0.1000000E+03  0.7546771E-02  0.1280296E+00
         21   -1    0    0  501  502  0.00000000000E+00  0.00000000000E+00  0.10587451106E+03  0.10587451106E+03  0.00000000000E+00 0. -1.
         21   -1    0    0  502  503 -0.00000000000E+00 -0.00000000000E+00 -0.14965265843E+04  0.14965265843E+04  0.00000000000E+00 0. -1.
          6    1    1    2  501    0  0.11933006405E+03  0.21977153157E+02 -0.16341529616E+02  0.21194033368E+03  0.17300000000E+03 0. -1.
         -6    1    1    2    0  503 -0.11933006405E+03 -0.21977153157E+02 -0.13743105436E+04  0.13904607617E+04  0.17300000000E+03 0. -1.
</event>
<event>
 4    1  0.6069433E+000  0.1000000E+03  0.7546771E-02  0.1280296E+00
         21   -1    0    0  501  502  0.00000000000E+00  0.00000000000E+00  0.50120828183E+02  0.50120828183E+02  0.00000000000E+00 0. -1.
         21   -1    0    0  502  503 -0.00000000000E+00 -0.00000000000E+00 -0.11527926779E+04  0.11527926779E+04  0.00000000000E+00 0. -1.
          6    1    1    2  501    0 -0.54796253880E+02 -0.12092955468E+03 -0.29833854573E+03  0.36954224996E+03  0.17300000000E+03 0. -1.
         -6    1    1    2    0  503  0.54796253880E+02  0.12092955468E+03 -0.80433330394E+03  0.83337125608E+03  0.17300000000E+03 0. -1.
</event>
<event>
 4    1  0.6069433E+000  0.1000000E+03  0.7546771E-02  0.1280296E+00
         21   -1    0    0  501  502  0.00000000000E+00  0.00000000000E+00  0.84552990454E+02  0.84552990454E+02  0.00000000000E+00 0. -1.
         21   -1    0    0  502  503 -0.00000000000E+00 -0.00000000000E+00 -0.63510297682E+03  0.63510297682E+03  0.00000000000E+00 0. -1.
          6    1    1    2  501    0 -0.15394272605E+03 -0.83437457941E+01 -0.27790782188E+03  0.36184214578E+03  0.17300000000E+03 0. -1.
         -6    1    1    2    0  503  0.15394272605E+03  0.83437457941E+01 -0.27264216449E+03  0.35781382150E+03  0.17300000000E+03 0. -1.
</event>
<event>
 4    1  0.6069433E+000  0.1000000E+03  0.7546771E-02  0.1280296E+00
         21   -1    0    0  503  502  0.00000000000E+00  0.00000000000E+00  0.14668614336E+03  0.14668614336E+03  0.00000000000E+00 0.  1.
         21   -1    0    0  501  503 -0.00000000000E+00 -0.00000000000E+00 -0.41611344188E+03  0.41611344188E+03  0.00000000000E+00 0.  1.
          6    1    1    2  501    0  0.66116546731E+02  0.12859162416E+03 -0.19669827738E+02  0.22632522104E+03  0.17300000000E+03 0.  1.
         -6    1    1    2    0  502 -0.66116546731E+02 -0.12859162416E+03 -0.24975747079E+03  0.33647436421E+03  0.17300000000E+03 0.  1.
</event>
<event>
 4    1  0.6069433E+000  0.1000000E+03  0.7546771E-02  0.1280296E+00
         21   -1    0    0  503  502  0.00000000000E+00  0.00000000000E+00  0.10004839705E+04  0.10004839705E+04  0.00000000000E+00 0.  1.
         21   -1    0    0  501  503 -0.00000000000E+00 -0.00000000000E+00 -0.34755449281E+02  0.34755449281E+02  0.00000000000E+00 0.  1.
          6    1    1    2  501    0 -0.63365816601E+02 -0.15376728233E+02  0.41534803604E+03  0.45463684576E+03  0.17300000000E+03 0.  1.
         -6    1    1    2    0  502  0.63365816601E+02  0.15376728233E+02  0.55038048514E+03  0.58060257398E+03  0.17300000000E+03 0.  1.
</event>
<event>
 4    1  0.6069433E+000  0.1000000E+03  0.7546771E-02  0.1280296E+00
         21   -1    0    0  503  502  0.00000000000E+00  0.00000000000E+00  0.42707888062E+02  0.42707888062E+02  0.00000000000E+00 0.  1.
         21   -1    0    0  501  503 -0.00000000000E+00 -0.00000000000E+00 -0.92396377467E+03  0.92396377467E+03  0.00000000000E+00 0. -1.
          6    1    1    2  501    0 -0.19752990043E+01  0.91850018987E+02 -0.52100319955E+03  0.55660907443E+03  0.17300000000E+03 0. -1.
         -6    1    1    2    0  502  0.19752990043E+01 -0.91850018987E+02 -0.36025268706E+03  0.41006258830E+03  0.17300000000E+03 0.  1.
</event>
<event>
 4    1  0.6069433E+000  0.1000000E+03  0.7546771E-02  0.1280296E+00
         21   -1    0    0  503  502  0.00000000000E+00  0.00000000000E+00  0.17107718049E+03  0.17107718049E+03  0.00000000000E+00 0.  1.
         21   -1    0    0  501  503 -0.00000000000E+00 -0.00000000000E+00 -0.46597864776E+03  0.46597864776E+03  0.00000000000E+00 0. -1.
          6    1    1    2  501    0 -0.16745554795E+03  0.22427861946E+02 -0.31188648211E+03  0.39464737076E+03  0.17300000000E+03 0. -1.
         -6    1    1    2    0  502  0.16745554795E+03 -0.22427861946E+02  0.16985014835E+02  0.24240845748E+03  0.17300000000E+03 0.  1.
</event>
<event>
 4    1  0.6069433E+000  0.1000000E+03  0.7546771E-02  0.1280296E+00
         21   -1    0    0  503  502  0.00000000000E+00  0.00000000000E+00  0.21994233522E+03  0.21994233522E+03  0.00000000000E+00 0. -1.
         21   -1    0    0  501  503 -0.00000000000E+00 -0.00000000000E+00 -0.18122914800E+03  0.18122914800E+03  0.00000000000E+00 0. -1.
          6    1    1    2  501    0  0.45318264989E+02 -0.62258663662E+01 -0.69593593479E+02  0.19200201772E+03  0.17300000000E+03 0. -1.
         -6    1    1    2    0  502 -0.45318264989E+02  0.62258663662E+01  0.10830678071E+03  0.20916946551E+03  0.17300000000E+03 0. -1.
</event>
<event>
 4    1  0.6069433E+000  0.1000000E+03  0.7546771E-02  0.1280296E+00
         21   -1    0    0  501  502  0.00000000000E+00  0.00000000000E+00  0.21143224178E+03  0.21143224178E+03  0.00000000000E+00 0. -1.
         21   -1    0    0  502  503 -0.00000000000E+00 -0.00000000000E+00 -0.24620784515E+03  0.24620784515E+03  0.00000000000E+00 0. -1.
          6    1    1    2  501    0  0.83313229621E+02  0.62694771414E+02  0.89012004318E+02  0.22073483075E+03  0.17300000000E+03 0. -1.
         -6    1    1    2    0  503 -0.83313229621E+02 -0.62694771414E+02 -0.12378760769E+03  0.23690525619E+03  0.17300000000E+03 0. -1.
</event>
<event>
 4    1  0.6069433E+000  0.1000000E+03  0.7546771E-02  0.1280296E+00
         21   -1    0    0  501  502  0.00000000000E+00  0.00000000000E+00  0.59032692077E+03  0.59032692077E+03  0.00000000000E+00 0. -1.
         21   -1    0    0  502  503 -0.00000000000E+00 -0.00000000000E+00 -0.17963961387E+03  0.17963961387E+03  0.00000000000E+00 0. -1.
          6    1    1    2  501    0 -0.25576001692E+03 -0.10298615734E+03  0.19365440067E+03  0.37874841486E+03  0.17300000000E+03 0. -1.
         -6    1    1    2    0  503  0.25576001692E+03  0.10298615734E+03  0.21703290623E+03  0.39121811978E+03  0.17300000000E+03 0. -1.
</event>
<event>
 4    1  0.6069433E+000  0.1000000E+03  0.7546771E-02  0.1280296E+00
         21   -1    0    0  501  502  0.00000000000E+00  0.00000000000E+00  0.28072610914E+03  0.28072610914E+03  0.00000000000E+00 0. -1.
         21   -1    0    0  502  503 -0.00000000000E+00 -0.00000000000E+00 -0.29549740229E+03  0.29549740229E+03  0.00000000000E+00 0. -1.
          6    1    1    2  501    0  0.45951792296E+02 -0.19865664463E+02  0.21745172485E+03  0.28234812640E+03  0.17300000000E+03 0. -1.
         -6    1    1    2    0  503 -0.45951792296E+02  0.19865664463E+02 -0.23222301800E+03  0.29387538504E+03  0.17300000000E+03 0. -1.
</event>
<event>
 4    1  0.6069433E+000  0.1000000E+03  0.7546771E-02  0.1280296E+00
         21   -1    0    0  501  502  0.00000000000E+00  0.00000000000E+00  0.71424166414E+03  0.71424166414E+03  0.00000000000E+00 0. -1.
         21   -1    0    0  502  503 -0.00000000000E+00 -0.00000000000E+00 -0.13587545491E+03  0.13587545491E+03  0.00000000000E+00 0. -1.
          6    1    1    2  501    0  0.80560393220E+02 -0.12932260912E+03  0.57508080828E+03  0.61956537205E+03  0.17300000000E+03 0. -1.
         -6    1    1    2    0  503 -0.80560393220E+02  0.12932260912E+03  0.32854009474E+01  0.23055174700E+03  0.17300000000E+03 0. -1.
</event>
<event>
 4    1  0.6069433E+000  0.1000000E+03  0.7546771E-02  0.1280296E+00
         21   -1    0    0  501  502  0.00000000000E+00  0.00000000000E+00  0.18061176802E+03  0.18061176802E+03  0.00000000000E+00 0. -1.
         21   -1    0    0  502  503 -0.00000000000E+00 -0.00000000000E+00 -0.31667719324E+03  0.31667719324E+03  0.00000000000E+00 0. -1.
          6    1    1    2  501    0  0.11539222883E+03 -0.11671702648E+03 -0.49192013623E+02  0.24348939392E+03  0.17300000000E+03 0. -1.
         -6    1    1    2    0  503 -0.11539222883E+03  0.11671702648E+03 -0.86873411595E+02  0.25379956735E+03  0.17300000000E+03 0. -1.
</event>
<event>
 4    1  0.6069433E+000  0.1000000E+03  0.7546771E-02  0.1280296E+00
         21   -1    0    0  501  502  0.00000000000E+00  0.00000000000E+00  0.11104935863E+04  0.11104935863E+04  0.00000000000E+00 0. -1.
         21   -1    0    0  502  503 -0.00000000000E+00 -0.00000000000E+00 -0.93951876847E+02  0.93951876847E+02  0.00000000000E+00 0.  1.
          6    1    1    2  501    0 -0.75835349701E+02 -0.14481200080E+01  0.99677626268E+03  0.10145171340E+04  0.17300000000E+03 0. -1.
         -6    1    1    2    0  503  0.75835349701E+02  0.14481200080E+01  0.19765446730E+02  0.18992832911E+03  0.17300000000E+03 0. -1.
</event>
<event>
 4    1  0.6069433E+000  0.1000000E+03  0.7546771E-02  0.1280296E+00
         21   -1    0    0  503  502  0.00000000000E+00  0.00000000000E+00  0.27439751769E+03  0.27439751769E+03  0.00000000000E+00 0.  1.
         21   -1    0    0  501  503 -0.00000000000E+00 -0.00000000000E+00 -0.70352321629E+03  0.70352321629E+03  0.00000000000E+00 0.  1.
          6    1    1    2  501    0  0.10855664942E+03 -0.93261450909E+02 -0.63485913126E+03  0.67339242712E+03  0.17300000000E+03 0.  1.
         -6    1    1    2    0  502 -0.10855664942E+03  0.93261450909E+02  0.20573343266E+03  0.30452830685E+03  0.17300000000E+03 0.  1.
</event>
<event>
 4    1  0.6069433E+000  0.1000000E+03  0.7546771E-02  0.1280296E+00
         21   -1    0    0  501  502  0.00000000000E+00  0.00000000000E+00  0.42519677611E+03  0.42519677611E+03  0.00000000000E+00 0.  1.
         21   -1    0    0  502  503 -0.00000000000E+00 -0.00000000000E+00 -0.81616170075E+03  0.81616170075E+03  0.00000000000E+00 0. -1.
          6    1    1    2  501    0 -0.12779653581E+02 -0.95295313671E+02  0.38911618604E+03  0.43656033099E+03  0.17300000000E+03 0.  1.
         -6    1    1    2    0  503  0.12779653581E+02  0.95295313671E+02 -0.78008111068E+03  0.80479814587E+03  0.17300000000E+03 0.  1.
</event>
<event>
 4    1  0.6069433E+000  0.1000000E+03  0.7546771E-02  0.1280296E+00
         21   -1    0    0  501  502  0.00000000000E+00  0.00000000000E+00  0.35761859425E+03  0.35761859425E+03  0.00000000000E+00 0.  1.
         21   -1    0    0  502  503 -0.00000000000E+00 -0.00000000000E+00 -0.92956879516E+02  0.92956879516E+02  0.00000000000E+00 0. -1.
          6    1    1    2  501    0  0.40945517182E+02 -0.13619735414E+01  0.18230449751E+03  0.25464155231E+03  0.17300000000E+03 0.  1.
         -6    1    1    2    0  503 -0.40945517182E+02  0.13619735414E+01  0.82357217224E+02  0.19593392146E+03  0.17300000000E+03 0.  1.
</event>
<event>
 4    1  0.6069433E+000  0.1000000E+03  0.7546771E-02  0.1280296E+00
         21   -1    0    0  501  502  0.00000000000E+00  0.00000000000E+00  0.11495283190E+04  0.11495283190E+04  0.00000000000E+00 0.  1.
         21   -1    0    0  502  503 -0.00000000000E+00 -0.00000000000E+00 -0.42011821780E+02  0.42011821780E+02  0.00000000000E+00 0. -1.
          6    1    1    2  501    0  0.10274522897E+03  0.45478960981E+02  0.34836613165E+03  0.40486155615E+03  0.17300000000E+03 0.  1.
         -6    1    1    2    0  503 -0.10274522897E+03 -0.45478960981E+02  0.75915036559E+03  0.78667858465E+03  0.17300000000E+03 0.  1.
</event>
<event>
 4    1  0.6069433E+000  0.1000000E+03  0.7546771E-02  0.1280296E+00
         21   -1    0    0  501  502  0.00000000000E+00  0.00000000000E+00  0.61204087930E+03  0.61204087930E+03  0.00000000000E+00 0.  1.
         21   -1    0    0  502  503 -0.00000000000E+00 -0.00000000000E+00 -0.81301265171E+02  0.81301265171E+02  0.00000000000E+00 0.  1.
          6    1    1    2  501    0 -0.26496263287E+02  0.45583943145E+02  0.46830178096E+03  0.50201145992E+03  0.17300000000E+03 0. -1.
         -6    1    1    2    0  503  0.26496263287E+02 -0.45583943145E+02  0.62437833174E+02  0.19133068455E+03  0.17300000000E+03 0. -1.
</event>
<event>
 4    1  0.6069433E+000  0.1000000E+03  0.7546771E-02  0.1280296E+00
         21   -1    0    0  501  502  0.00000000000E+00  0.00000000000E+00  0.66987872455E+02  0.66987872455E+02  0.00000000000E+00 0.  1.
         21   -1    0    0  502  503 -0.00000000000E+00 -0.00000000000E+00 -0.54853067431E+03  0.54853067431E+03  0.00000000000E+00 0.  1.
          6    1    1    2  501    0 -0.66926364645E+02  0.35341180771E+02 -0.29372314116E+03  0.34918536767E+03  0.17300000000E+03 0. -1.
         -6    1    1    2    0  503  0.66926364645E+02 -0.35341180771E+02 -0.18781966070E+03  0.26633317910E+03  0.17300000000E+03 0. -1.
</event>
<event>
 4    1  0.6069433E+000  0.1000000E+03  0.7546771E-02  0.1280296E+00
         21   -1    0    0  501  502  0.00000000000E+00  0.00000000000E+00  0.19895946838E+03  0.19895946838E+03  0.00000000000E+00 0.  1.
         21   -1    0    0  502  503 -0.00000000000E+00 -0.00000000000E+00 -0.22231318396E+03  0.22231318396E+03  0.00000000000E+00 0.  1.
          6    1    1    2  501    0  0.14061282088E+02  0.51730849439E+02  0.95392009733E+02  0.20470084504E+03  0.17300000000E+03 0.  1.
         -6    1    1    2    0  503 -0.14061282088E+02 -0.51730849439E+02 -0.11874572531E+03  0.21657180730E+03  0.17300000000E+03 0.  1.
</event>
<event>
 4    1  0.6069433E+000  0.1000000E+03  0.7546771E-02  0.1280296E+00
         21   -1    0    0  501  502  0.00000000000E+00  0.00000000000E+00  0.13386723510E+04  0.13386723510E+04  0.00000000000E+00 0.  1.
         21   -1    0    0  502  503 -0.00000000000E+00 -0.00000000000E+00 -0.56605144379E+02  0.56605144379E+02  0.00000000000E+00 0.  1.
          6    1    1    2  501    0  0.16424867405E+03 -0.10136922014E+02  0.98821423547E+03  0.10166497722E+04  0.17300000000E+03 0.  1.
         -6    1    1    2    0  503 -0.16424867405E+03  0.10136922014E+02  0.29385297117E+03  0.37862772320E+03  0.17300000000E+03 0.  1.
</event>
<event>
 4    1  0.6069433E+000  0.1000000E+03  0.7546771E-02  0.1280296E+00
         21   -1    0    0  501  502  0.00000000000E+00  0.00000000000E+00  0.23308924172E+03  0.23308924172E+03  0.00000000000E+00 0.  1.
         21   -1    0    0  502  503 -0.00000000000E+00 -0.00000000000E+00 -0.18674574757E+03  0.18674574757E+03  0.00000000000E+00 0. -1.
          6    1    1    2  501    0 -0.44189717513E+02  0.48243628610E+02  0.12030155816E+03  0.22063917089E+03  0.17300000000E+03 0.  1.
         -6    1    1    2    0  503  0.44189717513E+02 -0.48243628610E+02 -0.73958064010E+02  0.19919581840E+03  0.17300000000E+03 0. -1.
</event>
<event>
 4    1  0.6069433E+000  0.1000000E+03  0.7546771E-02  0.1280296E+00
         21   -1    0    0  501  502  0.00000000000E+00  0.00000000000E+00  0.52995493624E+03  0.52995493624E+03  0.00000000000E+00 0.  1.
         21   -1    0    0  502  503 -0.00000000000E+00 -0.00000000000E+00 -0.53061093135E+03  0.53061093135E+03  0.00000000000E+00 0. -1.
          6    1    1    2  501    0 -0.82126329515E+02  0.15167142707E+03  0.47033325139E+03  0.52999181423E+03  0.17300000000E+03 0.  1.
         -6    1    1    2    0  503  0.82126329515E+02 -0.15167142707E+03 -0.47098924650E+03  0.53057405337E+03  0.17300000000E+03 0. -1.
</event>
<event>
 4    1  0.6069433E+000  0.1000000E+03  0.7546771E-02  0.1280296E+00
         21   -1    0    0  501  502  0.00000000000E+00  0.00000000000E+00  0.73223752511E+03  0.73223752511E+03  0.00000000000E+00 0. -1.
         21   -1    0    0  502  503 -0.00000000000E+00 -0.00000000000E+00 -0.21496755505E+03  0.21496755505E+03  0.00000000000E+00 0. -1.
          6    1    1    2  501    0  0.23397151615E+03  0.22975173082E+03  0.90029905578E+02  0.38152707910E+03  0.17300000000E+03 0. -1.
         -6    1    1    2    0  503 -0.23397151615E+03 -0.22975173082E+03  0.42724006448E+03  0.56567800106E+03  0.17300000000E+03 0. -1.
</event>
<event>
 4    1  0.6069433E+000  0.1000000E+03  0.7546771E-02  0.1280296E+00
         21   -1    0    0  501  502  0.00000000000E+00  0.00000000000E+00  0.47243084402E+03  0.47243084402E+03  0.00000000000E+00 0. -1.
         21   -1    0    0  502  503 -0.00000000000E+00 -0.00000000000E+00 -0.18414296921E+03  0.18414296921E+03  0.00000000000E+00 0. -1.
          6    1    1    2  501    0 -0.28730943932E+02 -0.12292858520E+03  0.36986936835E+03  0.42739823799E+03  0.17300000000E+03 0. -1.
         -6    1    1    2    0  503  0.28730943932E+02  0.12292858520E+03 -0.81581493539E+02  0.22917557524E+03  0.17300000000E+03 0. -1.
</event>
<event>
 4    1  0.6069433E+000  0.1000000E+03  0.7546771E-02  0.1280296E+00
         21   -1    0    0  501  502  0.00000000000E+00  0.00000000000E+00  0.22737956649E+03  0.22737956649E+03  0.00000000000E+00 0.  1.
         21   -1    0    0  502  503 -0.00000000000E+00 -0.00000000000E+00 -0.14319387558E+03  0.14319387558E+03  0.00000000000E+00 0.  1.
          6    1    1    2  501    0  0.23399512202E+02 -0.44035134108E+02  0.29782172279E+02  0.18249002163E+03  0.17300000000E+03 0.  1.
         -6    1    1    2    0  503 -0.23399512202E+02  0.44035134108E+02  0.54403518633E+02  0.18808342045E+03  0.17300000000E+03 0.  1.
</event>
<event>
 4    1  0.6069433E+000  0.1000000E+03  0.7546771E-02  0.1280296E+00
         21   -1    0    0  503  502  0.00000000000E+00  0.00000000000E+00  0.45446861234E+03  0.45446861234E+03  0.00000000000E+00 0. -1.
         21   -1    0    0  501  503 -0.00000000000E+00 -0.00000000000E+00 -0.89155430773E+02  0.89155430773E+02  0.00000000000E+00 0. -1.
          6    1    1    2  501    0  0.21034702592E+02  0.97643003238E+02  0.14923112838E+03  0.24935024458E+03  0.17300000000E+03 0. -1.
         -6    1    1    2    0  502 -0.21034702592E+02 -0.97643003238E+02  0.21608205319E+03  0.29427379854E+03  0.17300000000E+03 0. -1.
</event>
<event>
 4    1  0.6069433E+000  0.1000000E+03  0.7546771E-02  0.1280296E+00
         21   -1    0    0  501  502  0.00000000000E+00  0.00000000000E+00  0.12178924631E+03  0.12178924631E+03  0.00000000000E+00 0. -1.
         21   -1    0    0  502  503 -0.00000000000E+00 -0.00000000000E+00 -0.37391950360E+03  0.37391950360E+03  0.00000000000E+00 0. -1.
          6    1    1    2  501    0  0.73337258028E+02 -0.96818296175E+02 -0.16009083027E+03  0.26516072451E+03  0.17300000000E+03 0. -1.
         -6    1    1    2    0  503 -0.73337258028E+02  0.96818296175E+02 -0.92039427018E+02  0.23054802540E+03  0.17300000000E+03 0. -1.
</event>
<event>
 4    1  0.6069433E+000  0.1000000E+03  0.7546771E-02  0.1280296E+00
         21   -1    0    0  501  502  0.00000000000E+00  0.00000000000E+00  0.22240486906E+03  0.22240486906E+03  0.00000000000E+00 0. -1.
         21   -1    0    0  502  503 -0.00000000000E+00 -0.00000000000E+00 -0.92845115378E+03  0.92845115378E+03  0.00000000000E+00 0. -1.
          6    1    1    2  501    0  0.13584742434E+03 -0.71829718083E+02  0.14221339879E+03  0.27160206534E+03  0.17300000000E+03 0. -1.
         -6    1    1    2    0  503 -0.13584742434E+03  0.71829718083E+02 -0.84825968351E+03  0.87925395750E+03  0.17300000000E+03 0. -1.
</event>
<event>
 4    1  0.6069433E+000  0.1000000E+03  0.7546771E-02  0.1280296E+00
         21   -1    0    0  501  502  0.00000000000E+00  0.00000000000E+00  0.34693598828E+03  0.34693598828E+03  0.00000000000E+00 0. -1.
         21   -1    0    0  502  503 -0.00000000000E+00 -0.00000000000E+00 -0.10838002324E+03  0.10838002324E+03  0.00000000000E+00 0. -1.
          6    1    1    2  501    0 -0.59211618364E+02  0.64159867713E+02  0.11102403327E+03  0.22333347339E+03  0.17300000000E+03 0. -1.
         -6    1    1    2    0  503  0.59211618364E+02 -0.64159867713E+02  0.12753193177E+03  0.23198253813E+03  0.17300000000E+03 0. -1.
</event>
<event>
 4    1  0.6069433E+000  0.1000000E+03  0.7546771E-02  0.1280296E+00
         21   -1    0    0  501  502  0.00000000000E+00  0.00000000000E+00  0.13287707351E+03  0.13287707351E+03  0.00000000000E+00 0.  1.
         21   -1    0    0  502  503 -0.00000000000E+00 -0.00000000000E+00 -0.54730557104E+03  0.54730557104E+03  0.00000000000E+00 0.  1.
          6    1    1    2  501    0 -0.14780054691E+03  0.44641201619E+02 -0.33575600335E+02  0.23429502659E+03  0.17300000000E+03 0.  1.
         -6    1    1    2    0  503  0.14780054691E+03 -0.44641201619E+02 -0.38085289719E+03  0.44588761796E+03  0.17300000000E+03 0.  1.
</event>
<event>
 4    1  0.6069433E+000  0.1000000E+03  0.7546771E-02  0.1280296E+00
         21   -1    0    0  501  502  0.00000000000E+00  0.00000000000E+00  0.49923305690E+02  0.49923305690E+02  0.00000000000E+00 0.  1.
         21   -1    0    0  502  503 -0.00000000000E+00 -0.00000000000E+00 -0.77313474210E+03  0.77313474210E+03  0.00000000000E+00 0.  1.
          6    1    1    2  501    0 -0.37350676584E+02  0.18646785842E+02 -0.18728380150E+03  0.25835440381E+03  0.17300000000E+03 0.  1.
         -6    1    1    2    0  503  0.37350676584E+02 -0.18646785842E+02 -0.53592763491E+03  0.56470364398E+03  0.17300000000E+03 0.  1.
</event>
<event>
 4    1  0.6069433E+000  0.1000000E+03  0.7546771E-02  0.1280296E+00
         21   -1    0    0  503  502  0.00000000000E+00  0.00000000000E+00  0.41832678978E+03  0.41832678978E+03  0.00000000000E+00 0. -1.
         21   -1    0    0  501  503 -0.00000000000E+00 -0.00000000000E+00 -0.30864552353E+03  0.30864552353E+03  0.00000000000E+00 0. -1.
          6    1    1    2  501    0  0.17554214190E+01 -0.27608769807E+03  0.20811477448E+03  0.38661124904E+03  0.17300000000E+03 0. -1.
         -6    1    1    2    0  502 -0.17554214190E+01  0.27608769807E+03 -0.98433508223E+02  0.34036106427E+03  0.17300000000E+03 0. -1.
</event>
<event>
 4    1  0.6069433E+000  0.1000000E+03  0.7546771E-02  0.1280296E+00
         21   -1    0    0  503  502  0.00000000000E+00  0.00000000000E+00  0.16142190457E+04  0.16142190457E+04  0.00000000000E+00 0. -1.
         21   -1    0    0  501  503 -0.00000000000E+00 -0.00000000000E+00 -0.78085410784E+02  0.78085410784E+02  0.00000000000E+00 0. -1.
          6    1    1    2  501    0  0.26506025811E+03 -0.13767625485E+03  0.96613009462E+03  0.10259376449E+04  0.17300000000E+03 0. -1.
         -6    1    1    2    0  502 -0.26506025811E+03  0.13767625485E+03  0.57000354031E+03  0.66636681156E+03  0.17300000000E+03 0. -1.
</event>
<event>
 4    1  0.6069433E+000  0.1000000E+03  0.7546771E-02  0.1280296E+00
         21   -1    0    0  503  502  0.00000000000E+00  0.00000000000E+00  0.77115617389E+03  0.77115617389E+03  0.00000000000E+00 0. -1.
         21   -1    0    0  501  503 -0.00000000000E+00 -0.00000000000E+00 -0.49785583875E+02  0.49785583875E+02  0.00000000000E+00 0. -1.
          6    1    1    2  501    0  0.16675572423E+02  0.83049869219E+02  0.28549963921E+03  0.34440441269E+03  0.17300000000E+03 0. -1.
         -6    1    1    2    0  502 -0.16675572423E+02 -0.83049869219E+02  0.43587095081E+03  0.47653734508E+03  0.17300000000E+03 0. -1.
</event>
<event>
 4    1  0.6069433E+000  0.1000000E+03  0.7546771E-02  0.1280296E+00
         21   -1    0    0  503  502  0.00000000000E+00  0.00000000000E+00  0.12161868245E+04  0.12161868245E+04  0.00000000000E+00 0.  1.
         21   -1    0    0  501  503 -0.00000000000E+00 -0.00000000000E+00 -0.42651832578E+02  0.42651832578E+02  0.00000000000E+00 0. -1.
          6    1    1    2  501    0  0.12992937698E+03 -0.29114643103E+02  0.40736298446E+03  0.46217194480E+03  0.17300000000E+03 0. -1.
         -6    1    1    2    0  502 -0.12992937698E+03  0.29114643103E+02  0.76617200744E+03  0.79666671227E+03  0.17300000000E+03 0.  1.
</event>
<event>
 4    1  0.6069433E+000  0.1000000E+03  0.7546771E-02  0.1280296E+00
         21   -1    0    0  503  502  0.00000000000E+00  0.00000000000E+00  0.62334519998E+02  0.62334519998E+02  0.00000000000E+00 0.  1.
         21   -1    0    0  501  503 -0.00000000000E+00 -0.00000000000E+00 -0.15367297760E+04  0.15367297760E+04  0.00000000000E+00 0. -1.
          6    1    1    2  501    0 -0.19425622100E+03 -0.12043058423E+03 -0.10387162603E+04  0.10775432588E+04  0.17300000000E+03 0. -1.
         -6    1    1    2    0  502  0.19425622100E+03  0.12043058423E+03 -0.43567899566E+03  0.52152103723E+03  0.17300000000E+03 0.  1.
</event>
<event>
 4    1  0.6069433E+000  0.1000000E+03  0.7546771E-02  0.1280296E+00
         21   -1    0    0  503  502  0.00000000000E+00  0.00000000000E+00  0.13898822993E+03  0.13898822993E+03  0.00000000000E+00 0.  1.
         21   -1    0    0  501  503 -0.00000000000E+00 -0.00000000000E+00 -0.94133800080E+03  0.94133800080E+03  0.00000000000E+00 0. -1.
          6    1    1    2  501    0  0.21690443450E+03 -0.80063108602E+01 -0.74753758674E+03  0.79740396181E+03  0.17300000000E+03 0. -1.
         -6    1    1    2    0  502 -0.21690443450E+03  0.80063108602E+01 -0.54812184135E+02  0.28292226892E+03  0.17300000000E+03 0.  1.
</event>
<event>
 4    1  0.6069433E+000  0.1000000E+03  0.7546771E-02  0.1280296E+00
         21   -1    0    0  503  502  0.00000000000E+00  0.00000000000E+00  0.25900190086E+02  0.25900190086E+02  0.00000000000E+00 0. -1.
         21   -1    0    0  501  503 -0.00000000000E+00 -0.00000000000E+00 -0.25235281014E+04  0.25235281014E+04  0.00000000000E+00 0. -1.
          6    1    1    2  501    0  0.13933704852E+03 -0.12371868130E+03 -0.11159813940E+04  0.11445805332E+04  0.17300000000E+03 0. -1.
         -6    1    1    2    0  502 -0.13933704852E+03  0.12371868130E+03 -0.13816465173E+04  0.14048477583E+04  0.17300000000E+03 0. -1.
</event>
<event>
 4    1  0.6069433E+000  0.1000000E+03  0.7546771E-02  0.1280296E+00
         21   -1    0    0  503  502  0.00000000000E+00  0.00000000000E+00  0.11055579228E+03  0.11055579228E+03  0.00000000000E+00 0.  1.
         21   -1    0    0  501  503 -0.00000000000E+00 -0.00000000000E+00 -0.67301818138E+03  0.67301818138E+03  0.00000000000E+00 0. -1.
          6    1    1    2  501    0  0.31094211270E+02  0.20843701668E+03 -0.29274119833E+03  0.40004905836E+03  0.17300000000E+03 0. -1.
         -6    1    1    2    0  502 -0.31094211270E+02 -0.20843701668E+03 -0.26972119077E+03  0.38352491529E+03  0.17300000000E+03 0.  1.
</event>
<event>
 4    1  0.6069433E+000  0.1000000E+03  0.7546771E-02  0.1280296E+00
         21   -1    0    0  503  502  0.00000000000E+00  0.00000000000E+00  0.11997762975E+04  0.11997762975E+04  0.00000000000E+00 0.  1.
         21   -1    0    0  501  503 -0.00000000000E+00 -0.00000000000E+00 -0.56341594845E+02  0.56341594845E+02  0.00000000000E+00 0.  1.
          6    1    1    2  501    0 -0.22278404229E+02 -0.74429029134E+02  0.14208091969E+03  0.23696412263E+03  0.17300000000E+03 0.  1.
         -6    1    1    2    0  502  0.22278404229E+02  0.74429029134E+02  0.10013537829E+04  0.10191537697E+04  0.17300000000E+03 0.  1.
</event>
<event>
 4    1  0.6069433E+000  0.1000000E+03  0.7546771E-02  0.1280296E+00
         21   -1    0    0  503  502  0.00000000000E+00  0.00000000000E+00  0.58301337294E+02  0.58301337294E+02  0.00000000000E+00 0.  1.
         21   -1    0    0  501  503 -0.00000000000E+00 -0.00000000000E+00 -0.71237370911E+03  0.71237370911E+03  0.00000000000E+00 0.  1.
          6    1    1    2  501    0  0.10176455851E+03  0.29486281797E+02 -0.29028076157E+03  0.35414317263E+03  0.17300000000E+03 0.  1.
         -6    1    1    2    0  502 -0.10176455851E+03 -0.29486281797E+02 -0.36379161025E+03  0.41653187377E+03  0.17300000000E+03 0.  1.
</event>
<event>
 4    1  0.6069433E+000  0.1000000E+03  0.7546771E-02  0.1280296E+00
         21   -1    0    0  503  502  0.00000000000E+00  0.00000000000E+00  0.75955128731E+03  0.75955128731E+03  0.00000000000E+00 0.  1.
         21   -1    0    0  501  503 -0.00000000000E+00 -0.00000000000E+00 -0.15443215721E+03  0.15443215721E+03  0.00000000000E+00 0.  1.
          6    1    1    2  501    0 -0.12673706245E+03  0.72281516230E+02 -0.40450281330E+02  0.22989590220E+03  0.17300000000E+03 0.  1.
         -6    1    1    2    0  502  0.12673706245E+03 -0.72281516230E+02  0.64556941143E+03  0.68408754233E+03  0.17300000000E+03 0.  1.
</event>
<event>
 4    1  0.6069433E+000  0.1000000E+03  0.7546771E-02  0.1280296E+00
         21   -1    0    0  503  502  0.00000000000E+00  0.00000000000E+00  0.14692411684E+03  0.14692411684E+03  0.00000000000E+00 0.  1.
         21   -1    0    0  501  503 -0.00000000000E+00 -0.00000000000E+00 -0.36988073827E+03  0.36988073827E+03  0.00000000000E+00 0. -1.
          6    1    1    2  501    0  0.15008493106E+03  0.26846893617E+02 -0.73576854426E+02  0.24205122544E+03  0.17300000000E+03 0. -1.
         -6    1    1    2    0  502 -0.15008493106E+03 -0.26846893617E+02 -0.14937976700E+03  0.27475362967E+03  0.17300000000E+03 0.  1.
</event>
<event>
 4    1  0.6069433E+000  0.1000000E+03  0.7546771E-02  0.1280296E+00
         21   -1    0    0  501  502  0.00000000000E+00  0.00000000000E+00  0.83232737155E+03  0.83232737155E+03  0.00000000000E+00 0. -1.
         21   -1    0    0  502  503 -0.00000000000E+00 -0.00000000000E+00 -0.12774390622E+03  0.12774390622E+03  0.00000000000E+00 0. -1.
          6    1    1    2  501    0  0.12127933802E+03 -0.68086792065E+01  0.71779404301E+03  0.74827289416E+03  0.17300000000E+03 0. -1.
         -6    1    1    2    0  503 -0.12127933802E+03  0.68086792065E+01 -0.13210577683E+02  0.21179838362E+03  0.17300000000E+03 0. -1.
</event>
<event>
 4    1  0.6069433E+000  0.1000000E+03  0.7546771E-02  0.1280296E+00
         21   -1    0    0  501  502  0.00000000000E+00  0.00000000000E+00  0.58900692095E+03  0.58900692095E+03  0.00000000000E+00 0.  1.
         21   -1    0    0  502  503 -0.00000000000E+00 -0.00000000000E+00 -0.10578520697E+03  0.10578520697E+03  0.00000000000E+00 0.  1.
          6    1    1    2  501    0  0.33427129679E+02  0.12003220191E+03  0.42228883468E+03  0.47305598230E+03  0.17300000000E+03 0.  1.
         -6    1    1    2    0  503 -0.33427129679E+02 -0.12003220191E+03  0.60932879292E+02  0.22173614562E+03  0.17300000000E+03 0.  1.
</event>
<event>
 4    1  0.6069433E+000  0.1000000E+03  0.7546771E-02  0.1280296E+00
         21   -1    0    0  501  502  0.00000000000E+00  0.00000000000E+00  0.37777190159E+03  0.37777190159E+03  0.00000000000E+00 0.  1.
         21   -1    0    0  502  503 -0.00000000000E+00 -0.00000000000E+00 -0.28427545768E+03  0.28427545768E+03  0.00000000000E+00 0.  1.
          6    1    1    2  501    0 -0.58501947099E+02 -0.14936908190E+02  0.32119102045E+03  0.36978136873E+03  0.17300000000E+03 0.  1.
         -6    1    1    2    0  503  0.58501947099E+02  0.14936908190E+02 -0.22769457654E+03  0.29226599054E+03  0.17300000000E+03 0.  1.
</event>
<event>
 4    1  0.6069433E+000  0.1000000E+03  0.7546771E-02  0.1280296E+00
         21   -1    0    0  503  502  0.00000000000E+00  0.00000000000E+00  0.46474069415E+03  0.46474069415E+03  0.00000000000E+00 0. -1.
         21   -1    0    0  501  503 -0.00000000000E+00 -0.00000000000E+00 -0.55913543360E+03  0.55913543360E+03  0.00000000000E+00 0. -1.
          6    1    1    2  501    0  0.13193361919E+03 -0.23691691212E+02 -0.50955351997E+03  0.55456430269E+03  0.17300000000E+03 0. -1.
         -6    1    1    2    0  502 -0.13193361919E+03  0.23691691212E+02  0.41515878052E+03  0.46931182507E+03  0.17300000000E+03 0. -1.
</event>
<event>
 4    1  0.6069433E+000  0.1000000E+03  0.7546771E-02  0.1280296E+00
         21   -1    0    0  503  502  0.00000000000E+00  0.00000000000E+00  0.13683331373E+03  0.13683331373E+03  0.00000000000E+00 0. -1.
         21   -1    0    0  501  503 -0.00000000000E+00 -0.00000000000E+00 -0.24142041958E+03  0.24142041958E+03  0.00000000000E+00 0. -1.
          6    1    1    2  501    0 -0.93918478158E-01 -0.55634083093E+02 -0.55616206329E+02  0.19004557987E+03  0.17300000000E+03 0. -1.
         -6    1    1    2    0  502  0.93918478158E-01  0.55634083093E+02 -0.48970899515E+02  0.18820815344E+03  0.17300000000E+03 0. -1.
</event>
<event>
 4    1  0.6069433E+000  0.1000000E+03  0.7546771E-02  0.1280296E+00
         21   -1    0    0  503  502  0.00000000000E+00  0.00000000000E+00  0.54044159607E+02  0.54044159607E+02  0.00000000000E+00 0. -1.
         21   -1    0    0  501  503 -0.00000000000E+00 -0.00000000000E+00 -0.83508353460E+03  0.83508353460E+03  0.00000000000E+00 0. -1.
          6    1    1    2  501    0  0.89537316909E+02 -0.19404348577E+02 -0.56319655736E+03  0.59624895982E+03  0.17300000000E+03 0. -1.
         -6    1    1    2    0  502 -0.89537316909E+02  0.19404348577E+02 -0.21784281763E+03  0.29287873439E+03  0.17300000000E+03 0. -1.
</event>
<event>
 4    1  0.6069433E+000  0.1000000E+03  0.7546771E-02  0.1280296E+00
         21   -1    0    0  501  502  0.00000000000E+00  0.00000000000E+00  0.16266770222E+04  0.16266770222E+04  0.00000000000E+00 0. -1.
         21   -1    0    0  502  503 -0.00000000000E+00 -0.00000000000E+00 -0.23634727378E+02  0.23634727378E+02  0.00000000000E+00 0.  1.
          6    1    1    2  501    0 -0.67712791902E+01  0.27532018653E+00  0.11888510356E+04  0.12013915727E+04  0.17300000000E+03 0. -1.
         -6    1    1    2    0  503  0.67712791902E+01 -0.27532018653E+00  0.41419125922E+03  0.44892017691E+03  0.17300000000E+03 0.  1.
</event>
<event>
 4    1  0.6069433E+000  0.1000000E+03  0.7546771E-02  0.1280296E+00
         21   -1    0    0  501  502  0.00000000000E+00  0.00000000000E+00  0.26474476714E+03  0.26474476714E+03  0.00000000000E+00 0. -1.
         21   -1    0    0  502  503 -0.00000000000E+00 -0.00000000000E+00 -0.13520588274E+03  0.13520588274E+03  0.00000000000E+00 0.  1.
          6    1    1    2  501    0 -0.62316968535E+02 -0.21800894024E+02  0.10580632266E+03  0.21326664404E+03  0.17300000000E+03 0. -1.
         -6    1    1    2    0  503  0.62316968535E+02  0.21800894024E+02  0.23732561744E+02  0.18668400584E+03  0.17300000000E+03 0. -1.
</event>
<event>
 4    1  0.6069433E+000  0.1000000E+03  0.7546771E-02  0.1280296E+00
         21   -1    0    0  501  502  0.00000000000E+00  0.00000000000E+00  0.68290841459E+03  0.68290841459E+03  0.00000000000E+00 0.  1.
         21   -1    0    0  502  503 -0.00000000000E+00 -0.00000000000E+00 -0.11618234043E+03  0.11618234043E+03  0.00000000000E+00 0. -1.
          6    1    1    2  501    0 -0.13770513178E+03  0.17445573834E+03  0.28892763006E+03  0.40349186283E+03  0.17300000000E+03 0.  1.
         -6    1    1    2    0  503  0.13770513178E+03 -0.17445573834E+03  0.27779844410E+03  0.39559889219E+03  0.17300000000E+03 0. -1.
</event>
<event>
 4    1  0.6069433E+000  0.1000000E+03  0.7546771E-02  0.1280296E+00
         21   -1    0    0  503  502  0.00000000000E+00  0.00000000000E+00  0.45025365442E+03  0.45025365442E+03  0.00000000000E+00 0.  1.
         21   -1    0    0  501  503 -0.00000000000E+00 -0.00000000000E+00 -0.12784046932E+03  0.12784046932E+03  0.00000000000E+00 0.  1.
          6    1    1    2  501    0  0.41229574810E+02  0.12495147431E+03  0.38823268923E+02  0.22079174573E+03  0.17300000000E+03 0.  1.
         -6    1    1    2    0  502 -0.41229574810E+02 -0.12495147431E+03  0.28358991618E+03  0.35730237801E+03  0.17300000000E+03 0.  1.
</event>
<event>
 4    1  0.6069433E+000  0.1000000E+03  0.7546771E-02  0.1280296E+00
         21   -1    0    0  503  502  0.00000000000E+00  0.00000000000E+00  0.32085207078E+02  0.32085207078E+02  0.00000000000E+00 0.  1.
         21   -1    0    0  501  503 -0.00000000000E+00 -0.00000000000E+00 -0.12378511023E+04  0.12378511023E+04  0.00000000000E+00 0.  1.
          6    1    1    2  501    0  0.34187718386E+02  0.87639782079E+02 -0.70047350855E+03  0.72762742366E+03  0.17300000000E+03 0.  1.
         -6    1    1    2    0  502 -0.34187718386E+02 -0.87639782079E+02 -0.50529238664E+03  0.54230888568E+03  0.17300000000E+03 0.  1.
</event>
<event>
 4    1  0.6069433E+000  0.1000000E+03  0.7546771E-02  0.1280296E+00
         21   -1    0    0  503  502  0.00000000000E+00  0.00000000000E+00  0.23720477496E+03  0.23720477496E+03  0.00000000000E+00 0. -1.
         21   -1    0    0  501  503 -0.00000000000E+00 -0.00000000000E+00 -0.27515171029E+03  0.27515171029E+03  0.00000000000E+00 0. -1.
          6    1    1    2  501    0  0.61593497016E+02 -0.47673526600E+02 -0.19053461938E+03  0.26888466895E+03  0.17300000000E+03 0. -1.
         -6    1    1    2    0  502 -0.61593497016E+02  0.47673526600E+02  0.15258768404E+03  0.24347181630E+03  0.17300000000E+03 0. -1.
</event>
<event>
 4    1  0.6069433E+000  0.1000000E+03  0.7546771E-02  0.1280296E+00
         21   -1    0    0  503  502  0.00000000000E+00  0.00000000000E+00  0.40990401645E+03  0.40990401645E+03  0.00000000000E+00 0.  1.
         21   -1    0    0  501  503 -0.00000000000E+00 -0.00000000000E+00 -0.27756941170E+03  0.27756941170E+03  0.00000000000E+00 0.  1.
          6    1    1    2  501    0 -0.20433749258E+03 -0.36838432505E+01 -0.14287738870E+03  0.30349683652E+03  0.17300000000E+03 0.  1.
         -6    1    1    2    0  502  0.20433749258E+03  0.36838432505E+01  0.27521199346E+03  0.38397659163E+03  0.17300000000E+03 0.  1.
</event>
<event>
 4    1  0.6069433E+000  0.1000000E+03  0.7546771E-02  0.1280296E+00
         21   -1    0    0  503  502  0.00000000000E+00  0.00000000000E+00  0.17021018352E+03  0.17021018352E+03  0.00000000000E+00 0.  1.
         21   -1    0    0  501  503 -0.00000000000E+00 -0.00000000000E+00 -0.22539827878E+03  0.22539827878E+03  0.00000000000E+00 0.  1.
          6    1    1    2  501    0 -0.12147826519E+02 -0.64330064414E+02 -0.92651895887E+02  0.20687991852E+03  0.17300000000E+03 0.  1.
         -6    1    1    2    0  502  0.12147826519E+02  0.64330064414E+02  0.37463800625E+02  0.18872854377E+03  0.17300000000E+03 0.  1.
</event>
<event>
 4    1  0.6069433E+000  0.1000000E+03  0.7546771E-02  0.1280296E+00
         21   -1    0    0  503  502  0.00000000000E+00  0.00000000000E+00  0.14440878181E+04  0.14440878181E+04  0.00000000000E+00 0.  1.
         21   -1    0    0  501  503 -0.00000000000E+00 -0.00000000000E+00 -0.65680790497E+02  0.65680790497E+02  0.00000000000E+00 0.  1.
          6    1    1    2  501    0 -0.74854154878E+02 -0.50394045076E+02  0.10515206287E+03  0.22164986038E+03  0.17300000000E+03 0.  1.
         -6    1    1    2    0  502  0.74854154878E+02  0.50394045076E+02  0.12732549647E+04  0.12881187482E+04  0.17300000000E+03 0.  1.
</event>
<event>
 4    1  0.6069433E+000  0.1000000E+03  0.7546771E-02  0.1280296E+00
         21   -1    0    0  503  502  0.00000000000E+00  0.00000000000E+00  0.51697403985E+03  0.51697403985E+03  0.00000000000E+00 0.  1.
         21   -1    0    0  501  503 -0.00000000000E+00 -0.00000000000E+00 -0.64351221716E+02  0.64351221716E+02  0.00000000000E+00 0.  1.
          6    1    1    2  501    0 -0.25089926093E+01  0.56623985730E+02  0.20839927587E+03  0.27671615238E+03  0.17300000000E+03 0.  1.
         -6    1    1    2    0  502  0.25089926093E+01 -0.56623985730E+02  0.24422354226E+03  0.30460910918E+03  0.17300000000E+03 0.  1.
</event>
<event>
 4    1  0.6069433E+000  0.1000000E+03  0.7546771E-02  0.1280296E+00
         21   -1    0    0  503  502  0.00000000000E+00  0.00000000000E+00  0.73012033821E+03  0.73012033821E+03  0.00000000000E+00 0.  1.
         21   -1    0    0  501  503 -0.00000000000E+00 -0.00000000000E+00 -0.50898518202E+02  0.50898518202E+02  0.00000000000E+00 0.  1.
          6    1    1    2  501    0  0.26260757956E+02 -0.79305846156E+02  0.37189566253E+03  0.41858622582E+03  0.17300000000E+03 0.  1.
         -6    1    1    2    0  502 -0.26260757956E+02  0.79305846156E+02  0.30732615748E+03  0.36243263059E+03  0.17300000000E+03 0.  1.
</event>
<event>
 4    1  0.6069433E+000  0.1000000E+03  0.7546771E-02  0.1280296E+00
         21   -1    0    0  501  502  0.00000000000E+00  0.00000000000E+00  0.16396065643E+04  0.16396065643E+04  0.00000000000E+00 0.  1.
         21   -1    0    0  502  503 -0.00000000000E+00 -0.00000000000E+00 -0.21472960976E+02  0.21472960976E+02  0.00000000000E+00 0.  1.
          6    1    1    2  501    0  0.38895518996E+02 -0.58832575019E+02  0.73188149551E+03  0.75535002267E+03  0.17300000000E+03 0.  1.
         -6    1    1    2    0  503 -0.38895518996E+02  0.58832575019E+02  0.88625210783E+03  0.90572950262E+03  0.17300000000E+03 0.  1.
</event>
<event>
 4    1  0.6069433E+000  0.1000000E+03  0.7546771E-02  0.1280296E+00
         21   -1    0    0  501  502  0.00000000000E+00  0.00000000000E+00  0.10490561517E+03  0.10490561517E+03  0.00000000000E+00 0.  1.
         21   -1    0    0  502  503 -0.00000000000E+00 -0.00000000000E+00 -0.10941746588E+04  0.10941746588E+04  0.00000000000E+00 0.  1.
          6    1    1    2  501    0 -0.10161292940E+03 -0.74788417030E+02 -0.30008469608E+02  0.21621286500E+03  0.17300000000E+03 0.  1.
         -6    1    1    2    0  503  0.10161292940E+03  0.74788417030E+02 -0.95926057405E+03  0.98286740899E+03  0.17300000000E+03 0.  1.
</event>
<event>
 4    1  0.6069433E+000  0.1000000E+03  0.7546771E-02  0.1280296E+00
         21   -1    0    0  501  502  0.00000000000E+00  0.00000000000E+00  0.11319622707E+04  0.11319622707E+04  0.00000000000E+00 0. -1.
         21   -1    0    0  502  503 -0.00000000000E+00 -0.00000000000E+00 -0.75286168987E+02  0.75286168987E+02  0.00000000000E+00 0.  1.
          6    1    1    2  501    0  0.10708140382E+03  0.12234321374E+02  0.96046812941E+03  0.98185749132E+03  0.17300000000E+03 0.  1.
         -6    1    1    2    0  503 -0.10708140382E+03 -0.12234321374E+02  0.96207972285E+02  0.22539094834E+03  0.17300000000E+03 0. -1.
</event>
<event>
 4    1  0.6069433E+000  0.1000000E+03  0.7546771E-02  0.1280296E+00
         21   -1    0    0  503  502  0.00000000000E+00  0.00000000000E+00  0.14972531138E+03  0.14972531138E+03  0.00000000000E+00 0. -1.
         21   -1    0    0  501  503 -0.00000000000E+00 -0.00000000000E+00 -0.29329217745E+03  0.29329217745E+03  0.00000000000E+00 0. -1.
          6    1    1    2  501    0  0.97742917587E+02  0.39739716518E+02 -0.12822739554E+03  0.23980030854E+03  0.17300000000E+03 0. -1.
         -6    1    1    2    0  502 -0.97742917587E+02 -0.39739716518E+02 -0.15339470533E+02  0.20321718029E+03  0.17300000000E+03 0. -1.
</event>
<event>
 4    1  0.6069433E+000  0.1000000E+03  0.7546771E-02  0.1280296E+00
         21   -1    0    0  503  502  0.00000000000E+00  0.00000000000E+00  0.11460509434E+03  0.11460509434E+03  0.00000000000E+00 0. -1.
         21   -1    0    0  501  503 -0.00000000000E+00 -0.00000000000E+00 -0.95957952617E+03  0.95957952617E+03  0.00000000000E+00 0. -1.
          6    1    1    2  501    0 -0.58658288588E+02  0.49900770792E+02 -0.86340047265E+03  0.88392321947E+03  0.17300000000E+03 0. -1.
         -6    1    1    2    0  502  0.58658288588E+02 -0.49900770792E+02  0.18426040824E+02  0.19026140104E+03  0.17300000000E+03 0. -1.
</event>
<event>
 4    1  0.6069433E+000  0.1000000E+03  0.7546771E-02  0.1280296E+00
         21   -1    0    0  501  502  0.00000000000E+00  0.00000000000E+00  0.54232680476E+02  0.54232680476E+02  0.00000000000E+00 0.  1.
         21   -1    0    0  502  503 -0.00000000000E+00 -0.00000000000E+00 -0.20326991086E+04  0.20326991086E+04  0.00000000000E+00 0.  1.
          6    1    1    2  501    0 -0.44268186109E+01 -0.27910118060E+03 -0.83550582042E+03  0.89772826718E+03  0.17300000000E+03 0.  1.
         -6    1    1    2    0  503  0.44268186109E+01  0.27910118060E+03 -0.11429606077E+04  0.11892035219E+04  0.17300000000E+03 0.  1.
</event>
<event>
 4    1  0.6069433E+000  0.1000000E+03  0.7546771E-02  0.1280296E+00
         21   -1    0    0  503  502  0.00000000000E+00  0.00000000000E+00  0.36850389756E+03  0.36850389756E+03  0.00000000000E+00 0. -1.
         21   -1    0    0  501  503 -0.00000000000E+00 -0.00000000000E+00 -0.54677348068E+03  0.54677348068E+03  0.00000000000E+00 0. -1.
          6    1    1    2  501    0 -0.38053658433E+03 -0.16013745707E+03 -0.12305697911E+03  0.46424575095E+03  0.17300000000E+03 0. -1.
         -6    1    1    2    0  502  0.38053658433E+03  0.16013745707E+03 -0.55212604007E+02  0.45103162729E+03  0.17300000000E+03 0. -1.
</event>
<event>
 4    1  0.6069433E+000  0.1000000E+03  0.7546771E-02  0.1280296E+00
         21   -1    0    0  503  502  0.00000000000E+00  0.00000000000E+00  0.20526063322E+03  0.20526063322E+03  0.00000000000E+00 0. -1.
         21   -1    0    0  501  503 -0.00000000000E+00 -0.00000000000E+00 -0.22158859436E+03  0.22158859436E+03  0.00000000000E+00 0. -1.
          6    1    1    2  501    0 -0.92603346107E+02 -0.78215080647E+02 -0.37535718270E+02  0.21454815007E+03  0.17300000000E+03 0. -1.
         -6    1    1    2    0  502  0.92603346107E+02  0.78215080647E+02  0.21207757124E+02  0.21230107751E+03  0.17300000000E+03 0. -1.
</event>
<event>
 4    1  0.6069433E+000  0.1000000E+03  0.7546771E-02  0.1280296E+00
         21   -1    0    0  503  502  0.00000000000E+00  0.00000000000E+00  0.11363154980E+04  0.11363154980E+04  0.00000000000E+00 0. -1.
         21   -1    0    0  501  503 -0.00000000000E+00 -0.00000000000E+00 -0.92719651577E+02  0.92719651577E+02  0.00000000000E+00 0. -1.
          6    1    1    2  501    0  0.14539327442E+02  0.46623670242E+02  0.10124264596E+02  0.18004627017E+03  0.17300000000E+03 0. -1.
         -6    1    1    2    0  502 -0.14539327442E+02 -0.46623670242E+02  0.10334715818E+04  0.10489888794E+04  0.17300000000E+03 0. -1.
</event>
<event>
 4    1  0.6069433E+000  0.1000000E+03  0.7546771E-02  0.1280296E+00
         21   -1    0    0  501  502  0.00000000000E+00  0.00000000000E+00  0.46233895048E+03  0.46233895048E+03  0.00000000000E+00 0. -1.
         21   -1    0    0  502  503 -0.00000000000E+00 -0.00000000000E+00 -0.95789287912E+02  0.95789287912E+02  0.00000000000E+00 0.  1.
          6    1    1    2  501    0 -0.56434459536E+02 -0.61946504928E+01  0.32320404289E+03  0.37096236366E+03  0.17300000000E+03 0. -1.
         -6    1    1    2    0  503  0.56434459536E+02  0.61946504928E+01  0.43345619685E+02  0.18716587473E+03  0.17300000000E+03 0.  1.
</event>
<event>
 4    1  0.6069433E+000  0.1000000E+03  0.7546771E-02  0.1280296E+00
         21   -1    0    0  503  502  0.00000000000E+00  0.00000000000E+00  0.71265073122E+02  0.71265073122E+02  0.00000000000E+00 0. -1.
         21   -1    0    0  501  503 -0.00000000000E+00 -0.00000000000E+00 -0.64052802898E+03  0.64052802898E+03  0.00000000000E+00 0. -1.
          6    1    1    2  501    0 -0.44330504800E+02 -0.55341019449E+02 -0.45686371075E+03  0.49364083329E+03  0.17300000000E+03 0. -1.
         -6    1    1    2    0  502  0.44330504800E+02  0.55341019449E+02 -0.11239924512E+03  0.21815226882E+03  0.17300000000E+03 0. -1.
</event>
<event>
 4    1  0.6069433E+000  0.1000000E+03  0.7546771E-02  0.1280296E+00
         21   -1    0    0  501  502  0.00000000000E+00  0.00000000000E+00  0.10599644107E+03  0.10599644107E+03  0.00000000000E+00 0.  1.
         21   -1    0    0  502  503 -0.00000000000E+00 -0.00000000000E+00 -0.33765243579E+03  0.33765243579E+03  0.00000000000E+00 0.  1.
          6    1    1    2  501    0 -0.22276848768E+01  0.28769695755E+02 -0.32682385680E+02  0.17840907014E+03  0.17300000000E+03 0. -1.
         -6    1    1    2    0  503  0.22276848768E+01 -0.28769695755E+02 -0.19897360904E+03  0.26523980672E+03  0.17300000000E+03 0. -1.
</event>
<event>
 4    1  0.6069433E+000  0.1000000E+03  0.7546771E-02  0.1280296E+00
         21   -1    0    0  501  502  0.00000000000E+00  0.00000000000E+00  0.59040699009E+03  0.59040699009E+03  0.00000000000E+00 0. -1.
         21   -1    0    0  502  503 -0.00000000000E+00 -0.00000000000E+00 -0.87354019327E+02  0.87354019327E+02  0.00000000000E+00 0. -1.
          6    1    1    2  501    0 -0.75827325268E+02 -0.18446195722E+02  0.65416497267E+02  0.20074452299E+03  0.17300000000E+03 0. -1.
         -6    1    1    2    0  503  0.75827325268E+02  0.18446195722E+02  0.43763647350E+03  0.47701648643E+03  0.17300000000E+03 0. -1.
</event>
<event>
 4    1  0.6069433E+000  0.1000000E+03  0.7546771E-02  0.1280296E+00
         21   -1    0    0  501  502  0.00000000000E+00  0.00000000000E+00  0.29823306745E+03  0.29823306745E+03  0.00000000000E+00 0. -1.
         21   -1    0    0  502  503 -0.00000000000E+00 -0.00000000000E+00 -0.10763490889E+04  0.10763490889E+04  0.00000000000E+00 0. -1.
          6    1    1    2  501    0  0.34189417115E+02 -0.43329789463E+02  0.26197530705E+03  0.31875766407E+03  0.17300000000E+03 0. -1.
         -6    1    1    2    0  503 -0.34189417115E+02  0.43329789463E+02 -0.10400913285E+04  0.10558244922E+04  0.17300000000E+03 0. -1.
</event>
<event>
 4    1  0.6069433E+000  0.1000000E+03  0.7546771E-02  0.1280296E+00
         21   -1    0    0  501  502  0.00000000000E+00  0.00000000000E+00  0.27955837711E+03  0.27955837711E+03  0.00000000000E+00 0. -1.
         21   -1    0    0  502  503 -0.00000000000E+00 -0.00000000000E+00 -0.40207505564E+03  0.40207505564E+03  0.00000000000E+00 0.  1.
          6    1    1    2  501    0  0.12478494040E+03  0.25831374135E+03 -0.74789593711E+02  0.34324882178E+03  0.17300000000E+03 0. -1.
         -6    1    1    2    0  503 -0.12478494040E+03 -0.25831374135E+03 -0.47727084814E+02  0.33838461098E+03  0.17300000000E+03 0. -1.
</event>
<event>
 4    1  0.6069433E+000  0.1000000E+03  0.7546771E-02  0.1280296E+00
         21   -1    0    0  503  502  0.00000000000E+00  0.00000000000E+00  0.36596200069E+02  0.36596200069E+02  0.00000000000E+00 0.  1.
         21   -1    0    0  501  503 -0.00000000000E+00 -0.00000000000E+00 -0.10809464995E+04  0.10809464995E+04  0.00000000000E+00 0.  1.
          6    1    1    2  501    0  0.18900258174E+02  0.74004955153E+02 -0.34909264234E+03  0.39702471721E+03  0.17300000000E+03 0. -1.
         -6    1    1    2    0  502 -0.18900258174E+02 -0.74004955153E+02 -0.69525765706E+03  0.72051798232E+03  0.17300000000E+03 0. -1.
</event>
<event>
 4    1  0.6069433E+000  0.1000000E+03  0.7546771E-02  0.1280296E+00
         21   -1    0    0  501  502  0.00000000000E+00  0.00000000000E+00  0.45045186930E+03  0.45045186930E+03  0.00000000000E+00 0. -1.
         21   -1    0    0  502  503 -0.00000000000E+00 -0.00000000000E+00 -0.86894679269E+02  0.86894679269E+02  0.00000000000E+00 0.  1.
          6    1    1    2  501    0  0.75196984546E+02  0.59494897116E+02  0.18764191264E+03  0.27264026967E+03  0.17300000000E+03 0. -1.
         -6    1    1    2    0  503 -0.75196984546E+02 -0.59494897116E+02  0.17591527739E+03  0.26470627890E+03  0.17300000000E+03 0. -1.
</event>
<event>
 4    1  0.6069433E+000  0.1000000E+03  0.7546771E-02  0.1280296E+00
         21   -1    0    0  501  502  0.00000000000E+00  0.00000000000E+00  0.50274696198E+02  0.50274696198E+02  0.00000000000E+00 0. -1.
         21   -1    0    0  502  503 -0.00000000000E+00 -0.00000000000E+00 -0.69308349455E+03  0.69308349455E+03  0.00000000000E+00 0.  1.
          6    1    1    2  501    0 -0.97097556962E+01  0.69341207959E+02 -0.32860549718E+03  0.37790614609E+03  0.17300000000E+03 0. -1.
         -6    1    1    2    0  503  0.97097556962E+01 -0.69341207959E+02 -0.31420330117E+03  0.36545204466E+03  0.17300000000E+03 0. -1.
</event>
<event>
 4    1  0.6069433E+000  0.1000000E+03  0.7546771E-02  0.1280296E+00
         21   -1    0    0  501  502  0.00000000000E+00  0.00000000000E+00  0.18168891418E+03  0.18168891418E+03  0.00000000000E+00 0.  1.
         21   -1    0    0  502  503 -0.00000000000E+00 -0.00000000000E+00 -0.56953958463E+03  0.56953958463E+03  0.00000000000E+00 0. -1.
          6    1    1    2  501    0 -0.17425884100E+02 -0.47552431878E+02  0.11717436263E+03  0.21499703828E+03  0.17300000000E+03 0. -1.
         -6    1    1    2    0  503  0.17425884100E+02  0.47552431878E+02 -0.50502503308E+03  0.53623146052E+03  0.17300000000E+03 0.  1.
</event>
<event>
 4    1  0.6069433E+000  0.1000000E+03  0.7546771E-02  0.1280296E+00
         21   -1    0    0  503  502  0.00000000000E+00  0.00000000000E+00  0.14170712501E+04  0.14170712501E+04  0.00000000000E+00 0.  1.
         21   -1    0    0  501  503 -0.00000000000E+00 -0.00000000000E+00 -0.83968767489E+02  0.83968767489E+02  0.00000000000E+00 0. -1.
          6    1    1    2  501    0 -0.66115052916E+02 -0.10464009018E+03  0.75725997428E+02  0.22579675680E+03  0.17300000000E+03 0. -1.
         -6    1    1    2    0  502  0.66115052916E+02  0.10464009018E+03  0.12573764851E+04  0.12752432607E+04  0.17300000000E+03 0.  1.
</event>
<event>
 4    1  0.6069433E+000  0.1000000E+03  0.7546771E-02  0.1280296E+00
         21   -1    0    0  503  502  0.00000000000E+00  0.00000000000E+00  0.50713017116E+02  0.50713017116E+02  0.00000000000E+00 0. -1.
         21   -1    0    0  501  503 -0.00000000000E+00 -0.00000000000E+00 -0.16400614087E+04  0.16400614087E+04  0.00000000000E+00 0. -1.
          6    1    1    2  501    0 -0.90178987486E+02 -0.11518803400E+03 -0.13177593587E+04  0.13370935870E+04  0.17300000000E+03 0. -1.
         -6    1    1    2    0  502  0.90178987486E+02  0.11518803400E+03 -0.27158903289E+03  0.35368083882E+03  0.17300000000E+03 0. -1.
</event>
<event>
 4    1  0.6069433E+000  0.1000000E+03  0.7546771E-02  0.1280296E+00
         21   -1    0    0  503  502  0.00000000000E+00  0.00000000000E+00  0.11715504792E+03  0.11715504792E+03  0.00000000000E+00 0. -1.
         21   -1    0    0  501  503 -0.00000000000E+00 -0.00000000000E+00 -0.62922673056E+03  0.62922673056E+03  0.00000000000E+00 0. -1.
          6    1    1    2  501    0 -0.49442073221E+02 -0.19502135594E+03 -0.33511766610E+03  0.42744671950E+03  0.17300000000E+03 0. -1.
         -6    1    1    2    0  502  0.49442073221E+02  0.19502135594E+03 -0.17695401654E+03  0.31893505898E+03  0.17300000000E+03 0. -1.
</event>
<event>
 4    1  0.6069433E+000  0.1000000E+03  0.7546771E-02  0.1280296E+00
         21   -1    0    0  503  502  0.00000000000E+00  0.00000000000E+00  0.61135466015E+03  0.61135466015E+03  0.00000000000E+00 0. -1.
         21   -1    0    0  501  503 -0.00000000000E+00 -0.00000000000E+00 -0.99263784980E+02  0.99263784980E+02  0.00000000000E+00 0. -1.
          6    1    1    2  501    0  0.10587833360E+03 -0.13403779130E+03  0.19871349755E+03  0.31399427564E+03  0.17300000000E+03 0. -1.
         -6    1    1    2    0  502 -0.10587833360E+03  0.13403779130E+03  0.31337737762E+03  0.39662416950E+03  0.17300000000E+03 0. -1.
</event>
<event>
 4    1  0.6069433E+000  0.1000000E+03  0.7546771E-02  0.1280296E+00
         21   -1    0    0  501  502  0.00000000000E+00  0.00000000000E+00  0.22673098527E+03  0.22673098527E+03  0.00000000000E+00 0.  1.
         21   -1    0    0  502  503 -0.00000000000E+00 -0.00000000000E+00 -0.20424929196E+03  0.20424929196E+03  0.00000000000E+00 0.  1.
          6    1    1    2  501    0 -0.88285970498E+02 -0.73811730293E+02  0.67335599861E+02  0.21841627028E+03  0.17300000000E+03 0.  1.
         -6    1    1    2    0  503  0.88285970498E+02  0.73811730293E+02 -0.44853906557E+02  0.21256400695E+03  0.17300000000E+03 0.  1.
</event>
<event>
 4    1  0.6069433E+000  0.1000000E+03  0.7546771E-02  0.1280296E+00
         21   -1    0    0  503  502  0.00000000000E+00  0.00000000000E+00  0.12957326656E+03  0.12957326656E+03  0.00000000000E+00 0. -1.
         21   -1    0    0  501  503 -0.00000000000E+00 -0.00000000000E+00 -0.15741880865E+04  0.15741880865E+04  0.00000000000E+00 0.  1.
          6    1    1    2  501    0 -0.29106580269E+03  0.25664329478E+03 -0.10112049827E+04  0.10968361771E+04  0.17300000000E+03 0.  1.
         -6    1    1    2    0  502  0.29106580269E+03 -0.25664329478E+03 -0.43340983721E+03  0.60692517599E+03  0.17300000000E+03 0. -1.
</event>
<event>
 4    1  0.6069433E+000  0.1000000E+03  0.7546771E-02  0.1280296E+00
         21   -1    0    0  503  502  0.00000000000E+00  0.00000000000E+00  0.80332150946E+02  0.80332150946E+02  0.00000000000E+00 0. -1.
         21   -1    0    0  501  503 -0.00000000000E+00 -0.00000000000E+00 -0.55124446671E+03  0.55124446671E+03  0.00000000000E+00 0.  1.
          6    1    1    2  501    0 -0.11246281787E+01 -0.70485231176E+02 -0.38082734735E+03  0.42417909082E+03  0.17300000000E+03 0.  1.
         -6    1    1    2    0  502  0.11246281787E+01  0.70485231176E+02 -0.90084968417E+02  0.20739752683E+03  0.17300000000E+03 0. -1.
</event>
<event>
 4    1  0.6069433E+000  0.1000000E+03  0.7546771E-02  0.1280296E+00
         21   -1    0    0  503  502  0.00000000000E+00  0.00000000000E+00  0.64113952834E+02  0.64113952834E+02  0.00000000000E+00 0. -1.
         21   -1    0    0  501  503 -0.00000000000E+00 -0.00000000000E+00 -0.53552014064E+03  0.53552014064E+03  0.00000000000E+00 0.  1.
          6    1    1    2  501    0 -0.59577535274E+02  0.27633322024E+02 -0.25124226597E+03  0.31203326651E+03  0.17300000000E+03 0.  1.
         -6    1    1    2    0  502  0.59577535274E+02 -0.27633322024E+02 -0.22016392183E+03  0.28760082697E+03  0.17300000000E+03 0. -1.
</event>
<event>
 4    1  0.6069433E+000  0.1000000E+03  0.7546771E-02  0.1280296E+00
         21   -1    0    0  501  502  0.00000000000E+00  0.00000000000E+00  0.41680406048E+03  0.41680406048E+03  0.00000000000E+00 0. -1.
         21   -1    0    0  502  503 -0.00000000000E+00 -0.00000000000E+00 -0.36171910219E+03  0.36171910219E+03  0.00000000000E+00 0. -1.
          6    1    1    2  501    0  0.10039221473E+03 -0.18976972512E+03  0.30162628643E+03  0.40865457542E+03  0.17300000000E+03 0. -1.
         -6    1    1    2    0  503 -0.10039221473E+03  0.18976972512E+03 -0.24654132814E+03  0.36986858724E+03  0.17300000000E+03 0. -1.
</event>
<event>
 4    1  0.6069433E+000  0.1000000E+03  0.7546771E-02  0.1280296E+00
         21   -1    0    0  501  502  0.00000000000E+00  0.00000000000E+00  0.10188399605E+04  0.10188399605E+04  0.00000000000E+00 0. -1.
         21   -1    0    0  502  503 -0.00000000000E+00 -0.00000000000E+00 -0.39918299861E+02  0.39918299861E+02  0.00000000000E+00 0. -1.
          6    1    1    2  501    0  0.20720927871E+02 -0.52075844012E+02  0.71830387321E+03  0.74096606174E+03  0.17300000000E+03 0. -1.
         -6    1    1    2    0  503 -0.20720927871E+02  0.52075844012E+02  0.26061778743E+03  0.31779219863E+03  0.17300000000E+03 0. -1.
</event>
<event>
 4    1  0.6069433E+000  0.1000000E+03  0.7546771E-02  0.1280296E+00
         21   -1    0    0  503  502  0.00000000000E+00  0.00000000000E+00  0.47583004569E+03  0.47583004569E+03  0.00000000000E+00 0.  1.
         21   -1    0    0  501  503 -0.00000000000E+00 -0.00000000000E+00 -0.88212996624E+02  0.88212996624E+02  0.00000000000E+00 0.  1.
          6    1    1    2  501    0 -0.46200788270E+02  0.62313332860E+02  0.86934016218E+02  0.20857609514E+03  0.17300000000E+03 0.  1.
         -6    1    1    2    0  502  0.46200788270E+02 -0.62313332860E+02  0.30068303285E+03  0.35546694717E+03  0.17300000000E+03 0.  1.
</event>
<event>
 4    1  0.6069433E+000  0.1000000E+03  0.7546771E-02  0.1280296E+00
         21   -1    0    0  503  502  0.00000000000E+00  0.00000000000E+00  0.13460760699E+03  0.13460760699E+03  0.00000000000E+00 0. -1.
         21   -1    0    0  501  503 -0.00000000000E+00 -0.00000000000E+00 -0.41807715285E+03  0.41807715285E+03  0.00000000000E+00 0. -1.
          6    1    1    2  501    0 -0.10573488989E+03 -0.11885702828E+03 -0.10415911843E+03  0.25706999449E+03  0.17300000000E+03 0. -1.
         -6    1    1    2    0  502  0.10573488989E+03  0.11885702828E+03 -0.17931042743E+03  0.29561476536E+03  0.17300000000E+03 0. -1.
</event>
<event>
 4    1  0.6069433E+000  0.1000000E+03  0.7546771E-02  0.1280296E+00
         21   -1    0    0  503  502  0.00000000000E+00  0.00000000000E+00  0.58294064337E+03  0.58294064337E+03  0.00000000000E+00 0. -1.
         21   -1    0    0  501  503 -0.00000000000E+00 -0.00000000000E+00 -0.32397045256E+03  0.32397045256E+03  0.00000000000E+00 0. -1.
          6    1    1    2  501    0  0.38180436985E+02 -0.21115179137E+03 -0.22109358790E+03  0.35334713721E+03  0.17300000000E+03 0. -1.
         -6    1    1    2    0  502 -0.38180436985E+02  0.21115179137E+03  0.48006377871E+03  0.55356395872E+03  0.17300000000E+03 0. -1.
</event>
<event>
 4    1  0.6069433E+000  0.1000000E+03  0.7546771E-02  0.1280296E+00
         21   -1    0    0  503  502  0.00000000000E+00  0.00000000000E+00  0.25568779684E+03  0.25568779684E+03  0.00000000000E+00 0. -1.
         21   -1    0    0  501  503 -0.00000000000E+00 -0.00000000000E+00 -0.15621722723E+03  0.15621722723E+03  0.00000000000E+00 0. -1.
          6    1    1    2  501    0  0.66697768836E+02  0.42829403202E+01 -0.27013746877E+02  0.18741845818E+03  0.17300000000E+03 0. -1.
         -6    1    1    2    0  502 -0.66697768836E+02 -0.42829403202E+01  0.12648431649E+03  0.22448656589E+03  0.17300000000E+03 0. -1.
</event>
<event>
 4    1  0.6069433E+000  0.1000000E+03  0.7546771E-02  0.1280296E+00
         21   -1    0    0  503  502  0.00000000000E+00  0.00000000000E+00  0.59248731110E+03  0.59248731110E+03  0.00000000000E+00 0. -1.
         21   -1    0    0  501  503 -0.00000000000E+00 -0.00000000000E+00 -0.91813805650E+02  0.91813805650E+02  0.00000000000E+00 0. -1.
          6    1    1    2  501    0  0.12840975178E+03 -0.25585365961E+02  0.12477642741E+03  0.25028350353E+03  0.17300000000E+03 0. -1.
         -6    1    1    2    0  502 -0.12840975178E+03  0.25585365961E+02  0.37589707803E+03  0.43401761321E+03  0.17300000000E+03 0. -1.
</event>
<event>
 4    1  0.6069433E+000  0.1000000E+03  0.7546771E-02  0.1280296E+00
         21   -1    0    0  503  502  0.00000000000E+00  0.00000000000E+00  0.22711143199E+03  0.22711143199E+03  0.00000000000E+00 0. -1.
         21   -1    0    0  501  503 -0.00000000000E+00 -0.00000000000E+00 -0.23220757814E+03  0.23220757814E+03  0.00000000000E+00 0. -1.
          6    1    1    2  501    0 -0.50417865360E+02  0.37721859406E+02 -0.13982667891E+03  0.23118261171E+03  0.17300000000E+03 0. -1.
         -6    1    1    2    0  502  0.50417865360E+02 -0.37721859406E+02  0.13473053276E+03  0.22813639842E+03  0.17300000000E+03 0. -1.
</event>
<event>
 4    1  0.6069433E+000  0.1000000E+03  0.7546771E-02  0.1280296E+00
         21   -1    0    0  501  502  0.00000000000E+00  0.00000000000E+00  0.87891821825E+03  0.87891821825E+03  0.00000000000E+00 0. -1.
         21   -1    0    0  502  503 -0.00000000000E+00 -0.00000000000E+00 -0.79160127042E+02  0.79160127042E+02  0.00000000000E+00 0.  1.
          6    1    1    2  501    0  0.98796750888E+02 -0.38748741755E+02  0.70585018702E+03  0.73444928313E+03  0.17300000000E+03 0. -1.
         -6    1    1    2    0  503 -0.98796750888E+02  0.38748741755E+02  0.93907904184E+02  0.22362906216E+03  0.17300000000E+03 0.  1.
</event>
<event>
 4    1  0.6069433E+000  0.1000000E+03  0.7546771E-02  0.1280296E+00
         21   -1    0    0  501  502  0.00000000000E+00  0.00000000000E+00  0.40884002303E+03  0.40884002303E+03  0.00000000000E+00 0. -1.
         21   -1    0    0  502  503 -0.00000000000E+00 -0.00000000000E+00 -0.99508079919E+02  0.99508079919E+02  0.00000000000E+00 0.  1.
          6    1    1    2  501    0  0.91627174523E+02  0.12970297829E+01  0.21584100238E+03  0.29139931315E+03  0.17300000000E+03 0. -1.
         -6    1    1    2    0  503 -0.91627174523E+02 -0.12970297829E+01  0.93490940740E+02  0.21694878980E+03  0.17300000000E+03 0.  1.
</event>
<event>
 4    1  0.6069433E+000  0.1000000E+03  0.7546771E-02  0.1280296E+00
         21   -1    0    0  501  502  0.00000000000E+00  0.00000000000E+00  0.45643917096E+03  0.45643917096E+03  0.00000000000E+00 0. -1.
         21   -1    0    0  502  503 -0.00000000000E+00 -0.00000000000E+00 -0.12443576852E+03  0.12443576852E+03  0.00000000000E+00 0.  1.
          6    1    1    2  501    0 -0.77775595955E+02 -0.74176085717E+02  0.31682853189E+03  0.37664366932E+03  0.17300000000E+03 0. -1.
         -6    1    1    2    0  503  0.77775595955E+02  0.74176085717E+02  0.15174870558E+02  0.20423127017E+03  0.17300000000E+03 0.  1.
</event>
<event>
 4    1  0.6069433E+000  0.1000000E+03  0.7546771E-02  0.1280296E+00
         21   -1    0    0  501  502  0.00000000000E+00  0.00000000000E+00  0.88493442128E+03  0.88493442128E+03  0.00000000000E+00 0. -1.
         21   -1    0    0  502  503 -0.00000000000E+00 -0.00000000000E+00 -0.56488319247E+02  0.56488319247E+02  0.00000000000E+00 0.  1.
          6    1    1    2  501    0 -0.56249094388E+02 -0.48204348596E+02  0.66836537064E+03  0.69435501620E+03  0.17300000000E+03 0. -1.
         -6    1    1    2    0  503  0.56249094388E+02  0.48204348596E+02  0.16008073139E+03  0.24706772433E+03  0.17300000000E+03 0.  1.
</event>
