<event>
 4    1  0.6104111E+000  0.1000000E+03  0.7546771E-02  0.1280296E+00
         21   -1    0    0  501  502  0.00000000000E+00  0.00000000000E+00  0.14303184282E+03  0.14303184282E+03  0.00000000000E+00 0. -1.
         21   -1    0    0  502  503 -0.00000000000E+00 -0.00000000000E+00 -0.28113730811E+03  0.28113730811E+03  0.00000000000E+00 0.  1.
          6    1    1    2  501    0  0.42628948075E+02 -0.18566077733E+02  0.26255224625E+02  0.18105320565E+03  0.17300000000E+03 0. -1.
         -6    1    1    2    0  503 -0.42628948075E+02  0.18566077733E+02 -0.16436068992E+03  0.24311594528E+03  0.17300000000E+03 0.  1.
</event>
<event>
 4    1  0.6104111E+000  0.1000000E+03  0.7546771E-02  0.1280296E+00
         21   -1    0    0  503  502  0.00000000000E+00  0.00000000000E+00  0.75808610684E+02  0.75808610684E+02  0.00000000000E+00 0. -1.
         21   -1    0    0  501  503 -0.00000000000E+00 -0.00000000000E+00 -0.72533921218E+03  0.72533921218E+03  0.00000000000E+00 0. -1.
          6    1    1    2  501    0  0.10607908587E+03 -0.10075599269E+03 -0.22151238050E+03  0.31686160581E+03  0.17300000000E+03 0. -1.
         -6    1    1    2    0  502 -0.10607908587E+03  0.10075599269E+03 -0.42801822100E+03  0.48428621705E+03  0.17300000000E+03 0. -1.
</event>
<event>
 4    1  0.6104111E+000  0.1000000E+03  0.7546771E-02  0.1280296E+00
         21   -1    0    0  503  502  0.00000000000E+00  0.00000000000E+00  0.20040115002E+04  0.20040115002E+04  0.00000000000E+00 0. -1.
         21   -1    0    0  501  503 -0.00000000000E+00 -0.00000000000E+00 -0.30094878454E+03  0.30094878454E+03  0.00000000000E+00 0. -1.
          6    1    1    2  501    0 -0.25991881507E+03  0.67243141237E+03  0.50842617550E+03  0.89897050602E+03  0.17300000000E+03 0. -1.
         -6    1    1    2    0  502  0.25991881507E+03 -0.67243141237E+03  0.11946365402E+04  0.14059897787E+04  0.17300000000E+03 0. -1.
</event>
<event>
 4    1  0.6104111E+000  0.1000000E+03  0.7546771E-02  0.1280296E+00
         21   -1    0    0  503  502  0.00000000000E+00  0.00000000000E+00  0.26230602218E+03  0.26230602218E+03  0.00000000000E+00 0. -1.
         21   -1    0    0  501  503 -0.00000000000E+00 -0.00000000000E+00 -0.92739564121E+03  0.92739564121E+03  0.00000000000E+00 0. -1.
          6    1    1    2  501    0  0.19457289840E+03  0.27458197032E+03 -0.71408650660E+03  0.80814751755E+03  0.17300000000E+03 0. -1.
         -6    1    1    2    0  502 -0.19457289840E+03 -0.27458197032E+03  0.48996887572E+02  0.38155414584E+03  0.17300000000E+03 0. -1.
</event>
<event>
 4    1  0.6104111E+000  0.1000000E+03  0.7546771E-02  0.1280296E+00
         21   -1    0    0  501  502  0.00000000000E+00  0.00000000000E+00  0.21678653958E+03  0.21678653958E+03  0.00000000000E+00 0.  1.
         21   -1    0    0  502  503 -0.00000000000E+00 -0.00000000000E+00 -0.25077833664E+03  0.25077833664E+03  0.00000000000E+00 0.  1.
          6    1    1    2  501    0  0.92154232054E+02 -0.75487024942E+02 -0.11848537051E+03  0.24116068594E+03  0.17300000000E+03 0.  1.
         -6    1    1    2    0  503 -0.92154232054E+02  0.75487024942E+02  0.84493573456E+02  0.22640419028E+03  0.17300000000E+03 0.  1.
</event>
<event>
 4    1  0.6104111E+000  0.1000000E+03  0.7546771E-02  0.1280296E+00
         21   -1    0    0  501  502  0.00000000000E+00  0.00000000000E+00  0.38641244376E+03  0.38641244376E+03  0.00000000000E+00 0.  1.
         21   -1    0    0  502  503 -0.00000000000E+00 -0.00000000000E+00 -0.28762988956E+03  0.28762988956E+03  0.00000000000E+00 0.  1.
          6    1    1    2  501    0 -0.21548980693E+03  0.27176643040E+02  0.23590533634E+03  0.36435525868E+03  0.17300000000E+03 0.  1.
         -6    1    1    2    0  503  0.21548980693E+03 -0.27176643040E+02 -0.13712278215E+03  0.30968707464E+03  0.17300000000E+03 0.  1.
</event>
<event>
 4    1  0.6104111E+000  0.1000000E+03  0.7546771E-02  0.1280296E+00
         21   -1    0    0  503  502  0.00000000000E+00  0.00000000000E+00  0.19204870982E+03  0.19204870982E+03  0.00000000000E+00 0. -1.
         21   -1    0    0  501  503 -0.00000000000E+00 -0.00000000000E+00 -0.21681160454E+03  0.21681160454E+03  0.00000000000E+00 0. -1.
          6    1    1    2  501    0 -0.84567732417E+02 -0.64269973207E+02 -0.33084838485E+02  0.20568407172E+03  0.17300000000E+03 0. -1.
         -6    1    1    2    0  502  0.84567732417E+02  0.64269973207E+02  0.83219437617E+01  0.20317624263E+03  0.17300000000E+03 0. -1.
</event>
<event>
 4    1  0.6104111E+000  0.1000000E+03  0.7546771E-02  0.1280296E+00
         21   -1    0    0  503  502  0.00000000000E+00  0.00000000000E+00  0.37658522811E+02  0.37658522811E+02  0.00000000000E+00 0. -1.
         21   -1    0    0  501  503 -0.00000000000E+00 -0.00000000000E+00 -0.10011957938E+04  0.10011957938E+04  0.00000000000E+00 0. -1.
          6    1    1    2  501    0  0.37234680971E+02 -0.75008421431E+02 -0.55560561263E+03  0.58791094695E+03  0.17300000000E+03 0. -1.
         -6    1    1    2    0  502 -0.37234680971E+02  0.75008421431E+02 -0.40793165835E+03  0.45094336966E+03  0.17300000000E+03 0. -1.
</event>
<event>
 4    1  0.6104111E+000  0.1000000E+03  0.7546771E-02  0.1280296E+00
         21   -1    0    0  503  502  0.00000000000E+00  0.00000000000E+00  0.81713787906E+03  0.81713787906E+03  0.00000000000E+00 0. -1.
         21   -1    0    0  501  503 -0.00000000000E+00 -0.00000000000E+00 -0.43313515214E+03  0.43313515214E+03  0.00000000000E+00 0. -1.
          6    1    1    2  501    0 -0.12799570777E+01  0.37608095000E+03 -0.25697409257E+03  0.48724039600E+03  0.17300000000E+03 0.  1.
         -6    1    1    2    0  502  0.12799570777E+01 -0.37608095000E+03  0.64097681949E+03  0.76303263519E+03  0.17300000000E+03 0.  1.
</event>
<event>
 4    1  0.6104111E+000  0.1000000E+03  0.7546771E-02  0.1280296E+00
         21   -1    0    0  503  502  0.00000000000E+00  0.00000000000E+00  0.18215216203E+02  0.18215216203E+02  0.00000000000E+00 0. -1.
         21   -1    0    0  501  503 -0.00000000000E+00 -0.00000000000E+00 -0.21161540944E+04  0.21161540944E+04  0.00000000000E+00 0. -1.
          6    1    1    2  501    0  0.24092509429E+02  0.89602322547E+02 -0.10334240216E+04  0.10519045744E+04  0.17300000000E+03 0.  1.
         -6    1    1    2    0  502 -0.24092509429E+02 -0.89602322547E+02 -0.10645148566E+04  0.10824647362E+04  0.17300000000E+03 0.  1.
</event>
<event>
 4    1  0.6104111E+000  0.1000000E+03  0.7546771E-02  0.1280296E+00
         21   -1    0    0  501  502  0.00000000000E+00  0.00000000000E+00  0.14644687581E+03  0.14644687581E+03  0.00000000000E+00 0.  1.
         21   -1    0    0  502  503 -0.00000000000E+00 -0.00000000000E+00 -0.31509387744E+03  0.31509387744E+03  0.00000000000E+00 0.  1.
          6    1    1    2  501    0 -0.11176782444E+03 -0.60994423890E+02 -0.82417554576E+02  0.23007394383E+03  0.17300000000E+03 0.  1.
         -6    1    1    2    0  503  0.11176782444E+03  0.60994423890E+02 -0.86229447047E+02  0.23146680942E+03  0.17300000000E+03 0.  1.
</event>
<event>
 4    1  0.6104111E+000  0.1000000E+03  0.7546771E-02  0.1280296E+00
         21   -1    0    0  501  502  0.00000000000E+00  0.00000000000E+00  0.10592906805E+03  0.10592906805E+03  0.00000000000E+00 0.  1.
         21   -1    0    0  502  503 -0.00000000000E+00 -0.00000000000E+00 -0.31903015038E+03  0.31903015038E+03  0.00000000000E+00 0.  1.
          6    1    1    2  501    0  0.32460196816E+01 -0.58603388279E+02 -0.13025696304E+03  0.22436748914E+03  0.17300000000E+03 0.  1.
         -6    1    1    2    0  503 -0.32460196816E+01  0.58603388279E+02 -0.82844119293E+02  0.20059172930E+03  0.17300000000E+03 0.  1.
</event>
<event>
 4    1  0.6104111E+000  0.1000000E+03  0.7546771E-02  0.1280296E+00
         21   -1    0    0  501  502  0.00000000000E+00  0.00000000000E+00  0.28455518855E+03  0.28455518855E+03  0.00000000000E+00 0.  1.
         21   -1    0    0  502  503 -0.00000000000E+00 -0.00000000000E+00 -0.12584786250E+03  0.12584786250E+03  0.00000000000E+00 0.  1.
          6    1    1    2  501    0  0.40592370837E+02 -0.11185383424E+02  0.14886127671E+03  0.23208087616E+03  0.17300000000E+03 0.  1.
         -6    1    1    2    0  503 -0.40592370837E+02  0.11185383424E+02  0.98460493409E+01  0.17832217490E+03  0.17300000000E+03 0.  1.
</event>
<event>
 4    1  0.6104111E+000  0.1000000E+03  0.7546771E-02  0.1280296E+00
         21   -1    0    0  503  502  0.00000000000E+00  0.00000000000E+00  0.52959604715E+02  0.52959604715E+02  0.00000000000E+00 0. -1.
         21   -1    0    0  501  503 -0.00000000000E+00 -0.00000000000E+00 -0.19936129756E+04  0.19936129756E+04  0.00000000000E+00 0. -1.
          6    1    1    2  501    0 -0.21121619996E+03  0.72189835119E+02 -0.14764452539E+04  0.15032109776E+04  0.17300000000E+03 0. -1.
         -6    1    1    2    0  502  0.21121619996E+03 -0.72189835119E+02 -0.46420811695E+03  0.54336160267E+03  0.17300000000E+03 0. -1.
</event>
<event>
 4    1  0.6104111E+000  0.1000000E+03  0.7546771E-02  0.1280296E+00
         21   -1    0    0  503  502  0.00000000000E+00  0.00000000000E+00  0.35757153809E+03  0.35757153809E+03  0.00000000000E+00 0. -1.
         21   -1    0    0  501  503 -0.00000000000E+00 -0.00000000000E+00 -0.22067503364E+03  0.22067503364E+03  0.00000000000E+00 0. -1.
          6    1    1    2  501    0 -0.10181589937E+03 -0.19160040690E+03  0.11332348145E+03  0.29974723474E+03  0.17300000000E+03 0. -1.
         -6    1    1    2    0  502  0.10181589937E+03  0.19160040690E+03  0.23573023005E+02  0.27849933699E+03  0.17300000000E+03 0. -1.
</event>
<event>
 4    1  0.6104111E+000  0.1000000E+03  0.7546771E-02  0.1280296E+00
         21   -1    0    0  503  502  0.00000000000E+00  0.00000000000E+00  0.30408759409E+02  0.30408759409E+02  0.00000000000E+00 0.  1.
         21   -1    0    0  501  503 -0.00000000000E+00 -0.00000000000E+00 -0.14239783351E+04  0.14239783351E+04  0.00000000000E+00 0. -1.
          6    1    1    2  501    0  0.74331891279E+02  0.19029508216E+01 -0.10062812419E+04  0.10237479129E+04  0.17300000000E+03 0. -1.
         -6    1    1    2    0  502 -0.74331891279E+02 -0.19029508216E+01 -0.38728833382E+03  0.43063918167E+03  0.17300000000E+03 0.  1.
</event>
<event>
 4    1  0.6104111E+000  0.1000000E+03  0.7546771E-02  0.1280296E+00
         21   -1    0    0  503  502  0.00000000000E+00  0.00000000000E+00  0.12923746291E+04  0.12923746291E+04  0.00000000000E+00 0.  1.
         21   -1    0    0  501  503 -0.00000000000E+00 -0.00000000000E+00 -0.68897765877E+02  0.68897765877E+02  0.00000000000E+00 0. -1.
          6    1    1    2  501    0 -0.68011551326E+02 -0.23100614731E+03  0.53528997312E+03  0.61192627541E+03  0.17300000000E+03 0. -1.
         -6    1    1    2    0  502  0.68011551326E+02  0.23100614731E+03  0.68818689013E+03  0.74934611960E+03  0.17300000000E+03 0.  1.
</event>
<event>
 4    1  0.6104111E+000  0.1000000E+03  0.7546771E-02  0.1280296E+00
         21   -1    0    0  503  502  0.00000000000E+00  0.00000000000E+00  0.35515592557E+03  0.35515592557E+03  0.00000000000E+00 0.  1.
         21   -1    0    0  501  503 -0.00000000000E+00 -0.00000000000E+00 -0.11619963797E+03  0.11619963797E+03  0.00000000000E+00 0. -1.
          6    1    1    2  501    0  0.23410243659E+02  0.35945771520E+02  0.64035227440E+01  0.17835398258E+03  0.17300000000E+03 0. -1.
         -6    1    1    2    0  502 -0.23410243659E+02 -0.35945771520E+02  0.23255276486E+03  0.29300158096E+03  0.17300000000E+03 0.  1.
</event>
<event>
 4    1  0.6104111E+000  0.1000000E+03  0.7546771E-02  0.1280296E+00
         21   -1    0    0  503  502  0.00000000000E+00  0.00000000000E+00  0.21182056193E+03  0.21182056193E+03  0.00000000000E+00 0.  1.
         21   -1    0    0  501  503 -0.00000000000E+00 -0.00000000000E+00 -0.19408454654E+03  0.19408454654E+03  0.00000000000E+00 0. -1.
          6    1    1    2  501    0 -0.53308905743E+02  0.68397688211E+02  0.69440440422E+02  0.20559926544E+03  0.17300000000E+03 0. -1.
         -6    1    1    2    0  502  0.53308905743E+02 -0.68397688211E+02 -0.51704425028E+02  0.20030584303E+03  0.17300000000E+03 0.  1.
</event>
<event>
 4    1  0.6104111E+000  0.1000000E+03  0.7546771E-02  0.1280296E+00
         21   -1    0    0  503  502  0.00000000000E+00  0.00000000000E+00  0.83603116961E+02  0.83603116961E+02  0.00000000000E+00 0.  1.
         21   -1    0    0  501  503 -0.00000000000E+00 -0.00000000000E+00 -0.14083535878E+04  0.14083535878E+04  0.00000000000E+00 0. -1.
          6    1    1    2  501    0 -0.12459596206E+03  0.47626167686E+02 -0.12376487231E+04  0.12567799200E+04  0.17300000000E+03 0. -1.
         -6    1    1    2    0  502  0.12459596206E+03 -0.47626167686E+02 -0.87101747719E+02  0.23517678471E+03  0.17300000000E+03 0.  1.
</event>
<event>
 4    1  0.6104111E+000  0.1000000E+03  0.7546771E-02  0.1280296E+00
         21   -1    0    0  503  502  0.00000000000E+00  0.00000000000E+00  0.26125750596E+03  0.26125750596E+03  0.00000000000E+00 0.  1.
         21   -1    0    0  501  503 -0.00000000000E+00 -0.00000000000E+00 -0.23855734205E+03  0.23855734205E+03  0.00000000000E+00 0. -1.
          6    1    1    2  501    0  0.11652118909E+03  0.32089303111E+02 -0.12216304407E+03  0.24384363887E+03  0.17300000000E+03 0. -1.
         -6    1    1    2    0  502 -0.11652118909E+03 -0.32089303111E+02  0.14486320798E+03  0.25597120914E+03  0.17300000000E+03 0.  1.
</event>
<event>
 4    1  0.6104111E+000  0.1000000E+03  0.7546771E-02  0.1280296E+00
         21   -1    0    0  501  502  0.00000000000E+00  0.00000000000E+00  0.53300316505E+03  0.53300316505E+03  0.00000000000E+00 0.  1.
         21   -1    0    0  502  503 -0.00000000000E+00 -0.00000000000E+00 -0.89845320966E+02  0.89845320966E+02  0.00000000000E+00 0.  1.
          6    1    1    2  501    0  0.54944741802E+02 -0.12020552075E+03  0.19005931474E+03  0.28899798440E+03  0.17300000000E+03 0.  1.
         -6    1    1    2    0  503 -0.54944741802E+02  0.12020552075E+03  0.25309852935E+03  0.33385050161E+03  0.17300000000E+03 0.  1.
</event>
<event>
 4    1  0.6104111E+000  0.1000000E+03  0.7546771E-02  0.1280296E+00
         21   -1    0    0  503  502  0.00000000000E+00  0.00000000000E+00  0.15395681092E+03  0.15395681092E+03  0.00000000000E+00 0.  1.
         21   -1    0    0  501  503 -0.00000000000E+00 -0.00000000000E+00 -0.65071004880E+03  0.65071004880E+03  0.00000000000E+00 0.  1.
          6    1    1    2  501    0 -0.27340045422E+02 -0.19406575109E+03 -0.47520719912E+03  0.54236507624E+03  0.17300000000E+03 0.  1.
         -6    1    1    2    0  502  0.27340045422E+02  0.19406575109E+03 -0.21546038757E+02  0.26230178348E+03  0.17300000000E+03 0.  1.
</event>
<event>
 4    1  0.6104111E+000  0.1000000E+03  0.7546771E-02  0.1280296E+00
         21   -1    0    0  501  502  0.00000000000E+00  0.00000000000E+00  0.17905997899E+04  0.17905997899E+04  0.00000000000E+00 0. -1.
         21   -1    0    0  502  503 -0.00000000000E+00 -0.00000000000E+00 -0.34913457621E+03  0.34913457621E+03  0.00000000000E+00 0.  1.
          6    1    1    2  501    0  0.87668431763E+02 -0.70846675441E+03  0.32479860052E+03  0.80314010417E+03  0.17300000000E+03 0. -1.
         -6    1    1    2    0  503 -0.87668431763E+02  0.70846675441E+03  0.11166666132E+04  0.13365942619E+04  0.17300000000E+03 0.  1.
</event>
<event>
 4    1  0.6104111E+000  0.1000000E+03  0.7546771E-02  0.1280296E+00
         21   -1    0    0  503  502  0.00000000000E+00  0.00000000000E+00  0.17714514662E+03  0.17714514662E+03  0.00000000000E+00 0. -1.
         21   -1    0    0  501  503 -0.00000000000E+00 -0.00000000000E+00 -0.27391410775E+03  0.27391410775E+03  0.00000000000E+00 0. -1.
          6    1    1    2  501    0 -0.93079548375E+02  0.93770733645E+02 -0.13864210860E+02  0.21812374735E+03  0.17300000000E+03 0. -1.
         -6    1    1    2    0  502  0.93079548375E+02 -0.93770733645E+02 -0.82904750271E+02  0.23293550702E+03  0.17300000000E+03 0. -1.
</event>
<event>
 4    1  0.6104111E+000  0.1000000E+03  0.7546771E-02  0.1280296E+00
         21   -1    0    0  503  502  0.00000000000E+00  0.00000000000E+00  0.60563020021E+03  0.60563020021E+03  0.00000000000E+00 0. -1.
         21   -1    0    0  501  503 -0.00000000000E+00 -0.00000000000E+00 -0.11554791722E+03  0.11554791722E+03  0.00000000000E+00 0. -1.
          6    1    1    2  501    0  0.13505897958E+03  0.50356591258E+02  0.55802825201E+02  0.23199066694E+03  0.17300000000E+03 0. -1.
         -6    1    1    2    0  502 -0.13505897958E+03 -0.50356591258E+02  0.43427945779E+03  0.48918745048E+03  0.17300000000E+03 0. -1.
</event>
<event>
 4    1  0.6104111E+000  0.1000000E+03  0.7546771E-02  0.1280296E+00
         21   -1    0    0  501  502  0.00000000000E+00  0.00000000000E+00  0.54134796176E+02  0.54134796176E+02  0.00000000000E+00 0.  1.
         21   -1    0    0  502  503 -0.00000000000E+00 -0.00000000000E+00 -0.10769425487E+04  0.10769425487E+04  0.00000000000E+00 0.  1.
          6    1    1    2  501    0  0.48023810222E+01 -0.53485468018E+02 -0.13747434590E+03  0.22740262517E+03  0.17300000000E+03 0.  1.
         -6    1    1    2    0  503 -0.48023810222E+01  0.53485468018E+02 -0.88533340659E+03  0.90367471967E+03  0.17300000000E+03 0.  1.
</event>
<event>
 4    1  0.6104111E+000  0.1000000E+03  0.7546771E-02  0.1280296E+00
         21   -1    0    0  501  502  0.00000000000E+00  0.00000000000E+00  0.13437547363E+03  0.13437547363E+03  0.00000000000E+00 0.  1.
         21   -1    0    0  502  503 -0.00000000000E+00 -0.00000000000E+00 -0.26003595077E+03  0.26003595077E+03  0.00000000000E+00 0.  1.
          6    1    1    2  501    0  0.64281449059E+02  0.19453237621E+01 -0.31577904861E+02  0.18724863966E+03  0.17300000000E+03 0.  1.
         -6    1    1    2    0  503 -0.64281449059E+02 -0.19453237621E+01 -0.94082572277E+02  0.20716278475E+03  0.17300000000E+03 0.  1.
</event>
<event>
 4    1  0.6104111E+000  0.1000000E+03  0.7546771E-02  0.1280296E+00
         21   -1    0    0  501  502  0.00000000000E+00  0.00000000000E+00  0.71970497313E+02  0.71970497313E+02  0.00000000000E+00 0.  1.
         21   -1    0    0  502  503 -0.00000000000E+00 -0.00000000000E+00 -0.45444038265E+03  0.45444038265E+03  0.00000000000E+00 0.  1.
          6    1    1    2  501    0 -0.13863650891E+02  0.26975186261E+02 -0.25395932785E+03  0.30877856418E+03  0.17300000000E+03 0.  1.
         -6    1    1    2    0  503  0.13863650891E+02 -0.26975186261E+02 -0.12851055748E+03  0.21763231578E+03  0.17300000000E+03 0.  1.
</event>
<event>
 4    1  0.6104111E+000  0.1000000E+03  0.7546771E-02  0.1280296E+00
         21   -1    0    0  501  502  0.00000000000E+00  0.00000000000E+00  0.52719575340E+03  0.52719575340E+03  0.00000000000E+00 0.  1.
         21   -1    0    0  502  503 -0.00000000000E+00 -0.00000000000E+00 -0.13801914838E+03  0.13801914838E+03  0.00000000000E+00 0.  1.
          6    1    1    2  501    0  0.25874596680E+02  0.24517201737E+02  0.44596934095E+03  0.47967514111E+03  0.17300000000E+03 0.  1.
         -6    1    1    2    0  503 -0.25874596680E+02 -0.24517201737E+02 -0.56792735928E+02  0.18553976067E+03  0.17300000000E+03 0.  1.
</event>
<event>
 4    1  0.6104111E+000  0.1000000E+03  0.7546771E-02  0.1280296E+00
         21   -1    0    0  501  502  0.00000000000E+00  0.00000000000E+00  0.19258039192E+03  0.19258039192E+03  0.00000000000E+00 0.  1.
         21   -1    0    0  502  503 -0.00000000000E+00 -0.00000000000E+00 -0.24052042408E+03  0.24052042408E+03  0.00000000000E+00 0. -1.
          6    1    1    2  501    0  0.17708811517E+02 -0.11595679653E+03  0.27639787480E+02  0.21083770659E+03  0.17300000000E+03 0. -1.
         -6    1    1    2    0  503 -0.17708811517E+02  0.11595679653E+03 -0.75579819638E+02  0.22226310941E+03  0.17300000000E+03 0.  1.
</event>
<event>
 4    1  0.6104111E+000  0.1000000E+03  0.7546771E-02  0.1280296E+00
         21   -1    0    0  501  502  0.00000000000E+00  0.00000000000E+00  0.30835541597E+03  0.30835541597E+03  0.00000000000E+00 0.  1.
         21   -1    0    0  502  503 -0.00000000000E+00 -0.00000000000E+00 -0.20183468136E+03  0.20183468136E+03  0.00000000000E+00 0. -1.
          6    1    1    2  501    0  0.69968651749E+02 -0.35357731254E+02  0.21865221895E+03  0.28962661176E+03  0.17300000000E+03 0. -1.
         -6    1    1    2    0  503 -0.69968651749E+02  0.35357731254E+02 -0.11213148434E+03  0.22056348557E+03  0.17300000000E+03 0.  1.
</event>
<event>
 4    1  0.6104111E+000  0.1000000E+03  0.7546771E-02  0.1280296E+00
         21   -1    0    0  503  502  0.00000000000E+00  0.00000000000E+00  0.40154828449E+03  0.40154828449E+03  0.00000000000E+00 0. -1.
         21   -1    0    0  501  503 -0.00000000000E+00 -0.00000000000E+00 -0.23469879405E+03  0.23469879405E+03  0.00000000000E+00 0. -1.
          6    1    1    2  501    0 -0.12119202464E+03 -0.16446833240E+03 -0.72279467589E+02  0.27729165266E+03  0.17300000000E+03 0. -1.
         -6    1    1    2    0  502  0.12119202464E+03  0.16446833240E+03  0.23912895803E+03  0.35895542588E+03  0.17300000000E+03 0. -1.
</event>
<event>
 4    1  0.6104111E+000  0.1000000E+03  0.7546771E-02  0.1280296E+00
         21   -1    0    0  503  502  0.00000000000E+00  0.00000000000E+00  0.84049470748E+03  0.84049470748E+03  0.00000000000E+00 0. -1.
         21   -1    0    0  501  503 -0.00000000000E+00 -0.00000000000E+00 -0.10510437691E+03  0.10510437691E+03  0.00000000000E+00 0. -1.
          6    1    1    2  501    0 -0.19436684842E+03  0.69039102714E+02  0.16732632506E+03  0.31697313534E+03  0.17300000000E+03 0. -1.
         -6    1    1    2    0  502  0.19436684842E+03 -0.69039102714E+02  0.56806400550E+03  0.62862594905E+03  0.17300000000E+03 0. -1.
</event>
<event>
 4    1  0.6104111E+000  0.1000000E+03  0.7546771E-02  0.1280296E+00
         21   -1    0    0  503  502  0.00000000000E+00  0.00000000000E+00  0.48143176697E+02  0.48143176697E+02  0.00000000000E+00 0. -1.
         21   -1    0    0  501  503 -0.00000000000E+00 -0.00000000000E+00 -0.98721688329E+03  0.98721688329E+03  0.00000000000E+00 0. -1.
          6    1    1    2  501    0 -0.21511829416E+02  0.80329438614E+02 -0.71497271103E+03  0.74029085840E+03  0.17300000000E+03 0. -1.
         -6    1    1    2    0  502  0.21511829416E+02 -0.80329438614E+02 -0.22410099556E+03  0.29506920159E+03  0.17300000000E+03 0. -1.
</event>
<event>
 4    1  0.6104111E+000  0.1000000E+03  0.7546771E-02  0.1280296E+00
         21   -1    0    0  503  502  0.00000000000E+00  0.00000000000E+00  0.15377761607E+04  0.15377761607E+04  0.00000000000E+00 0. -1.
         21   -1    0    0  501  503 -0.00000000000E+00 -0.00000000000E+00 -0.10207223149E+03  0.10207223149E+03  0.00000000000E+00 0. -1.
          6    1    1    2  501    0 -0.62151089707E+02 -0.12320447751E+03  0.37754076023E+02  0.22449158444E+03  0.17300000000E+03 0. -1.
         -6    1    1    2    0  502  0.62151089707E+02  0.12320447751E+03  0.13979498532E+04  0.14153568078E+04  0.17300000000E+03 0. -1.
</event>
<event>
 4    1  0.6104111E+000  0.1000000E+03  0.7546771E-02  0.1280296E+00
         21   -1    0    0  503  502  0.00000000000E+00  0.00000000000E+00  0.40533057889E+03  0.40533057889E+03  0.00000000000E+00 0. -1.
         21   -1    0    0  501  503 -0.00000000000E+00 -0.00000000000E+00 -0.10086194588E+03  0.10086194588E+03  0.00000000000E+00 0. -1.
          6    1    1    2  501    0 -0.69443610721E+02 -0.29522723397E+02  0.61455086556E+02  0.19849366219E+03  0.17300000000E+03 0. -1.
         -6    1    1    2    0  502  0.69443610721E+02  0.29522723397E+02  0.24301354646E+03  0.30769886258E+03  0.17300000000E+03 0. -1.
</event>
<event>
 4    1  0.6104111E+000  0.1000000E+03  0.7546771E-02  0.1280296E+00
         21   -1    0    0  503  502  0.00000000000E+00  0.00000000000E+00  0.25943288011E+03  0.25943288011E+03  0.00000000000E+00 0. -1.
         21   -1    0    0  501  503 -0.00000000000E+00 -0.00000000000E+00 -0.28349437530E+03  0.28349437530E+03  0.00000000000E+00 0. -1.
          6    1    1    2  501    0  0.11073322699E+03 -0.39737115688E+02 -0.18476313586E+03  0.27911879603E+03  0.17300000000E+03 0. -1.
         -6    1    1    2    0  502 -0.11073322699E+03  0.39737115688E+02  0.16070164067E+03  0.26380845938E+03  0.17300000000E+03 0. -1.
</event>
<event>
 4    1  0.6104111E+000  0.1000000E+03  0.7546771E-02  0.1280296E+00
         21   -1    0    0  501  502  0.00000000000E+00  0.00000000000E+00  0.89548917963E+02  0.89548917963E+02  0.00000000000E+00 0.  1.
         21   -1    0    0  502  503 -0.00000000000E+00 -0.00000000000E+00 -0.73646440155E+03  0.73646440155E+03  0.00000000000E+00 0.  1.
          6    1    1    2  501    0 -0.98015536507E+02 -0.59997822194E+02 -0.80545233811E+02  0.22276292051E+03  0.17300000000E+03 0.  1.
         -6    1    1    2    0  503  0.98015536507E+02  0.59997822194E+02 -0.56637024978E+03  0.60325039900E+03  0.17300000000E+03 0.  1.
</event>
<event>
 4    1  0.6104111E+000  0.1000000E+03  0.7546771E-02  0.1280296E+00
         21   -1    0    0  501  502  0.00000000000E+00  0.00000000000E+00  0.25874687845E+04  0.25874687845E+04  0.00000000000E+00 0.  1.
         21   -1    0    0  502  503 -0.00000000000E+00 -0.00000000000E+00 -0.22289077802E+02  0.22289077802E+02  0.00000000000E+00 0. -1.
          6    1    1    2  501    0 -0.20916009563E+01 -0.53854492851E+02  0.21389378178E+04  0.21465993268E+04  0.17300000000E+03 0.  1.
         -6    1    1    2    0  503  0.20916009563E+01  0.53854492851E+02  0.42624188881E+03  0.46315853546E+03  0.17300000000E+03 0. -1.
</event>
<event>
 4    1  0.6104111E+000  0.1000000E+03  0.7546771E-02  0.1280296E+00
         21   -1    0    0  501  502  0.00000000000E+00  0.00000000000E+00  0.21575616018E+04  0.21575616018E+04  0.00000000000E+00 0. -1.
         21   -1    0    0  502  503 -0.00000000000E+00 -0.00000000000E+00 -0.33231743961E+02  0.33231743961E+02  0.00000000000E+00 0.  1.
          6    1    1    2  501    0 -0.65955663019E+02  0.10372762395E+03  0.17301260476E+04  0.17430934312E+04  0.17300000000E+03 0. -1.
         -6    1    1    2    0  503  0.65955663019E+02 -0.10372762395E+03  0.39420381026E+03  0.44769991454E+03  0.17300000000E+03 0.  1.
</event>
<event>
 4    1  0.6104111E+000  0.1000000E+03  0.7546771E-02  0.1280296E+00
         21   -1    0    0  501  502  0.00000000000E+00  0.00000000000E+00  0.49570848788E+02  0.49570848788E+02  0.00000000000E+00 0. -1.
         21   -1    0    0  502  503 -0.00000000000E+00 -0.00000000000E+00 -0.80245051901E+03  0.80245051901E+03  0.00000000000E+00 0.  1.
          6    1    1    2  501    0 -0.36757458677E+02  0.49403074546E+02 -0.54268175605E+03  0.57290859907E+03  0.17300000000E+03 0. -1.
         -6    1    1    2    0  503  0.36757458677E+02 -0.49403074546E+02 -0.21019791417E+03  0.27911276872E+03  0.17300000000E+03 0.  1.
</event>
<event>
 4    1  0.6104111E+000  0.1000000E+03  0.7546771E-02  0.1280296E+00
         21   -1    0    0  503  502  0.00000000000E+00  0.00000000000E+00  0.73564520687E+02  0.73564520687E+02  0.00000000000E+00 0. -1.
         21   -1    0    0  501  503 -0.00000000000E+00 -0.00000000000E+00 -0.12090201826E+04  0.12090201826E+04  0.00000000000E+00 0. -1.
          6    1    1    2  501    0  0.17288014820E+03 -0.14600235507E+03 -0.75773422745E+03  0.80950255884E+03  0.17300000000E+03 0. -1.
         -6    1    1    2    0  502 -0.17288014820E+03  0.14600235507E+03 -0.37772143442E+03  0.47308214440E+03  0.17300000000E+03 0. -1.
</event>
<event>
 4    1  0.6104111E+000  0.1000000E+03  0.7546771E-02  0.1280296E+00
         21   -1    0    0  503  502  0.00000000000E+00  0.00000000000E+00  0.44108363480E+03  0.44108363480E+03  0.00000000000E+00 0.  1.
         21   -1    0    0  501  503 -0.00000000000E+00 -0.00000000000E+00 -0.60206209995E+03  0.60206209995E+03  0.00000000000E+00 0.  1.
          6    1    1    2  501    0 -0.26562621156E+03  0.11251545815E+03 -0.47562461046E+03  0.58255024047E+03  0.17300000000E+03 0.  1.
         -6    1    1    2    0  502  0.26562621156E+03 -0.11251545815E+03  0.31464614531E+03  0.46059549428E+03  0.17300000000E+03 0.  1.
</event>
<event>
 4    1  0.6104111E+000  0.1000000E+03  0.7546771E-02  0.1280296E+00
         21   -1    0    0  503  502  0.00000000000E+00  0.00000000000E+00  0.47704638939E+03  0.47704638939E+03  0.00000000000E+00 0. -1.
         21   -1    0    0  501  503 -0.00000000000E+00 -0.00000000000E+00 -0.13255160352E+03  0.13255160352E+03  0.00000000000E+00 0. -1.
          6    1    1    2  501    0 -0.17821571965E+03  0.31565023992E+02  0.20059799853E+03  0.32082043340E+03  0.17300000000E+03 0. -1.
         -6    1    1    2    0  502  0.17821571965E+03 -0.31565023992E+02  0.14389678733E+03  0.28877755951E+03  0.17300000000E+03 0. -1.
</event>
<event>
 4    1  0.6104111E+000  0.1000000E+03  0.7546771E-02  0.1280296E+00
         21   -1    0    0  503  502  0.00000000000E+00  0.00000000000E+00  0.52306485665E+03  0.52306485665E+03  0.00000000000E+00 0.  1.
         21   -1    0    0  501  503 -0.00000000000E+00 -0.00000000000E+00 -0.24057255832E+03  0.24057255832E+03  0.00000000000E+00 0. -1.
          6    1    1    2  501    0  0.23039697130E+03 -0.64771720970E+02 -0.70300912363E+02  0.30356112811E+03  0.17300000000E+03 0. -1.
         -6    1    1    2    0  502 -0.23039697130E+03  0.64771720970E+02  0.35279321069E+03  0.46007628686E+03  0.17300000000E+03 0.  1.
</event>
<event>
 4    1  0.6104111E+000  0.1000000E+03  0.7546771E-02  0.1280296E+00
         21   -1    0    0  503  502  0.00000000000E+00  0.00000000000E+00  0.62657188457E+02  0.62657188457E+02  0.00000000000E+00 0. -1.
         21   -1    0    0  501  503 -0.00000000000E+00 -0.00000000000E+00 -0.15277565852E+04  0.15277565852E+04  0.00000000000E+00 0. -1.
          6    1    1    2  501    0  0.98391691807E+02  0.23082991930E+03 -0.86934047691E+03  0.92121943176E+03  0.17300000000E+03 0. -1.
         -6    1    1    2    0  502 -0.98391691807E+02 -0.23082991930E+03 -0.59575891980E+03  0.66919434186E+03  0.17300000000E+03 0. -1.
</event>
<event>
 4    1  0.6104111E+000  0.1000000E+03  0.7546771E-02  0.1280296E+00
         21   -1    0    0  503  502  0.00000000000E+00  0.00000000000E+00  0.53689079006E+03  0.53689079006E+03  0.00000000000E+00 0. -1.
         21   -1    0    0  501  503 -0.00000000000E+00 -0.00000000000E+00 -0.30114676662E+03  0.30114676662E+03  0.00000000000E+00 0. -1.
          6    1    1    2  501    0 -0.12521001572E+03  0.31494073311E+02 -0.23564459998E+03  0.31957284333E+03  0.17300000000E+03 0. -1.
         -6    1    1    2    0  502  0.12521001572E+03 -0.31494073311E+02  0.47138862343E+03  0.51846471334E+03  0.17300000000E+03 0. -1.
</event>
<event>
 4    1  0.6104111E+000  0.1000000E+03  0.7546771E-02  0.1280296E+00
         21   -1    0    0  501  502  0.00000000000E+00  0.00000000000E+00  0.44648193878E+03  0.44648193878E+03  0.00000000000E+00 0. -1.
         21   -1    0    0  502  503 -0.00000000000E+00 -0.00000000000E+00 -0.25763271932E+03  0.25763271932E+03  0.00000000000E+00 0.  1.
          6    1    1    2  501    0  0.25003271585E+03  0.13512557507E+03  0.26165975907E+02  0.33374981398E+03  0.17300000000E+03 0. -1.
         -6    1    1    2    0  503 -0.25003271585E+03 -0.13512557507E+03  0.16268324355E+03  0.37036484413E+03  0.17300000000E+03 0.  1.
</event>
<event>
 4    1  0.6104111E+000  0.1000000E+03  0.7546771E-02  0.1280296E+00
         21   -1    0    0  501  502  0.00000000000E+00  0.00000000000E+00  0.12977431858E+03  0.12977431858E+03  0.00000000000E+00 0. -1.
         21   -1    0    0  502  503 -0.00000000000E+00 -0.00000000000E+00 -0.24605415183E+03  0.24605415183E+03  0.00000000000E+00 0.  1.
          6    1    1    2  501    0 -0.39856971546E+02  0.10478213973E+02 -0.39800487074E+02  0.18224008867E+03  0.17300000000E+03 0. -1.
         -6    1    1    2    0  503  0.39856971546E+02 -0.10478213973E+02 -0.76479346174E+02  0.19358838173E+03  0.17300000000E+03 0.  1.
</event>
<event>
 4    1  0.6104111E+000  0.1000000E+03  0.7546771E-02  0.1280296E+00
         21   -1    0    0  501  502  0.00000000000E+00  0.00000000000E+00  0.13221963050E+04  0.13221963050E+04  0.00000000000E+00 0.  1.
         21   -1    0    0  502  503 -0.00000000000E+00 -0.00000000000E+00 -0.28861371301E+02  0.28861371301E+02  0.00000000000E+00 0.  1.
          6    1    1    2  501    0 -0.34980864903E+02 -0.23702106443E+02  0.92430669791E+03  0.94130617897E+03  0.17300000000E+03 0.  1.
         -6    1    1    2    0  503  0.34980864903E+02  0.23702106443E+02  0.36902823579E+03  0.40975149734E+03  0.17300000000E+03 0.  1.
</event>
<event>
 4    1  0.6104111E+000  0.1000000E+03  0.7546771E-02  0.1280296E+00
         21   -1    0    0  501  502  0.00000000000E+00  0.00000000000E+00  0.97676348682E+03  0.97676348682E+03  0.00000000000E+00 0. -1.
         21   -1    0    0  502  503 -0.00000000000E+00 -0.00000000000E+00 -0.51860250768E+02  0.51860250768E+02  0.00000000000E+00 0. -1.
          6    1    1    2  501    0 -0.55516632747E+02 -0.76580991095E+02  0.71046614789E+03  0.73731803993E+03  0.17300000000E+03 0.  1.
         -6    1    1    2    0  503  0.55516632747E+02  0.76580991095E+02  0.21443708816E+03  0.29130569766E+03  0.17300000000E+03 0.  1.
</event>
<event>
 4    1  0.6104111E+000  0.1000000E+03  0.7546771E-02  0.1280296E+00
         21   -1    0    0  501  502  0.00000000000E+00  0.00000000000E+00  0.78957018618E+03  0.78957018618E+03  0.00000000000E+00 0. -1.
         21   -1    0    0  502  503 -0.00000000000E+00 -0.00000000000E+00 -0.68882010403E+02  0.68882010403E+02  0.00000000000E+00 0. -1.
          6    1    1    2  501    0 -0.13964285269E+03  0.70412359397E+02  0.35961921099E+03  0.42861754931E+03  0.17300000000E+03 0.  1.
         -6    1    1    2    0  503  0.13964285269E+03 -0.70412359397E+02  0.36106896479E+03  0.42983464727E+03  0.17300000000E+03 0.  1.
</event>
<event>
 4    1  0.6104111E+000  0.1000000E+03  0.7546771E-02  0.1280296E+00
         21   -1    0    0  503  502  0.00000000000E+00  0.00000000000E+00  0.14594538665E+04  0.14594538665E+04  0.00000000000E+00 0. -1.
         21   -1    0    0  501  503 -0.00000000000E+00 -0.00000000000E+00 -0.36820130975E+02  0.36820130975E+02  0.00000000000E+00 0. -1.
          6    1    1    2  501    0  0.68516585139E+02 -0.13273375726E+03  0.58651016534E+03  0.62947275303E+03  0.17300000000E+03 0. -1.
         -6    1    1    2    0  502 -0.68516585139E+02  0.13273375726E+03  0.83612357015E+03  0.86680124441E+03  0.17300000000E+03 0. -1.
</event>
<event>
 4    1  0.6104111E+000  0.1000000E+03  0.7546771E-02  0.1280296E+00
         21   -1    0    0  503  502  0.00000000000E+00  0.00000000000E+00  0.57559200876E+03  0.57559200876E+03  0.00000000000E+00 0. -1.
         21   -1    0    0  501  503 -0.00000000000E+00 -0.00000000000E+00 -0.19187356263E+03  0.19187356263E+03  0.00000000000E+00 0. -1.
          6    1    1    2  501    0 -0.16602367601E+03 -0.20231949666E+02 -0.72810099556E+02  0.25140306955E+03  0.17300000000E+03 0. -1.
         -6    1    1    2    0  502  0.16602367601E+03  0.20231949666E+02  0.45652854568E+03  0.51606250184E+03  0.17300000000E+03 0. -1.
</event>
<event>
 4    1  0.6104111E+000  0.1000000E+03  0.7546771E-02  0.1280296E+00
         21   -1    0    0  501  502  0.00000000000E+00  0.00000000000E+00  0.29991078187E+03  0.29991078187E+03  0.00000000000E+00 0. -1.
         21   -1    0    0  502  503 -0.00000000000E+00 -0.00000000000E+00 -0.11052405112E+03  0.11052405112E+03  0.00000000000E+00 0.  1.
          6    1    1    2  501    0 -0.16321759273E+01 -0.18981595311E+02  0.15492469739E+03  0.23300992858E+03  0.17300000000E+03 0. -1.
         -6    1    1    2    0  503  0.16321759273E+01  0.18981595311E+02  0.34462033368E+02  0.17742490440E+03  0.17300000000E+03 0.  1.
</event>
<event>
 4    1  0.6104111E+000  0.1000000E+03  0.7546771E-02  0.1280296E+00
         21   -1    0    0  501  502  0.00000000000E+00  0.00000000000E+00  0.11420593218E+04  0.11420593218E+04  0.00000000000E+00 0. -1.
         21   -1    0    0  502  503 -0.00000000000E+00 -0.00000000000E+00 -0.30181388018E+03  0.30181388018E+03  0.00000000000E+00 0.  1.
          6    1    1    2  501    0  0.13587797646E+03 -0.77690837314E+01  0.10893981807E+04  0.11114137750E+04  0.17300000000E+03 0. -1.
         -6    1    1    2    0  503 -0.13587797646E+03  0.77690837314E+01 -0.24915273912E+03  0.33245942694E+03  0.17300000000E+03 0.  1.
</event>
<event>
 4    1  0.6104111E+000  0.1000000E+03  0.7546771E-02  0.1280296E+00
         21   -1    0    0  501  502  0.00000000000E+00  0.00000000000E+00  0.11242649879E+03  0.11242649879E+03  0.00000000000E+00 0. -1.
         21   -1    0    0  502  503 -0.00000000000E+00 -0.00000000000E+00 -0.47615776585E+03  0.47615776585E+03  0.00000000000E+00 0.  1.
          6    1    1    2  501    0  0.72076294237E+02 -0.61297459364E+02 -0.27905550850E+02  0.19914841321E+03  0.17300000000E+03 0. -1.
         -6    1    1    2    0  503 -0.72076294237E+02  0.61297459364E+02 -0.33582571620E+03  0.38943585143E+03  0.17300000000E+03 0.  1.
</event>
<event>
 4    1  0.6104111E+000  0.1000000E+03  0.7546771E-02  0.1280296E+00
         21   -1    0    0  503  502  0.00000000000E+00  0.00000000000E+00  0.62005152277E+03  0.62005152277E+03  0.00000000000E+00 0.  1.
         21   -1    0    0  501  503 -0.00000000000E+00 -0.00000000000E+00 -0.14737682741E+03  0.14737682741E+03  0.00000000000E+00 0.  1.
          6    1    1    2  501    0 -0.77320156180E+02 -0.22944834671E+03  0.16884361491E+03  0.34214341533E+03  0.17300000000E+03 0.  1.
         -6    1    1    2    0  502  0.77320156180E+02  0.22944834671E+03  0.30383108045E+03  0.42528493484E+03  0.17300000000E+03 0.  1.
</event>
<event>
 4    1  0.6104111E+000  0.1000000E+03  0.7546771E-02  0.1280296E+00
         21   -1    0    0  503  502  0.00000000000E+00  0.00000000000E+00  0.21193664232E+03  0.21193664232E+03  0.00000000000E+00 0.  1.
         21   -1    0    0  501  503 -0.00000000000E+00 -0.00000000000E+00 -0.25267913715E+03  0.25267913715E+03  0.00000000000E+00 0. -1.
          6    1    1    2  501    0  0.15088199633E+03  0.27534359348E+02 -0.30382282111E+02  0.23318576464E+03  0.17300000000E+03 0. -1.
         -6    1    1    2    0  502 -0.15088199633E+03 -0.27534359348E+02 -0.10360212719E+02  0.23143001484E+03  0.17300000000E+03 0.  1.
</event>
<event>
 4    1  0.6104111E+000  0.1000000E+03  0.7546771E-02  0.1280296E+00
         21   -1    0    0  503  502  0.00000000000E+00  0.00000000000E+00  0.79596680003E+02  0.79596680003E+02  0.00000000000E+00 0.  1.
         21   -1    0    0  501  503 -0.00000000000E+00 -0.00000000000E+00 -0.11070691616E+04  0.11070691616E+04  0.00000000000E+00 0. -1.
          6    1    1    2  501    0 -0.10476991464E+03 -0.13736652373E+03 -0.85024170130E+03  0.88469556768E+03  0.17300000000E+03 0. -1.
         -6    1    1    2    0  502  0.10476991464E+03  0.13736652373E+03 -0.17723078033E+03  0.30197027395E+03  0.17300000000E+03 0.  1.
</event>
<event>
 4    1  0.6104111E+000  0.1000000E+03  0.7546771E-02  0.1280296E+00
         21   -1    0    0  503  502  0.00000000000E+00  0.00000000000E+00  0.24979792911E+03  0.24979792911E+03  0.00000000000E+00 0. -1.
         21   -1    0    0  501  503 -0.00000000000E+00 -0.00000000000E+00 -0.78639208883E+03  0.78639208883E+03  0.00000000000E+00 0. -1.
          6    1    1    2  501    0 -0.33261801723E+03  0.92515738277E+02 -0.52257016366E+03  0.64977110059E+03  0.17300000000E+03 0. -1.
         -6    1    1    2    0  502  0.33261801723E+03 -0.92515738277E+02 -0.14023996061E+02  0.38641891734E+03  0.17300000000E+03 0. -1.
</event>
<event>
 4    1  0.6104111E+000  0.1000000E+03  0.7546771E-02  0.1280296E+00
         21   -1    0    0  503  502  0.00000000000E+00  0.00000000000E+00  0.44107257482E+03  0.44107257482E+03  0.00000000000E+00 0. -1.
         21   -1    0    0  501  503 -0.00000000000E+00 -0.00000000000E+00 -0.28307518333E+03  0.28307518333E+03  0.00000000000E+00 0. -1.
          6    1    1    2  501    0  0.13386749272E+03  0.17555594974E+03 -0.14121918043E+03  0.31402588113E+03  0.17300000000E+03 0. -1.
         -6    1    1    2    0  502 -0.13386749272E+03 -0.17555594974E+03  0.29921657193E+03  0.41012187702E+03  0.17300000000E+03 0. -1.
</event>
<event>
 4    1  0.6104111E+000  0.1000000E+03  0.7546771E-02  0.1280296E+00
         21   -1    0    0  501  502  0.00000000000E+00  0.00000000000E+00  0.18065074819E+04  0.18065074819E+04  0.00000000000E+00 0. -1.
         21   -1    0    0  502  503 -0.00000000000E+00 -0.00000000000E+00 -0.64133267575E+02  0.64133267575E+02  0.00000000000E+00 0. -1.
          6    1    1    2  501    0  0.17322806517E+03 -0.22133289621E+03  0.10999726360E+04  0.11484184836E+04  0.17300000000E+03 0. -1.
         -6    1    1    2    0  503 -0.17322806517E+03  0.22133289621E+03  0.64240157836E+03  0.72222226591E+03  0.17300000000E+03 0. -1.
</event>
<event>
 4    1  0.6104111E+000  0.1000000E+03  0.7546771E-02  0.1280296E+00
         21   -1    0    0  501  502  0.00000000000E+00  0.00000000000E+00  0.44544542714E+02  0.44544542714E+02  0.00000000000E+00 0. -1.
         21   -1    0    0  502  503 -0.00000000000E+00 -0.00000000000E+00 -0.79627524384E+03  0.79627524384E+03  0.00000000000E+00 0. -1.
          6    1    1    2  501    0  0.11993724232E+02  0.44510206958E+02 -0.24540321628E+03  0.30377087831E+03  0.17300000000E+03 0. -1.
         -6    1    1    2    0  503 -0.11993724232E+02 -0.44510206958E+02 -0.50632748484E+03  0.53704890825E+03  0.17300000000E+03 0. -1.
</event>
<event>
 4    1  0.6104111E+000  0.1000000E+03  0.7546771E-02  0.1280296E+00
         21   -1    0    0  503  502  0.00000000000E+00  0.00000000000E+00  0.93154994063E+02  0.93154994063E+02  0.00000000000E+00 0.  1.
         21   -1    0    0  501  503 -0.00000000000E+00 -0.00000000000E+00 -0.54952199942E+03  0.54952199942E+03  0.00000000000E+00 0.  1.
          6    1    1    2  501    0 -0.25101409850E+02 -0.89346644391E+02 -0.38791555222E+03  0.43476474017E+03  0.17300000000E+03 0.  1.
         -6    1    1    2    0  502  0.25101409850E+02  0.89346644391E+02 -0.68451453133E+02  0.20791225331E+03  0.17300000000E+03 0.  1.
</event>
<event>
 4    1  0.6104111E+000  0.1000000E+03  0.7546771E-02  0.1280296E+00
         21   -1    0    0  503  502  0.00000000000E+00  0.00000000000E+00  0.44731598872E+03  0.44731598872E+03  0.00000000000E+00 0.  1.
         21   -1    0    0  501  503 -0.00000000000E+00 -0.00000000000E+00 -0.35294198173E+03  0.35294198173E+03  0.00000000000E+00 0.  1.
          6    1    1    2  501    0  0.95947028335E+02 -0.64968692056E+02 -0.29360028119E+03  0.35994011767E+03  0.17300000000E+03 0.  1.
         -6    1    1    2    0  502 -0.95947028335E+02  0.64968692056E+02  0.38797428818E+03  0.44031785279E+03  0.17300000000E+03 0.  1.
</event>
<event>
 4    1  0.6104111E+000  0.1000000E+03  0.7546771E-02  0.1280296E+00
         21   -1    0    0  501  502  0.00000000000E+00  0.00000000000E+00  0.43368317543E+03  0.43368317543E+03  0.00000000000E+00 0. -1.
         21   -1    0    0  502  503 -0.00000000000E+00 -0.00000000000E+00 -0.17581091508E+03  0.17581091508E+03  0.00000000000E+00 0.  1.
          6    1    1    2  501    0  0.12316175709E+03  0.14703475355E+03  0.23667154600E+03  0.35032907080E+03  0.17300000000E+03 0.  1.
         -6    1    1    2    0  503 -0.12316175709E+03 -0.14703475355E+03  0.21200714351E+02  0.25916501972E+03  0.17300000000E+03 0. -1.
</event>
<event>
 4    1  0.6104111E+000  0.1000000E+03  0.7546771E-02  0.1280296E+00
         21   -1    0    0  501  502  0.00000000000E+00  0.00000000000E+00  0.12158899083E+03  0.12158899083E+03  0.00000000000E+00 0. -1.
         21   -1    0    0  502  503 -0.00000000000E+00 -0.00000000000E+00 -0.10293044207E+04  0.10293044207E+04  0.00000000000E+00 0.  1.
          6    1    1    2  501    0  0.56443676143E+02 -0.23814945193E+03 -0.14814822173E+03  0.33433208884E+03  0.17300000000E+03 0.  1.
         -6    1    1    2    0  503 -0.56443676143E+02  0.23814945193E+03 -0.75956720812E+03  0.81656132267E+03  0.17300000000E+03 0. -1.
</event>
<event>
 4    1  0.6104111E+000  0.1000000E+03  0.7546771E-02  0.1280296E+00
         21   -1    0    0  501  502  0.00000000000E+00  0.00000000000E+00  0.82280230272E+02  0.82280230272E+02  0.00000000000E+00 0. -1.
         21   -1    0    0  502  503 -0.00000000000E+00 -0.00000000000E+00 -0.60272780289E+03  0.60272780289E+03  0.00000000000E+00 0. -1.
          6    1    1    2  501    0  0.70681480006E+02  0.11447423489E+03 -0.19941212716E+03  0.29630122937E+03  0.17300000000E+03 0. -1.
         -6    1    1    2    0  503 -0.70681480006E+02 -0.11447423489E+03 -0.32103544546E+03  0.38870680379E+03  0.17300000000E+03 0. -1.
</event>
<event>
 4    1  0.6104111E+000  0.1000000E+03  0.7546771E-02  0.1280296E+00
         21   -1    0    0  503  502  0.00000000000E+00  0.00000000000E+00  0.42660819252E+03  0.42660819252E+03  0.00000000000E+00 0.  1.
         21   -1    0    0  501  503 -0.00000000000E+00 -0.00000000000E+00 -0.14772831118E+03  0.14772831118E+03  0.00000000000E+00 0.  1.
          6    1    1    2  501    0  0.78908601612E+01  0.10693239582E+03 -0.28664693941E+02  0.20554188777E+03  0.17300000000E+03 0.  1.
         -6    1    1    2    0  502 -0.78908601612E+01 -0.10693239582E+03  0.30754457528E+03  0.36879461593E+03  0.17300000000E+03 0.  1.
</event>
<event>
 4    1  0.6104111E+000  0.1000000E+03  0.7546771E-02  0.1280296E+00
         21   -1    0    0  503  502  0.00000000000E+00  0.00000000000E+00  0.41549982592E+03  0.41549982592E+03  0.00000000000E+00 0.  1.
         21   -1    0    0  501  503 -0.00000000000E+00 -0.00000000000E+00 -0.81298531602E+02  0.81298531602E+02  0.00000000000E+00 0.  1.
          6    1    1    2  501    0  0.29827183449E+01 -0.25373113042E+02  0.90672847425E+02  0.19698542264E+03  0.17300000000E+03 0.  1.
         -6    1    1    2    0  502 -0.29827183449E+01  0.25373113042E+02  0.24352844690E+03  0.29981293488E+03  0.17300000000E+03 0.  1.
</event>
<event>
 4    1  0.6104111E+000  0.1000000E+03  0.7546771E-02  0.1280296E+00
         21   -1    0    0  503  502  0.00000000000E+00  0.00000000000E+00  0.11785789610E+03  0.11785789610E+03  0.00000000000E+00 0. -1.
         21   -1    0    0  501  503 -0.00000000000E+00 -0.00000000000E+00 -0.52475693609E+03  0.52475693609E+03  0.00000000000E+00 0. -1.
          6    1    1    2  501    0  0.13277115104E+03  0.59299244564E+02 -0.33755115103E+03  0.40621959396E+03  0.17300000000E+03 0. -1.
         -6    1    1    2    0  502 -0.13277115104E+03 -0.59299244564E+02 -0.69347888972E+02  0.23639523823E+03  0.17300000000E+03 0. -1.
</event>
<event>
 4    1  0.6104111E+000  0.1000000E+03  0.7546771E-02  0.1280296E+00
         21   -1    0    0  503  502  0.00000000000E+00  0.00000000000E+00  0.20574776224E+04  0.20574776224E+04  0.00000000000E+00 0. -1.
         21   -1    0    0  501  503 -0.00000000000E+00 -0.00000000000E+00 -0.11745754081E+03  0.11745754081E+03  0.00000000000E+00 0. -1.
          6    1    1    2  501    0  0.13252303492E+03 -0.88411289075E+02  0.15055415832E+02  0.23565775261E+03  0.17300000000E+03 0. -1.
         -6    1    1    2    0  502 -0.13252303492E+03  0.88411289075E+02  0.19249646657E+04  0.19392774105E+04  0.17300000000E+03 0. -1.
</event>
<event>
 4    1  0.6104111E+000  0.1000000E+03  0.7546771E-02  0.1280296E+00
         21   -1    0    0  503  502  0.00000000000E+00  0.00000000000E+00  0.17344852816E+03  0.17344852816E+03  0.00000000000E+00 0. -1.
         21   -1    0    0  501  503 -0.00000000000E+00 -0.00000000000E+00 -0.28258943943E+04  0.28258943943E+04  0.00000000000E+00 0. -1.
          6    1    1    2  501    0  0.36024721093E+03 -0.27266558020E+01 -0.25575527229E+04  0.25885884991E+04  0.17300000000E+03 0. -1.
         -6    1    1    2    0  502 -0.36024721093E+03  0.27266558020E+01 -0.94893143258E+02  0.41075442331E+03  0.17300000000E+03 0. -1.
</event>
<event>
 4    1  0.6104111E+000  0.1000000E+03  0.7546771E-02  0.1280296E+00
         21   -1    0    0  503  502  0.00000000000E+00  0.00000000000E+00  0.42963296458E+03  0.42963296458E+03  0.00000000000E+00 0. -1.
         21   -1    0    0  501  503 -0.00000000000E+00 -0.00000000000E+00 -0.85376616493E+02  0.85376616493E+02  0.00000000000E+00 0. -1.
          6    1    1    2  501    0  0.13055598050E+02 -0.16673349009E+01  0.63077958028E+02  0.18461055613E+03  0.17300000000E+03 0. -1.
         -6    1    1    2    0  502 -0.13055598050E+02  0.16673349009E+01  0.28117839006E+03  0.33039902494E+03  0.17300000000E+03 0. -1.
</event>
<event>
 4    1  0.6104111E+000  0.1000000E+03  0.7546771E-02  0.1280296E+00
         21   -1    0    0  503  502  0.00000000000E+00  0.00000000000E+00  0.53260814116E+02  0.53260814116E+02  0.00000000000E+00 0.  1.
         21   -1    0    0  501  503 -0.00000000000E+00 -0.00000000000E+00 -0.56351272862E+03  0.56351272862E+03  0.00000000000E+00 0. -1.
          6    1    1    2  501    0 -0.78042216973E+01 -0.47436150097E+01 -0.25359577916E+03  0.30712086704E+03  0.17300000000E+03 0.  1.
         -6    1    1    2    0  502  0.78042216973E+01  0.47436150097E+01 -0.25665613534E+03  0.30965267570E+03  0.17300000000E+03 0. -1.
</event>
<event>
 4    1  0.6104111E+000  0.1000000E+03  0.7546771E-02  0.1280296E+00
         21   -1    0    0  503  502  0.00000000000E+00  0.00000000000E+00  0.16379303962E+04  0.16379303962E+04  0.00000000000E+00 0.  1.
         21   -1    0    0  501  503 -0.00000000000E+00 -0.00000000000E+00 -0.35708468562E+02  0.35708468562E+02  0.00000000000E+00 0. -1.
          6    1    1    2  501    0  0.11357695531E+03  0.38244194659E+02  0.38883192820E+03  0.44213302477E+03  0.17300000000E+03 0.  1.
         -6    1    1    2    0  502 -0.11357695531E+03 -0.38244194659E+02  0.12133899994E+04  0.12315058400E+04  0.17300000000E+03 0. -1.
</event>
<event>
 4    1  0.6104111E+000  0.1000000E+03  0.7546771E-02  0.1280296E+00
         21   -1    0    0  503  502  0.00000000000E+00  0.00000000000E+00  0.42637019502E+02  0.42637019502E+02  0.00000000000E+00 0.  1.
         21   -1    0    0  501  503 -0.00000000000E+00 -0.00000000000E+00 -0.10877346880E+04  0.10877346880E+04  0.00000000000E+00 0. -1.
          6    1    1    2  501    0  0.64778310663E+02  0.70761648438E+02 -0.74593964332E+03  0.77172429786E+03  0.17300000000E+03 0. -1.
         -6    1    1    2    0  502 -0.64778310663E+02 -0.70761648438E+02 -0.29915802521E+03  0.35864740968E+03  0.17300000000E+03 0. -1.
</event>
<event>
 4    1  0.6104111E+000  0.1000000E+03  0.7546771E-02  0.1280296E+00
         21   -1    0    0  503  502  0.00000000000E+00  0.00000000000E+00  0.13751064168E+03  0.13751064168E+03  0.00000000000E+00 0.  1.
         21   -1    0    0  501  503 -0.00000000000E+00 -0.00000000000E+00 -0.25137122679E+03  0.25137122679E+03  0.00000000000E+00 0. -1.
          6    1    1    2  501    0 -0.13015747578E+02 -0.80065104424E+01  0.12471527792E+02  0.17412079973E+03  0.17300000000E+03 0. -1.
         -6    1    1    2    0  502  0.13015747578E+02  0.80065104424E+01 -0.12633211290E+03  0.21476106874E+03  0.17300000000E+03 0. -1.
</event>
<event>
 4    1  0.6104111E+000  0.1000000E+03  0.7546771E-02  0.1280296E+00
         21   -1    0    0  503  502  0.00000000000E+00  0.00000000000E+00  0.83739045111E+03  0.83739045111E+03  0.00000000000E+00 0.  1.
         21   -1    0    0  501  503 -0.00000000000E+00 -0.00000000000E+00 -0.38316514542E+02  0.38316514542E+02  0.00000000000E+00 0. -1.
          6    1    1    2  501    0 -0.22431070713E+02 -0.21831089025E+02  0.31567119361E+03  0.36132679371E+03  0.17300000000E+03 0. -1.
         -6    1    1    2    0  502  0.22431070713E+02  0.21831089025E+02  0.48340274296E+03  0.51438017194E+03  0.17300000000E+03 0. -1.
</event>
<event>
 4    1  0.6104111E+000  0.1000000E+03  0.7546771E-02  0.1280296E+00
         21   -1    0    0  503  502  0.00000000000E+00  0.00000000000E+00  0.76754552185E+02  0.76754552185E+02  0.00000000000E+00 0.  1.
         21   -1    0    0  501  503 -0.00000000000E+00 -0.00000000000E+00 -0.91071520079E+03  0.91071520079E+03  0.00000000000E+00 0. -1.
          6    1    1    2  501    0  0.33442118013E+01 -0.21715609878E+02 -0.45878719869E+02  0.18032362131E+03  0.17300000000E+03 0. -1.
         -6    1    1    2    0  502 -0.33442118013E+01  0.21715609878E+02 -0.78808192873E+03  0.80714613166E+03  0.17300000000E+03 0. -1.
</event>
<event>
 4    1  0.6104111E+000  0.1000000E+03  0.7546771E-02  0.1280296E+00
         21   -1    0    0  503  502  0.00000000000E+00  0.00000000000E+00  0.20830184228E+03  0.20830184228E+03  0.00000000000E+00 0. -1.
         21   -1    0    0  501  503 -0.00000000000E+00 -0.00000000000E+00 -0.45328179290E+03  0.45328179290E+03  0.00000000000E+00 0. -1.
          6    1    1    2  501    0  0.86453033988E+02  0.22209005537E+03 -0.21690748295E+03  0.36575398281E+03  0.17300000000E+03 0. -1.
         -6    1    1    2    0  502 -0.86453033988E+02 -0.22209005537E+03 -0.28072467675E+02  0.29582965237E+03  0.17300000000E+03 0. -1.
</event>
<event>
 4    1  0.6104111E+000  0.1000000E+03  0.7546771E-02  0.1280296E+00
         21   -1    0    0  503  502  0.00000000000E+00  0.00000000000E+00  0.70741579926E+02  0.70741579926E+02  0.00000000000E+00 0. -1.
         21   -1    0    0  501  503 -0.00000000000E+00 -0.00000000000E+00 -0.56653060796E+03  0.56653060796E+03  0.00000000000E+00 0. -1.
          6    1    1    2  501    0  0.89810781172E+02  0.17944800844E+02 -0.18111603358E+03  0.26668335140E+03  0.17300000000E+03 0. -1.
         -6    1    1    2    0  502 -0.89810781172E+02 -0.17944800844E+02 -0.31467299446E+03  0.37058883649E+03  0.17300000000E+03 0. -1.
</event>
<event>
 4    1  0.6104111E+000  0.1000000E+03  0.7546771E-02  0.1280296E+00
         21   -1    0    0  503  502  0.00000000000E+00  0.00000000000E+00  0.13180541433E+04  0.13180541433E+04  0.00000000000E+00 0. -1.
         21   -1    0    0  501  503 -0.00000000000E+00 -0.00000000000E+00 -0.33016798056E+02  0.33016798056E+02  0.00000000000E+00 0. -1.
          6    1    1    2  501    0 -0.92510018093E+02 -0.69014076214E+02  0.69551981915E+03  0.72594618601E+03  0.17300000000E+03 0. -1.
         -6    1    1    2    0  502  0.92510018093E+02  0.69014076214E+02  0.58951752609E+03  0.62512475533E+03  0.17300000000E+03 0. -1.
</event>
<event>
 4    1  0.6104111E+000  0.1000000E+03  0.7546771E-02  0.1280296E+00
         21   -1    0    0  503  502  0.00000000000E+00  0.00000000000E+00  0.79167688088E+03  0.79167688088E+03  0.00000000000E+00 0. -1.
         21   -1    0    0  501  503 -0.00000000000E+00 -0.00000000000E+00 -0.57648143661E+02  0.57648143661E+02  0.00000000000E+00 0. -1.
          6    1    1    2  501    0 -0.30725497279E+01 -0.21355115365E+02  0.12158309634E+03  0.21254865521E+03  0.17300000000E+03 0. -1.
         -6    1    1    2    0  502  0.30725497279E+01  0.21355115365E+02  0.61244564087E+03  0.63677636933E+03  0.17300000000E+03 0. -1.
</event>
<event>
 4    1  0.6104111E+000  0.1000000E+03  0.7546771E-02  0.1280296E+00
         21   -1    0    0  503  502  0.00000000000E+00  0.00000000000E+00  0.16692132160E+03  0.16692132160E+03  0.00000000000E+00 0. -1.
         21   -1    0    0  501  503 -0.00000000000E+00 -0.00000000000E+00 -0.65924769280E+03  0.65924769280E+03  0.00000000000E+00 0.  1.
          6    1    1    2  501    0 -0.60602605147E+02 -0.57218039304E+01 -0.59037703305E+03  0.61820664502E+03  0.17300000000E+03 0.  1.
         -6    1    1    2    0  502  0.60602605147E+02  0.57218039304E+01  0.98050661852E+02  0.20796236939E+03  0.17300000000E+03 0. -1.
</event>
<event>
 4    1  0.6104111E+000  0.1000000E+03  0.7546771E-02  0.1280296E+00
         21   -1    0    0  503  502  0.00000000000E+00  0.00000000000E+00  0.30588238332E+03  0.30588238332E+03  0.00000000000E+00 0. -1.
         21   -1    0    0  501  503 -0.00000000000E+00 -0.00000000000E+00 -0.28689553934E+03  0.28689553934E+03  0.00000000000E+00 0.  1.
          6    1    1    2  501    0 -0.10002497991E+02 -0.88407960166E+02 -0.21402958009E+03  0.28922945656E+03  0.17300000000E+03 0.  1.
         -6    1    1    2    0  502  0.10002497991E+02  0.88407960166E+02  0.23301642407E+03  0.30354846610E+03  0.17300000000E+03 0. -1.
</event>
<event>
 4    1  0.6104111E+000  0.1000000E+03  0.7546771E-02  0.1280296E+00
         21   -1    0    0  501  502  0.00000000000E+00  0.00000000000E+00  0.46901106065E+02  0.46901106065E+02  0.00000000000E+00 0.  1.
         21   -1    0    0  502  503 -0.00000000000E+00 -0.00000000000E+00 -0.83343342417E+03  0.83343342417E+03  0.00000000000E+00 0.  1.
          6    1    1    2  501    0  0.38725911974E+02 -0.76861196246E+02 -0.48646990018E+03  0.52343987575E+03  0.17300000000E+03 0.  1.
         -6    1    1    2    0  503 -0.38725911974E+02  0.76861196246E+02 -0.30006241792E+03  0.35689465448E+03  0.17300000000E+03 0.  1.
</event>
<event>
 4    1  0.6104111E+000  0.1000000E+03  0.7546771E-02  0.1280296E+00
         21   -1    0    0  501  502  0.00000000000E+00  0.00000000000E+00  0.38176186430E+03  0.38176186430E+03  0.00000000000E+00 0.  1.
         21   -1    0    0  502  503 -0.00000000000E+00 -0.00000000000E+00 -0.10587408632E+03  0.10587408632E+03  0.00000000000E+00 0.  1.
          6    1    1    2  501    0  0.63985008177E+02 -0.73731024127E+02  0.10038076932E+03  0.22256604422E+03  0.17300000000E+03 0.  1.
         -6    1    1    2    0  503 -0.63985008177E+02  0.73731024127E+02  0.17550700866E+03  0.26506990640E+03  0.17300000000E+03 0.  1.
</event>
<event>
 4    1  0.6104111E+000  0.1000000E+03  0.7546771E-02  0.1280296E+00
         21   -1    0    0  501  502  0.00000000000E+00  0.00000000000E+00  0.23413724385E+04  0.23413724385E+04  0.00000000000E+00 0. -1.
         21   -1    0    0  502  503 -0.00000000000E+00 -0.00000000000E+00 -0.33487968328E+02  0.33487968328E+02  0.00000000000E+00 0. -1.
          6    1    1    2  501    0 -0.87000059419E+02 -0.20023069306E+03  0.10326974413E+04  0.10696047616E+04  0.17300000000E+03 0. -1.
         -6    1    1    2    0  503  0.87000059419E+02  0.20023069306E+03  0.12751870289E+04  0.13052556453E+04  0.17300000000E+03 0. -1.
</event>
<event>
 4    1  0.6104111E+000  0.1000000E+03  0.7546771E-02  0.1280296E+00
         21   -1    0    0  501  502  0.00000000000E+00  0.00000000000E+00  0.64916324263E+03  0.64916324263E+03  0.00000000000E+00 0. -1.
         21   -1    0    0  502  503 -0.00000000000E+00 -0.00000000000E+00 -0.59923292176E+02  0.59923292176E+02  0.00000000000E+00 0. -1.
          6    1    1    2  501    0  0.94053893930E+01 -0.69212538905E+00  0.46403474058E+03  0.49532431885E+03  0.17300000000E+03 0. -1.
         -6    1    1    2    0  503 -0.94053893930E+01  0.69212538905E+00  0.12520520988E+03  0.21376221595E+03  0.17300000000E+03 0. -1.
</event>
<event>
 4    1  0.6104111E+000  0.1000000E+03  0.7546771E-02  0.1280296E+00
         21   -1    0    0  501  502  0.00000000000E+00  0.00000000000E+00  0.23318044339E+03  0.23318044339E+03  0.00000000000E+00 0. -1.
         21   -1    0    0  502  503 -0.00000000000E+00 -0.00000000000E+00 -0.27126345683E+03  0.27126345683E+03  0.00000000000E+00 0. -1.
          6    1    1    2  501    0 -0.41125105377E+02  0.10225127685E+03  0.12690070667E+03  0.24120403658E+03  0.17300000000E+03 0. -1.
         -6    1    1    2    0  503  0.41125105377E+02 -0.10225127685E+03 -0.16498372010E+03  0.26323986364E+03  0.17300000000E+03 0. -1.
</event>
<event>
 4    1  0.6104111E+000  0.1000000E+03  0.7546771E-02  0.1280296E+00
         21   -1    0    0  501  502  0.00000000000E+00  0.00000000000E+00  0.34147234289E+03  0.34147234289E+03  0.00000000000E+00 0.  1.
         21   -1    0    0  502  503 -0.00000000000E+00 -0.00000000000E+00 -0.13956706019E+03  0.13956706019E+03  0.00000000000E+00 0. -1.
          6    1    1    2  501    0  0.14880985586E+02 -0.11612564816E+03  0.17083044219E+03  0.26984930956E+03  0.17300000000E+03 0.  1.
         -6    1    1    2    0  503 -0.14880985586E+02  0.11612564816E+03  0.31074840512E+02  0.21119009353E+03  0.17300000000E+03 0. -1.
</event>
<event>
 4    1  0.6104111E+000  0.1000000E+03  0.7546771E-02  0.1280296E+00
         21   -1    0    0  503  502  0.00000000000E+00  0.00000000000E+00  0.18547978562E+03  0.18547978562E+03  0.00000000000E+00 0.  1.
         21   -1    0    0  501  503 -0.00000000000E+00 -0.00000000000E+00 -0.37870323576E+03  0.37870323576E+03  0.00000000000E+00 0. -1.
          6    1    1    2  501    0  0.41409121198E+01  0.16868714657E+03 -0.21242903322E+03  0.32175704301E+03  0.17300000000E+03 0. -1.
         -6    1    1    2    0  502 -0.41409121198E+01 -0.16868714657E+03  0.19205583077E+02  0.24242597838E+03  0.17300000000E+03 0.  1.
</event>
<event>
 4    1  0.6104111E+000  0.1000000E+03  0.7546771E-02  0.1280296E+00
         21   -1    0    0  503  502  0.00000000000E+00  0.00000000000E+00  0.40816626368E+03  0.40816626368E+03  0.00000000000E+00 0.  1.
         21   -1    0    0  501  503 -0.00000000000E+00 -0.00000000000E+00 -0.12795364620E+03  0.12795364620E+03  0.00000000000E+00 0.  1.
          6    1    1    2  501    0  0.17895269958E+02  0.69731967761E+01 -0.33590353279E+02  0.17727430156E+03  0.17300000000E+03 0.  1.
         -6    1    1    2    0  502 -0.17895269958E+02 -0.69731967761E+01  0.31380297076E+03  0.35884560833E+03  0.17300000000E+03 0.  1.
</event>
<event>
 4    1  0.6104111E+000  0.1000000E+03  0.7546771E-02  0.1280296E+00
         21   -1    0    0  503  502  0.00000000000E+00  0.00000000000E+00  0.37432428491E+03  0.37432428491E+03  0.00000000000E+00 0.  1.
         21   -1    0    0  501  503 -0.00000000000E+00 -0.00000000000E+00 -0.19051783994E+03  0.19051783994E+03  0.00000000000E+00 0.  1.
          6    1    1    2  501    0 -0.17740297513E+03 -0.37537174124E+02  0.18943759910E+03  0.31415992580E+03  0.17300000000E+03 0.  1.
         -6    1    1    2    0  502  0.17740297513E+03  0.37537174124E+02 -0.56311541348E+01  0.25068219905E+03  0.17300000000E+03 0.  1.
</event>
<event>
 4    1  0.6104111E+000  0.1000000E+03  0.7546771E-02  0.1280296E+00
         21   -1    0    0  503  502  0.00000000000E+00  0.00000000000E+00  0.11687556215E+03  0.11687556215E+03  0.00000000000E+00 0.  1.
         21   -1    0    0  501  503 -0.00000000000E+00 -0.00000000000E+00 -0.54161378494E+03  0.54161378494E+03  0.00000000000E+00 0.  1.
          6    1    1    2  501    0 -0.15145662372E+03  0.10143672587E+03 -0.22806689930E+03  0.33937004697E+03  0.17300000000E+03 0.  1.
         -6    1    1    2    0  502  0.15145662372E+03 -0.10143672587E+03 -0.19667132349E+03  0.31911930012E+03  0.17300000000E+03 0.  1.
</event>
<event>
 4    1  0.6104111E+000  0.1000000E+03  0.7546771E-02  0.1280296E+00
         21   -1    0    0  503  502  0.00000000000E+00  0.00000000000E+00  0.15738437014E+03  0.15738437014E+03  0.00000000000E+00 0. -1.
         21   -1    0    0  501  503 -0.00000000000E+00 -0.00000000000E+00 -0.28364099980E+03  0.28364099980E+03  0.00000000000E+00 0.  1.
          6    1    1    2  501    0 -0.52625170399E+02 -0.63844339181E+02 -0.15569387582E+03  0.24701233000E+03  0.17300000000E+03 0. -1.
         -6    1    1    2    0  502  0.52625170399E+02  0.63844339181E+02  0.29437246151E+02  0.19401303994E+03  0.17300000000E+03 0. -1.
</event>
<event>
 4    1  0.6104111E+000  0.1000000E+03  0.7546771E-02  0.1280296E+00
         21   -1    0    0  503  502  0.00000000000E+00  0.00000000000E+00  0.50455262516E+03  0.50455262516E+03  0.00000000000E+00 0. -1.
         21   -1    0    0  501  503 -0.00000000000E+00 -0.00000000000E+00 -0.22138082903E+03  0.22138082903E+03  0.00000000000E+00 0.  1.
          6    1    1    2  501    0  0.29298986240E+02 -0.28301981207E+03  0.17250706935E+03  0.37502844371E+03  0.17300000000E+03 0. -1.
         -6    1    1    2    0  502 -0.29298986240E+02  0.28301981207E+03  0.11066472679E+03  0.35090501047E+03  0.17300000000E+03 0. -1.
</event>
<event>
 4    1  0.6104111E+000  0.1000000E+03  0.7546771E-02  0.1280296E+00
         21   -1    0    0  503  502  0.00000000000E+00  0.00000000000E+00  0.22269840797E+04  0.22269840797E+04  0.00000000000E+00 0. -1.
         21   -1    0    0  501  503 -0.00000000000E+00 -0.00000000000E+00 -0.43613164224E+02  0.43613164224E+02  0.00000000000E+00 0.  1.
          6    1    1    2  501    0 -0.21333418264E+03  0.74827543328E+02  0.62965636618E+03  0.69101864967E+03  0.17300000000E+03 0. -1.
         -6    1    1    2    0  502  0.21333418264E+03 -0.74827543328E+02  0.15537145493E+04  0.15795785942E+04  0.17300000000E+03 0. -1.
</event>
<event>
 4    1  0.6104111E+000  0.1000000E+03  0.7546771E-02  0.1280296E+00
         21   -1    0    0  503  502  0.00000000000E+00  0.00000000000E+00  0.62870413315E+03  0.62870413315E+03  0.00000000000E+00 0. -1.
         21   -1    0    0  501  503 -0.00000000000E+00 -0.00000000000E+00 -0.15390540987E+03  0.15390540987E+03  0.00000000000E+00 0.  1.
          6    1    1    2  501    0  0.41670543175E+02  0.19467119002E+03  0.29937245085E+02  0.26544028525E+03  0.17300000000E+03 0. -1.
         -6    1    1    2    0  502 -0.41670543175E+02 -0.19467119002E+03  0.44486147820E+03  0.51716925776E+03  0.17300000000E+03 0. -1.
</event>
<event>
 4    1  0.6104111E+000  0.1000000E+03  0.7546771E-02  0.1280296E+00
         21   -1    0    0  503  502  0.00000000000E+00  0.00000000000E+00  0.16957057856E+03  0.16957057856E+03  0.00000000000E+00 0. -1.
         21   -1    0    0  501  503 -0.00000000000E+00 -0.00000000000E+00 -0.30360687171E+03  0.30360687171E+03  0.00000000000E+00 0. -1.
          6    1    1    2  501    0  0.12499051442E+03  0.46744332779E+02 -0.13083780957E+03  0.25466682893E+03  0.17300000000E+03 0. -1.
         -6    1    1    2    0  502 -0.12499051442E+03 -0.46744332779E+02 -0.31984835722E+01  0.21851062134E+03  0.17300000000E+03 0. -1.
</event>
<event>
 4    1  0.6104111E+000  0.1000000E+03  0.7546771E-02  0.1280296E+00
         21   -1    0    0  501  502  0.00000000000E+00  0.00000000000E+00  0.63858361364E+03  0.63858361364E+03  0.00000000000E+00 0.  1.
         21   -1    0    0  502  503 -0.00000000000E+00 -0.00000000000E+00 -0.41075786271E+03  0.41075786271E+03  0.00000000000E+00 0. -1.
          6    1    1    2  501    0  0.75248619340E+02  0.40083542320E+02  0.59995932475E+03  0.63019777565E+03  0.17300000000E+03 0.  1.
         -6    1    1    2    0  503 -0.75248619340E+02 -0.40083542320E+02 -0.37213357382E+03  0.41914370071E+03  0.17300000000E+03 0. -1.
</event>
<event>
 4    1  0.6104111E+000  0.1000000E+03  0.7546771E-02  0.1280296E+00
         21   -1    0    0  503  502  0.00000000000E+00  0.00000000000E+00  0.21817562313E+04  0.21817562313E+04  0.00000000000E+00 0. -1.
         21   -1    0    0  501  503 -0.00000000000E+00 -0.00000000000E+00 -0.14990975342E+02  0.14990975342E+02  0.00000000000E+00 0. -1.
          6    1    1    2  501    0  0.22923347850E+02  0.24756585237E+02  0.83748217690E+03  0.85582928497E+03  0.17300000000E+03 0. -1.
         -6    1    1    2    0  502 -0.22923347850E+02 -0.24756585237E+02  0.13292830790E+04  0.13409179217E+04  0.17300000000E+03 0. -1.
</event>
<event>
 4    1  0.6104111E+000  0.1000000E+03  0.7546771E-02  0.1280296E+00
         21   -1    0    0  503  502  0.00000000000E+00  0.00000000000E+00  0.10147619745E+03  0.10147619745E+03  0.00000000000E+00 0. -1.
         21   -1    0    0  501  503 -0.00000000000E+00 -0.00000000000E+00 -0.34255832218E+03  0.34255832218E+03  0.00000000000E+00 0. -1.
          6    1    1    2  501    0 -0.36174019093E+02 -0.59362581114E+02 -0.12030216901E+03  0.22188755612E+03  0.17300000000E+03 0. -1.
         -6    1    1    2    0  502  0.36174019093E+02  0.59362581114E+02 -0.12077995571E+03  0.22214696351E+03  0.17300000000E+03 0. -1.
</event>
<event>
 4    1  0.6104111E+000  0.1000000E+03  0.7546771E-02  0.1280296E+00
         21   -1    0    0  501  502  0.00000000000E+00  0.00000000000E+00  0.24763312813E+04  0.24763312813E+04  0.00000000000E+00 0.  1.
         21   -1    0    0  502  503 -0.00000000000E+00 -0.00000000000E+00 -0.15195871612E+02  0.15195871612E+02  0.00000000000E+00 0.  1.
          6    1    1    2  501    0  0.38376568993E+02 -0.70385309767E+02  0.14598023844E+04  0.14722020427E+04  0.17300000000E+03 0.  1.
         -6    1    1    2    0  503 -0.38376568993E+02  0.70385309767E+02  0.10013330253E+04  0.10193251102E+04  0.17300000000E+03 0.  1.
</event>
<event>
 4    1  0.6104111E+000  0.1000000E+03  0.7546771E-02  0.1280296E+00
         21   -1    0    0  501  502  0.00000000000E+00  0.00000000000E+00  0.13811633774E+03  0.13811633774E+03  0.00000000000E+00 0.  1.
         21   -1    0    0  502  503 -0.00000000000E+00 -0.00000000000E+00 -0.26311485260E+03  0.26311485260E+03  0.00000000000E+00 0.  1.
          6    1    1    2  501    0  0.26512017051E+01  0.48146854164E+02  0.47728776474E+01  0.17965781029E+03  0.17300000000E+03 0.  1.
         -6    1    1    2    0  503 -0.26512017051E+01 -0.48146854164E+02 -0.12977139251E+03  0.22157338006E+03  0.17300000000E+03 0.  1.
</event>
<event>
 4    1  0.6104111E+000  0.1000000E+03  0.7546771E-02  0.1280296E+00
         21   -1    0    0  501  502  0.00000000000E+00  0.00000000000E+00  0.13030172343E+03  0.13030172343E+03  0.00000000000E+00 0.  1.
         21   -1    0    0  502  503 -0.00000000000E+00 -0.00000000000E+00 -0.48628210229E+03  0.48628210229E+03  0.00000000000E+00 0.  1.
          6    1    1    2  501    0  0.16637962475E+03 -0.68427753415E+02 -0.13793062819E+03  0.28516380409E+03  0.17300000000E+03 0.  1.
         -6    1    1    2    0  503 -0.16637962475E+03  0.68427753415E+02 -0.21804975068E+03  0.33142002163E+03  0.17300000000E+03 0.  1.
</event>
<event>
 4    1  0.6104111E+000  0.1000000E+03  0.7546771E-02  0.1280296E+00
         21   -1    0    0  501  502  0.00000000000E+00  0.00000000000E+00  0.88756288944E+03  0.88756288944E+03  0.00000000000E+00 0.  1.
         21   -1    0    0  502  503 -0.00000000000E+00 -0.00000000000E+00 -0.53778439256E+02  0.53778439256E+02  0.00000000000E+00 0.  1.
          6    1    1    2  501    0 -0.46411165798E+02  0.86193575926E+02  0.61220650738E+03  0.64366849893E+03  0.17300000000E+03 0.  1.
         -6    1    1    2    0  503  0.46411165798E+02 -0.86193575926E+02  0.22157794280E+03  0.29767282976E+03  0.17300000000E+03 0.  1.
</event>
<event>
 4    1  0.6104111E+000  0.1000000E+03  0.7546771E-02  0.1280296E+00
         21   -1    0    0  501  502  0.00000000000E+00  0.00000000000E+00  0.60133233552E+03  0.60133233552E+03  0.00000000000E+00 0.  1.
         21   -1    0    0  502  503 -0.00000000000E+00 -0.00000000000E+00 -0.10571025716E+03  0.10571025716E+03  0.00000000000E+00 0.  1.
          6    1    1    2  501    0  0.10693289466E+03 -0.98184094528E+02  0.40497410313E+03  0.46368931903E+03  0.17300000000E+03 0.  1.
         -6    1    1    2    0  503 -0.10693289466E+03  0.98184094528E+02  0.90647975228E+02  0.24335327364E+03  0.17300000000E+03 0.  1.
</event>
<event>
 4    1  0.6104111E+000  0.1000000E+03  0.7546771E-02  0.1280296E+00
         21   -1    0    0  501  502  0.00000000000E+00  0.00000000000E+00  0.20337718545E+03  0.20337718545E+03  0.00000000000E+00 0.  1.
         21   -1    0    0  502  503 -0.00000000000E+00 -0.00000000000E+00 -0.22067334176E+03  0.22067334176E+03  0.00000000000E+00 0.  1.
          6    1    1    2  501    0  0.31313577304E+02 -0.71830867845E+02  0.85295478742E+02  0.20819349748E+03  0.17300000000E+03 0.  1.
         -6    1    1    2    0  503 -0.31313577304E+02  0.71830867845E+02 -0.10259163505E+03  0.21585702972E+03  0.17300000000E+03 0.  1.
</event>
<event>
 4    1  0.6104111E+000  0.1000000E+03  0.7546771E-02  0.1280296E+00
         21   -1    0    0  501  502  0.00000000000E+00  0.00000000000E+00  0.79138012906E+02  0.79138012906E+02  0.00000000000E+00 0.  1.
         21   -1    0    0  502  503 -0.00000000000E+00 -0.00000000000E+00 -0.41438585106E+03  0.41438585106E+03  0.00000000000E+00 0.  1.
          6    1    1    2  501    0 -0.12572966147E+02 -0.41347099635E+02 -0.12459771405E+03  0.21753448571E+03  0.17300000000E+03 0.  1.
         -6    1    1    2    0  503  0.12572966147E+02  0.41347099635E+02 -0.21065012410E+03  0.27598937826E+03  0.17300000000E+03 0.  1.
</event>
<event>
 4    1  0.6104111E+000  0.1000000E+03  0.7546771E-02  0.1280296E+00
         21   -1    0    0  503  502  0.00000000000E+00  0.00000000000E+00  0.11026564177E+03  0.11026564177E+03  0.00000000000E+00 0.  1.
         21   -1    0    0  501  503 -0.00000000000E+00 -0.00000000000E+00 -0.11601995591E+04  0.11601995591E+04  0.00000000000E+00 0.  1.
          6    1    1    2  501    0  0.27879968856E+02 -0.10033368683E+03 -0.10492882346E+04  0.10685405657E+04  0.17300000000E+03 0.  1.
         -6    1    1    2    0  502 -0.27879968856E+02  0.10033368683E+03 -0.64568277366E+00  0.20192463516E+03  0.17300000000E+03 0.  1.
</event>
<event>
 4    1  0.6104111E+000  0.1000000E+03  0.7546771E-02  0.1280296E+00
         21   -1    0    0  503  502  0.00000000000E+00  0.00000000000E+00  0.22752570590E+04  0.22752570590E+04  0.00000000000E+00 0.  1.
         21   -1    0    0  501  503 -0.00000000000E+00 -0.00000000000E+00 -0.12590856410E+03  0.12590856410E+03  0.00000000000E+00 0.  1.
          6    1    1    2  501    0 -0.41671138194E+03 -0.22361526717E+03  0.14814941759E+04  0.15647383668E+04  0.17300000000E+03 0.  1.
         -6    1    1    2    0  502  0.41671138194E+03  0.22361526717E+03  0.66785431907E+03  0.83642725628E+03  0.17300000000E+03 0.  1.
</event>
<event>
 4    1  0.6104111E+000  0.1000000E+03  0.7546771E-02  0.1280296E+00
         21   -1    0    0  503  502  0.00000000000E+00  0.00000000000E+00  0.11086233095E+03  0.11086233095E+03  0.00000000000E+00 0.  1.
         21   -1    0    0  501  503 -0.00000000000E+00 -0.00000000000E+00 -0.40837016742E+03  0.40837016742E+03  0.00000000000E+00 0.  1.
          6    1    1    2  501    0  0.13034641503E+02  0.54305740429E+02 -0.28366098287E+03  0.33691477932E+03  0.17300000000E+03 0.  1.
         -6    1    1    2    0  502 -0.13034641503E+02 -0.54305740429E+02 -0.13846853597E+02  0.18231771904E+03  0.17300000000E+03 0.  1.
</event>
<event>
 4    1  0.6104111E+000  0.1000000E+03  0.7546771E-02  0.1280296E+00
         21   -1    0    0  503  502  0.00000000000E+00  0.00000000000E+00  0.15852858290E+02  0.15852858290E+02  0.00000000000E+00 0.  1.
         21   -1    0    0  501  503 -0.00000000000E+00 -0.00000000000E+00 -0.20380429430E+04  0.20380429430E+04  0.00000000000E+00 0.  1.
          6    1    1    2  501    0  0.30177020270E+01 -0.39133595648E+02 -0.11766097198E+04  0.11899075500E+04  0.17300000000E+03 0.  1.
         -6    1    1    2    0  502 -0.30177020270E+01  0.39133595648E+02 -0.84558036488E+03  0.86398825125E+03  0.17300000000E+03 0.  1.
</event>
<event>
 4    1  0.6104111E+000  0.1000000E+03  0.7546771E-02  0.1280296E+00
         21   -1    0    0  503  502  0.00000000000E+00  0.00000000000E+00  0.49738690458E+02  0.49738690458E+02  0.00000000000E+00 0.  1.
         21   -1    0    0  501  503 -0.00000000000E+00 -0.00000000000E+00 -0.89144501103E+03  0.89144501103E+03  0.00000000000E+00 0.  1.
          6    1    1    2  501    0  0.10309200976E+02  0.99954538766E+02 -0.56762597412E+03  0.60185167271E+03  0.17300000000E+03 0.  1.
         -6    1    1    2    0  502 -0.10309200976E+02 -0.99954538766E+02 -0.27408034645E+03  0.33933202878E+03  0.17300000000E+03 0.  1.
</event>
<event>
 4    1  0.6104111E+000  0.1000000E+03  0.7546771E-02  0.1280296E+00
         21   -1    0    0  503  502  0.00000000000E+00  0.00000000000E+00  0.52247465490E+02  0.52247465490E+02  0.00000000000E+00 0.  1.
         21   -1    0    0  501  503 -0.00000000000E+00 -0.00000000000E+00 -0.79701182682E+03  0.79701182682E+03  0.00000000000E+00 0. -1.
          6    1    1    2  501    0 -0.21511341060E+02 -0.64419427494E+01 -0.59268559249E+03  0.61782638982E+03  0.17300000000E+03 0.  1.
         -6    1    1    2    0  502  0.21511341060E+02  0.64419427494E+01 -0.15207876885E+03  0.23143290249E+03  0.17300000000E+03 0.  1.
</event>
<event>
 4    1  0.6104111E+000  0.1000000E+03  0.7546771E-02  0.1280296E+00
         21   -1    0    0  503  502  0.00000000000E+00  0.00000000000E+00  0.73207982619E+03  0.73207982619E+03  0.00000000000E+00 0. -1.
         21   -1    0    0  501  503 -0.00000000000E+00 -0.00000000000E+00 -0.10492611459E+03  0.10492611459E+03  0.00000000000E+00 0. -1.
          6    1    1    2  501    0 -0.68605637834E+02  0.14253760006E+03  0.90313005710E+02  0.25121532591E+03  0.17300000000E+03 0. -1.
         -6    1    1    2    0  502  0.68605637834E+02 -0.14253760006E+03  0.53684070589E+03  0.58579061487E+03  0.17300000000E+03 0. -1.
</event>
<event>
 4    1  0.6104111E+000  0.1000000E+03  0.7546771E-02  0.1280296E+00
         21   -1    0    0  503  502  0.00000000000E+00  0.00000000000E+00  0.55093896011E+03  0.55093896011E+03  0.00000000000E+00 0. -1.
         21   -1    0    0  501  503 -0.00000000000E+00 -0.00000000000E+00 -0.58320611474E+02  0.58320611474E+02  0.00000000000E+00 0. -1.
          6    1    1    2  501    0 -0.33256921260E+02  0.32395901356E+02  0.25790785004E+03  0.31400792402E+03  0.17300000000E+03 0. -1.
         -6    1    1    2    0  502  0.33256921260E+02 -0.32395901356E+02  0.23471049860E+03  0.29525164756E+03  0.17300000000E+03 0. -1.
</event>
<event>
 4    1  0.6104111E+000  0.1000000E+03  0.7546771E-02  0.1280296E+00
         21   -1    0    0  503  502  0.00000000000E+00  0.00000000000E+00  0.23160679130E+03  0.23160679130E+03  0.00000000000E+00 0. -1.
         21   -1    0    0  501  503 -0.00000000000E+00 -0.00000000000E+00 -0.15200368709E+03  0.15200368709E+03  0.00000000000E+00 0. -1.
          6    1    1    2  501    0 -0.34024747475E+02  0.63380880419E+02  0.29514491943E+02  0.18967056882E+03  0.17300000000E+03 0. -1.
         -6    1    1    2    0  502  0.34024747475E+02 -0.63380880419E+02  0.50088612271E+02  0.19393990957E+03  0.17300000000E+03 0. -1.
</event>
<event>
 4    1  0.6104111E+000  0.1000000E+03  0.7546771E-02  0.1280296E+00
         21   -1    0    0  503  502  0.00000000000E+00  0.00000000000E+00  0.25424558929E+03  0.25424558929E+03  0.00000000000E+00 0. -1.
         21   -1    0    0  501  503 -0.00000000000E+00 -0.00000000000E+00 -0.15907852090E+03  0.15907852090E+03  0.00000000000E+00 0. -1.
          6    1    1    2  501    0 -0.65090028056E+02 -0.69081750860E+02  0.76914573256E+01  0.19747698238E+03  0.17300000000E+03 0. -1.
         -6    1    1    2    0  502  0.65090028056E+02  0.69081750860E+02  0.87475611064E+02  0.21584712781E+03  0.17300000000E+03 0. -1.
</event>
<event>
 4    1  0.6104111E+000  0.1000000E+03  0.7546771E-02  0.1280296E+00
         21   -1    0    0  501  502  0.00000000000E+00  0.00000000000E+00  0.43235380561E+03  0.43235380561E+03  0.00000000000E+00 0. -1.
         21   -1    0    0  502  503 -0.00000000000E+00 -0.00000000000E+00 -0.13553954196E+03  0.13553954196E+03  0.00000000000E+00 0. -1.
          6    1    1    2  501    0 -0.15149632465E+03  0.37910616148E+02  0.71636886408E+02  0.24382205539E+03  0.17300000000E+03 0. -1.
         -6    1    1    2    0  503  0.15149632465E+03 -0.37910616148E+02  0.22517737724E+03  0.32407129218E+03  0.17300000000E+03 0. -1.
</event>
<event>
 4    1  0.6104111E+000  0.1000000E+03  0.7546771E-02  0.1280296E+00
         21   -1    0    0  501  502  0.00000000000E+00  0.00000000000E+00  0.67957352395E+02  0.67957352395E+02  0.00000000000E+00 0. -1.
         21   -1    0    0  502  503 -0.00000000000E+00 -0.00000000000E+00 -0.60051946673E+03  0.60051946673E+03  0.00000000000E+00 0. -1.
          6    1    1    2  501    0 -0.41699340740E+02  0.86094300189E+02 -0.19747072795E+03  0.27941859627E+03  0.17300000000E+03 0. -1.
         -6    1    1    2    0  503  0.41699340740E+02 -0.86094300189E+02 -0.33509138639E+03  0.38905822286E+03  0.17300000000E+03 0. -1.
</event>
<event>
 4    1  0.6104111E+000  0.1000000E+03  0.7546771E-02  0.1280296E+00
         21   -1    0    0  501  502  0.00000000000E+00  0.00000000000E+00  0.26167854763E+03  0.26167854763E+03  0.00000000000E+00 0. -1.
         21   -1    0    0  502  503 -0.00000000000E+00 -0.00000000000E+00 -0.19871747777E+03  0.19871747777E+03  0.00000000000E+00 0. -1.
          6    1    1    2  501    0 -0.32084992174E+02 -0.33625052863E+01  0.17787434171E+03  0.25021797418E+03  0.17300000000E+03 0. -1.
         -6    1    1    2    0  503  0.32084992174E+02  0.33625052863E+01 -0.11491327186E+03  0.21017805122E+03  0.17300000000E+03 0. -1.
</event>
<event>
 4    1  0.6104111E+000  0.1000000E+03  0.7546771E-02  0.1280296E+00
         21   -1    0    0  501  502  0.00000000000E+00  0.00000000000E+00  0.57180199306E+03  0.57180199306E+03  0.00000000000E+00 0.  1.
         21   -1    0    0  502  503 -0.00000000000E+00 -0.00000000000E+00 -0.10689969680E+03  0.10689969680E+03  0.00000000000E+00 0.  1.
          6    1    1    2  501    0 -0.10484079734E+03 -0.13569826182E+03  0.29053659114E+03  0.37913865780E+03  0.17300000000E+03 0.  1.
         -6    1    1    2    0  503  0.10484079734E+03  0.13569826182E+03  0.17436570512E+03  0.29956303205E+03  0.17300000000E+03 0.  1.
</event>
<event>
 4    1  0.6104111E+000  0.1000000E+03  0.7546771E-02  0.1280296E+00
         21   -1    0    0  501  502  0.00000000000E+00  0.00000000000E+00  0.72711337143E+03  0.72711337143E+03  0.00000000000E+00 0.  1.
         21   -1    0    0  502  503 -0.00000000000E+00 -0.00000000000E+00 -0.15412356991E+03  0.15412356991E+03  0.00000000000E+00 0.  1.
          6    1    1    2  501    0 -0.76041592235E+02 -0.12361959342E+03  0.61176850181E+03  0.65211488822E+03  0.17300000000E+03 0.  1.
         -6    1    1    2    0  503  0.76041592235E+02  0.12361959342E+03 -0.38778700299E+02  0.22912205312E+03  0.17300000000E+03 0.  1.
</event>
<event>
 4    1  0.6104111E+000  0.1000000E+03  0.7546771E-02  0.1280296E+00
         21   -1    0    0  501  502  0.00000000000E+00  0.00000000000E+00  0.37768700953E+03  0.37768700953E+03  0.00000000000E+00 0.  1.
         21   -1    0    0  502  503 -0.00000000000E+00 -0.00000000000E+00 -0.17563850924E+03  0.17563850924E+03  0.00000000000E+00 0.  1.
          6    1    1    2  501    0  0.18724237620E+03 -0.32078486105E+02  0.12019898875E+03  0.28366447365E+03  0.17300000000E+03 0.  1.
         -6    1    1    2    0  503 -0.18724237620E+03  0.32078486105E+02  0.81849511545E+02  0.26966104512E+03  0.17300000000E+03 0.  1.
</event>
<event>
 4    1  0.6104111E+000  0.1000000E+03  0.7546771E-02  0.1280296E+00
         21   -1    0    0  501  502  0.00000000000E+00  0.00000000000E+00  0.25490741023E+03  0.25490741023E+03  0.00000000000E+00 0.  1.
         21   -1    0    0  502  503 -0.00000000000E+00 -0.00000000000E+00 -0.27440932539E+03  0.27440932539E+03  0.00000000000E+00 0.  1.
          6    1    1    2  501    0 -0.47186909749E+02  0.15275054814E+02  0.18418484066E+03  0.25751308177E+03  0.17300000000E+03 0.  1.
         -6    1    1    2    0  503  0.47186909749E+02 -0.15275054814E+02 -0.20368675582E+03  0.27180365386E+03  0.17300000000E+03 0.  1.
</event>
<event>
 4    1  0.6104111E+000  0.1000000E+03  0.7546771E-02  0.1280296E+00
         21   -1    0    0  501  502  0.00000000000E+00  0.00000000000E+00  0.24319624980E+03  0.24319624980E+03  0.00000000000E+00 0.  1.
         21   -1    0    0  502  503 -0.00000000000E+00 -0.00000000000E+00 -0.21062502281E+03  0.21062502281E+03  0.00000000000E+00 0.  1.
          6    1    1    2  501    0 -0.11360701940E+03 -0.86384066134E+02  0.46785542929E+02  0.22909964812E+03  0.17300000000E+03 0.  1.
         -6    1    1    2    0  503  0.11360701940E+03  0.86384066134E+02 -0.14214315942E+02  0.22472162450E+03  0.17300000000E+03 0.  1.
</event>
<event>
 4    1  0.6104111E+000  0.1000000E+03  0.7546771E-02  0.1280296E+00
         21   -1    0    0  501  502  0.00000000000E+00  0.00000000000E+00  0.83344385732E+03  0.83344385732E+03  0.00000000000E+00 0.  1.
         21   -1    0    0  502  503 -0.00000000000E+00 -0.00000000000E+00 -0.69947097441E+02  0.69947097441E+02  0.00000000000E+00 0.  1.
          6    1    1    2  501    0  0.13591003742E+03 -0.89178145495E+02  0.29927055468E+03  0.38198971819E+03  0.17300000000E+03 0.  1.
         -6    1    1    2    0  503 -0.13591003742E+03  0.89178145495E+02  0.46422620520E+03  0.52140123657E+03  0.17300000000E+03 0.  1.
</event>
<event>
 4    1  0.6104111E+000  0.1000000E+03  0.7546771E-02  0.1280296E+00
         21   -1    0    0  503  502  0.00000000000E+00  0.00000000000E+00  0.29581441380E+03  0.29581441380E+03  0.00000000000E+00 0.  1.
         21   -1    0    0  501  503 -0.00000000000E+00 -0.00000000000E+00 -0.39195898511E+03  0.39195898511E+03  0.00000000000E+00 0. -1.
          6    1    1    2  501    0 -0.13370427459E+03  0.13215622630E+03 -0.27541792793E+03  0.37566758739E+03  0.17300000000E+03 0.  1.
         -6    1    1    2    0  502  0.13370427459E+03 -0.13215622630E+03  0.17927335662E+03  0.31210581152E+03  0.17300000000E+03 0. -1.
</event>
<event>
 4    1  0.6104111E+000  0.1000000E+03  0.7546771E-02  0.1280296E+00
         21   -1    0    0  503  502  0.00000000000E+00  0.00000000000E+00  0.37470199404E+03  0.37470199404E+03  0.00000000000E+00 0.  1.
         21   -1    0    0  501  503 -0.00000000000E+00 -0.00000000000E+00 -0.14957076895E+03  0.14957076895E+03  0.00000000000E+00 0. -1.
          6    1    1    2  501    0  0.15201832990E+03  0.17346090588E+02  0.54975882535E+02  0.23740641766E+03  0.17300000000E+03 0.  1.
         -6    1    1    2    0  502 -0.15201832990E+03 -0.17346090588E+02  0.17015534256E+03  0.28686634534E+03  0.17300000000E+03 0. -1.
</event>
<event>
 4    1  0.6104111E+000  0.1000000E+03  0.7546771E-02  0.1280296E+00
         21   -1    0    0  503  502  0.00000000000E+00  0.00000000000E+00  0.35529659940E+03  0.35529659940E+03  0.00000000000E+00 0.  1.
         21   -1    0    0  501  503 -0.00000000000E+00 -0.00000000000E+00 -0.93483308578E+02  0.93483308578E+02  0.00000000000E+00 0. -1.
          6    1    1    2  501    0  0.53925698822E+02  0.16801661665E+02  0.14290880379E+03  0.23139188194E+03  0.17300000000E+03 0.  1.
         -6    1    1    2    0  502 -0.53925698822E+02 -0.16801661665E+02  0.11890448704E+03  0.21738802604E+03  0.17300000000E+03 0. -1.
</event>
<event>
 4    1  0.6104111E+000  0.1000000E+03  0.7546771E-02  0.1280296E+00
         21   -1    0    0  503  502  0.00000000000E+00  0.00000000000E+00  0.17986140979E+03  0.17986140979E+03  0.00000000000E+00 0.  1.
         21   -1    0    0  501  503 -0.00000000000E+00 -0.00000000000E+00 -0.30689152844E+03  0.30689152844E+03  0.00000000000E+00 0. -1.
          6    1    1    2  501    0 -0.14877813398E+03  0.37387322668E+02 -0.10667856937E+03  0.25464104581E+03  0.17300000000E+03 0. -1.
         -6    1    1    2    0  502  0.14877813398E+03 -0.37387322668E+02 -0.20351549279E+02  0.23211189243E+03  0.17300000000E+03 0.  1.
</event>
<event>
 4    1  0.6104111E+000  0.1000000E+03  0.7546771E-02  0.1280296E+00
         21   -1    0    0  501  502  0.00000000000E+00  0.00000000000E+00  0.58480799087E+03  0.58480799087E+03  0.00000000000E+00 0.  1.
         21   -1    0    0  502  503 -0.00000000000E+00 -0.00000000000E+00 -0.15468045521E+03  0.15468045521E+03  0.00000000000E+00 0.  1.
          6    1    1    2  501    0  0.21001896793E+03  0.52272509551E+02  0.35889812503E+03  0.45340627069E+03  0.17300000000E+03 0.  1.
         -6    1    1    2    0  503 -0.21001896793E+03 -0.52272509551E+02  0.71229410623E+02  0.28608217540E+03  0.17300000000E+03 0.  1.
</event>
<event>
 4    1  0.6104111E+000  0.1000000E+03  0.7546771E-02  0.1280296E+00
         21   -1    0    0  501  502  0.00000000000E+00  0.00000000000E+00  0.43005716098E+03  0.43005716098E+03  0.00000000000E+00 0.  1.
         21   -1    0    0  502  503 -0.00000000000E+00 -0.00000000000E+00 -0.81351297675E+02  0.81351297675E+02  0.00000000000E+00 0.  1.
          6    1    1    2  501    0  0.57397575975E+02 -0.41800102110E+02  0.17964368358E+03  0.25931174928E+03  0.17300000000E+03 0.  1.
         -6    1    1    2    0  503 -0.57397575975E+02  0.41800102110E+02  0.16906217973E+03  0.25209670938E+03  0.17300000000E+03 0.  1.
</event>
<event>
 4    1  0.6104111E+000  0.1000000E+03  0.7546771E-02  0.1280296E+00
         21   -1    0    0  501  502  0.00000000000E+00  0.00000000000E+00  0.97768416612E+02  0.97768416612E+02  0.00000000000E+00 0. -1.
         21   -1    0    0  502  503 -0.00000000000E+00 -0.00000000000E+00 -0.54147046341E+03  0.54147046341E+03  0.00000000000E+00 0. -1.
          6    1    1    2  501    0 -0.10840585148E+03 -0.69464204224E+02 -0.11043697119E+03  0.24228584133E+03  0.17300000000E+03 0. -1.
         -6    1    1    2    0  503  0.10840585148E+03  0.69464204224E+02 -0.33326507560E+03  0.39695303868E+03  0.17300000000E+03 0. -1.
</event>
<event>
 4    1  0.6104111E+000  0.1000000E+03  0.7546771E-02  0.1280296E+00
         21   -1    0    0  501  502  0.00000000000E+00  0.00000000000E+00  0.45807565592E+03  0.45807565592E+03  0.00000000000E+00 0. -1.
         21   -1    0    0  502  503 -0.00000000000E+00 -0.00000000000E+00 -0.27031891020E+03  0.27031891020E+03  0.00000000000E+00 0. -1.
          6    1    1    2  501    0  0.20030208157E+03  0.23144260041E+03  0.10890908046E+03  0.36807171716E+03  0.17300000000E+03 0. -1.
         -6    1    1    2    0  503 -0.20030208157E+03 -0.23144260041E+03  0.78847665258E+02  0.36032284896E+03  0.17300000000E+03 0. -1.
</event>
<event>
 4    1  0.6104111E+000  0.1000000E+03  0.7546771E-02  0.1280296E+00
         21   -1    0    0  503  502  0.00000000000E+00  0.00000000000E+00  0.12764267000E+03  0.12764267000E+03  0.00000000000E+00 0. -1.
         21   -1    0    0  501  503 -0.00000000000E+00 -0.00000000000E+00 -0.52325421032E+03  0.52325421032E+03  0.00000000000E+00 0. -1.
          6    1    1    2  501    0 -0.37171231482E+02  0.10092854670E+03 -0.39807857788E+03  0.44717315009E+03  0.17300000000E+03 0. -1.
         -6    1    1    2    0  502  0.37171231482E+02 -0.10092854670E+03  0.24670375629E+01  0.20372373024E+03  0.17300000000E+03 0. -1.
</event>
<event>
 4    1  0.6104111E+000  0.1000000E+03  0.7546771E-02  0.1280296E+00
         21   -1    0    0  503  502  0.00000000000E+00  0.00000000000E+00  0.10360771353E+04  0.10360771353E+04  0.00000000000E+00 0. -1.
         21   -1    0    0  501  503 -0.00000000000E+00 -0.00000000000E+00 -0.47043049682E+02  0.47043049682E+02  0.00000000000E+00 0. -1.
          6    1    1    2  501    0  0.35460901922E+02  0.42895882378E+02  0.18701921913E+03  0.26077331269E+03  0.17300000000E+03 0. -1.
         -6    1    1    2    0  502 -0.35460901922E+02 -0.42895882378E+02  0.80201486650E+03  0.82234687230E+03  0.17300000000E+03 0. -1.
</event>
<event>
 4    1  0.6104111E+000  0.1000000E+03  0.7546771E-02  0.1280296E+00
         21   -1    0    0  501  502  0.00000000000E+00  0.00000000000E+00  0.16095213950E+04  0.16095213950E+04  0.00000000000E+00 0.  1.
         21   -1    0    0  502  503 -0.00000000000E+00 -0.00000000000E+00 -0.42172030049E+02  0.42172030049E+02  0.00000000000E+00 0. -1.
          6    1    1    2  501    0 -0.17639038883E+03 -0.41141383761E+02  0.10109687170E+04  0.10415339310E+04  0.17300000000E+03 0.  1.
         -6    1    1    2    0  503  0.17639038883E+03  0.41141383761E+02  0.55638064794E+03  0.61015949401E+03  0.17300000000E+03 0. -1.
</event>
<event>
 4    1  0.6104111E+000  0.1000000E+03  0.7546771E-02  0.1280296E+00
         21   -1    0    0  503  502  0.00000000000E+00  0.00000000000E+00  0.19186484524E+02  0.19186484524E+02  0.00000000000E+00 0.  1.
         21   -1    0    0  501  503 -0.00000000000E+00 -0.00000000000E+00 -0.19288922748E+04  0.19288922748E+04  0.00000000000E+00 0. -1.
          6    1    1    2  501    0 -0.71246252257E+02 -0.29223164277E+02 -0.11265273809E+04  0.11423322466E+04  0.17300000000E+03 0.  1.
         -6    1    1    2    0  502  0.71246252257E+02  0.29223164277E+02 -0.78317840936E+03  0.80574651267E+03  0.17300000000E+03 0.  1.
</event>
<event>
 4    1  0.6104111E+000  0.1000000E+03  0.7546771E-02  0.1280296E+00
         21   -1    0    0  503  502  0.00000000000E+00  0.00000000000E+00  0.18368229965E+03  0.18368229965E+03  0.00000000000E+00 0.  1.
         21   -1    0    0  501  503 -0.00000000000E+00 -0.00000000000E+00 -0.18856973860E+03  0.18856973860E+03  0.00000000000E+00 0. -1.
          6    1    1    2  501    0 -0.15307318313E+02 -0.37987787051E+02 -0.57498780706E+02  0.18684885802E+03  0.17300000000E+03 0.  1.
         -6    1    1    2    0  502  0.15307318313E+02  0.37987787051E+02  0.52611341755E+02  0.18540318023E+03  0.17300000000E+03 0.  1.
</event>
<event>
 4    1  0.6104111E+000  0.1000000E+03  0.7546771E-02  0.1280296E+00
         21   -1    0    0  503  502  0.00000000000E+00  0.00000000000E+00  0.48745879132E+03  0.48745879132E+03  0.00000000000E+00 0.  1.
         21   -1    0    0  501  503 -0.00000000000E+00 -0.00000000000E+00 -0.19622636206E+03  0.19622636206E+03  0.00000000000E+00 0. -1.
          6    1    1    2  501    0 -0.83218210819E+02 -0.10205541325E+02 -0.12216172237E+03  0.22777600861E+03  0.17300000000E+03 0.  1.
         -6    1    1    2    0  502  0.83218210819E+02  0.10205541325E+02  0.41339415163E+03  0.45590914477E+03  0.17300000000E+03 0.  1.
</event>
<event>
 4    1  0.6104111E+000  0.1000000E+03  0.7546771E-02  0.1280296E+00
         21   -1    0    0  501  502  0.00000000000E+00  0.00000000000E+00  0.19848642154E+03  0.19848642154E+03  0.00000000000E+00 0. -1.
         21   -1    0    0  502  503 -0.00000000000E+00 -0.00000000000E+00 -0.19280859802E+03  0.19280859802E+03  0.00000000000E+00 0. -1.
          6    1    1    2  501    0  0.12990923856E+02  0.20100346282E+01 -0.87548058947E+02  0.19433596416E+03  0.17300000000E+03 0. -1.
         -6    1    1    2    0  503 -0.12990923856E+02 -0.20100346282E+01  0.93225882463E+02  0.19695905540E+03  0.17300000000E+03 0. -1.
</event>
<event>
 4    1  0.6104111E+000  0.1000000E+03  0.7546771E-02  0.1280296E+00
         21   -1    0    0  501  502  0.00000000000E+00  0.00000000000E+00  0.14456034424E+04  0.14456034424E+04  0.00000000000E+00 0. -1.
         21   -1    0    0  502  503 -0.00000000000E+00 -0.00000000000E+00 -0.15271675035E+03  0.15271675035E+03  0.00000000000E+00 0.  1.
          6    1    1    2  501    0 -0.51758875588E+02 -0.27084317708E+03  0.12227373449E+04  0.12653262909E+04  0.17300000000E+03 0. -1.
         -6    1    1    2    0  503  0.51758875588E+02  0.27084317708E+03  0.70149347145E+02  0.33299390186E+03  0.17300000000E+03 0.  1.
</event>
<event>
 4    1  0.6104111E+000  0.1000000E+03  0.7546771E-02  0.1280296E+00
         21   -1    0    0  501  502  0.00000000000E+00  0.00000000000E+00  0.12176883257E+04  0.12176883257E+04  0.00000000000E+00 0. -1.
         21   -1    0    0  502  503 -0.00000000000E+00 -0.00000000000E+00 -0.22160835729E+03  0.22160835729E+03  0.00000000000E+00 0.  1.
          6    1    1    2  501    0 -0.14171228717E+03  0.88826588646E+02  0.11358248880E+04  0.11610338976E+04  0.17300000000E+03 0. -1.
         -6    1    1    2    0  503  0.14171228717E+03 -0.88826588646E+02 -0.13974491958E+03  0.27826278539E+03  0.17300000000E+03 0.  1.
</event>
<event>
 4    1  0.6104111E+000  0.1000000E+03  0.7546771E-02  0.1280296E+00
         21   -1    0    0  503  502  0.00000000000E+00  0.00000000000E+00  0.12208571498E+03  0.12208571498E+03  0.00000000000E+00 0.  1.
         21   -1    0    0  501  503 -0.00000000000E+00 -0.00000000000E+00 -0.52662245404E+03  0.52662245404E+03  0.00000000000E+00 0. -1.
          6    1    1    2  501    0 -0.11999403834E+03  0.16475125948E+02 -0.38178517295E+03  0.43630140648E+03  0.17300000000E+03 0.  1.
         -6    1    1    2    0  502  0.11999403834E+03 -0.16475125948E+02 -0.22751566108E+02  0.21240676254E+03  0.17300000000E+03 0. -1.
</event>
<event>
 4    1  0.6104111E+000  0.1000000E+03  0.7546771E-02  0.1280296E+00
         21   -1    0    0  503  502  0.00000000000E+00  0.00000000000E+00  0.35324458018E+03  0.35324458018E+03  0.00000000000E+00 0.  1.
         21   -1    0    0  501  503 -0.00000000000E+00 -0.00000000000E+00 -0.62699714131E+03  0.62699714131E+03  0.00000000000E+00 0. -1.
          6    1    1    2  501    0  0.14668244944E+02  0.83794844117E+02 -0.58398801408E+03  0.61498596236E+03  0.17300000000E+03 0.  1.
         -6    1    1    2    0  502 -0.14668244944E+02 -0.83794844117E+02  0.31023545295E+03  0.36525575913E+03  0.17300000000E+03 0. -1.
</event>
<event>
 4    1  0.6104111E+000  0.1000000E+03  0.7546771E-02  0.1280296E+00
         21   -1    0    0  503  502  0.00000000000E+00  0.00000000000E+00  0.29969247743E+03  0.29969247743E+03  0.00000000000E+00 0.  1.
         21   -1    0    0  501  503 -0.00000000000E+00 -0.00000000000E+00 -0.15393389997E+03  0.15393389997E+03  0.00000000000E+00 0. -1.
          6    1    1    2  501    0 -0.76103595383E+01  0.34763337397E+02 -0.56183519559E+02  0.18534291211E+03  0.17300000000E+03 0.  1.
         -6    1    1    2    0  502  0.76103595383E+01 -0.34763337397E+02  0.20194209702E+03  0.26828346529E+03  0.17300000000E+03 0. -1.
</event>
<event>
 4    1  0.6104111E+000  0.1000000E+03  0.7546771E-02  0.1280296E+00
         21   -1    0    0  503  502  0.00000000000E+00  0.00000000000E+00  0.84357640916E+03  0.84357640916E+03  0.00000000000E+00 0. -1.
         21   -1    0    0  501  503 -0.00000000000E+00 -0.00000000000E+00 -0.16967809276E+03  0.16967809276E+03  0.00000000000E+00 0.  1.
          6    1    1    2  501    0 -0.14665061071E+03  0.56861977761E+02 -0.61346835020E+02  0.24172736772E+03  0.17300000000E+03 0.  1.
         -6    1    1    2    0  502  0.14665061071E+03 -0.56861977761E+02  0.73524515141E+03  0.77152713420E+03  0.17300000000E+03 0. -1.
</event>
<event>
 4    1  0.6104111E+000  0.1000000E+03  0.7546771E-02  0.1280296E+00
         21   -1    0    0  503  502  0.00000000000E+00  0.00000000000E+00  0.14301665578E+04  0.14301665578E+04  0.00000000000E+00 0. -1.
         21   -1    0    0  501  503 -0.00000000000E+00 -0.00000000000E+00 -0.28218456852E+02  0.28218456852E+02  0.00000000000E+00 0.  1.
          6    1    1    2  501    0  0.93220460588E+02  0.25731514552E+02  0.58191185103E+03  0.61473780385E+03  0.17300000000E+03 0.  1.
         -6    1    1    2    0  502 -0.93220460588E+02 -0.25731514552E+02  0.82003624987E+03  0.84364721075E+03  0.17300000000E+03 0. -1.
</event>
<event>
 4    1  0.6104111E+000  0.1000000E+03  0.7546771E-02  0.1280296E+00
         21   -1    0    0  503  502  0.00000000000E+00  0.00000000000E+00  0.11937441252E+04  0.11937441252E+04  0.00000000000E+00 0. -1.
         21   -1    0    0  501  503 -0.00000000000E+00 -0.00000000000E+00 -0.39170424168E+02  0.39170424168E+02  0.00000000000E+00 0.  1.
          6    1    1    2  501    0  0.85705953544E+02  0.95518535966E+02  0.63146442693E+03  0.66719234383E+03  0.17300000000E+03 0.  1.
         -6    1    1    2    0  502 -0.85705953544E+02 -0.95518535966E+02  0.52310927406E+03  0.56572220550E+03  0.17300000000E+03 0. -1.
</event>
<event>
 4    1  0.6104111E+000  0.1000000E+03  0.7546771E-02  0.1280296E+00
         21   -1    0    0  503  502  0.00000000000E+00  0.00000000000E+00  0.36091430102E+03  0.36091430102E+03  0.00000000000E+00 0. -1.
         21   -1    0    0  501  503 -0.00000000000E+00 -0.00000000000E+00 -0.32677497603E+03  0.32677497603E+03  0.00000000000E+00 0.  1.
          6    1    1    2  501    0 -0.17709415226E+03  0.23799260595E+03  0.14628864309E+02  0.34372346868E+03  0.17300000000E+03 0.  1.
         -6    1    1    2    0  502  0.17709415226E+03 -0.23799260595E+03  0.19510460674E+02  0.34396580837E+03  0.17300000000E+03 0. -1.
</event>
<event>
 4    1  0.6104111E+000  0.1000000E+03  0.7546771E-02  0.1280296E+00
         21   -1    0    0  503  502  0.00000000000E+00  0.00000000000E+00  0.16050101725E+04  0.16050101725E+04  0.00000000000E+00 0.  1.
         21   -1    0    0  501  503 -0.00000000000E+00 -0.00000000000E+00 -0.97606534679E+02  0.97606534679E+02  0.00000000000E+00 0.  1.
          6    1    1    2  501    0 -0.18144035479E+03  0.78955620786E+02  0.11719826970E+03  0.28778295089E+03  0.17300000000E+03 0.  1.
         -6    1    1    2    0  502  0.18144035479E+03 -0.78955620786E+02  0.13902053681E+04  0.14148337563E+04  0.17300000000E+03 0.  1.
</event>
<event>
 4    1  0.6104111E+000  0.1000000E+03  0.7546771E-02  0.1280296E+00
         21   -1    0    0  503  502  0.00000000000E+00  0.00000000000E+00  0.52612585105E+03  0.52612585105E+03  0.00000000000E+00 0.  1.
         21   -1    0    0  501  503 -0.00000000000E+00 -0.00000000000E+00 -0.23091882662E+03  0.23091882662E+03  0.00000000000E+00 0.  1.
          6    1    1    2  501    0 -0.30190471700E+03 -0.16521708783E+02  0.13457464887E+03  0.37344177742E+03  0.17300000000E+03 0.  1.
         -6    1    1    2    0  502  0.30190471700E+03  0.16521708783E+02  0.16063237556E+03  0.38360290026E+03  0.17300000000E+03 0.  1.
</event>
<event>
 4    1  0.6104111E+000  0.1000000E+03  0.7546771E-02  0.1280296E+00
         21   -1    0    0  503  502  0.00000000000E+00  0.00000000000E+00  0.15452655735E+03  0.15452655735E+03  0.00000000000E+00 0.  1.
         21   -1    0    0  501  503 -0.00000000000E+00 -0.00000000000E+00 -0.10118087147E+04  0.10118087147E+04  0.00000000000E+00 0.  1.
          6    1    1    2  501    0  0.11695785520E+03 -0.30980164783E+03 -0.61960832292E+03  0.72353277378E+03  0.17300000000E+03 0.  1.
         -6    1    1    2    0  502 -0.11695785520E+03  0.30980164783E+03 -0.23767383440E+03  0.44280249824E+03  0.17300000000E+03 0.  1.
</event>
<event>
 4    1  0.6104111E+000  0.1000000E+03  0.7546771E-02  0.1280296E+00
         21   -1    0    0  503  502  0.00000000000E+00  0.00000000000E+00  0.63999169348E+03  0.63999169348E+03  0.00000000000E+00 0.  1.
         21   -1    0    0  501  503 -0.00000000000E+00 -0.00000000000E+00 -0.94230412284E+02  0.94230412284E+02  0.00000000000E+00 0.  1.
          6    1    1    2  501    0  0.13186900245E+03 -0.11396591605E+03  0.27307731702E+03  0.36725724622E+03  0.17300000000E+03 0.  1.
         -6    1    1    2    0  502 -0.13186900245E+03  0.11396591605E+03  0.27268396418E+03  0.36696485955E+03  0.17300000000E+03 0.  1.
</event>
<event>
 4    1  0.6104111E+000  0.1000000E+03  0.7546771E-02  0.1280296E+00
         21   -1    0    0  501  502  0.00000000000E+00  0.00000000000E+00  0.58211266955E+02  0.58211266955E+02  0.00000000000E+00 0.  1.
         21   -1    0    0  502  503 -0.00000000000E+00 -0.00000000000E+00 -0.97463175524E+03  0.97463175524E+03  0.00000000000E+00 0.  1.
          6    1    1    2  501    0 -0.65038668566E+02  0.69738756005E+02 -0.16966451551E+03  0.26040078786E+03  0.17300000000E+03 0.  1.
         -6    1    1    2    0  503  0.65038668566E+02 -0.69738756005E+02 -0.74675597278E+03  0.77244223433E+03  0.17300000000E+03 0.  1.
</event>
<event>
 4    1  0.6104111E+000  0.1000000E+03  0.7546771E-02  0.1280296E+00
         21   -1    0    0  501  502  0.00000000000E+00  0.00000000000E+00  0.10756458510E+03  0.10756458510E+03  0.00000000000E+00 0.  1.
         21   -1    0    0  502  503 -0.00000000000E+00 -0.00000000000E+00 -0.71393469114E+03  0.71393469114E+03  0.00000000000E+00 0.  1.
          6    1    1    2  501    0  0.67591917244E+02 -0.10232085898E+03 -0.38755364465E+02  0.21556716757E+03  0.17300000000E+03 0.  1.
         -6    1    1    2    0  503 -0.67591917244E+02  0.10232085898E+03 -0.56761474158E+03  0.60593210867E+03  0.17300000000E+03 0.  1.
</event>
<event>
 4    1  0.6104111E+000  0.1000000E+03  0.7546771E-02  0.1280296E+00
         21   -1    0    0  501  502  0.00000000000E+00  0.00000000000E+00  0.43180932401E+02  0.43180932401E+02  0.00000000000E+00 0.  1.
         21   -1    0    0  502  503 -0.00000000000E+00 -0.00000000000E+00 -0.86417849985E+03  0.86417849985E+03  0.00000000000E+00 0. -1.
          6    1    1    2  501    0  0.84616653978E+02  0.86876666952E+01 -0.38158385342E+03  0.42751688957E+03  0.17300000000E+03 0.  1.
         -6    1    1    2    0  503 -0.84616653978E+02 -0.86876666952E+01 -0.43941371403E+03  0.47984254268E+03  0.17300000000E+03 0. -1.
</event>
<event>
 4    1  0.6104111E+000  0.1000000E+03  0.7546771E-02  0.1280296E+00
         21   -1    0    0  501  502  0.00000000000E+00  0.00000000000E+00  0.88980220224E+03  0.88980220224E+03  0.00000000000E+00 0.  1.
         21   -1    0    0  502  503 -0.00000000000E+00 -0.00000000000E+00 -0.17147500941E+03  0.17147500941E+03  0.00000000000E+00 0. -1.
          6    1    1    2  501    0 -0.71196686474E+02  0.18278357610E+02  0.82432335813E+03  0.84548274097E+03  0.17300000000E+03 0.  1.
         -6    1    1    2    0  503  0.71196686474E+02 -0.18278357610E+02 -0.10599616530E+03  0.21579447069E+03  0.17300000000E+03 0. -1.
</event>
<event>
 4    1  0.6104111E+000  0.1000000E+03  0.7546771E-02  0.1280296E+00
         21   -1    0    0  501  502  0.00000000000E+00  0.00000000000E+00  0.83921737485E+03  0.83921737485E+03  0.00000000000E+00 0.  1.
         21   -1    0    0  502  503 -0.00000000000E+00 -0.00000000000E+00 -0.25346629320E+03  0.25346629320E+03  0.00000000000E+00 0. -1.
          6    1    1    2  501    0 -0.29734412721E+02 -0.23089275557E+03  0.71765993011E+03  0.77405450400E+03  0.17300000000E+03 0.  1.
         -6    1    1    2    0  503  0.29734412721E+02  0.23089275557E+03 -0.13190884847E+03  0.31862916405E+03  0.17300000000E+03 0. -1.
</event>
<event>
 4    1  0.6104111E+000  0.1000000E+03  0.7546771E-02  0.1280296E+00
         21   -1    0    0  503  502  0.00000000000E+00  0.00000000000E+00  0.13373181364E+04  0.13373181364E+04  0.00000000000E+00 0. -1.
         21   -1    0    0  501  503 -0.00000000000E+00 -0.00000000000E+00 -0.62924351588E+02  0.62924351588E+02  0.00000000000E+00 0.  1.
          6    1    1    2  501    0  0.75502908233E+02 -0.55449619623E+02  0.12268894600E+03  0.23185540093E+03  0.17300000000E+03 0.  1.
         -6    1    1    2    0  502 -0.75502908233E+02  0.55449619623E+02  0.11517048388E+04  0.11683870870E+04  0.17300000000E+03 0.  1.
</event>
<event>
 4    1  0.6104111E+000  0.1000000E+03  0.7546771E-02  0.1280296E+00
         21   -1    0    0  503  502  0.00000000000E+00  0.00000000000E+00  0.95186006871E+02  0.95186006871E+02  0.00000000000E+00 0.  1.
         21   -1    0    0  501  503 -0.00000000000E+00 -0.00000000000E+00 -0.92104525126E+03  0.92104525126E+03  0.00000000000E+00 0.  1.
          6    1    1    2  501    0 -0.16621300753E+02  0.23924748032E+03 -0.43872756433E+03  0.52908080685E+03  0.17300000000E+03 0.  1.
         -6    1    1    2    0  502  0.16621300753E+02 -0.23924748032E+03 -0.38713168007E+03  0.48715045129E+03  0.17300000000E+03 0.  1.
</event>
<event>
 4    1  0.6104111E+000  0.1000000E+03  0.7546771E-02  0.1280296E+00
         21   -1    0    0  503  502  0.00000000000E+00  0.00000000000E+00  0.30543589990E+03  0.30543589990E+03  0.00000000000E+00 0.  1.
         21   -1    0    0  501  503 -0.00000000000E+00 -0.00000000000E+00 -0.17885886615E+03  0.17885886615E+03  0.00000000000E+00 0.  1.
          6    1    1    2  501    0 -0.36747973081E+02  0.29253254926E+02 -0.92095058420E+02  0.20153576912E+03  0.17300000000E+03 0.  1.
         -6    1    1    2    0  502  0.36747973081E+02 -0.29253254926E+02  0.21867209217E+03  0.28275899693E+03  0.17300000000E+03 0.  1.
</event>
<event>
 4    1  0.6104111E+000  0.1000000E+03  0.7546771E-02  0.1280296E+00
         21   -1    0    0  503  502  0.00000000000E+00  0.00000000000E+00  0.20149485141E+03  0.20149485141E+03  0.00000000000E+00 0.  1.
         21   -1    0    0  501  503 -0.00000000000E+00 -0.00000000000E+00 -0.15971054692E+03  0.15971054692E+03  0.00000000000E+00 0.  1.
          6    1    1    2  501    0 -0.10959169005E+02 -0.80728378449E+00 -0.25583677776E+02  0.17522636691E+03  0.17300000000E+03 0.  1.
         -6    1    1    2    0  502  0.10959169005E+02  0.80728378449E+00  0.67367982273E+02  0.18597903142E+03  0.17300000000E+03 0.  1.
</event>
<event>
 4    1  0.6104111E+000  0.1000000E+03  0.7546771E-02  0.1280296E+00
         21   -1    0    0  503  502  0.00000000000E+00  0.00000000000E+00  0.44068479716E+03  0.44068479716E+03  0.00000000000E+00 0.  1.
         21   -1    0    0  501  503 -0.00000000000E+00 -0.00000000000E+00 -0.74448917849E+02  0.74448917849E+02  0.00000000000E+00 0.  1.
          6    1    1    2  501    0 -0.14683287472E+02  0.47318653866E+02  0.21242793509E+03  0.27840488778E+03  0.17300000000E+03 0.  1.
         -6    1    1    2    0  502  0.14683287472E+02 -0.47318653866E+02  0.15380794423E+03  0.23672882723E+03  0.17300000000E+03 0.  1.
</event>
<event>
 4    1  0.6104111E+000  0.1000000E+03  0.7546771E-02  0.1280296E+00
         21   -1    0    0  503  502  0.00000000000E+00  0.00000000000E+00  0.23739991069E+03  0.23739991069E+03  0.00000000000E+00 0.  1.
         21   -1    0    0  501  503 -0.00000000000E+00 -0.00000000000E+00 -0.76271982864E+03  0.76271982864E+03  0.00000000000E+00 0.  1.
          6    1    1    2  501    0 -0.16687411190E+03 -0.28517478173E+02 -0.67393515051E+03  0.71608505283E+03  0.17300000000E+03 0.  1.
         -6    1    1    2    0  502  0.16687411190E+03  0.28517478173E+02  0.14861523256E+03  0.28403468650E+03  0.17300000000E+03 0.  1.
</event>
<event>
 4    1  0.6104111E+000  0.1000000E+03  0.7546771E-02  0.1280296E+00
         21   -1    0    0  501  502  0.00000000000E+00  0.00000000000E+00  0.38187662191E+04  0.38187662191E+04  0.00000000000E+00 0. -1.
         21   -1    0    0  502  503 -0.00000000000E+00 -0.00000000000E+00 -0.31237656163E+02  0.31237656163E+02  0.00000000000E+00 0.  1.
          6    1    1    2  501    0 -0.15676795022E+03  0.15676537500E+03  0.30113751321E+04  0.30244769398E+04  0.17300000000E+03 0. -1.
         -6    1    1    2    0  503  0.15676795022E+03 -0.15676537500E+03  0.77615343085E+03  0.82552693550E+03  0.17300000000E+03 0.  1.
</event>
<event>
 4    1  0.6104111E+000  0.1000000E+03  0.7546771E-02  0.1280296E+00
         21   -1    0    0  501  502  0.00000000000E+00  0.00000000000E+00  0.50430212348E+02  0.50430212348E+02  0.00000000000E+00 0. -1.
         21   -1    0    0  502  503 -0.00000000000E+00 -0.00000000000E+00 -0.86189747619E+03  0.86189747619E+03  0.00000000000E+00 0.  1.
          6    1    1    2  501    0  0.67681805929E+02  0.13172774773E+02 -0.20068712178E+03  0.27378580989E+03  0.17300000000E+03 0. -1.
         -6    1    1    2    0  503 -0.67681805929E+02 -0.13172774773E+02 -0.61078014206E+03  0.63854187864E+03  0.17300000000E+03 0.  1.
</event>
<event>
 4    1  0.6104111E+000  0.1000000E+03  0.7546771E-02  0.1280296E+00
         21   -1    0    0  503  502  0.00000000000E+00  0.00000000000E+00  0.33623732406E+03  0.33623732406E+03  0.00000000000E+00 0. -1.
         21   -1    0    0  501  503 -0.00000000000E+00 -0.00000000000E+00 -0.31287852046E+03  0.31287852046E+03  0.00000000000E+00 0. -1.
          6    1    1    2  501    0  0.18553142965E+03  0.14139857029E+03 -0.13283361975E+03  0.31935753882E+03  0.17300000000E+03 0. -1.
         -6    1    1    2    0  502 -0.18553142965E+03 -0.14139857029E+03  0.15619242335E+03  0.32975830570E+03  0.17300000000E+03 0. -1.
</event>
<event>
 4    1  0.6104111E+000  0.1000000E+03  0.7546771E-02  0.1280296E+00
         21   -1    0    0  503  502  0.00000000000E+00  0.00000000000E+00  0.16423385745E+03  0.16423385745E+03  0.00000000000E+00 0.  1.
         21   -1    0    0  501  503 -0.00000000000E+00 -0.00000000000E+00 -0.13131560484E+04  0.13131560484E+04  0.00000000000E+00 0.  1.
          6    1    1    2  501    0  0.34089249135E-01 -0.19614799149E+03 -0.11848694137E+04  0.12133913480E+04  0.17300000000E+03 0.  1.
         -6    1    1    2    0  502 -0.34089249135E-01  0.19614799149E+03  0.35947222805E+02  0.26399855787E+03  0.17300000000E+03 0.  1.
</event>
<event>
 4    1  0.6104111E+000  0.1000000E+03  0.7546771E-02  0.1280296E+00
         21   -1    0    0  501  502  0.00000000000E+00  0.00000000000E+00  0.38058491163E+02  0.38058491163E+02  0.00000000000E+00 0.  1.
         21   -1    0    0  502  503 -0.00000000000E+00 -0.00000000000E+00 -0.17499702947E+04  0.17499702947E+04  0.00000000000E+00 0.  1.
          6    1    1    2  501    0 -0.43914158761E+02 -0.18496605136E+03 -0.77610353242E+03  0.81756136560E+03  0.17300000000E+03 0.  1.
         -6    1    1    2    0  503  0.43914158761E+02  0.18496605136E+03 -0.93580827113E+03  0.97046742027E+03  0.17300000000E+03 0.  1.
</event>
<event>
 4    1  0.6104111E+000  0.1000000E+03  0.7546771E-02  0.1280296E+00
         21   -1    0    0  501  502  0.00000000000E+00  0.00000000000E+00  0.23166531753E+03  0.23166531753E+03  0.00000000000E+00 0. -1.
         21   -1    0    0  502  503 -0.00000000000E+00 -0.00000000000E+00 -0.56463172127E+03  0.56463172127E+03  0.00000000000E+00 0. -1.
          6    1    1    2  501    0  0.73712438020E+02 -0.63412834639E+01  0.17354319703E+03  0.25596870244E+03  0.17300000000E+03 0. -1.
         -6    1    1    2    0  503 -0.73712438020E+02  0.63412834639E+01 -0.50650960077E+03  0.54032833635E+03  0.17300000000E+03 0. -1.
</event>
<event>
 4    1  0.6104111E+000  0.1000000E+03  0.7546771E-02  0.1280296E+00
         21   -1    0    0  501  502  0.00000000000E+00  0.00000000000E+00  0.44500428081E+03  0.44500428081E+03  0.00000000000E+00 0. -1.
         21   -1    0    0  502  503 -0.00000000000E+00 -0.00000000000E+00 -0.10750762234E+03  0.10750762234E+03  0.00000000000E+00 0. -1.
          6    1    1    2  501    0  0.45659366475E+02  0.31108985084E+02  0.32271137082E+03  0.37030281602E+03  0.17300000000E+03 0. -1.
         -6    1    1    2    0  503 -0.45659366475E+02 -0.31108985084E+02  0.14785287649E+02  0.18220908712E+03  0.17300000000E+03 0. -1.
</event>
<event>
 4    1  0.6104111E+000  0.1000000E+03  0.7546771E-02  0.1280296E+00
         21   -1    0    0  503  502  0.00000000000E+00  0.00000000000E+00  0.53946047176E+03  0.53946047176E+03  0.00000000000E+00 0. -1.
         21   -1    0    0  501  503 -0.00000000000E+00 -0.00000000000E+00 -0.76478764521E+02  0.76478764521E+02  0.00000000000E+00 0. -1.
          6    1    1    2  501    0  0.85983706715E+02 -0.57901788405E+02  0.19489861394E+03  0.28046440886E+03  0.17300000000E+03 0. -1.
         -6    1    1    2    0  502 -0.85983706715E+02  0.57901788405E+02  0.26808309329E+03  0.33547482742E+03  0.17300000000E+03 0. -1.
</event>
<event>
 4    1  0.6104111E+000  0.1000000E+03  0.7546771E-02  0.1280296E+00
         21   -1    0    0  503  502  0.00000000000E+00  0.00000000000E+00  0.76127539417E+03  0.76127539417E+03  0.00000000000E+00 0. -1.
         21   -1    0    0  501  503 -0.00000000000E+00 -0.00000000000E+00 -0.25380109655E+03  0.25380109655E+03  0.00000000000E+00 0. -1.
          6    1    1    2  501    0 -0.32238291318E+03 -0.24041207261E+03  0.20820779021E+03  0.48477643432E+03  0.17300000000E+03 0. -1.
         -6    1    1    2    0  502  0.32238291318E+03  0.24041207261E+03  0.29926650740E+03  0.53030005640E+03  0.17300000000E+03 0. -1.
</event>
<event>
 4    1  0.6104111E+000  0.1000000E+03  0.7546771E-02  0.1280296E+00
         21   -1    0    0  503  502  0.00000000000E+00  0.00000000000E+00  0.16569860286E+04  0.16569860286E+04  0.00000000000E+00 0.  1.
         21   -1    0    0  501  503 -0.00000000000E+00 -0.00000000000E+00 -0.14942238829E+03  0.14942238829E+03  0.00000000000E+00 0. -1.
          6    1    1    2  501    0 -0.29927570724E+03  0.18006676206E+03  0.19233230020E+03  0.43463858716E+03  0.17300000000E+03 0.  1.
         -6    1    1    2    0  502  0.29927570724E+03 -0.18006676206E+03  0.13152313401E+04  0.13717698297E+04  0.17300000000E+03 0.  1.
</event>
<event>
 4    1  0.6104111E+000  0.1000000E+03  0.7546771E-02  0.1280296E+00
         21   -1    0    0  503  502  0.00000000000E+00  0.00000000000E+00  0.12702375293E+03  0.12702375293E+03  0.00000000000E+00 0.  1.
         21   -1    0    0  501  503 -0.00000000000E+00 -0.00000000000E+00 -0.37565619385E+03  0.37565619385E+03  0.00000000000E+00 0. -1.
          6    1    1    2  501    0 -0.23908212649E+02 -0.11092705317E+03 -0.20495541476E+03  0.29122523207E+03  0.17300000000E+03 0.  1.
         -6    1    1    2    0  502  0.23908212649E+02  0.11092705317E+03 -0.43677026172E+02  0.21145471471E+03  0.17300000000E+03 0.  1.
</event>
<event>
 4    1  0.6104111E+000  0.1000000E+03  0.7546771E-02  0.1280296E+00
         21   -1    0    0  501  502  0.00000000000E+00  0.00000000000E+00  0.39391187331E+02  0.39391187331E+02  0.00000000000E+00 0. -1.
         21   -1    0    0  502  503 -0.00000000000E+00 -0.00000000000E+00 -0.11762109084E+04  0.11762109084E+04  0.00000000000E+00 0.  1.
          6    1    1    2  501    0  0.67706896684E+01  0.12503745616E+03 -0.49247705194E+03  0.53678939480E+03  0.17300000000E+03 0. -1.
         -6    1    1    2    0  503 -0.67706896684E+01 -0.12503745616E+03 -0.64434266909E+03  0.67881270089E+03  0.17300000000E+03 0.  1.
</event>
<event>
 4    1  0.6104111E+000  0.1000000E+03  0.7546771E-02  0.1280296E+00
         21   -1    0    0  501  502  0.00000000000E+00  0.00000000000E+00  0.77029202937E+03  0.77029202937E+03  0.00000000000E+00 0. -1.
         21   -1    0    0  502  503 -0.00000000000E+00 -0.00000000000E+00 -0.17128104327E+03  0.17128104327E+03  0.00000000000E+00 0.  1.
          6    1    1    2  501    0 -0.21771225442E+03 -0.53698022229E+02  0.59428227389E+03  0.65831795082E+03  0.17300000000E+03 0. -1.
         -6    1    1    2    0  503  0.21771225442E+03  0.53698022229E+02  0.47287122098E+01  0.28325512182E+03  0.17300000000E+03 0.  1.
</event>
<event>
 4    1  0.6104111E+000  0.1000000E+03  0.7546771E-02  0.1280296E+00
         21   -1    0    0  501  502  0.00000000000E+00  0.00000000000E+00  0.28792757556E+02  0.28792757556E+02  0.00000000000E+00 0.  1.
         21   -1    0    0  502  503 -0.00000000000E+00 -0.00000000000E+00 -0.20717709315E+04  0.20717709315E+04  0.00000000000E+00 0.  1.
          6    1    1    2  501    0 -0.88710553081E+02 -0.10369919142E+03 -0.56843175848E+03  0.60964477245E+03  0.17300000000E+03 0.  1.
         -6    1    1    2    0  503  0.88710553081E+02  0.10369919142E+03 -0.14745464155E+04  0.14909189166E+04  0.17300000000E+03 0.  1.
</event>
<event>
 4    1  0.6104111E+000  0.1000000E+03  0.7546771E-02  0.1280296E+00
         21   -1    0    0  501  502  0.00000000000E+00  0.00000000000E+00  0.89265459886E+03  0.89265459886E+03  0.00000000000E+00 0.  1.
         21   -1    0    0  502  503 -0.00000000000E+00 -0.00000000000E+00 -0.86530306074E+02  0.86530306074E+02  0.00000000000E+00 0. -1.
          6    1    1    2  501    0 -0.10402030063E+03  0.27316133918E+02  0.73612354896E+03  0.76378876232E+03  0.17300000000E+03 0. -1.
         -6    1    1    2    0  503  0.10402030063E+03 -0.27316133918E+02  0.70000743822E+02  0.21539614261E+03  0.17300000000E+03 0.  1.
</event>
<event>
 4    1  0.6104111E+000  0.1000000E+03  0.7546771E-02  0.1280296E+00
         21   -1    0    0  501  502  0.00000000000E+00  0.00000000000E+00  0.27825964424E+03  0.27825964424E+03  0.00000000000E+00 0.  1.
         21   -1    0    0  502  503 -0.00000000000E+00 -0.00000000000E+00 -0.17742445243E+04  0.17742445243E+04  0.00000000000E+00 0. -1.
          6    1    1    2  501    0 -0.39435610821E+03 -0.25117348424E+03 -0.24801421717E+02  0.49914824430E+03  0.17300000000E+03 0. -1.
         -6    1    1    2    0  503  0.39435610821E+03  0.25117348424E+03 -0.14711834583E+04  0.15533559242E+04  0.17300000000E+03 0.  1.
</event>
<event>
 4    1  0.6104111E+000  0.1000000E+03  0.7546771E-02  0.1280296E+00
         21   -1    0    0  503  502  0.00000000000E+00  0.00000000000E+00  0.30182535955E+02  0.30182535955E+02  0.00000000000E+00 0.  1.
         21   -1    0    0  501  503 -0.00000000000E+00 -0.00000000000E+00 -0.16216465578E+04  0.16216465578E+04  0.00000000000E+00 0.  1.
          6    1    1    2  501    0  0.11207463868E+03 -0.41837743798E+02 -0.10518098964E+04  0.10726342245E+04  0.17300000000E+03 0.  1.
         -6    1    1    2    0  502 -0.11207463868E+03  0.41837743798E+02 -0.53965412543E+03  0.57919486923E+03  0.17300000000E+03 0.  1.
</event>
<event>
 4    1  0.6104111E+000  0.1000000E+03  0.7546771E-02  0.1280296E+00
         21   -1    0    0  503  502  0.00000000000E+00  0.00000000000E+00  0.26969423307E+03  0.26969423307E+03  0.00000000000E+00 0.  1.
         21   -1    0    0  501  503 -0.00000000000E+00 -0.00000000000E+00 -0.16566383741E+03  0.16566383741E+03  0.00000000000E+00 0.  1.
          6    1    1    2  501    0  0.15092824693E+02 -0.75823501972E+02 -0.44441125177E+02  0.19463044576E+03  0.17300000000E+03 0.  1.
         -6    1    1    2    0  502 -0.15092824693E+02  0.75823501972E+02  0.14847152083E+03  0.24072762473E+03  0.17300000000E+03 0.  1.
</event>
<event>
 4    1  0.6104111E+000  0.1000000E+03  0.7546771E-02  0.1280296E+00
         21   -1    0    0  503  502  0.00000000000E+00  0.00000000000E+00  0.40383748697E+03  0.40383748697E+03  0.00000000000E+00 0.  1.
         21   -1    0    0  501  503 -0.00000000000E+00 -0.00000000000E+00 -0.20543256176E+03  0.20543256176E+03  0.00000000000E+00 0.  1.
          6    1    1    2  501    0  0.19681691320E+03 -0.11254379982E+03  0.56510009851E+02  0.29073249803E+03  0.17300000000E+03 0.  1.
         -6    1    1    2    0  502 -0.19681691320E+03  0.11254379982E+03  0.14189491535E+03  0.31853755069E+03  0.17300000000E+03 0.  1.
</event>
<event>
 4    1  0.6104111E+000  0.1000000E+03  0.7546771E-02  0.1280296E+00
         21   -1    0    0  501  502  0.00000000000E+00  0.00000000000E+00  0.92328564334E+02  0.92328564334E+02  0.00000000000E+00 0.  1.
         21   -1    0    0  502  503 -0.00000000000E+00 -0.00000000000E+00 -0.10993553450E+04  0.10993553450E+04  0.00000000000E+00 0.  1.
          6    1    1    2  501    0 -0.26013321274E+03 -0.22263287016E+02 -0.39433388223E+03  0.50358033420E+03  0.17300000000E+03 0. -1.
         -6    1    1    2    0  503  0.26013321274E+03  0.22263287016E+02 -0.61269289845E+03  0.68810357514E+03  0.17300000000E+03 0. -1.
</event>
<event>
 4    1  0.6104111E+000  0.1000000E+03  0.7546771E-02  0.1280296E+00
         21   -1    0    0  501  502  0.00000000000E+00  0.00000000000E+00  0.33153739085E+03  0.33153739085E+03  0.00000000000E+00 0.  1.
         21   -1    0    0  502  503 -0.00000000000E+00 -0.00000000000E+00 -0.29739599699E+03  0.29739599699E+03  0.00000000000E+00 0.  1.
          6    1    1    2  501    0  0.23855377933E+02 -0.99386826410E+01  0.27822585253E+03  0.32864339562E+03  0.17300000000E+03 0. -1.
         -6    1    1    2    0  503 -0.23855377933E+02  0.99386826410E+01 -0.24408445866E+03  0.30028999222E+03  0.17300000000E+03 0. -1.
</event>
<event>
 4    1  0.6104111E+000  0.1000000E+03  0.7546771E-02  0.1280296E+00
         21   -1    0    0  503  502  0.00000000000E+00  0.00000000000E+00  0.44035844231E+03  0.44035844231E+03  0.00000000000E+00 0. -1.
         21   -1    0    0  501  503 -0.00000000000E+00 -0.00000000000E+00 -0.12406320793E+03  0.12406320793E+03  0.00000000000E+00 0. -1.
          6    1    1    2  501    0  0.46596971694E+02  0.11619829859E+01 -0.23084803564E+02  0.18065031451E+03  0.17300000000E+03 0. -1.
         -6    1    1    2    0  502 -0.46596971694E+02 -0.11619829859E+01  0.33938003795E+03  0.38377133574E+03  0.17300000000E+03 0. -1.
</event>
<event>
 4    1  0.6104111E+000  0.1000000E+03  0.7546771E-02  0.1280296E+00
         21   -1    0    0  503  502  0.00000000000E+00  0.00000000000E+00  0.17251444111E+04  0.17251444111E+04  0.00000000000E+00 0.  1.
         21   -1    0    0  501  503 -0.00000000000E+00 -0.00000000000E+00 -0.29932381626E+02  0.29932381626E+02  0.00000000000E+00 0.  1.
          6    1    1    2  501    0  0.14397224848E+02  0.11693912960E+03  0.50596463789E+03  0.54755023049E+03  0.17300000000E+03 0.  1.
         -6    1    1    2    0  502 -0.14397224848E+02 -0.11693912960E+03  0.11892473916E+04  0.12075265622E+04  0.17300000000E+03 0.  1.
</event>
<event>
 4    1  0.6104111E+000  0.1000000E+03  0.7546771E-02  0.1280296E+00
         21   -1    0    0  503  502  0.00000000000E+00  0.00000000000E+00  0.27020106381E+03  0.27020106381E+03  0.00000000000E+00 0.  1.
         21   -1    0    0  501  503 -0.00000000000E+00 -0.00000000000E+00 -0.16774077816E+03  0.16774077816E+03  0.00000000000E+00 0.  1.
          6    1    1    2  501    0 -0.12406455001E+03 -0.11001456928E+01  0.49964648758E+02  0.21867484770E+03  0.17300000000E+03 0.  1.
         -6    1    1    2    0  502  0.12406455001E+03  0.11001456928E+01  0.52495636892E+02  0.21926699428E+03  0.17300000000E+03 0.  1.
</event>
<event>
 4    1  0.6104111E+000  0.1000000E+03  0.7546771E-02  0.1280296E+00
         21   -1    0    0  503  502  0.00000000000E+00  0.00000000000E+00  0.21394664876E+03  0.21394664876E+03  0.00000000000E+00 0.  1.
         21   -1    0    0  501  503 -0.00000000000E+00 -0.00000000000E+00 -0.46237307801E+03  0.46237307801E+03  0.00000000000E+00 0.  1.
          6    1    1    2  501    0 -0.43575528920E+02  0.24505307396E+03 -0.21445195785E+03  0.37130644757E+03  0.17300000000E+03 0.  1.
         -6    1    1    2    0  502  0.43575528920E+02 -0.24505307396E+03 -0.33974471394E+02  0.30501327920E+03  0.17300000000E+03 0.  1.
</event>
<event>
 4    1  0.6104111E+000  0.1000000E+03  0.7546771E-02  0.1280296E+00
         21   -1    0    0  503  502  0.00000000000E+00  0.00000000000E+00  0.27073191145E+03  0.27073191145E+03  0.00000000000E+00 0. -1.
         21   -1    0    0  501  503 -0.00000000000E+00 -0.00000000000E+00 -0.16546864813E+03  0.16546864813E+03  0.00000000000E+00 0. -1.
          6    1    1    2  501    0  0.80168374803E+02 -0.23351924638E+02 -0.38936042366E+02  0.19600330634E+03  0.17300000000E+03 0. -1.
         -6    1    1    2    0  502 -0.80168374803E+02  0.23351924638E+02  0.14419930569E+03  0.24019725324E+03  0.17300000000E+03 0. -1.
</event>
<event>
 4    1  0.6104111E+000  0.1000000E+03  0.7546771E-02  0.1280296E+00
         21   -1    0    0  503  502  0.00000000000E+00  0.00000000000E+00  0.10110916973E+03  0.10110916973E+03  0.00000000000E+00 0. -1.
         21   -1    0    0  501  503 -0.00000000000E+00 -0.00000000000E+00 -0.36689668742E+03  0.36689668742E+03  0.00000000000E+00 0. -1.
          6    1    1    2  501    0 -0.44286248708E+02  0.38089761228E+02 -0.20734792983E+03  0.27628656453E+03  0.17300000000E+03 0. -1.
         -6    1    1    2    0  502  0.44286248708E+02 -0.38089761228E+02 -0.58439587854E+02  0.19171929262E+03  0.17300000000E+03 0. -1.
</event>
<event>
 4    1  0.6104111E+000  0.1000000E+03  0.7546771E-02  0.1280296E+00
         21   -1    0    0  503  502  0.00000000000E+00  0.00000000000E+00  0.87829205027E+03  0.87829205027E+03  0.00000000000E+00 0. -1.
         21   -1    0    0  501  503 -0.00000000000E+00 -0.00000000000E+00 -0.39598859606E+02  0.39598859606E+02  0.00000000000E+00 0. -1.
          6    1    1    2  501    0  0.65305552416E+02 -0.24024217849E+02  0.41222033926E+03  0.45243406847E+03  0.17300000000E+03 0.  1.
         -6    1    1    2    0  502 -0.65305552416E+02  0.24024217849E+02  0.42647285141E+03  0.46545684140E+03  0.17300000000E+03 0.  1.
</event>
<event>
 4    1  0.6104111E+000  0.1000000E+03  0.7546771E-02  0.1280296E+00
         21   -1    0    0  503  502  0.00000000000E+00  0.00000000000E+00  0.19852903624E+03  0.19852903624E+03  0.00000000000E+00 0. -1.
         21   -1    0    0  501  503 -0.00000000000E+00 -0.00000000000E+00 -0.21432375386E+03  0.21432375386E+03  0.00000000000E+00 0. -1.
          6    1    1    2  501    0  0.87725589911E+02 -0.80309841259E+01 -0.77663657819E+02  0.20909547957E+03  0.17300000000E+03 0.  1.
         -6    1    1    2    0  502 -0.87725589911E+02  0.80309841259E+01  0.61868940195E+02  0.20375731052E+03  0.17300000000E+03 0.  1.
</event>
<event>
 4    1  0.6104111E+000  0.1000000E+03  0.7546771E-02  0.1280296E+00
         21   -1    0    0  501  502  0.00000000000E+00  0.00000000000E+00  0.21091270632E+03  0.21091270632E+03  0.00000000000E+00 0.  1.
         21   -1    0    0  502  503 -0.00000000000E+00 -0.00000000000E+00 -0.20587192924E+03  0.20587192924E+03  0.00000000000E+00 0.  1.
          6    1    1    2  501    0  0.66407724601E+02  0.50274236740E+02  0.83486306626E+02  0.20937155528E+03  0.17300000000E+03 0.  1.
         -6    1    1    2    0  503 -0.66407724601E+02 -0.50274236740E+02 -0.78445529541E+02  0.20741308028E+03  0.17300000000E+03 0.  1.
</event>
<event>
 4    1  0.6104111E+000  0.1000000E+03  0.7546771E-02  0.1280296E+00
         21   -1    0    0  501  502  0.00000000000E+00  0.00000000000E+00  0.45219038476E+03  0.45219038476E+03  0.00000000000E+00 0.  1.
         21   -1    0    0  502  503 -0.00000000000E+00 -0.00000000000E+00 -0.78315593457E+02  0.78315593457E+02  0.00000000000E+00 0.  1.
          6    1    1    2  501    0 -0.23167143892E+01 -0.53029409814E+02  0.25973095308E+03  0.31655434519E+03  0.17300000000E+03 0.  1.
         -6    1    1    2    0  503  0.23167143892E+01  0.53029409814E+02  0.11414383822E+03  0.21395163303E+03  0.17300000000E+03 0.  1.
</event>
<event>
 4    1  0.6104111E+000  0.1000000E+03  0.7546771E-02  0.1280296E+00
         21   -1    0    0  501  502  0.00000000000E+00  0.00000000000E+00  0.82587527761E+03  0.82587527761E+03  0.00000000000E+00 0.  1.
         21   -1    0    0  502  503 -0.00000000000E+00 -0.00000000000E+00 -0.80035775518E+02  0.80035775518E+02  0.00000000000E+00 0.  1.
          6    1    1    2  501    0  0.15093964540E+03 -0.11052599970E+03  0.43322874739E+03  0.50260811845E+03  0.17300000000E+03 0.  1.
         -6    1    1    2    0  503 -0.15093964540E+03  0.11052599970E+03  0.31261075470E+03  0.40330293467E+03  0.17300000000E+03 0.  1.
</event>
<event>
 4    1  0.6104111E+000  0.1000000E+03  0.7546771E-02  0.1280296E+00
         21   -1    0    0  503  502  0.00000000000E+00  0.00000000000E+00  0.76504572348E+02  0.76504572348E+02  0.00000000000E+00 0.  1.
         21   -1    0    0  501  503 -0.00000000000E+00 -0.00000000000E+00 -0.11470007465E+04  0.11470007465E+04  0.00000000000E+00 0.  1.
          6    1    1    2  501    0  0.95580287792E+02 -0.19518907061E+02 -0.98913468877E+03  0.10088771043E+04  0.17300000000E+03 0.  1.
         -6    1    1    2    0  502 -0.95580287792E+02  0.19518907061E+02 -0.81361485349E+02  0.21462821447E+03  0.17300000000E+03 0.  1.
</event>
<event>
 4    1  0.6104111E+000  0.1000000E+03  0.7546771E-02  0.1280296E+00
         21   -1    0    0  503  502  0.00000000000E+00  0.00000000000E+00  0.10469561053E+04  0.10469561053E+04  0.00000000000E+00 0.  1.
         21   -1    0    0  501  503 -0.00000000000E+00 -0.00000000000E+00 -0.12265940105E+03  0.12265940105E+03  0.00000000000E+00 0.  1.
          6    1    1    2  501    0 -0.12885594578E+03 -0.26773045781E+03  0.29727970427E+03  0.45451916943E+03  0.17300000000E+03 0.  1.
         -6    1    1    2    0  502  0.12885594578E+03  0.26773045781E+03  0.62701699996E+03  0.71509633690E+03  0.17300000000E+03 0.  1.
</event>
<event>
 4    1  0.6104111E+000  0.1000000E+03  0.7546771E-02  0.1280296E+00
         21   -1    0    0  503  502  0.00000000000E+00  0.00000000000E+00  0.49131179224E+02  0.49131179224E+02  0.00000000000E+00 0. -1.
         21   -1    0    0  501  503 -0.00000000000E+00 -0.00000000000E+00 -0.15803758119E+04  0.15803758119E+04  0.00000000000E+00 0. -1.
          6    1    1    2  501    0 -0.10854303170E+03 -0.88550510642E+01 -0.21195005621E+03  0.29446872157E+03  0.17300000000E+03 0. -1.
         -6    1    1    2    0  502  0.10854303170E+03  0.88550510642E+01 -0.13192945765E+04  0.13350382695E+04  0.17300000000E+03 0. -1.
</event>
<event>
 4    1  0.6104111E+000  0.1000000E+03  0.7546771E-02  0.1280296E+00
         21   -1    0    0  503  502  0.00000000000E+00  0.00000000000E+00  0.34380227310E+03  0.34380227310E+03  0.00000000000E+00 0. -1.
         21   -1    0    0  501  503 -0.00000000000E+00 -0.00000000000E+00 -0.13289368188E+03  0.13289368188E+03  0.00000000000E+00 0. -1.
          6    1    1    2  501    0  0.72813366314E+02 -0.48718465067E+02  0.51910911935E+01  0.19398768667E+03  0.17300000000E+03 0. -1.
         -6    1    1    2    0  502 -0.72813366314E+02  0.48718465067E+02  0.20571750003E+03  0.28270826831E+03  0.17300000000E+03 0. -1.
</event>
<event>
 4    1  0.6104111E+000  0.1000000E+03  0.7546771E-02  0.1280296E+00
         21   -1    0    0  503  502  0.00000000000E+00  0.00000000000E+00  0.62439810623E+02  0.62439810623E+02  0.00000000000E+00 0. -1.
         21   -1    0    0  501  503 -0.00000000000E+00 -0.00000000000E+00 -0.14055912848E+04  0.14055912848E+04  0.00000000000E+00 0. -1.
          6    1    1    2  501    0  0.16857915311E+03 -0.16658242034E+03 -0.77274332591E+03  0.82657720835E+03  0.17300000000E+03 0. -1.
         -6    1    1    2    0  502 -0.16857915311E+03  0.16658242034E+03 -0.57040814829E+03  0.64145388709E+03  0.17300000000E+03 0. -1.
</event>
<event>
 4    1  0.6104111E+000  0.1000000E+03  0.7546771E-02  0.1280296E+00
         21   -1    0    0  503  502  0.00000000000E+00  0.00000000000E+00  0.51697757426E+03  0.51697757426E+03  0.00000000000E+00 0. -1.
         21   -1    0    0  501  503 -0.00000000000E+00 -0.00000000000E+00 -0.16421155296E+03  0.16421155296E+03  0.00000000000E+00 0. -1.
          6    1    1    2  501    0 -0.72776303520E+02 -0.13827725054E+03 -0.27926826490E+02  0.23478904576E+03  0.17300000000E+03 0. -1.
         -6    1    1    2    0  502  0.72776303520E+02  0.13827725054E+03  0.38069284779E+03  0.44640008146E+03  0.17300000000E+03 0. -1.
</event>
<event>
 4    1  0.6104111E+000  0.1000000E+03  0.7546771E-02  0.1280296E+00
         21   -1    0    0  501  502  0.00000000000E+00  0.00000000000E+00  0.10279592489E+04  0.10279592489E+04  0.00000000000E+00 0. -1.
         21   -1    0    0  502  503 -0.00000000000E+00 -0.00000000000E+00 -0.34911358599E+02  0.34911358599E+02  0.00000000000E+00 0. -1.
          6    1    1    2  501    0  0.42738161348E+02  0.38497223009E+02  0.35211598136E+03  0.39651387232E+03  0.17300000000E+03 0. -1.
         -6    1    1    2    0  503 -0.42738161348E+02 -0.38497223009E+02  0.64093190890E+03  0.66635673514E+03  0.17300000000E+03 0. -1.
</event>
<event>
 4    1  0.6104111E+000  0.1000000E+03  0.7546771E-02  0.1280296E+00
         21   -1    0    0  501  502  0.00000000000E+00  0.00000000000E+00  0.25153048303E+03  0.25153048303E+03  0.00000000000E+00 0. -1.
         21   -1    0    0  502  503 -0.00000000000E+00 -0.00000000000E+00 -0.15611568629E+03  0.15611568629E+03  0.00000000000E+00 0. -1.
          6    1    1    2  501    0  0.46732517379E+02 -0.67652179328E+02 -0.45184346631E+01  0.19159896085E+03  0.17300000000E+03 0. -1.
         -6    1    1    2    0  503 -0.46732517379E+02  0.67652179328E+02  0.99933231403E+02  0.21604720847E+03  0.17300000000E+03 0. -1.
</event>
<event>
 4    1  0.6104111E+000  0.1000000E+03  0.7546771E-02  0.1280296E+00
         21   -1    0    0  501  502  0.00000000000E+00  0.00000000000E+00  0.11839171200E+04  0.11839171200E+04  0.00000000000E+00 0. -1.
         21   -1    0    0  502  503 -0.00000000000E+00 -0.00000000000E+00 -0.65684490949E+03  0.65684490949E+03  0.00000000000E+00 0. -1.
          6    1    1    2  501    0  0.47875955832E+03 -0.18702417369E+03  0.98928815662E+03  0.11281882879E+04  0.17300000000E+03 0. -1.
         -6    1    1    2    0  503 -0.47875955832E+03  0.18702417369E+03 -0.46221594614E+03  0.71257374151E+03  0.17300000000E+03 0. -1.
</event>
<event>
 4    1  0.6104111E+000  0.1000000E+03  0.7546771E-02  0.1280296E+00
         21   -1    0    0  503  502  0.00000000000E+00  0.00000000000E+00  0.10270368760E+04  0.10270368760E+04  0.00000000000E+00 0. -1.
         21   -1    0    0  501  503 -0.00000000000E+00 -0.00000000000E+00 -0.96849004222E+02  0.96849004222E+02  0.00000000000E+00 0. -1.
          6    1    1    2  501    0  0.12292551218E+02  0.14047500862E+03  0.68058328434E+02  0.23333510437E+03  0.17300000000E+03 0. -1.
         -6    1    1    2    0  502 -0.12292551218E+02 -0.14047500862E+03  0.86212954331E+03  0.89055077582E+03  0.17300000000E+03 0. -1.
</event>
<event>
 4    1  0.6104111E+000  0.1000000E+03  0.7546771E-02  0.1280296E+00
         21   -1    0    0  501  502  0.00000000000E+00  0.00000000000E+00  0.27810630310E+03  0.27810630310E+03  0.00000000000E+00 0.  1.
         21   -1    0    0  502  503 -0.00000000000E+00 -0.00000000000E+00 -0.25764905114E+03  0.25764905114E+03  0.00000000000E+00 0. -1.
          6    1    1    2  501    0  0.19083285573E+03  0.44207714096E+02  0.68178782403E+02  0.27009044260E+03  0.17300000000E+03 0. -1.
         -6    1    1    2    0  503 -0.19083285573E+03 -0.44207714096E+02 -0.47721530448E+02  0.26566491165E+03  0.17300000000E+03 0. -1.
</event>
<event>
 4    1  0.6104111E+000  0.1000000E+03  0.7546771E-02  0.1280296E+00
         21   -1    0    0  501  502  0.00000000000E+00  0.00000000000E+00  0.21271942975E+03  0.21271942975E+03  0.00000000000E+00 0.  1.
         21   -1    0    0  502  503 -0.00000000000E+00 -0.00000000000E+00 -0.10938390501E+04  0.10938390501E+04  0.00000000000E+00 0. -1.
          6    1    1    2  501    0  0.34110780088E+03 -0.15147172662E+02 -0.43010325677E+02  0.38517899316E+03  0.17300000000E+03 0. -1.
         -6    1    1    2    0  503 -0.34110780088E+03  0.15147172662E+02 -0.83810929469E+03  0.92137948669E+03  0.17300000000E+03 0. -1.
</event>
<event>
 4    1  0.6104111E+000  0.1000000E+03  0.7546771E-02  0.1280296E+00
         21   -1    0    0  501  502  0.00000000000E+00  0.00000000000E+00  0.14019169583E+03  0.14019169583E+03  0.00000000000E+00 0. -1.
         21   -1    0    0  502  503 -0.00000000000E+00 -0.00000000000E+00 -0.23369681536E+03  0.23369681536E+03  0.00000000000E+00 0. -1.
          6    1    1    2  501    0  0.21292535609E+02 -0.41764925079E+02 -0.20712554878E+02  0.18043195662E+03  0.17300000000E+03 0. -1.
         -6    1    1    2    0  503 -0.21292535609E+02  0.41764925079E+02 -0.72792564647E+02  0.19345655457E+03  0.17300000000E+03 0. -1.
</event>
<event>
 4    1  0.6104111E+000  0.1000000E+03  0.7546771E-02  0.1280296E+00
         21   -1    0    0  501  502  0.00000000000E+00  0.00000000000E+00  0.51497494445E+03  0.51497494445E+03  0.00000000000E+00 0.  1.
         21   -1    0    0  502  503 -0.00000000000E+00 -0.00000000000E+00 -0.21919403129E+03  0.21919403129E+03  0.00000000000E+00 0.  1.
          6    1    1    2  501    0 -0.91374639525E+02  0.27302811409E+02  0.44481803046E+03  0.48671023051E+03  0.17300000000E+03 0.  1.
         -6    1    1    2    0  503  0.91374639525E+02 -0.27302811409E+02 -0.14903711730E+03  0.24745874523E+03  0.17300000000E+03 0.  1.
</event>
<event>
 4    1  0.6104111E+000  0.1000000E+03  0.7546771E-02  0.1280296E+00
         21   -1    0    0  501  502  0.00000000000E+00  0.00000000000E+00  0.73899902898E+03  0.73899902898E+03  0.00000000000E+00 0.  1.
         21   -1    0    0  502  503 -0.00000000000E+00 -0.00000000000E+00 -0.73878817889E+02  0.73878817889E+02  0.00000000000E+00 0.  1.
          6    1    1    2  501    0 -0.69489972581E+01 -0.85660491871E+01  0.60508186204E+03  0.62942412214E+03  0.17300000000E+03 0.  1.
         -6    1    1    2    0  503  0.69489972581E+01  0.85660491871E+01  0.60038349057E+02  0.18345372473E+03  0.17300000000E+03 0.  1.
</event>
<event>
 4    1  0.6104111E+000  0.1000000E+03  0.7546771E-02  0.1280296E+00
         21   -1    0    0  501  502  0.00000000000E+00  0.00000000000E+00  0.44206002487E+03  0.44206002487E+03  0.00000000000E+00 0.  1.
         21   -1    0    0  502  503 -0.00000000000E+00 -0.00000000000E+00 -0.11124721085E+03  0.11124721085E+03  0.00000000000E+00 0.  1.
          6    1    1    2  501    0 -0.49474167123E+02  0.94855137527E+02  0.27561182970E+03  0.34254353153E+03  0.17300000000E+03 0.  1.
         -6    1    1    2    0  503  0.49474167123E+02 -0.94855137527E+02  0.55200984325E+02  0.21076370418E+03  0.17300000000E+03 0.  1.
</event>
<event>
 4    1  0.6104111E+000  0.1000000E+03  0.7546771E-02  0.1280296E+00
         21   -1    0    0  501  502  0.00000000000E+00  0.00000000000E+00  0.45994857772E+03  0.45994857772E+03  0.00000000000E+00 0. -1.
         21   -1    0    0  502  503 -0.00000000000E+00 -0.00000000000E+00 -0.98831478433E+02  0.98831478433E+02  0.00000000000E+00 0. -1.
          6    1    1    2  501    0  0.20334370416E+02  0.19520437332E+02  0.33962073366E+03  0.38218552671E+03  0.17300000000E+03 0. -1.
         -6    1    1    2    0  503 -0.20334370416E+02 -0.19520437332E+02  0.21496365626E+02  0.17659452944E+03  0.17300000000E+03 0. -1.
</event>
<event>
 4    1  0.6104111E+000  0.1000000E+03  0.7546771E-02  0.1280296E+00
         21   -1    0    0  501  502  0.00000000000E+00  0.00000000000E+00  0.13062732227E+04  0.13062732227E+04  0.00000000000E+00 0. -1.
         21   -1    0    0  502  503 -0.00000000000E+00 -0.00000000000E+00 -0.89154764741E+02  0.89154764741E+02  0.00000000000E+00 0. -1.
          6    1    1    2  501    0  0.55492727386E+02 -0.98552674851E+02  0.11637445430E+04  0.11819570355E+04  0.17300000000E+03 0. -1.
         -6    1    1    2    0  503 -0.55492727386E+02  0.98552674851E+02  0.53373914983E+02  0.21347095192E+03  0.17300000000E+03 0. -1.
</event>
<event>
 4    1  0.6104111E+000  0.1000000E+03  0.7546771E-02  0.1280296E+00
         21   -1    0    0  501  502  0.00000000000E+00  0.00000000000E+00  0.36134633285E+02  0.36134633285E+02  0.00000000000E+00 0. -1.
         21   -1    0    0  502  503 -0.00000000000E+00 -0.00000000000E+00 -0.14006401736E+04  0.14006401736E+04  0.00000000000E+00 0. -1.
          6    1    1    2  501    0  0.24369054248E+02  0.12982728670E+03 -0.86383765168E+03  0.89083862940E+03  0.17300000000E+03 0. -1.
         -6    1    1    2    0  503 -0.24369054248E+02 -0.12982728670E+03 -0.50066788866E+03  0.54593617751E+03  0.17300000000E+03 0. -1.
</event>
<event>
 4    1  0.6104111E+000  0.1000000E+03  0.7546771E-02  0.1280296E+00
         21   -1    0    0  501  502  0.00000000000E+00  0.00000000000E+00  0.88178432669E+03  0.88178432669E+03  0.00000000000E+00 0. -1.
         21   -1    0    0  502  503 -0.00000000000E+00 -0.00000000000E+00 -0.47696827326E+02  0.47696827326E+02  0.00000000000E+00 0. -1.
          6    1    1    2  501    0 -0.39069063591E+02 -0.28770896421E+02  0.64109458359E+03  0.66579683186E+03  0.17300000000E+03 0. -1.
         -6    1    1    2    0  503  0.39069063591E+02  0.28770896421E+02  0.19299291578E+03  0.26368432216E+03  0.17300000000E+03 0. -1.
</event>
<event>
 4    1  0.6104111E+000  0.1000000E+03  0.7546771E-02  0.1280296E+00
         21   -1    0    0  503  502  0.00000000000E+00  0.00000000000E+00  0.23165622968E+02  0.23165622968E+02  0.00000000000E+00 0. -1.
         21   -1    0    0  501  503 -0.00000000000E+00 -0.00000000000E+00 -0.23369389672E+04  0.23369389672E+04  0.00000000000E+00 0.  1.
          6    1    1    2  501    0 -0.88367431035E+02  0.12133915993E+03 -0.13644963263E+04  0.13835863612E+04  0.17300000000E+03 0. -1.
         -6    1    1    2    0  502  0.88367431035E+02 -0.12133915993E+03 -0.94927701792E+03  0.97651822889E+03  0.17300000000E+03 0.  1.
</event>
<event>
 4    1  0.6104111E+000  0.1000000E+03  0.7546771E-02  0.1280296E+00
         21   -1    0    0  503  502  0.00000000000E+00  0.00000000000E+00  0.71020478875E+02  0.71020478875E+02  0.00000000000E+00 0. -1.
         21   -1    0    0  501  503 -0.00000000000E+00 -0.00000000000E+00 -0.47772253499E+03  0.47772253499E+03  0.00000000000E+00 0.  1.
          6    1    1    2  501    0 -0.40611535647E+02 -0.48257370317E+02 -0.19652294013E+03  0.26931085499E+03  0.17300000000E+03 0. -1.
         -6    1    1    2    0  502  0.40611535647E+02  0.48257370317E+02 -0.21017911598E+03  0.27943215888E+03  0.17300000000E+03 0.  1.
</event>
<event>
 4    1  0.6104111E+000  0.1000000E+03  0.7546771E-02  0.1280296E+00
         21   -1    0    0  501  502  0.00000000000E+00  0.00000000000E+00  0.77552630429E+03  0.77552630429E+03  0.00000000000E+00 0.  1.
         21   -1    0    0  502  503 -0.00000000000E+00 -0.00000000000E+00 -0.95035967093E+02  0.95035967093E+02  0.00000000000E+00 0.  1.
          6    1    1    2  501    0 -0.12994313215E+03  0.16374033153E+03  0.32610490313E+03  0.42422814806E+03  0.17300000000E+03 0.  1.
         -6    1    1    2    0  503  0.12994313215E+03 -0.16374033153E+03  0.35438543407E+03  0.44633412332E+03  0.17300000000E+03 0.  1.
</event>
<event>
 4    1  0.6104111E+000  0.1000000E+03  0.7546771E-02  0.1280296E+00
         21   -1    0    0  501  502  0.00000000000E+00  0.00000000000E+00  0.70163149681E+03  0.70163149681E+03  0.00000000000E+00 0. -1.
         21   -1    0    0  502  503 -0.00000000000E+00 -0.00000000000E+00 -0.11255198401E+03  0.11255198401E+03  0.00000000000E+00 0. -1.
          6    1    1    2  501    0  0.36540073231E+02 -0.82993294625E+02  0.58721553770E+03  0.61884905399E+03  0.17300000000E+03 0. -1.
         -6    1    1    2    0  503 -0.36540073231E+02  0.82993294625E+02  0.18639751071E+01  0.19533442684E+03  0.17300000000E+03 0. -1.
</event>
<event>
 4    1  0.6104111E+000  0.1000000E+03  0.7546771E-02  0.1280296E+00
         21   -1    0    0  501  502  0.00000000000E+00  0.00000000000E+00  0.13249346305E+03  0.13249346305E+03  0.00000000000E+00 0. -1.
         21   -1    0    0  502  503 -0.00000000000E+00 -0.00000000000E+00 -0.45818577390E+03  0.45818577390E+03  0.00000000000E+00 0. -1.
          6    1    1    2  501    0 -0.11026269742E+03  0.11544895950E+03 -0.75652541244E+02  0.24726227308E+03  0.17300000000E+03 0. -1.
         -6    1    1    2    0  503  0.11026269742E+03 -0.11544895950E+03 -0.25003976961E+03  0.34341696387E+03  0.17300000000E+03 0. -1.
</event>
<event>
 4    1  0.6104111E+000  0.1000000E+03  0.7546771E-02  0.1280296E+00
         21   -1    0    0  503  502  0.00000000000E+00  0.00000000000E+00  0.10798255909E+04  0.10798255909E+04  0.00000000000E+00 0. -1.
         21   -1    0    0  501  503 -0.00000000000E+00 -0.00000000000E+00 -0.10601100882E+03  0.10601100882E+03  0.00000000000E+00 0. -1.
          6    1    1    2  501    0  0.48577055324E+00 -0.15551160638E+03  0.56362564394E+02  0.23935294934E+03  0.17300000000E+03 0. -1.
         -6    1    1    2    0  502 -0.48577055324E+00  0.15551160638E+03  0.91745201766E+03  0.94648365036E+03  0.17300000000E+03 0. -1.
</event>
<event>
 4    1  0.6104111E+000  0.1000000E+03  0.7546771E-02  0.1280296E+00
         21   -1    0    0  503  502  0.00000000000E+00  0.00000000000E+00  0.14217379065E+03  0.14217379065E+03  0.00000000000E+00 0. -1.
         21   -1    0    0  501  503 -0.00000000000E+00 -0.00000000000E+00 -0.23108059946E+03  0.23108059946E+03  0.00000000000E+00 0. -1.
          6    1    1    2  501    0 -0.36539557865E+02 -0.13189990025E+02 -0.83191365898E+02  0.19585432976E+03  0.17300000000E+03 0. -1.
         -6    1    1    2    0  502  0.36539557865E+02  0.13189990025E+02 -0.57154429068E+01  0.17740006035E+03  0.17300000000E+03 0. -1.
</event>
<event>
 4    1  0.6104111E+000  0.1000000E+03  0.7546771E-02  0.1280296E+00
         21   -1    0    0  501  502  0.00000000000E+00  0.00000000000E+00  0.15353124039E+04  0.15353124039E+04  0.00000000000E+00 0. -1.
         21   -1    0    0  502  503 -0.00000000000E+00 -0.00000000000E+00 -0.30942825023E+02  0.30942825023E+02  0.00000000000E+00 0.  1.
          6    1    1    2  501    0  0.74377607334E+01  0.90042375583E+02  0.11008135928E+04  0.11179814470E+04  0.17300000000E+03 0. -1.
         -6    1    1    2    0  503 -0.74377607334E+01 -0.90042375583E+02  0.40355598608E+03  0.44827378195E+03  0.17300000000E+03 0.  1.
</event>
<event>
 4    1  0.6104111E+000  0.1000000E+03  0.7546771E-02  0.1280296E+00
         21   -1    0    0  501  502  0.00000000000E+00  0.00000000000E+00  0.35711877415E+02  0.35711877415E+02  0.00000000000E+00 0. -1.
         21   -1    0    0  502  503 -0.00000000000E+00 -0.00000000000E+00 -0.99860871668E+03  0.99860871668E+03  0.00000000000E+00 0.  1.
          6    1    1    2  501    0  0.49556817940E+02 -0.56743565968E+02 -0.50221120211E+03  0.53648933075E+03  0.17300000000E+03 0. -1.
         -6    1    1    2    0  503 -0.49556817940E+02  0.56743565968E+02 -0.46068563715E+03  0.49783126334E+03  0.17300000000E+03 0.  1.
</event>
<event>
 4    1  0.6104111E+000  0.1000000E+03  0.7546771E-02  0.1280296E+00
         21   -1    0    0  501  502  0.00000000000E+00  0.00000000000E+00  0.53052335425E+03  0.53052335425E+03  0.00000000000E+00 0. -1.
         21   -1    0    0  502  503 -0.00000000000E+00 -0.00000000000E+00 -0.18000300397E+03  0.18000300397E+03  0.00000000000E+00 0.  1.
          6    1    1    2  501    0 -0.16831198831E+03 -0.34023549012E+02  0.39363016719E+03  0.46299053534E+03  0.17300000000E+03 0. -1.
         -6    1    1    2    0  503  0.16831198831E+03  0.34023549012E+02 -0.43109816916E+02  0.24753582288E+03  0.17300000000E+03 0.  1.
</event>
<event>
 4    1  0.6104111E+000  0.1000000E+03  0.7546771E-02  0.1280296E+00
         21   -1    0    0  503  502  0.00000000000E+00  0.00000000000E+00  0.66513049593E+03  0.66513049593E+03  0.00000000000E+00 0. -1.
         21   -1    0    0  501  503 -0.00000000000E+00 -0.00000000000E+00 -0.27003574036E+03  0.27003574036E+03  0.00000000000E+00 0. -1.
          6    1    1    2  501    0  0.20339664895E+03  0.24944008542E+02 -0.16451018901E+03  0.31461882120E+03  0.17300000000E+03 0. -1.
         -6    1    1    2    0  502 -0.20339664895E+03 -0.24944008542E+02  0.55960494458E+03  0.62054741508E+03  0.17300000000E+03 0. -1.
</event>
<event>
 4    1  0.6104111E+000  0.1000000E+03  0.7546771E-02  0.1280296E+00
         21   -1    0    0  503  502  0.00000000000E+00  0.00000000000E+00  0.27478361627E+03  0.27478361627E+03  0.00000000000E+00 0. -1.
         21   -1    0    0  501  503 -0.00000000000E+00 -0.00000000000E+00 -0.66807926991E+03  0.66807926991E+03  0.00000000000E+00 0. -1.
          6    1    1    2  501    0  0.13157970531E+03  0.96064759633E+01 -0.60277851382E+03  0.64084041691E+03  0.17300000000E+03 0. -1.
         -6    1    1    2    0  502 -0.13157970531E+03 -0.96064759633E+01  0.20948286018E+03  0.30202246926E+03  0.17300000000E+03 0. -1.
</event>
<event>
 4    1  0.6104111E+000  0.1000000E+03  0.7546771E-02  0.1280296E+00
         21   -1    0    0  501  502  0.00000000000E+00  0.00000000000E+00  0.13135396895E+04  0.13135396895E+04  0.00000000000E+00 0. -1.
         21   -1    0    0  502  503 -0.00000000000E+00 -0.00000000000E+00 -0.39368824594E+02  0.39368824594E+02  0.00000000000E+00 0. -1.
          6    1    1    2  501    0 -0.11218698907E+02  0.82076243186E+02  0.10004492516E+04  0.10186707387E+04  0.17300000000E+03 0.  1.
         -6    1    1    2    0  503  0.11218698907E+02 -0.82076243186E+02  0.27372161335E+03  0.33423777542E+03  0.17300000000E+03 0.  1.
</event>
<event>
 4    1  0.6104111E+000  0.1000000E+03  0.7546771E-02  0.1280296E+00
         21   -1    0    0  503  502  0.00000000000E+00  0.00000000000E+00  0.60311566921E+03  0.60311566921E+03  0.00000000000E+00 0. -1.
         21   -1    0    0  501  503 -0.00000000000E+00 -0.00000000000E+00 -0.95097429179E+02  0.95097429179E+02  0.00000000000E+00 0. -1.
          6    1    1    2  501    0 -0.16471592153E+03 -0.23394692691E+00  0.22899917283E+03  0.33090936930E+03  0.17300000000E+03 0. -1.
         -6    1    1    2    0  502  0.16471592153E+03  0.23394692691E+00  0.27901906720E+03  0.36730372908E+03  0.17300000000E+03 0. -1.
</event>
<event>
 4    1  0.6104111E+000  0.1000000E+03  0.7546771E-02  0.1280296E+00
         21   -1    0    0  503  502  0.00000000000E+00  0.00000000000E+00  0.56195850547E+03  0.56195850547E+03  0.00000000000E+00 0. -1.
         21   -1    0    0  501  503 -0.00000000000E+00 -0.00000000000E+00 -0.81456767673E+02  0.81456767673E+02  0.00000000000E+00 0. -1.
          6    1    1    2  501    0  0.12141988163E+03 -0.25230945004E+02  0.20775905498E+03  0.29744278974E+03  0.17300000000E+03 0. -1.
         -6    1    1    2    0  502 -0.12141988163E+03  0.25230945004E+02  0.27274268281E+03  0.34597248340E+03  0.17300000000E+03 0. -1.
</event>
<event>
 4    1  0.6104111E+000  0.1000000E+03  0.7546771E-02  0.1280296E+00
         21   -1    0    0  503  502  0.00000000000E+00  0.00000000000E+00  0.50058046476E+03  0.50058046476E+03  0.00000000000E+00 0. -1.
         21   -1    0    0  501  503 -0.00000000000E+00 -0.00000000000E+00 -0.39256529887E+03  0.39256529887E+03  0.00000000000E+00 0.  1.
          6    1    1    2  501    0  0.15794584729E+03  0.15996022513E+03 -0.28916854421E+03  0.40506988442E+03  0.17300000000E+03 0. -1.
         -6    1    1    2    0  502 -0.15794584729E+03 -0.15996022513E+03  0.39718371010E+03  0.48807587921E+03  0.17300000000E+03 0. -1.
</event>
<event>
 4    1  0.6104111E+000  0.1000000E+03  0.7546771E-02  0.1280296E+00
         21   -1    0    0  503  502  0.00000000000E+00  0.00000000000E+00  0.25488189886E+04  0.25488189886E+04  0.00000000000E+00 0. -1.
         21   -1    0    0  501  503 -0.00000000000E+00 -0.00000000000E+00 -0.24308938647E+02  0.24308938647E+02  0.00000000000E+00 0.  1.
          6    1    1    2  501    0  0.83807443459E+02 -0.14298281298E+03  0.91313771772E+03  0.94404304134E+03  0.17300000000E+03 0. -1.
         -6    1    1    2    0  502 -0.83807443459E+02  0.14298281298E+03  0.16113723322E+04  0.16290848859E+04  0.17300000000E+03 0. -1.
</event>
<event>
 4    1  0.6104111E+000  0.1000000E+03  0.7546771E-02  0.1280296E+00
         21   -1    0    0  503  502  0.00000000000E+00  0.00000000000E+00  0.36499167939E+03  0.36499167939E+03  0.00000000000E+00 0.  1.
         21   -1    0    0  501  503 -0.00000000000E+00 -0.00000000000E+00 -0.20822306169E+03  0.20822306169E+03  0.00000000000E+00 0. -1.
          6    1    1    2  501    0  0.28165377713E+02 -0.14181342132E+03 -0.86542621103E+02  0.24150147046E+03  0.17300000000E+03 0. -1.
         -6    1    1    2    0  502 -0.28165377713E+02  0.14181342132E+03  0.24331123881E+03  0.33171327061E+03  0.17300000000E+03 0.  1.
</event>
<event>
 4    1  0.6104111E+000  0.1000000E+03  0.7546771E-02  0.1280296E+00
         21   -1    0    0  503  502  0.00000000000E+00  0.00000000000E+00  0.87910685447E+03  0.87910685447E+03  0.00000000000E+00 0.  1.
         21   -1    0    0  501  503 -0.00000000000E+00 -0.00000000000E+00 -0.12045665886E+03  0.12045665886E+03  0.00000000000E+00 0. -1.
          6    1    1    2  501    0 -0.14585232912E+03 -0.69221111108E+02  0.36243077594E+02  0.23938885690E+03  0.17300000000E+03 0. -1.
         -6    1    1    2    0  502  0.14585232912E+03  0.69221111108E+02  0.72240711801E+03  0.76017465644E+03  0.17300000000E+03 0.  1.
</event>
<event>
 4    1  0.6104111E+000  0.1000000E+03  0.7546771E-02  0.1280296E+00
         21   -1    0    0  501  502  0.00000000000E+00  0.00000000000E+00  0.80810104810E+03  0.80810104810E+03  0.00000000000E+00 0.  1.
         21   -1    0    0  502  503 -0.00000000000E+00 -0.00000000000E+00 -0.10295084430E+03  0.10295084430E+03  0.00000000000E+00 0.  1.
          6    1    1    2  501    0 -0.72912837887E+02  0.12846842374E+03  0.63262987139E+03  0.67228712021E+03  0.17300000000E+03 0.  1.
         -6    1    1    2    0  503  0.72912837887E+02 -0.12846842374E+03  0.72520332410E+02  0.23876477219E+03  0.17300000000E+03 0.  1.
</event>
<event>
 4    1  0.6104111E+000  0.1000000E+03  0.7546771E-02  0.1280296E+00
         21   -1    0    0  501  502  0.00000000000E+00  0.00000000000E+00  0.10549821366E+03  0.10549821366E+03  0.00000000000E+00 0.  1.
         21   -1    0    0  502  503 -0.00000000000E+00 -0.00000000000E+00 -0.59534153373E+03  0.59534153373E+03  0.00000000000E+00 0.  1.
          6    1    1    2  501    0 -0.13488185723E+03 -0.16873773156E+02 -0.77128670785E+02  0.23314302796E+03  0.17300000000E+03 0.  1.
         -6    1    1    2    0  503  0.13488185723E+03  0.16873773156E+02 -0.41271464928E+03  0.46769671943E+03  0.17300000000E+03 0.  1.
</event>
<event>
 4    1  0.6104111E+000  0.1000000E+03  0.7546771E-02  0.1280296E+00
         21   -1    0    0  501  502  0.00000000000E+00  0.00000000000E+00  0.13078364050E+03  0.13078364050E+03  0.00000000000E+00 0.  1.
         21   -1    0    0  502  503 -0.00000000000E+00 -0.00000000000E+00 -0.64547788566E+03  0.64547788566E+03  0.00000000000E+00 0.  1.
          6    1    1    2  501    0 -0.52161265565E+02 -0.12330982519E+03 -0.19119987472E+01  0.21876646533E+03  0.17300000000E+03 0.  1.
         -6    1    1    2    0  503  0.52161265565E+02  0.12330982519E+03 -0.51278224642E+03  0.55749506083E+03  0.17300000000E+03 0.  1.
</event>
<event>
 4    1  0.6104111E+000  0.1000000E+03  0.7546771E-02  0.1280296E+00
         21   -1    0    0  501  502  0.00000000000E+00  0.00000000000E+00  0.72267270692E+03  0.72267270692E+03  0.00000000000E+00 0.  1.
         21   -1    0    0  502  503 -0.00000000000E+00 -0.00000000000E+00 -0.18427958492E+03  0.18427958492E+03  0.00000000000E+00 0.  1.
          6    1    1    2  501    0  0.28584372675E+02 -0.55188410538E+02  0.66093742126E+03  0.68602485512E+03  0.17300000000E+03 0.  1.
         -6    1    1    2    0  503 -0.28584372675E+02  0.55188410538E+02 -0.12254429926E+03  0.22092743673E+03  0.17300000000E+03 0.  1.
</event>
<event>
 4    1  0.6104111E+000  0.1000000E+03  0.7546771E-02  0.1280296E+00
         21   -1    0    0  503  502  0.00000000000E+00  0.00000000000E+00  0.29232158903E+03  0.29232158903E+03  0.00000000000E+00 0. -1.
         21   -1    0    0  501  503 -0.00000000000E+00 -0.00000000000E+00 -0.64457662589E+03  0.64457662589E+03  0.00000000000E+00 0. -1.
          6    1    1    2  501    0  0.22772018492E+03  0.37003354922E+02 -0.52626999870E+03  0.60009569439E+03  0.17300000000E+03 0. -1.
         -6    1    1    2    0  502 -0.22772018492E+03 -0.37003354922E+02  0.17401496184E+03  0.33680252054E+03  0.17300000000E+03 0. -1.
</event>
<event>
 4    1  0.6104111E+000  0.1000000E+03  0.7546771E-02  0.1280296E+00
         21   -1    0    0  503  502  0.00000000000E+00  0.00000000000E+00  0.14952980807E+03  0.14952980807E+03  0.00000000000E+00 0.  1.
         21   -1    0    0  501  503 -0.00000000000E+00 -0.00000000000E+00 -0.29018437704E+03  0.29018437704E+03  0.00000000000E+00 0.  1.
          6    1    1    2  501    0  0.11846293052E+02 -0.39690638633E+02 -0.18471896122E+03  0.25644838874E+03  0.17300000000E+03 0.  1.
         -6    1    1    2    0  502 -0.11846293052E+02  0.39690638633E+02  0.44064392250E+02  0.18326579637E+03  0.17300000000E+03 0.  1.
</event>
<event>
 4    1  0.6104111E+000  0.1000000E+03  0.7546771E-02  0.1280296E+00
         21   -1    0    0  503  502  0.00000000000E+00  0.00000000000E+00  0.44361706256E+02  0.44361706256E+02  0.00000000000E+00 0.  1.
         21   -1    0    0  501  503 -0.00000000000E+00 -0.00000000000E+00 -0.11829527358E+04  0.11829527358E+04  0.00000000000E+00 0.  1.
          6    1    1    2  501    0  0.75686622929E+01  0.10004811892E+03 -0.86857587989E+03  0.89130240091E+03  0.17300000000E+03 0.  1.
         -6    1    1    2    0  502 -0.75686622929E+01 -0.10004811892E+03 -0.27001514965E+03  0.33601204114E+03  0.17300000000E+03 0.  1.
</event>
<event>
 4    1  0.6104111E+000  0.1000000E+03  0.7546771E-02  0.1280296E+00
         21   -1    0    0  503  502  0.00000000000E+00  0.00000000000E+00  0.68001085478E+03  0.68001085478E+03  0.00000000000E+00 0.  1.
         21   -1    0    0  501  503 -0.00000000000E+00 -0.00000000000E+00 -0.99105917854E+02  0.99105917854E+02  0.00000000000E+00 0.  1.
          6    1    1    2  501    0  0.10344800252E+03 -0.14543571005E+03  0.17804698737E+03  0.30574951299E+03  0.17300000000E+03 0.  1.
         -6    1    1    2    0  502 -0.10344800252E+03  0.14543571005E+03  0.40285794956E+03  0.47336725965E+03  0.17300000000E+03 0.  1.
</event>
<event>
 4    1  0.6104111E+000  0.1000000E+03  0.7546771E-02  0.1280296E+00
         21   -1    0    0  503  502  0.00000000000E+00  0.00000000000E+00  0.62575526111E+02  0.62575526111E+02  0.00000000000E+00 0.  1.
         21   -1    0    0  501  503 -0.00000000000E+00 -0.00000000000E+00 -0.66966201651E+03  0.66966201651E+03  0.00000000000E+00 0.  1.
          6    1    1    2  501    0  0.57761847249E+02 -0.49533393488E+01 -0.46954267790E+03  0.50374625849E+03  0.17300000000E+03 0.  1.
         -6    1    1    2    0  502 -0.57761847249E+02  0.49533393488E+01 -0.13754381249E+03  0.22849128413E+03  0.17300000000E+03 0.  1.
</event>
<event>
 4    1  0.6104111E+000  0.1000000E+03  0.7546771E-02  0.1280296E+00
         21   -1    0    0  503  502  0.00000000000E+00  0.00000000000E+00  0.25748973284E+03  0.25748973284E+03  0.00000000000E+00 0. -1.
         21   -1    0    0  501  503 -0.00000000000E+00 -0.00000000000E+00 -0.18654169526E+03  0.18654169526E+03  0.00000000000E+00 0. -1.
          6    1    1    2  501    0  0.79843363350E+02  0.71943520275E+02 -0.46528504242E+02  0.20891322239E+03  0.17300000000E+03 0. -1.
         -6    1    1    2    0  502 -0.79843363350E+02 -0.71943520275E+02  0.11747654182E+03  0.23511820571E+03  0.17300000000E+03 0. -1.
</event>
<event>
 4    1  0.6104111E+000  0.1000000E+03  0.7546771E-02  0.1280296E+00
         21   -1    0    0  503  502  0.00000000000E+00  0.00000000000E+00  0.37117411673E+03  0.37117411673E+03  0.00000000000E+00 0. -1.
         21   -1    0    0  501  503 -0.00000000000E+00 -0.00000000000E+00 -0.32765041195E+03  0.32765041195E+03  0.00000000000E+00 0. -1.
          6    1    1    2  501    0 -0.25260467207E+03  0.78907125361E+02 -0.12566679982E+03  0.34023021524E+03  0.17300000000E+03 0. -1.
         -6    1    1    2    0  502  0.25260467207E+03 -0.78907125361E+02  0.16919050459E+03  0.35859431344E+03  0.17300000000E+03 0. -1.
</event>
<event>
 4    1  0.6104111E+000  0.1000000E+03  0.7546771E-02  0.1280296E+00
         21   -1    0    0  503  502  0.00000000000E+00  0.00000000000E+00  0.25800126770E+03  0.25800126770E+03  0.00000000000E+00 0. -1.
         21   -1    0    0  501  503 -0.00000000000E+00 -0.00000000000E+00 -0.38597847833E+03  0.38597847833E+03  0.00000000000E+00 0. -1.
          6    1    1    2  501    0 -0.21333204379E+03 -0.12781122088E+02 -0.22199494300E+03  0.35339025554E+03  0.17300000000E+03 0. -1.
         -6    1    1    2    0  502  0.21333204379E+03  0.12781122088E+02  0.94017732369E+02  0.29058949050E+03  0.17300000000E+03 0. -1.
</event>
<event>
 4    1  0.6104111E+000  0.1000000E+03  0.7546771E-02  0.1280296E+00
         21   -1    0    0  503  502  0.00000000000E+00  0.00000000000E+00  0.33497979245E+02  0.33497979245E+02  0.00000000000E+00 0. -1.
         21   -1    0    0  501  503 -0.00000000000E+00 -0.00000000000E+00 -0.15003762886E+04  0.15003762886E+04  0.00000000000E+00 0. -1.
          6    1    1    2  501    0  0.45800176201E+01 -0.25030680323E+02 -0.12133899311E+04  0.12259248086E+04  0.17300000000E+03 0. -1.
         -6    1    1    2    0  502 -0.45800176201E+01  0.25030680323E+02 -0.25348837824E+03  0.30794945920E+03  0.17300000000E+03 0. -1.
</event>
<event>
 4    1  0.6104111E+000  0.1000000E+03  0.7546771E-02  0.1280296E+00
         21   -1    0    0  501  502  0.00000000000E+00  0.00000000000E+00  0.19094994554E+03  0.19094994554E+03  0.00000000000E+00 0. -1.
         21   -1    0    0  502  503 -0.00000000000E+00 -0.00000000000E+00 -0.10012755911E+04  0.10012755911E+04  0.00000000000E+00 0. -1.
          6    1    1    2  501    0 -0.11491434414E+03  0.31144200857E+03 -0.71322996466E+03  0.80549823940E+03  0.17300000000E+03 0. -1.
         -6    1    1    2    0  503  0.11491434414E+03 -0.31144200857E+03 -0.97095680916E+02  0.38672729726E+03  0.17300000000E+03 0. -1.
</event>
<event>
 4    1  0.6104111E+000  0.1000000E+03  0.7546771E-02  0.1280296E+00
         21   -1    0    0  501  502  0.00000000000E+00  0.00000000000E+00  0.71072406487E+02  0.71072406487E+02  0.00000000000E+00 0. -1.
         21   -1    0    0  502  503 -0.00000000000E+00 -0.00000000000E+00 -0.72999455627E+03  0.72999455627E+03  0.00000000000E+00 0. -1.
          6    1    1    2  501    0 -0.79965680011E+02  0.30145216345E+02 -0.11662234267E+03  0.22546178137E+03  0.17300000000E+03 0. -1.
         -6    1    1    2    0  503  0.79965680011E+02 -0.30145216345E+02 -0.54229980711E+03  0.57560518139E+03  0.17300000000E+03 0. -1.
</event>
<event>
 4    1  0.6104111E+000  0.1000000E+03  0.7546771E-02  0.1280296E+00
         21   -1    0    0  503  502  0.00000000000E+00  0.00000000000E+00  0.85583413748E+03  0.85583413748E+03  0.00000000000E+00 0.  1.
         21   -1    0    0  501  503 -0.00000000000E+00 -0.00000000000E+00 -0.74888619008E+02  0.74888619008E+02  0.00000000000E+00 0. -1.
          6    1    1    2  501    0 -0.11297012504E+03 -0.97073041994E+02  0.18929666614E+03  0.29655969458E+03  0.17300000000E+03 0. -1.
         -6    1    1    2    0  502  0.11297012504E+03  0.97073041994E+02  0.59164885233E+03  0.63416306191E+03  0.17300000000E+03 0.  1.
</event>
<event>
 4    1  0.6104111E+000  0.1000000E+03  0.7546771E-02  0.1280296E+00
         21   -1    0    0  503  502  0.00000000000E+00  0.00000000000E+00  0.88184359604E+03  0.88184359604E+03  0.00000000000E+00 0.  1.
         21   -1    0    0  501  503 -0.00000000000E+00 -0.00000000000E+00 -0.61304853251E+03  0.61304853251E+03  0.00000000000E+00 0. -1.
          6    1    1    2  501    0  0.18534867967E+03 -0.18627891343E+03 -0.54116555302E+03  0.62597373940E+03  0.17300000000E+03 0. -1.
         -6    1    1    2    0  502 -0.18534867967E+03  0.18627891343E+03  0.80996061655E+03  0.86891838915E+03  0.17300000000E+03 0.  1.
</event>
<event>
 4    1  0.6104111E+000  0.1000000E+03  0.7546771E-02  0.1280296E+00
         21   -1    0    0  503  502  0.00000000000E+00  0.00000000000E+00  0.86934895631E+03  0.86934895631E+03  0.00000000000E+00 0.  1.
         21   -1    0    0  501  503 -0.00000000000E+00 -0.00000000000E+00 -0.10782826368E+03  0.10782826368E+03  0.00000000000E+00 0.  1.
          6    1    1    2  501    0  0.78398115729E+02 -0.95546798041E+02  0.29190469667E+02  0.21460787191E+03  0.17300000000E+03 0.  1.
         -6    1    1    2    0  502 -0.78398115729E+02  0.95546798041E+02  0.73233022297E+03  0.76256934808E+03  0.17300000000E+03 0.  1.
</event>
<event>
 4    1  0.6104111E+000  0.1000000E+03  0.7546771E-02  0.1280296E+00
         21   -1    0    0  501  502  0.00000000000E+00  0.00000000000E+00  0.92402572922E+02  0.92402572922E+02  0.00000000000E+00 0.  1.
         21   -1    0    0  502  503 -0.00000000000E+00 -0.00000000000E+00 -0.51548141225E+03  0.51548141225E+03  0.00000000000E+00 0. -1.
          6    1    1    2  501    0  0.10279551610E+03 -0.78678863803E+02 -0.16871621669E+03  0.27413763607E+03  0.17300000000E+03 0.  1.
         -6    1    1    2    0  503 -0.10279551610E+03  0.78678863803E+02 -0.25436262264E+03  0.33374634910E+03  0.17300000000E+03 0. -1.
</event>
<event>
 4    1  0.6104111E+000  0.1000000E+03  0.7546771E-02  0.1280296E+00
         21   -1    0    0  501  502  0.00000000000E+00  0.00000000000E+00  0.15259969272E+04  0.15259969272E+04  0.00000000000E+00 0.  1.
         21   -1    0    0  502  503 -0.00000000000E+00 -0.00000000000E+00 -0.63005824083E+02  0.63005824083E+02  0.00000000000E+00 0. -1.
          6    1    1    2  501    0 -0.26404866506E+02  0.23147694227E+02  0.13846755921E+04  0.13958827057E+04  0.17300000000E+03 0.  1.
         -6    1    1    2    0  503  0.26404866506E+02 -0.23147694227E+02  0.78315510948E+02  0.19312004551E+03  0.17300000000E+03 0. -1.
</event>
<event>
 4    1  0.6104111E+000  0.1000000E+03  0.7546771E-02  0.1280296E+00
         21   -1    0    0  503  502  0.00000000000E+00  0.00000000000E+00  0.21144315317E+03  0.21144315317E+03  0.00000000000E+00 0. -1.
         21   -1    0    0  501  503 -0.00000000000E+00 -0.00000000000E+00 -0.16086009606E+03  0.16086009606E+03  0.00000000000E+00 0.  1.
          6    1    1    2  501    0 -0.23571119755E+02  0.41908533666E+02 -0.17195707575E+02  0.18037908759E+03  0.17300000000E+03 0.  1.
         -6    1    1    2    0  502  0.23571119755E+02 -0.41908533666E+02  0.67778764676E+02  0.19192416164E+03  0.17300000000E+03 0. -1.
</event>
<event>
 4    1  0.6104111E+000  0.1000000E+03  0.7546771E-02  0.1280296E+00
         21   -1    0    0  503  502  0.00000000000E+00  0.00000000000E+00  0.32217763333E+03  0.32217763333E+03  0.00000000000E+00 0. -1.
         21   -1    0    0  501  503 -0.00000000000E+00 -0.00000000000E+00 -0.19323956707E+03  0.19323956707E+03  0.00000000000E+00 0. -1.
          6    1    1    2  501    0  0.32830136500E+02 -0.43500291917E+01 -0.11805967580E+03  0.21204675821E+03  0.17300000000E+03 0. -1.
         -6    1    1    2    0  502 -0.32830136500E+02  0.43500291917E+01  0.24699774206E+03  0.30337044220E+03  0.17300000000E+03 0. -1.
</event>
<event>
 4    1  0.6104111E+000  0.1000000E+03  0.7546771E-02  0.1280296E+00
         21   -1    0    0  503  502  0.00000000000E+00  0.00000000000E+00  0.25830921201E+04  0.25830921201E+04  0.00000000000E+00 0.  1.
         21   -1    0    0  501  503 -0.00000000000E+00 -0.00000000000E+00 -0.27491609401E+02  0.27491609401E+02  0.00000000000E+00 0. -1.
          6    1    1    2  501    0  0.40312500005E+02 -0.16919802511E+03  0.76802623510E+03  0.80625453001E+03  0.17300000000E+03 0. -1.
         -6    1    1    2    0  502 -0.40312500005E+02  0.16919802511E+03  0.17875742756E+04  0.18043291995E+04  0.17300000000E+03 0.  1.
</event>
<event>
 4    1  0.6104111E+000  0.1000000E+03  0.7546771E-02  0.1280296E+00
         21   -1    0    0  503  502  0.00000000000E+00  0.00000000000E+00  0.51198018663E+03  0.51198018663E+03  0.00000000000E+00 0.  1.
         21   -1    0    0  501  503 -0.00000000000E+00 -0.00000000000E+00 -0.86732917034E+02  0.86732917034E+02  0.00000000000E+00 0. -1.
          6    1    1    2  501    0  0.29975287330E+02 -0.30422940447E+01  0.47145612866E+02  0.18182266695E+03  0.17300000000E+03 0. -1.
         -6    1    1    2    0  502 -0.29975287330E+02  0.30422940447E+01  0.37810165673E+03  0.41689043671E+03  0.17300000000E+03 0.  1.
</event>
<event>
 4    1  0.6104111E+000  0.1000000E+03  0.7546771E-02  0.1280296E+00
         21   -1    0    0  503  502  0.00000000000E+00  0.00000000000E+00  0.69819936347E+02  0.69819936347E+02  0.00000000000E+00 0.  1.
         21   -1    0    0  501  503 -0.00000000000E+00 -0.00000000000E+00 -0.16233554253E+04  0.16233554253E+04  0.00000000000E+00 0. -1.
          6    1    1    2  501    0 -0.16633882037E+03  0.13158686953E+03 -0.12697256568E+04  0.12988902767E+04  0.17300000000E+03 0. -1.
         -6    1    1    2    0  502  0.16633882037E+03 -0.13158686953E+03 -0.28380983223E+03  0.39428508502E+03  0.17300000000E+03 0.  1.
</event>
<event>
 4    1  0.6104111E+000  0.1000000E+03  0.7546771E-02  0.1280296E+00
         21   -1    0    0  503  502  0.00000000000E+00  0.00000000000E+00  0.36595398970E+03  0.36595398970E+03  0.00000000000E+00 0.  1.
         21   -1    0    0  501  503 -0.00000000000E+00 -0.00000000000E+00 -0.34845851091E+03  0.34845851091E+03  0.00000000000E+00 0. -1.
          6    1    1    2  501    0 -0.56434896744E+02 -0.63692570557E+02 -0.29192377327E+03  0.34984300838E+03  0.17300000000E+03 0. -1.
         -6    1    1    2    0  502  0.56434896744E+02  0.63692570557E+02  0.30941925206E+03  0.36456949223E+03  0.17300000000E+03 0.  1.
</event>
<event>
 4    1  0.6104111E+000  0.1000000E+03  0.7546771E-02  0.1280296E+00
         21   -1    0    0  503  502  0.00000000000E+00  0.00000000000E+00  0.11602543455E+04  0.11602543455E+04  0.00000000000E+00 0. -1.
         21   -1    0    0  501  503 -0.00000000000E+00 -0.00000000000E+00 -0.71386344425E+03  0.71386344425E+03  0.00000000000E+00 0. -1.
          6    1    1    2  501    0  0.23095486281E+03  0.10071980975E+03 -0.65944113643E+03  0.72682614231E+03  0.17300000000E+03 0. -1.
         -6    1    1    2    0  502 -0.23095486281E+03 -0.10071980975E+03  0.11058320376E+04  0.11472916474E+04  0.17300000000E+03 0. -1.
</event>
<event>
 4    1  0.6104111E+000  0.1000000E+03  0.7546771E-02  0.1280296E+00
         21   -1    0    0  503  502  0.00000000000E+00  0.00000000000E+00  0.23873833617E+04  0.23873833617E+04  0.00000000000E+00 0. -1.
         21   -1    0    0  501  503 -0.00000000000E+00 -0.00000000000E+00 -0.30104514900E+02  0.30104514900E+02  0.00000000000E+00 0. -1.
          6    1    1    2  501    0 -0.69151426490E+02 -0.10943708205E+03  0.46312808862E+03  0.51105285556E+03  0.17300000000E+03 0. -1.
         -6    1    1    2    0  502  0.69151426490E+02  0.10943708205E+03  0.18941507582E+04  0.19064350211E+04  0.17300000000E+03 0. -1.
</event>
<event>
 4    1  0.6104111E+000  0.1000000E+03  0.7546771E-02  0.1280296E+00
         21   -1    0    0  503  502  0.00000000000E+00  0.00000000000E+00  0.39609018970E+03  0.39609018970E+03  0.00000000000E+00 0. -1.
         21   -1    0    0  501  503 -0.00000000000E+00 -0.00000000000E+00 -0.12391832050E+03  0.12391832050E+03  0.00000000000E+00 0. -1.
          6    1    1    2  501    0 -0.70539177937E+02 -0.11758025595E+03  0.11403812787E+03  0.24846445786E+03  0.17300000000E+03 0. -1.
         -6    1    1    2    0  502  0.70539177937E+02  0.11758025595E+03  0.15813374133E+03  0.27154405234E+03  0.17300000000E+03 0. -1.
</event>
<event>
 4    1  0.6104111E+000  0.1000000E+03  0.7546771E-02  0.1280296E+00
         21   -1    0    0  501  502  0.00000000000E+00  0.00000000000E+00  0.26884603394E+02  0.26884603394E+02  0.00000000000E+00 0. -1.
         21   -1    0    0  502  503 -0.00000000000E+00 -0.00000000000E+00 -0.13959749662E+04  0.13959749662E+04  0.00000000000E+00 0.  1.
          6    1    1    2  501    0  0.34910431402E+02  0.42915028941E+02 -0.43708383160E+03  0.47331988526E+03  0.17300000000E+03 0.  1.
         -6    1    1    2    0  503 -0.34910431402E+02 -0.42915028941E+02 -0.93200653124E+03  0.94953968437E+03  0.17300000000E+03 0. -1.
</event>
<event>
 4    1  0.6104111E+000  0.1000000E+03  0.7546771E-02  0.1280296E+00
         21   -1    0    0  501  502  0.00000000000E+00  0.00000000000E+00  0.54824843023E+02  0.54824843023E+02  0.00000000000E+00 0. -1.
         21   -1    0    0  502  503 -0.00000000000E+00 -0.00000000000E+00 -0.21106114777E+04  0.21106114777E+04  0.00000000000E+00 0.  1.
          6    1    1    2  501    0 -0.41244585444E+02  0.28411285902E+02 -0.10938279584E+03  0.21071761441E+03  0.17300000000E+03 0.  1.
         -6    1    1    2    0  503  0.41244585444E+02 -0.28411285902E+02 -0.19464038388E+04  0.19547187063E+04  0.17300000000E+03 0. -1.
</event>
<event>
 4    1  0.6104111E+000  0.1000000E+03  0.7546771E-02  0.1280296E+00
         21   -1    0    0  501  502  0.00000000000E+00  0.00000000000E+00  0.22781560879E+03  0.22781560879E+03  0.00000000000E+00 0. -1.
         21   -1    0    0  502  503 -0.00000000000E+00 -0.00000000000E+00 -0.27616121657E+03  0.27616121657E+03  0.00000000000E+00 0.  1.
          6    1    1    2  501    0 -0.16608333412E+03 -0.73316001659E+02 -0.19057484291E+02  0.25149770910E+03  0.17300000000E+03 0.  1.
         -6    1    1    2    0  503  0.16608333412E+03  0.73316001659E+02 -0.29288123494E+02  0.25247911627E+03  0.17300000000E+03 0. -1.
</event>
<event>
 4    1  0.6104111E+000  0.1000000E+03  0.7546771E-02  0.1280296E+00
         21   -1    0    0  501  502  0.00000000000E+00  0.00000000000E+00  0.40834212917E+03  0.40834212917E+03  0.00000000000E+00 0.  1.
         21   -1    0    0  502  503 -0.00000000000E+00 -0.00000000000E+00 -0.16714516981E+03  0.16714516981E+03  0.00000000000E+00 0. -1.
          6    1    1    2  501    0  0.11125141326E+03  0.11822156527E+03  0.24110135901E+03  0.33824854880E+03  0.17300000000E+03 0. -1.
         -6    1    1    2    0  503 -0.11125141326E+03 -0.11822156527E+03  0.95600344292E-01  0.23723875018E+03  0.17300000000E+03 0.  1.
</event>
<event>
 4    1  0.6104111E+000  0.1000000E+03  0.7546771E-02  0.1280296E+00
         21   -1    0    0  501  502  0.00000000000E+00  0.00000000000E+00  0.48231447295E+02  0.48231447295E+02  0.00000000000E+00 0.  1.
         21   -1    0    0  502  503 -0.00000000000E+00 -0.00000000000E+00 -0.15607710270E+04  0.15607710270E+04  0.00000000000E+00 0. -1.
          6    1    1    2  501    0 -0.13474595861E+03 -0.14903888213E+03 -0.96319559645E+03  0.99902143059E+03  0.17300000000E+03 0. -1.
         -6    1    1    2    0  503  0.13474595861E+03  0.14903888213E+03 -0.54934398326E+03  0.60998104372E+03  0.17300000000E+03 0.  1.
</event>
<event>
 4    1  0.6104111E+000  0.1000000E+03  0.7546771E-02  0.1280296E+00
         21   -1    0    0  503  502  0.00000000000E+00  0.00000000000E+00  0.94631252072E+02  0.94631252072E+02  0.00000000000E+00 0.  1.
         21   -1    0    0  501  503 -0.00000000000E+00 -0.00000000000E+00 -0.94997194446E+03  0.94997194446E+03  0.00000000000E+00 0. -1.
          6    1    1    2  501    0  0.76809128318E+02 -0.19820523722E+02 -0.83125707773E+03  0.85276598468E+03  0.17300000000E+03 0. -1.
         -6    1    1    2    0  502 -0.76809128318E+02  0.19820523722E+02 -0.24083614652E+02  0.19183721184E+03  0.17300000000E+03 0.  1.
</event>
<event>
 4    1  0.6104111E+000  0.1000000E+03  0.7546771E-02  0.1280296E+00
         21   -1    0    0  503  502  0.00000000000E+00  0.00000000000E+00  0.13336129481E+03  0.13336129481E+03  0.00000000000E+00 0.  1.
         21   -1    0    0  501  503 -0.00000000000E+00 -0.00000000000E+00 -0.10684482736E+04  0.10684482736E+04  0.00000000000E+00 0. -1.
          6    1    1    2  501    0 -0.16881912407E+03  0.28501914011E+03 -0.38293561043E+03  0.53507428327E+03  0.17300000000E+03 0. -1.
         -6    1    1    2    0  502  0.16881912407E+03 -0.28501914011E+03 -0.55215136838E+03  0.66673528516E+03  0.17300000000E+03 0.  1.
</event>
<event>
 4    1  0.6104111E+000  0.1000000E+03  0.7546771E-02  0.1280296E+00
         21   -1    0    0  501  502  0.00000000000E+00  0.00000000000E+00  0.49562481566E+03  0.49562481566E+03  0.00000000000E+00 0. -1.
         21   -1    0    0  502  503 -0.00000000000E+00 -0.00000000000E+00 -0.88337829553E+02  0.88337829553E+02  0.00000000000E+00 0. -1.
          6    1    1    2  501    0  0.48130732662E+02  0.70043657084E+02  0.31727170162E+03  0.37123175238E+03  0.17300000000E+03 0. -1.
         -6    1    1    2    0  503 -0.48130732662E+02 -0.70043657084E+02  0.90015284484E+02  0.21273089283E+03  0.17300000000E+03 0. -1.
</event>
<event>
 4    1  0.6104111E+000  0.1000000E+03  0.7546771E-02  0.1280296E+00
         21   -1    0    0  501  502  0.00000000000E+00  0.00000000000E+00  0.14791456358E+03  0.14791456358E+03  0.00000000000E+00 0. -1.
         21   -1    0    0  502  503 -0.00000000000E+00 -0.00000000000E+00 -0.28768369968E+03  0.28768369968E+03  0.00000000000E+00 0. -1.
          6    1    1    2  501    0  0.92148402225E+02 -0.49938839094E+02 -0.27147756570E+02  0.20408629638E+03  0.17300000000E+03 0. -1.
         -6    1    1    2    0  503 -0.92148402225E+02  0.49938839094E+02 -0.11262137952E+03  0.23151196688E+03  0.17300000000E+03 0. -1.
</event>
<event>
 4    1  0.6104111E+000  0.1000000E+03  0.7546771E-02  0.1280296E+00
         21   -1    0    0  501  502  0.00000000000E+00  0.00000000000E+00  0.20773459094E+03  0.20773459094E+03  0.00000000000E+00 0. -1.
         21   -1    0    0  502  503 -0.00000000000E+00 -0.00000000000E+00 -0.10211092143E+04  0.10211092143E+04  0.00000000000E+00 0. -1.
          6    1    1    2  501    0 -0.18516780784E+03 -0.36678844493E+03 -0.25243238793E+03  0.51232020346E+03  0.17300000000E+03 0. -1.
         -6    1    1    2    0  503  0.18516780784E+03  0.36678844493E+03 -0.56094223539E+03  0.71652360173E+03  0.17300000000E+03 0. -1.
</event>
<event>
 4    1  0.6104111E+000  0.1000000E+03  0.7546771E-02  0.1280296E+00
         21   -1    0    0  503  502  0.00000000000E+00  0.00000000000E+00  0.23945723190E+03  0.23945723190E+03  0.00000000000E+00 0.  1.
         21   -1    0    0  501  503 -0.00000000000E+00 -0.00000000000E+00 -0.43461015475E+03  0.43461015475E+03  0.00000000000E+00 0. -1.
          6    1    1    2  501    0  0.23072077616E+03 -0.78791041961E+02 -0.22425100272E+03  0.37370793016E+03  0.17300000000E+03 0.  1.
         -6    1    1    2    0  502 -0.23072077616E+03  0.78791041961E+02  0.29098079866E+02  0.30035945648E+03  0.17300000000E+03 0.  1.
</event>
<event>
 4    1  0.6104111E+000  0.1000000E+03  0.7546771E-02  0.1280296E+00
         21   -1    0    0  501  502  0.00000000000E+00  0.00000000000E+00  0.46423184374E+02  0.46423184374E+02  0.00000000000E+00 0.  1.
         21   -1    0    0  502  503 -0.00000000000E+00 -0.00000000000E+00 -0.17236793886E+04  0.17236793886E+04  0.00000000000E+00 0.  1.
          6    1    1    2  501    0 -0.19026125994E+03 -0.77282208324E+02 -0.56022442035E+03  0.62125058383E+03  0.17300000000E+03 0.  1.
         -6    1    1    2    0  503  0.19026125994E+03  0.77282208324E+02 -0.11170317839E+04  0.11488519892E+04  0.17300000000E+03 0.  1.
</event>
<event>
 4    1  0.6104111E+000  0.1000000E+03  0.7546771E-02  0.1280296E+00
         21   -1    0    0  503  502  0.00000000000E+00  0.00000000000E+00  0.12345719223E+04  0.12345719223E+04  0.00000000000E+00 0.  1.
         21   -1    0    0  501  503 -0.00000000000E+00 -0.00000000000E+00 -0.32487716233E+02  0.32487716233E+02  0.00000000000E+00 0. -1.
          6    1    1    2  501    0 -0.59027550507E+02 -0.35449789946E+02  0.36775638174E+03  0.41220710284E+03  0.17300000000E+03 0.  1.
         -6    1    1    2    0  502  0.59027550507E+02  0.35449789946E+02  0.83432782438E+03  0.85485253574E+03  0.17300000000E+03 0. -1.
</event>
<event>
 4    1  0.6104111E+000  0.1000000E+03  0.7546771E-02  0.1280296E+00
         21   -1    0    0  503  502  0.00000000000E+00  0.00000000000E+00  0.14522996211E+03  0.14522996211E+03  0.00000000000E+00 0.  1.
         21   -1    0    0  501  503 -0.00000000000E+00 -0.00000000000E+00 -0.28079736318E+03  0.28079736318E+03  0.00000000000E+00 0. -1.
          6    1    1    2  501    0 -0.32965345011E+02 -0.96300075311E+02 -0.91151762535E+02  0.22044968199E+03  0.17300000000E+03 0.  1.
         -6    1    1    2    0  502  0.32965345011E+02  0.96300075311E+02 -0.44415638538E+02  0.20557764330E+03  0.17300000000E+03 0. -1.
</event>
<event>
 4    1  0.6104111E+000  0.1000000E+03  0.7546771E-02  0.1280296E+00
         21   -1    0    0  503  502  0.00000000000E+00  0.00000000000E+00  0.67591404065E+03  0.67591404065E+03  0.00000000000E+00 0.  1.
         21   -1    0    0  501  503 -0.00000000000E+00 -0.00000000000E+00 -0.60333432869E+02  0.60333432869E+02  0.00000000000E+00 0. -1.
          6    1    1    2  501    0  0.99149036815E+02  0.11124429054E+02  0.25319587361E+03  0.32247702994E+03  0.17300000000E+03 0.  1.
         -6    1    1    2    0  502 -0.99149036815E+02 -0.11124429054E+02  0.36238473417E+03  0.41377044358E+03  0.17300000000E+03 0. -1.
</event>
<event>
 4    1  0.6104111E+000  0.1000000E+03  0.7546771E-02  0.1280296E+00
         21   -1    0    0  503  502  0.00000000000E+00  0.00000000000E+00  0.23928865074E+03  0.23928865074E+03  0.00000000000E+00 0.  1.
         21   -1    0    0  501  503 -0.00000000000E+00 -0.00000000000E+00 -0.14449553967E+03  0.14449553967E+03  0.00000000000E+00 0. -1.
          6    1    1    2  501    0 -0.56916060151E+02  0.37092971907E+02  0.53217498780E+02  0.19332984416E+03  0.17300000000E+03 0.  1.
         -6    1    1    2    0  502  0.56916060151E+02 -0.37092971907E+02  0.41575612290E+02  0.19045434625E+03  0.17300000000E+03 0. -1.
</event>
<event>
 4    1  0.6104111E+000  0.1000000E+03  0.7546771E-02  0.1280296E+00
         21   -1    0    0  503  502  0.00000000000E+00  0.00000000000E+00  0.30391113629E+03  0.30391113629E+03  0.00000000000E+00 0.  1.
         21   -1    0    0  501  503 -0.00000000000E+00 -0.00000000000E+00 -0.25466317992E+03  0.25466317992E+03  0.00000000000E+00 0. -1.
          6    1    1    2  501    0 -0.16071698538E+03 -0.11072525618E+03 -0.72584041962E+02  0.27071659516E+03  0.17300000000E+03 0.  1.
         -6    1    1    2    0  502  0.16071698538E+03  0.11072525618E+03  0.12183199833E+03  0.28785772104E+03  0.17300000000E+03 0. -1.
</event>
<event>
 4    1  0.6104111E+000  0.1000000E+03  0.7546771E-02  0.1280296E+00
         21   -1    0    0  503  502  0.00000000000E+00  0.00000000000E+00  0.81931843645E+02  0.81931843645E+02  0.00000000000E+00 0. -1.
         21   -1    0    0  501  503 -0.00000000000E+00 -0.00000000000E+00 -0.53125594727E+03  0.53125594727E+03  0.00000000000E+00 0.  1.
          6    1    1    2  501    0  0.49392468023E+02  0.76143008556E+02 -0.33225506286E+03  0.38543456052E+03  0.17300000000E+03 0.  1.
         -6    1    1    2    0  502 -0.49392468023E+02 -0.76143008556E+02 -0.11706904077E+03  0.22775323040E+03  0.17300000000E+03 0. -1.
</event>
<event>
 4    1  0.6104111E+000  0.1000000E+03  0.7546771E-02  0.1280296E+00
         21   -1    0    0  503  502  0.00000000000E+00  0.00000000000E+00  0.10054330497E+04  0.10054330497E+04  0.00000000000E+00 0. -1.
         21   -1    0    0  501  503 -0.00000000000E+00 -0.00000000000E+00 -0.64801872829E+02  0.64801872829E+02  0.00000000000E+00 0. -1.
          6    1    1    2  501    0  0.14641310593E+03 -0.24350057398E+02  0.22949860512E+03  0.32346303133E+03  0.17300000000E+03 0. -1.
         -6    1    1    2    0  502 -0.14641310593E+03  0.24350057398E+02  0.71113257176E+03  0.74677189121E+03  0.17300000000E+03 0. -1.
</event>
<event>
 4    1  0.6104111E+000  0.1000000E+03  0.7546771E-02  0.1280296E+00
         21   -1    0    0  503  502  0.00000000000E+00  0.00000000000E+00  0.19941279293E+03  0.19941279293E+03  0.00000000000E+00 0. -1.
         21   -1    0    0  501  503 -0.00000000000E+00 -0.00000000000E+00 -0.29269054557E+03  0.29269054557E+03  0.00000000000E+00 0. -1.
          6    1    1    2  501    0  0.11606323878E+03  0.15871030367E+02  0.76904875286E+02  0.22263406039E+03  0.17300000000E+03 0. -1.
         -6    1    1    2    0  502 -0.11606323878E+03 -0.15871030367E+02 -0.17018262793E+03  0.26946927812E+03  0.17300000000E+03 0. -1.
</event>
<event>
 4    1  0.6104111E+000  0.1000000E+03  0.7546771E-02  0.1280296E+00
         21   -1    0    0  503  502  0.00000000000E+00  0.00000000000E+00  0.60506465590E+02  0.60506465590E+02  0.00000000000E+00 0. -1.
         21   -1    0    0  501  503 -0.00000000000E+00 -0.00000000000E+00 -0.10575380001E+04  0.10575380001E+04  0.00000000000E+00 0. -1.
          6    1    1    2  501    0  0.39680267513E+02 -0.10473315971E+03 -0.82267185730E+03  0.84809288593E+03  0.17300000000E+03 0. -1.
         -6    1    1    2    0  502 -0.39680267513E+02  0.10473315971E+03 -0.17435967718E+03  0.26995157973E+03  0.17300000000E+03 0. -1.
</event>
<event>
 4    1  0.6104111E+000  0.1000000E+03  0.7546771E-02  0.1280296E+00
         21   -1    0    0  503  502  0.00000000000E+00  0.00000000000E+00  0.24636048450E+03  0.24636048450E+03  0.00000000000E+00 0. -1.
         21   -1    0    0  501  503 -0.00000000000E+00 -0.00000000000E+00 -0.13951373660E+03  0.13951373660E+03  0.00000000000E+00 0. -1.
          6    1    1    2  501    0  0.57210592276E+02  0.33189421081E+02  0.61947020134E+02  0.19529726789E+03  0.17300000000E+03 0. -1.
         -6    1    1    2    0  502 -0.57210592276E+02 -0.33189421081E+02  0.44899727765E+02  0.19057695321E+03  0.17300000000E+03 0. -1.
</event>
<event>
 4    1  0.6104111E+000  0.1000000E+03  0.7546771E-02  0.1280296E+00
         21   -1    0    0  503  502  0.00000000000E+00  0.00000000000E+00  0.19496980775E+03  0.19496980775E+03  0.00000000000E+00 0. -1.
         21   -1    0    0  501  503 -0.00000000000E+00 -0.00000000000E+00 -0.24314832668E+03  0.24314832668E+03  0.00000000000E+00 0. -1.
          6    1    1    2  501    0  0.24947369085E+02 -0.17554653374E+02 -0.15350948114E+03  0.23329101543E+03  0.17300000000E+03 0. -1.
         -6    1    1    2    0  502 -0.24947369085E+02  0.17554653374E+02  0.10533096221E+03  0.20482711900E+03  0.17300000000E+03 0. -1.
</event>
<event>
 4    1  0.6104111E+000  0.1000000E+03  0.7546771E-02  0.1280296E+00
         21   -1    0    0  503  502  0.00000000000E+00  0.00000000000E+00  0.26791004314E+03  0.26791004314E+03  0.00000000000E+00 0. -1.
         21   -1    0    0  501  503 -0.00000000000E+00 -0.00000000000E+00 -0.43053997663E+03  0.43053997663E+03  0.00000000000E+00 0. -1.
          6    1    1    2  501    0  0.12693119032E+03  0.23497964179E+03 -0.20337120336E+03  0.37764507873E+03  0.17300000000E+03 0. -1.
         -6    1    1    2    0  502 -0.12693119032E+03 -0.23497964179E+03  0.40741269871E+02  0.32080494105E+03  0.17300000000E+03 0. -1.
</event>
<event>
 4    1  0.6104111E+000  0.1000000E+03  0.7546771E-02  0.1280296E+00
         21   -1    0    0  501  502  0.00000000000E+00  0.00000000000E+00  0.23514755151E+04  0.23514755151E+04  0.00000000000E+00 0. -1.
         21   -1    0    0  502  503 -0.00000000000E+00 -0.00000000000E+00 -0.15388787274E+02  0.15388787274E+02  0.00000000000E+00 0. -1.
          6    1    1    2  501    0 -0.59324253766E+02  0.46223913832E+02  0.13205998542E+04  0.13340048696E+04  0.17300000000E+03 0. -1.
         -6    1    1    2    0  503  0.59324253766E+02 -0.46223913832E+02  0.10154868736E+04  0.10328594327E+04  0.17300000000E+03 0. -1.
</event>
<event>
 4    1  0.6104111E+000  0.1000000E+03  0.7546771E-02  0.1280296E+00
         21   -1    0    0  501  502  0.00000000000E+00  0.00000000000E+00  0.63913955831E+03  0.63913955831E+03  0.00000000000E+00 0. -1.
         21   -1    0    0  502  503 -0.00000000000E+00 -0.00000000000E+00 -0.13133339479E+03  0.13133339479E+03  0.00000000000E+00 0. -1.
          6    1    1    2  501    0 -0.19200390804E+03  0.89347450150E+02  0.38118257880E+03  0.46912431820E+03  0.17300000000E+03 0. -1.
         -6    1    1    2    0  503  0.19200390804E+03 -0.89347450150E+02  0.12662358472E+03  0.30134863490E+03  0.17300000000E+03 0. -1.
</event>
<event>
 4    1  0.6104111E+000  0.1000000E+03  0.7546771E-02  0.1280296E+00
         21   -1    0    0  501  502  0.00000000000E+00  0.00000000000E+00  0.65490615192E+02  0.65490615192E+02  0.00000000000E+00 0.  1.
         21   -1    0    0  502  503 -0.00000000000E+00 -0.00000000000E+00 -0.48347366205E+03  0.48347366205E+03  0.00000000000E+00 0.  1.
          6    1    1    2  501    0  0.14864849551E+02 -0.36078101610E+02 -0.23141923031E+03  0.29155866190E+03  0.17300000000E+03 0.  1.
         -6    1    1    2    0  503 -0.14864849551E+02  0.36078101610E+02 -0.18656381655E+03  0.25740561535E+03  0.17300000000E+03 0.  1.
</event>
<event>
 4    1  0.6104111E+000  0.1000000E+03  0.7546771E-02  0.1280296E+00
         21   -1    0    0  501  502  0.00000000000E+00  0.00000000000E+00  0.30404744018E+02  0.30404744018E+02  0.00000000000E+00 0.  1.
         21   -1    0    0  502  503 -0.00000000000E+00 -0.00000000000E+00 -0.11053627429E+04  0.11053627429E+04  0.00000000000E+00 0.  1.
          6    1    1    2  501    0  0.39091007988E+02 -0.33077977842E+02 -0.43676815173E+03  0.47256499858E+03  0.17300000000E+03 0.  1.
         -6    1    1    2    0  503 -0.39091007988E+02  0.33077977842E+02 -0.63818984719E+03  0.66320248837E+03  0.17300000000E+03 0.  1.
</event>
<event>
 4    1  0.6104111E+000  0.1000000E+03  0.7546771E-02  0.1280296E+00
         21   -1    0    0  501  502  0.00000000000E+00  0.00000000000E+00  0.52157143599E+03  0.52157143599E+03  0.00000000000E+00 0.  1.
         21   -1    0    0  502  503 -0.00000000000E+00 -0.00000000000E+00 -0.26845075861E+03  0.26845075861E+03  0.00000000000E+00 0.  1.
          6    1    1    2  501    0  0.89065714627E+02 -0.62331496001E+02  0.45748495847E+03  0.50103832602E+03  0.17300000000E+03 0.  1.
         -6    1    1    2    0  503 -0.89065714627E+02  0.62331496001E+02 -0.20436428108E+03  0.28898386858E+03  0.17300000000E+03 0.  1.
</event>
<event>
 4    1  0.6104111E+000  0.1000000E+03  0.7546771E-02  0.1280296E+00
         21   -1    0    0  501  502  0.00000000000E+00  0.00000000000E+00  0.95411922211E+02  0.95411922211E+02  0.00000000000E+00 0.  1.
         21   -1    0    0  502  503 -0.00000000000E+00 -0.00000000000E+00 -0.43262855517E+03  0.43262855517E+03  0.00000000000E+00 0.  1.
          6    1    1    2  501    0  0.10362722568E+03 -0.23440725420E+02 -0.17874550825E+03  0.27049404102E+03  0.17300000000E+03 0. -1.
         -6    1    1    2    0  503 -0.10362722568E+03  0.23440725420E+02 -0.15847112471E+03  0.25754643635E+03  0.17300000000E+03 0. -1.
</event>
<event>
 4    1  0.6104111E+000  0.1000000E+03  0.7546771E-02  0.1280296E+00
         21   -1    0    0  501  502  0.00000000000E+00  0.00000000000E+00  0.44274499399E+03  0.44274499399E+03  0.00000000000E+00 0.  1.
         21   -1    0    0  502  503 -0.00000000000E+00 -0.00000000000E+00 -0.33107911409E+03  0.33107911409E+03  0.00000000000E+00 0.  1.
          6    1    1    2  501    0  0.18151180473E+02  0.16154215443E+03  0.35939207163E+03  0.43071683756E+03  0.17300000000E+03 0. -1.
         -6    1    1    2    0  503 -0.18151180473E+02 -0.16154215443E+03 -0.24772619173E+03  0.34310727051E+03  0.17300000000E+03 0. -1.
</event>
<event>
 4    1  0.6104111E+000  0.1000000E+03  0.7546771E-02  0.1280296E+00
         21   -1    0    0  501  502  0.00000000000E+00  0.00000000000E+00  0.21298479117E+03  0.21298479117E+03  0.00000000000E+00 0.  1.
         21   -1    0    0  502  503 -0.00000000000E+00 -0.00000000000E+00 -0.46703868534E+03  0.46703868534E+03  0.00000000000E+00 0.  1.
          6    1    1    2  501    0 -0.12855697478E+03  0.11098195361E+03  0.90461591073E+02  0.25875894043E+03  0.17300000000E+03 0. -1.
         -6    1    1    2    0  503  0.12855697478E+03 -0.11098195361E+03 -0.34451548525E+03  0.42126453609E+03  0.17300000000E+03 0. -1.
</event>
<event>
 4    1  0.6104111E+000  0.1000000E+03  0.7546771E-02  0.1280296E+00
         21   -1    0    0  503  502  0.00000000000E+00  0.00000000000E+00  0.34039677006E+02  0.34039677006E+02  0.00000000000E+00 0. -1.
         21   -1    0    0  501  503 -0.00000000000E+00 -0.00000000000E+00 -0.12852126503E+04  0.12852126503E+04  0.00000000000E+00 0.  1.
          6    1    1    2  501    0 -0.73626472773E+02  0.46950860558E+02 -0.87378698906E+03  0.89501840375E+03  0.17300000000E+03 0.  1.
         -6    1    1    2    0  502  0.73626472773E+02 -0.46950860558E+02 -0.37738598424E+03  0.42423392356E+03  0.17300000000E+03 0. -1.
</event>
<event>
 4    1  0.6104111E+000  0.1000000E+03  0.7546771E-02  0.1280296E+00
         21   -1    0    0  503  502  0.00000000000E+00  0.00000000000E+00  0.51401799277E+02  0.51401799277E+02  0.00000000000E+00 0. -1.
         21   -1    0    0  501  503 -0.00000000000E+00 -0.00000000000E+00 -0.18317409262E+04  0.18317409262E+04  0.00000000000E+00 0.  1.
          6    1    1    2  501    0 -0.32294544551E+02 -0.26955408060E+02 -0.16570364775E+04  0.16665738565E+04  0.17300000000E+03 0.  1.
         -6    1    1    2    0  502  0.32294544551E+02  0.26955408060E+02 -0.12330264946E+03  0.21656886894E+03  0.17300000000E+03 0. -1.
</event>
<event>
 4    1  0.6104111E+000  0.1000000E+03  0.7546771E-02  0.1280296E+00
         21   -1    0    0  503  502  0.00000000000E+00  0.00000000000E+00  0.16092435895E+03  0.16092435895E+03  0.00000000000E+00 0. -1.
         21   -1    0    0  501  503 -0.00000000000E+00 -0.00000000000E+00 -0.55949179493E+03  0.55949179493E+03  0.00000000000E+00 0. -1.
          6    1    1    2  501    0  0.12050330927E+03  0.21159755291E+03 -0.23349743892E+03  0.37913668502E+03  0.17300000000E+03 0. -1.
         -6    1    1    2    0  502 -0.12050330927E+03 -0.21159755291E+03 -0.16506999706E+03  0.34127946887E+03  0.17300000000E+03 0. -1.
</event>
<event>
 4    1  0.6104111E+000  0.1000000E+03  0.7546771E-02  0.1280296E+00
         21   -1    0    0  503  502  0.00000000000E+00  0.00000000000E+00  0.20283840355E+03  0.20283840355E+03  0.00000000000E+00 0. -1.
         21   -1    0    0  501  503 -0.00000000000E+00 -0.00000000000E+00 -0.83042475918E+03  0.83042475918E+03  0.00000000000E+00 0. -1.
          6    1    1    2  501    0  0.84540892967E+02 -0.29957889061E+03 -0.57059505017E+03  0.67260864220E+03  0.17300000000E+03 0. -1.
         -6    1    1    2    0  502 -0.84540892967E+02  0.29957889061E+03 -0.56991305463E+02  0.36065452053E+03  0.17300000000E+03 0. -1.
</event>
<event>
 4    1  0.6104111E+000  0.1000000E+03  0.7546771E-02  0.1280296E+00
         21   -1    0    0  501  502  0.00000000000E+00  0.00000000000E+00  0.59852317313E+02  0.59852317313E+02  0.00000000000E+00 0. -1.
         21   -1    0    0  502  503 -0.00000000000E+00 -0.00000000000E+00 -0.16103972441E+04  0.16103972441E+04  0.00000000000E+00 0. -1.
          6    1    1    2  501    0 -0.45905112706E+02  0.47149934099E+02 -0.10479650618E+03  0.21270097171E+03  0.17300000000E+03 0. -1.
         -6    1    1    2    0  503  0.45905112706E+02 -0.47149934099E+02 -0.14457484206E+04  0.14575485897E+04  0.17300000000E+03 0. -1.
</event>
<event>
 4    1  0.6104111E+000  0.1000000E+03  0.7546771E-02  0.1280296E+00
         21   -1    0    0  501  502  0.00000000000E+00  0.00000000000E+00  0.35347786824E+03  0.35347786824E+03  0.00000000000E+00 0.  1.
         21   -1    0    0  502  503 -0.00000000000E+00 -0.00000000000E+00 -0.17070733246E+03  0.17070733246E+03  0.00000000000E+00 0.  1.
          6    1    1    2  501    0 -0.15653986618E+03 -0.41074145114E+02  0.16070021237E+03  0.28626102312E+03  0.17300000000E+03 0.  1.
         -6    1    1    2    0  503  0.15653986618E+03  0.41074145114E+02  0.22070323419E+02  0.23792417758E+03  0.17300000000E+03 0.  1.
</event>
<event>
 4    1  0.6104111E+000  0.1000000E+03  0.7546771E-02  0.1280296E+00
         21   -1    0    0  501  502  0.00000000000E+00  0.00000000000E+00  0.80452791371E+03  0.80452791371E+03  0.00000000000E+00 0.  1.
         21   -1    0    0  502  503 -0.00000000000E+00 -0.00000000000E+00 -0.10868478697E+03  0.10868478697E+03  0.00000000000E+00 0.  1.
          6    1    1    2  501    0 -0.12339047230E+03  0.21065262524E+02  0.66378050825E+03  0.69728223631E+03  0.17300000000E+03 0.  1.
         -6    1    1    2    0  503  0.12339047230E+03 -0.21065262524E+02  0.32062618497E+02  0.21593046438E+03  0.17300000000E+03 0.  1.
</event>
<event>
 4    1  0.6104111E+000  0.1000000E+03  0.7546771E-02  0.1280296E+00
         21   -1    0    0  503  502  0.00000000000E+00  0.00000000000E+00  0.78221297212E+03  0.78221297212E+03  0.00000000000E+00 0.  1.
         21   -1    0    0  501  503 -0.00000000000E+00 -0.00000000000E+00 -0.50096647183E+02  0.50096647183E+02  0.00000000000E+00 0.  1.
          6    1    1    2  501    0 -0.73659343522E+02  0.35213099560E+02  0.25903669665E+03  0.32201657020E+03  0.17300000000E+03 0.  1.
         -6    1    1    2    0  502  0.73659343522E+02 -0.35213099560E+02  0.47307962828E+03  0.51029304911E+03  0.17300000000E+03 0.  1.
</event>
<event>
 4    1  0.6104111E+000  0.1000000E+03  0.7546771E-02  0.1280296E+00
         21   -1    0    0  503  502  0.00000000000E+00  0.00000000000E+00  0.75043655962E+03  0.75043655962E+03  0.00000000000E+00 0.  1.
         21   -1    0    0  501  503 -0.00000000000E+00 -0.00000000000E+00 -0.18629204785E+03  0.18629204785E+03  0.00000000000E+00 0.  1.
          6    1    1    2  501    0  0.41260312109E+02  0.45149196108E+02 -0.12601190936E+03  0.22259574247E+03  0.17300000000E+03 0.  1.
         -6    1    1    2    0  502 -0.41260312109E+02 -0.45149196108E+02  0.69015642112E+03  0.71413286500E+03  0.17300000000E+03 0.  1.
</event>
<event>
 4    1  0.6104111E+000  0.1000000E+03  0.7546771E-02  0.1280296E+00
         21   -1    0    0  501  502  0.00000000000E+00  0.00000000000E+00  0.25611707149E+04  0.25611707149E+04  0.00000000000E+00 0.  1.
         21   -1    0    0  502  503 -0.00000000000E+00 -0.00000000000E+00 -0.48544740428E+02  0.48544740428E+02  0.00000000000E+00 0.  1.
          6    1    1    2  501    0  0.23493055268E+03  0.95448871780E+02  0.18983389069E+04  0.19229982987E+04  0.17300000000E+03 0.  1.
         -6    1    1    2    0  503 -0.23493055268E+03 -0.95448871780E+02  0.61428706765E+03  0.68671715661E+03  0.17300000000E+03 0.  1.
</event>
<event>
 4    1  0.6104111E+000  0.1000000E+03  0.7546771E-02  0.1280296E+00
         21   -1    0    0  501  502  0.00000000000E+00  0.00000000000E+00  0.61986352202E+03  0.61986352202E+03  0.00000000000E+00 0.  1.
         21   -1    0    0  502  503 -0.00000000000E+00 -0.00000000000E+00 -0.76734708719E+02  0.76734708719E+02  0.00000000000E+00 0.  1.
          6    1    1    2  501    0  0.50216042543E+00  0.11145125185E+03  0.38688613018E+03  0.43821400186E+03  0.17300000000E+03 0.  1.
         -6    1    1    2    0  503 -0.50216042543E+00 -0.11145125185E+03  0.15624268312E+03  0.25838422888E+03  0.17300000000E+03 0.  1.
</event>
<event>
 4    1  0.6104111E+000  0.1000000E+03  0.7546771E-02  0.1280296E+00
         21   -1    0    0  503  502  0.00000000000E+00  0.00000000000E+00  0.24304827436E+03  0.24304827436E+03  0.00000000000E+00 0. -1.
         21   -1    0    0  501  503 -0.00000000000E+00 -0.00000000000E+00 -0.19823838097E+03  0.19823838097E+03  0.00000000000E+00 0.  1.
          6    1    1    2  501    0  0.28668921164E+02  0.12015771748E+03 -0.32584980017E+02  0.21505944535E+03  0.17300000000E+03 0.  1.
         -6    1    1    2    0  502 -0.28668921164E+02 -0.12015771748E+03  0.77394873407E+02  0.22622720999E+03  0.17300000000E+03 0.  1.
</event>
<event>
 4    1  0.6104111E+000  0.1000000E+03  0.7546771E-02  0.1280296E+00
         21   -1    0    0  503  502  0.00000000000E+00  0.00000000000E+00  0.70334591211E+03  0.70334591211E+03  0.00000000000E+00 0. -1.
         21   -1    0    0  501  503 -0.00000000000E+00 -0.00000000000E+00 -0.27392568970E+03  0.27392568970E+03  0.00000000000E+00 0.  1.
          6    1    1    2  501    0 -0.12708998768E+03  0.10298698371E+03 -0.19579415285E+03  0.30825725308E+03  0.17300000000E+03 0.  1.
         -6    1    1    2    0  502  0.12708998768E+03 -0.10298698371E+03  0.62521437526E+03  0.66901434873E+03  0.17300000000E+03 0.  1.
</event>
<event>
 4    1  0.6104111E+000  0.1000000E+03  0.7546771E-02  0.1280296E+00
         21   -1    0    0  503  502  0.00000000000E+00  0.00000000000E+00  0.19481720244E+04  0.19481720244E+04  0.00000000000E+00 0. -1.
         21   -1    0    0  501  503 -0.00000000000E+00 -0.00000000000E+00 -0.21504821017E+02  0.21504821017E+02  0.00000000000E+00 0. -1.
          6    1    1    2  501    0 -0.22861721144E+02  0.51519468253E+02  0.51224950435E+03  0.54360414698E+03  0.17300000000E+03 0. -1.
         -6    1    1    2    0  502  0.22861721144E+02 -0.51519468253E+02  0.14144176990E+04  0.14260726984E+04  0.17300000000E+03 0. -1.
</event>
<event>
 4    1  0.6104111E+000  0.1000000E+03  0.7546771E-02  0.1280296E+00
         21   -1    0    0  503  502  0.00000000000E+00  0.00000000000E+00  0.87587972085E+03  0.87587972085E+03  0.00000000000E+00 0. -1.
         21   -1    0    0  501  503 -0.00000000000E+00 -0.00000000000E+00 -0.12163605943E+03  0.12163605943E+03  0.00000000000E+00 0. -1.
          6    1    1    2  501    0 -0.86476351882E+02 -0.11506378376E+03  0.15869942860E+02  0.22560737766E+03  0.17300000000E+03 0. -1.
         -6    1    1    2    0  502  0.86476351882E+02  0.11506378376E+03  0.73837371856E+03  0.77190840262E+03  0.17300000000E+03 0. -1.
</event>
<event>
 4    1  0.6104111E+000  0.1000000E+03  0.7546771E-02  0.1280296E+00
         21   -1    0    0  501  502  0.00000000000E+00  0.00000000000E+00  0.20073817070E+04  0.20073817070E+04  0.00000000000E+00 0.  1.
         21   -1    0    0  502  503 -0.00000000000E+00 -0.00000000000E+00 -0.85246781811E+02  0.85246781811E+02  0.00000000000E+00 0.  1.
          6    1    1    2  501    0  0.10347858965E+03 -0.20678022037E+03  0.17102319057E+04  0.17344417111E+04  0.17300000000E+03 0.  1.
         -6    1    1    2    0  503 -0.10347858965E+03  0.20678022037E+03  0.21190301956E+03  0.35818677774E+03  0.17300000000E+03 0.  1.
</event>
<event>
 4    1  0.6104111E+000  0.1000000E+03  0.7546771E-02  0.1280296E+00
         21   -1    0    0  503  502  0.00000000000E+00  0.00000000000E+00  0.18242919438E+03  0.18242919438E+03  0.00000000000E+00 0.  1.
         21   -1    0    0  501  503 -0.00000000000E+00 -0.00000000000E+00 -0.47462378136E+03  0.47462378136E+03  0.00000000000E+00 0.  1.
          6    1    1    2  501    0 -0.10138178996E+03 -0.72530430610E+02 -0.37248914187E+03  0.42920402085E+03  0.17300000000E+03 0.  1.
         -6    1    1    2    0  502  0.10138178996E+03  0.72530430610E+02  0.80294554885E+02  0.22784895489E+03  0.17300000000E+03 0.  1.
</event>
<event>
 4    1  0.6104111E+000  0.1000000E+03  0.7546771E-02  0.1280296E+00
         21   -1    0    0  503  502  0.00000000000E+00  0.00000000000E+00  0.65897789266E+03  0.65897789266E+03  0.00000000000E+00 0.  1.
         21   -1    0    0  501  503 -0.00000000000E+00 -0.00000000000E+00 -0.12994794749E+03  0.12994794749E+03  0.00000000000E+00 0.  1.
          6    1    1    2  501    0  0.21458263884E+03  0.35416246679E+02  0.14094184508E+03  0.31159849665E+03  0.17300000000E+03 0.  1.
         -6    1    1    2    0  502 -0.21458263884E+03 -0.35416246679E+02  0.38808810009E+03  0.47732734350E+03  0.17300000000E+03 0.  1.
</event>
<event>
 4    1  0.6104111E+000  0.1000000E+03  0.7546771E-02  0.1280296E+00
         21   -1    0    0  503  502  0.00000000000E+00  0.00000000000E+00  0.12237185300E+04  0.12237185300E+04  0.00000000000E+00 0.  1.
         21   -1    0    0  501  503 -0.00000000000E+00 -0.00000000000E+00 -0.34499302960E+02  0.34499302960E+02  0.00000000000E+00 0.  1.
          6    1    1    2  501    0  0.89917322904E+02  0.22442542380E+02  0.40837523295E+03  0.45308732442E+03  0.17300000000E+03 0.  1.
         -6    1    1    2    0  502 -0.89917322904E+02 -0.22442542380E+02  0.78084399405E+03  0.80513050850E+03  0.17300000000E+03 0.  1.
</event>
<event>
 4    1  0.6104111E+000  0.1000000E+03  0.7546771E-02  0.1280296E+00
         21   -1    0    0  503  502  0.00000000000E+00  0.00000000000E+00  0.57840252483E+03  0.57840252483E+03  0.00000000000E+00 0.  1.
         21   -1    0    0  501  503 -0.00000000000E+00 -0.00000000000E+00 -0.19084362299E+03  0.19084362299E+03  0.00000000000E+00 0.  1.
          6    1    1    2  501    0  0.11968516242E+03 -0.23650746015E+03  0.76889408534E+02  0.32573194187E+03  0.17300000000E+03 0.  1.
         -6    1    1    2    0  502 -0.11968516242E+03  0.23650746015E+03  0.31066949331E+03  0.44351420595E+03  0.17300000000E+03 0.  1.
</event>
<event>
 4    1  0.6104111E+000  0.1000000E+03  0.7546771E-02  0.1280296E+00
         21   -1    0    0  503  502  0.00000000000E+00  0.00000000000E+00  0.11898230273E+04  0.11898230273E+04  0.00000000000E+00 0.  1.
         21   -1    0    0  501  503 -0.00000000000E+00 -0.00000000000E+00 -0.23350166931E+03  0.23350166931E+03  0.00000000000E+00 0.  1.
          6    1    1    2  501    0 -0.29907428013E+03  0.16002413795E+03 -0.13944557075E+02  0.38102047246E+03  0.17300000000E+03 0.  1.
         -6    1    1    2    0  502  0.29907428013E+03 -0.16002413795E+03  0.97026591511E+03  0.10423042242E+04  0.17300000000E+03 0.  1.
</event>
<event>
 4    1  0.6104111E+000  0.1000000E+03  0.7546771E-02  0.1280296E+00
         21   -1    0    0  503  502  0.00000000000E+00  0.00000000000E+00  0.14346386542E+03  0.14346386542E+03  0.00000000000E+00 0.  1.
         21   -1    0    0  501  503 -0.00000000000E+00 -0.00000000000E+00 -0.25882271986E+03  0.25882271986E+03  0.00000000000E+00 0.  1.
          6    1    1    2  501    0 -0.28563614317E+01 -0.73183155243E+02 -0.10244017866E+03  0.21397879151E+03  0.17300000000E+03 0.  1.
         -6    1    1    2    0  502  0.28563614317E+01  0.73183155243E+02 -0.12918675777E+02  0.18830779377E+03  0.17300000000E+03 0.  1.
</event>
<event>
 4    1  0.6104111E+000  0.1000000E+03  0.7546771E-02  0.1280296E+00
         21   -1    0    0  501  502  0.00000000000E+00  0.00000000000E+00  0.22566861811E+03  0.22566861811E+03  0.00000000000E+00 0. -1.
         21   -1    0    0  502  503 -0.00000000000E+00 -0.00000000000E+00 -0.23192854945E+03  0.23192854945E+03  0.00000000000E+00 0.  1.
          6    1    1    2  501    0 -0.69084210547E+02 -0.41007418221E+02  0.12319796203E+03  0.22707041715E+03  0.17300000000E+03 0.  1.
         -6    1    1    2    0  503  0.69084210547E+02  0.41007418221E+02 -0.12945789337E+03  0.23052675041E+03  0.17300000000E+03 0. -1.
</event>
<event>
 4    1  0.6104111E+000  0.1000000E+03  0.7546771E-02  0.1280296E+00
         21   -1    0    0  501  502  0.00000000000E+00  0.00000000000E+00  0.28321636208E+03  0.28321636208E+03  0.00000000000E+00 0. -1.
         21   -1    0    0  502  503 -0.00000000000E+00 -0.00000000000E+00 -0.28693489978E+03  0.28693489978E+03  0.00000000000E+00 0.  1.
          6    1    1    2  501    0  0.83045560427E+02  0.61150845109E+02  0.19988660796E+03  0.28375984037E+03  0.17300000000E+03 0.  1.
         -6    1    1    2    0  503 -0.83045560427E+02 -0.61150845109E+02 -0.20360514566E+03  0.28639142149E+03  0.17300000000E+03 0. -1.
</event>
<event>
 4    1  0.6104111E+000  0.1000000E+03  0.7546771E-02  0.1280296E+00
         21   -1    0    0  501  502  0.00000000000E+00  0.00000000000E+00  0.49427213325E+03  0.49427213325E+03  0.00000000000E+00 0. -1.
         21   -1    0    0  502  503 -0.00000000000E+00 -0.00000000000E+00 -0.11791641231E+03  0.11791641231E+03  0.00000000000E+00 0.  1.
          6    1    1    2  501    0 -0.36121861291E+02 -0.20062202211E+02  0.39514682541E+03  0.43333277565E+03  0.17300000000E+03 0.  1.
         -6    1    1    2    0  503  0.36121861291E+02  0.20062202211E+02 -0.18791104469E+02  0.17885576990E+03  0.17300000000E+03 0. -1.
</event>
<event>
 4    1  0.6104111E+000  0.1000000E+03  0.7546771E-02  0.1280296E+00
         21   -1    0    0  503  502  0.00000000000E+00  0.00000000000E+00  0.63059672001E+03  0.63059672001E+03  0.00000000000E+00 0. -1.
         21   -1    0    0  501  503 -0.00000000000E+00 -0.00000000000E+00 -0.14788811943E+03  0.14788811943E+03  0.00000000000E+00 0. -1.
          6    1    1    2  501    0  0.22270267778E+03 -0.10728681145E+03  0.18127399294E+03  0.35198892471E+03  0.17300000000E+03 0. -1.
         -6    1    1    2    0  502 -0.22270267778E+03  0.10728681145E+03  0.30143460763E+03  0.42649591473E+03  0.17300000000E+03 0. -1.
</event>
<event>
 4    1  0.6104111E+000  0.1000000E+03  0.7546771E-02  0.1280296E+00
         21   -1    0    0  503  502  0.00000000000E+00  0.00000000000E+00  0.89429374540E+03  0.89429374540E+03  0.00000000000E+00 0. -1.
         21   -1    0    0  501  503 -0.00000000000E+00 -0.00000000000E+00 -0.47960668055E+02  0.47960668055E+02  0.00000000000E+00 0. -1.
          6    1    1    2  501    0  0.36192776834E+02  0.10409553808E+03  0.35817834967E+03  0.41275480411E+03  0.17300000000E+03 0. -1.
         -6    1    1    2    0  502 -0.36192776834E+02 -0.10409553808E+03  0.48815472767E+03  0.52949960934E+03  0.17300000000E+03 0. -1.
</event>
<event>
 4    1  0.6104111E+000  0.1000000E+03  0.7546771E-02  0.1280296E+00
         21   -1    0    0  503  502  0.00000000000E+00  0.00000000000E+00  0.17038787780E+03  0.17038787780E+03  0.00000000000E+00 0. -1.
         21   -1    0    0  501  503 -0.00000000000E+00 -0.00000000000E+00 -0.63266536394E+03  0.63266536394E+03  0.00000000000E+00 0. -1.
          6    1    1    2  501    0 -0.36937376073E+02  0.97387099107E+01 -0.56919105462E+03  0.59612638667E+03  0.17300000000E+03 0. -1.
         -6    1    1    2    0  502  0.36937376073E+02 -0.97387099107E+01  0.10691356849E+03  0.20692685507E+03  0.17300000000E+03 0. -1.
</event>
<event>
 4    1  0.6104111E+000  0.1000000E+03  0.7546771E-02  0.1280296E+00
         21   -1    0    0  503  502  0.00000000000E+00  0.00000000000E+00  0.22581197542E+03  0.22581197542E+03  0.00000000000E+00 0.  1.
         21   -1    0    0  501  503 -0.00000000000E+00 -0.00000000000E+00 -0.33717884441E+03  0.33717884441E+03  0.00000000000E+00 0.  1.
          6    1    1    2  501    0 -0.11061806610E+03 -0.18428945464E+03 -0.52290538889E+02  0.28082425126E+03  0.17300000000E+03 0.  1.
         -6    1    1    2    0  502  0.11061806610E+03  0.18428945464E+03 -0.59076330097E+02  0.28216656857E+03  0.17300000000E+03 0.  1.
</event>
<event>
 4    1  0.6104111E+000  0.1000000E+03  0.7546771E-02  0.1280296E+00
         21   -1    0    0  503  502  0.00000000000E+00  0.00000000000E+00  0.53913659651E+03  0.53913659651E+03  0.00000000000E+00 0.  1.
         21   -1    0    0  501  503 -0.00000000000E+00 -0.00000000000E+00 -0.93559698091E+02  0.93559698091E+02  0.00000000000E+00 0.  1.
          6    1    1    2  501    0 -0.99352295890E+02  0.10141895194E+03  0.19622044044E+03  0.29763760475E+03  0.17300000000E+03 0.  1.
         -6    1    1    2    0  502  0.99352295890E+02 -0.10141895194E+03  0.24935645798E+03  0.33505868985E+03  0.17300000000E+03 0.  1.
</event>
<event>
 4    1  0.6104111E+000  0.1000000E+03  0.7546771E-02  0.1280296E+00
         21   -1    0    0  503  502  0.00000000000E+00  0.00000000000E+00  0.35025245199E+03  0.35025245199E+03  0.00000000000E+00 0. -1.
         21   -1    0    0  501  503 -0.00000000000E+00 -0.00000000000E+00 -0.14738954754E+03  0.14738954754E+03  0.00000000000E+00 0.  1.
          6    1    1    2  501    0  0.63762644435E+02 -0.10559305092E+03  0.13282628269E+02  0.21288728342E+03  0.17300000000E+03 0.  1.
         -6    1    1    2    0  502 -0.63762644435E+02  0.10559305092E+03  0.18958027618E+03  0.28475471611E+03  0.17300000000E+03 0. -1.
</event>
<event>
 4    1  0.6104111E+000  0.1000000E+03  0.7546771E-02  0.1280296E+00
         21   -1    0    0  503  502  0.00000000000E+00  0.00000000000E+00  0.26780745540E+03  0.26780745540E+03  0.00000000000E+00 0. -1.
         21   -1    0    0  501  503 -0.00000000000E+00 -0.00000000000E+00 -0.14557218880E+03  0.14557218880E+03  0.00000000000E+00 0.  1.
          6    1    1    2  501    0 -0.57306620898E+01  0.64179397764E+02 -0.12192687646E+02  0.18501215424E+03  0.17300000000E+03 0.  1.
         -6    1    1    2    0  502  0.57306620898E+01 -0.64179397764E+02  0.13442795424E+03  0.22836748995E+03  0.17300000000E+03 0. -1.
</event>
<event>
 4    1  0.6104111E+000  0.1000000E+03  0.7546771E-02  0.1280296E+00
         21   -1    0    0  503  502  0.00000000000E+00  0.00000000000E+00  0.17485312091E+03  0.17485312091E+03  0.00000000000E+00 0.  1.
         21   -1    0    0  501  503 -0.00000000000E+00 -0.00000000000E+00 -0.97755618261E+03  0.97755618261E+03  0.00000000000E+00 0.  1.
          6    1    1    2  501    0 -0.24548385728E+03 -0.26805663413E+03 -0.53270775300E+03  0.66769995761E+03  0.17300000000E+03 0.  1.
         -6    1    1    2    0  502  0.24548385728E+03  0.26805663413E+03 -0.26999530870E+03  0.48470934590E+03  0.17300000000E+03 0.  1.
</event>
<event>
 4    1  0.6104111E+000  0.1000000E+03  0.7546771E-02  0.1280296E+00
         21   -1    0    0  503  502  0.00000000000E+00  0.00000000000E+00  0.14934502180E+03  0.14934502180E+03  0.00000000000E+00 0.  1.
         21   -1    0    0  501  503 -0.00000000000E+00 -0.00000000000E+00 -0.33782583788E+03  0.33782583788E+03  0.00000000000E+00 0.  1.
          6    1    1    2  501    0  0.13494329361E+03  0.25052919081E+02 -0.13877244149E+03  0.26081436265E+03  0.17300000000E+03 0.  1.
         -6    1    1    2    0  502 -0.13494329361E+03 -0.25052919081E+02 -0.49708374584E+02  0.22635649703E+03  0.17300000000E+03 0.  1.
</event>
<event>
 4    1  0.6104111E+000  0.1000000E+03  0.7546771E-02  0.1280296E+00
         21   -1    0    0  503  502  0.00000000000E+00  0.00000000000E+00  0.14661786420E+03  0.14661786420E+03  0.00000000000E+00 0.  1.
         21   -1    0    0  501  503 -0.00000000000E+00 -0.00000000000E+00 -0.41428946184E+03  0.41428946184E+03  0.00000000000E+00 0.  1.
          6    1    1    2  501    0 -0.50648363073E+02 -0.84198655280E+01 -0.32484916671E+03  0.37160749714E+03  0.17300000000E+03 0.  1.
         -6    1    1    2    0  502  0.50648363073E+02  0.84198655280E+01  0.57177569065E+02  0.18929982890E+03  0.17300000000E+03 0.  1.
</event>
<event>
 4    1  0.6104111E+000  0.1000000E+03  0.7546771E-02  0.1280296E+00
         21   -1    0    0  503  502  0.00000000000E+00  0.00000000000E+00  0.13048386819E+03  0.13048386819E+03  0.00000000000E+00 0.  1.
         21   -1    0    0  501  503 -0.00000000000E+00 -0.00000000000E+00 -0.26753277493E+03  0.26753277493E+03  0.00000000000E+00 0.  1.
          6    1    1    2  501    0  0.37104586599E+02 -0.11986872560E+02 -0.13117097001E+03  0.22057937083E+03  0.17300000000E+03 0.  1.
         -6    1    1    2    0  502 -0.37104586599E+02  0.11986872560E+02 -0.58779367229E+01  0.17743727230E+03  0.17300000000E+03 0.  1.
</event>
<event>
 4    1  0.6104111E+000  0.1000000E+03  0.7546771E-02  0.1280296E+00
         21   -1    0    0  503  502  0.00000000000E+00  0.00000000000E+00  0.21058418658E+04  0.21058418658E+04  0.00000000000E+00 0.  1.
         21   -1    0    0  501  503 -0.00000000000E+00 -0.00000000000E+00 -0.22024806336E+02  0.22024806336E+02  0.00000000000E+00 0.  1.
          6    1    1    2  501    0 -0.26839204832E+02 -0.70076770365E+02  0.52801586607E+03  0.56067892014E+03  0.17300000000E+03 0.  1.
         -6    1    1    2    0  502  0.26839204832E+02  0.70076770365E+02  0.15558011933E+04  0.15671877520E+04  0.17300000000E+03 0.  1.
</event>
<event>
 4    1  0.6104111E+000  0.1000000E+03  0.7546771E-02  0.1280296E+00
         21   -1    0    0  503  502  0.00000000000E+00  0.00000000000E+00  0.20929887561E+03  0.20929887561E+03  0.00000000000E+00 0.  1.
         21   -1    0    0  501  503 -0.00000000000E+00 -0.00000000000E+00 -0.23839678027E+03  0.23839678027E+03  0.00000000000E+00 0. -1.
          6    1    1    2  501    0 -0.33953186902E+02 -0.15970103197E+02 -0.15107018950E+03  0.23272100303E+03  0.17300000000E+03 0.  1.
         -6    1    1    2    0  502  0.33953186902E+02  0.15970103197E+02  0.12197228484E+03  0.21497465284E+03  0.17300000000E+03 0. -1.
</event>
<event>
 4    1  0.6104111E+000  0.1000000E+03  0.7546771E-02  0.1280296E+00
         21   -1    0    0  503  502  0.00000000000E+00  0.00000000000E+00  0.49911216833E+02  0.49911216833E+02  0.00000000000E+00 0.  1.
         21   -1    0    0  501  503 -0.00000000000E+00 -0.00000000000E+00 -0.14697320501E+04  0.14697320501E+04  0.00000000000E+00 0. -1.
          6    1    1    2  501    0  0.70676302965E+02 -0.59137583956E+02 -0.12342614584E+04  0.12497290672E+04  0.17300000000E+03 0.  1.
         -6    1    1    2    0  502 -0.70676302965E+02  0.59137583956E+02 -0.18555937489E+03  0.26991419979E+03  0.17300000000E+03 0. -1.
</event>
<event>
 4    1  0.6104111E+000  0.1000000E+03  0.7546771E-02  0.1280296E+00
         21   -1    0    0  501  502  0.00000000000E+00  0.00000000000E+00  0.74133808784E+03  0.74133808784E+03  0.00000000000E+00 0.  1.
         21   -1    0    0  502  503 -0.00000000000E+00 -0.00000000000E+00 -0.64191259291E+02  0.64191259291E+02  0.00000000000E+00 0.  1.
          6    1    1    2  501    0 -0.64052264143E+02  0.89900513784E+02  0.47517099430E+03  0.51759179741E+03  0.17300000000E+03 0.  1.
         -6    1    1    2    0  503  0.64052264143E+02 -0.89900513784E+02  0.20197583425E+03  0.28793754973E+03  0.17300000000E+03 0.  1.
</event>
<event>
 4    1  0.6104111E+000  0.1000000E+03  0.7546771E-02  0.1280296E+00
         21   -1    0    0  501  502  0.00000000000E+00  0.00000000000E+00  0.26815117378E+03  0.26815117378E+03  0.00000000000E+00 0. -1.
         21   -1    0    0  502  503 -0.00000000000E+00 -0.00000000000E+00 -0.14347388041E+03  0.14347388041E+03  0.00000000000E+00 0.  1.
          6    1    1    2  501    0 -0.50359044093E+02  0.32072322860E+01  0.14359848339E+03  0.23042535471E+03  0.17300000000E+03 0. -1.
         -6    1    1    2    0  503  0.50359044093E+02 -0.32072322860E+01 -0.18921190023E+02  0.18119969948E+03  0.17300000000E+03 0.  1.
</event>
<event>
 4    1  0.6104111E+000  0.1000000E+03  0.7546771E-02  0.1280296E+00
         21   -1    0    0  501  502  0.00000000000E+00  0.00000000000E+00  0.10205491009E+03  0.10205491009E+03  0.00000000000E+00 0. -1.
         21   -1    0    0  502  503 -0.00000000000E+00 -0.00000000000E+00 -0.49222533945E+03  0.49222533945E+03  0.00000000000E+00 0.  1.
          6    1    1    2  501    0 -0.65310975452E+01 -0.68498818298E+02 -0.29656677563E+02  0.18852920693E+03  0.17300000000E+03 0. -1.
         -6    1    1    2    0  503  0.65310975452E+01  0.68498818298E+02 -0.36051375179E+03  0.40575104260E+03  0.17300000000E+03 0.  1.
</event>
<event>
 4    1  0.6104111E+000  0.1000000E+03  0.7546771E-02  0.1280296E+00
         21   -1    0    0  501  502  0.00000000000E+00  0.00000000000E+00  0.19870491982E+03  0.19870491982E+03  0.00000000000E+00 0. -1.
         21   -1    0    0  502  503 -0.00000000000E+00 -0.00000000000E+00 -0.49046734631E+03  0.49046734631E+03  0.00000000000E+00 0.  1.
          6    1    1    2  501    0 -0.48765360293E+02 -0.91198413824E+02  0.11726237457E+03  0.23318378061E+03  0.17300000000E+03 0. -1.
         -6    1    1    2    0  503  0.48765360293E+02  0.91198413824E+02 -0.40902480105E+03  0.45598848552E+03  0.17300000000E+03 0.  1.
</event>
<event>
 4    1  0.6104111E+000  0.1000000E+03  0.7546771E-02  0.1280296E+00
         21   -1    0    0  501  502  0.00000000000E+00  0.00000000000E+00  0.16185745514E+03  0.16185745514E+03  0.00000000000E+00 0. -1.
         21   -1    0    0  502  503 -0.00000000000E+00 -0.00000000000E+00 -0.10402014142E+04  0.10402014142E+04  0.00000000000E+00 0.  1.
          6    1    1    2  501    0 -0.25331476969E+02 -0.51676408869E+02  0.99265966332E+02  0.20759303223E+03  0.17300000000E+03 0. -1.
         -6    1    1    2    0  503  0.25331476969E+02  0.51676408869E+02 -0.97760992542E+03  0.99446583714E+03  0.17300000000E+03 0.  1.
</event>
<event>
 4    1  0.6104111E+000  0.1000000E+03  0.7546771E-02  0.1280296E+00
         21   -1    0    0  503  502  0.00000000000E+00  0.00000000000E+00  0.80738892758E+03  0.80738892758E+03  0.00000000000E+00 0.  1.
         21   -1    0    0  501  503 -0.00000000000E+00 -0.00000000000E+00 -0.13533605237E+03  0.13533605237E+03  0.00000000000E+00 0. -1.
          6    1    1    2  501    0  0.79971390377E+02  0.10095277094E+03 -0.21183825627E+02  0.21671326611E+03  0.17300000000E+03 0.  1.
         -6    1    1    2    0  502 -0.79971390377E+02 -0.10095277094E+03  0.69323670084E+03  0.72601171384E+03  0.17300000000E+03 0. -1.
</event>
<event>
 4    1  0.6104111E+000  0.1000000E+03  0.7546771E-02  0.1280296E+00
         21   -1    0    0  503  502  0.00000000000E+00  0.00000000000E+00  0.48140282726E+03  0.48140282726E+03  0.00000000000E+00 0.  1.
         21   -1    0    0  501  503 -0.00000000000E+00 -0.00000000000E+00 -0.41721733404E+03  0.41721733404E+03  0.00000000000E+00 0. -1.
          6    1    1    2  501    0 -0.35741182067E+02  0.11269925483E+03 -0.36508081647E+03  0.42094127463E+03  0.17300000000E+03 0.  1.
         -6    1    1    2    0  502  0.35741182067E+02 -0.11269925483E+03  0.42926630969E+03  0.47767888667E+03  0.17300000000E+03 0. -1.
</event>
<event>
 4    1  0.6104111E+000  0.1000000E+03  0.7546771E-02  0.1280296E+00
         21   -1    0    0  503  502  0.00000000000E+00  0.00000000000E+00  0.23099727090E+03  0.23099727090E+03  0.00000000000E+00 0. -1.
         21   -1    0    0  501  503 -0.00000000000E+00 -0.00000000000E+00 -0.22474344882E+03  0.22474344882E+03  0.00000000000E+00 0.  1.
          6    1    1    2  501    0 -0.20262911752E+02 -0.63005215649E+02 -0.12957273624E+03  0.22604941223E+03  0.17300000000E+03 0.  1.
         -6    1    1    2    0  502  0.20262911752E+02  0.63005215649E+02  0.13582655832E+03  0.22969130749E+03  0.17300000000E+03 0. -1.
</event>
<event>
 4    1  0.6104111E+000  0.1000000E+03  0.7546771E-02  0.1280296E+00
         21   -1    0    0  503  502  0.00000000000E+00  0.00000000000E+00  0.29086637370E+03  0.29086637370E+03  0.00000000000E+00 0. -1.
         21   -1    0    0  501  503 -0.00000000000E+00 -0.00000000000E+00 -0.30807609912E+03  0.30807609912E+03  0.00000000000E+00 0.  1.
          6    1    1    2  501    0  0.13098362251E+03 -0.18546152824E+03 -0.98793584341E+02  0.30206267583E+03  0.17300000000E+03 0.  1.
         -6    1    1    2    0  502 -0.13098362251E+03  0.18546152824E+03  0.81583858918E+02  0.29687979699E+03  0.17300000000E+03 0. -1.
</event>
<event>
 4    1  0.6104111E+000  0.1000000E+03  0.7546771E-02  0.1280296E+00
         21   -1    0    0  501  502  0.00000000000E+00  0.00000000000E+00  0.55878035126E+03  0.55878035126E+03  0.00000000000E+00 0. -1.
         21   -1    0    0  502  503 -0.00000000000E+00 -0.00000000000E+00 -0.31722016280E+03  0.31722016280E+03  0.00000000000E+00 0. -1.
          6    1    1    2  501    0 -0.29159766789E+03  0.24429148213E+02  0.37919702108E+03  0.50925962337E+03  0.17300000000E+03 0. -1.
         -6    1    1    2    0  503  0.29159766789E+03 -0.24429148213E+02 -0.13763683263E+03  0.36674089068E+03  0.17300000000E+03 0. -1.
</event>
<event>
 4    1  0.6104111E+000  0.1000000E+03  0.7546771E-02  0.1280296E+00
         21   -1    0    0  501  502  0.00000000000E+00  0.00000000000E+00  0.28713819934E+03  0.28713819934E+03  0.00000000000E+00 0. -1.
         21   -1    0    0  502  503 -0.00000000000E+00 -0.00000000000E+00 -0.18054501543E+03  0.18054501543E+03  0.00000000000E+00 0. -1.
          6    1    1    2  501    0  0.72299267079E+02 -0.15537364057E+01  0.18594977147E+03  0.26407558696E+03  0.17300000000E+03 0. -1.
         -6    1    1    2    0  503 -0.72299267079E+02  0.15537364057E+01 -0.79356587554E+02  0.20360762782E+03  0.17300000000E+03 0. -1.
</event>
<event>
 4    1  0.6104111E+000  0.1000000E+03  0.7546771E-02  0.1280296E+00
         21   -1    0    0  501  502  0.00000000000E+00  0.00000000000E+00  0.21446780371E+03  0.21446780371E+03  0.00000000000E+00 0. -1.
         21   -1    0    0  502  503 -0.00000000000E+00 -0.00000000000E+00 -0.32056206067E+03  0.32056206067E+03  0.00000000000E+00 0. -1.
          6    1    1    2  501    0  0.14762812152E+03 -0.10875076709E+03  0.20528055608E+02  0.25292527093E+03  0.17300000000E+03 0. -1.
         -6    1    1    2    0  503 -0.14762812152E+03  0.10875076709E+03 -0.12662231257E+03  0.28210459345E+03  0.17300000000E+03 0. -1.
</event>
<event>
 4    1  0.6104111E+000  0.1000000E+03  0.7546771E-02  0.1280296E+00
         21   -1    0    0  501  502  0.00000000000E+00  0.00000000000E+00  0.55968621986E+02  0.55968621986E+02  0.00000000000E+00 0. -1.
         21   -1    0    0  502  503 -0.00000000000E+00 -0.00000000000E+00 -0.18857683995E+04  0.18857683995E+04  0.00000000000E+00 0. -1.
          6    1    1    2  501    0 -0.17699474395E+03  0.39792676534E+01 -0.28610654323E+03  0.37832384016E+03  0.17300000000E+03 0. -1.
         -6    1    1    2    0  503  0.17699474395E+03 -0.39792676534E+01 -0.15436932342E+04  0.15634131813E+04  0.17300000000E+03 0. -1.
</event>
<event>
 4    1  0.6104111E+000  0.1000000E+03  0.7546771E-02  0.1280296E+00
         21   -1    0    0  503  502  0.00000000000E+00  0.00000000000E+00  0.61778811737E+02  0.61778811737E+02  0.00000000000E+00 0.  1.
         21   -1    0    0  501  503 -0.00000000000E+00 -0.00000000000E+00 -0.70903183163E+03  0.70903183163E+03  0.00000000000E+00 0.  1.
          6    1    1    2  501    0  0.37405368106E+01 -0.11678297891E+03 -0.29619610423E+03  0.36237189176E+03  0.17300000000E+03 0.  1.
         -6    1    1    2    0  502 -0.37405368106E+01  0.11678297891E+03 -0.35105691566E+03  0.40843875161E+03  0.17300000000E+03 0.  1.
</event>
<event>
 4    1  0.6104111E+000  0.1000000E+03  0.7546771E-02  0.1280296E+00
         21   -1    0    0  501  502  0.00000000000E+00  0.00000000000E+00  0.94252954522E+02  0.94252954522E+02  0.00000000000E+00 0. -1.
         21   -1    0    0  502  503 -0.00000000000E+00 -0.00000000000E+00 -0.70641582214E+03  0.70641582214E+03  0.00000000000E+00 0. -1.
          6    1    1    2  501    0  0.51898996163E+02 -0.51392530624E+02 -0.31517955015E+02  0.19041291840E+03  0.17300000000E+03 0. -1.
         -6    1    1    2    0  503 -0.51898996163E+02  0.51392530624E+02 -0.58064491260E+03  0.61025585825E+03  0.17300000000E+03 0. -1.
</event>
<event>
 4    1  0.6104111E+000  0.1000000E+03  0.7546771E-02  0.1280296E+00
         21   -1    0    0  501  502  0.00000000000E+00  0.00000000000E+00  0.14971425261E+03  0.14971425261E+03  0.00000000000E+00 0. -1.
         21   -1    0    0  502  503 -0.00000000000E+00 -0.00000000000E+00 -0.39096788959E+03  0.39096788959E+03  0.00000000000E+00 0. -1.
          6    1    1    2  501    0 -0.95267996007E+02  0.11018196513E+03 -0.24579471638E+02  0.22748452020E+03  0.17300000000E+03 0. -1.
         -6    1    1    2    0  503  0.95267996007E+02 -0.11018196513E+03 -0.21667416535E+03  0.31319762201E+03  0.17300000000E+03 0. -1.
</event>
<event>
 4    1  0.6104111E+000  0.1000000E+03  0.7546771E-02  0.1280296E+00
         21   -1    0    0  503  502  0.00000000000E+00  0.00000000000E+00  0.58628326538E+03  0.58628326538E+03  0.00000000000E+00 0. -1.
         21   -1    0    0  501  503 -0.00000000000E+00 -0.00000000000E+00 -0.10638710158E+03  0.10638710158E+03  0.00000000000E+00 0. -1.
          6    1    1    2  501    0 -0.14160923566E+03  0.10297415728E+03  0.18132403513E+03  0.30571924769E+03  0.17300000000E+03 0. -1.
         -6    1    1    2    0  502  0.14160923566E+03 -0.10297415728E+03  0.29857212867E+03  0.38695111928E+03  0.17300000000E+03 0. -1.
</event>
<event>
 4    1  0.6104111E+000  0.1000000E+03  0.7546771E-02  0.1280296E+00
         21   -1    0    0  503  502  0.00000000000E+00  0.00000000000E+00  0.31614171805E+03  0.31614171805E+03  0.00000000000E+00 0. -1.
         21   -1    0    0  501  503 -0.00000000000E+00 -0.00000000000E+00 -0.13237541138E+03  0.13237541138E+03  0.00000000000E+00 0. -1.
          6    1    1    2  501    0  0.78589218935E+02 -0.65623908281E+02  0.50318168170E+02  0.20722857119E+03  0.17300000000E+03 0. -1.
         -6    1    1    2    0  502 -0.78589218935E+02  0.65623908281E+02  0.13344813850E+03  0.24128855825E+03  0.17300000000E+03 0. -1.
</event>
<event>
 4    1  0.6104111E+000  0.1000000E+03  0.7546771E-02  0.1280296E+00
         21   -1    0    0  501  502  0.00000000000E+00  0.00000000000E+00  0.91864121142E+03  0.91864121142E+03  0.00000000000E+00 0. -1.
         21   -1    0    0  502  503 -0.00000000000E+00 -0.00000000000E+00 -0.13658075822E+03  0.13658075822E+03  0.00000000000E+00 0.  1.
          6    1    1    2  501    0  0.60716776087E+02 -0.85545416277E+01  0.84228327435E+03  0.86204977891E+03  0.17300000000E+03 0.  1.
         -6    1    1    2    0  503 -0.60716776087E+02  0.85545416277E+01 -0.60222821149E+02  0.19317219072E+03  0.17300000000E+03 0.  1.
</event>
<event>
 4    1  0.6104111E+000  0.1000000E+03  0.7546771E-02  0.1280296E+00
         21   -1    0    0  501  502  0.00000000000E+00  0.00000000000E+00  0.14206870391E+04  0.14206870391E+04  0.00000000000E+00 0. -1.
         21   -1    0    0  502  503 -0.00000000000E+00 -0.00000000000E+00 -0.12224759583E+03  0.12224759583E+03  0.00000000000E+00 0.  1.
          6    1    1    2  501    0  0.24621564203E+03  0.28639845802E+03  0.71062627667E+03  0.82314331938E+03  0.17300000000E+03 0.  1.
         -6    1    1    2    0  503 -0.24621564203E+03 -0.28639845802E+03  0.58781316664E+03  0.71979131560E+03  0.17300000000E+03 0.  1.
</event>
<event>
 4    1  0.6104111E+000  0.1000000E+03  0.7546771E-02  0.1280296E+00
         21   -1    0    0  501  502  0.00000000000E+00  0.00000000000E+00  0.70182985077E+02  0.70182985077E+02  0.00000000000E+00 0.  1.
         21   -1    0    0  502  503 -0.00000000000E+00 -0.00000000000E+00 -0.52161501936E+03  0.52161501936E+03  0.00000000000E+00 0.  1.
          6    1    1    2  501    0 -0.70971406216E+02  0.82169003035E+01 -0.16434002950E+03  0.24908051559E+03  0.17300000000E+03 0.  1.
         -6    1    1    2    0  503  0.70971406216E+02 -0.82169003035E+01 -0.28709200478E+03  0.34271748884E+03  0.17300000000E+03 0.  1.
</event>
<event>
 4    1  0.6104111E+000  0.1000000E+03  0.7546771E-02  0.1280296E+00
         21   -1    0    0  501  502  0.00000000000E+00  0.00000000000E+00  0.56904696703E+02  0.56904696703E+02  0.00000000000E+00 0.  1.
         21   -1    0    0  502  503 -0.00000000000E+00 -0.00000000000E+00 -0.61676140265E+03  0.61676140265E+03  0.00000000000E+00 0.  1.
          6    1    1    2  501    0  0.70222036463E+02 -0.24761343385E+01 -0.30721692334E+03  0.35951147914E+03  0.17300000000E+03 0.  1.
         -6    1    1    2    0  503 -0.70222036463E+02  0.24761343385E+01 -0.25263978261E+03  0.31415462021E+03  0.17300000000E+03 0.  1.
</event>
<event>
 4    1  0.6104111E+000  0.1000000E+03  0.7546771E-02  0.1280296E+00
         21   -1    0    0  501  502  0.00000000000E+00  0.00000000000E+00  0.24820202237E+03  0.24820202237E+03  0.00000000000E+00 0.  1.
         21   -1    0    0  502  503 -0.00000000000E+00 -0.00000000000E+00 -0.59369117409E+03  0.59369117409E+03  0.00000000000E+00 0.  1.
          6    1    1    2  501    0 -0.18850179140E+03  0.79966855711E+02  0.12856564486E+03  0.29729740734E+03  0.17300000000E+03 0.  1.
         -6    1    1    2    0  503  0.18850179140E+03 -0.79966855711E+02 -0.47405479657E+03  0.54459578912E+03  0.17300000000E+03 0.  1.
</event>
<event>
 4    1  0.6104111E+000  0.1000000E+03  0.7546771E-02  0.1280296E+00
         21   -1    0    0  501  502  0.00000000000E+00  0.00000000000E+00  0.25279860703E+03  0.25279860703E+03  0.00000000000E+00 0.  1.
         21   -1    0    0  502  503 -0.00000000000E+00 -0.00000000000E+00 -0.17196909724E+03  0.17196909724E+03  0.00000000000E+00 0.  1.
          6    1    1    2  501    0 -0.61318755660E+01 -0.19327430878E+02  0.15714879454E+03  0.23459729987E+03  0.17300000000E+03 0.  1.
         -6    1    1    2    0  503  0.61318755660E+01  0.19327430878E+02 -0.76319284748E+02  0.19017040439E+03  0.17300000000E+03 0.  1.
</event>
<event>
 4    1  0.6104111E+000  0.1000000E+03  0.7546771E-02  0.1280296E+00
         21   -1    0    0  503  502  0.00000000000E+00  0.00000000000E+00  0.34150700938E+03  0.34150700938E+03  0.00000000000E+00 0.  1.
         21   -1    0    0  501  503 -0.00000000000E+00 -0.00000000000E+00 -0.32378044889E+03  0.32378044889E+03  0.00000000000E+00 0.  1.
          6    1    1    2  501    0 -0.27809713026E+03  0.42028429925E+02 -0.30392089367E+02  0.33159777122E+03  0.17300000000E+03 0.  1.
         -6    1    1    2    0  502  0.27809713026E+03 -0.42028429925E+02  0.48118649850E+02  0.33368968705E+03  0.17300000000E+03 0.  1.
</event>
<event>
 4    1  0.6104111E+000  0.1000000E+03  0.7546771E-02  0.1280296E+00
         21   -1    0    0  503  502  0.00000000000E+00  0.00000000000E+00  0.14800558516E+04  0.14800558516E+04  0.00000000000E+00 0. -1.
         21   -1    0    0  501  503 -0.00000000000E+00 -0.00000000000E+00 -0.18037706966E+03  0.18037706966E+03  0.00000000000E+00 0.  1.
          6    1    1    2  501    0  0.34490186193E+03 -0.66247220085E+02  0.10805215200E+03  0.40614068509E+03  0.17300000000E+03 0.  1.
         -6    1    1    2    0  502 -0.34490186193E+03  0.66247220085E+02  0.11916266299E+04  0.12542922361E+04  0.17300000000E+03 0. -1.
</event>
<event>
 4    1  0.6104111E+000  0.1000000E+03  0.7546771E-02  0.1280296E+00
         21   -1    0    0  503  502  0.00000000000E+00  0.00000000000E+00  0.49666384575E+03  0.49666384575E+03  0.00000000000E+00 0. -1.
         21   -1    0    0  501  503 -0.00000000000E+00 -0.00000000000E+00 -0.20902037994E+03  0.20902037994E+03  0.00000000000E+00 0.  1.
          6    1    1    2  501    0  0.39957299884E+02 -0.91268088066E+01 -0.15044108977E+03  0.23289784444E+03  0.17300000000E+03 0.  1.
         -6    1    1    2    0  502 -0.39957299884E+02  0.91268088066E+01  0.43808455558E+03  0.47278638125E+03  0.17300000000E+03 0. -1.
</event>
<event>
 4    1  0.6104111E+000  0.1000000E+03  0.7546771E-02  0.1280296E+00
         21   -1    0    0  503  502  0.00000000000E+00  0.00000000000E+00  0.42703321955E+02  0.42703321955E+02  0.00000000000E+00 0. -1.
         21   -1    0    0  501  503 -0.00000000000E+00 -0.00000000000E+00 -0.11732339379E+04  0.11732339379E+04  0.00000000000E+00 0.  1.
          6    1    1    2  501    0 -0.24085718281E+02 -0.10799061917E+03 -0.80714067358E+03  0.83285482684E+03  0.17300000000E+03 0.  1.
         -6    1    1    2    0  502  0.24085718281E+02  0.10799061917E+03 -0.32338994235E+03  0.38308243299E+03  0.17300000000E+03 0. -1.
</event>
<event>
 4    1  0.6104111E+000  0.1000000E+03  0.7546771E-02  0.1280296E+00
         21   -1    0    0  503  502  0.00000000000E+00  0.00000000000E+00  0.23037760442E+03  0.23037760442E+03  0.00000000000E+00 0. -1.
         21   -1    0    0  501  503 -0.00000000000E+00 -0.00000000000E+00 -0.18336458540E+03  0.18336458540E+03  0.00000000000E+00 0.  1.
          6    1    1    2  501    0  0.35256824549E+02  0.40681845043E+01 -0.82319277748E+02  0.19484624013E+03  0.17300000000E+03 0.  1.
         -6    1    1    2    0  502 -0.35256824549E+02 -0.40681845043E+01  0.12933229678E+03  0.21889594969E+03  0.17300000000E+03 0. -1.
</event>
<event>
 4    1  0.6104111E+000  0.1000000E+03  0.7546771E-02  0.1280296E+00
         21   -1    0    0  503  502  0.00000000000E+00  0.00000000000E+00  0.69831391327E+02  0.69831391327E+02  0.00000000000E+00 0. -1.
         21   -1    0    0  501  503 -0.00000000000E+00 -0.00000000000E+00 -0.92365549518E+03  0.92365549518E+03  0.00000000000E+00 0.  1.
          6    1    1    2  501    0  0.15150663316E+03  0.10762940635E+03 -0.41571034271E+03  0.48711645223E+03  0.17300000000E+03 0.  1.
         -6    1    1    2    0  502 -0.15150663316E+03 -0.10762940635E+03 -0.43811376114E+03  0.50637043427E+03  0.17300000000E+03 0. -1.
</event>
<event>
 4    1  0.6104111E+000  0.1000000E+03  0.7546771E-02  0.1280296E+00
         21   -1    0    0  503  502  0.00000000000E+00  0.00000000000E+00  0.48072009677E+03  0.48072009677E+03  0.00000000000E+00 0.  1.
         21   -1    0    0  501  503 -0.00000000000E+00 -0.00000000000E+00 -0.23723548988E+03  0.23723548988E+03  0.00000000000E+00 0.  1.
          6    1    1    2  501    0  0.21547001122E+03 -0.18476993518E+03  0.58428306349E+02  0.33750573575E+03  0.17300000000E+03 0.  1.
         -6    1    1    2    0  502 -0.21547001122E+03  0.18476993518E+03  0.18505630054E+03  0.38044985090E+03  0.17300000000E+03 0.  1.
</event>
<event>
 4    1  0.6104111E+000  0.1000000E+03  0.7546771E-02  0.1280296E+00
         21   -1    0    0  501  502  0.00000000000E+00  0.00000000000E+00  0.34851848178E+03  0.34851848178E+03  0.00000000000E+00 0. -1.
         21   -1    0    0  502  503 -0.00000000000E+00 -0.00000000000E+00 -0.13464602601E+03  0.13464602601E+03  0.00000000000E+00 0. -1.
          6    1    1    2  501    0  0.11425078139E+03 -0.32217122995E+02  0.16705863627E+03  0.26819539895E+03  0.17300000000E+03 0. -1.
         -6    1    1    2    0  503 -0.11425078139E+03  0.32217122995E+02  0.46813819504E+02  0.21496910885E+03  0.17300000000E+03 0. -1.
</event>
<event>
 4    1  0.6104111E+000  0.1000000E+03  0.7546771E-02  0.1280296E+00
         21   -1    0    0  501  502  0.00000000000E+00  0.00000000000E+00  0.23417485302E+02  0.23417485302E+02  0.00000000000E+00 0. -1.
         21   -1    0    0  502  503 -0.00000000000E+00 -0.00000000000E+00 -0.18141555736E+04  0.18141555736E+04  0.00000000000E+00 0. -1.
          6    1    1    2  501    0 -0.10155604391E+03 -0.69843900045E+01 -0.68668805257E+03  0.71542427503E+03  0.17300000000E+03 0. -1.
         -6    1    1    2    0  503  0.10155604391E+03  0.69843900045E+01 -0.11040500358E+04  0.11221487839E+04  0.17300000000E+03 0. -1.
</event>
<event>
 4    1  0.6104111E+000  0.1000000E+03  0.7546771E-02  0.1280296E+00
         21   -1    0    0  503  502  0.00000000000E+00  0.00000000000E+00  0.21896227844E+03  0.21896227844E+03  0.00000000000E+00 0. -1.
         21   -1    0    0  501  503 -0.00000000000E+00 -0.00000000000E+00 -0.22191774001E+04  0.22191774001E+04  0.00000000000E+00 0.  1.
          6    1    1    2  501    0 -0.53083369102E+02  0.76360381539E+02 -0.21697847179E+04  0.21786563460E+04  0.17300000000E+03 0.  1.
         -6    1    1    2    0  502  0.53083369102E+02 -0.76360381539E+02  0.16956959618E+03  0.25948333259E+03  0.17300000000E+03 0. -1.
</event>
<event>
 4    1  0.6104111E+000  0.1000000E+03  0.7546771E-02  0.1280296E+00
         21   -1    0    0  503  502  0.00000000000E+00  0.00000000000E+00  0.13719908083E+03  0.13719908083E+03  0.00000000000E+00 0.  1.
         21   -1    0    0  501  503 -0.00000000000E+00 -0.00000000000E+00 -0.12864208792E+04  0.12864208792E+04  0.00000000000E+00 0.  1.
          6    1    1    2  501    0 -0.18523947871E+03 -0.16633902423E+03 -0.10673784902E+04  0.11095982051E+04  0.17300000000E+03 0.  1.
         -6    1    1    2    0  502  0.18523947871E+03  0.16633902423E+03 -0.81843308135E+02  0.31402175488E+03  0.17300000000E+03 0.  1.
</event>
<event>
 4    1  0.6104111E+000  0.1000000E+03  0.7546771E-02  0.1280296E+00
         21   -1    0    0  503  502  0.00000000000E+00  0.00000000000E+00  0.30664262875E+02  0.30664262875E+02  0.00000000000E+00 0.  1.
         21   -1    0    0  501  503 -0.00000000000E+00 -0.00000000000E+00 -0.14879322702E+04  0.14879322702E+04  0.00000000000E+00 0.  1.
          6    1    1    2  501    0 -0.10286709230E+02 -0.61725380708E+02 -0.11144719968E+04  0.11295541911E+04  0.17300000000E+03 0.  1.
         -6    1    1    2    0  502  0.10286709230E+02  0.61725380708E+02 -0.34279601055E+03  0.38904234199E+03  0.17300000000E+03 0.  1.
</event>
<event>
 4    1  0.6104111E+000  0.1000000E+03  0.7546771E-02  0.1280296E+00
         21   -1    0    0  503  502  0.00000000000E+00  0.00000000000E+00  0.17150819947E+04  0.17150819947E+04  0.00000000000E+00 0.  1.
         21   -1    0    0  501  503 -0.00000000000E+00 -0.00000000000E+00 -0.27114360426E+02  0.27114360426E+02  0.00000000000E+00 0.  1.
          6    1    1    2  501    0 -0.31388525708E+02  0.39587558316E+02  0.13223153211E+04  0.13345408284E+04  0.17300000000E+03 0.  1.
         -6    1    1    2    0  502  0.31388525708E+02 -0.39587558316E+02  0.36565231318E+03  0.40765552670E+03  0.17300000000E+03 0.  1.
</event>
<event>
 4    1  0.6104111E+000  0.1000000E+03  0.7546771E-02  0.1280296E+00
         21   -1    0    0  503  502  0.00000000000E+00  0.00000000000E+00  0.78114513268E+02  0.78114513268E+02  0.00000000000E+00 0.  1.
         21   -1    0    0  501  503 -0.00000000000E+00 -0.00000000000E+00 -0.52456090153E+03  0.52456090153E+03  0.00000000000E+00 0.  1.
          6    1    1    2  501    0 -0.31223685736E+02 -0.56631942713E+02 -0.99883974386E+02  0.20997119761E+03  0.17300000000E+03 0.  1.
         -6    1    1    2    0  502  0.31223685736E+02  0.56631942713E+02 -0.34656241387E+03  0.39270421719E+03  0.17300000000E+03 0.  1.
</event>
<event>
 4    1  0.6104111E+000  0.1000000E+03  0.7546771E-02  0.1280296E+00
         21   -1    0    0  503  502  0.00000000000E+00  0.00000000000E+00  0.13425673897E+03  0.13425673897E+03  0.00000000000E+00 0.  1.
         21   -1    0    0  501  503 -0.00000000000E+00 -0.00000000000E+00 -0.14074130962E+04  0.14074130962E+04  0.00000000000E+00 0.  1.
          6    1    1    2  501    0  0.13437283145E+03  0.35147990353E+03 -0.40245194905E+03  0.57748658141E+03  0.17300000000E+03 0.  1.
         -6    1    1    2    0  502 -0.13437283145E+03 -0.35147990353E+03 -0.87070440814E+03  0.96418325372E+03  0.17300000000E+03 0.  1.
</event>
<event>
 4    1  0.6104111E+000  0.1000000E+03  0.7546771E-02  0.1280296E+00
         21   -1    0    0  501  502  0.00000000000E+00  0.00000000000E+00  0.19529360716E+04  0.19529360716E+04  0.00000000000E+00 0.  1.
         21   -1    0    0  502  503 -0.00000000000E+00 -0.00000000000E+00 -0.52857504376E+02  0.52857504376E+02  0.00000000000E+00 0. -1.
          6    1    1    2  501    0 -0.11279090209E+02 -0.17618575409E+03  0.15907367799E+04  0.16098264319E+04  0.17300000000E+03 0.  1.
         -6    1    1    2    0  503  0.11279090209E+02  0.17618575409E+03  0.30934178729E+03  0.39596714407E+03  0.17300000000E+03 0. -1.
</event>
<event>
 4    1  0.6104111E+000  0.1000000E+03  0.7546771E-02  0.1280296E+00
         21   -1    0    0  501  502  0.00000000000E+00  0.00000000000E+00  0.18000179871E+03  0.18000179871E+03  0.00000000000E+00 0.  1.
         21   -1    0    0  502  503 -0.00000000000E+00 -0.00000000000E+00 -0.23905801786E+03  0.23905801786E+03  0.00000000000E+00 0. -1.
          6    1    1    2  501    0 -0.33910657522E+02 -0.10519459101E+03 -0.59594566261E+02  0.21376703908E+03  0.17300000000E+03 0.  1.
         -6    1    1    2    0  503  0.33910657522E+02  0.10519459101E+03  0.53834710812E+00  0.20529277749E+03  0.17300000000E+03 0. -1.
</event>
<event>
 4    1  0.6104111E+000  0.1000000E+03  0.7546771E-02  0.1280296E+00
         21   -1    0    0  501  502  0.00000000000E+00  0.00000000000E+00  0.51720530129E+02  0.51720530129E+02  0.00000000000E+00 0. -1.
         21   -1    0    0  502  503 -0.00000000000E+00 -0.00000000000E+00 -0.81913063532E+03  0.81913063532E+03  0.00000000000E+00 0. -1.
          6    1    1    2  501    0  0.25021626492E+02  0.66046753540E+02 -0.20112907083E+03  0.27453626095E+03  0.17300000000E+03 0. -1.
         -6    1    1    2    0  503 -0.25021626492E+02 -0.66046753540E+02 -0.56628103436E+03  0.59631490450E+03  0.17300000000E+03 0. -1.
</event>
<event>
 4    1  0.6104111E+000  0.1000000E+03  0.7546771E-02  0.1280296E+00
         21   -1    0    0  501  502  0.00000000000E+00  0.00000000000E+00  0.21836268110E+03  0.21836268110E+03  0.00000000000E+00 0. -1.
         21   -1    0    0  502  503 -0.00000000000E+00 -0.00000000000E+00 -0.18906127386E+04  0.18906127386E+04  0.00000000000E+00 0. -1.
          6    1    1    2  501    0  0.39175844535E+02  0.58639567764E+03 -0.51824946791E+03  0.80243762907E+03  0.17300000000E+03 0. -1.
         -6    1    1    2    0  503 -0.39175844535E+02 -0.58639567764E+03 -0.11540005896E+04  0.13065377906E+04  0.17300000000E+03 0. -1.
</event>
<event>
 4    1  0.6104111E+000  0.1000000E+03  0.7546771E-02  0.1280296E+00
         21   -1    0    0  501  502  0.00000000000E+00  0.00000000000E+00  0.72364953454E+02  0.72364953454E+02  0.00000000000E+00 0. -1.
         21   -1    0    0  502  503 -0.00000000000E+00 -0.00000000000E+00 -0.12029846560E+04  0.12029846560E+04  0.00000000000E+00 0. -1.
          6    1    1    2  501    0  0.26004602665E+02  0.40018195030E+01 -0.51892682193E+02  0.18252151759E+03  0.17300000000E+03 0. -1.
         -6    1    1    2    0  503 -0.26004602665E+02 -0.40018195030E+01 -0.10787270203E+04  0.10928280918E+04  0.17300000000E+03 0. -1.
</event>
<event>
 4    1  0.6104111E+000  0.1000000E+03  0.7546771E-02  0.1280296E+00
         21   -1    0    0  503  502  0.00000000000E+00  0.00000000000E+00  0.16257290921E+04  0.16257290921E+04  0.00000000000E+00 0.  1.
         21   -1    0    0  501  503 -0.00000000000E+00 -0.00000000000E+00 -0.42029863934E+02  0.42029863934E+02  0.00000000000E+00 0.  1.
          6    1    1    2  501    0  0.11118207092E+03  0.15845153893E+02  0.27957115448E+03  0.34742128924E+03  0.17300000000E+03 0.  1.
         -6    1    1    2    0  502 -0.11118207092E+03 -0.15845153893E+02  0.13041280737E+04  0.13203376668E+04  0.17300000000E+03 0.  1.
</event>
<event>
 4    1  0.6104111E+000  0.1000000E+03  0.7546771E-02  0.1280296E+00
         21   -1    0    0  503  502  0.00000000000E+00  0.00000000000E+00  0.96047715162E+03  0.96047715162E+03  0.00000000000E+00 0.  1.
         21   -1    0    0  501  503 -0.00000000000E+00 -0.00000000000E+00 -0.68804951063E+02  0.68804951063E+02  0.00000000000E+00 0.  1.
          6    1    1    2  501    0  0.66909300974E+02  0.56999185732E+01  0.89697555144E+02  0.20611645987E+03  0.17300000000E+03 0.  1.
         -6    1    1    2    0  502 -0.66909300974E+02 -0.56999185732E+01  0.80197464542E+03  0.82316564282E+03  0.17300000000E+03 0.  1.
</event>
<event>
 4    1  0.6104111E+000  0.1000000E+03  0.7546771E-02  0.1280296E+00
         21   -1    0    0  503  502  0.00000000000E+00  0.00000000000E+00  0.10115792272E+04  0.10115792272E+04  0.00000000000E+00 0. -1.
         21   -1    0    0  501  503 -0.00000000000E+00 -0.00000000000E+00 -0.48353051367E+02  0.48353051367E+02  0.00000000000E+00 0. -1.
          6    1    1    2  501    0 -0.10211255356E+03  0.76989343820E+02  0.35873289826E+03  0.41829729254E+03  0.17300000000E+03 0. -1.
         -6    1    1    2    0  502  0.10211255356E+03 -0.76989343820E+02  0.60449327753E+03  0.64163498598E+03  0.17300000000E+03 0. -1.
</event>
<event>
 4    1  0.6104111E+000  0.1000000E+03  0.7546771E-02  0.1280296E+00
         21   -1    0    0  503  502  0.00000000000E+00  0.00000000000E+00  0.19395204964E+03  0.19395204964E+03  0.00000000000E+00 0. -1.
         21   -1    0    0  501  503 -0.00000000000E+00 -0.00000000000E+00 -0.34862875362E+03  0.34862875362E+03  0.00000000000E+00 0. -1.
          6    1    1    2  501    0 -0.71178777598E+01  0.39864652101E+00 -0.27974075670E+03  0.32899044677E+03  0.17300000000E+03 0. -1.
         -6    1    1    2    0  502  0.71178777598E+01 -0.39864652101E+00  0.12506405272E+03  0.21359035649E+03  0.17300000000E+03 0. -1.
</event>
<event>
 4    1  0.6104111E+000  0.1000000E+03  0.7546771E-02  0.1280296E+00
         21   -1    0    0  501  502  0.00000000000E+00  0.00000000000E+00  0.93054785336E+03  0.93054785336E+03  0.00000000000E+00 0.  1.
         21   -1    0    0  502  503 -0.00000000000E+00 -0.00000000000E+00 -0.40384041835E+02  0.40384041835E+02  0.00000000000E+00 0.  1.
          6    1    1    2  501    0 -0.58916126726E+01 -0.76566430536E+02  0.54993821448E+03  0.58159966397E+03  0.17300000000E+03 0.  1.
         -6    1    1    2    0  503  0.58916126726E+01  0.76566430536E+02  0.34022559704E+03  0.38933223122E+03  0.17300000000E+03 0.  1.
</event>
<event>
 4    1  0.6104111E+000  0.1000000E+03  0.7546771E-02  0.1280296E+00
         21   -1    0    0  501  502  0.00000000000E+00  0.00000000000E+00  0.22280406022E+03  0.22280406022E+03  0.00000000000E+00 0.  1.
         21   -1    0    0  502  503 -0.00000000000E+00 -0.00000000000E+00 -0.18994477662E+03  0.18994477662E+03  0.00000000000E+00 0.  1.
          6    1    1    2  501    0 -0.41921715429E+02 -0.10310566008E+03  0.18240960502E+02  0.20651861903E+03  0.17300000000E+03 0.  1.
         -6    1    1    2    0  503  0.41921715429E+02  0.10310566008E+03  0.14618323096E+02  0.20623021780E+03  0.17300000000E+03 0.  1.
</event>
<event>
 4    1  0.6104111E+000  0.1000000E+03  0.7546771E-02  0.1280296E+00
         21   -1    0    0  501  502  0.00000000000E+00  0.00000000000E+00  0.70014080121E+02  0.70014080121E+02  0.00000000000E+00 0.  1.
         21   -1    0    0  502  503 -0.00000000000E+00 -0.00000000000E+00 -0.52945565184E+03  0.52945565184E+03  0.00000000000E+00 0.  1.
          6    1    1    2  501    0 -0.31339842618E+02 -0.30769259752E+02 -0.11733595316E+03  0.21360163620E+03  0.17300000000E+03 0.  1.
         -6    1    1    2    0  503  0.31339842618E+02  0.30769259752E+02 -0.34210561856E+03  0.38586809577E+03  0.17300000000E+03 0.  1.
</event>
<event>
 4    1  0.6104111E+000  0.1000000E+03  0.7546771E-02  0.1280296E+00
         21   -1    0    0  501  502  0.00000000000E+00  0.00000000000E+00  0.14606166336E+04  0.14606166336E+04  0.00000000000E+00 0.  1.
         21   -1    0    0  502  503 -0.00000000000E+00 -0.00000000000E+00 -0.13823205832E+03  0.13823205832E+03  0.00000000000E+00 0. -1.
          6    1    1    2  501    0  0.26158756256E+03 -0.29428980860E+03  0.42962992845E+03  0.60790247553E+03  0.17300000000E+03 0. -1.
         -6    1    1    2    0  503 -0.26158756256E+03  0.29428980860E+03  0.89275464686E+03  0.99094621641E+03  0.17300000000E+03 0.  1.
</event>
<event>
 4    1  0.6104111E+000  0.1000000E+03  0.7546771E-02  0.1280296E+00
         21   -1    0    0  501  502  0.00000000000E+00  0.00000000000E+00  0.14843532803E+04  0.14843532803E+04  0.00000000000E+00 0.  1.
         21   -1    0    0  502  503 -0.00000000000E+00 -0.00000000000E+00 -0.82069109137E+02  0.82069109137E+02  0.00000000000E+00 0. -1.
          6    1    1    2  501    0  0.10511600315E+03 -0.11698457629E+03  0.12826586730E+04  0.13037933259E+04  0.17300000000E+03 0. -1.
         -6    1    1    2    0  503 -0.10511600315E+03  0.11698457629E+03  0.11962549816E+03  0.26262906354E+03  0.17300000000E+03 0.  1.
</event>
<event>
 4    1  0.6104111E+000  0.1000000E+03  0.7546771E-02  0.1280296E+00
         21   -1    0    0  503  502  0.00000000000E+00  0.00000000000E+00  0.10919716942E+04  0.10919716942E+04  0.00000000000E+00 0. -1.
         21   -1    0    0  501  503 -0.00000000000E+00 -0.00000000000E+00 -0.14225517331E+03  0.14225517331E+03  0.00000000000E+00 0. -1.
          6    1    1    2  501    0 -0.33881366455E+02  0.17456777722E+03 -0.46525171975E+01  0.24813806994E+03  0.17300000000E+03 0.  1.
         -6    1    1    2    0  502  0.33881366455E+02 -0.17456777722E+03  0.95436903812E+03  0.98608879760E+03  0.17300000000E+03 0.  1.
</event>
<event>
 4    1  0.6104111E+000  0.1000000E+03  0.7546771E-02  0.1280296E+00
         21   -1    0    0  501  502  0.00000000000E+00  0.00000000000E+00  0.11297664440E+04  0.11297664440E+04  0.00000000000E+00 0.  1.
         21   -1    0    0  502  503 -0.00000000000E+00 -0.00000000000E+00 -0.63500763455E+02  0.63500763455E+02  0.00000000000E+00 0.  1.
          6    1    1    2  501    0  0.11008323233E+03  0.16803858530E+03  0.61815185089E+03  0.67260389157E+03  0.17300000000E+03 0.  1.
         -6    1    1    2    0  503 -0.11008323233E+03 -0.16803858530E+03  0.44811382968E+03  0.52066331592E+03  0.17300000000E+03 0.  1.
</event>
<event>
 4    1  0.6104111E+000  0.1000000E+03  0.7546771E-02  0.1280296E+00
         21   -1    0    0  503  502  0.00000000000E+00  0.00000000000E+00  0.77454630811E+03  0.77454630811E+03  0.00000000000E+00 0.  1.
         21   -1    0    0  501  503 -0.00000000000E+00 -0.00000000000E+00 -0.50979613867E+02  0.50979613867E+02  0.00000000000E+00 0.  1.
          6    1    1    2  501    0 -0.63393793346E+01  0.39423202758E+02  0.17642643046E+03  0.25029914505E+03  0.17300000000E+03 0.  1.
         -6    1    1    2    0  502  0.63393793346E+01 -0.39423202758E+02  0.54714026378E+03  0.57522677693E+03  0.17300000000E+03 0.  1.
</event>
<event>
 4    1  0.6104111E+000  0.1000000E+03  0.7546771E-02  0.1280296E+00
         21   -1    0    0  503  502  0.00000000000E+00  0.00000000000E+00  0.12368052661E+03  0.12368052661E+03  0.00000000000E+00 0.  1.
         21   -1    0    0  501  503 -0.00000000000E+00 -0.00000000000E+00 -0.54103708152E+03  0.54103708152E+03  0.00000000000E+00 0.  1.
          6    1    1    2  501    0  0.85563999472E+01  0.74514775956E+02 -0.43620822403E+03  0.47521813783E+03  0.17300000000E+03 0.  1.
         -6    1    1    2    0  502 -0.85563999472E+01 -0.74514775956E+02  0.18851669114E+02  0.18949947030E+03  0.17300000000E+03 0.  1.
</event>
<event>
 4    1  0.6104111E+000  0.1000000E+03  0.7546771E-02  0.1280296E+00
         21   -1    0    0  503  502  0.00000000000E+00  0.00000000000E+00  0.61048710870E+03  0.61048710870E+03  0.00000000000E+00 0. -1.
         21   -1    0    0  501  503 -0.00000000000E+00 -0.00000000000E+00 -0.98729456183E+02  0.98729456183E+02  0.00000000000E+00 0.  1.
          6    1    1    2  501    0  0.92099024893E+02  0.82871573862E+02  0.43274627864E+03  0.48223258892E+03  0.17300000000E+03 0. -1.
         -6    1    1    2    0  502 -0.92099024893E+02 -0.82871573862E+02  0.79011373872E+02  0.22698397596E+03  0.17300000000E+03 0.  1.
</event>
<event>
 4    1  0.6104111E+000  0.1000000E+03  0.7546771E-02  0.1280296E+00
         21   -1    0    0  501  502  0.00000000000E+00  0.00000000000E+00  0.12738368014E+03  0.12738368014E+03  0.00000000000E+00 0. -1.
         21   -1    0    0  502  503 -0.00000000000E+00 -0.00000000000E+00 -0.72890891391E+03  0.72890891391E+03  0.00000000000E+00 0. -1.
          6    1    1    2  501    0  0.66157776715E+02 -0.24692196557E+02  0.37435519563E+02  0.19057012913E+03  0.17300000000E+03 0. -1.
         -6    1    1    2    0  503 -0.66157776715E+02  0.24692196557E+02 -0.63896075334E+03  0.66572246492E+03  0.17300000000E+03 0. -1.
</event>
<event>
 4    1  0.6104111E+000  0.1000000E+03  0.7546771E-02  0.1280296E+00
         21   -1    0    0  501  502  0.00000000000E+00  0.00000000000E+00  0.24945399176E+03  0.24945399176E+03  0.00000000000E+00 0. -1.
         21   -1    0    0  502  503 -0.00000000000E+00 -0.00000000000E+00 -0.44456287320E+03  0.44456287320E+03  0.00000000000E+00 0. -1.
          6    1    1    2  501    0  0.71437940940E+02  0.38476281705E+02  0.18664381778E+03  0.26711180875E+03  0.17300000000E+03 0. -1.
         -6    1    1    2    0  503 -0.71437940940E+02 -0.38476281705E+02 -0.38175269922E+03  0.42690505621E+03  0.17300000000E+03 0. -1.
</event>
<event>
 4    1  0.6104111E+000  0.1000000E+03  0.7546771E-02  0.1280296E+00
         21   -1    0    0  501  502  0.00000000000E+00  0.00000000000E+00  0.64147869416E+03  0.64147869416E+03  0.00000000000E+00 0.  1.
         21   -1    0    0  502  503 -0.00000000000E+00 -0.00000000000E+00 -0.81039390804E+02  0.81039390804E+02  0.00000000000E+00 0.  1.
          6    1    1    2  501    0  0.35380237363E+02 -0.14411829078E+03  0.27095369224E+03  0.35407166827E+03  0.17300000000E+03 0.  1.
         -6    1    1    2    0  503 -0.35380237363E+02  0.14411829078E+03  0.28948561112E+03  0.36844641670E+03  0.17300000000E+03 0.  1.
</event>
<event>
 4    1  0.6104111E+000  0.1000000E+03  0.7546771E-02  0.1280296E+00
         21   -1    0    0  501  502  0.00000000000E+00  0.00000000000E+00  0.43584229138E+03  0.43584229138E+03  0.00000000000E+00 0.  1.
         21   -1    0    0  502  503 -0.00000000000E+00 -0.00000000000E+00 -0.79199263821E+02  0.79199263821E+02  0.00000000000E+00 0.  1.
          6    1    1    2  501    0  0.28162721453E+02  0.90729214701E+01  0.26279180324E+03  0.31601263999E+03  0.17300000000E+03 0.  1.
         -6    1    1    2    0  503 -0.28162721453E+02 -0.90729214701E+01  0.93851224320E+02  0.19902891521E+03  0.17300000000E+03 0.  1.
</event>
<event>
 4    1  0.6104111E+000  0.1000000E+03  0.7546771E-02  0.1280296E+00
         21   -1    0    0  501  502  0.00000000000E+00  0.00000000000E+00  0.21104619895E+03  0.21104619895E+03  0.00000000000E+00 0.  1.
         21   -1    0    0  502  503 -0.00000000000E+00 -0.00000000000E+00 -0.44319594898E+03  0.44319594898E+03  0.00000000000E+00 0.  1.
          6    1    1    2  501    0  0.86251072019E+02  0.23699158612E+03 -0.11473846952E+03  0.32664686697E+03  0.17300000000E+03 0.  1.
         -6    1    1    2    0  503 -0.86251072019E+02 -0.23699158612E+03 -0.11741128051E+03  0.32759528096E+03  0.17300000000E+03 0.  1.
</event>
<event>
 4    1  0.6104111E+000  0.1000000E+03  0.7546771E-02  0.1280296E+00
         21   -1    0    0  501  502  0.00000000000E+00  0.00000000000E+00  0.17323431611E+03  0.17323431611E+03  0.00000000000E+00 0.  1.
         21   -1    0    0  502  503 -0.00000000000E+00 -0.00000000000E+00 -0.19771080640E+03  0.19771080640E+03  0.00000000000E+00 0.  1.
          6    1    1    2  501    0  0.98287876826E+01 -0.38489974857E+01  0.52787027172E+02  0.18118192539E+03  0.17300000000E+03 0.  1.
         -6    1    1    2    0  503 -0.98287876826E+01  0.38489974857E+01 -0.77263517462E+02  0.18976319712E+03  0.17300000000E+03 0.  1.
</event>
<event>
 4    1  0.6104111E+000  0.1000000E+03  0.7546771E-02  0.1280296E+00
         21   -1    0    0  503  502  0.00000000000E+00  0.00000000000E+00  0.58320332992E+03  0.58320332992E+03  0.00000000000E+00 0.  1.
         21   -1    0    0  501  503 -0.00000000000E+00 -0.00000000000E+00 -0.30522788468E+03  0.30522788468E+03  0.00000000000E+00 0.  1.
          6    1    1    2  501    0  0.69395061012E+02  0.88603272219E+01 -0.25941574630E+03  0.31956174570E+03  0.17300000000E+03 0.  1.
         -6    1    1    2    0  502 -0.69395061012E+02 -0.88603272219E+01  0.53739119154E+03  0.56886946889E+03  0.17300000000E+03 0.  1.
</event>
<event>
 4    1  0.6104111E+000  0.1000000E+03  0.7546771E-02  0.1280296E+00
         21   -1    0    0  503  502  0.00000000000E+00  0.00000000000E+00  0.18269804077E+03  0.18269804077E+03  0.00000000000E+00 0.  1.
         21   -1    0    0  501  503 -0.00000000000E+00 -0.00000000000E+00 -0.45854610479E+03  0.45854610479E+03  0.00000000000E+00 0.  1.
          6    1    1    2  501    0 -0.51990466730E+02 -0.19364923314E+03 -0.26731290315E+03  0.37628210470E+03  0.17300000000E+03 0.  1.
         -6    1    1    2    0  502  0.51990466730E+02  0.19364923314E+03 -0.85351608773E+01  0.26496204086E+03  0.17300000000E+03 0.  1.
</event>
<event>
 4    1  0.6104111E+000  0.1000000E+03  0.7546771E-02  0.1280296E+00
         21   -1    0    0  503  502  0.00000000000E+00  0.00000000000E+00  0.22803442468E+03  0.22803442468E+03  0.00000000000E+00 0.  1.
         21   -1    0    0  501  503 -0.00000000000E+00 -0.00000000000E+00 -0.17114055494E+03  0.17114055494E+03  0.00000000000E+00 0. -1.
          6    1    1    2  501    0 -0.80315258328E+00 -0.89765555528E+02  0.61004125433E+02  0.20422782213E+03  0.17300000000E+03 0. -1.
         -6    1    1    2    0  502  0.80315258328E+00  0.89765555528E+02 -0.41102556935E+01  0.19494715749E+03  0.17300000000E+03 0.  1.
</event>
<event>
 4    1  0.6104111E+000  0.1000000E+03  0.7546771E-02  0.1280296E+00
         21   -1    0    0  503  502  0.00000000000E+00  0.00000000000E+00  0.12932779735E+03  0.12932779735E+03  0.00000000000E+00 0.  1.
         21   -1    0    0  501  503 -0.00000000000E+00 -0.00000000000E+00 -0.52909191929E+03  0.52909191929E+03  0.00000000000E+00 0. -1.
          6    1    1    2  501    0  0.45557115094E+02 -0.10071546742E+03 -0.40389580906E+03  0.45307822800E+03  0.17300000000E+03 0. -1.
         -6    1    1    2    0  502 -0.45557115094E+02  0.10071546742E+03  0.41316871224E+01  0.20534148863E+03  0.17300000000E+03 0.  1.
</event>
<event>
 4    1  0.6104111E+000  0.1000000E+03  0.7546771E-02  0.1280296E+00
         21   -1    0    0  503  502  0.00000000000E+00  0.00000000000E+00  0.15813474546E+03  0.15813474546E+03  0.00000000000E+00 0.  1.
         21   -1    0    0  501  503 -0.00000000000E+00 -0.00000000000E+00 -0.25098580105E+03  0.25098580105E+03  0.00000000000E+00 0. -1.
          6    1    1    2  501    0 -0.35812774238E+02 -0.26421074478E+02 -0.13699282514E+03  0.22511477543E+03  0.17300000000E+03 0. -1.
         -6    1    1    2    0  502  0.35812774238E+02  0.26421074478E+02  0.44141769555E+02  0.18400577109E+03  0.17300000000E+03 0.  1.
</event>
<event>
 4    1  0.6104111E+000  0.1000000E+03  0.7546771E-02  0.1280296E+00
         21   -1    0    0  501  502  0.00000000000E+00  0.00000000000E+00  0.15325768010E+03  0.15325768010E+03  0.00000000000E+00 0. -1.
         21   -1    0    0  502  503 -0.00000000000E+00 -0.00000000000E+00 -0.12242226727E+04  0.12242226727E+04  0.00000000000E+00 0.  1.
          6    1    1    2  501    0  0.25903892553E+03 -0.23769132507E+00 -0.56899413001E+02  0.31665085605E+03  0.17300000000E+03 0. -1.
         -6    1    1    2    0  503 -0.25903892553E+03  0.23769132507E+00 -0.10140655796E+04  0.10608294967E+04  0.17300000000E+03 0.  1.
</event>
<event>
 4    1  0.6104111E+000  0.1000000E+03  0.7546771E-02  0.1280296E+00
         21   -1    0    0  501  502  0.00000000000E+00  0.00000000000E+00  0.43731927093E+03  0.43731927093E+03  0.00000000000E+00 0. -1.
         21   -1    0    0  502  503 -0.00000000000E+00 -0.00000000000E+00 -0.41178716272E+03  0.41178716272E+03  0.00000000000E+00 0.  1.
          6    1    1    2  501    0  0.82205156856E+02  0.77065798299E+02  0.38368522731E+03  0.43570652822E+03  0.17300000000E+03 0. -1.
         -6    1    1    2    0  503 -0.82205156856E+02 -0.77065798299E+02 -0.35815311910E+03  0.41339990542E+03  0.17300000000E+03 0.  1.
</event>
<event>
 4    1  0.6104111E+000  0.1000000E+03  0.7546771E-02  0.1280296E+00
         21   -1    0    0  503  502  0.00000000000E+00  0.00000000000E+00  0.64554112289E+03  0.64554112289E+03  0.00000000000E+00 0. -1.
         21   -1    0    0  501  503 -0.00000000000E+00 -0.00000000000E+00 -0.92804089160E+02  0.92804089160E+02  0.00000000000E+00 0.  1.
          6    1    1    2  501    0 -0.42950506717E+02 -0.55874395454E+02  0.37824652338E+02  0.19059485413E+03  0.17300000000E+03 0. -1.
         -6    1    1    2    0  502  0.42950506717E+02  0.55874395454E+02  0.51491238139E+03  0.54775035792E+03  0.17300000000E+03 0.  1.
</event>
<event>
 4    1  0.6104111E+000  0.1000000E+03  0.7546771E-02  0.1280296E+00
         21   -1    0    0  503  502  0.00000000000E+00  0.00000000000E+00  0.27538612200E+03  0.27538612200E+03  0.00000000000E+00 0. -1.
         21   -1    0    0  501  503 -0.00000000000E+00 -0.00000000000E+00 -0.18592657585E+03  0.18592657585E+03  0.00000000000E+00 0.  1.
          6    1    1    2  501    0  0.18291999256E+02 -0.28996055072E+01 -0.10274035312E+03  0.20205837054E+03  0.17300000000E+03 0. -1.
         -6    1    1    2    0  502 -0.18291999256E+02  0.28996055072E+01  0.19219989926E+03  0.25925432730E+03  0.17300000000E+03 0.  1.
</event>
<event>
 4    1  0.6104111E+000  0.1000000E+03  0.7546771E-02  0.1280296E+00
         21   -1    0    0  503  502  0.00000000000E+00  0.00000000000E+00  0.31343208018E+02  0.31343208018E+02  0.00000000000E+00 0. -1.
         21   -1    0    0  501  503 -0.00000000000E+00 -0.00000000000E+00 -0.11183857970E+04  0.11183857970E+04  0.00000000000E+00 0.  1.
          6    1    1    2  501    0  0.66757211108E+02 -0.79806102058E+01 -0.61901765625E+03  0.64624459311E+03  0.17300000000E+03 0. -1.
         -6    1    1    2    0  502 -0.66757211108E+02  0.79806102058E+01 -0.46802493271E+03  0.50348441189E+03  0.17300000000E+03 0.  1.
</event>
<event>
 4    1  0.6104111E+000  0.1000000E+03  0.7546771E-02  0.1280296E+00
         21   -1    0    0  503  502  0.00000000000E+00  0.00000000000E+00  0.36945488882E+02  0.36945488882E+02  0.00000000000E+00 0.  1.
         21   -1    0    0  501  503 -0.00000000000E+00 -0.00000000000E+00 -0.10594506400E+04  0.10594506400E+04  0.00000000000E+00 0.  1.
          6    1    1    2  501    0 -0.83348157467E+02 -0.18542311848E+02 -0.63273528987E+03  0.66149352206E+03  0.17300000000E+03 0.  1.
         -6    1    1    2    0  502  0.83348157467E+02  0.18542311848E+02 -0.38976986125E+03  0.43490260682E+03  0.17300000000E+03 0.  1.
</event>
<event>
 4    1  0.6104111E+000  0.1000000E+03  0.7546771E-02  0.1280296E+00
         21   -1    0    0  503  502  0.00000000000E+00  0.00000000000E+00  0.79457434784E+03  0.79457434784E+03  0.00000000000E+00 0.  1.
         21   -1    0    0  501  503 -0.00000000000E+00 -0.00000000000E+00 -0.90420469721E+02  0.90420469721E+02  0.00000000000E+00 0.  1.
          6    1    1    2  501    0  0.15422254621E+03 -0.93504750713E+00  0.12978446160E+03  0.26562845207E+03  0.17300000000E+03 0.  1.
         -6    1    1    2    0  502 -0.15422254621E+03  0.93504750713E+00  0.57436941651E+03  0.61936636549E+03  0.17300000000E+03 0.  1.
</event>
<event>
 4    1  0.6104111E+000  0.1000000E+03  0.7546771E-02  0.1280296E+00
         21   -1    0    0  503  502  0.00000000000E+00  0.00000000000E+00  0.67722505884E+02  0.67722505884E+02  0.00000000000E+00 0. -1.
         21   -1    0    0  501  503 -0.00000000000E+00 -0.00000000000E+00 -0.98666042353E+03  0.98666042353E+03  0.00000000000E+00 0. -1.
          6    1    1    2  501    0 -0.13871665720E+02  0.18569938288E+03 -0.55542032005E+03  0.61081700683E+03  0.17300000000E+03 0. -1.
         -6    1    1    2    0  502  0.13871665720E+02 -0.18569938288E+03 -0.36351759759E+03  0.44356592258E+03  0.17300000000E+03 0. -1.
</event>
<event>
 4    1  0.6104111E+000  0.1000000E+03  0.7546771E-02  0.1280296E+00
         21   -1    0    0  503  502  0.00000000000E+00  0.00000000000E+00  0.12273539160E+03  0.12273539160E+03  0.00000000000E+00 0. -1.
         21   -1    0    0  501  503 -0.00000000000E+00 -0.00000000000E+00 -0.45408773030E+03  0.45408773030E+03  0.00000000000E+00 0. -1.
          6    1    1    2  501    0  0.66724583846E+02  0.13368130851E+03 -0.23775300802E+03  0.32981563813E+03  0.17300000000E+03 0. -1.
         -6    1    1    2    0  502 -0.66724583846E+02 -0.13368130851E+03 -0.93599330687E+02  0.24700748377E+03  0.17300000000E+03 0. -1.
</event>
<event>
 4    1  0.6104111E+000  0.1000000E+03  0.7546771E-02  0.1280296E+00
         21   -1    0    0  503  502  0.00000000000E+00  0.00000000000E+00  0.28380472040E+03  0.28380472040E+03  0.00000000000E+00 0. -1.
         21   -1    0    0  501  503 -0.00000000000E+00 -0.00000000000E+00 -0.14750322693E+03  0.14750322693E+03  0.00000000000E+00 0. -1.
          6    1    1    2  501    0 -0.10171517119E+03  0.44065334594E+01  0.26417618744E+02  0.20246551353E+03  0.17300000000E+03 0. -1.
         -6    1    1    2    0  502  0.10171517119E+03 -0.44065334594E+01  0.10988387472E+03  0.22884243381E+03  0.17300000000E+03 0. -1.
</event>
<event>
 4    1  0.6104111E+000  0.1000000E+03  0.7546771E-02  0.1280296E+00
         21   -1    0    0  503  502  0.00000000000E+00  0.00000000000E+00  0.23341247091E+03  0.23341247091E+03  0.00000000000E+00 0. -1.
         21   -1    0    0  501  503 -0.00000000000E+00 -0.00000000000E+00 -0.56899616785E+03  0.56899616785E+03  0.00000000000E+00 0. -1.
          6    1    1    2  501    0 -0.49538379214E+02 -0.65228470147E+02 -0.50920125021E+03  0.54398871086E+03  0.17300000000E+03 0. -1.
         -6    1    1    2    0  502  0.49538379214E+02  0.65228470147E+02  0.17361755326E+03  0.25841992790E+03  0.17300000000E+03 0. -1.
</event>
<event>
 4    1  0.6104111E+000  0.1000000E+03  0.7546771E-02  0.1280296E+00
         21   -1    0    0  503  502  0.00000000000E+00  0.00000000000E+00  0.18901716204E+04  0.18901716204E+04  0.00000000000E+00 0.  1.
         21   -1    0    0  501  503 -0.00000000000E+00 -0.00000000000E+00 -0.33149132821E+02  0.33149132821E+02  0.00000000000E+00 0.  1.
          6    1    1    2  501    0 -0.10014502576E+03  0.20372814554E+02  0.35500758263E+03  0.40792580389E+03  0.17300000000E+03 0.  1.
         -6    1    1    2    0  502  0.10014502576E+03 -0.20372814554E+02  0.15020149050E+04  0.15153949493E+04  0.17300000000E+03 0.  1.
</event>
<event>
 4    1  0.6104111E+000  0.1000000E+03  0.7546771E-02  0.1280296E+00
         21   -1    0    0  503  502  0.00000000000E+00  0.00000000000E+00  0.79080383264E+02  0.79080383264E+02  0.00000000000E+00 0.  1.
         21   -1    0    0  501  503 -0.00000000000E+00 -0.00000000000E+00 -0.11081762048E+04  0.11081762048E+04  0.00000000000E+00 0.  1.
          6    1    1    2  501    0  0.76148848878E+02  0.37070522867E+02 -0.96532713423E+03  0.98435681891E+03  0.17300000000E+03 0.  1.
         -6    1    1    2    0  502 -0.76148848878E+02 -0.37070522867E+02 -0.63768687337E+02  0.20289976919E+03  0.17300000000E+03 0.  1.
</event>
<event>
 4    1  0.6104111E+000  0.1000000E+03  0.7546771E-02  0.1280296E+00
         21   -1    0    0  501  502  0.00000000000E+00  0.00000000000E+00  0.61050929731E+03  0.61050929731E+03  0.00000000000E+00 0. -1.
         21   -1    0    0  502  503 -0.00000000000E+00 -0.00000000000E+00 -0.62851442212E+02  0.62851442212E+02  0.00000000000E+00 0. -1.
          6    1    1    2  501    0 -0.19748271106E+02 -0.59342226363E+02  0.38952165691E+03  0.43077559732E+03  0.17300000000E+03 0. -1.
         -6    1    1    2    0  503  0.19748271106E+02  0.59342226363E+02  0.15813619819E+03  0.24258514220E+03  0.17300000000E+03 0. -1.
</event>
<event>
 4    1  0.6104111E+000  0.1000000E+03  0.7546771E-02  0.1280296E+00
         21   -1    0    0  503  502  0.00000000000E+00  0.00000000000E+00  0.31159053331E+02  0.31159053331E+02  0.00000000000E+00 0.  1.
         21   -1    0    0  501  503 -0.00000000000E+00 -0.00000000000E+00 -0.12961604622E+04  0.12961604622E+04  0.00000000000E+00 0.  1.
          6    1    1    2  501    0  0.50208738615E+02  0.26728347346E+02 -0.91315849179E+03  0.93114056571E+03  0.17300000000E+03 0.  1.
         -6    1    1    2    0  502 -0.50208738615E+02 -0.26728347346E+02 -0.35184291712E+03  0.39617894986E+03  0.17300000000E+03 0.  1.
</event>
<event>
 4    1  0.6104111E+000  0.1000000E+03  0.7546771E-02  0.1280296E+00
         21   -1    0    0  503  502  0.00000000000E+00  0.00000000000E+00  0.15306192611E+03  0.15306192611E+03  0.00000000000E+00 0.  1.
         21   -1    0    0  501  503 -0.00000000000E+00 -0.00000000000E+00 -0.22461142744E+03  0.22461142744E+03  0.00000000000E+00 0.  1.
          6    1    1    2  501    0  0.23715644294E+02  0.37342106240E+02  0.15082119038E+02  0.17920193916E+03  0.17300000000E+03 0.  1.
         -6    1    1    2    0  502 -0.23715644294E+02 -0.37342106240E+02 -0.86631620369E+02  0.19847141439E+03  0.17300000000E+03 0.  1.
</event>
<event>
 4    1  0.6104111E+000  0.1000000E+03  0.7546771E-02  0.1280296E+00
         21   -1    0    0  503  502  0.00000000000E+00  0.00000000000E+00  0.83397761221E+02  0.83397761221E+02  0.00000000000E+00 0.  1.
         21   -1    0    0  501  503 -0.00000000000E+00 -0.00000000000E+00 -0.47219595950E+03  0.47219595950E+03  0.00000000000E+00 0.  1.
          6    1    1    2  501    0  0.20862583382E+02  0.78698281461E+02 -0.26876943561E+03  0.32984038020E+03  0.17300000000E+03 0.  1.
         -6    1    1    2    0  502 -0.20862583382E+02 -0.78698281461E+02 -0.12002876267E+03  0.22575334053E+03  0.17300000000E+03 0.  1.
</event>
<event>
 4    1  0.6104111E+000  0.1000000E+03  0.7546771E-02  0.1280296E+00
         21   -1    0    0  503  502  0.00000000000E+00  0.00000000000E+00  0.14395024696E+03  0.14395024696E+03  0.00000000000E+00 0.  1.
         21   -1    0    0  501  503 -0.00000000000E+00 -0.00000000000E+00 -0.72541693851E+03  0.72541693851E+03  0.00000000000E+00 0.  1.
          6    1    1    2  501    0  0.95994700070E+02  0.31073860288E+02 -0.63186909934E+03  0.66284849395E+03  0.17300000000E+03 0.  1.
         -6    1    1    2    0  502 -0.95994700070E+02 -0.31073860288E+02  0.50402407789E+02  0.20651869152E+03  0.17300000000E+03 0.  1.
</event>
<event>
 4    1  0.6104111E+000  0.1000000E+03  0.7546771E-02  0.1280296E+00
         21   -1    0    0  503  502  0.00000000000E+00  0.00000000000E+00  0.24694178868E+02  0.24694178868E+02  0.00000000000E+00 0.  1.
         21   -1    0    0  501  503 -0.00000000000E+00 -0.00000000000E+00 -0.19202492280E+04  0.19202492280E+04  0.00000000000E+00 0.  1.
          6    1    1    2  501    0 -0.10802783546E+03  0.75802678308E+02 -0.98617280524E+03  0.10098920047E+04  0.17300000000E+03 0.  1.
         -6    1    1    2    0  502  0.10802783546E+03 -0.75802678308E+02 -0.90938224391E+03  0.93505140223E+03  0.17300000000E+03 0.  1.
</event>
<event>
 4    1  0.6104111E+000  0.1000000E+03  0.7546771E-02  0.1280296E+00
         21   -1    0    0  501  502  0.00000000000E+00  0.00000000000E+00  0.17715045090E+03  0.17715045090E+03  0.00000000000E+00 0.  1.
         21   -1    0    0  502  503 -0.00000000000E+00 -0.00000000000E+00 -0.17745889823E+03  0.17745889823E+03  0.00000000000E+00 0.  1.
          6    1    1    2  501    0  0.16238977669E+02 -0.34591107364E+02  0.67504682372E+01  0.17729866871E+03  0.17300000000E+03 0.  1.
         -6    1    1    2    0  503 -0.16238977669E+02  0.34591107364E+02 -0.70589155633E+01  0.17731068043E+03  0.17300000000E+03 0.  1.
</event>
<event>
 4    1  0.6104111E+000  0.1000000E+03  0.7546771E-02  0.1280296E+00
         21   -1    0    0  503  502  0.00000000000E+00  0.00000000000E+00  0.24278038877E+03  0.24278038877E+03  0.00000000000E+00 0. -1.
         21   -1    0    0  501  503 -0.00000000000E+00 -0.00000000000E+00 -0.60045806593E+03  0.60045806593E+03  0.00000000000E+00 0. -1.
          6    1    1    2  501    0  0.18230620085E+03  0.19913631373E+03 -0.40771601269E+03  0.51870238993E+03  0.17300000000E+03 0. -1.
         -6    1    1    2    0  502 -0.18230620085E+03 -0.19913631373E+03  0.50038335538E+02  0.32453606477E+03  0.17300000000E+03 0. -1.
</event>
<event>
 4    1  0.6104111E+000  0.1000000E+03  0.7546771E-02  0.1280296E+00
         21   -1    0    0  503  502  0.00000000000E+00  0.00000000000E+00  0.37494872578E+03  0.37494872578E+03  0.00000000000E+00 0. -1.
         21   -1    0    0  501  503 -0.00000000000E+00 -0.00000000000E+00 -0.14666547709E+03  0.14666547709E+03  0.00000000000E+00 0. -1.
          6    1    1    2  501    0  0.62153195391E+02  0.10057491668E+03 -0.29515278118E+01  0.20956155439E+03  0.17300000000E+03 0. -1.
         -6    1    1    2    0  502 -0.62153195391E+02 -0.10057491668E+03  0.23123477650E+03  0.31205264849E+03  0.17300000000E+03 0. -1.
</event>
<event>
 4    1  0.6104111E+000  0.1000000E+03  0.7546771E-02  0.1280296E+00
         21   -1    0    0  503  502  0.00000000000E+00  0.00000000000E+00  0.27906014126E+03  0.27906014126E+03  0.00000000000E+00 0. -1.
         21   -1    0    0  501  503 -0.00000000000E+00 -0.00000000000E+00 -0.15087756047E+04  0.15087756047E+04  0.00000000000E+00 0. -1.
          6    1    1    2  501    0 -0.43787064489E+02 -0.18128783679E+03 -0.14372160466E+04  0.14595552581E+04  0.17300000000E+03 0. -1.
         -6    1    1    2    0  502  0.43787064489E+02  0.18128783679E+03  0.20750058309E+03  0.32828048795E+03  0.17300000000E+03 0. -1.
</event>
<event>
 4    1  0.6104111E+000  0.1000000E+03  0.7546771E-02  0.1280296E+00
         21   -1    0    0  503  502  0.00000000000E+00  0.00000000000E+00  0.52070512253E+03  0.52070512253E+03  0.00000000000E+00 0.  1.
         21   -1    0    0  501  503 -0.00000000000E+00 -0.00000000000E+00 -0.83260487581E+02  0.83260487581E+02  0.00000000000E+00 0. -1.
          6    1    1    2  501    0 -0.14298366740E+02  0.11404162221E+03  0.19744505773E+03  0.28657195556E+03  0.17300000000E+03 0. -1.
         -6    1    1    2    0  502  0.14298366740E+02 -0.11404162221E+03  0.23999957722E+03  0.31739365456E+03  0.17300000000E+03 0.  1.
</event>
<event>
 4    1  0.6104111E+000  0.1000000E+03  0.7546771E-02  0.1280296E+00
         21   -1    0    0  503  502  0.00000000000E+00  0.00000000000E+00  0.13968409934E+03  0.13968409934E+03  0.00000000000E+00 0.  1.
         21   -1    0    0  501  503 -0.00000000000E+00 -0.00000000000E+00 -0.27661678524E+03  0.27661678524E+03  0.00000000000E+00 0. -1.
          6    1    1    2  501    0  0.53212537951E+02 -0.73781858452E+02 -0.46390145225E+02  0.20088898030E+03  0.17300000000E+03 0. -1.
         -6    1    1    2    0  502 -0.53212537951E+02  0.73781858452E+02 -0.90542540676E+02  0.21541190428E+03  0.17300000000E+03 0.  1.
</event>
<event>
 4    1  0.6104111E+000  0.1000000E+03  0.7546771E-02  0.1280296E+00
         21   -1    0    0  501  502  0.00000000000E+00  0.00000000000E+00  0.51016219940E+03  0.51016219940E+03  0.00000000000E+00 0. -1.
         21   -1    0    0  502  503 -0.00000000000E+00 -0.00000000000E+00 -0.80252808210E+02  0.80252808210E+02  0.00000000000E+00 0. -1.
          6    1    1    2  501    0  0.20839224480E+02 -0.43523308929E+02  0.35091526689E+03  0.39420689521E+03  0.17300000000E+03 0. -1.
         -6    1    1    2    0  503 -0.20839224480E+02  0.43523308929E+02  0.78994124303E+02  0.19620811240E+03  0.17300000000E+03 0. -1.
</event>
<event>
 4    1  0.6104111E+000  0.1000000E+03  0.7546771E-02  0.1280296E+00
         21   -1    0    0  501  502  0.00000000000E+00  0.00000000000E+00  0.85180331051E+03  0.85180331051E+03  0.00000000000E+00 0. -1.
         21   -1    0    0  502  503 -0.00000000000E+00 -0.00000000000E+00 -0.50083203071E+02  0.50083203071E+02  0.00000000000E+00 0. -1.
          6    1    1    2  501    0 -0.11204162935E+03 -0.81661979482E+00  0.42999207316E+03  0.47683978080E+03  0.17300000000E+03 0. -1.
         -6    1    1    2    0  503  0.11204162935E+03  0.81661979482E+00  0.37172803428E+03  0.42504673278E+03  0.17300000000E+03 0. -1.
</event>
<event>
 4    1  0.6104111E+000  0.1000000E+03  0.7546771E-02  0.1280296E+00
         21   -1    0    0  501  502  0.00000000000E+00  0.00000000000E+00  0.16434293188E+04  0.16434293188E+04  0.00000000000E+00 0.  1.
         21   -1    0    0  502  503 -0.00000000000E+00 -0.00000000000E+00 -0.31018652075E+02  0.31018652075E+02  0.00000000000E+00 0. -1.
          6    1    1    2  501    0 -0.26074007601E+02 -0.97340610005E+02  0.11932193762E+04  0.12098993875E+04  0.17300000000E+03 0.  1.
         -6    1    1    2    0  503  0.26074007601E+02  0.97340610005E+02  0.41919129055E+03  0.46454858336E+03  0.17300000000E+03 0. -1.
</event>
<event>
 4    1  0.6104111E+000  0.1000000E+03  0.7546771E-02  0.1280296E+00
         21   -1    0    0  501  502  0.00000000000E+00  0.00000000000E+00  0.45864570246E+03  0.45864570246E+03  0.00000000000E+00 0. -1.
         21   -1    0    0  502  503 -0.00000000000E+00 -0.00000000000E+00 -0.50001217410E+03  0.50001217410E+03  0.00000000000E+00 0. -1.
          6    1    1    2  501    0  0.35138611590E+03 -0.95980529250E+02  0.23784997776E+03  0.46817312649E+03  0.17300000000E+03 0. -1.
         -6    1    1    2    0  503 -0.35138611590E+03  0.95980529250E+02 -0.27921644940E+03  0.49048475007E+03  0.17300000000E+03 0. -1.
</event>
<event>
 4    1  0.6104111E+000  0.1000000E+03  0.7546771E-02  0.1280296E+00
         21   -1    0    0  503  502  0.00000000000E+00  0.00000000000E+00  0.14955893450E+03  0.14955893450E+03  0.00000000000E+00 0.  1.
         21   -1    0    0  501  503 -0.00000000000E+00 -0.00000000000E+00 -0.39955326060E+03  0.39955326060E+03  0.00000000000E+00 0.  1.
          6    1    1    2  501    0  0.40485822819E+02  0.44155022654E+02 -0.30693002297E+03  0.35738467633E+03  0.17300000000E+03 0.  1.
         -6    1    1    2    0  502 -0.40485822819E+02 -0.44155022654E+02  0.56935696880E+02  0.19172751877E+03  0.17300000000E+03 0.  1.
</event>
<event>
 4    1  0.6104111E+000  0.1000000E+03  0.7546771E-02  0.1280296E+00
         21   -1    0    0  503  502  0.00000000000E+00  0.00000000000E+00  0.11263134026E+03  0.11263134026E+03  0.00000000000E+00 0.  1.
         21   -1    0    0  501  503 -0.00000000000E+00 -0.00000000000E+00 -0.36224996981E+03  0.36224996981E+03  0.00000000000E+00 0.  1.
          6    1    1    2  501    0  0.78245190174E+02  0.22336683201E+02 -0.20144646844E+03  0.27772453411E+03  0.17300000000E+03 0.  1.
         -6    1    1    2    0  502 -0.78245190174E+02 -0.22336683201E+02 -0.48172161109E+02  0.19715677596E+03  0.17300000000E+03 0.  1.
</event>
<event>
 4    1  0.6104111E+000  0.1000000E+03  0.7546771E-02  0.1280296E+00
         21   -1    0    0  503  502  0.00000000000E+00  0.00000000000E+00  0.14816017836E+03  0.14816017836E+03  0.00000000000E+00 0.  1.
         21   -1    0    0  501  503 -0.00000000000E+00 -0.00000000000E+00 -0.28438491800E+03  0.28438491800E+03  0.00000000000E+00 0.  1.
          6    1    1    2  501    0  0.50900603489E+02 -0.33836947085E+02 -0.16507773442E+03  0.24681059302E+03  0.17300000000E+03 0.  1.
         -6    1    1    2    0  502 -0.50900603489E+02  0.33836947085E+02  0.28852994781E+02  0.18573450334E+03  0.17300000000E+03 0.  1.
</event>
<event>
 4    1  0.6104111E+000  0.1000000E+03  0.7546771E-02  0.1280296E+00
         21   -1    0    0  501  502  0.00000000000E+00  0.00000000000E+00  0.19091349339E+03  0.19091349339E+03  0.00000000000E+00 0. -1.
         21   -1    0    0  502  503 -0.00000000000E+00 -0.00000000000E+00 -0.25501458831E+03  0.25501458831E+03  0.00000000000E+00 0.  1.
          6    1    1    2  501    0  0.55084845860E+02 -0.11485498051E+03 -0.82884745383E+02  0.23027133518E+03  0.17300000000E+03 0. -1.
         -6    1    1    2    0  503 -0.55084845860E+02  0.11485498051E+03  0.18783650464E+02  0.21565674651E+03  0.17300000000E+03 0.  1.
</event>
<event>
 4    1  0.6104111E+000  0.1000000E+03  0.7546771E-02  0.1280296E+00
         21   -1    0    0  501  502  0.00000000000E+00  0.00000000000E+00  0.37827696294E+03  0.37827696294E+03  0.00000000000E+00 0. -1.
         21   -1    0    0  502  503 -0.00000000000E+00 -0.00000000000E+00 -0.10232068379E+03  0.10232068379E+03  0.00000000000E+00 0.  1.
          6    1    1    2  501    0  0.69232866525E+02  0.12672213630E+02  0.21349688853E+03  0.28366123496E+03  0.17300000000E+03 0. -1.
         -6    1    1    2    0  503 -0.69232866525E+02 -0.12672213630E+02  0.62459390610E+02  0.19693641177E+03  0.17300000000E+03 0.  1.
</event>
<event>
 4    1  0.6104111E+000  0.1000000E+03  0.7546771E-02  0.1280296E+00
         21   -1    0    0  501  502  0.00000000000E+00  0.00000000000E+00  0.22371428607E+03  0.22371428607E+03  0.00000000000E+00 0. -1.
         21   -1    0    0  502  503 -0.00000000000E+00 -0.00000000000E+00 -0.32212695182E+03  0.32212695182E+03  0.00000000000E+00 0. -1.
          6    1    1    2  501    0  0.60013020546E+00  0.13368550877E+03  0.10915539269E+03  0.24436872788E+03  0.17300000000E+03 0. -1.
         -6    1    1    2    0  503 -0.60013020546E+00 -0.13368550877E+03 -0.20756805844E+03  0.30147251002E+03  0.17300000000E+03 0. -1.
</event>
<event>
 4    1  0.6104111E+000  0.1000000E+03  0.7546771E-02  0.1280296E+00
         21   -1    0    0  501  502  0.00000000000E+00  0.00000000000E+00  0.32080136058E+03  0.32080136058E+03  0.00000000000E+00 0.  1.
         21   -1    0    0  502  503 -0.00000000000E+00 -0.00000000000E+00 -0.25666719257E+04  0.25666719257E+04  0.00000000000E+00 0.  1.
          6    1    1    2  501    0 -0.31662173275E+03 -0.11425412786E+03  0.18923466972E+03  0.42313365218E+03  0.17300000000E+03 0.  1.
         -6    1    1    2    0  503  0.31662173275E+03  0.11425412786E+03 -0.24351052348E+04  0.24643396341E+04  0.17300000000E+03 0.  1.
</event>
<event>
 4    1  0.6104111E+000  0.1000000E+03  0.7546771E-02  0.1280296E+00
         21   -1    0    0  501  502  0.00000000000E+00  0.00000000000E+00  0.11556292914E+03  0.11556292914E+03  0.00000000000E+00 0.  1.
         21   -1    0    0  502  503 -0.00000000000E+00 -0.00000000000E+00 -0.64572778045E+03  0.64572778045E+03  0.00000000000E+00 0.  1.
          6    1    1    2  501    0 -0.16316278625E+03  0.11730840885E+03 -0.35656047745E+03  0.44435091053E+03  0.17300000000E+03 0.  1.
         -6    1    1    2    0  503  0.16316278625E+03 -0.11730840885E+03 -0.17360437386E+03  0.31693979906E+03  0.17300000000E+03 0.  1.
</event>
<event>
 4    1  0.6104111E+000  0.1000000E+03  0.7546771E-02  0.1280296E+00
         21   -1    0    0  501  502  0.00000000000E+00  0.00000000000E+00  0.14255856485E+03  0.14255856485E+03  0.00000000000E+00 0.  1.
         21   -1    0    0  502  503 -0.00000000000E+00 -0.00000000000E+00 -0.30022882249E+03  0.30022882249E+03  0.00000000000E+00 0.  1.
          6    1    1    2  501    0 -0.44491120210E+02  0.34305223027E+02  0.26642695045E+02  0.18383454872E+03  0.17300000000E+03 0.  1.
         -6    1    1    2    0  503  0.44491120210E+02 -0.34305223027E+02 -0.18431295268E+03  0.25895283862E+03  0.17300000000E+03 0.  1.
</event>
<event>
 4    1  0.6104111E+000  0.1000000E+03  0.7546771E-02  0.1280296E+00
         21   -1    0    0  501  502  0.00000000000E+00  0.00000000000E+00  0.48001893387E+03  0.48001893387E+03  0.00000000000E+00 0.  1.
         21   -1    0    0  502  503 -0.00000000000E+00 -0.00000000000E+00 -0.57739371786E+03  0.57739371786E+03  0.00000000000E+00 0.  1.
          6    1    1    2  501    0  0.74509353015E+02 -0.87096219794E+02  0.43720935671E+03  0.48396117281E+03  0.17300000000E+03 0.  1.
         -6    1    1    2    0  503 -0.74509353015E+02  0.87096219794E+02 -0.53458414070E+03  0.57345147892E+03  0.17300000000E+03 0.  1.
</event>
<event>
 4    1  0.6104111E+000  0.1000000E+03  0.7546771E-02  0.1280296E+00
         21   -1    0    0  501  502  0.00000000000E+00  0.00000000000E+00  0.17712138197E+03  0.17712138197E+03  0.00000000000E+00 0.  1.
         21   -1    0    0  502  503 -0.00000000000E+00 -0.00000000000E+00 -0.59170213405E+03  0.59170213405E+03  0.00000000000E+00 0.  1.
          6    1    1    2  501    0  0.52523740076E+02 -0.11509855697E+03  0.80812805477E+02  0.22905486377E+03  0.17300000000E+03 0.  1.
         -6    1    1    2    0  503 -0.52523740076E+02  0.11509855697E+03 -0.49539355755E+03  0.53976865225E+03  0.17300000000E+03 0.  1.
</event>
<event>
 4    1  0.6104111E+000  0.1000000E+03  0.7546771E-02  0.1280296E+00
         21   -1    0    0  503  502  0.00000000000E+00  0.00000000000E+00  0.11354374559E+03  0.11354374559E+03  0.00000000000E+00 0. -1.
         21   -1    0    0  501  503 -0.00000000000E+00 -0.00000000000E+00 -0.70815549648E+03  0.70815549648E+03  0.00000000000E+00 0. -1.
          6    1    1    2  501    0  0.14042025036E+03 -0.45996579998E+02 -0.54252510484E+03  0.58829926182E+03  0.17300000000E+03 0. -1.
         -6    1    1    2    0  502 -0.14042025036E+03  0.45996579998E+02 -0.52086646056E+02  0.23339998025E+03  0.17300000000E+03 0. -1.
</event>
<event>
 4    1  0.6104111E+000  0.1000000E+03  0.7546771E-02  0.1280296E+00
         21   -1    0    0  503  502  0.00000000000E+00  0.00000000000E+00  0.35428725260E+03  0.35428725260E+03  0.00000000000E+00 0.  1.
         21   -1    0    0  501  503 -0.00000000000E+00 -0.00000000000E+00 -0.16476425654E+03  0.16476425654E+03  0.00000000000E+00 0. -1.
          6    1    1    2  501    0 -0.14756330732E+03 -0.73528308316E+02  0.56578971560E+02  0.24558404226E+03  0.17300000000E+03 0. -1.
         -6    1    1    2    0  502  0.14756330732E+03  0.73528308316E+02  0.13294402450E+03  0.27346746688E+03  0.17300000000E+03 0.  1.
</event>
<event>
 4    1  0.6104111E+000  0.1000000E+03  0.7546771E-02  0.1280296E+00
         21   -1    0    0  503  502  0.00000000000E+00  0.00000000000E+00  0.65910358955E+02  0.65910358955E+02  0.00000000000E+00 0.  1.
         21   -1    0    0  501  503 -0.00000000000E+00 -0.00000000000E+00 -0.63320091751E+03  0.63320091751E+03  0.00000000000E+00 0. -1.
          6    1    1    2  501    0  0.10258216861E+03 -0.31230974215E+02 -0.31362691756E+03  0.37388409766E+03  0.17300000000E+03 0. -1.
         -6    1    1    2    0  502 -0.10258216861E+03  0.31230974215E+02 -0.25366364100E+03  0.32522717880E+03  0.17300000000E+03 0.  1.
</event>
<event>
 4    1  0.6104111E+000  0.1000000E+03  0.7546771E-02  0.1280296E+00
         21   -1    0    0  503  502  0.00000000000E+00  0.00000000000E+00  0.13042193725E+03  0.13042193725E+03  0.00000000000E+00 0.  1.
         21   -1    0    0  501  503 -0.00000000000E+00 -0.00000000000E+00 -0.75838454676E+03  0.75838454676E+03  0.00000000000E+00 0. -1.
          6    1    1    2  501    0 -0.65674967507E+02  0.38981948074E+02 -0.66907062024E+03  0.69528216467E+03  0.17300000000E+03 0. -1.
         -6    1    1    2    0  502  0.65674967507E+02 -0.38981948074E+02  0.41108010727E+02  0.19352431935E+03  0.17300000000E+03 0.  1.
</event>
<event>
 4    1  0.6104111E+000  0.1000000E+03  0.7546771E-02  0.1280296E+00
         21   -1    0    0  501  502  0.00000000000E+00  0.00000000000E+00  0.43718169086E+02  0.43718169086E+02  0.00000000000E+00 0.  1.
         21   -1    0    0  502  503 -0.00000000000E+00 -0.00000000000E+00 -0.11283091299E+04  0.11283091299E+04  0.00000000000E+00 0.  1.
          6    1    1    2  501    0  0.34751808689E+02  0.86283923574E+02 -0.26877728016E+03  0.33290063083E+03  0.17300000000E+03 0.  1.
         -6    1    1    2    0  503 -0.34751808689E+02 -0.86283923574E+02 -0.81581368068E+03  0.83912666819E+03  0.17300000000E+03 0.  1.
</event>
<event>
 4    1  0.6104111E+000  0.1000000E+03  0.7546771E-02  0.1280296E+00
         21   -1    0    0  501  502  0.00000000000E+00  0.00000000000E+00  0.17327473085E+03  0.17327473085E+03  0.00000000000E+00 0.  1.
         21   -1    0    0  502  503 -0.00000000000E+00 -0.00000000000E+00 -0.41427099723E+03  0.41427099723E+03  0.00000000000E+00 0.  1.
          6    1    1    2  501    0 -0.11647224985E+03  0.11876869911E+03  0.10079594703E+02  0.24021321176E+03  0.17300000000E+03 0.  1.
         -6    1    1    2    0  503  0.11647224985E+03 -0.11876869911E+03 -0.25107586108E+03  0.34733251632E+03  0.17300000000E+03 0.  1.
</event>
<event>
 4    1  0.6104111E+000  0.1000000E+03  0.7546771E-02  0.1280296E+00
         21   -1    0    0  501  502  0.00000000000E+00  0.00000000000E+00  0.36133518732E+03  0.36133518732E+03  0.00000000000E+00 0.  1.
         21   -1    0    0  502  503 -0.00000000000E+00 -0.00000000000E+00 -0.17102550821E+03  0.17102550821E+03  0.00000000000E+00 0.  1.
          6    1    1    2  501    0 -0.36823837479E+02  0.55391545413E+02  0.27253972790E+03  0.32959235670E+03  0.17300000000E+03 0.  1.
         -6    1    1    2    0  503  0.36823837479E+02 -0.55391545413E+02 -0.82230048781E+02  0.20276833883E+03  0.17300000000E+03 0.  1.
</event>
<event>
 4    1  0.6104111E+000  0.1000000E+03  0.7546771E-02  0.1280296E+00
         21   -1    0    0  501  502  0.00000000000E+00  0.00000000000E+00  0.93556640071E+02  0.93556640071E+02  0.00000000000E+00 0.  1.
         21   -1    0    0  502  503 -0.00000000000E+00 -0.00000000000E+00 -0.50876819391E+03  0.50876819391E+03  0.00000000000E+00 0. -1.
          6    1    1    2  501    0  0.45945331891E+02  0.90100773231E+02 -0.88535015315E+02  0.21908119909E+03  0.17300000000E+03 0.  1.
         -6    1    1    2    0  503 -0.45945331891E+02 -0.90100773231E+02 -0.32667653852E+03  0.38324363488E+03  0.17300000000E+03 0. -1.
</event>
<event>
 4    1  0.6104111E+000  0.1000000E+03  0.7546771E-02  0.1280296E+00
         21   -1    0    0  503  502  0.00000000000E+00  0.00000000000E+00  0.41674398555E+03  0.41674398555E+03  0.00000000000E+00 0. -1.
         21   -1    0    0  501  503 -0.00000000000E+00 -0.00000000000E+00 -0.80391791423E+02  0.80391791423E+02  0.00000000000E+00 0. -1.
          6    1    1    2  501    0 -0.10396610356E+02  0.56917128521E+02  0.14775404072E+03  0.23475073072E+03  0.17300000000E+03 0. -1.
         -6    1    1    2    0  502  0.10396610356E+02 -0.56917128521E+02  0.18859815340E+03  0.26238504625E+03  0.17300000000E+03 0. -1.
</event>
<event>
 4    1  0.6104111E+000  0.1000000E+03  0.7546771E-02  0.1280296E+00
         21   -1    0    0  503  502  0.00000000000E+00  0.00000000000E+00  0.20129328475E+03  0.20129328475E+03  0.00000000000E+00 0. -1.
         21   -1    0    0  501  503 -0.00000000000E+00 -0.00000000000E+00 -0.41697179795E+03  0.41697179795E+03  0.00000000000E+00 0. -1.
          6    1    1    2  501    0  0.94744783346E+02  0.12251145777E+02 -0.33388341338E+03  0.38798685323E+03  0.17300000000E+03 0. -1.
         -6    1    1    2    0  502 -0.94744783346E+02 -0.12251145777E+02  0.11820490018E+03  0.23027822948E+03  0.17300000000E+03 0. -1.
</event>
<event>
 4    1  0.6104111E+000  0.1000000E+03  0.7546771E-02  0.1280296E+00
         21   -1    0    0  503  502  0.00000000000E+00  0.00000000000E+00  0.31143578668E+03  0.31143578668E+03  0.00000000000E+00 0.  1.
         21   -1    0    0  501  503 -0.00000000000E+00 -0.00000000000E+00 -0.22357663587E+03  0.22357663587E+03  0.00000000000E+00 0.  1.
          6    1    1    2  501    0  0.18325352449E+03  0.76131790083E+02  0.25713923438E+02  0.26451485697E+03  0.17300000000E+03 0.  1.
         -6    1    1    2    0  502 -0.18325352449E+03 -0.76131790083E+02  0.62145227372E+02  0.27049756558E+03  0.17300000000E+03 0.  1.
</event>
<event>
 4    1  0.6104111E+000  0.1000000E+03  0.7546771E-02  0.1280296E+00
         21   -1    0    0  503  502  0.00000000000E+00  0.00000000000E+00  0.12616958691E+03  0.12616958691E+03  0.00000000000E+00 0.  1.
         21   -1    0    0  501  503 -0.00000000000E+00 -0.00000000000E+00 -0.31912894185E+03  0.31912894185E+03  0.00000000000E+00 0.  1.
          6    1    1    2  501    0  0.90523838137E+02  0.26347195231E+02 -0.13868226513E+03  0.24093673574E+03  0.17300000000E+03 0.  1.
         -6    1    1    2    0  502 -0.90523838137E+02 -0.26347195231E+02 -0.54277089808E+02  0.20436179302E+03  0.17300000000E+03 0.  1.
</event>
<event>
 4    1  0.6104111E+000  0.1000000E+03  0.7546771E-02  0.1280296E+00
         21   -1    0    0  503  502  0.00000000000E+00  0.00000000000E+00  0.28654917238E+02  0.28654917238E+02  0.00000000000E+00 0.  1.
         21   -1    0    0  501  503 -0.00000000000E+00 -0.00000000000E+00 -0.21469168200E+04  0.21469168200E+04  0.00000000000E+00 0.  1.
          6    1    1    2  501    0  0.19826631073E+02 -0.46597044621E+02 -0.18063232597E+04  0.18152953199E+04  0.17300000000E+03 0.  1.
         -6    1    1    2    0  502 -0.19826631073E+02  0.46597044621E+02 -0.31193864309E+03  0.36027641738E+03  0.17300000000E+03 0.  1.
</event>
<event>
 4    1  0.6104111E+000  0.1000000E+03  0.7546771E-02  0.1280296E+00
         21   -1    0    0  503  502  0.00000000000E+00  0.00000000000E+00  0.89853334794E+03  0.89853334794E+03  0.00000000000E+00 0.  1.
         21   -1    0    0  501  503 -0.00000000000E+00 -0.00000000000E+00 -0.18708926256E+03  0.18708926256E+03  0.00000000000E+00 0.  1.
          6    1    1    2  501    0 -0.13797682765E+03 -0.46973278352E+02 -0.96993719540E+02  0.24613182540E+03  0.17300000000E+03 0.  1.
         -6    1    1    2    0  502  0.13797682765E+03  0.46973278352E+02  0.80843780492E+03  0.83949078510E+03  0.17300000000E+03 0.  1.
</event>
<event>
 4    1  0.6104111E+000  0.1000000E+03  0.7546771E-02  0.1280296E+00
         21   -1    0    0  503  502  0.00000000000E+00  0.00000000000E+00  0.17717618068E+03  0.17717618068E+03  0.00000000000E+00 0.  1.
         21   -1    0    0  501  503 -0.00000000000E+00 -0.00000000000E+00 -0.43798263093E+03  0.43798263093E+03  0.00000000000E+00 0.  1.
          6    1    1    2  501    0 -0.30054918637E+02  0.11377513386E+03 -0.33346691442E+03  0.39367151565E+03  0.17300000000E+03 0.  1.
         -6    1    1    2    0  502  0.30054918637E+02 -0.11377513386E+03  0.72660464178E+02  0.22148729596E+03  0.17300000000E+03 0.  1.
</event>
<event>
 4    1  0.6104111E+000  0.1000000E+03  0.7546771E-02  0.1280296E+00
         21   -1    0    0  503  502  0.00000000000E+00  0.00000000000E+00  0.85618646707E+02  0.85618646707E+02  0.00000000000E+00 0. -1.
         21   -1    0    0  501  503 -0.00000000000E+00 -0.00000000000E+00 -0.53486299381E+03  0.53486299381E+03  0.00000000000E+00 0. -1.
          6    1    1    2  501    0 -0.77239154262E+01  0.12310008234E+03 -0.26163930966E+03  0.33704215983E+03  0.17300000000E+03 0. -1.
         -6    1    1    2    0  502  0.77239154262E+01 -0.12310008234E+03 -0.18760503744E+03  0.28343948069E+03  0.17300000000E+03 0. -1.
</event>
<event>
 4    1  0.6104111E+000  0.1000000E+03  0.7546771E-02  0.1280296E+00
         21   -1    0    0  503  502  0.00000000000E+00  0.00000000000E+00  0.72057620918E+03  0.72057620918E+03  0.00000000000E+00 0. -1.
         21   -1    0    0  501  503 -0.00000000000E+00 -0.00000000000E+00 -0.47672479636E+02  0.47672479636E+02  0.00000000000E+00 0. -1.
          6    1    1    2  501    0  0.28683499283E+02  0.58858290841E+02  0.31231677793E+03  0.36298458825E+03  0.17300000000E+03 0. -1.
         -6    1    1    2    0  502 -0.28683499283E+02 -0.58858290841E+02  0.36058695161E+03  0.40526410056E+03  0.17300000000E+03 0. -1.
</event>
<event>
 4    1  0.6104111E+000  0.1000000E+03  0.7546771E-02  0.1280296E+00
         21   -1    0    0  501  502  0.00000000000E+00  0.00000000000E+00  0.79779902731E+02  0.79779902731E+02  0.00000000000E+00 0.  1.
         21   -1    0    0  502  503 -0.00000000000E+00 -0.00000000000E+00 -0.48447977217E+03  0.48447977217E+03  0.00000000000E+00 0. -1.
          6    1    1    2  501    0 -0.22772284835E+02 -0.45706442485E+02 -0.31456882898E+03  0.36261578014E+03  0.17300000000E+03 0.  1.
         -6    1    1    2    0  503  0.22772284835E+02  0.45706442485E+02 -0.90131040466E+02  0.20164389477E+03  0.17300000000E+03 0. -1.
</event>
<event>
 4    1  0.6104111E+000  0.1000000E+03  0.7546771E-02  0.1280296E+00
         21   -1    0    0  501  502  0.00000000000E+00  0.00000000000E+00  0.17963804855E+03  0.17963804855E+03  0.00000000000E+00 0. -1.
         21   -1    0    0  502  503 -0.00000000000E+00 -0.00000000000E+00 -0.22117589332E+03  0.22117589332E+03  0.00000000000E+00 0. -1.
          6    1    1    2  501    0  0.33316853692E+02 -0.40323369001E+02  0.63749348615E+02  0.19164802706E+03  0.17300000000E+03 0. -1.
         -6    1    1    2    0  503 -0.33316853692E+02  0.40323369001E+02 -0.10528719339E+03  0.20916591481E+03  0.17300000000E+03 0. -1.
</event>
<event>
 4    1  0.6104111E+000  0.1000000E+03  0.7546771E-02  0.1280296E+00
         21   -1    0    0  501  502  0.00000000000E+00  0.00000000000E+00  0.59031446523E+03  0.59031446523E+03  0.00000000000E+00 0. -1.
         21   -1    0    0  502  503 -0.00000000000E+00 -0.00000000000E+00 -0.26160276835E+03  0.26160276835E+03  0.00000000000E+00 0. -1.
          6    1    1    2  501    0  0.15771526208E+03 -0.87764902799E+02  0.49299139351E+03  0.55276242286E+03  0.17300000000E+03 0. -1.
         -6    1    1    2    0  503 -0.15771526208E+03  0.87764902799E+02 -0.16427969662E+03  0.29915481072E+03  0.17300000000E+03 0. -1.
</event>
<event>
 4    1  0.6104111E+000  0.1000000E+03  0.7546771E-02  0.1280296E+00
         21   -1    0    0  501  502  0.00000000000E+00  0.00000000000E+00  0.82583518746E+03  0.82583518746E+03  0.00000000000E+00 0. -1.
         21   -1    0    0  502  503 -0.00000000000E+00 -0.00000000000E+00 -0.20032886338E+03  0.20032886338E+03  0.00000000000E+00 0. -1.
          6    1    1    2  501    0  0.25855265908E+03 -0.23660506174E+03  0.45478869396E+03  0.59966089494E+03  0.17300000000E+03 0.  1.
         -6    1    1    2    0  503 -0.25855265908E+03  0.23660506174E+03  0.17071763012E+03  0.42650315590E+03  0.17300000000E+03 0.  1.
</event>
<event>
 4    1  0.6104111E+000  0.1000000E+03  0.7546771E-02  0.1280296E+00
         21   -1    0    0  501  502  0.00000000000E+00  0.00000000000E+00  0.30769696011E+03  0.30769696011E+03  0.00000000000E+00 0. -1.
         21   -1    0    0  502  503 -0.00000000000E+00 -0.00000000000E+00 -0.34049225690E+03  0.34049225690E+03  0.00000000000E+00 0. -1.
          6    1    1    2  501    0  0.13092595381E+03  0.37711075285E+02  0.22113157201E+03  0.31207675774E+03  0.17300000000E+03 0.  1.
         -6    1    1    2    0  503 -0.13092595381E+03 -0.37711075285E+02 -0.25392686880E+03  0.33611245927E+03  0.17300000000E+03 0.  1.
</event>
<event>
 4    1  0.6104111E+000  0.1000000E+03  0.7546771E-02  0.1280296E+00
         21   -1    0    0  503  502  0.00000000000E+00  0.00000000000E+00  0.40347557950E+03  0.40347557950E+03  0.00000000000E+00 0. -1.
         21   -1    0    0  501  503 -0.00000000000E+00 -0.00000000000E+00 -0.15857653589E+03  0.15857653589E+03  0.00000000000E+00 0. -1.
          6    1    1    2  501    0 -0.11547954006E+03  0.32222549556E+02 -0.33404991386E+02  0.21311665895E+03  0.17300000000E+03 0. -1.
         -6    1    1    2    0  502  0.11547954006E+03 -0.32222549556E+02  0.27830403499E+03  0.34893545644E+03  0.17300000000E+03 0. -1.
</event>
<event>
 4    1  0.6104111E+000  0.1000000E+03  0.7546771E-02  0.1280296E+00
         21   -1    0    0  503  502  0.00000000000E+00  0.00000000000E+00  0.73023992859E+02  0.73023992859E+02  0.00000000000E+00 0. -1.
         21   -1    0    0  501  503 -0.00000000000E+00 -0.00000000000E+00 -0.48547518211E+03  0.48547518211E+03  0.00000000000E+00 0. -1.
          6    1    1    2  501    0 -0.38977028035E+02 -0.64580671807E+01 -0.29957288780E+03  0.34818648804E+03  0.17300000000E+03 0. -1.
         -6    1    1    2    0  502  0.38977028035E+02  0.64580671807E+01 -0.11287830145E+03  0.21031268693E+03  0.17300000000E+03 0. -1.
</event>
<event>
 4    1  0.6104111E+000  0.1000000E+03  0.7546771E-02  0.1280296E+00
         21   -1    0    0  501  502  0.00000000000E+00  0.00000000000E+00  0.15587620960E+04  0.15587620960E+04  0.00000000000E+00 0. -1.
         21   -1    0    0  502  503 -0.00000000000E+00 -0.00000000000E+00 -0.70886399848E+02  0.70886399848E+02  0.00000000000E+00 0. -1.
          6    1    1    2  501    0  0.21957047534E+03  0.58999358805E+02  0.11604670024E+04  0.11951170578E+04  0.17300000000E+03 0. -1.
         -6    1    1    2    0  503 -0.21957047534E+03 -0.58999358805E+02  0.32740869374E+03  0.43453143813E+03  0.17300000000E+03 0. -1.
</event>
<event>
 4    1  0.6104111E+000  0.1000000E+03  0.7546771E-02  0.1280296E+00
         21   -1    0    0  501  502  0.00000000000E+00  0.00000000000E+00  0.83307463831E+02  0.83307463831E+02  0.00000000000E+00 0. -1.
         21   -1    0    0  502  503 -0.00000000000E+00 -0.00000000000E+00 -0.57601024751E+03  0.57601024751E+03  0.00000000000E+00 0. -1.
          6    1    1    2  501    0  0.12476792751E+03 -0.49419656263E+02 -0.23596706836E+03  0.32189873487E+03  0.17300000000E+03 0. -1.
         -6    1    1    2    0  503 -0.12476792751E+03  0.49419656263E+02 -0.25673571532E+03  0.33741897647E+03  0.17300000000E+03 0. -1.
</event>
<event>
 4    1  0.6104111E+000  0.1000000E+03  0.7546771E-02  0.1280296E+00
         21   -1    0    0  501  502  0.00000000000E+00  0.00000000000E+00  0.11057876878E+04  0.11057876878E+04  0.00000000000E+00 0. -1.
         21   -1    0    0  502  503 -0.00000000000E+00 -0.00000000000E+00 -0.72000121059E+02  0.72000121059E+02  0.00000000000E+00 0. -1.
          6    1    1    2  501    0 -0.49404231878E+02 -0.72154741852E+02  0.94482095452E+03  0.96450128097E+03  0.17300000000E+03 0. -1.
         -6    1    1    2    0  503  0.49404231878E+02  0.72154741852E+02  0.88966612268E+02  0.21328652793E+03  0.17300000000E+03 0. -1.
</event>
<event>
 4    1  0.6104111E+000  0.1000000E+03  0.7546771E-02  0.1280296E+00
         21   -1    0    0  503  502  0.00000000000E+00  0.00000000000E+00  0.17504389599E+04  0.17504389599E+04  0.00000000000E+00 0.  1.
         21   -1    0    0  501  503 -0.00000000000E+00 -0.00000000000E+00 -0.44063145135E+02  0.44063145135E+02  0.00000000000E+00 0.  1.
          6    1    1    2  501    0 -0.79942579913E+02 -0.54469590805E+02  0.22470125299E+03  0.29962877950E+03  0.17300000000E+03 0.  1.
         -6    1    1    2    0  502  0.79942579913E+02  0.54469590805E+02  0.14816745617E+04  0.14948733255E+04  0.17300000000E+03 0.  1.
</event>
<event>
 4    1  0.6104111E+000  0.1000000E+03  0.7546771E-02  0.1280296E+00
         21   -1    0    0  503  502  0.00000000000E+00  0.00000000000E+00  0.50855173582E+03  0.50855173582E+03  0.00000000000E+00 0.  1.
         21   -1    0    0  501  503 -0.00000000000E+00 -0.00000000000E+00 -0.74906679572E+02  0.74906679572E+02  0.00000000000E+00 0.  1.
          6    1    1    2  501    0  0.43811820136E+02 -0.44901478335E+02  0.11961799943E+03  0.21948367622E+03  0.17300000000E+03 0.  1.
         -6    1    1    2    0  502 -0.43811820136E+02  0.44901478335E+02  0.31402705682E+03  0.36397473918E+03  0.17300000000E+03 0.  1.
</event>
<event>
 4    1  0.6104111E+000  0.1000000E+03  0.7546771E-02  0.1280296E+00
         21   -1    0    0  503  502  0.00000000000E+00  0.00000000000E+00  0.65021561628E+03  0.65021561628E+03  0.00000000000E+00 0. -1.
         21   -1    0    0  501  503 -0.00000000000E+00 -0.00000000000E+00 -0.64942204095E+02  0.64942204095E+02  0.00000000000E+00 0. -1.
          6    1    1    2  501    0 -0.93748292087E+02  0.59102939393E+02  0.28577798849E+03  0.35196584837E+03  0.17300000000E+03 0. -1.
         -6    1    1    2    0  502  0.93748292087E+02 -0.59102939393E+02  0.29949542370E+03  0.36319197201E+03  0.17300000000E+03 0. -1.
</event>
<event>
 4    1  0.6104111E+000  0.1000000E+03  0.7546771E-02  0.1280296E+00
         21   -1    0    0  503  502  0.00000000000E+00  0.00000000000E+00  0.39953373795E+03  0.39953373795E+03  0.00000000000E+00 0. -1.
         21   -1    0    0  501  503 -0.00000000000E+00 -0.00000000000E+00 -0.29774026216E+03  0.29774026216E+03  0.00000000000E+00 0.  1.
          6    1    1    2  501    0  0.56858391853E+01 -0.27105426799E+03 -0.75054154678E+02  0.33024971022E+03  0.17300000000E+03 0.  1.
         -6    1    1    2    0  502 -0.56858391853E+01  0.27105426799E+03  0.17684763047E+03  0.36702428989E+03  0.17300000000E+03 0.  1.
</event>
<event>
 4    1  0.6104111E+000  0.1000000E+03  0.7546771E-02  0.1280296E+00
         21   -1    0    0  503  502  0.00000000000E+00  0.00000000000E+00  0.12287514914E+04  0.12287514914E+04  0.00000000000E+00 0. -1.
         21   -1    0    0  501  503 -0.00000000000E+00 -0.00000000000E+00 -0.24004899989E+03  0.24004899989E+03  0.00000000000E+00 0. -1.
          6    1    1    2  501    0  0.13883077725E+03 -0.88402079706E+02 -0.16525838026E+03  0.29039325862E+03  0.17300000000E+03 0. -1.
         -6    1    1    2    0  502 -0.13883077725E+03  0.88402079706E+02  0.11539608717E+04  0.11784072326E+04  0.17300000000E+03 0. -1.
</event>
<event>
 4    1  0.6104111E+000  0.1000000E+03  0.7546771E-02  0.1280296E+00
         21   -1    0    0  503  502  0.00000000000E+00  0.00000000000E+00  0.90344015050E+03  0.90344015050E+03  0.00000000000E+00 0. -1.
         21   -1    0    0  501  503 -0.00000000000E+00 -0.00000000000E+00 -0.86438003755E+02  0.86438003755E+02  0.00000000000E+00 0. -1.
          6    1    1    2  501    0  0.52112561827E+02 -0.10626221107E+03  0.81176947410E+02  0.22478005559E+03  0.17300000000E+03 0. -1.
         -6    1    1    2    0  502 -0.52112561827E+02  0.10626221107E+03  0.73582519934E+03  0.76509809867E+03  0.17300000000E+03 0. -1.
</event>
<event>
 4    1  0.6104111E+000  0.1000000E+03  0.7546771E-02  0.1280296E+00
         21   -1    0    0  503  502  0.00000000000E+00  0.00000000000E+00  0.44173666724E+03  0.44173666724E+03  0.00000000000E+00 0. -1.
         21   -1    0    0  501  503 -0.00000000000E+00 -0.00000000000E+00 -0.18044085156E+03  0.18044085156E+03  0.00000000000E+00 0. -1.
          6    1    1    2  501    0  0.10847227663E+03  0.14336847817E+03 -0.14940649770E+02  0.24994595085E+03  0.17300000000E+03 0. -1.
         -6    1    1    2    0  502 -0.10847227663E+03 -0.14336847817E+03  0.27623646545E+03  0.37223156795E+03  0.17300000000E+03 0. -1.
</event>
<event>
 4    1  0.6104111E+000  0.1000000E+03  0.7546771E-02  0.1280296E+00
         21   -1    0    0  503  502  0.00000000000E+00  0.00000000000E+00  0.10920365728E+04  0.10920365728E+04  0.00000000000E+00 0. -1.
         21   -1    0    0  501  503 -0.00000000000E+00 -0.00000000000E+00 -0.55682134291E+02  0.55682134291E+02  0.00000000000E+00 0. -1.
          6    1    1    2  501    0  0.11898028271E+02 -0.46557817771E+01  0.11032579011E+03  0.20558214743E+03  0.17300000000E+03 0. -1.
         -6    1    1    2    0  502 -0.11898028271E+02  0.46557817771E+01  0.92602864839E+03  0.94213655964E+03  0.17300000000E+03 0. -1.
</event>
<event>
 4    1  0.6104111E+000  0.1000000E+03  0.7546771E-02  0.1280296E+00
         21   -1    0    0  501  502  0.00000000000E+00  0.00000000000E+00  0.44543407585E+02  0.44543407585E+02  0.00000000000E+00 0.  1.
         21   -1    0    0  502  503 -0.00000000000E+00 -0.00000000000E+00 -0.23288532357E+04  0.23288532357E+04  0.00000000000E+00 0. -1.
          6    1    1    2  501    0  0.11560394898E+03  0.75430697521E+02 -0.28001544789E+03  0.35691975878E+03  0.17300000000E+03 0.  1.
         -6    1    1    2    0  503 -0.11560394898E+03 -0.75430697521E+02 -0.20042943802E+04  0.20164768845E+04  0.17300000000E+03 0. -1.
</event>
<event>
 4    1  0.6104111E+000  0.1000000E+03  0.7546771E-02  0.1280296E+00
         21   -1    0    0  501  502  0.00000000000E+00  0.00000000000E+00  0.44317946571E+03  0.44317946571E+03  0.00000000000E+00 0.  1.
         21   -1    0    0  502  503 -0.00000000000E+00 -0.00000000000E+00 -0.32291959831E+03  0.32291959831E+03  0.00000000000E+00 0. -1.
          6    1    1    2  501    0  0.23318129424E+03 -0.43033917593E+02  0.30178232396E+03  0.42098337865E+03  0.17300000000E+03 0.  1.
         -6    1    1    2    0  503 -0.23318129424E+03  0.43033917593E+02 -0.18152245657E+03  0.34511568537E+03  0.17300000000E+03 0. -1.
</event>
<event>
 4    1  0.6104111E+000  0.1000000E+03  0.7546771E-02  0.1280296E+00
         21   -1    0    0  503  502  0.00000000000E+00  0.00000000000E+00  0.50406874400E+03  0.50406874400E+03  0.00000000000E+00 0. -1.
         21   -1    0    0  501  503 -0.00000000000E+00 -0.00000000000E+00 -0.15370613320E+03  0.15370613320E+03  0.00000000000E+00 0. -1.
          6    1    1    2  501    0  0.26496807589E+02 -0.17659472298E+03  0.27312697685E+02  0.25012548941E+03  0.17300000000E+03 0. -1.
         -6    1    1    2    0  502 -0.26496807589E+02  0.17659472298E+03  0.32304991312E+03  0.40764938779E+03  0.17300000000E+03 0. -1.
</event>
<event>
 4    1  0.6104111E+000  0.1000000E+03  0.7546771E-02  0.1280296E+00
         21   -1    0    0  503  502  0.00000000000E+00  0.00000000000E+00  0.99083131872E+02  0.99083131872E+02  0.00000000000E+00 0. -1.
         21   -1    0    0  501  503 -0.00000000000E+00 -0.00000000000E+00 -0.62948812847E+03  0.62948812847E+03  0.00000000000E+00 0. -1.
          6    1    1    2  501    0  0.61392802404E+02  0.12816108073E+03 -0.42663337464E+03  0.48180844239E+03  0.17300000000E+03 0. -1.
         -6    1    1    2    0  502 -0.61392802404E+02 -0.12816108073E+03 -0.10377162196E+03  0.24676281795E+03  0.17300000000E+03 0. -1.
</event>
<event>
 4    1  0.6104111E+000  0.1000000E+03  0.7546771E-02  0.1280296E+00
         21   -1    0    0  503  502  0.00000000000E+00  0.00000000000E+00  0.32384820938E+03  0.32384820938E+03  0.00000000000E+00 0. -1.
         21   -1    0    0  501  503 -0.00000000000E+00 -0.00000000000E+00 -0.21744431700E+03  0.21744431700E+03  0.00000000000E+00 0. -1.
          6    1    1    2  501    0 -0.12671908498E+03 -0.14189589897E+03 -0.13660051372E+02  0.25750295075E+03  0.17300000000E+03 0. -1.
         -6    1    1    2    0  502  0.12671908498E+03  0.14189589897E+03  0.12006394375E+03  0.28378957562E+03  0.17300000000E+03 0. -1.
</event>
<event>
 4    1  0.6104111E+000  0.1000000E+03  0.7546771E-02  0.1280296E+00
         21   -1    0    0  501  502  0.00000000000E+00  0.00000000000E+00  0.10537633307E+04  0.10537633307E+04  0.00000000000E+00 0. -1.
         21   -1    0    0  502  503 -0.00000000000E+00 -0.00000000000E+00 -0.68218865615E+02  0.68218865615E+02  0.00000000000E+00 0.  1.
          6    1    1    2  501    0 -0.70832285066E+02 -0.46101143187E+02  0.88317730428E+03  0.90392127910E+03  0.17300000000E+03 0. -1.
         -6    1    1    2    0  503  0.70832285066E+02  0.46101143187E+02  0.10236716083E+03  0.21806091724E+03  0.17300000000E+03 0.  1.
</event>
<event>
 4    1  0.6104111E+000  0.1000000E+03  0.7546771E-02  0.1280296E+00
         21   -1    0    0  501  502  0.00000000000E+00  0.00000000000E+00  0.34921820664E+03  0.34921820664E+03  0.00000000000E+00 0. -1.
         21   -1    0    0  502  503 -0.00000000000E+00 -0.00000000000E+00 -0.12830068111E+03  0.12830068111E+03  0.00000000000E+00 0.  1.
          6    1    1    2  501    0 -0.60545404593E+02  0.95280884119E+02  0.58379497958E+02  0.21466569050E+03  0.17300000000E+03 0. -1.
         -6    1    1    2    0  503  0.60545404593E+02 -0.95280884119E+02  0.16253802757E+03  0.26285319725E+03  0.17300000000E+03 0.  1.
</event>
<event>
 4    1  0.6104111E+000  0.1000000E+03  0.7546771E-02  0.1280296E+00
         21   -1    0    0  501  502  0.00000000000E+00  0.00000000000E+00  0.56010648689E+03  0.56010648689E+03  0.00000000000E+00 0. -1.
         21   -1    0    0  502  503 -0.00000000000E+00 -0.00000000000E+00 -0.19074857651E+03  0.19074857651E+03  0.00000000000E+00 0.  1.
          6    1    1    2  501    0  0.50568522792E+02  0.17870678643E+03  0.42123349416E+03  0.49179258598E+03  0.17300000000E+03 0. -1.
         -6    1    1    2    0  503 -0.50568522792E+02 -0.17870678643E+03 -0.51875583783E+02  0.25906247742E+03  0.17300000000E+03 0.  1.
</event>
<event>
 4    1  0.6104111E+000  0.1000000E+03  0.7546771E-02  0.1280296E+00
         21   -1    0    0  501  502  0.00000000000E+00  0.00000000000E+00  0.98000231902E+03  0.98000231902E+03  0.00000000000E+00 0. -1.
         21   -1    0    0  502  503 -0.00000000000E+00 -0.00000000000E+00 -0.10806827036E+03  0.10806827036E+03  0.00000000000E+00 0.  1.
          6    1    1    2  501    0 -0.19049626236E+03 -0.32730695678E+02  0.76448526477E+03  0.80729600795E+03  0.17300000000E+03 0. -1.
         -6    1    1    2    0  503  0.19049626236E+03  0.32730695678E+02  0.10744878389E+03  0.28077458142E+03  0.17300000000E+03 0.  1.
</event>
<event>
 4    1  0.6104111E+000  0.1000000E+03  0.7546771E-02  0.1280296E+00
         21   -1    0    0  503  502  0.00000000000E+00  0.00000000000E+00  0.55449765999E+03  0.55449765999E+03  0.00000000000E+00 0. -1.
         21   -1    0    0  501  503 -0.00000000000E+00 -0.00000000000E+00 -0.14350387501E+03  0.14350387501E+03  0.00000000000E+00 0. -1.
          6    1    1    2  501    0 -0.10648638487E+03 -0.18463595647E+03  0.12518489131E+03  0.30171185525E+03  0.17300000000E+03 0. -1.
         -6    1    1    2    0  502  0.10648638487E+03  0.18463595647E+03  0.28580889366E+03  0.39628967975E+03  0.17300000000E+03 0. -1.
</event>
<event>
 4    1  0.6104111E+000  0.1000000E+03  0.7546771E-02  0.1280296E+00
         21   -1    0    0  501  502  0.00000000000E+00  0.00000000000E+00  0.54102773186E+03  0.54102773186E+03  0.00000000000E+00 0.  1.
         21   -1    0    0  502  503 -0.00000000000E+00 -0.00000000000E+00 -0.71701485188E+02  0.71701485188E+02  0.00000000000E+00 0.  1.
          6    1    1    2  501    0  0.76183612917E+02  0.47971227150E+02  0.27749708644E+03  0.33917372318E+03  0.17300000000E+03 0.  1.
         -6    1    1    2    0  503 -0.76183612917E+02 -0.47971227150E+02  0.19182916023E+03  0.27355549387E+03  0.17300000000E+03 0.  1.
</event>
<event>
 4    1  0.6104111E+000  0.1000000E+03  0.7546771E-02  0.1280296E+00
         21   -1    0    0  501  502  0.00000000000E+00  0.00000000000E+00  0.35900064875E+03  0.35900064875E+03  0.00000000000E+00 0.  1.
         21   -1    0    0  502  503 -0.00000000000E+00 -0.00000000000E+00 -0.21440313129E+03  0.21440313129E+03  0.00000000000E+00 0.  1.
          6    1    1    2  501    0 -0.83313296432E+02 -0.19329554667E+03  0.12636815754E+03  0.30033678590E+03  0.17300000000E+03 0.  1.
         -6    1    1    2    0  503  0.83313296432E+02  0.19329554667E+03  0.18229359918E+02  0.27306699414E+03  0.17300000000E+03 0.  1.
</event>
<event>
 4    1  0.6104111E+000  0.1000000E+03  0.7546771E-02  0.1280296E+00
         21   -1    0    0  501  502  0.00000000000E+00  0.00000000000E+00  0.62126655337E+03  0.62126655337E+03  0.00000000000E+00 0.  1.
         21   -1    0    0  502  503 -0.00000000000E+00 -0.00000000000E+00 -0.94556459769E+02  0.94556459769E+02  0.00000000000E+00 0.  1.
          6    1    1    2  501    0  0.12462559139E+03 -0.24167787855E+02  0.42977118001E+03  0.48036224577E+03  0.17300000000E+03 0.  1.
         -6    1    1    2    0  503 -0.12462559139E+03  0.24167787855E+02  0.96938913594E+02  0.23546076737E+03  0.17300000000E+03 0.  1.
</event>
<event>
 4    1  0.6104111E+000  0.1000000E+03  0.7546771E-02  0.1280296E+00
         21   -1    0    0  501  502  0.00000000000E+00  0.00000000000E+00  0.12955790280E+04  0.12955790280E+04  0.00000000000E+00 0.  1.
         21   -1    0    0  502  503 -0.00000000000E+00 -0.00000000000E+00 -0.59986224032E+02  0.59986224032E+02  0.00000000000E+00 0.  1.
          6    1    1    2  501    0  0.43700587659E+02  0.12696141113E+03  0.10372090618E+04  0.10600757422E+04  0.17300000000E+03 0.  1.
         -6    1    1    2    0  503 -0.43700587659E+02 -0.12696141113E+03  0.19838374218E+03  0.29548950987E+03  0.17300000000E+03 0.  1.
</event>
<event>
 4    1  0.6104111E+000  0.1000000E+03  0.7546771E-02  0.1280296E+00
         21   -1    0    0  501  502  0.00000000000E+00  0.00000000000E+00  0.34855983362E+03  0.34855983362E+03  0.00000000000E+00 0.  1.
         21   -1    0    0  502  503 -0.00000000000E+00 -0.00000000000E+00 -0.41401591846E+03  0.41401591846E+03  0.00000000000E+00 0. -1.
          6    1    1    2  501    0  0.10453513897E+03  0.27596321841E+03  0.13310210118E+03  0.36705375973E+03  0.17300000000E+03 0.  1.
         -6    1    1    2    0  503 -0.10453513897E+03 -0.27596321841E+03 -0.19855818602E+03  0.39552199235E+03  0.17300000000E+03 0. -1.
</event>
<event>
 4    1  0.6104111E+000  0.1000000E+03  0.7546771E-02  0.1280296E+00
         21   -1    0    0  503  502  0.00000000000E+00  0.00000000000E+00  0.76043351312E+02  0.76043351312E+02  0.00000000000E+00 0.  1.
         21   -1    0    0  501  503 -0.00000000000E+00 -0.00000000000E+00 -0.12519088040E+04  0.12519088040E+04  0.00000000000E+00 0. -1.
          6    1    1    2  501    0 -0.11914537160E+02  0.15603073444E+03 -0.10225169466E+04  0.10487885642E+04  0.17300000000E+03 0. -1.
         -6    1    1    2    0  502  0.11914537160E+02 -0.15603073444E+03 -0.15334850606E+03  0.27916359110E+03  0.17300000000E+03 0.  1.
</event>
<event>
 4    1  0.6104111E+000  0.1000000E+03  0.7546771E-02  0.1280296E+00
         21   -1    0    0  503  502  0.00000000000E+00  0.00000000000E+00  0.26617031606E+03  0.26617031606E+03  0.00000000000E+00 0. -1.
         21   -1    0    0  501  503 -0.00000000000E+00 -0.00000000000E+00 -0.15608533735E+03  0.15608533735E+03  0.00000000000E+00 0. -1.
          6    1    1    2  501    0 -0.57993511026E+02  0.88823383568E+02  0.35295420568E+02  0.20597962885E+03  0.17300000000E+03 0. -1.
         -6    1    1    2    0  502  0.57993511026E+02 -0.88823383568E+02  0.74789558149E+02  0.21627602456E+03  0.17300000000E+03 0. -1.
</event>
<event>
 4    1  0.6104111E+000  0.1000000E+03  0.7546771E-02  0.1280296E+00
         21   -1    0    0  503  502  0.00000000000E+00  0.00000000000E+00  0.12904695957E+04  0.12904695957E+04  0.00000000000E+00 0. -1.
         21   -1    0    0  501  503 -0.00000000000E+00 -0.00000000000E+00 -0.33453778705E+03  0.33453778705E+03  0.00000000000E+00 0. -1.
          6    1    1    2  501    0  0.59833438799E+03 -0.10330398561E+03  0.70296605401E+03  0.94486296699E+03  0.17300000000E+03 0. -1.
         -6    1    1    2    0  502 -0.59833438799E+03  0.10330398561E+03  0.25296575466E+03  0.68014441578E+03  0.17300000000E+03 0. -1.
</event>
<event>
 4    1  0.6104111E+000  0.1000000E+03  0.7546771E-02  0.1280296E+00
         21   -1    0    0  503  502  0.00000000000E+00  0.00000000000E+00  0.57740686212E+03  0.57740686212E+03  0.00000000000E+00 0. -1.
         21   -1    0    0  501  503 -0.00000000000E+00 -0.00000000000E+00 -0.86886565142E+02  0.86886565142E+02  0.00000000000E+00 0. -1.
          6    1    1    2  501    0 -0.12831720035E+03 -0.21435131139E+02  0.15987880802E+03  0.26910035676E+03  0.17300000000E+03 0. -1.
         -6    1    1    2    0  502  0.12831720035E+03  0.21435131139E+02  0.33064148895E+03  0.39519307050E+03  0.17300000000E+03 0. -1.
</event>
<event>
 4    1  0.6104111E+000  0.1000000E+03  0.7546771E-02  0.1280296E+00
         21   -1    0    0  501  502  0.00000000000E+00  0.00000000000E+00  0.29744882276E+03  0.29744882276E+03  0.00000000000E+00 0.  1.
         21   -1    0    0  502  503 -0.00000000000E+00 -0.00000000000E+00 -0.22679033939E+03  0.22679033939E+03  0.00000000000E+00 0.  1.
          6    1    1    2  501    0  0.64222643934E+02  0.86777332839E+02  0.19766658656E+03  0.28399988192E+03  0.17300000000E+03 0.  1.
         -6    1    1    2    0  503 -0.64222643934E+02 -0.86777332839E+02 -0.12700810319E+03  0.24023928023E+03  0.17300000000E+03 0.  1.
</event>
<event>
 4    1  0.6104111E+000  0.1000000E+03  0.7546771E-02  0.1280296E+00
         21   -1    0    0  501  502  0.00000000000E+00  0.00000000000E+00  0.12130076004E+04  0.12130076004E+04  0.00000000000E+00 0.  1.
         21   -1    0    0  502  503 -0.00000000000E+00 -0.00000000000E+00 -0.34655537424E+02  0.34655537424E+02  0.00000000000E+00 0.  1.
          6    1    1    2  501    0  0.98535053974E+01  0.15351924720E+01  0.25574780412E+03  0.30892618486E+03  0.17300000000E+03 0.  1.
         -6    1    1    2    0  503 -0.98535053974E+01 -0.15351924720E+01  0.92260425885E+03  0.93873695295E+03  0.17300000000E+03 0.  1.
</event>
<event>
 4    1  0.6104111E+000  0.1000000E+03  0.7546771E-02  0.1280296E+00
         21   -1    0    0  501  502  0.00000000000E+00  0.00000000000E+00  0.10994639949E+04  0.10994639949E+04  0.00000000000E+00 0.  1.
         21   -1    0    0  502  503 -0.00000000000E+00 -0.00000000000E+00 -0.87001180852E+02  0.87001180852E+02  0.00000000000E+00 0.  1.
          6    1    1    2  501    0 -0.13162882472E+03  0.21901265249E+03  0.46631935669E+03  0.55917388340E+03  0.17300000000E+03 0.  1.
         -6    1    1    2    0  503  0.13162882472E+03 -0.21901265249E+03  0.54614345732E+03  0.62729129232E+03  0.17300000000E+03 0.  1.
</event>
<event>
 4    1  0.6104111E+000  0.1000000E+03  0.7546771E-02  0.1280296E+00
         21   -1    0    0  501  502  0.00000000000E+00  0.00000000000E+00  0.70595141121E+02  0.70595141121E+02  0.00000000000E+00 0.  1.
         21   -1    0    0  502  503 -0.00000000000E+00 -0.00000000000E+00 -0.70105848027E+03  0.70105848027E+03  0.00000000000E+00 0.  1.
          6    1    1    2  501    0  0.37606418254E+01  0.11676823167E+03 -0.18186569787E+03  0.27686295241E+03  0.17300000000E+03 0.  1.
         -6    1    1    2    0  503 -0.37606418254E+01 -0.11676823167E+03 -0.44859764128E+03  0.49479066899E+03  0.17300000000E+03 0.  1.
</event>
<event>
 4    1  0.6104111E+000  0.1000000E+03  0.7546771E-02  0.1280296E+00
         21   -1    0    0  503  502  0.00000000000E+00  0.00000000000E+00  0.22661390623E+03  0.22661390623E+03  0.00000000000E+00 0.  1.
         21   -1    0    0  501  503 -0.00000000000E+00 -0.00000000000E+00 -0.20878434543E+03  0.20878434543E+03  0.00000000000E+00 0.  1.
          6    1    1    2  501    0  0.94561551449E+02  0.65917365678E+02 -0.55150284463E+02  0.21507566107E+03  0.17300000000E+03 0.  1.
         -6    1    1    2    0  502 -0.94561551449E+02 -0.65917365678E+02  0.72979845259E+02  0.22032259059E+03  0.17300000000E+03 0.  1.
</event>
<event>
 4    1  0.6104111E+000  0.1000000E+03  0.7546771E-02  0.1280296E+00
         21   -1    0    0  503  502  0.00000000000E+00  0.00000000000E+00  0.20456517402E+03  0.20456517402E+03  0.00000000000E+00 0.  1.
         21   -1    0    0  501  503 -0.00000000000E+00 -0.00000000000E+00 -0.15603481158E+03  0.15603481158E+03  0.00000000000E+00 0. -1.
          6    1    1    2  501    0 -0.14906688452E+02 -0.37655493603E+02  0.53812797693E+01  0.17775855459E+03  0.17300000000E+03 0. -1.
         -6    1    1    2    0  502  0.14906688452E+02  0.37655493603E+02  0.43149082664E+02  0.18284143101E+03  0.17300000000E+03 0.  1.
</event>
<event>
 4    1  0.6104111E+000  0.1000000E+03  0.7546771E-02  0.1280296E+00
         21   -1    0    0  503  502  0.00000000000E+00  0.00000000000E+00  0.84511987738E+02  0.84511987738E+02  0.00000000000E+00 0.  1.
         21   -1    0    0  501  503 -0.00000000000E+00 -0.00000000000E+00 -0.40046719711E+03  0.40046719711E+03  0.00000000000E+00 0. -1.
          6    1    1    2  501    0  0.33666792000E+02 -0.29267513445E+02 -0.21581287294E+03  0.28016822866E+03  0.17300000000E+03 0. -1.
         -6    1    1    2    0  502 -0.33666792000E+02  0.29267513445E+02 -0.10014233643E+03  0.20481095618E+03  0.17300000000E+03 0.  1.
</event>
<event>
 4    1  0.6104111E+000  0.1000000E+03  0.7546771E-02  0.1280296E+00
         21   -1    0    0  503  502  0.00000000000E+00  0.00000000000E+00  0.40809444847E+03  0.40809444847E+03  0.00000000000E+00 0.  1.
         21   -1    0    0  501  503 -0.00000000000E+00 -0.00000000000E+00 -0.30056311953E+03  0.30056311953E+03  0.00000000000E+00 0. -1.
          6    1    1    2  501    0 -0.19712816249E+02 -0.15352962434E+02 -0.25327751369E+03  0.30773821265E+03  0.17300000000E+03 0. -1.
         -6    1    1    2    0  502  0.19712816249E+02  0.15352962434E+02  0.36080884263E+03  0.40091935536E+03  0.17300000000E+03 0.  1.
</event>
<event>
 4    1  0.6104111E+000  0.1000000E+03  0.7546771E-02  0.1280296E+00
         21   -1    0    0  503  502  0.00000000000E+00  0.00000000000E+00  0.61076309310E+03  0.61076309310E+03  0.00000000000E+00 0.  1.
         21   -1    0    0  501  503 -0.00000000000E+00 -0.00000000000E+00 -0.80094398595E+02  0.80094398595E+02  0.00000000000E+00 0.  1.
          6    1    1    2  501    0 -0.13158988777E+03  0.81271920236E+01  0.20271181151E+03  0.29732646761E+03  0.17300000000E+03 0.  1.
         -6    1    1    2    0  502  0.13158988777E+03 -0.81271920236E+01  0.32795688300E+03  0.39353102409E+03  0.17300000000E+03 0.  1.
</event>
<event>
 4    1  0.6104111E+000  0.1000000E+03  0.7546771E-02  0.1280296E+00
         21   -1    0    0  503  502  0.00000000000E+00  0.00000000000E+00  0.70518753137E+03  0.70518753137E+03  0.00000000000E+00 0.  1.
         21   -1    0    0  501  503 -0.00000000000E+00 -0.00000000000E+00 -0.12123958514E+03  0.12123958514E+03  0.00000000000E+00 0.  1.
          6    1    1    2  501    0 -0.10271145605E+03  0.60188952600E+02  0.44490491198E+01  0.21005034458E+03  0.17300000000E+03 0.  1.
         -6    1    1    2    0  502  0.10271145605E+03 -0.60188952600E+02  0.57949889712E+03  0.61637677193E+03  0.17300000000E+03 0.  1.
</event>
<event>
 4    1  0.6104111E+000  0.1000000E+03  0.7546771E-02  0.1280296E+00
         21   -1    0    0  501  502  0.00000000000E+00  0.00000000000E+00  0.11282983789E+03  0.11282983789E+03  0.00000000000E+00 0. -1.
         21   -1    0    0  502  503 -0.00000000000E+00 -0.00000000000E+00 -0.67704877388E+03  0.67704877388E+03  0.00000000000E+00 0. -1.
          6    1    1    2  501    0  0.68922990575E+02 -0.30879007589E+02  0.63714053758E+01  0.18887426121E+03  0.17300000000E+03 0. -1.
         -6    1    1    2    0  503 -0.68922990575E+02  0.30879007589E+02 -0.57059034137E+03  0.60100435057E+03  0.17300000000E+03 0. -1.
</event>
<event>
 4    1  0.6104111E+000  0.1000000E+03  0.7546771E-02  0.1280296E+00
         21   -1    0    0  501  502  0.00000000000E+00  0.00000000000E+00  0.24740307075E+03  0.24740307075E+03  0.00000000000E+00 0. -1.
         21   -1    0    0  502  503 -0.00000000000E+00 -0.00000000000E+00 -0.74613238787E+03  0.74613238787E+03  0.00000000000E+00 0. -1.
          6    1    1    2  501    0 -0.20706258441E+03  0.14820543504E+03  0.97169107849E+02  0.32281666679E+03  0.17300000000E+03 0. -1.
         -6    1    1    2    0  503  0.20706258441E+03 -0.14820543504E+03 -0.59589842496E+03  0.67071879183E+03  0.17300000000E+03 0. -1.
</event>
<event>
 4    1  0.6104111E+000  0.1000000E+03  0.7546771E-02  0.1280296E+00
         21   -1    0    0  501  502  0.00000000000E+00  0.00000000000E+00  0.29278612082E+03  0.29278612082E+03  0.00000000000E+00 0.  1.
         21   -1    0    0  502  503 -0.00000000000E+00 -0.00000000000E+00 -0.30673021548E+03  0.30673021548E+03  0.00000000000E+00 0. -1.
          6    1    1    2  501    0 -0.18480443619E+03  0.80660196453E+02  0.13169664216E+03  0.29653288601E+03  0.17300000000E+03 0. -1.
         -6    1    1    2    0  503  0.18480443619E+03 -0.80660196453E+02 -0.14564073682E+03  0.30298345029E+03  0.17300000000E+03 0.  1.
</event>
<event>
 4    1  0.6104111E+000  0.1000000E+03  0.7546771E-02  0.1280296E+00
         21   -1    0    0  501  502  0.00000000000E+00  0.00000000000E+00  0.63422038639E+03  0.63422038639E+03  0.00000000000E+00 0.  1.
         21   -1    0    0  502  503 -0.00000000000E+00 -0.00000000000E+00 -0.29230427143E+03  0.29230427143E+03  0.00000000000E+00 0. -1.
          6    1    1    2  501    0 -0.34022656083E+02  0.11474898318E+03  0.57516262798E+03  0.61242625588E+03  0.17300000000E+03 0. -1.
         -6    1    1    2    0  503  0.34022656083E+02 -0.11474898318E+03 -0.23324651302E+03  0.31409840194E+03  0.17300000000E+03 0.  1.
</event>
<event>
 4    1  0.6104111E+000  0.1000000E+03  0.7546771E-02  0.1280296E+00
         21   -1    0    0  501  502  0.00000000000E+00  0.00000000000E+00  0.12615172564E+03  0.12615172564E+03  0.00000000000E+00 0.  1.
         21   -1    0    0  502  503 -0.00000000000E+00 -0.00000000000E+00 -0.50749820058E+03  0.50749820058E+03  0.00000000000E+00 0. -1.
          6    1    1    2  501    0 -0.78961248100E+02 -0.10564963589E+03 -0.28879240647E+02  0.21945326337E+03  0.17300000000E+03 0. -1.
         -6    1    1    2    0  503  0.78961248100E+02  0.10564963589E+03 -0.35246723429E+03  0.41419666284E+03  0.17300000000E+03 0.  1.
</event>
<event>
 4    1  0.6104111E+000  0.1000000E+03  0.7546771E-02  0.1280296E+00
         21   -1    0    0  501  502  0.00000000000E+00  0.00000000000E+00  0.42539386044E+03  0.42539386044E+03  0.00000000000E+00 0.  1.
         21   -1    0    0  502  503 -0.00000000000E+00 -0.00000000000E+00 -0.11117175391E+03  0.11117175391E+03  0.00000000000E+00 0. -1.
          6    1    1    2  501    0 -0.96021295005E+02  0.60554785635E+02  0.23964561422E+03  0.31661647394E+03  0.17300000000E+03 0. -1.
         -6    1    1    2    0  503  0.96021295005E+02 -0.60554785635E+02  0.74576492317E+02  0.21994914040E+03  0.17300000000E+03 0.  1.
</event>
<event>
 4    1  0.6104111E+000  0.1000000E+03  0.7546771E-02  0.1280296E+00
         21   -1    0    0  501  502  0.00000000000E+00  0.00000000000E+00  0.36087841765E+03  0.36087841765E+03  0.00000000000E+00 0.  1.
         21   -1    0    0  502  503 -0.00000000000E+00 -0.00000000000E+00 -0.34684884229E+03  0.34684884229E+03  0.00000000000E+00 0. -1.
          6    1    1    2  501    0 -0.28802331012E+03 -0.44587848822E+02  0.10850274472E+03  0.35587546846E+03  0.17300000000E+03 0. -1.
         -6    1    1    2    0  503  0.28802331012E+03  0.44587848822E+02 -0.94473169361E+02  0.35185179148E+03  0.17300000000E+03 0.  1.
</event>
<event>
 4    1  0.6104111E+000  0.1000000E+03  0.7546771E-02  0.1280296E+00
         21   -1    0    0  501  502  0.00000000000E+00  0.00000000000E+00  0.26857984611E+03  0.26857984611E+03  0.00000000000E+00 0.  1.
         21   -1    0    0  502  503 -0.00000000000E+00 -0.00000000000E+00 -0.19124336617E+03  0.19124336617E+03  0.00000000000E+00 0. -1.
          6    1    1    2  501    0 -0.63579604391E+00  0.41757062997E+02  0.18102087594E+03  0.25385352878E+03  0.17300000000E+03 0. -1.
         -6    1    1    2    0  503  0.63579604391E+00 -0.41757062997E+02 -0.10368439600E+03  0.20596968350E+03  0.17300000000E+03 0.  1.
</event>
<event>
 4    1  0.6104111E+000  0.1000000E+03  0.7546771E-02  0.1280296E+00
         21   -1    0    0  501  502  0.00000000000E+00  0.00000000000E+00  0.15887341349E+04  0.15887341349E+04  0.00000000000E+00 0.  1.
         21   -1    0    0  502  503 -0.00000000000E+00 -0.00000000000E+00 -0.76671936228E+02  0.76671936228E+02  0.00000000000E+00 0. -1.
          6    1    1    2  501    0  0.11278543424E+02  0.30227158244E+03  0.80296707295E+03  0.87531733407E+03  0.17300000000E+03 0. -1.
         -6    1    1    2    0  503 -0.11278543424E+02 -0.30227158244E+03  0.70909512571E+03  0.79008873704E+03  0.17300000000E+03 0.  1.
</event>
<event>
 4    1  0.6104111E+000  0.1000000E+03  0.7546771E-02  0.1280296E+00
         21   -1    0    0  501  502  0.00000000000E+00  0.00000000000E+00  0.12015554810E+03  0.12015554810E+03  0.00000000000E+00 0. -1.
         21   -1    0    0  502  503 -0.00000000000E+00 -0.00000000000E+00 -0.29510619902E+03  0.29510619902E+03  0.00000000000E+00 0.  1.
          6    1    1    2  501    0 -0.59450413929E+01 -0.52870540521E+02 -0.30191362060E+02  0.18349701882E+03  0.17300000000E+03 0. -1.
         -6    1    1    2    0  503  0.59450413929E+01  0.52870540521E+02 -0.14475928886E+03  0.23176472830E+03  0.17300000000E+03 0.  1.
</event>
<event>
 4    1  0.6104111E+000  0.1000000E+03  0.7546771E-02  0.1280296E+00
         21   -1    0    0  503  502  0.00000000000E+00  0.00000000000E+00  0.78582171121E+02  0.78582171121E+02  0.00000000000E+00 0.  1.
         21   -1    0    0  501  503 -0.00000000000E+00 -0.00000000000E+00 -0.13279804666E+04  0.13279804666E+04  0.00000000000E+00 0.  1.
          6    1    1    2  501    0 -0.48522603779E+02 -0.22636334232E+02 -0.12070780157E+04  0.12205872286E+04  0.17300000000E+03 0.  1.
         -6    1    1    2    0  502  0.48522603779E+02  0.22636334232E+02 -0.42320279774E+02  0.18597540909E+03  0.17300000000E+03 0.  1.
</event>
<event>
 4    1  0.6104111E+000  0.1000000E+03  0.7546771E-02  0.1280296E+00
         21   -1    0    0  503  502  0.00000000000E+00  0.00000000000E+00  0.36625282898E+03  0.36625282898E+03  0.00000000000E+00 0.  1.
         21   -1    0    0  501  503 -0.00000000000E+00 -0.00000000000E+00 -0.12747000722E+03  0.12747000722E+03  0.00000000000E+00 0.  1.
          6    1    1    2  501    0  0.88391517463E+02 -0.59344476239E+02  0.35260529531E+02  0.20617257859E+03  0.17300000000E+03 0.  1.
         -6    1    1    2    0  502 -0.88391517463E+02  0.59344476239E+02  0.20352229222E+03  0.28755025761E+03  0.17300000000E+03 0.  1.
</event>
<event>
 4    1  0.6104111E+000  0.1000000E+03  0.7546771E-02  0.1280296E+00
         21   -1    0    0  501  502  0.00000000000E+00  0.00000000000E+00  0.85328443823E+02  0.85328443823E+02  0.00000000000E+00 0. -1.
         21   -1    0    0  502  503 -0.00000000000E+00 -0.00000000000E+00 -0.47476912449E+03  0.47476912449E+03  0.00000000000E+00 0. -1.
          6    1    1    2  501    0  0.18746486864E+02 -0.96218370562E+02 -0.15132123719E+03  0.24987301260E+03  0.17300000000E+03 0. -1.
         -6    1    1    2    0  503 -0.18746486864E+02  0.96218370562E+02 -0.23811944348E+03  0.31022455571E+03  0.17300000000E+03 0. -1.
</event>
<event>
 4    1  0.6104111E+000  0.1000000E+03  0.7546771E-02  0.1280296E+00
         21   -1    0    0  501  502  0.00000000000E+00  0.00000000000E+00  0.22646317565E+02  0.22646317565E+02  0.00000000000E+00 0. -1.
         21   -1    0    0  502  503 -0.00000000000E+00 -0.00000000000E+00 -0.21056979605E+04  0.21056979605E+04  0.00000000000E+00 0. -1.
          6    1    1    2  501    0  0.42129087114E+02  0.15423109396E+02 -0.43004831591E+03  0.46570729681E+03  0.17300000000E+03 0. -1.
         -6    1    1    2    0  503 -0.42129087114E+02 -0.15423109396E+02 -0.16530033270E+04  0.16626369813E+04  0.17300000000E+03 0. -1.
</event>
<event>
 4    1  0.6104111E+000  0.1000000E+03  0.7546771E-02  0.1280296E+00
         21   -1    0    0  501  502  0.00000000000E+00  0.00000000000E+00  0.15080251728E+04  0.15080251728E+04  0.00000000000E+00 0. -1.
         21   -1    0    0  502  503 -0.00000000000E+00 -0.00000000000E+00 -0.21907061894E+02  0.21907061894E+02  0.00000000000E+00 0. -1.
          6    1    1    2  501    0  0.18847524939E+01  0.50844317836E+02  0.64720608597E+03  0.67185818047E+03  0.17300000000E+03 0. -1.
         -6    1    1    2    0  503 -0.18847524939E+01 -0.50844317836E+02  0.83891202491E+03  0.85807405420E+03  0.17300000000E+03 0. -1.
</event>
<event>
 4    1  0.6104111E+000  0.1000000E+03  0.7546771E-02  0.1280296E+00
         21   -1    0    0  501  502  0.00000000000E+00  0.00000000000E+00  0.15779882371E+02  0.15779882371E+02  0.00000000000E+00 0. -1.
         21   -1    0    0  502  503 -0.00000000000E+00 -0.00000000000E+00 -0.25502206899E+04  0.25502206899E+04  0.00000000000E+00 0. -1.
          6    1    1    2  501    0 -0.43453845246E+02 -0.58780358419E+02 -0.81634544600E+03  0.83767073149E+03  0.17300000000E+03 0. -1.
         -6    1    1    2    0  503  0.43453845246E+02  0.58780358419E+02 -0.17180953616E+04  0.17283298408E+04  0.17300000000E+03 0. -1.
</event>
<event>
 4    1  0.6104111E+000  0.1000000E+03  0.7546771E-02  0.1280296E+00
         21   -1    0    0  501  502  0.00000000000E+00  0.00000000000E+00  0.52781705907E+03  0.52781705907E+03  0.00000000000E+00 0. -1.
         21   -1    0    0  502  503 -0.00000000000E+00 -0.00000000000E+00 -0.27094994417E+03  0.27094994417E+03  0.00000000000E+00 0. -1.
          6    1    1    2  501    0  0.68011678335E+02 -0.85290679814E+02  0.46437027005E+03  0.50741387068E+03  0.17300000000E+03 0. -1.
         -6    1    1    2    0  503 -0.68011678335E+02  0.85290679814E+02 -0.20750315515E+03  0.29135313255E+03  0.17300000000E+03 0. -1.
</event>
<event>
 4    1  0.6104111E+000  0.1000000E+03  0.7546771E-02  0.1280296E+00
         21   -1    0    0  501  502  0.00000000000E+00  0.00000000000E+00  0.11027399202E+03  0.11027399202E+03  0.00000000000E+00 0.  1.
         21   -1    0    0  502  503 -0.00000000000E+00 -0.00000000000E+00 -0.30408906508E+03  0.30408906508E+03  0.00000000000E+00 0. -1.
          6    1    1    2  501    0  0.35537185407E+02 -0.41527780386E+01 -0.42365658077E+02  0.18166999228E+03  0.17300000000E+03 0.  1.
         -6    1    1    2    0  503 -0.35537185407E+02  0.41527780386E+01 -0.15144941498E+03  0.23269306481E+03  0.17300000000E+03 0. -1.
</event>
<event>
 4    1  0.6104111E+000  0.1000000E+03  0.7546771E-02  0.1280296E+00
         21   -1    0    0  501  502  0.00000000000E+00  0.00000000000E+00  0.37295613687E+03  0.37295613687E+03  0.00000000000E+00 0.  1.
         21   -1    0    0  502  503 -0.00000000000E+00 -0.00000000000E+00 -0.31139501252E+03  0.31139501252E+03  0.00000000000E+00 0. -1.
          6    1    1    2  501    0 -0.22705641668E+03 -0.17253580127E+03  0.10095398500E+03  0.34848805742E+03  0.17300000000E+03 0.  1.
         -6    1    1    2    0  503  0.22705641668E+03  0.17253580127E+03 -0.39392860652E+02  0.33586309197E+03  0.17300000000E+03 0. -1.
</event>
<event>
 4    1  0.6104111E+000  0.1000000E+03  0.7546771E-02  0.1280296E+00
         21   -1    0    0  501  502  0.00000000000E+00  0.00000000000E+00  0.47304253109E+02  0.47304253109E+02  0.00000000000E+00 0.  1.
         21   -1    0    0  502  503 -0.00000000000E+00 -0.00000000000E+00 -0.12654407676E+04  0.12654407676E+04  0.00000000000E+00 0. -1.
          6    1    1    2  501    0  0.15902120989E+03  0.73659522915E+01 -0.42731891462E+03  0.48772170060E+03  0.17300000000E+03 0.  1.
         -6    1    1    2    0  503 -0.15902120989E+03 -0.73659522915E+01 -0.79081759983E+03  0.82502332006E+03  0.17300000000E+03 0. -1.
</event>
<event>
 4    1  0.6104111E+000  0.1000000E+03  0.7546771E-02  0.1280296E+00
         21   -1    0    0  501  502  0.00000000000E+00  0.00000000000E+00  0.47313647143E+03  0.47313647143E+03  0.00000000000E+00 0. -1.
         21   -1    0    0  502  503 -0.00000000000E+00 -0.00000000000E+00 -0.12796161132E+03  0.12796161132E+03  0.00000000000E+00 0. -1.
          6    1    1    2  501    0 -0.23437233647E+01  0.15464829936E+02  0.38545141398E+03  0.42278416071E+03  0.17300000000E+03 0. -1.
         -6    1    1    2    0  503  0.23437233647E+01 -0.15464829936E+02 -0.40276553872E+02  0.17831392205E+03  0.17300000000E+03 0. -1.
</event>
<event>
 4    1  0.6104111E+000  0.1000000E+03  0.7546771E-02  0.1280296E+00
         21   -1    0    0  501  502  0.00000000000E+00  0.00000000000E+00  0.35839528896E+03  0.35839528896E+03  0.00000000000E+00 0. -1.
         21   -1    0    0  502  503 -0.00000000000E+00 -0.00000000000E+00 -0.37497545095E+03  0.37497545095E+03  0.00000000000E+00 0. -1.
          6    1    1    2  501    0  0.25699056254E+02 -0.14651703805E+03  0.27872011974E+03  0.36019659782E+03  0.17300000000E+03 0. -1.
         -6    1    1    2    0  503 -0.25699056254E+02  0.14651703805E+03 -0.29530028174E+03  0.37317414209E+03  0.17300000000E+03 0. -1.
</event>
<event>
 4    1  0.6104111E+000  0.1000000E+03  0.7546771E-02  0.1280296E+00
         21   -1    0    0  501  502  0.00000000000E+00  0.00000000000E+00  0.16118023479E+03  0.16118023479E+03  0.00000000000E+00 0. -1.
         21   -1    0    0  502  503 -0.00000000000E+00 -0.00000000000E+00 -0.34586584109E+03  0.34586584109E+03  0.00000000000E+00 0. -1.
          6    1    1    2  501    0 -0.11779081787E+03 -0.13964424492E+02  0.24040505100E+02  0.21113177831E+03  0.17300000000E+03 0. -1.
         -6    1    1    2    0  503  0.11779081787E+03  0.13964424492E+02 -0.20872611140E+03  0.29591429757E+03  0.17300000000E+03 0. -1.
</event>
<event>
 4    1  0.6104111E+000  0.1000000E+03  0.7546771E-02  0.1280296E+00
         21   -1    0    0  501  502  0.00000000000E+00  0.00000000000E+00  0.18964054560E+03  0.18964054560E+03  0.00000000000E+00 0.  1.
         21   -1    0    0  502  503 -0.00000000000E+00 -0.00000000000E+00 -0.51301742335E+03  0.51301742335E+03  0.00000000000E+00 0.  1.
          6    1    1    2  501    0 -0.56071480198E+02  0.96385258170E+02  0.10229119503E+03  0.22984041739E+03  0.17300000000E+03 0.  1.
         -6    1    1    2    0  503  0.56071480198E+02 -0.96385258170E+02 -0.42566807278E+03  0.47281755157E+03  0.17300000000E+03 0.  1.
</event>
<event>
 4    1  0.6104111E+000  0.1000000E+03  0.7546771E-02  0.1280296E+00
         21   -1    0    0  503  502  0.00000000000E+00  0.00000000000E+00  0.59042175215E+02  0.59042175215E+02  0.00000000000E+00 0. -1.
         21   -1    0    0  501  503 -0.00000000000E+00 -0.00000000000E+00 -0.14654351366E+04  0.14654351366E+04  0.00000000000E+00 0. -1.
          6    1    1    2  501    0 -0.57085778350E+02  0.22881508989E+03 -0.62214277480E+03  0.68746328170E+03  0.17300000000E+03 0.  1.
         -6    1    1    2    0  502  0.57085778350E+02 -0.22881508989E+03 -0.78425018657E+03  0.83701403010E+03  0.17300000000E+03 0.  1.
</event>
<event>
 4    1  0.6104111E+000  0.1000000E+03  0.7546771E-02  0.1280296E+00
         21   -1    0    0  503  502  0.00000000000E+00  0.00000000000E+00  0.40498604467E+03  0.40498604467E+03  0.00000000000E+00 0. -1.
         21   -1    0    0  501  503 -0.00000000000E+00 -0.00000000000E+00 -0.33833385243E+03  0.33833385243E+03  0.00000000000E+00 0. -1.
          6    1    1    2  501    0  0.21000989380E+03  0.24462740944E+03  0.89631103174E+02  0.37670871983E+03  0.17300000000E+03 0.  1.
         -6    1    1    2    0  502 -0.21000989380E+03 -0.24462740944E+03 -0.22978910936E+02  0.36661117726E+03  0.17300000000E+03 0.  1.
</event>
<event>
 4    1  0.6104111E+000  0.1000000E+03  0.7546771E-02  0.1280296E+00
         21   -1    0    0  503  502  0.00000000000E+00  0.00000000000E+00  0.27460034260E+04  0.27460034260E+04  0.00000000000E+00 0. -1.
         21   -1    0    0  501  503 -0.00000000000E+00 -0.00000000000E+00 -0.16519873350E+02  0.16519873350E+02  0.00000000000E+00 0. -1.
          6    1    1    2  501    0  0.81851386886E+02 -0.72782192025E+02  0.17449819993E+04  0.17569542040E+04  0.17300000000E+03 0.  1.
         -6    1    1    2    0  502 -0.81851386886E+02  0.72782192025E+02  0.98450155335E+03  0.10055690954E+04  0.17300000000E+03 0.  1.
</event>
<event>
 4    1  0.6104111E+000  0.1000000E+03  0.7546771E-02  0.1280296E+00
         21   -1    0    0  503  502  0.00000000000E+00  0.00000000000E+00  0.14374365142E+04  0.14374365142E+04  0.00000000000E+00 0.  1.
         21   -1    0    0  501  503 -0.00000000000E+00 -0.00000000000E+00 -0.87519652925E+02  0.87519652925E+02  0.00000000000E+00 0. -1.
          6    1    1    2  501    0  0.36399311265E+02  0.27804312953E+03  0.39268193044E+03  0.51260217541E+03  0.17300000000E+03 0. -1.
         -6    1    1    2    0  502 -0.36399311265E+02 -0.27804312953E+03  0.95723493083E+03  0.10123539917E+04  0.17300000000E+03 0. -1.
</event>
<event>
 4    1  0.6104111E+000  0.1000000E+03  0.7546771E-02  0.1280296E+00
         21   -1    0    0  503  502  0.00000000000E+00  0.00000000000E+00  0.46429038914E+03  0.46429038914E+03  0.00000000000E+00 0.  1.
         21   -1    0    0  501  503 -0.00000000000E+00 -0.00000000000E+00 -0.58459487792E+03  0.58459487792E+03  0.00000000000E+00 0.  1.
          6    1    1    2  501    0  0.83355797888E+02 -0.96737862926E+02 -0.53784284914E+03  0.57923253840E+03  0.17300000000E+03 0. -1.
         -6    1    1    2    0  502 -0.83355797888E+02  0.96737862926E+02  0.41753836036E+03  0.46965272866E+03  0.17300000000E+03 0. -1.
</event>
<event>
 4    1  0.6104111E+000  0.1000000E+03  0.7546771E-02  0.1280296E+00
         21   -1    0    0  503  502  0.00000000000E+00  0.00000000000E+00  0.97512444807E+03  0.97512444807E+03  0.00000000000E+00 0.  1.
         21   -1    0    0  501  503 -0.00000000000E+00 -0.00000000000E+00 -0.42537881909E+02  0.42537881909E+02  0.00000000000E+00 0.  1.
          6    1    1    2  501    0 -0.42063380705E+01 -0.10284206926E+03  0.38902375581E+03  0.43802130893E+03  0.17300000000E+03 0.  1.
         -6    1    1    2    0  502  0.42063380705E+01  0.10284206926E+03  0.54356281035E+03  0.57964102105E+03  0.17300000000E+03 0.  1.
</event>
<event>
 4    1  0.6104111E+000  0.1000000E+03  0.7546771E-02  0.1280296E+00
         21   -1    0    0  503  502  0.00000000000E+00  0.00000000000E+00  0.32572109598E+02  0.32572109598E+02  0.00000000000E+00 0.  1.
         21   -1    0    0  501  503 -0.00000000000E+00 -0.00000000000E+00 -0.22003209348E+04  0.22003209348E+04  0.00000000000E+00 0.  1.
          6    1    1    2  501    0 -0.41429910105E+01  0.10210017504E+03 -0.18216658672E+04  0.18327130550E+04  0.17300000000E+03 0.  1.
         -6    1    1    2    0  502  0.41429910105E+01 -0.10210017504E+03 -0.34608295795E+03  0.40017998938E+03  0.17300000000E+03 0.  1.
</event>
<event>
 4    1  0.6104111E+000  0.1000000E+03  0.7546771E-02  0.1280296E+00
         21   -1    0    0  503  502  0.00000000000E+00  0.00000000000E+00  0.67585341936E+02  0.67585341936E+02  0.00000000000E+00 0.  1.
         21   -1    0    0  501  503 -0.00000000000E+00 -0.00000000000E+00 -0.94744024824E+03  0.94744024824E+03  0.00000000000E+00 0.  1.
          6    1    1    2  501    0  0.32080216399E+02  0.11348405444E+03 -0.72495100900E+03  0.75457984094E+03  0.17300000000E+03 0.  1.
         -6    1    1    2    0  502 -0.32080216399E+02 -0.11348405444E+03 -0.15490389730E+03  0.26044574924E+03  0.17300000000E+03 0.  1.
</event>
<event>
 4    1  0.6104111E+000  0.1000000E+03  0.7546771E-02  0.1280296E+00
         21   -1    0    0  501  502  0.00000000000E+00  0.00000000000E+00  0.24964528576E+03  0.24964528576E+03  0.00000000000E+00 0. -1.
         21   -1    0    0  502  503 -0.00000000000E+00 -0.00000000000E+00 -0.37724847441E+03  0.37724847441E+03  0.00000000000E+00 0. -1.
          6    1    1    2  501    0 -0.10661865743E+03 -0.18203776999E+03 -0.20731955709E+03  0.34265972417E+03  0.17300000000E+03 0. -1.
         -6    1    1    2    0  503  0.10661865743E+03  0.18203776999E+03  0.79716368442E+02  0.28423403599E+03  0.17300000000E+03 0. -1.
</event>
<event>
 4    1  0.6104111E+000  0.1000000E+03  0.7546771E-02  0.1280296E+00
         21   -1    0    0  501  502  0.00000000000E+00  0.00000000000E+00  0.13544442640E+04  0.13544442640E+04  0.00000000000E+00 0. -1.
         21   -1    0    0  502  503 -0.00000000000E+00 -0.00000000000E+00 -0.22877865857E+02  0.22877865857E+02  0.00000000000E+00 0. -1.
          6    1    1    2  501    0 -0.17951682300E+00  0.30285759927E+02  0.71216087654E+03  0.73349803923E+03  0.17300000000E+03 0. -1.
         -6    1    1    2    0  503  0.17951682300E+00 -0.30285759927E+02  0.61940552164E+03  0.64382409067E+03  0.17300000000E+03 0. -1.
</event>
<event>
 4    1  0.6104111E+000  0.1000000E+03  0.7546771E-02  0.1280296E+00
         21   -1    0    0  501  502  0.00000000000E+00  0.00000000000E+00  0.14083111481E+03  0.14083111481E+03  0.00000000000E+00 0. -1.
         21   -1    0    0  502  503 -0.00000000000E+00 -0.00000000000E+00 -0.53479525700E+03  0.53479525700E+03  0.00000000000E+00 0. -1.
          6    1    1    2  501    0 -0.19232551748E+03 -0.28747537415E+01 -0.84236344832E+02  0.27207008412E+03  0.17300000000E+03 0. -1.
         -6    1    1    2    0  503  0.19232551748E+03  0.28747537415E+01 -0.30972779735E+03  0.40355628769E+03  0.17300000000E+03 0. -1.
</event>
<event>
 4    1  0.6104111E+000  0.1000000E+03  0.7546771E-02  0.1280296E+00
         21   -1    0    0  503  502  0.00000000000E+00  0.00000000000E+00  0.17397808510E+03  0.17397808510E+03  0.00000000000E+00 0.  1.
         21   -1    0    0  501  503 -0.00000000000E+00 -0.00000000000E+00 -0.32381940638E+03  0.32381940638E+03  0.00000000000E+00 0. -1.
          6    1    1    2  501    0  0.11253755678E+03 -0.67075325440E+02 -0.17574605353E+03  0.27924805514E+03  0.17300000000E+03 0. -1.
         -6    1    1    2    0  502 -0.11253755678E+03  0.67075325440E+02  0.25904732254E+02  0.21854943633E+03  0.17300000000E+03 0.  1.
</event>
<event>
 4    1  0.6104111E+000  0.1000000E+03  0.7546771E-02  0.1280296E+00
         21   -1    0    0  503  502  0.00000000000E+00  0.00000000000E+00  0.11330669612E+04  0.11330669612E+04  0.00000000000E+00 0.  1.
         21   -1    0    0  501  503 -0.00000000000E+00 -0.00000000000E+00 -0.41003381269E+02  0.41003381269E+02  0.00000000000E+00 0. -1.
          6    1    1    2  501    0 -0.76952258005E+02  0.10104615709E+03  0.49165725603E+03  0.53645860351E+03  0.17300000000E+03 0. -1.
         -6    1    1    2    0  502  0.76952258005E+02 -0.10104615709E+03  0.60040632387E+03  0.63761173892E+03  0.17300000000E+03 0.  1.
</event>
<event>
 4    1  0.6104111E+000  0.1000000E+03  0.7546771E-02  0.1280296E+00
         21   -1    0    0  503  502  0.00000000000E+00  0.00000000000E+00  0.17920309754E+03  0.17920309754E+03  0.00000000000E+00 0. -1.
         21   -1    0    0  501  503 -0.00000000000E+00 -0.00000000000E+00 -0.31043548998E+03  0.31043548998E+03  0.00000000000E+00 0. -1.
          6    1    1    2  501    0  0.13605494099E+03 -0.24996233050E+02 -0.14972581592E+03  0.26736226096E+03  0.17300000000E+03 0. -1.
         -6    1    1    2    0  502 -0.13605494099E+03  0.24996233050E+02  0.18493423476E+02  0.22227632655E+03  0.17300000000E+03 0. -1.
</event>
<event>
 4    1  0.6104111E+000  0.1000000E+03  0.7546771E-02  0.1280296E+00
         21   -1    0    0  503  502  0.00000000000E+00  0.00000000000E+00  0.23952831513E+03  0.23952831513E+03  0.00000000000E+00 0. -1.
         21   -1    0    0  501  503 -0.00000000000E+00 -0.00000000000E+00 -0.23385704101E+03  0.23385704101E+03  0.00000000000E+00 0. -1.
          6    1    1    2  501    0  0.74111051291E+02  0.13948027983E+03 -0.30918624209E+02  0.23628829364E+03  0.17300000000E+03 0. -1.
         -6    1    1    2    0  502 -0.74111051291E+02 -0.13948027983E+03  0.36589898328E+02  0.23709706250E+03  0.17300000000E+03 0. -1.
</event>
<event>
 4    1  0.6104111E+000  0.1000000E+03  0.7546771E-02  0.1280296E+00
         21   -1    0    0  503  502  0.00000000000E+00  0.00000000000E+00  0.36337956776E+03  0.36337956776E+03  0.00000000000E+00 0. -1.
         21   -1    0    0  501  503 -0.00000000000E+00 -0.00000000000E+00 -0.49782963686E+03  0.49782963686E+03  0.00000000000E+00 0. -1.
          6    1    1    2  501    0  0.17472518333E+03 -0.14502856396E+03 -0.38643243876E+03  0.48043855360E+03  0.17300000000E+03 0. -1.
         -6    1    1    2    0  502 -0.17472518333E+03  0.14502856396E+03  0.25198236967E+03  0.38077065102E+03  0.17300000000E+03 0. -1.
</event>
<event>
 4    1  0.6104111E+000  0.1000000E+03  0.7546771E-02  0.1280296E+00
         21   -1    0    0  501  502  0.00000000000E+00  0.00000000000E+00  0.41382771260E+02  0.41382771260E+02  0.00000000000E+00 0. -1.
         21   -1    0    0  502  503 -0.00000000000E+00 -0.00000000000E+00 -0.14158930120E+04  0.14158930120E+04  0.00000000000E+00 0.  1.
          6    1    1    2  501    0 -0.15162826174E+03 -0.68127627806E+02 -0.78395857780E+03  0.81984910510E+03  0.17300000000E+03 0. -1.
         -6    1    1    2    0  503  0.15162826174E+03  0.68127627806E+02 -0.59055166294E+03  0.63742667816E+03  0.17300000000E+03 0.  1.
</event>
<event>
 4    1  0.6104111E+000  0.1000000E+03  0.7546771E-02  0.1280296E+00
         21   -1    0    0  501  502  0.00000000000E+00  0.00000000000E+00  0.19692195063E+02  0.19692195063E+02  0.00000000000E+00 0. -1.
         21   -1    0    0  502  503 -0.00000000000E+00 -0.00000000000E+00 -0.18248494197E+04  0.18248494197E+04  0.00000000000E+00 0.  1.
          6    1    1    2  501    0  0.13816571204E+02  0.50232221986E+02 -0.62342997687E+03  0.64908251388E+03  0.17300000000E+03 0. -1.
         -6    1    1    2    0  503 -0.13816571204E+02 -0.50232221986E+02 -0.11817272477E+04  0.11954591008E+04  0.17300000000E+03 0.  1.
</event>
<event>
 4    1  0.6104111E+000  0.1000000E+03  0.7546771E-02  0.1280296E+00
         21   -1    0    0  501  502  0.00000000000E+00  0.00000000000E+00  0.72179364474E+03  0.72179364474E+03  0.00000000000E+00 0. -1.
         21   -1    0    0  502  503 -0.00000000000E+00 -0.00000000000E+00 -0.15847953188E+03  0.15847953188E+03  0.00000000000E+00 0.  1.
          6    1    1    2  501    0  0.86372127558E+02  0.23585924799E+02  0.64146130012E+03  0.67038648541E+03  0.17300000000E+03 0. -1.
         -6    1    1    2    0  503 -0.86372127558E+02 -0.23585924799E+02 -0.78147187271E+02  0.20988669121E+03  0.17300000000E+03 0.  1.
</event>
<event>
 4    1  0.6104111E+000  0.1000000E+03  0.7546771E-02  0.1280296E+00
         21   -1    0    0  503  502  0.00000000000E+00  0.00000000000E+00  0.44206242292E+03  0.44206242292E+03  0.00000000000E+00 0.  1.
         21   -1    0    0  501  503 -0.00000000000E+00 -0.00000000000E+00 -0.21075899705E+03  0.21075899705E+03  0.00000000000E+00 0.  1.
          6    1    1    2  501    0  0.63751099521E+02 -0.18293673909E+02 -0.14374753856E+03  0.23450205977E+03  0.17300000000E+03 0.  1.
         -6    1    1    2    0  502 -0.63751099521E+02  0.18293673909E+02  0.37505096443E+03  0.41831936019E+03  0.17300000000E+03 0.  1.
</event>
<event>
 4    1  0.6104111E+000  0.1000000E+03  0.7546771E-02  0.1280296E+00
         21   -1    0    0  503  502  0.00000000000E+00  0.00000000000E+00  0.79226460852E+02  0.79226460852E+02  0.00000000000E+00 0.  1.
         21   -1    0    0  501  503 -0.00000000000E+00 -0.00000000000E+00 -0.91804711063E+03  0.91804711063E+03  0.00000000000E+00 0.  1.
          6    1    1    2  501    0 -0.62791566780E+02  0.70947087227E+02 -0.75947156329E+03  0.78466701568E+03  0.17300000000E+03 0.  1.
         -6    1    1    2    0  502  0.62791566780E+02 -0.70947087227E+02 -0.79349086488E+02  0.21260655580E+03  0.17300000000E+03 0.  1.
</event>
<event>
 4    1  0.6104111E+000  0.1000000E+03  0.7546771E-02  0.1280296E+00
         21   -1    0    0  503  502  0.00000000000E+00  0.00000000000E+00  0.47850256115E+03  0.47850256115E+03  0.00000000000E+00 0.  1.
         21   -1    0    0  501  503 -0.00000000000E+00 -0.00000000000E+00 -0.14166334197E+03  0.14166334197E+03  0.00000000000E+00 0.  1.
          6    1    1    2  501    0  0.12320246257E+03  0.96676521991E+02  0.30593645235E+03  0.38477436188E+03  0.17300000000E+03 0.  1.
         -6    1    1    2    0  502 -0.12320246257E+03 -0.96676521991E+02  0.30902766832E+02  0.23539154124E+03  0.17300000000E+03 0.  1.
</event>
<event>
 4    1  0.6104111E+000  0.1000000E+03  0.7546771E-02  0.1280296E+00
         21   -1    0    0  501  502  0.00000000000E+00  0.00000000000E+00  0.16381944503E+03  0.16381944503E+03  0.00000000000E+00 0. -1.
         21   -1    0    0  502  503 -0.00000000000E+00 -0.00000000000E+00 -0.25678286252E+03  0.25678286252E+03  0.00000000000E+00 0. -1.
          6    1    1    2  501    0  0.76756810110E+02 -0.59302996076E+02 -0.10004209301E+03  0.22213931128E+03  0.17300000000E+03 0. -1.
         -6    1    1    2    0  503 -0.76756810110E+02  0.59302996076E+02  0.70786755253E+01  0.19846299627E+03  0.17300000000E+03 0. -1.
</event>
<event>
 4    1  0.6104111E+000  0.1000000E+03  0.7546771E-02  0.1280296E+00
         21   -1    0    0  501  502  0.00000000000E+00  0.00000000000E+00  0.35769871319E+03  0.35769871319E+03  0.00000000000E+00 0. -1.
         21   -1    0    0  502  503 -0.00000000000E+00 -0.00000000000E+00 -0.37882613296E+03  0.37882613296E+03  0.00000000000E+00 0. -1.
          6    1    1    2  501    0  0.90311949545E+02  0.20465222825E+03  0.22519797954E+03  0.36149953354E+03  0.17300000000E+03 0. -1.
         -6    1    1    2    0  503 -0.90311949545E+02 -0.20465222825E+03 -0.24632539931E+03  0.37502531261E+03  0.17300000000E+03 0. -1.
</event>
<event>
 4    1  0.6104111E+000  0.1000000E+03  0.7546771E-02  0.1280296E+00
         21   -1    0    0  501  502  0.00000000000E+00  0.00000000000E+00  0.21811703605E+03  0.21811703605E+03  0.00000000000E+00 0. -1.
         21   -1    0    0  502  503 -0.00000000000E+00 -0.00000000000E+00 -0.22452813407E+03  0.22452813407E+03  0.00000000000E+00 0. -1.
          6    1    1    2  501    0  0.12945904781E+03 -0.29711666010E+02  0.34241441757E+02  0.22078021762E+03  0.17300000000E+03 0. -1.
         -6    1    1    2    0  503 -0.12945904781E+03  0.29711666010E+02 -0.40652539782E+02  0.22186495250E+03  0.17300000000E+03 0. -1.
</event>
<event>
 4    1  0.6104111E+000  0.1000000E+03  0.7546771E-02  0.1280296E+00
         21   -1    0    0  501  502  0.00000000000E+00  0.00000000000E+00  0.44899432521E+02  0.44899432521E+02  0.00000000000E+00 0. -1.
         21   -1    0    0  502  503 -0.00000000000E+00 -0.00000000000E+00 -0.85108065429E+03  0.85108065429E+03  0.00000000000E+00 0. -1.
          6    1    1    2  501    0 -0.94586015855E+01 -0.87347549358E+02 -0.45756328365E+03  0.49700323748E+03  0.17300000000E+03 0. -1.
         -6    1    1    2    0  503  0.94586015855E+01  0.87347549358E+02 -0.34861793812E+03  0.39897684933E+03  0.17300000000E+03 0. -1.
</event>
<event>
 4    1  0.6104111E+000  0.1000000E+03  0.7546771E-02  0.1280296E+00
         21   -1    0    0  501  502  0.00000000000E+00  0.00000000000E+00  0.10668367380E+03  0.10668367380E+03  0.00000000000E+00 0.  1.
         21   -1    0    0  502  503 -0.00000000000E+00 -0.00000000000E+00 -0.72818157875E+03  0.72818157875E+03  0.00000000000E+00 0. -1.
          6    1    1    2  501    0 -0.28814606032E+02  0.48176566957E+02  0.55578081091E+01  0.18196470085E+03  0.17300000000E+03 0. -1.
         -6    1    1    2    0  503  0.28814606032E+02 -0.48176566957E+02 -0.62705571306E+03  0.65290055170E+03  0.17300000000E+03 0. -1.
</event>
<event>
 4    1  0.6104111E+000  0.1000000E+03  0.7546771E-02  0.1280296E+00
         21   -1    0    0  501  502  0.00000000000E+00  0.00000000000E+00  0.43783036334E+03  0.43783036334E+03  0.00000000000E+00 0.  1.
         21   -1    0    0  502  503 -0.00000000000E+00 -0.00000000000E+00 -0.18599614698E+03  0.18599614698E+03  0.00000000000E+00 0. -1.
          6    1    1    2  501    0 -0.43377540257E+02 -0.71085945147E+02  0.35667406668E+03  0.40506815777E+03  0.17300000000E+03 0. -1.
         -6    1    1    2    0  503  0.43377540257E+02  0.71085945147E+02 -0.10483985032E+03  0.21875835255E+03  0.17300000000E+03 0. -1.
</event>
<event>
 4    1  0.6104111E+000  0.1000000E+03  0.7546771E-02  0.1280296E+00
         21   -1    0    0  503  502  0.00000000000E+00  0.00000000000E+00  0.67648660849E+03  0.67648660849E+03  0.00000000000E+00 0.  1.
         21   -1    0    0  501  503 -0.00000000000E+00 -0.00000000000E+00 -0.31904208450E+03  0.31904208450E+03  0.00000000000E+00 0.  1.
          6    1    1    2  501    0 -0.31227989887E+02  0.25875019771E+03 -0.18928753787E+03  0.36563044753E+03  0.17300000000E+03 0.  1.
         -6    1    1    2    0  502  0.31227989887E+02 -0.25875019771E+03  0.54673206186E+03  0.62989824546E+03  0.17300000000E+03 0.  1.
</event>
<event>
 4    1  0.6104111E+000  0.1000000E+03  0.7546771E-02  0.1280296E+00
         21   -1    0    0  503  502  0.00000000000E+00  0.00000000000E+00  0.51008536096E+02  0.51008536096E+02  0.00000000000E+00 0.  1.
         21   -1    0    0  501  503 -0.00000000000E+00 -0.00000000000E+00 -0.78630735360E+03  0.78630735360E+03  0.00000000000E+00 0.  1.
          6    1    1    2  501    0 -0.97716491955E+02 -0.19729077545E+02 -0.33515384242E+03  0.39012158027E+03  0.17300000000E+03 0.  1.
         -6    1    1    2    0  502  0.97716491955E+02  0.19729077545E+02 -0.40014497509E+03  0.44719430943E+03  0.17300000000E+03 0.  1.
</event>
<event>
 4    1  0.6104111E+000  0.1000000E+03  0.7546771E-02  0.1280296E+00
         21   -1    0    0  503  502  0.00000000000E+00  0.00000000000E+00  0.49182022069E+03  0.49182022069E+03  0.00000000000E+00 0.  1.
         21   -1    0    0  501  503 -0.00000000000E+00 -0.00000000000E+00 -0.17979200779E+03  0.17979200779E+03  0.00000000000E+00 0.  1.
          6    1    1    2  501    0 -0.85848605017E+02  0.18612483521E+03  0.11026692098E+02  0.26844557214E+03  0.17300000000E+03 0.  1.
         -6    1    1    2    0  502  0.85848605017E+02 -0.18612483521E+03  0.30100152080E+03  0.40316665635E+03  0.17300000000E+03 0.  1.
</event>
<event>
 4    1  0.6104111E+000  0.1000000E+03  0.7546771E-02  0.1280296E+00
         21   -1    0    0  503  502  0.00000000000E+00  0.00000000000E+00  0.19913729353E+03  0.19913729353E+03  0.00000000000E+00 0.  1.
         21   -1    0    0  501  503 -0.00000000000E+00 -0.00000000000E+00 -0.28874338729E+03  0.28874338729E+03  0.00000000000E+00 0.  1.
          6    1    1    2  501    0 -0.27454389878E+02  0.93915837840E+02 -0.18127616666E+03  0.26900553288E+03  0.17300000000E+03 0.  1.
         -6    1    1    2    0  502  0.27454389878E+02 -0.93915837840E+02  0.91670072898E+02  0.21887514794E+03  0.17300000000E+03 0.  1.
</event>
<event>
 4    1  0.6104111E+000  0.1000000E+03  0.7546771E-02  0.1280296E+00
         21   -1    0    0  503  502  0.00000000000E+00  0.00000000000E+00  0.54016069924E+03  0.54016069924E+03  0.00000000000E+00 0. -1.
         21   -1    0    0  501  503 -0.00000000000E+00 -0.00000000000E+00 -0.26808217036E+03  0.26808217036E+03  0.00000000000E+00 0. -1.
          6    1    1    2  501    0  0.15628501540E+03 -0.28497472293E+03  0.33940738405E+02  0.36975204188E+03  0.17300000000E+03 0. -1.
         -6    1    1    2    0  502 -0.15628501540E+03  0.28497472293E+03  0.23813779048E+03  0.43849082773E+03  0.17300000000E+03 0. -1.
</event>
<event>
 4    1  0.6104111E+000  0.1000000E+03  0.7546771E-02  0.1280296E+00
         21   -1    0    0  503  502  0.00000000000E+00  0.00000000000E+00  0.31457576197E+03  0.31457576197E+03  0.00000000000E+00 0.  1.
         21   -1    0    0  501  503 -0.00000000000E+00 -0.00000000000E+00 -0.59739588882E+03  0.59739588882E+03  0.00000000000E+00 0.  1.
          6    1    1    2  501    0  0.22103733447E+03  0.17956837595E+03 -0.43308999044E+03  0.54644143757E+03  0.17300000000E+03 0.  1.
         -6    1    1    2    0  502 -0.22103733447E+03 -0.17956837595E+03  0.15026986359E+03  0.36553021322E+03  0.17300000000E+03 0.  1.
</event>
<event>
 4    1  0.6104111E+000  0.1000000E+03  0.7546771E-02  0.1280296E+00
         21   -1    0    0  501  502  0.00000000000E+00  0.00000000000E+00  0.68921461320E+02  0.68921461320E+02  0.00000000000E+00 0. -1.
         21   -1    0    0  502  503 -0.00000000000E+00 -0.00000000000E+00 -0.94734990284E+03  0.94734990284E+03  0.00000000000E+00 0. -1.
          6    1    1    2  501    0 -0.18651924782E+03  0.21207581779E+02 -0.41702120924E+03  0.48895284056E+03  0.17300000000E+03 0. -1.
         -6    1    1    2    0  503  0.18651924782E+03 -0.21207581779E+02 -0.46140723228E+03  0.52731852360E+03  0.17300000000E+03 0. -1.
</event>
<event>
 4    1  0.6104111E+000  0.1000000E+03  0.7546771E-02  0.1280296E+00
         21   -1    0    0  501  502  0.00000000000E+00  0.00000000000E+00  0.26435640957E+03  0.26435640957E+03  0.00000000000E+00 0. -1.
         21   -1    0    0  502  503 -0.00000000000E+00 -0.00000000000E+00 -0.18005718147E+03  0.18005718147E+03  0.00000000000E+00 0. -1.
          6    1    1    2  501    0 -0.68427264007E+02 -0.97675973233E+02  0.10194972761E+03  0.23355006565E+03  0.17300000000E+03 0. -1.
         -6    1    1    2    0  503  0.68427264007E+02  0.97675973233E+02 -0.17650499512E+02  0.21086352539E+03  0.17300000000E+03 0. -1.
</event>
<event>
 4    1  0.6104111E+000  0.1000000E+03  0.7546771E-02  0.1280296E+00
         21   -1    0    0  501  502  0.00000000000E+00  0.00000000000E+00  0.12933672760E+03  0.12933672760E+03  0.00000000000E+00 0. -1.
         21   -1    0    0  502  503 -0.00000000000E+00 -0.00000000000E+00 -0.36704261039E+03  0.36704261039E+03  0.00000000000E+00 0. -1.
          6    1    1    2  501    0  0.19071876716E+02  0.28009070542E+02  0.27001006450E+02  0.17834320526E+03  0.17300000000E+03 0. -1.
         -6    1    1    2    0  503 -0.19071876716E+02 -0.28009070542E+02 -0.26470688924E+03  0.31803613273E+03  0.17300000000E+03 0. -1.
</event>
<event>
 4    1  0.6104111E+000  0.1000000E+03  0.7546771E-02  0.1280296E+00
         21   -1    0    0  501  502  0.00000000000E+00  0.00000000000E+00  0.13616110133E+03  0.13616110133E+03  0.00000000000E+00 0. -1.
         21   -1    0    0  502  503 -0.00000000000E+00 -0.00000000000E+00 -0.45573114984E+03  0.45573114984E+03  0.00000000000E+00 0. -1.
          6    1    1    2  501    0  0.45192360628E+02 -0.15600148182E+03 -0.24983392881E+03  0.34456465834E+03  0.17300000000E+03 0. -1.
         -6    1    1    2    0  503 -0.45192360628E+02  0.15600148182E+03 -0.69736119696E+02  0.24732759284E+03  0.17300000000E+03 0. -1.
</event>
<event>
 4    1  0.6104111E+000  0.1000000E+03  0.7546771E-02  0.1280296E+00
         21   -1    0    0  503  502  0.00000000000E+00  0.00000000000E+00  0.11509779660E+03  0.11509779660E+03  0.00000000000E+00 0.  1.
         21   -1    0    0  501  503 -0.00000000000E+00 -0.00000000000E+00 -0.36819256144E+03  0.36819256144E+03  0.00000000000E+00 0. -1.
          6    1    1    2  501    0  0.47941230225E+02 -0.48732133943E+02 -0.23005788480E+03  0.29585268766E+03  0.17300000000E+03 0. -1.
         -6    1    1    2    0  502 -0.47941230225E+02  0.48732133943E+02 -0.23036880037E+02  0.18743767038E+03  0.17300000000E+03 0.  1.
</event>
<event>
 4    1  0.6104111E+000  0.1000000E+03  0.7546771E-02  0.1280296E+00
         21   -1    0    0  503  502  0.00000000000E+00  0.00000000000E+00  0.15878619636E+04  0.15878619636E+04  0.00000000000E+00 0.  1.
         21   -1    0    0  501  503 -0.00000000000E+00 -0.00000000000E+00 -0.34062235292E+02  0.34062235292E+02  0.00000000000E+00 0. -1.
          6    1    1    2  501    0 -0.42481574586E+02  0.48351661185E+02  0.28357768456E+03  0.33836056286E+03  0.17300000000E+03 0. -1.
         -6    1    1    2    0  502  0.42481574586E+02 -0.48351661185E+02  0.12702220438E+04  0.12835636361E+04  0.17300000000E+03 0.  1.
</event>
<event>
 4    1  0.6104111E+000  0.1000000E+03  0.7546771E-02  0.1280296E+00
         21   -1    0    0  501  502  0.00000000000E+00  0.00000000000E+00  0.64508561106E+02  0.64508561106E+02  0.00000000000E+00 0. -1.
         21   -1    0    0  502  503 -0.00000000000E+00 -0.00000000000E+00 -0.84374705130E+03  0.84374705130E+03  0.00000000000E+00 0.  1.
          6    1    1    2  501    0 -0.75239276186E+02 -0.85564805700E+02 -0.18071622283E+03  0.27489932312E+03  0.17300000000E+03 0. -1.
         -6    1    1    2    0  503  0.75239276186E+02  0.85564805700E+02 -0.59852226736E+03  0.63335628928E+03  0.17300000000E+03 0.  1.
</event>
<event>
 4    1  0.6104111E+000  0.1000000E+03  0.7546771E-02  0.1280296E+00
         21   -1    0    0  501  502  0.00000000000E+00  0.00000000000E+00  0.14566129100E+03  0.14566129100E+03  0.00000000000E+00 0. -1.
         21   -1    0    0  502  503 -0.00000000000E+00 -0.00000000000E+00 -0.85003788354E+03  0.85003788354E+03  0.00000000000E+00 0.  1.
          6    1    1    2  501    0 -0.19406972865E+03 -0.68108157783E+00 -0.16704135211E+02  0.26052169120E+03  0.17300000000E+03 0. -1.
         -6    1    1    2    0  503  0.19406972865E+03  0.68108157783E+00 -0.68767245732E+03  0.73517748334E+03  0.17300000000E+03 0.  1.
</event>
<event>
 4    1  0.6104111E+000  0.1000000E+03  0.7546771E-02  0.1280296E+00
         21   -1    0    0  503  502  0.00000000000E+00  0.00000000000E+00  0.11570302760E+04  0.11570302760E+04  0.00000000000E+00 0.  1.
         21   -1    0    0  501  503 -0.00000000000E+00 -0.00000000000E+00 -0.58846964182E+02  0.58846964182E+02  0.00000000000E+00 0.  1.
          6    1    1    2  501    0  0.51807493566E+02 -0.14955682216E+03  0.28235383020E+03  0.36702036030E+03  0.17300000000E+03 0.  1.
         -6    1    1    2    0  502 -0.51807493566E+02  0.14955682216E+03  0.81582948159E+03  0.84885687985E+03  0.17300000000E+03 0.  1.
</event>
<event>
 4    1  0.6104111E+000  0.1000000E+03  0.7546771E-02  0.1280296E+00
         21   -1    0    0  503  502  0.00000000000E+00  0.00000000000E+00  0.13555361155E+03  0.13555361155E+03  0.00000000000E+00 0.  1.
         21   -1    0    0  501  503 -0.00000000000E+00 -0.00000000000E+00 -0.36698643772E+03  0.36698643772E+03  0.00000000000E+00 0.  1.
          6    1    1    2  501    0 -0.45556649981E+02 -0.59025721757E+02 -0.25023670514E+03  0.31322013470E+03  0.17300000000E+03 0.  1.
         -6    1    1    2    0  502  0.45556649981E+02  0.59025721757E+02  0.18803878965E+02  0.18931991456E+03  0.17300000000E+03 0.  1.
</event>
<event>
 4    1  0.6104111E+000  0.1000000E+03  0.7546771E-02  0.1280296E+00
         21   -1    0    0  501  502  0.00000000000E+00  0.00000000000E+00  0.76835610079E+03  0.76835610079E+03  0.00000000000E+00 0.  1.
         21   -1    0    0  502  503 -0.00000000000E+00 -0.00000000000E+00 -0.60802293485E+03  0.60802293485E+03  0.00000000000E+00 0.  1.
          6    1    1    2  501    0  0.28388654736E+03  0.33000018613E+03  0.58133091015E+03  0.74656970319E+03  0.17300000000E+03 0.  1.
         -6    1    1    2    0  503 -0.28388654736E+03 -0.33000018613E+03 -0.42099774421E+03  0.62980933246E+03  0.17300000000E+03 0.  1.
</event>
<event>
 4    1  0.6104111E+000  0.1000000E+03  0.7546771E-02  0.1280296E+00
         21   -1    0    0  501  502  0.00000000000E+00  0.00000000000E+00  0.65453890252E+02  0.65453890252E+02  0.00000000000E+00 0. -1.
         21   -1    0    0  502  503 -0.00000000000E+00 -0.00000000000E+00 -0.79702529673E+03  0.79702529673E+03  0.00000000000E+00 0.  1.
          6    1    1    2  501    0 -0.10425819347E+03  0.27320127704E+02 -0.17118542236E+03  0.26617589882E+03  0.17300000000E+03 0. -1.
         -6    1    1    2    0  503  0.10425819347E+03 -0.27320127704E+02 -0.56038598411E+03  0.59630328816E+03  0.17300000000E+03 0.  1.
</event>
<event>
 4    1  0.6104111E+000  0.1000000E+03  0.7546771E-02  0.1280296E+00
         21   -1    0    0  501  502  0.00000000000E+00  0.00000000000E+00  0.35169400821E+03  0.35169400821E+03  0.00000000000E+00 0.  1.
         21   -1    0    0  502  503 -0.00000000000E+00 -0.00000000000E+00 -0.12847114500E+03  0.12847114500E+03  0.00000000000E+00 0.  1.
          6    1    1    2  501    0  0.70862924189E+00  0.10028395669E+03  0.19302869994E+03  0.27793246144E+03  0.17300000000E+03 0.  1.
         -6    1    1    2    0  503 -0.70862924189E+00 -0.10028395669E+03  0.30194163277E+02  0.20223269177E+03  0.17300000000E+03 0.  1.
</event>
<event>
 4    1  0.6104111E+000  0.1000000E+03  0.7546771E-02  0.1280296E+00
         21   -1    0    0  503  502  0.00000000000E+00  0.00000000000E+00  0.71233309293E+03  0.71233309293E+03  0.00000000000E+00 0.  1.
         21   -1    0    0  501  503 -0.00000000000E+00 -0.00000000000E+00 -0.10481803036E+03  0.10481803036E+03  0.00000000000E+00 0. -1.
          6    1    1    2  501    0 -0.19943106249E+02  0.21375963738E+01 -0.11076417334E+02  0.17451069831E+03  0.17300000000E+03 0.  1.
         -6    1    1    2    0  502  0.19943106249E+02 -0.21375963738E+01  0.61859147991E+03  0.64264042498E+03  0.17300000000E+03 0. -1.
</event>
<event>
 4    1  0.6104111E+000  0.1000000E+03  0.7546771E-02  0.1280296E+00
         21   -1    0    0  503  502  0.00000000000E+00  0.00000000000E+00  0.48873869024E+03  0.48873869024E+03  0.00000000000E+00 0.  1.
         21   -1    0    0  501  503 -0.00000000000E+00 -0.00000000000E+00 -0.83421146943E+02  0.83421146943E+02  0.00000000000E+00 0. -1.
          6    1    1    2  501    0 -0.65233763474E+02 -0.70833416006E+02  0.14653233980E+03  0.24632000189E+03  0.17300000000E+03 0.  1.
         -6    1    1    2    0  502  0.65233763474E+02  0.70833416006E+02  0.25878520349E+03  0.32583983530E+03  0.17300000000E+03 0. -1.
</event>
<event>
 4    1  0.6104111E+000  0.1000000E+03  0.7546771E-02  0.1280296E+00
         21   -1    0    0  503  502  0.00000000000E+00  0.00000000000E+00  0.73130967365E+03  0.73130967365E+03  0.00000000000E+00 0.  1.
         21   -1    0    0  501  503 -0.00000000000E+00 -0.00000000000E+00 -0.52744532620E+02  0.52744532620E+02  0.00000000000E+00 0. -1.
          6    1    1    2  501    0 -0.80679987424E+02  0.45862664259E+02  0.32817919399E+03  0.38241760905E+03  0.17300000000E+03 0.  1.
         -6    1    1    2    0  502  0.80679987424E+02 -0.45862664259E+02  0.35038594705E+03  0.40163659722E+03  0.17300000000E+03 0. -1.
</event>
<event>
 4    1  0.6104111E+000  0.1000000E+03  0.7546771E-02  0.1280296E+00
         21   -1    0    0  503  502  0.00000000000E+00  0.00000000000E+00  0.97912306328E+02  0.97912306328E+02  0.00000000000E+00 0.  1.
         21   -1    0    0  501  503 -0.00000000000E+00 -0.00000000000E+00 -0.43559910900E+03  0.43559910900E+03  0.00000000000E+00 0. -1.
          6    1    1    2  501    0  0.19247189321E+02  0.63951720408E+02 -0.28624502901E+03  0.34106523345E+03  0.17300000000E+03 0.  1.
         -6    1    1    2    0  502 -0.19247189321E+02 -0.63951720408E+02 -0.51441773664E+02  0.19244618187E+03  0.17300000000E+03 0. -1.
</event>
<event>
 4    1  0.6104111E+000  0.1000000E+03  0.7546771E-02  0.1280296E+00
         21   -1    0    0  503  502  0.00000000000E+00  0.00000000000E+00  0.21909167431E+03  0.21909167431E+03  0.00000000000E+00 0. -1.
         21   -1    0    0  501  503 -0.00000000000E+00 -0.00000000000E+00 -0.14197265152E+03  0.14197265152E+03  0.00000000000E+00 0. -1.
          6    1    1    2  501    0 -0.41102154097E+01  0.34029966915E+02  0.39629873055E+02  0.18076077937E+03  0.17300000000E+03 0. -1.
         -6    1    1    2    0  502  0.41102154097E+01 -0.34029966915E+02  0.37489149735E+02  0.18030354646E+03  0.17300000000E+03 0. -1.
</event>
<event>
 4    1  0.6104111E+000  0.1000000E+03  0.7546771E-02  0.1280296E+00
         21   -1    0    0  503  502  0.00000000000E+00  0.00000000000E+00  0.45807286935E+02  0.45807286935E+02  0.00000000000E+00 0.  1.
         21   -1    0    0  501  503 -0.00000000000E+00 -0.00000000000E+00 -0.65728225866E+03  0.65728225866E+03  0.00000000000E+00 0.  1.
          6    1    1    2  501    0  0.10144820030E+02 -0.56452964084E+01 -0.29221784694E+03  0.33978678141E+03  0.17300000000E+03 0. -1.
         -6    1    1    2    0  502 -0.10144820030E+02  0.56452964084E+01 -0.31925712478E+03  0.36330276419E+03  0.17300000000E+03 0. -1.
</event>
<event>
 4    1  0.6104111E+000  0.1000000E+03  0.7546771E-02  0.1280296E+00
         21   -1    0    0  503  502  0.00000000000E+00  0.00000000000E+00  0.31401729418E+03  0.31401729418E+03  0.00000000000E+00 0. -1.
         21   -1    0    0  501  503 -0.00000000000E+00 -0.00000000000E+00 -0.14321059225E+03  0.14321059225E+03  0.00000000000E+00 0. -1.
          6    1    1    2  501    0  0.47007073954E+02 -0.99732957801E+02  0.27496232784E+02  0.20698157090E+03  0.17300000000E+03 0. -1.
         -6    1    1    2    0  502 -0.47007073954E+02  0.99732957801E+02  0.14331046914E+03  0.25024631553E+03  0.17300000000E+03 0. -1.
</event>
<event>
 4    1  0.6104111E+000  0.1000000E+03  0.7546771E-02  0.1280296E+00
         21   -1    0    0  501  502  0.00000000000E+00  0.00000000000E+00  0.70105437358E+02  0.70105437358E+02  0.00000000000E+00 0.  1.
         21   -1    0    0  502  503 -0.00000000000E+00 -0.00000000000E+00 -0.62989616336E+03  0.62989616336E+03  0.00000000000E+00 0. -1.
          6    1    1    2  501    0 -0.32082736849E+02 -0.18037349111E+02 -0.90904536976E+02  0.19886498638E+03  0.17300000000E+03 0.  1.
         -6    1    1    2    0  503  0.32082736849E+02  0.18037349111E+02 -0.46888618903E+03  0.50113661434E+03  0.17300000000E+03 0. -1.
</event>
<event>
 4    1  0.6104111E+000  0.1000000E+03  0.7546771E-02  0.1280296E+00
         21   -1    0    0  501  502  0.00000000000E+00  0.00000000000E+00  0.67176130332E+02  0.67176130332E+02  0.00000000000E+00 0.  1.
         21   -1    0    0  502  503 -0.00000000000E+00 -0.00000000000E+00 -0.62035439693E+03  0.62035439693E+03  0.00000000000E+00 0. -1.
          6    1    1    2  501    0  0.82428115850E+01 -0.60283446304E+02 -0.42760263932E+03  0.46526879864E+03  0.17300000000E+03 0.  1.
         -6    1    1    2    0  503 -0.82428115850E+01  0.60283446304E+02 -0.12557562728E+03  0.22226172862E+03  0.17300000000E+03 0. -1.
</event>
<event>
 4    1  0.6104111E+000  0.1000000E+03  0.7546771E-02  0.1280296E+00
         21   -1    0    0  501  502  0.00000000000E+00  0.00000000000E+00  0.85110965149E+03  0.85110965149E+03  0.00000000000E+00 0.  1.
         21   -1    0    0  502  503 -0.00000000000E+00 -0.00000000000E+00 -0.13701432341E+03  0.13701432341E+03  0.00000000000E+00 0.  1.
          6    1    1    2  501    0 -0.11978515951E+03 -0.52558937598E+01  0.74609476975E+03  0.77521772059E+03  0.17300000000E+03 0.  1.
         -6    1    1    2    0  503  0.11978515951E+03  0.52558937598E+01 -0.31999441680E+02  0.21290625431E+03  0.17300000000E+03 0.  1.
</event>
<event>
 4    1  0.6104111E+000  0.1000000E+03  0.7546771E-02  0.1280296E+00
         21   -1    0    0  501  502  0.00000000000E+00  0.00000000000E+00  0.54359359381E+02  0.54359359381E+02  0.00000000000E+00 0.  1.
         21   -1    0    0  502  503 -0.00000000000E+00 -0.00000000000E+00 -0.66879273695E+03  0.66879273695E+03  0.00000000000E+00 0.  1.
          6    1    1    2  501    0  0.46700947336E+02 -0.15655260369E+02 -0.18728029031E+03  0.25967089324E+03  0.17300000000E+03 0.  1.
         -6    1    1    2    0  503 -0.46700947336E+02  0.15655260369E+02 -0.42715308726E+03  0.46348120309E+03  0.17300000000E+03 0.  1.
</event>
<event>
 4    1  0.6104111E+000  0.1000000E+03  0.7546771E-02  0.1280296E+00
         21   -1    0    0  501  502  0.00000000000E+00  0.00000000000E+00  0.63228209287E+03  0.63228209287E+03  0.00000000000E+00 0.  1.
         21   -1    0    0  502  503 -0.00000000000E+00 -0.00000000000E+00 -0.71643636351E+02  0.71643636351E+02  0.00000000000E+00 0.  1.
          6    1    1    2  501    0 -0.23430482569E+02 -0.33108422934E+02  0.47405335479E+03  0.50626153160E+03  0.17300000000E+03 0.  1.
         -6    1    1    2    0  503  0.23430482569E+02  0.33108422934E+02  0.86585101730E+02  0.19766419763E+03  0.17300000000E+03 0.  1.
</event>
<event>
 4    1  0.6104111E+000  0.1000000E+03  0.7546771E-02  0.1280296E+00
         21   -1    0    0  501  502  0.00000000000E+00  0.00000000000E+00  0.15581560692E+04  0.15581560692E+04  0.00000000000E+00 0.  1.
         21   -1    0    0  502  503 -0.00000000000E+00 -0.00000000000E+00 -0.14083540669E+03  0.14083540669E+03  0.00000000000E+00 0.  1.
          6    1    1    2  501    0  0.78146198193E+02  0.22535580304E+03  0.13690623141E+04  0.14004116132E+04  0.17300000000E+03 0.  1.
         -6    1    1    2    0  503 -0.78146198193E+02 -0.22535580304E+03  0.48258348403E+02  0.29857986276E+03  0.17300000000E+03 0.  1.
</event>
<event>
 4    1  0.6104111E+000  0.1000000E+03  0.7546771E-02  0.1280296E+00
         21   -1    0    0  501  502  0.00000000000E+00  0.00000000000E+00  0.40785677514E+03  0.40785677514E+03  0.00000000000E+00 0.  1.
         21   -1    0    0  502  503 -0.00000000000E+00 -0.00000000000E+00 -0.36228173428E+03  0.36228173428E+03  0.00000000000E+00 0.  1.
          6    1    1    2  501    0  0.31341108422E+03  0.42501277017E+02  0.15642785275E+03  0.39297778484E+03  0.17300000000E+03 0.  1.
         -6    1    1    2    0  503 -0.31341108422E+03 -0.42501277017E+02 -0.11085281189E+03  0.37716072458E+03  0.17300000000E+03 0.  1.
</event>
<event>
 4    1  0.6104111E+000  0.1000000E+03  0.7546771E-02  0.1280296E+00
         21   -1    0    0  501  502  0.00000000000E+00  0.00000000000E+00  0.23450485029E+03  0.23450485029E+03  0.00000000000E+00 0.  1.
         21   -1    0    0  502  503 -0.00000000000E+00 -0.00000000000E+00 -0.13852931057E+03  0.13852931057E+03  0.00000000000E+00 0.  1.
          6    1    1    2  501    0 -0.95097198872E+01  0.41930182599E+02  0.75527268400E+02  0.19360253939E+03  0.17300000000E+03 0.  1.
         -6    1    1    2    0  503  0.95097198872E+01 -0.41930182599E+02  0.20448271319E+02  0.17943162147E+03  0.17300000000E+03 0.  1.
</event>
<event>
 4    1  0.6104111E+000  0.1000000E+03  0.7546771E-02  0.1280296E+00
         21   -1    0    0  501  502  0.00000000000E+00  0.00000000000E+00  0.24125919449E+03  0.24125919449E+03  0.00000000000E+00 0.  1.
         21   -1    0    0  502  503 -0.00000000000E+00 -0.00000000000E+00 -0.13283422056E+03  0.13283422056E+03  0.00000000000E+00 0.  1.
          6    1    1    2  501    0 -0.40393121061E+02  0.50599236559E+01  0.76652894945E+02  0.19355069971E+03  0.17300000000E+03 0.  1.
         -6    1    1    2    0  503  0.40393121061E+02 -0.50599236559E+01  0.31772078991E+02  0.18054271533E+03  0.17300000000E+03 0.  1.
</event>
<event>
 4    1  0.6104111E+000  0.1000000E+03  0.7546771E-02  0.1280296E+00
         21   -1    0    0  503  502  0.00000000000E+00  0.00000000000E+00  0.40178943098E+03  0.40178943098E+03  0.00000000000E+00 0.  1.
         21   -1    0    0  501  503 -0.00000000000E+00 -0.00000000000E+00 -0.14655231209E+03  0.14655231209E+03  0.00000000000E+00 0.  1.
          6    1    1    2  501    0  0.74782042221E+02 -0.60897426788E+02 -0.30777247237E+02  0.20044223451E+03  0.17300000000E+03 0.  1.
         -6    1    1    2    0  502 -0.74782042221E+02  0.60897426788E+02  0.28601436612E+03  0.34789950856E+03  0.17300000000E+03 0.  1.
</event>
<event>
 4    1  0.6104111E+000  0.1000000E+03  0.7546771E-02  0.1280296E+00
         21   -1    0    0  503  502  0.00000000000E+00  0.00000000000E+00  0.77346155906E+03  0.77346155906E+03  0.00000000000E+00 0.  1.
         21   -1    0    0  501  503 -0.00000000000E+00 -0.00000000000E+00 -0.57261831193E+02  0.57261831193E+02  0.00000000000E+00 0.  1.
          6    1    1    2  501    0 -0.32851616767E+02  0.83625859609E+02  0.20159007548E+03  0.28042837169E+03  0.17300000000E+03 0.  1.
         -6    1    1    2    0  502  0.32851616767E+02 -0.83625859609E+02  0.51460965238E+03  0.55029501855E+03  0.17300000000E+03 0.  1.
</event>
<event>
 4    1  0.6104111E+000  0.1000000E+03  0.7546771E-02  0.1280296E+00
         21   -1    0    0  503  502  0.00000000000E+00  0.00000000000E+00  0.28671606269E+03  0.28671606269E+03  0.00000000000E+00 0.  1.
         21   -1    0    0  501  503 -0.00000000000E+00 -0.00000000000E+00 -0.26478634883E+03  0.26478634883E+03  0.00000000000E+00 0.  1.
          6    1    1    2  501    0 -0.44962875629E+02  0.51753071997E+02 -0.19239405402E+03  0.26766492610E+03  0.17300000000E+03 0.  1.
         -6    1    1    2    0  502  0.44962875629E+02 -0.51753071997E+02  0.21432376788E+03  0.28383748541E+03  0.17300000000E+03 0.  1.
</event>
<event>
 4    1  0.6104111E+000  0.1000000E+03  0.7546771E-02  0.1280296E+00
         21   -1    0    0  503  502  0.00000000000E+00  0.00000000000E+00  0.95285994150E+03  0.95285994150E+03  0.00000000000E+00 0.  1.
         21   -1    0    0  501  503 -0.00000000000E+00 -0.00000000000E+00 -0.67950718297E+02  0.67950718297E+02  0.00000000000E+00 0.  1.
          6    1    1    2  501    0 -0.37750557236E+02 -0.82590530894E+02  0.11547736220E+03  0.22695885430E+03  0.17300000000E+03 0.  1.
         -6    1    1    2    0  502  0.37750557236E+02  0.82590530894E+02  0.76943186100E+03  0.79385180550E+03  0.17300000000E+03 0.  1.
</event>
<event>
 4    1  0.6104111E+000  0.1000000E+03  0.7546771E-02  0.1280296E+00
         21   -1    0    0  501  502  0.00000000000E+00  0.00000000000E+00  0.33163783837E+02  0.33163783837E+02  0.00000000000E+00 0. -1.
         21   -1    0    0  502  503 -0.00000000000E+00 -0.00000000000E+00 -0.16193549810E+04  0.16193549810E+04  0.00000000000E+00 0. -1.
          6    1    1    2  501    0 -0.69777630448E+02 -0.30514696848E+02 -0.31507538216E+03  0.36742558550E+03  0.17300000000E+03 0. -1.
         -6    1    1    2    0  503  0.69777630448E+02  0.30514696848E+02 -0.12711158150E+04  0.12850931794E+04  0.17300000000E+03 0. -1.
</event>
<event>
 4    1  0.6104111E+000  0.1000000E+03  0.7546771E-02  0.1280296E+00
         21   -1    0    0  503  502  0.00000000000E+00  0.00000000000E+00  0.24944979654E+03  0.24944979654E+03  0.00000000000E+00 0.  1.
         21   -1    0    0  501  503 -0.00000000000E+00 -0.00000000000E+00 -0.19358002883E+03  0.19358002883E+03  0.00000000000E+00 0.  1.
          6    1    1    2  501    0  0.42360023208E+02 -0.94989288655E+02 -0.59609653711E+02  0.21047481403E+03  0.17300000000E+03 0. -1.
         -6    1    1    2    0  502 -0.42360023208E+02  0.94989288655E+02  0.11547942143E+03  0.23255501134E+03  0.17300000000E+03 0. -1.
</event>
<event>
 4    1  0.6104111E+000  0.1000000E+03  0.7546771E-02  0.1280296E+00
         21   -1    0    0  501  502  0.00000000000E+00  0.00000000000E+00  0.63261578228E+02  0.63261578228E+02  0.00000000000E+00 0. -1.
         21   -1    0    0  502  503 -0.00000000000E+00 -0.00000000000E+00 -0.12056682233E+04  0.12056682233E+04  0.00000000000E+00 0. -1.
          6    1    1    2  501    0 -0.19542912885E+03 -0.28726724637E+02 -0.37457394191E+03  0.45744115148E+03  0.17300000000E+03 0. -1.
         -6    1    1    2    0  503  0.19542912885E+03  0.28726724637E+02 -0.76783270321E+03  0.81148865009E+03  0.17300000000E+03 0. -1.
</event>
<event>
 4    1  0.6104111E+000  0.1000000E+03  0.7546771E-02  0.1280296E+00
         21   -1    0    0  501  502  0.00000000000E+00  0.00000000000E+00  0.15131166481E+03  0.15131166481E+03  0.00000000000E+00 0. -1.
         21   -1    0    0  502  503 -0.00000000000E+00 -0.00000000000E+00 -0.20732064794E+03  0.20732064794E+03  0.00000000000E+00 0. -1.
          6    1    1    2  501    0 -0.18944538778E+02 -0.32595486431E+02 -0.23514181763E+02  0.17861488748E+03  0.17300000000E+03 0. -1.
         -6    1    1    2    0  503  0.18944538778E+02  0.32595486431E+02 -0.32494801364E+02  0.18001742527E+03  0.17300000000E+03 0. -1.
</event>
<event>
 4    1  0.6104111E+000  0.1000000E+03  0.7546771E-02  0.1280296E+00
         21   -1    0    0  501  502  0.00000000000E+00  0.00000000000E+00  0.97672673862E+02  0.97672673862E+02  0.00000000000E+00 0. -1.
         21   -1    0    0  502  503 -0.00000000000E+00 -0.00000000000E+00 -0.93012348621E+03  0.93012348621E+03  0.00000000000E+00 0. -1.
          6    1    1    2  501    0  0.97404389546E+02 -0.65121061971E+02 -0.45846343013E+02  0.21391412993E+03  0.17300000000E+03 0. -1.
         -6    1    1    2    0  503 -0.97404389546E+02  0.65121061971E+02 -0.78660446934E+03  0.81388203015E+03  0.17300000000E+03 0. -1.
</event>
<event>
 4    1  0.6104111E+000  0.1000000E+03  0.7546771E-02  0.1280296E+00
         21   -1    0    0  501  502  0.00000000000E+00  0.00000000000E+00  0.23669882025E+03  0.23669882025E+03  0.00000000000E+00 0. -1.
         21   -1    0    0  502  503 -0.00000000000E+00 -0.00000000000E+00 -0.40390428463E+03  0.40390428463E+03  0.00000000000E+00 0. -1.
          6    1    1    2  501    0 -0.69646092465E+02  0.14565962827E+03  0.12255979373E+03  0.26649054119E+03  0.17300000000E+03 0. -1.
         -6    1    1    2    0  503  0.69646092465E+02 -0.14565962827E+03 -0.28976525811E+03  0.37411256369E+03  0.17300000000E+03 0. -1.
</event>
<event>
 4    1  0.6104111E+000  0.1000000E+03  0.7546771E-02  0.1280296E+00
         21   -1    0    0  501  502  0.00000000000E+00  0.00000000000E+00  0.19953298627E+02  0.19953298627E+02  0.00000000000E+00 0. -1.
         21   -1    0    0  502  503 -0.00000000000E+00 -0.00000000000E+00 -0.31118685043E+04  0.31118685043E+04  0.00000000000E+00 0. -1.
          6    1    1    2  501    0 -0.22024231454E+02 -0.88074328539E+02 -0.57402148405E+03  0.60635947941E+03  0.17300000000E+03 0. -1.
         -6    1    1    2    0  503  0.22024231454E+02  0.88074328539E+02 -0.25178937217E+04  0.25254623236E+04  0.17300000000E+03 0. -1.
</event>
<event>
 4    1  0.6104111E+000  0.1000000E+03  0.7546771E-02  0.1280296E+00
         21   -1    0    0  501  502  0.00000000000E+00  0.00000000000E+00  0.17525607139E+03  0.17525607139E+03  0.00000000000E+00 0. -1.
         21   -1    0    0  502  503 -0.00000000000E+00 -0.00000000000E+00 -0.32680643207E+03  0.32680643207E+03  0.00000000000E+00 0. -1.
          6    1    1    2  501    0  0.15302385089E+03  0.55062545017E+02 -0.10720155581E+03  0.26051747806E+03  0.17300000000E+03 0. -1.
         -6    1    1    2    0  503 -0.15302385089E+03 -0.55062545017E+02 -0.44348804870E+02  0.24154502541E+03  0.17300000000E+03 0. -1.
</event>
<event>
 4    1  0.6104111E+000  0.1000000E+03  0.7546771E-02  0.1280296E+00
         21   -1    0    0  503  502  0.00000000000E+00  0.00000000000E+00  0.45057379180E+03  0.45057379180E+03  0.00000000000E+00 0.  1.
         21   -1    0    0  501  503 -0.00000000000E+00 -0.00000000000E+00 -0.15735702096E+03  0.15735702096E+03  0.00000000000E+00 0.  1.
          6    1    1    2  501    0 -0.43004255626E+02  0.83022199435E+02 -0.58332024220E+02  0.20511868918E+03  0.17300000000E+03 0.  1.
         -6    1    1    2    0  502  0.43004255626E+02 -0.83022199435E+02  0.35154879506E+03  0.40281212359E+03  0.17300000000E+03 0.  1.
</event>
<event>
 4    1  0.6104111E+000  0.1000000E+03  0.7546771E-02  0.1280296E+00
         21   -1    0    0  501  502  0.00000000000E+00  0.00000000000E+00  0.53077402134E+03  0.53077402134E+03  0.00000000000E+00 0.  1.
         21   -1    0    0  502  503 -0.00000000000E+00 -0.00000000000E+00 -0.76360768809E+02  0.76360768809E+02  0.00000000000E+00 0. -1.
          6    1    1    2  501    0 -0.52905107138E+02  0.97131384986E+01  0.35959092467E+03  0.40265112508E+03  0.17300000000E+03 0.  1.
         -6    1    1    2    0  503  0.52905107138E+02 -0.97131384986E+01  0.94822327863E+02  0.20448366507E+03  0.17300000000E+03 0. -1.
</event>
<event>
 4    1  0.6104111E+000  0.1000000E+03  0.7546771E-02  0.1280296E+00
         21   -1    0    0  501  502  0.00000000000E+00  0.00000000000E+00  0.23161179314E+04  0.23161179314E+04  0.00000000000E+00 0.  1.
         21   -1    0    0  502  503 -0.00000000000E+00 -0.00000000000E+00 -0.19699722633E+02  0.19699722633E+02  0.00000000000E+00 0.  1.
          6    1    1    2  501    0  0.65175546585E+02  0.20010544834E+02  0.17229498243E+04  0.17329550978E+04  0.17300000000E+03 0.  1.
         -6    1    1    2    0  503 -0.65175546585E+02 -0.20010544834E+02  0.57346838443E+03  0.60286255624E+03  0.17300000000E+03 0.  1.
</event>
<event>
 4    1  0.6104111E+000  0.1000000E+03  0.7546771E-02  0.1280296E+00
         21   -1    0    0  503  502  0.00000000000E+00  0.00000000000E+00  0.38109635650E+03  0.38109635650E+03  0.00000000000E+00 0. -1.
         21   -1    0    0  501  503 -0.00000000000E+00 -0.00000000000E+00 -0.11850364955E+03  0.11850364955E+03  0.00000000000E+00 0. -1.
          6    1    1    2  501    0 -0.18524325899E+01  0.69836523969E+01 -0.13529662130E+02  0.17367859587E+03  0.17300000000E+03 0. -1.
         -6    1    1    2    0  502  0.18524325899E+01 -0.69836523969E+01  0.27612236908E+03  0.32592141018E+03  0.17300000000E+03 0. -1.
</event>
<event>
 4    1  0.6104111E+000  0.1000000E+03  0.7546771E-02  0.1280296E+00
         21   -1    0    0  503  502  0.00000000000E+00  0.00000000000E+00  0.10089472751E+04  0.10089472751E+04  0.00000000000E+00 0. -1.
         21   -1    0    0  501  503 -0.00000000000E+00 -0.00000000000E+00 -0.58250886050E+02  0.58250886050E+02  0.00000000000E+00 0. -1.
          6    1    1    2  501    0 -0.12801193160E+03 -0.12839103524E+02  0.23132771317E+03  0.31621734312E+03  0.17300000000E+03 0. -1.
         -6    1    1    2    0  502  0.12801193160E+03  0.12839103524E+02  0.71936867593E+03  0.75098081808E+03  0.17300000000E+03 0. -1.
</event>
<event>
 4    1  0.6104111E+000  0.1000000E+03  0.7546771E-02  0.1280296E+00
         21   -1    0    0  503  502  0.00000000000E+00  0.00000000000E+00  0.12600242944E+03  0.12600242944E+03  0.00000000000E+00 0. -1.
         21   -1    0    0  501  503 -0.00000000000E+00 -0.00000000000E+00 -0.75366645250E+03  0.75366645250E+03  0.00000000000E+00 0. -1.
          6    1    1    2  501    0  0.21921871378E+03 -0.12284834628E+03 -0.37582021398E+03  0.48406445221E+03  0.17300000000E+03 0. -1.
         -6    1    1    2    0  502 -0.21921871378E+03  0.12284834628E+03 -0.25184380908E+03  0.39560442974E+03  0.17300000000E+03 0. -1.
</event>
<event>
 4    1  0.6104111E+000  0.1000000E+03  0.7546771E-02  0.1280296E+00
         21   -1    0    0  503  502  0.00000000000E+00  0.00000000000E+00  0.33799779584E+03  0.33799779584E+03  0.00000000000E+00 0. -1.
         21   -1    0    0  501  503 -0.00000000000E+00 -0.00000000000E+00 -0.18285553338E+03  0.18285553338E+03  0.00000000000E+00 0. -1.
          6    1    1    2  501    0  0.34960713226E+02  0.89163292406E+02 -0.80269980863E+02  0.21341184131E+03  0.17300000000E+03 0. -1.
         -6    1    1    2    0  502 -0.34960713226E+02 -0.89163292406E+02  0.23541224332E+03  0.30744148791E+03  0.17300000000E+03 0. -1.
</event>
<event>
 4    1  0.6104111E+000  0.1000000E+03  0.7546771E-02  0.1280296E+00
         21   -1    0    0  503  502  0.00000000000E+00  0.00000000000E+00  0.18679995174E+04  0.18679995174E+04  0.00000000000E+00 0. -1.
         21   -1    0    0  501  503 -0.00000000000E+00 -0.00000000000E+00 -0.25790279968E+02  0.25790279968E+02  0.00000000000E+00 0. -1.
          6    1    1    2  501    0 -0.33700247382E+02  0.45538781864E+02  0.39207900366E+03  0.43227818871E+03  0.17300000000E+03 0. -1.
         -6    1    1    2    0  502  0.33700247382E+02 -0.45538781864E+02  0.14501302338E+04  0.14615116087E+04  0.17300000000E+03 0. -1.
</event>
<event>
 4    1  0.6104111E+000  0.1000000E+03  0.7546771E-02  0.1280296E+00
         21   -1    0    0  503  502  0.00000000000E+00  0.00000000000E+00  0.45661216969E+03  0.45661216969E+03  0.00000000000E+00 0. -1.
         21   -1    0    0  501  503 -0.00000000000E+00 -0.00000000000E+00 -0.15202375904E+03  0.15202375904E+03  0.00000000000E+00 0.  1.
          6    1    1    2  501    0  0.29821041238E+02  0.29085489591E+02 -0.72128098852E+02  0.19200709062E+03  0.17300000000E+03 0.  1.
         -6    1    1    2    0  502 -0.29821041238E+02 -0.29085489591E+02  0.37671650950E+03  0.41662883810E+03  0.17300000000E+03 0. -1.
</event>
<event>
 4    1  0.6104111E+000  0.1000000E+03  0.7546771E-02  0.1280296E+00
         21   -1    0    0  503  502  0.00000000000E+00  0.00000000000E+00  0.20796925222E+03  0.20796925222E+03  0.00000000000E+00 0. -1.
         21   -1    0    0  501  503 -0.00000000000E+00 -0.00000000000E+00 -0.20531850883E+03  0.20531850883E+03  0.00000000000E+00 0.  1.
          6    1    1    2  501    0 -0.51197504252E+02 -0.81384193257E+02 -0.58059057784E+02  0.20626300091E+03  0.17300000000E+03 0.  1.
         -6    1    1    2    0  502  0.51197504252E+02  0.81384193257E+02  0.60709801168E+02  0.20702476014E+03  0.17300000000E+03 0. -1.
</event>
<event>
 4    1  0.6104111E+000  0.1000000E+03  0.7546771E-02  0.1280296E+00
         21   -1    0    0  503  502  0.00000000000E+00  0.00000000000E+00  0.16174778689E+04  0.16174778689E+04  0.00000000000E+00 0. -1.
         21   -1    0    0  501  503 -0.00000000000E+00 -0.00000000000E+00 -0.43406639147E+02  0.43406639147E+02  0.00000000000E+00 0.  1.
          6    1    1    2  501    0  0.89471769233E+01  0.11566936039E+03  0.27376281159E+03  0.34399786324E+03  0.17300000000E+03 0.  1.
         -6    1    1    2    0  502 -0.89471769233E+01 -0.11566936039E+03  0.13003084182E+04  0.13168866448E+04  0.17300000000E+03 0. -1.
</event>
<event>
 4    1  0.6104111E+000  0.1000000E+03  0.7546771E-02  0.1280296E+00
         21   -1    0    0  503  502  0.00000000000E+00  0.00000000000E+00  0.13417707973E+04  0.13417707973E+04  0.00000000000E+00 0. -1.
         21   -1    0    0  501  503 -0.00000000000E+00 -0.00000000000E+00 -0.34134782121E+02  0.34134782121E+02  0.00000000000E+00 0.  1.
          6    1    1    2  501    0 -0.10772651409E+03 -0.49491083109E+01  0.44443819304E+03  0.48896196472E+03  0.17300000000E+03 0.  1.
         -6    1    1    2    0  502  0.10772651409E+03  0.49491083109E+01  0.86319782209E+03  0.88694361465E+03  0.17300000000E+03 0. -1.
</event>
<event>
 4    1  0.6104111E+000  0.1000000E+03  0.7546771E-02  0.1280296E+00
         21   -1    0    0  501  502  0.00000000000E+00  0.00000000000E+00  0.22579376050E+02  0.22579376050E+02  0.00000000000E+00 0. -1.
         21   -1    0    0  502  503 -0.00000000000E+00 -0.00000000000E+00 -0.16689550850E+04  0.16689550850E+04  0.00000000000E+00 0.  1.
          6    1    1    2  501    0  0.84424737752E+01 -0.80249626950E+02 -0.66953946270E+03  0.69622077684E+03  0.17300000000E+03 0. -1.
         -6    1    1    2    0  503 -0.84424737752E+01  0.80249626950E+02 -0.97683624624E+03  0.99531368420E+03  0.17300000000E+03 0.  1.
</event>
<event>
 4    1  0.6104111E+000  0.1000000E+03  0.7546771E-02  0.1280296E+00
         21   -1    0    0  501  502  0.00000000000E+00  0.00000000000E+00  0.31596384636E+03  0.31596384636E+03  0.00000000000E+00 0.  1.
         21   -1    0    0  502  503 -0.00000000000E+00 -0.00000000000E+00 -0.16227113144E+03  0.16227113144E+03  0.00000000000E+00 0.  1.
          6    1    1    2  501    0  0.27103948288E+02 -0.55897753579E+02  0.21647926829E+03  0.28399200071E+03  0.17300000000E+03 0.  1.
         -6    1    1    2    0  503 -0.27103948288E+02  0.55897753579E+02 -0.62786553367E+02  0.19424297710E+03  0.17300000000E+03 0.  1.
</event>
<event>
 4    1  0.6104111E+000  0.1000000E+03  0.7546771E-02  0.1280296E+00
         21   -1    0    0  501  502  0.00000000000E+00  0.00000000000E+00  0.11253485183E+04  0.11253485183E+04  0.00000000000E+00 0.  1.
         21   -1    0    0  502  503 -0.00000000000E+00 -0.00000000000E+00 -0.36566868232E+03  0.36566868232E+03  0.00000000000E+00 0.  1.
          6    1    1    2  501    0  0.11628845165E+02  0.27899334043E+03  0.10201914047E+04  0.10717705054E+04  0.17300000000E+03 0.  1.
         -6    1    1    2    0  503 -0.11628845165E+02 -0.27899334043E+03 -0.26051156869E+03  0.41924669523E+03  0.17300000000E+03 0.  1.
</event>
<event>
 4    1  0.6104111E+000  0.1000000E+03  0.7546771E-02  0.1280296E+00
         21   -1    0    0  501  502  0.00000000000E+00  0.00000000000E+00  0.12376792934E+03  0.12376792934E+03  0.00000000000E+00 0.  1.
         21   -1    0    0  502  503 -0.00000000000E+00 -0.00000000000E+00 -0.42413835022E+03  0.42413835022E+03  0.00000000000E+00 0. -1.
          6    1    1    2  501    0 -0.12514966544E+03  0.69856998880E+02 -0.96401950820E+02  0.24446835209E+03  0.17300000000E+03 0. -1.
         -6    1    1    2    0  503  0.12514966544E+03 -0.69856998880E+02 -0.20396847005E+03  0.30343792747E+03  0.17300000000E+03 0.  1.
</event>
<event>
 4    1  0.6104111E+000  0.1000000E+03  0.7546771E-02  0.1280296E+00
         21   -1    0    0  501  502  0.00000000000E+00  0.00000000000E+00  0.22666409474E+03  0.22666409474E+03  0.00000000000E+00 0. -1.
         21   -1    0    0  502  503 -0.00000000000E+00 -0.00000000000E+00 -0.22547331368E+03  0.22547331368E+03  0.00000000000E+00 0. -1.
          6    1    1    2  501    0  0.14264051867E+03  0.27435966314E+02 -0.82733897940E+01  0.22604534676E+03  0.17300000000E+03 0. -1.
         -6    1    1    2    0  503 -0.14264051867E+03 -0.27435966314E+02  0.94641708532E+01  0.22609206166E+03  0.17300000000E+03 0. -1.
</event>
<event>
 4    1  0.6104111E+000  0.1000000E+03  0.7546771E-02  0.1280296E+00
         21   -1    0    0  501  502  0.00000000000E+00  0.00000000000E+00  0.15969332960E+02  0.15969332960E+02  0.00000000000E+00 0. -1.
         21   -1    0    0  502  503 -0.00000000000E+00 -0.00000000000E+00 -0.25476462837E+04  0.25476462837E+04  0.00000000000E+00 0. -1.
          6    1    1    2  501    0  0.38539536056E+02 -0.83331164458E+01 -0.65628040320E+03  0.67984388229E+03  0.17300000000E+03 0. -1.
         -6    1    1    2    0  503 -0.38539536056E+02  0.83331164458E+01 -0.18753965476E+04  0.18837717344E+04  0.17300000000E+03 0. -1.
</event>
<event>
 4    1  0.6104111E+000  0.1000000E+03  0.7546771E-02  0.1280296E+00
         21   -1    0    0  501  502  0.00000000000E+00  0.00000000000E+00  0.11520840788E+04  0.11520840788E+04  0.00000000000E+00 0. -1.
         21   -1    0    0  502  503 -0.00000000000E+00 -0.00000000000E+00 -0.79266676673E+02  0.79266676673E+02  0.00000000000E+00 0. -1.
          6    1    1    2  501    0  0.17737760752E+03 -0.15324264395E+03  0.69999046039E+03  0.75819639158E+03  0.17300000000E+03 0. -1.
         -6    1    1    2    0  503 -0.17737760752E+03  0.15324264395E+03  0.37282694169E+03  0.47315436385E+03  0.17300000000E+03 0. -1.
</event>
<event>
 4    1  0.6104111E+000  0.1000000E+03  0.7546771E-02  0.1280296E+00
         21   -1    0    0  501  502  0.00000000000E+00  0.00000000000E+00  0.35594794604E+03  0.35594794604E+03  0.00000000000E+00 0. -1.
         21   -1    0    0  502  503 -0.00000000000E+00 -0.00000000000E+00 -0.88651096352E+02  0.88651096352E+02  0.00000000000E+00 0. -1.
          6    1    1    2  501    0 -0.50835398908E+01  0.39920959940E+02  0.13042125436E+03  0.22035931796E+03  0.17300000000E+03 0. -1.
         -6    1    1    2    0  503  0.50835398908E+01 -0.39920959940E+02  0.13687559533E+03  0.22423972444E+03  0.17300000000E+03 0. -1.
</event>
<event>
 4    1  0.6104111E+000  0.1000000E+03  0.7546771E-02  0.1280296E+00
         21   -1    0    0  501  502  0.00000000000E+00  0.00000000000E+00  0.16083821365E+03  0.16083821365E+03  0.00000000000E+00 0.  1.
         21   -1    0    0  502  503 -0.00000000000E+00 -0.00000000000E+00 -0.77736796329E+03  0.77736796329E+03  0.00000000000E+00 0. -1.
          6    1    1    2  501    0  0.38186765444E+02  0.18529042060E+03  0.14827640680E+02  0.25678712575E+03  0.17300000000E+03 0.  1.
         -6    1    1    2    0  503 -0.38186765444E+02 -0.18529042060E+03 -0.63135739031E+03  0.68141905119E+03  0.17300000000E+03 0. -1.
</event>
<event>
 4    1  0.6104111E+000  0.1000000E+03  0.7546771E-02  0.1280296E+00
         21   -1    0    0  501  502  0.00000000000E+00  0.00000000000E+00  0.71883090042E+03  0.71883090042E+03  0.00000000000E+00 0.  1.
         21   -1    0    0  502  503 -0.00000000000E+00 -0.00000000000E+00 -0.17162503687E+03  0.17162503687E+03  0.00000000000E+00 0. -1.
          6    1    1    2  501    0  0.17350698890E+03  0.21967608242E+03  0.11795176006E+03  0.34957670701E+03  0.17300000000E+03 0.  1.
         -6    1    1    2    0  503 -0.17350698890E+03 -0.21967608242E+03  0.42925410349E+03  0.54087923028E+03  0.17300000000E+03 0. -1.
</event>
<event>
 4    1  0.6104111E+000  0.1000000E+03  0.7546771E-02  0.1280296E+00
         21   -1    0    0  501  502  0.00000000000E+00  0.00000000000E+00  0.10913032432E+03  0.10913032432E+03  0.00000000000E+00 0.  1.
         21   -1    0    0  502  503 -0.00000000000E+00 -0.00000000000E+00 -0.79276502000E+03  0.79276502000E+03  0.00000000000E+00 0. -1.
          6    1    1    2  501    0 -0.12129116901E+03  0.19702072320E+03 -0.42658462736E+03  0.51520108438E+03  0.17300000000E+03 0.  1.
         -6    1    1    2    0  503  0.12129116901E+03 -0.19702072320E+03 -0.25705006832E+03  0.38669425994E+03  0.17300000000E+03 0. -1.
</event>
<event>
 4    1  0.6104111E+000  0.1000000E+03  0.7546771E-02  0.1280296E+00
         21   -1    0    0  501  502  0.00000000000E+00  0.00000000000E+00  0.11474810728E+04  0.11474810728E+04  0.00000000000E+00 0.  1.
         21   -1    0    0  502  503 -0.00000000000E+00 -0.00000000000E+00 -0.38569637279E+02  0.38569637279E+02  0.00000000000E+00 0. -1.
          6    1    1    2  501    0  0.59909268251E+02 -0.73559408043E+02  0.76023105362E+03  0.78541731699E+03  0.17300000000E+03 0.  1.
         -6    1    1    2    0  503 -0.59909268251E+02  0.73559408043E+02  0.34868038187E+03  0.40063339306E+03  0.17300000000E+03 0. -1.
</event>
<event>
 4    1  0.6104111E+000  0.1000000E+03  0.7546771E-02  0.1280296E+00
         21   -1    0    0  501  502  0.00000000000E+00  0.00000000000E+00  0.25904694219E+03  0.25904694219E+03  0.00000000000E+00 0.  1.
         21   -1    0    0  502  503 -0.00000000000E+00 -0.00000000000E+00 -0.33169655083E+03  0.33169655083E+03  0.00000000000E+00 0. -1.
          6    1    1    2  501    0 -0.54003101804E+02  0.22974990486E+03 -0.53620693233E+02  0.29749879416E+03  0.17300000000E+03 0.  1.
         -6    1    1    2    0  503  0.54003101804E+02 -0.22974990486E+03 -0.19028915399E+02  0.29324469886E+03  0.17300000000E+03 0. -1.
</event>
<event>
 4    1  0.6104111E+000  0.1000000E+03  0.7546771E-02  0.1280296E+00
         21   -1    0    0  503  502  0.00000000000E+00  0.00000000000E+00  0.18093632980E+04  0.18093632980E+04  0.00000000000E+00 0.  1.
         21   -1    0    0  501  503 -0.00000000000E+00 -0.00000000000E+00 -0.32483963677E+02  0.32483963677E+02  0.00000000000E+00 0.  1.
          6    1    1    2  501    0 -0.13787298557E+03 -0.63695845905E+02  0.59964008981E+03  0.64231095137E+03  0.17300000000E+03 0.  1.
         -6    1    1    2    0  502  0.13787298557E+03  0.63695845905E+02  0.11772392445E+04  0.11995363103E+04  0.17300000000E+03 0.  1.
</event>
<event>
 4    1  0.6104111E+000  0.1000000E+03  0.7546771E-02  0.1280296E+00
         21   -1    0    0  501  502  0.00000000000E+00  0.00000000000E+00  0.22334703973E+02  0.22334703973E+02  0.00000000000E+00 0. -1.
         21   -1    0    0  502  503 -0.00000000000E+00 -0.00000000000E+00 -0.14910864770E+04  0.14910864770E+04  0.00000000000E+00 0. -1.
          6    1    1    2  501    0 -0.97579771113E+01  0.11265870711E+02 -0.50158274673E+03  0.53078846048E+03  0.17300000000E+03 0. -1.
         -6    1    1    2    0  503  0.97579771113E+01 -0.11265870711E+02 -0.96716902634E+03  0.98263272054E+03  0.17300000000E+03 0. -1.
</event>
<event>
 4    1  0.6104111E+000  0.1000000E+03  0.7546771E-02  0.1280296E+00
         21   -1    0    0  501  502  0.00000000000E+00  0.00000000000E+00  0.14252236335E+03  0.14252236335E+03  0.00000000000E+00 0. -1.
         21   -1    0    0  502  503 -0.00000000000E+00 -0.00000000000E+00 -0.29555877267E+03  0.29555877267E+03  0.00000000000E+00 0. -1.
          6    1    1    2  501    0 -0.15342528502E+02  0.10169453722E+03 -0.33595044856E+02  0.20404607107E+03  0.17300000000E+03 0. -1.
         -6    1    1    2    0  503  0.15342528502E+02 -0.10169453722E+03 -0.11944136446E+03  0.23403506495E+03  0.17300000000E+03 0. -1.
</event>
<event>
 4    1  0.6104111E+000  0.1000000E+03  0.7546771E-02  0.1280296E+00
         21   -1    0    0  501  502  0.00000000000E+00  0.00000000000E+00  0.22360987007E+03  0.22360987007E+03  0.00000000000E+00 0. -1.
         21   -1    0    0  502  503 -0.00000000000E+00 -0.00000000000E+00 -0.34912887017E+03  0.34912887017E+03  0.00000000000E+00 0. -1.
          6    1    1    2  501    0 -0.93891908302E+01  0.21689280451E+03 -0.95315959576E+02  0.29350430610E+03  0.17300000000E+03 0. -1.
         -6    1    1    2    0  503  0.93891908302E+01 -0.21689280451E+03 -0.30203040525E+02  0.27923443414E+03  0.17300000000E+03 0. -1.
</event>
<event>
 4    1  0.6104111E+000  0.1000000E+03  0.7546771E-02  0.1280296E+00
         21   -1    0    0  503  502  0.00000000000E+00  0.00000000000E+00  0.24597519886E+03  0.24597519886E+03  0.00000000000E+00 0.  1.
         21   -1    0    0  501  503 -0.00000000000E+00 -0.00000000000E+00 -0.33224127981E+03  0.33224127981E+03  0.00000000000E+00 0.  1.
          6    1    1    2  501    0 -0.65715702877E+02  0.46008334635E+02 -0.25851968209E+03  0.32124250417E+03  0.17300000000E+03 0.  1.
         -6    1    1    2    0  502  0.65715702877E+02 -0.46008334635E+02  0.17225360115E+03  0.25697397450E+03  0.17300000000E+03 0.  1.
</event>
<event>
 4    1  0.6104111E+000  0.1000000E+03  0.7546771E-02  0.1280296E+00
         21   -1    0    0  503  502  0.00000000000E+00  0.00000000000E+00  0.34704126767E+03  0.34704126767E+03  0.00000000000E+00 0. -1.
         21   -1    0    0  501  503 -0.00000000000E+00 -0.00000000000E+00 -0.29777771148E+03  0.29777771148E+03  0.00000000000E+00 0.  1.
          6    1    1    2  501    0  0.22247915801E+02  0.70678155874E+02 -0.23675023625E+03  0.30244015250E+03  0.17300000000E+03 0.  1.
         -6    1    1    2    0  502 -0.22247915801E+02 -0.70678155874E+02  0.28601379245E+03  0.34237882666E+03  0.17300000000E+03 0. -1.
</event>
<event>
 4    1  0.6104111E+000  0.1000000E+03  0.7546771E-02  0.1280296E+00
         21   -1    0    0  503  502  0.00000000000E+00  0.00000000000E+00  0.11049381787E+03  0.11049381787E+03  0.00000000000E+00 0. -1.
         21   -1    0    0  501  503 -0.00000000000E+00 -0.00000000000E+00 -0.38179168339E+03  0.38179168339E+03  0.00000000000E+00 0.  1.
          6    1    1    2  501    0  0.10483085977E+02  0.11015300243E+03 -0.13132108690E+03  0.24375768070E+03  0.17300000000E+03 0.  1.
         -6    1    1    2    0  502 -0.10483085977E+02 -0.11015300243E+03 -0.13997677863E+03  0.24852782056E+03  0.17300000000E+03 0. -1.
</event>
<event>
 4    1  0.6104111E+000  0.1000000E+03  0.7546771E-02  0.1280296E+00
         21   -1    0    0  503  502  0.00000000000E+00  0.00000000000E+00  0.20934672754E+03  0.20934672754E+03  0.00000000000E+00 0. -1.
         21   -1    0    0  501  503 -0.00000000000E+00 -0.00000000000E+00 -0.29211120510E+03  0.29211120510E+03  0.00000000000E+00 0.  1.
          6    1    1    2  501    0  0.11033151511E+03  0.39304526770E+02 -0.17553087390E+03  0.27286988977E+03  0.17300000000E+03 0.  1.
         -6    1    1    2    0  502 -0.11033151511E+03 -0.39304526770E+02  0.92766396335E+02  0.22858804287E+03  0.17300000000E+03 0. -1.
</event>
<event>
 4    1  0.6104111E+000  0.1000000E+03  0.7546771E-02  0.1280296E+00
         21   -1    0    0  503  502  0.00000000000E+00  0.00000000000E+00  0.18290884192E+03  0.18290884192E+03  0.00000000000E+00 0. -1.
         21   -1    0    0  501  503 -0.00000000000E+00 -0.00000000000E+00 -0.35611291214E+03  0.35611291214E+03  0.00000000000E+00 0.  1.
          6    1    1    2  501    0 -0.12727108770E+03 -0.95737619943E+02 -0.19137315744E+03  0.30317702259E+03  0.17300000000E+03 0.  1.
         -6    1    1    2    0  502  0.12727108770E+03  0.95737619943E+02  0.18169087217E+02  0.23584473148E+03  0.17300000000E+03 0. -1.
</event>
<event>
 4    1  0.6104111E+000  0.1000000E+03  0.7546771E-02  0.1280296E+00
         21   -1    0    0  503  502  0.00000000000E+00  0.00000000000E+00  0.28414494077E+03  0.28414494077E+03  0.00000000000E+00 0. -1.
         21   -1    0    0  501  503 -0.00000000000E+00 -0.00000000000E+00 -0.11975541728E+03  0.11975541728E+03  0.00000000000E+00 0. -1.
          6    1    1    2  501    0 -0.47702397465E+02  0.21512662296E+02  0.12257688489E+03  0.21838591088E+03  0.17300000000E+03 0. -1.
         -6    1    1    2    0  502  0.47702397465E+02 -0.21512662296E+02  0.41812638601E+02  0.18551444717E+03  0.17300000000E+03 0. -1.
</event>
<event>
 4    1  0.6104111E+000  0.1000000E+03  0.7546771E-02  0.1280296E+00
         21   -1    0    0  503  502  0.00000000000E+00  0.00000000000E+00  0.11880315950E+04  0.11880315950E+04  0.00000000000E+00 0. -1.
         21   -1    0    0  501  503 -0.00000000000E+00 -0.00000000000E+00 -0.96166830662E+02  0.96166830662E+02  0.00000000000E+00 0. -1.
          6    1    1    2  501    0 -0.10943025400E+03 -0.25743439302E+03  0.39789565342E+03  0.51623386000E+03  0.17300000000E+03 0. -1.
         -6    1    1    2    0  502  0.10943025400E+03  0.25743439302E+03  0.69396911088E+03  0.76796456563E+03  0.17300000000E+03 0. -1.
</event>
<event>
 4    1  0.6104111E+000  0.1000000E+03  0.7546771E-02  0.1280296E+00
         21   -1    0    0  503  502  0.00000000000E+00  0.00000000000E+00  0.19210215581E+02  0.19210215581E+02  0.00000000000E+00 0. -1.
         21   -1    0    0  501  503 -0.00000000000E+00 -0.00000000000E+00 -0.17109528588E+04  0.17109528588E+04  0.00000000000E+00 0. -1.
          6    1    1    2  501    0 -0.25272754946E+02 -0.65985350271E+01 -0.10725400143E+04  0.10867167686E+04  0.17300000000E+03 0. -1.
         -6    1    1    2    0  502  0.25272754946E+02  0.65985350271E+01 -0.61920262893E+03  0.64344630583E+03  0.17300000000E+03 0. -1.
</event>
<event>
 4    1  0.6104111E+000  0.1000000E+03  0.7546771E-02  0.1280296E+00
         21   -1    0    0  503  502  0.00000000000E+00  0.00000000000E+00  0.42129681767E+02  0.42129681767E+02  0.00000000000E+00 0. -1.
         21   -1    0    0  501  503 -0.00000000000E+00 -0.00000000000E+00 -0.11050240556E+04  0.11050240556E+04  0.00000000000E+00 0. -1.
          6    1    1    2  501    0  0.99267064463E+02 -0.30222735617E+02 -0.73490971112E+03  0.76209490704E+03  0.17300000000E+03 0. -1.
         -6    1    1    2    0  502 -0.99267064463E+02  0.30222735617E+02 -0.32798466269E+03  0.38505883030E+03  0.17300000000E+03 0. -1.
</event>
<event>
 4    1  0.6104111E+000  0.1000000E+03  0.7546771E-02  0.1280296E+00
         21   -1    0    0  503  502  0.00000000000E+00  0.00000000000E+00  0.31020721874E+02  0.31020721874E+02  0.00000000000E+00 0.  1.
         21   -1    0    0  501  503 -0.00000000000E+00 -0.00000000000E+00 -0.13500083674E+04  0.13500083674E+04  0.00000000000E+00 0.  1.
          6    1    1    2  501    0 -0.88615756471E+02  0.60387213934E+02 -0.73106206119E+03  0.75886764670E+03  0.17300000000E+03 0.  1.
         -6    1    1    2    0  502  0.88615756471E+02 -0.60387213934E+02 -0.58792558430E+03  0.62216144254E+03  0.17300000000E+03 0.  1.
</event>
<event>
 4    1  0.6104111E+000  0.1000000E+03  0.7546771E-02  0.1280296E+00
         21   -1    0    0  503  502  0.00000000000E+00  0.00000000000E+00  0.60778212189E+03  0.60778212189E+03  0.00000000000E+00 0.  1.
         21   -1    0    0  501  503 -0.00000000000E+00 -0.00000000000E+00 -0.17023212288E+03  0.17023212288E+03  0.00000000000E+00 0.  1.
          6    1    1    2  501    0 -0.26770156128E+02 -0.12630530643E+03 -0.69619362843E+02  0.22681606507E+03  0.17300000000E+03 0.  1.
         -6    1    1    2    0  502  0.26770156128E+02  0.12630530643E+03  0.50716936186E+03  0.55119817970E+03  0.17300000000E+03 0.  1.
</event>
<event>
 4    1  0.6104111E+000  0.1000000E+03  0.7546771E-02  0.1280296E+00
         21   -1    0    0  503  502  0.00000000000E+00  0.00000000000E+00  0.47714306700E+02  0.47714306700E+02  0.00000000000E+00 0.  1.
         21   -1    0    0  501  503 -0.00000000000E+00 -0.00000000000E+00 -0.73950389922E+03  0.73950389922E+03  0.00000000000E+00 0.  1.
          6    1    1    2  501    0 -0.64937120317E+02 -0.27778743608E+02 -0.38606060494E+03  0.42890590912E+03  0.17300000000E+03 0.  1.
         -6    1    1    2    0  502  0.64937120317E+02  0.27778743608E+02 -0.30572898758E+03  0.35831229680E+03  0.17300000000E+03 0.  1.
</event>
<event>
 4    1  0.6104111E+000  0.1000000E+03  0.7546771E-02  0.1280296E+00
         21   -1    0    0  503  502  0.00000000000E+00  0.00000000000E+00  0.17605389058E+03  0.17605389058E+03  0.00000000000E+00 0. -1.
         21   -1    0    0  501  503 -0.00000000000E+00 -0.00000000000E+00 -0.33742265650E+03  0.33742265650E+03  0.00000000000E+00 0.  1.
          6    1    1    2  501    0  0.10951820008E+02 -0.32929530154E+02 -0.25779858278E+03  0.31239943278E+03  0.17300000000E+03 0.  1.
         -6    1    1    2    0  502 -0.10951820008E+02  0.32929530154E+02  0.96429816857E+02  0.20107711430E+03  0.17300000000E+03 0. -1.
</event>
<event>
 4    1  0.6104111E+000  0.1000000E+03  0.7546771E-02  0.1280296E+00
         21   -1    0    0  503  502  0.00000000000E+00  0.00000000000E+00  0.11259685833E+03  0.11259685833E+03  0.00000000000E+00 0. -1.
         21   -1    0    0  501  503 -0.00000000000E+00 -0.00000000000E+00 -0.44825031596E+03  0.44825031596E+03  0.00000000000E+00 0.  1.
          6    1    1    2  501    0 -0.91353897743E+01  0.60934764066E+02 -0.32935466241E+03  0.37709414536E+03  0.17300000000E+03 0.  1.
         -6    1    1    2    0  502  0.91353897743E+01 -0.60934764066E+02 -0.62987952223E+01  0.18375302893E+03  0.17300000000E+03 0. -1.
</event>
<event>
 4    1  0.6104111E+000  0.1000000E+03  0.7546771E-02  0.1280296E+00
         21   -1    0    0  503  502  0.00000000000E+00  0.00000000000E+00  0.20521637444E+03  0.20521637444E+03  0.00000000000E+00 0.  1.
         21   -1    0    0  501  503 -0.00000000000E+00 -0.00000000000E+00 -0.29041019961E+03  0.29041019961E+03  0.00000000000E+00 0.  1.
          6    1    1    2  501    0 -0.46036677385E+02 -0.15904200535E+03 -0.90792603632E+02  0.25609770011E+03  0.17300000000E+03 0.  1.
         -6    1    1    2    0  502  0.46036677385E+02  0.15904200535E+03  0.55987784686E+01  0.23952887394E+03  0.17300000000E+03 0.  1.
</event>
<event>
 4    1  0.6104111E+000  0.1000000E+03  0.7546771E-02  0.1280296E+00
         21   -1    0    0  503  502  0.00000000000E+00  0.00000000000E+00  0.41975283964E+03  0.41975283964E+03  0.00000000000E+00 0.  1.
         21   -1    0    0  501  503 -0.00000000000E+00 -0.00000000000E+00 -0.13197450147E+03  0.13197450147E+03  0.00000000000E+00 0.  1.
          6    1    1    2  501    0 -0.25238909024E+01 -0.39690907909E+02 -0.37254760178E+02  0.18137986479E+03  0.17300000000E+03 0.  1.
         -6    1    1    2    0  502  0.25238909024E+01  0.39690907909E+02  0.32503309834E+03  0.37034747632E+03  0.17300000000E+03 0.  1.
</event>
<event>
 4    1  0.6104111E+000  0.1000000E+03  0.7546771E-02  0.1280296E+00
         21   -1    0    0  503  502  0.00000000000E+00  0.00000000000E+00  0.75877343318E+02  0.75877343318E+02  0.00000000000E+00 0.  1.
         21   -1    0    0  501  503 -0.00000000000E+00 -0.00000000000E+00 -0.43021341855E+03  0.43021341855E+03  0.00000000000E+00 0.  1.
          6    1    1    2  501    0 -0.14939188570E+02 -0.23037689820E+02 -0.23918177042E+03  0.29646388281E+03  0.17300000000E+03 0.  1.
         -6    1    1    2    0  502  0.14939188570E+02  0.23037689820E+02 -0.11515430481E+03  0.20962687906E+03  0.17300000000E+03 0.  1.
</event>
<event>
 4    1  0.6104111E+000  0.1000000E+03  0.7546771E-02  0.1280296E+00
         21   -1    0    0  501  502  0.00000000000E+00  0.00000000000E+00  0.63300347657E+03  0.63300347657E+03  0.00000000000E+00 0. -1.
         21   -1    0    0  502  503 -0.00000000000E+00 -0.00000000000E+00 -0.28348310448E+03  0.28348310448E+03  0.00000000000E+00 0.  1.
          6    1    1    2  501    0 -0.30499172214E+03  0.97742523992E+02  0.40913773249E+03  0.54762782592E+03  0.17300000000E+03 0. -1.
         -6    1    1    2    0  503  0.30499172214E+03 -0.97742523992E+02 -0.59617360402E+02  0.36885875512E+03  0.17300000000E+03 0.  1.
</event>
<event>
 4    1  0.6104111E+000  0.1000000E+03  0.7546771E-02  0.1280296E+00
         21   -1    0    0  501  502  0.00000000000E+00  0.00000000000E+00  0.13321090356E+04  0.13321090356E+04  0.00000000000E+00 0. -1.
         21   -1    0    0  502  503 -0.00000000000E+00 -0.00000000000E+00 -0.59813750971E+02  0.59813750971E+02  0.00000000000E+00 0.  1.
          6    1    1    2  501    0  0.12637910714E+03 -0.11975366379E+02  0.10883223456E+04  0.11092743647E+04  0.17300000000E+03 0. -1.
         -6    1    1    2    0  503 -0.12637910714E+03  0.11975366379E+02  0.18397293901E+03  0.28264842191E+03  0.17300000000E+03 0.  1.
</event>
<event>
 4    1  0.6104111E+000  0.1000000E+03  0.7546771E-02  0.1280296E+00
         21   -1    0    0  501  502  0.00000000000E+00  0.00000000000E+00  0.13405767698E+03  0.13405767698E+03  0.00000000000E+00 0. -1.
         21   -1    0    0  502  503 -0.00000000000E+00 -0.00000000000E+00 -0.65394885738E+03  0.65394885738E+03  0.00000000000E+00 0.  1.
          6    1    1    2  501    0  0.19789358570E+03 -0.10488147916E+03 -0.14412165756E+03  0.31758785888E+03  0.17300000000E+03 0. -1.
         -6    1    1    2    0  503 -0.19789358570E+03  0.10488147916E+03 -0.37576952284E+03  0.47041867547E+03  0.17300000000E+03 0.  1.
</event>
<event>
 4    1  0.6104111E+000  0.1000000E+03  0.7546771E-02  0.1280296E+00
         21   -1    0    0  501  502  0.00000000000E+00  0.00000000000E+00  0.34363984068E+03  0.34363984068E+03  0.00000000000E+00 0. -1.
         21   -1    0    0  502  503 -0.00000000000E+00 -0.00000000000E+00 -0.15086615691E+03  0.15086615691E+03  0.00000000000E+00 0.  1.
          6    1    1    2  501    0  0.11622704209E+03  0.56552279797E+02  0.17475116715E+03  0.27780182880E+03  0.17300000000E+03 0. -1.
         -6    1    1    2    0  503 -0.11622704209E+03 -0.56552279797E+02  0.18022516611E+02  0.21670416879E+03  0.17300000000E+03 0.  1.
</event>
<event>
 4    1  0.6104111E+000  0.1000000E+03  0.7546771E-02  0.1280296E+00
         21   -1    0    0  503  502  0.00000000000E+00  0.00000000000E+00  0.13057497744E+04  0.13057497744E+04  0.00000000000E+00 0. -1.
         21   -1    0    0  501  503 -0.00000000000E+00 -0.00000000000E+00 -0.33382313437E+02  0.33382313437E+02  0.00000000000E+00 0. -1.
          6    1    1    2  501    0  0.80480236627E+02 -0.25404524573E+02  0.37687882019E+03  0.42318920528E+03  0.17300000000E+03 0. -1.
         -6    1    1    2    0  502 -0.80480236627E+02  0.25404524573E+02  0.89548864076E+03  0.91594288255E+03  0.17300000000E+03 0. -1.
</event>
<event>
 4    1  0.6104111E+000  0.1000000E+03  0.7546771E-02  0.1280296E+00
         21   -1    0    0  503  502  0.00000000000E+00  0.00000000000E+00  0.15295128420E+03  0.15295128420E+03  0.00000000000E+00 0.  1.
         21   -1    0    0  501  503 -0.00000000000E+00 -0.00000000000E+00 -0.56596619161E+03  0.56596619161E+03  0.00000000000E+00 0.  1.
          6    1    1    2  501    0  0.79941839318E+02  0.10404166910E+03 -0.44907932864E+03  0.49881520626E+03  0.17300000000E+03 0. -1.
         -6    1    1    2    0  502 -0.79941839318E+02 -0.10404166910E+03  0.36064421229E+02  0.22010226955E+03  0.17300000000E+03 0. -1.
</event>
<event>
 4    1  0.6104111E+000  0.1000000E+03  0.7546771E-02  0.1280296E+00
         21   -1    0    0  503  502  0.00000000000E+00  0.00000000000E+00  0.16351400584E+03  0.16351400584E+03  0.00000000000E+00 0. -1.
         21   -1    0    0  501  503 -0.00000000000E+00 -0.00000000000E+00 -0.99548786660E+03  0.99548786660E+03  0.00000000000E+00 0.  1.
          6    1    1    2  501    0  0.25628910741E+02  0.33297872702E+03 -0.20628289044E+03  0.42896771977E+03  0.17300000000E+03 0. -1.
         -6    1    1    2    0  502 -0.25628910741E+02 -0.33297872702E+03 -0.62569097032E+03  0.73003415266E+03  0.17300000000E+03 0.  1.
</event>
<event>
 4    1  0.6104111E+000  0.1000000E+03  0.7546771E-02  0.1280296E+00
         21   -1    0    0  501  502  0.00000000000E+00  0.00000000000E+00  0.50999720110E+02  0.50999720110E+02  0.00000000000E+00 0.  1.
         21   -1    0    0  502  503 -0.00000000000E+00 -0.00000000000E+00 -0.13381133270E+04  0.13381133270E+04  0.00000000000E+00 0.  1.
          6    1    1    2  501    0 -0.11862565925E+03  0.97307327319E+01 -0.10567135749E+04  0.10773761245E+04  0.17300000000E+03 0.  1.
         -6    1    1    2    0  503  0.11862565925E+03 -0.97307327319E+01 -0.23040003195E+03  0.31173692260E+03  0.17300000000E+03 0.  1.
</event>
<event>
 4    1  0.6104111E+000  0.1000000E+03  0.7546771E-02  0.1280296E+00
         21   -1    0    0  501  502  0.00000000000E+00  0.00000000000E+00  0.12235751702E+03  0.12235751702E+03  0.00000000000E+00 0.  1.
         21   -1    0    0  502  503 -0.00000000000E+00 -0.00000000000E+00 -0.39701346153E+03  0.39701346153E+03  0.00000000000E+00 0.  1.
          6    1    1    2  501    0  0.11567787346E+03 -0.47955559085E+02 -0.73144486952E+02  0.22574370872E+03  0.17300000000E+03 0.  1.
         -6    1    1    2    0  503 -0.11567787346E+03  0.47955559085E+02 -0.20151145756E+03  0.29362726982E+03  0.17300000000E+03 0.  1.
</event>
<event>
 4    1  0.6104111E+000  0.1000000E+03  0.7546771E-02  0.1280296E+00
         21   -1    0    0  501  502  0.00000000000E+00  0.00000000000E+00  0.95415376172E+03  0.95415376172E+03  0.00000000000E+00 0. -1.
         21   -1    0    0  502  503 -0.00000000000E+00 -0.00000000000E+00 -0.42602723840E+03  0.42602723840E+03  0.00000000000E+00 0.  1.
          6    1    1    2  501    0  0.16979205989E+03  0.11527039508E+03  0.89001911823E+03  0.92961262814E+03  0.17300000000E+03 0.  1.
         -6    1    1    2    0  503 -0.16979205989E+03 -0.11527039508E+03 -0.36189259491E+03  0.45056837199E+03  0.17300000000E+03 0. -1.
</event>
<event>
 4    1  0.6104111E+000  0.1000000E+03  0.7546771E-02  0.1280296E+00
         21   -1    0    0  501  502  0.00000000000E+00  0.00000000000E+00  0.17524802032E+03  0.17524802032E+03  0.00000000000E+00 0.  1.
         21   -1    0    0  502  503 -0.00000000000E+00 -0.00000000000E+00 -0.12730773895E+04  0.12730773895E+04  0.00000000000E+00 0.  1.
          6    1    1    2  501    0  0.11728757014E+03  0.56719729945E+02  0.94642806777E+02  0.23634670031E+03  0.17300000000E+03 0.  1.
         -6    1    1    2    0  503 -0.11728757014E+03 -0.56719729945E+02 -0.11924721760E+04  0.12119787096E+04  0.17300000000E+03 0.  1.
</event>
<event>
 4    1  0.6104111E+000  0.1000000E+03  0.7546771E-02  0.1280296E+00
         21   -1    0    0  501  502  0.00000000000E+00  0.00000000000E+00  0.74314698395E+02  0.74314698395E+02  0.00000000000E+00 0.  1.
         21   -1    0    0  502  503 -0.00000000000E+00 -0.00000000000E+00 -0.86402757347E+03  0.86402757347E+03  0.00000000000E+00 0.  1.
          6    1    1    2  501    0 -0.10236906255E+03  0.13225604230E+03 -0.24778102194E+03  0.34539183622E+03  0.17300000000E+03 0.  1.
         -6    1    1    2    0  503  0.10236906255E+03 -0.13225604230E+03 -0.54193185314E+03  0.59295043565E+03  0.17300000000E+03 0.  1.
</event>
<event>
 4    1  0.6104111E+000  0.1000000E+03  0.7546771E-02  0.1280296E+00
         21   -1    0    0  501  502  0.00000000000E+00  0.00000000000E+00  0.10445701952E+03  0.10445701952E+03  0.00000000000E+00 0. -1.
         21   -1    0    0  502  503 -0.00000000000E+00 -0.00000000000E+00 -0.52548418675E+03  0.52548418675E+03  0.00000000000E+00 0. -1.
          6    1    1    2  501    0  0.14067046121E+03  0.54196184000E+02 -0.14694132145E+03  0.27248148004E+03  0.17300000000E+03 0. -1.
         -6    1    1    2    0  503 -0.14067046121E+03 -0.54196184000E+02 -0.27408584579E+03  0.35745972623E+03  0.17300000000E+03 0. -1.
</event>
<event>
 4    1  0.6104111E+000  0.1000000E+03  0.7546771E-02  0.1280296E+00
         21   -1    0    0  503  502  0.00000000000E+00  0.00000000000E+00  0.64038448309E+03  0.64038448309E+03  0.00000000000E+00 0.  1.
         21   -1    0    0  501  503 -0.00000000000E+00 -0.00000000000E+00 -0.15728888172E+03  0.15728888172E+03  0.00000000000E+00 0.  1.
          6    1    1    2  501    0 -0.29757374742E+02 -0.28643812806E+02 -0.88771921234E+02  0.19878486704E+03  0.17300000000E+03 0. -1.
         -6    1    1    2    0  502  0.29757374742E+02  0.28643812806E+02  0.57186752260E+03  0.59888849778E+03  0.17300000000E+03 0. -1.
</event>
<event>
 4    1  0.6104111E+000  0.1000000E+03  0.7546771E-02  0.1280296E+00
         21   -1    0    0  503  502  0.00000000000E+00  0.00000000000E+00  0.11147304882E+03  0.11147304882E+03  0.00000000000E+00 0.  1.
         21   -1    0    0  501  503 -0.00000000000E+00 -0.00000000000E+00 -0.60973428931E+03  0.60973428931E+03  0.00000000000E+00 0.  1.
          6    1    1    2  501    0  0.92350207509E+01 -0.94951019624E+02 -0.48442759334E+03  0.52316352598E+03  0.17300000000E+03 0. -1.
         -6    1    1    2    0  502 -0.92350207509E+01  0.94951019624E+02 -0.13833647158E+02  0.19804381215E+03  0.17300000000E+03 0. -1.
</event>
<event>
 4    1  0.6104111E+000  0.1000000E+03  0.7546771E-02  0.1280296E+00
         21   -1    0    0  503  502  0.00000000000E+00  0.00000000000E+00  0.73039813223E+02  0.73039813223E+02  0.00000000000E+00 0.  1.
         21   -1    0    0  501  503 -0.00000000000E+00 -0.00000000000E+00 -0.72968204934E+03  0.72968204934E+03  0.00000000000E+00 0.  1.
          6    1    1    2  501    0  0.31073730439E+02 -0.22923192714E+01 -0.58850102595E+03  0.61419320168E+03  0.17300000000E+03 0.  1.
         -6    1    1    2    0  502 -0.31073730439E+02  0.22923192714E+01 -0.68141210172E+02  0.18852866088E+03  0.17300000000E+03 0.  1.
</event>
<event>
 4    1  0.6104111E+000  0.1000000E+03  0.7546771E-02  0.1280296E+00
         21   -1    0    0  501  502  0.00000000000E+00  0.00000000000E+00  0.58862180927E+03  0.58862180927E+03  0.00000000000E+00 0. -1.
         21   -1    0    0  502  503 -0.00000000000E+00 -0.00000000000E+00 -0.84465493323E+02  0.84465493323E+02  0.00000000000E+00 0.  1.
          6    1    1    2  501    0  0.10946313806E+03  0.30523208004E+01  0.38535903345E+03  0.43637378463E+03  0.17300000000E+03 0.  1.
         -6    1    1    2    0  503 -0.10946313806E+03 -0.30523208004E+01  0.11879728250E+03  0.23671351796E+03  0.17300000000E+03 0. -1.
</event>
<event>
 4    1  0.6104111E+000  0.1000000E+03  0.7546771E-02  0.1280296E+00
         21   -1    0    0  501  502  0.00000000000E+00  0.00000000000E+00  0.62258503526E+03  0.62258503526E+03  0.00000000000E+00 0. -1.
         21   -1    0    0  502  503 -0.00000000000E+00 -0.00000000000E+00 -0.90293551533E+02  0.90293551533E+02  0.00000000000E+00 0.  1.
          6    1    1    2  501    0  0.12372201215E+03  0.10235904398E+03  0.29982543339E+03  0.38158721242E+03  0.17300000000E+03 0.  1.
         -6    1    1    2    0  503 -0.12372201215E+03 -0.10235904398E+03  0.23246605034E+03  0.33129137437E+03  0.17300000000E+03 0. -1.
</event>
<event>
 4    1  0.6104111E+000  0.1000000E+03  0.7546771E-02  0.1280296E+00
         21   -1    0    0  501  502  0.00000000000E+00  0.00000000000E+00  0.13959800623E+03  0.13959800623E+03  0.00000000000E+00 0. -1.
         21   -1    0    0  502  503 -0.00000000000E+00 -0.00000000000E+00 -0.33877032716E+03  0.33877032716E+03  0.00000000000E+00 0.  1.
          6    1    1    2  501    0 -0.12654095407E+03  0.25620694754E+02 -0.12855318034E+03  0.25124480737E+03  0.17300000000E+03 0.  1.
         -6    1    1    2    0  503  0.12654095407E+03 -0.25620694754E+02 -0.70619140586E+02  0.22712352602E+03  0.17300000000E+03 0. -1.
</event>
<event>
 4    1  0.6104111E+000  0.1000000E+03  0.7546771E-02  0.1280296E+00
         21   -1    0    0  503  502  0.00000000000E+00  0.00000000000E+00  0.42874640527E+03  0.42874640527E+03  0.00000000000E+00 0. -1.
         21   -1    0    0  501  503 -0.00000000000E+00 -0.00000000000E+00 -0.65276103222E+03  0.65276103222E+03  0.00000000000E+00 0.  1.
          6    1    1    2  501    0 -0.13391220335E+02 -0.30616136419E+03 -0.51576464718E+03  0.62438471873E+03  0.17300000000E+03 0.  1.
         -6    1    1    2    0  502  0.13391220335E+02  0.30616136419E+03  0.29175002022E+03  0.45712271876E+03  0.17300000000E+03 0. -1.
</event>
<event>
 4    1  0.6104111E+000  0.1000000E+03  0.7546771E-02  0.1280296E+00
         21   -1    0    0  501  502  0.00000000000E+00  0.00000000000E+00  0.10800252387E+03  0.10800252387E+03  0.00000000000E+00 0.  1.
         21   -1    0    0  502  503 -0.00000000000E+00 -0.00000000000E+00 -0.46677660287E+03  0.46677660287E+03  0.00000000000E+00 0. -1.
          6    1    1    2  501    0 -0.79384424323E+02 -0.91769705119E+02 -0.82240116773E+02  0.22675097003E+03  0.17300000000E+03 0.  1.
         -6    1    1    2    0  503  0.79384424323E+02  0.91769705119E+02 -0.27653396223E+03  0.34802815672E+03  0.17300000000E+03 0. -1.
</event>
<event>
 4    1  0.6104111E+000  0.1000000E+03  0.7546771E-02  0.1280296E+00
         21   -1    0    0  501  502  0.00000000000E+00  0.00000000000E+00  0.12961501152E+03  0.12961501152E+03  0.00000000000E+00 0.  1.
         21   -1    0    0  502  503 -0.00000000000E+00 -0.00000000000E+00 -0.62212770198E+03  0.62212770198E+03  0.00000000000E+00 0. -1.
          6    1    1    2  501    0 -0.20465239867E+03 -0.93472406493E+02 -0.23381166610E+03  0.36771808531E+03  0.17300000000E+03 0.  1.
         -6    1    1    2    0  503  0.20465239867E+03  0.93472406493E+02 -0.25870102435E+03  0.38402462819E+03  0.17300000000E+03 0. -1.
</event>
<event>
 4    1  0.6104111E+000  0.1000000E+03  0.7546771E-02  0.1280296E+00
         21   -1    0    0  501  502  0.00000000000E+00  0.00000000000E+00  0.78870531761E+03  0.78870531761E+03  0.00000000000E+00 0.  1.
         21   -1    0    0  502  503 -0.00000000000E+00 -0.00000000000E+00 -0.11799750847E+04  0.11799750847E+04  0.00000000000E+00 0. -1.
          6    1    1    2  501    0 -0.42237462875E+02 -0.35202655672E+02  0.77112167516E+03  0.79220001776E+03  0.17300000000E+03 0.  1.
         -6    1    1    2    0  503  0.42237462875E+02  0.35202655672E+02 -0.11623914422E+04  0.11764803845E+04  0.17300000000E+03 0. -1.
</event>
<event>
 4    1  0.6104111E+000  0.1000000E+03  0.7546771E-02  0.1280296E+00
         21   -1    0    0  501  502  0.00000000000E+00  0.00000000000E+00  0.14406996300E+03  0.14406996300E+03  0.00000000000E+00 0.  1.
         21   -1    0    0  502  503 -0.00000000000E+00 -0.00000000000E+00 -0.48266813930E+03  0.48266813930E+03  0.00000000000E+00 0. -1.
          6    1    1    2  501    0 -0.18751591584E+03 -0.61582818791E+02 -0.19969671867E+03  0.32979151249E+03  0.17300000000E+03 0.  1.
         -6    1    1    2    0  503  0.18751591584E+03  0.61582818791E+02 -0.13890145763E+03  0.29694658980E+03  0.17300000000E+03 0. -1.
</event>
<event>
 4    1  0.6104111E+000  0.1000000E+03  0.7546771E-02  0.1280296E+00
         21   -1    0    0  503  502  0.00000000000E+00  0.00000000000E+00  0.11592667341E+04  0.11592667341E+04  0.00000000000E+00 0.  1.
         21   -1    0    0  501  503 -0.00000000000E+00 -0.00000000000E+00 -0.29572720591E+02  0.29572720591E+02  0.00000000000E+00 0. -1.
          6    1    1    2  501    0  0.46963489843E+02  0.45920247209E+02  0.58500671925E+03  0.61357648264E+03  0.17300000000E+03 0. -1.
         -6    1    1    2    0  502 -0.46963489843E+02 -0.45920247209E+02  0.54468729422E+03  0.57526297201E+03  0.17300000000E+03 0.  1.
</event>
<event>
 4    1  0.6104111E+000  0.1000000E+03  0.7546771E-02  0.1280296E+00
         21   -1    0    0  503  502  0.00000000000E+00  0.00000000000E+00  0.81645425667E+02  0.81645425667E+02  0.00000000000E+00 0.  1.
         21   -1    0    0  501  503 -0.00000000000E+00 -0.00000000000E+00 -0.75639253806E+03  0.75639253806E+03  0.00000000000E+00 0. -1.
          6    1    1    2  501    0 -0.15668211118E+03 -0.84200776600E+02 -0.36048883497E+03  0.43763027190E+03  0.17300000000E+03 0. -1.
         -6    1    1    2    0  502  0.15668211118E+03  0.84200776600E+02 -0.31425827742E+03  0.40040769182E+03  0.17300000000E+03 0.  1.
</event>
<event>
 4    1  0.6104111E+000  0.1000000E+03  0.7546771E-02  0.1280296E+00
         21   -1    0    0  503  502  0.00000000000E+00  0.00000000000E+00  0.44787596999E+03  0.44787596999E+03  0.00000000000E+00 0. -1.
         21   -1    0    0  501  503 -0.00000000000E+00 -0.00000000000E+00 -0.33223781629E+03  0.33223781629E+03  0.00000000000E+00 0. -1.
          6    1    1    2  501    0 -0.48550632853E+02  0.14131850852E+03 -0.25636758921E+03  0.34348424359E+03  0.17300000000E+03 0. -1.
         -6    1    1    2    0  502  0.48550632853E+02 -0.14131850852E+03  0.37200574290E+03  0.43662954269E+03  0.17300000000E+03 0. -1.
</event>
<event>
 4    1  0.6104111E+000  0.1000000E+03  0.7546771E-02  0.1280296E+00
         21   -1    0    0  501  502  0.00000000000E+00  0.00000000000E+00  0.44118352917E+03  0.44118352917E+03  0.00000000000E+00 0. -1.
         21   -1    0    0  502  503 -0.00000000000E+00 -0.00000000000E+00 -0.73528305507E+02  0.73528305507E+02  0.00000000000E+00 0.  1.
          6    1    1    2  501    0  0.47052443479E+02 -0.16608920057E+02  0.19032686352E+03  0.26199828938E+03  0.17300000000E+03 0. -1.
         -6    1    1    2    0  503 -0.47052443479E+02  0.16608920057E+02  0.17732836014E+03  0.25271354529E+03  0.17300000000E+03 0.  1.
</event>
<event>
 4    1  0.6104111E+000  0.1000000E+03  0.7546771E-02  0.1280296E+00
         21   -1    0    0  501  502  0.00000000000E+00  0.00000000000E+00  0.34789005234E+03  0.34789005234E+03  0.00000000000E+00 0. -1.
         21   -1    0    0  502  503 -0.00000000000E+00 -0.00000000000E+00 -0.30338466976E+03  0.30338466976E+03  0.00000000000E+00 0.  1.
          6    1    1    2  501    0  0.87415233588E+02  0.40723988878E+02  0.28037431929E+03  0.34327631036E+03  0.17300000000E+03 0. -1.
         -6    1    1    2    0  503 -0.87415233588E+02 -0.40723988878E+02 -0.23586893671E+03  0.30799841174E+03  0.17300000000E+03 0.  1.
</event>
<event>
 4    1  0.6104111E+000  0.1000000E+03  0.7546771E-02  0.1280296E+00
         21   -1    0    0  501  502  0.00000000000E+00  0.00000000000E+00  0.44279601522E+03  0.44279601522E+03  0.00000000000E+00 0.  1.
         21   -1    0    0  502  503 -0.00000000000E+00 -0.00000000000E+00 -0.17535905715E+03  0.17535905715E+03  0.00000000000E+00 0.  1.
          6    1    1    2  501    0  0.40744815756E+02  0.88117991908E+02  0.35077306209E+03  0.40298345077E+03  0.17300000000E+03 0.  1.
         -6    1    1    2    0  503 -0.40744815756E+02 -0.88117991908E+02 -0.83336104024E+02  0.21517162160E+03  0.17300000000E+03 0.  1.
</event>
<event>
 4    1  0.6104111E+000  0.1000000E+03  0.7546771E-02  0.1280296E+00
         21   -1    0    0  501  502  0.00000000000E+00  0.00000000000E+00  0.95275895814E+03  0.95275895814E+03  0.00000000000E+00 0.  1.
         21   -1    0    0  502  503 -0.00000000000E+00 -0.00000000000E+00 -0.39430201828E+02  0.39430201828E+02  0.00000000000E+00 0.  1.
          6    1    1    2  501    0 -0.62896797819E+02 -0.60523174925E+02  0.46794257952E+03  0.50647637616E+03  0.17300000000E+03 0.  1.
         -6    1    1    2    0  503  0.62896797819E+02  0.60523174925E+02  0.44538617679E+03  0.48571278381E+03  0.17300000000E+03 0.  1.
</event>
<event>
 4    1  0.6104111E+000  0.1000000E+03  0.7546771E-02  0.1280296E+00
         21   -1    0    0  503  502  0.00000000000E+00  0.00000000000E+00  0.18451294457E+03  0.18451294457E+03  0.00000000000E+00 0. -1.
         21   -1    0    0  501  503 -0.00000000000E+00 -0.00000000000E+00 -0.26532298757E+03  0.26532298757E+03  0.00000000000E+00 0. -1.
          6    1    1    2  501    0  0.11729712573E+03 -0.31274604385E+02 -0.10698478868E+03  0.23687857985E+03  0.17300000000E+03 0. -1.
         -6    1    1    2    0  502 -0.11729712573E+03  0.31274604385E+02  0.26174745681E+02  0.21295735229E+03  0.17300000000E+03 0. -1.
</event>
<event>
 4    1  0.6104111E+000  0.1000000E+03  0.7546771E-02  0.1280296E+00
         21   -1    0    0  503  502  0.00000000000E+00  0.00000000000E+00  0.45756065663E+03  0.45756065663E+03  0.00000000000E+00 0. -1.
         21   -1    0    0  501  503 -0.00000000000E+00 -0.00000000000E+00 -0.24871386777E+03  0.24871386777E+03  0.00000000000E+00 0. -1.
          6    1    1    2  501    0 -0.10595956441E+03 -0.75497179447E+02 -0.16642712112E+03  0.27304622326E+03  0.17300000000E+03 0. -1.
         -6    1    1    2    0  502  0.10595956441E+03  0.75497179447E+02  0.37527390997E+03  0.43322830113E+03  0.17300000000E+03 0. -1.
</event>
<event>
 4    1  0.6104111E+000  0.1000000E+03  0.7546771E-02  0.1280296E+00
         21   -1    0    0  501  502  0.00000000000E+00  0.00000000000E+00  0.75604084362E+02  0.75604084362E+02  0.00000000000E+00 0. -1.
         21   -1    0    0  502  503 -0.00000000000E+00 -0.00000000000E+00 -0.62704559825E+03  0.62704559825E+03  0.00000000000E+00 0. -1.
          6    1    1    2  501    0  0.58402144120E+02  0.59344899074E+02 -0.11002098134E+03  0.22128317563E+03  0.17300000000E+03 0. -1.
         -6    1    1    2    0  503 -0.58402144120E+02 -0.59344899074E+02 -0.44142053254E+03  0.48136650697E+03  0.17300000000E+03 0. -1.
</event>
<event>
 4    1  0.6104111E+000  0.1000000E+03  0.7546771E-02  0.1280296E+00
         21   -1    0    0  501  502  0.00000000000E+00  0.00000000000E+00  0.82254977337E+02  0.82254977337E+02  0.00000000000E+00 0.  1.
         21   -1    0    0  502  503 -0.00000000000E+00 -0.00000000000E+00 -0.56881166225E+03  0.56881166225E+03  0.00000000000E+00 0.  1.
          6    1    1    2  501    0 -0.24196870296E+02  0.10903405676E+02 -0.51996797040E+02  0.18258433583E+03  0.17300000000E+03 0.  1.
         -6    1    1    2    0  503  0.24196870296E+02 -0.10903405676E+02 -0.43455988788E+03  0.46848230376E+03  0.17300000000E+03 0.  1.
</event>
<event>
 4    1  0.6104111E+000  0.1000000E+03  0.7546771E-02  0.1280296E+00
         21   -1    0    0  503  502  0.00000000000E+00  0.00000000000E+00  0.25312164892E+04  0.25312164892E+04  0.00000000000E+00 0.  1.
         21   -1    0    0  501  503 -0.00000000000E+00 -0.00000000000E+00 -0.22197564206E+02  0.22197564206E+02  0.00000000000E+00 0.  1.
          6    1    1    2  501    0 -0.19482937814E+02 -0.13857776867E+03  0.81447981823E+03  0.84432799145E+03  0.17300000000E+03 0.  1.
         -6    1    1    2    0  502  0.19482937814E+02  0.13857776867E+03  0.16945391068E+04  0.17090860620E+04  0.17300000000E+03 0.  1.
</event>
<event>
 4    1  0.6104111E+000  0.1000000E+03  0.7546771E-02  0.1280296E+00
         21   -1    0    0  503  502  0.00000000000E+00  0.00000000000E+00  0.77888981138E+03  0.77888981138E+03  0.00000000000E+00 0.  1.
         21   -1    0    0  501  503 -0.00000000000E+00 -0.00000000000E+00 -0.14138522490E+03  0.14138522490E+03  0.00000000000E+00 0.  1.
          6    1    1    2  501    0  0.37487784820E+02 -0.16402793609E+03  0.29142779960E+01  0.24134620537E+03  0.17300000000E+03 0.  1.
         -6    1    1    2    0  502 -0.37487784820E+02  0.16402793609E+03  0.63459030848E+03  0.67892883092E+03  0.17300000000E+03 0.  1.
</event>
<event>
 4    1  0.6104111E+000  0.1000000E+03  0.7546771E-02  0.1280296E+00
         21   -1    0    0  503  502  0.00000000000E+00  0.00000000000E+00  0.73551847668E+02  0.73551847668E+02  0.00000000000E+00 0.  1.
         21   -1    0    0  501  503 -0.00000000000E+00 -0.00000000000E+00 -0.87584448557E+03  0.87584448557E+03  0.00000000000E+00 0.  1.
          6    1    1    2  501    0 -0.52234428931E+02 -0.10278891948E+03 -0.67344421337E+03  0.70480501279E+03  0.17300000000E+03 0.  1.
         -6    1    1    2    0  502  0.52234428931E+02  0.10278891948E+03 -0.12884842453E+03  0.24459132044E+03  0.17300000000E+03 0.  1.
</event>
<event>
 4    1  0.6104111E+000  0.1000000E+03  0.7546771E-02  0.1280296E+00
         21   -1    0    0  503  502  0.00000000000E+00  0.00000000000E+00  0.66927746287E+03  0.66927746287E+03  0.00000000000E+00 0.  1.
         21   -1    0    0  501  503 -0.00000000000E+00 -0.00000000000E+00 -0.12330543080E+03  0.12330543080E+03  0.00000000000E+00 0.  1.
          6    1    1    2  501    0 -0.69503722033E+01 -0.73936115118E+02 -0.26341411784E+02  0.19009925504E+03  0.17300000000E+03 0.  1.
         -6    1    1    2    0  502  0.69503722033E+01  0.73936115118E+02  0.57231344386E+03  0.60248363863E+03  0.17300000000E+03 0.  1.
</event>
<event>
 4    1  0.6104111E+000  0.1000000E+03  0.7546771E-02  0.1280296E+00
         21   -1    0    0  503  502  0.00000000000E+00  0.00000000000E+00  0.47020661576E+03  0.47020661576E+03  0.00000000000E+00 0. -1.
         21   -1    0    0  501  503 -0.00000000000E+00 -0.00000000000E+00 -0.68333983631E+02  0.68333983631E+02  0.00000000000E+00 0. -1.
          6    1    1    2  501    0  0.24421622672E+02 -0.34797967122E+02  0.17108925006E+03  0.24699766326E+03  0.17300000000E+03 0. -1.
         -6    1    1    2    0  502 -0.24421622672E+02  0.34797967122E+02  0.23078338207E+03  0.29154293613E+03  0.17300000000E+03 0. -1.
</event>
<event>
 4    1  0.6104111E+000  0.1000000E+03  0.7546771E-02  0.1280296E+00
         21   -1    0    0  501  502  0.00000000000E+00  0.00000000000E+00  0.23378967061E+03  0.23378967061E+03  0.00000000000E+00 0. -1.
         21   -1    0    0  502  503 -0.00000000000E+00 -0.00000000000E+00 -0.17003111343E+03  0.17003111343E+03  0.00000000000E+00 0.  1.
          6    1    1    2  501    0 -0.62342337928E+02  0.21194624557E+02  0.10689269678E+03  0.21375412940E+03  0.17300000000E+03 0. -1.
         -6    1    1    2    0  503  0.62342337928E+02 -0.21194624557E+02 -0.43134139599E+02  0.19006665464E+03  0.17300000000E+03 0.  1.
</event>
<event>
 4    1  0.6104111E+000  0.1000000E+03  0.7546771E-02  0.1280296E+00
         21   -1    0    0  501  502  0.00000000000E+00  0.00000000000E+00  0.41657778203E+03  0.41657778203E+03  0.00000000000E+00 0. -1.
         21   -1    0    0  502  503 -0.00000000000E+00 -0.00000000000E+00 -0.23410624538E+03  0.23410624538E+03  0.00000000000E+00 0.  1.
          6    1    1    2  501    0  0.25762449819E+03 -0.34585601090E+02  0.96740057207E+02  0.32688558325E+03  0.17300000000E+03 0. -1.
         -6    1    1    2    0  503 -0.25762449819E+03  0.34585601090E+02  0.85731479443E+02  0.32379844415E+03  0.17300000000E+03 0.  1.
</event>
<event>
 4    1  0.6104111E+000  0.1000000E+03  0.7546771E-02  0.1280296E+00
         21   -1    0    0  501  502  0.00000000000E+00  0.00000000000E+00  0.25072240651E+03  0.25072240651E+03  0.00000000000E+00 0. -1.
         21   -1    0    0  502  503 -0.00000000000E+00 -0.00000000000E+00 -0.23527652181E+03  0.23527652181E+03  0.00000000000E+00 0.  1.
          6    1    1    2  501    0 -0.86125339384E+02  0.11054992225E+03  0.10483505364E+03  0.24608585466E+03  0.17300000000E+03 0. -1.
         -6    1    1    2    0  503  0.86125339384E+02 -0.11054992225E+03 -0.89389168937E+02  0.23991307367E+03  0.17300000000E+03 0.  1.
</event>
<event>
 4    1  0.6104111E+000  0.1000000E+03  0.7546771E-02  0.1280296E+00
         21   -1    0    0  501  502  0.00000000000E+00  0.00000000000E+00  0.33885561630E+03  0.33885561630E+03  0.00000000000E+00 0.  1.
         21   -1    0    0  502  503 -0.00000000000E+00 -0.00000000000E+00 -0.24318388387E+03  0.24318388387E+03  0.00000000000E+00 0.  1.
          6    1    1    2  501    0  0.89121061565E+02  0.55387054413E+01  0.26169973095E+03  0.32617325159E+03  0.17300000000E+03 0.  1.
         -6    1    1    2    0  503 -0.89121061565E+02 -0.55387054413E+01 -0.16602799852E+03  0.25586624858E+03  0.17300000000E+03 0.  1.
</event>
<event>
 4    1  0.6104111E+000  0.1000000E+03  0.7546771E-02  0.1280296E+00
         21   -1    0    0  501  502  0.00000000000E+00  0.00000000000E+00  0.34351105053E+02  0.34351105053E+02  0.00000000000E+00 0.  1.
         21   -1    0    0  502  503 -0.00000000000E+00 -0.00000000000E+00 -0.14808288525E+04  0.14808288525E+04  0.00000000000E+00 0.  1.
          6    1    1    2  501    0  0.12513064223E+03  0.13553561863E+02 -0.96306687088E+03  0.98654354919E+03  0.17300000000E+03 0.  1.
         -6    1    1    2    0  503 -0.12513064223E+03 -0.13553561863E+02 -0.48341087658E+03  0.52863640837E+03  0.17300000000E+03 0.  1.
</event>
<event>
 4    1  0.6104111E+000  0.1000000E+03  0.7546771E-02  0.1280296E+00
         21   -1    0    0  501  502  0.00000000000E+00  0.00000000000E+00  0.34511099678E+03  0.34511099678E+03  0.00000000000E+00 0.  1.
         21   -1    0    0  502  503 -0.00000000000E+00 -0.00000000000E+00 -0.93404197386E+02  0.93404197386E+02  0.00000000000E+00 0.  1.
          6    1    1    2  501    0 -0.12958185622E+02 -0.15709313956E+02  0.72746440978E+02  0.18877431445E+03  0.17300000000E+03 0.  1.
         -6    1    1    2    0  503  0.12958185622E+02  0.15709313956E+02  0.17896035842E+03  0.24974087972E+03  0.17300000000E+03 0.  1.
</event>
<event>
 4    1  0.6104111E+000  0.1000000E+03  0.7546771E-02  0.1280296E+00
         21   -1    0    0  501  502  0.00000000000E+00  0.00000000000E+00  0.18763880286E+03  0.18763880286E+03  0.00000000000E+00 0.  1.
         21   -1    0    0  502  503 -0.00000000000E+00 -0.00000000000E+00 -0.35446568837E+03  0.35446568837E+03  0.00000000000E+00 0.  1.
          6    1    1    2  501    0  0.17429615466E+03  0.55622787577E+01 -0.16598540994E+03  0.29646288939E+03  0.17300000000E+03 0.  1.
         -6    1    1    2    0  503 -0.17429615466E+03 -0.55622787577E+01 -0.84147557052E+00  0.24564160184E+03  0.17300000000E+03 0.  1.
</event>
<event>
 4    1  0.6104111E+000  0.1000000E+03  0.7546771E-02  0.1280296E+00
         21   -1    0    0  501  502  0.00000000000E+00  0.00000000000E+00  0.57588635276E+03  0.57588635276E+03  0.00000000000E+00 0.  1.
         21   -1    0    0  502  503 -0.00000000000E+00 -0.00000000000E+00 -0.10555869194E+03  0.10555869194E+03  0.00000000000E+00 0.  1.
          6    1    1    2  501    0  0.86788240504E+02  0.10653476684E+03  0.83913994171E+02  0.23633115252E+03  0.17300000000E+03 0.  1.
         -6    1    1    2    0  503 -0.86788240504E+02 -0.10653476684E+03  0.38641366665E+03  0.44511389218E+03  0.17300000000E+03 0.  1.
</event>
<event>
 4    1  0.6104111E+000  0.1000000E+03  0.7546771E-02  0.1280296E+00
         21   -1    0    0  501  502  0.00000000000E+00  0.00000000000E+00  0.76493733076E+03  0.76493733076E+03  0.00000000000E+00 0.  1.
         21   -1    0    0  502  503 -0.00000000000E+00 -0.00000000000E+00 -0.68295742449E+02  0.68295742449E+02  0.00000000000E+00 0.  1.
          6    1    1    2  501    0 -0.12064523889E+03 -0.74740546514E+02  0.43326048475E+03  0.48763210580E+03  0.17300000000E+03 0.  1.
         -6    1    1    2    0  503  0.12064523889E+03  0.74740546514E+02  0.26338110356E+03  0.34560096740E+03  0.17300000000E+03 0.  1.
</event>
<event>
 4    1  0.6104111E+000  0.1000000E+03  0.7546771E-02  0.1280296E+00
         21   -1    0    0  501  502  0.00000000000E+00  0.00000000000E+00  0.37436050190E+02  0.37436050190E+02  0.00000000000E+00 0.  1.
         21   -1    0    0  502  503 -0.00000000000E+00 -0.00000000000E+00 -0.15332280997E+04  0.15332280997E+04  0.00000000000E+00 0. -1.
          6    1    1    2  501    0  0.11617422331E+03 -0.12322511290E+02 -0.36253293834E+03  0.41833888873E+03  0.17300000000E+03 0.  1.
         -6    1    1    2    0  503 -0.11617422331E+03  0.12322511290E+02 -0.11332591112E+04  0.11523252611E+04  0.17300000000E+03 0.  1.
</event>
<event>
 4    1  0.6104111E+000  0.1000000E+03  0.7546771E-02  0.1280296E+00
         21   -1    0    0  501  502  0.00000000000E+00  0.00000000000E+00  0.60762115083E+03  0.60762115083E+03  0.00000000000E+00 0.  1.
         21   -1    0    0  502  503 -0.00000000000E+00 -0.00000000000E+00 -0.81209976068E+02  0.81209976068E+02  0.00000000000E+00 0.  1.
          6    1    1    2  501    0 -0.32806451148E+02 -0.31643797586E+02  0.46736291233E+03  0.50043449620E+03  0.17300000000E+03 0.  1.
         -6    1    1    2    0  503  0.32806451148E+02  0.31643797586E+02  0.59048262431E+02  0.18839663070E+03  0.17300000000E+03 0.  1.
</event>
<event>
 4    1  0.6104111E+000  0.1000000E+03  0.7546771E-02  0.1280296E+00
         21   -1    0    0  501  502  0.00000000000E+00  0.00000000000E+00  0.28322565510E+03  0.28322565510E+03  0.00000000000E+00 0.  1.
         21   -1    0    0  502  503 -0.00000000000E+00 -0.00000000000E+00 -0.23271592737E+03  0.23271592737E+03  0.00000000000E+00 0.  1.
          6    1    1    2  501    0  0.10284756600E+03  0.44189685298E+01  0.18535051320E+03  0.27364385953E+03  0.17300000000E+03 0.  1.
         -6    1    1    2    0  503 -0.10284756600E+03 -0.44189685298E+01 -0.13484078547E+03  0.24229772294E+03  0.17300000000E+03 0.  1.
</event>
<event>
 4    1  0.6104111E+000  0.1000000E+03  0.7546771E-02  0.1280296E+00
         21   -1    0    0  501  502  0.00000000000E+00  0.00000000000E+00  0.16899103894E+03  0.16899103894E+03  0.00000000000E+00 0.  1.
         21   -1    0    0  502  503 -0.00000000000E+00 -0.00000000000E+00 -0.25417958180E+03  0.25417958180E+03  0.00000000000E+00 0.  1.
          6    1    1    2  501    0 -0.65043495497E+02 -0.61003271812E+02  0.30119465713E+02  0.19694729674E+03  0.17300000000E+03 0.  1.
         -6    1    1    2    0  503  0.65043495497E+02  0.61003271812E+02 -0.11530800858E+03  0.22622332400E+03  0.17300000000E+03 0.  1.
</event>
<event>
 4    1  0.6104111E+000  0.1000000E+03  0.7546771E-02  0.1280296E+00
         21   -1    0    0  501  502  0.00000000000E+00  0.00000000000E+00  0.18192503402E+04  0.18192503402E+04  0.00000000000E+00 0.  1.
         21   -1    0    0  502  503 -0.00000000000E+00 -0.00000000000E+00 -0.16835432296E+03  0.16835432296E+03  0.00000000000E+00 0. -1.
          6    1    1    2  501    0 -0.15635657533E+03 -0.23328594134E+03  0.16234484787E+04  0.16566181431E+04  0.17300000000E+03 0. -1.
         -6    1    1    2    0  503  0.15635657533E+03  0.23328594134E+03  0.27447538525E+02  0.33098652004E+03  0.17300000000E+03 0. -1.
</event>
<event>
 4    1  0.6104111E+000  0.1000000E+03  0.7546771E-02  0.1280296E+00
         21   -1    0    0  501  502  0.00000000000E+00  0.00000000000E+00  0.18511317179E+02  0.18511317179E+02  0.00000000000E+00 0.  1.
         21   -1    0    0  502  503 -0.00000000000E+00 -0.00000000000E+00 -0.17150354991E+04  0.17150354991E+04  0.00000000000E+00 0. -1.
          6    1    1    2  501    0 -0.75932750799E+01 -0.20105842287E+02 -0.66908337849E+03  0.69142134050E+03  0.17300000000E+03 0. -1.
         -6    1    1    2    0  503  0.75932750799E+01  0.20105842287E+02 -0.10274408034E+04  0.10421254757E+04  0.17300000000E+03 0. -1.
</event>
<event>
 4    1  0.6104111E+000  0.1000000E+03  0.7546771E-02  0.1280296E+00
         21   -1    0    0  501  502  0.00000000000E+00  0.00000000000E+00  0.13308620704E+03  0.13308620704E+03  0.00000000000E+00 0. -1.
         21   -1    0    0  502  503 -0.00000000000E+00 -0.00000000000E+00 -0.44182193482E+03  0.44182193482E+03  0.00000000000E+00 0.  1.
          6    1    1    2  501    0  0.27289700933E+02  0.50645653545E+02  0.35160027778E+02  0.18567427811E+03  0.17300000000E+03 0. -1.
         -6    1    1    2    0  503 -0.27289700933E+02 -0.50645653545E+02 -0.34389575556E+03  0.38923386375E+03  0.17300000000E+03 0. -1.
</event>
<event>
 4    1  0.6104111E+000  0.1000000E+03  0.7546771E-02  0.1280296E+00
         21   -1    0    0  501  502  0.00000000000E+00  0.00000000000E+00  0.20396629404E+03  0.20396629404E+03  0.00000000000E+00 0. -1.
         21   -1    0    0  502  503 -0.00000000000E+00 -0.00000000000E+00 -0.85923472524E+03  0.85923472524E+03  0.00000000000E+00 0.  1.
          6    1    1    2  501    0 -0.32055507955E+03  0.70573319712E+02 -0.81435880967E+02  0.37986439053E+03  0.17300000000E+03 0. -1.
         -6    1    1    2    0  503  0.32055507955E+03 -0.70573319712E+02 -0.57383255023E+03  0.68333662875E+03  0.17300000000E+03 0. -1.
</event>
<event>
 4    1  0.6104111E+000  0.1000000E+03  0.7546771E-02  0.1280296E+00
         21   -1    0    0  503  502  0.00000000000E+00  0.00000000000E+00  0.10275786686E+04  0.10275786686E+04  0.00000000000E+00 0. -1.
         21   -1    0    0  501  503 -0.00000000000E+00 -0.00000000000E+00 -0.32254595329E+03  0.32254595329E+03  0.00000000000E+00 0. -1.
          6    1    1    2  501    0  0.19280292811E+03 -0.15031289955E+02 -0.25009285609E+03  0.36038083388E+03  0.17300000000E+03 0. -1.
         -6    1    1    2    0  502 -0.19280292811E+03  0.15031289955E+02  0.95512557138E+03  0.98974378799E+03  0.17300000000E+03 0. -1.
</event>
<event>
 4    1  0.6104111E+000  0.1000000E+03  0.7546771E-02  0.1280296E+00
         21   -1    0    0  501  502  0.00000000000E+00  0.00000000000E+00  0.18156732800E+03  0.18156732800E+03  0.00000000000E+00 0.  1.
         21   -1    0    0  502  503 -0.00000000000E+00 -0.00000000000E+00 -0.19887573814E+04  0.19887573814E+04  0.00000000000E+00 0. -1.
          6    1    1    2  501    0  0.25161402979E+02  0.58648299126E+02  0.12921320570E+03  0.22516165685E+03  0.17300000000E+03 0.  1.
         -6    1    1    2    0  503 -0.25161402979E+02 -0.58648299126E+02 -0.19364032591E+04  0.19451630525E+04  0.17300000000E+03 0. -1.
</event>
<event>
 4    1  0.6104111E+000  0.1000000E+03  0.7546771E-02  0.1280296E+00
         21   -1    0    0  501  502  0.00000000000E+00  0.00000000000E+00  0.11312752244E+04  0.11312752244E+04  0.00000000000E+00 0.  1.
         21   -1    0    0  502  503 -0.00000000000E+00 -0.00000000000E+00 -0.35095513904E+02  0.35095513904E+02  0.00000000000E+00 0. -1.
          6    1    1    2  501    0  0.75709054138E+02  0.58531500515E+02  0.62072512068E+03  0.65144951675E+03  0.17300000000E+03 0.  1.
         -6    1    1    2    0  503 -0.75709054138E+02 -0.58531500515E+02  0.47545458983E+03  0.51492122157E+03  0.17300000000E+03 0. -1.
</event>
<event>
 4    1  0.6104111E+000  0.1000000E+03  0.7546771E-02  0.1280296E+00
         21   -1    0    0  501  502  0.00000000000E+00  0.00000000000E+00  0.55931430386E+02  0.55931430386E+02  0.00000000000E+00 0.  1.
         21   -1    0    0  502  503 -0.00000000000E+00 -0.00000000000E+00 -0.19975291483E+04  0.19975291483E+04  0.00000000000E+00 0. -1.
          6    1    1    2  501    0  0.10277403023E+03  0.16612196169E+03 -0.32913500586E+03  0.42002126080E+03  0.17300000000E+03 0.  1.
         -6    1    1    2    0  503 -0.10277403023E+03 -0.16612196169E+03 -0.16124627120E+04  0.16334393179E+04  0.17300000000E+03 0. -1.
</event>
<event>
 4    1  0.6104111E+000  0.1000000E+03  0.7546771E-02  0.1280296E+00
         21   -1    0    0  503  502  0.00000000000E+00  0.00000000000E+00  0.25226468592E+04  0.25226468592E+04  0.00000000000E+00 0.  1.
         21   -1    0    0  501  503 -0.00000000000E+00 -0.00000000000E+00 -0.32682898810E+02  0.32682898810E+02  0.00000000000E+00 0. -1.
          6    1    1    2  501    0 -0.39545902541E+02 -0.20117216413E+03  0.78936695426E+03  0.83370456788E+03  0.17300000000E+03 0. -1.
         -6    1    1    2    0  502  0.39545902541E+02  0.20117216413E+03  0.17005970061E+04  0.17216251901E+04  0.17300000000E+03 0.  1.
</event>
<event>
 4    1  0.6104111E+000  0.1000000E+03  0.7546771E-02  0.1280296E+00
         21   -1    0    0  501  502  0.00000000000E+00  0.00000000000E+00  0.13957214591E+04  0.13957214591E+04  0.00000000000E+00 0. -1.
         21   -1    0    0  502  503 -0.00000000000E+00 -0.00000000000E+00 -0.37017092206E+02  0.37017092206E+02  0.00000000000E+00 0. -1.
          6    1    1    2  501    0 -0.10009816977E+03  0.10822071472E+03  0.68652744807E+03  0.72317377139E+03  0.17300000000E+03 0. -1.
         -6    1    1    2    0  503  0.10009816977E+03 -0.10822071472E+03  0.67217691884E+03  0.70956477993E+03  0.17300000000E+03 0. -1.
</event>
<event>
 4    1  0.6104111E+000  0.1000000E+03  0.7546771E-02  0.1280296E+00
         21   -1    0    0  501  502  0.00000000000E+00  0.00000000000E+00  0.11699720183E+03  0.11699720183E+03  0.00000000000E+00 0. -1.
         21   -1    0    0  502  503 -0.00000000000E+00 -0.00000000000E+00 -0.54138729675E+03  0.54138729675E+03  0.00000000000E+00 0. -1.
          6    1    1    2  501    0  0.70514158841E+02  0.78082247614E+01  0.81499489618E+01  0.18715938833E+03  0.17300000000E+03 0. -1.
         -6    1    1    2    0  503 -0.70514158841E+02 -0.78082247614E+01 -0.43254004388E+03  0.47122511025E+03  0.17300000000E+03 0. -1.
</event>
<event>
 4    1  0.6104111E+000  0.1000000E+03  0.7546771E-02  0.1280296E+00
         21   -1    0    0  503  502  0.00000000000E+00  0.00000000000E+00  0.32272874393E+02  0.32272874393E+02  0.00000000000E+00 0. -1.
         21   -1    0    0  501  503 -0.00000000000E+00 -0.00000000000E+00 -0.16626569762E+04  0.16626569762E+04  0.00000000000E+00 0.  1.
          6    1    1    2  501    0  0.32361215810E+02 -0.52856225966E+02 -0.13311385595E+04  0.13437633324E+04  0.17300000000E+03 0. -1.
         -6    1    1    2    0  502 -0.32361215810E+02  0.52856225966E+02 -0.29924554232E+03  0.35116651821E+03  0.17300000000E+03 0. -1.
</event>
<event>
 4    1  0.6104111E+000  0.1000000E+03  0.7546771E-02  0.1280296E+00
         21   -1    0    0  503  502  0.00000000000E+00  0.00000000000E+00  0.84201303858E+03  0.84201303858E+03  0.00000000000E+00 0. -1.
         21   -1    0    0  501  503 -0.00000000000E+00 -0.00000000000E+00 -0.70633791645E+02  0.70633791645E+02  0.00000000000E+00 0.  1.
          6    1    1    2  501    0  0.59636834536E+01  0.16753402029E+03  0.31462655948E+03  0.39626012341E+03  0.17300000000E+03 0. -1.
         -6    1    1    2    0  502 -0.59636834536E+01 -0.16753402029E+03  0.45675268746E+03  0.51638670682E+03  0.17300000000E+03 0. -1.
</event>
<event>
 4    1  0.6104111E+000  0.1000000E+03  0.7546771E-02  0.1280296E+00
         21   -1    0    0  503  502  0.00000000000E+00  0.00000000000E+00  0.51756127361E+03  0.51756127361E+03  0.00000000000E+00 0. -1.
         21   -1    0    0  501  503 -0.00000000000E+00 -0.00000000000E+00 -0.69874727087E+02  0.69874727087E+02  0.00000000000E+00 0. -1.
          6    1    1    2  501    0  0.75028590846E+02  0.23424711485E+02  0.23554958909E+03  0.30263941493E+03  0.17300000000E+03 0. -1.
         -6    1    1    2    0  502 -0.75028590846E+02 -0.23424711485E+02  0.21213695744E+03  0.28479658577E+03  0.17300000000E+03 0. -1.
</event>
<event>
 4    1  0.6104111E+000  0.1000000E+03  0.7546771E-02  0.1280296E+00
         21   -1    0    0  503  502  0.00000000000E+00  0.00000000000E+00  0.11953868044E+03  0.11953868044E+03  0.00000000000E+00 0. -1.
         21   -1    0    0  501  503 -0.00000000000E+00 -0.00000000000E+00 -0.47378272399E+03  0.47378272399E+03  0.00000000000E+00 0. -1.
          6    1    1    2  501    0 -0.75801792916E+02  0.11774954631E+03 -0.28212642362E+03  0.35935384563E+03  0.17300000000E+03 0. -1.
         -6    1    1    2    0  502  0.75801792916E+02 -0.11774954631E+03 -0.72117619940E+02  0.23396755880E+03  0.17300000000E+03 0. -1.
</event>
<event>
 4    1  0.6104111E+000  0.1000000E+03  0.7546771E-02  0.1280296E+00
         21   -1    0    0  503  502  0.00000000000E+00  0.00000000000E+00  0.97716824771E+03  0.97716824771E+03  0.00000000000E+00 0.  1.
         21   -1    0    0  501  503 -0.00000000000E+00 -0.00000000000E+00 -0.13104001389E+03  0.13104001389E+03  0.00000000000E+00 0.  1.
          6    1    1    2  501    0 -0.23063753260E+03 -0.12348553566E+03  0.15630871416E+03  0.35043367858E+03  0.17300000000E+03 0.  1.
         -6    1    1    2    0  502  0.23063753260E+03  0.12348553566E+03  0.68981951966E+03  0.75777458302E+03  0.17300000000E+03 0.  1.
</event>
<event>
 4    1  0.6104111E+000  0.1000000E+03  0.7546771E-02  0.1280296E+00
         21   -1    0    0  503  502  0.00000000000E+00  0.00000000000E+00  0.31130814472E+03  0.31130814472E+03  0.00000000000E+00 0.  1.
         21   -1    0    0  501  503 -0.00000000000E+00 -0.00000000000E+00 -0.21052620687E+03  0.21052620687E+03  0.00000000000E+00 0.  1.
          6    1    1    2  501    0  0.64845397437E+02  0.11648595540E+03 -0.85721666813E+02  0.23462972432E+03  0.17300000000E+03 0.  1.
         -6    1    1    2    0  502 -0.64845397437E+02 -0.11648595540E+03  0.18650360466E+03  0.28720462727E+03  0.17300000000E+03 0.  1.
</event>
<event>
 4    1  0.6104111E+000  0.1000000E+03  0.7546771E-02  0.1280296E+00
         21   -1    0    0  503  502  0.00000000000E+00  0.00000000000E+00  0.19193374463E+03  0.19193374463E+03  0.00000000000E+00 0.  1.
         21   -1    0    0  501  503 -0.00000000000E+00 -0.00000000000E+00 -0.40555110317E+03  0.40555110317E+03  0.00000000000E+00 0.  1.
          6    1    1    2  501    0 -0.11733310041E+03  0.75638373821E+02 -0.28732797515E+03  0.36328306504E+03  0.17300000000E+03 0.  1.
         -6    1    1    2    0  502  0.11733310041E+03 -0.75638373821E+02  0.73710616610E+02  0.23420178276E+03  0.17300000000E+03 0.  1.
</event>
<event>
 4    1  0.6104111E+000  0.1000000E+03  0.7546771E-02  0.1280296E+00
         21   -1    0    0  501  502  0.00000000000E+00  0.00000000000E+00  0.20520107143E+03  0.20520107143E+03  0.00000000000E+00 0.  1.
         21   -1    0    0  502  503 -0.00000000000E+00 -0.00000000000E+00 -0.27858391766E+03  0.27858391766E+03  0.00000000000E+00 0.  1.
          6    1    1    2  501    0 -0.26704768867E+02  0.97610632817E+02  0.95202435872E+02  0.22188619632E+03  0.17300000000E+03 0.  1.
         -6    1    1    2    0  503  0.26704768867E+02 -0.97610632817E+02 -0.16858528210E+03  0.26189879278E+03  0.17300000000E+03 0.  1.
</event>
<event>
 4    1  0.6104111E+000  0.1000000E+03  0.7546771E-02  0.1280296E+00
         21   -1    0    0  503  502  0.00000000000E+00  0.00000000000E+00  0.73619164465E+03  0.73619164465E+03  0.00000000000E+00 0. -1.
         21   -1    0    0  501  503 -0.00000000000E+00 -0.00000000000E+00 -0.10454255698E+03  0.10454255698E+03  0.00000000000E+00 0. -1.
          6    1    1    2  501    0 -0.33754301792E+02 -0.21249999873E+03  0.35700933049E+03  0.45130949957E+03  0.17300000000E+03 0. -1.
         -6    1    1    2    0  502  0.33754301792E+02  0.21249999873E+03  0.27463975718E+03  0.38942470206E+03  0.17300000000E+03 0. -1.
</event>
<event>
 4    1  0.6104111E+000  0.1000000E+03  0.7546771E-02  0.1280296E+00
         21   -1    0    0  501  502  0.00000000000E+00  0.00000000000E+00  0.10493671594E+03  0.10493671594E+03  0.00000000000E+00 0. -1.
         21   -1    0    0  502  503 -0.00000000000E+00 -0.00000000000E+00 -0.51974928130E+03  0.51974928130E+03  0.00000000000E+00 0. -1.
          6    1    1    2  501    0  0.29187063948E+02 -0.74402066336E+02 -0.26857031132E+02  0.19245220783E+03  0.17300000000E+03 0. -1.
         -6    1    1    2    0  503 -0.29187063948E+02  0.74402066336E+02 -0.38795553423E+03  0.43223378942E+03  0.17300000000E+03 0. -1.
</event>
<event>
 4    1  0.6104111E+000  0.1000000E+03  0.7546771E-02  0.1280296E+00
         21   -1    0    0  501  502  0.00000000000E+00  0.00000000000E+00  0.11223525836E+03  0.11223525836E+03  0.00000000000E+00 0. -1.
         21   -1    0    0  502  503 -0.00000000000E+00 -0.00000000000E+00 -0.11804996200E+04  0.11804996200E+04  0.00000000000E+00 0. -1.
          6    1    1    2  501    0  0.30085293478E+03 -0.65996314215E+02 -0.37834434354E+03  0.51763060588E+03  0.17300000000E+03 0. -1.
         -6    1    1    2    0  503 -0.30085293478E+03  0.65996314215E+02 -0.68992001810E+03  0.77510427249E+03  0.17300000000E+03 0. -1.
</event>
<event>
 4    1  0.6104111E+000  0.1000000E+03  0.7546771E-02  0.1280296E+00
         21   -1    0    0  501  502  0.00000000000E+00  0.00000000000E+00  0.28707034262E+04  0.28707034262E+04  0.00000000000E+00 0. -1.
         21   -1    0    0  502  503 -0.00000000000E+00 -0.00000000000E+00 -0.29621890120E+02  0.29621890120E+02  0.00000000000E+00 0. -1.
          6    1    1    2  501    0 -0.14936771376E+03 -0.13095533519E+02  0.23187712735E+04  0.23300453699E+04  0.17300000000E+03 0. -1.
         -6    1    1    2    0  503  0.14936771376E+03  0.13095533519E+02  0.52231026262E+03  0.57027994647E+03  0.17300000000E+03 0. -1.
</event>
<event>
 4    1  0.6104111E+000  0.1000000E+03  0.7546771E-02  0.1280296E+00
         21   -1    0    0  503  502  0.00000000000E+00  0.00000000000E+00  0.10579113541E+03  0.10579113541E+03  0.00000000000E+00 0.  1.
         21   -1    0    0  501  503 -0.00000000000E+00 -0.00000000000E+00 -0.30932934778E+03  0.30932934778E+03  0.00000000000E+00 0. -1.
          6    1    1    2  501    0  0.47150118049E+02 -0.21731449282E+02 -0.90300230999E+02  0.20193692391E+03  0.17300000000E+03 0. -1.
         -6    1    1    2    0  502 -0.47150118049E+02  0.21731449282E+02 -0.11323798137E+03  0.21318355927E+03  0.17300000000E+03 0.  1.
</event>
<event>
 4    1  0.6104111E+000  0.1000000E+03  0.7546771E-02  0.1280296E+00
         21   -1    0    0  503  502  0.00000000000E+00  0.00000000000E+00  0.10894212032E+04  0.10894212032E+04  0.00000000000E+00 0.  1.
         21   -1    0    0  501  503 -0.00000000000E+00 -0.00000000000E+00 -0.55448974594E+02  0.55448974594E+02  0.00000000000E+00 0. -1.
          6    1    1    2  501    0  0.11170742493E+03  0.11482370354E+03  0.35536752613E+03  0.42647169930E+03  0.17300000000E+03 0. -1.
         -6    1    1    2    0  502 -0.11170742493E+03 -0.11482370354E+03  0.67860470249E+03  0.71839847851E+03  0.17300000000E+03 0.  1.
</event>
<event>
 4    1  0.6104111E+000  0.1000000E+03  0.7546771E-02  0.1280296E+00
         21   -1    0    0  503  502  0.00000000000E+00  0.00000000000E+00  0.21610510894E+04  0.21610510894E+04  0.00000000000E+00 0. -1.
         21   -1    0    0  501  503 -0.00000000000E+00 -0.00000000000E+00 -0.22500483108E+02  0.22500483108E+02  0.00000000000E+00 0. -1.
          6    1    1    2  501    0 -0.13645842331E+03 -0.93904612166E-01  0.11120914607E+04  0.11337095427E+04  0.17300000000E+03 0. -1.
         -6    1    1    2    0  502  0.13645842331E+03  0.93904612166E-01  0.10264591456E+04  0.10498420299E+04  0.17300000000E+03 0. -1.
</event>
<event>
 4    1  0.6104111E+000  0.1000000E+03  0.7546771E-02  0.1280296E+00
         21   -1    0    0  503  502  0.00000000000E+00  0.00000000000E+00  0.11374555501E+03  0.11374555501E+03  0.00000000000E+00 0. -1.
         21   -1    0    0  501  503 -0.00000000000E+00 -0.00000000000E+00 -0.70397289783E+03  0.70397289783E+03  0.00000000000E+00 0. -1.
          6    1    1    2  501    0  0.10417794943E+03 -0.10185541000E+03 -0.54081464216E+03  0.58620563531E+03  0.17300000000E+03 0. -1.
         -6    1    1    2    0  502 -0.10417794943E+03  0.10185541000E+03 -0.49412700655E+02  0.23151281753E+03  0.17300000000E+03 0. -1.
</event>
<event>
 4    1  0.6104111E+000  0.1000000E+03  0.7546771E-02  0.1280296E+00
         21   -1    0    0  501  502  0.00000000000E+00  0.00000000000E+00  0.32852006354E+03  0.32852006354E+03  0.00000000000E+00 0. -1.
         21   -1    0    0  502  503 -0.00000000000E+00 -0.00000000000E+00 -0.10840618709E+03  0.10840618709E+03  0.00000000000E+00 0. -1.
          6    1    1    2  501    0 -0.12582975261E+02  0.58877545223E+02  0.16259490837E+03  0.24493060410E+03  0.17300000000E+03 0. -1.
         -6    1    1    2    0  503  0.12582975261E+02 -0.58877545223E+02  0.57518968080E+02  0.19199564653E+03  0.17300000000E+03 0. -1.
</event>
<event>
 4    1  0.6104111E+000  0.1000000E+03  0.7546771E-02  0.1280296E+00
         21   -1    0    0  503  502  0.00000000000E+00  0.00000000000E+00  0.18174390289E+03  0.18174390289E+03  0.00000000000E+00 0.  1.
         21   -1    0    0  501  503 -0.00000000000E+00 -0.00000000000E+00 -0.29948551305E+03  0.29948551305E+03  0.00000000000E+00 0. -1.
          6    1    1    2  501    0 -0.63472167428E+02 -0.61758187799E+02 -0.19198186794E+03  0.27318277291E+03  0.17300000000E+03 0. -1.
         -6    1    1    2    0  502  0.63472167428E+02  0.61758187799E+02  0.74240257777E+02  0.20804664302E+03  0.17300000000E+03 0.  1.
</event>
<event>
 4    1  0.6104111E+000  0.1000000E+03  0.7546771E-02  0.1280296E+00
         21   -1    0    0  503  502  0.00000000000E+00  0.00000000000E+00  0.19859700974E+03  0.19859700974E+03  0.00000000000E+00 0.  1.
         21   -1    0    0  501  503 -0.00000000000E+00 -0.00000000000E+00 -0.24600055501E+03  0.24600055501E+03  0.00000000000E+00 0.  1.
          6    1    1    2  501    0 -0.55598050959E+02  0.12464992534E+03 -0.41040896720E+02  0.22414750135E+03  0.17300000000E+03 0.  1.
         -6    1    1    2    0  502  0.55598050959E+02 -0.12464992534E+03 -0.63626485545E+01  0.22045006340E+03  0.17300000000E+03 0.  1.
</event>
<event>
 4    1  0.6104111E+000  0.1000000E+03  0.7546771E-02  0.1280296E+00
         21   -1    0    0  501  502  0.00000000000E+00  0.00000000000E+00  0.89573225868E+02  0.89573225868E+02  0.00000000000E+00 0. -1.
         21   -1    0    0  502  503 -0.00000000000E+00 -0.00000000000E+00 -0.43293957019E+03  0.43293957019E+03  0.00000000000E+00 0.  1.
          6    1    1    2  501    0 -0.53354179492E+02 -0.51097325478E+02 -0.94402979369E+02  0.21047215411E+03  0.17300000000E+03 0. -1.
         -6    1    1    2    0  503  0.53354179492E+02  0.51097325478E+02 -0.24896336495E+03  0.31204064195E+03  0.17300000000E+03 0. -1.
</event>
<event>
 4    1  0.6104111E+000  0.1000000E+03  0.7546771E-02  0.1280296E+00
         21   -1    0    0  501  502  0.00000000000E+00  0.00000000000E+00  0.41842464039E+02  0.41842464039E+02  0.00000000000E+00 0. -1.
         21   -1    0    0  502  503 -0.00000000000E+00 -0.00000000000E+00 -0.91467766925E+03  0.91467766925E+03  0.00000000000E+00 0. -1.
          6    1    1    2  501    0  0.22369899124E+02  0.53076226417E+02 -0.60972897073E+03  0.63640860769E+03  0.17300000000E+03 0. -1.
         -6    1    1    2    0  503 -0.22369899124E+02 -0.53076226417E+02 -0.26310623449E+03  0.32011152560E+03  0.17300000000E+03 0. -1.
</event>
<event>
 4    1  0.6104111E+000  0.1000000E+03  0.7546771E-02  0.1280296E+00
         21   -1    0    0  503  502  0.00000000000E+00  0.00000000000E+00  0.97192567403E+02  0.97192567403E+02  0.00000000000E+00 0. -1.
         21   -1    0    0  501  503 -0.00000000000E+00 -0.00000000000E+00 -0.97715705694E+03  0.97715705694E+03  0.00000000000E+00 0. -1.
          6    1    1    2  501    0  0.82279926488E+01 -0.37711869849E+02 -0.87940923199E+03  0.89709502412E+03  0.17300000000E+03 0. -1.
         -6    1    1    2    0  502 -0.82279926488E+01  0.37711869849E+02 -0.55525754923E+00  0.17725460023E+03  0.17300000000E+03 0. -1.
</event>
<event>
 4    1  0.6104111E+000  0.1000000E+03  0.7546771E-02  0.1280296E+00
         21   -1    0    0  501  502  0.00000000000E+00  0.00000000000E+00  0.48371796785E+02  0.48371796785E+02  0.00000000000E+00 0.  1.
         21   -1    0    0  502  503 -0.00000000000E+00 -0.00000000000E+00 -0.84276779558E+03  0.84276779558E+03  0.00000000000E+00 0.  1.
          6    1    1    2  501    0 -0.69680078122E+01  0.55573437019E+02 -0.20354796099E+03  0.27294272743E+03  0.17300000000E+03 0.  1.
         -6    1    1    2    0  503  0.69680078122E+01 -0.55573437019E+02 -0.59084803781E+03  0.61819686493E+03  0.17300000000E+03 0.  1.
</event>
<event>
 4    1  0.6104111E+000  0.1000000E+03  0.7546771E-02  0.1280296E+00
         21   -1    0    0  501  502  0.00000000000E+00  0.00000000000E+00  0.17437848561E+03  0.17437848561E+03  0.00000000000E+00 0.  1.
         21   -1    0    0  502  503 -0.00000000000E+00 -0.00000000000E+00 -0.24194498835E+03  0.24194498835E+03  0.00000000000E+00 0.  1.
          6    1    1    2  501    0  0.82384980383E+02  0.29688069075E+02 -0.10246049894E+03  0.21930759285E+03  0.17300000000E+03 0.  1.
         -6    1    1    2    0  503 -0.82384980383E+02 -0.29688069075E+02  0.34893996207E+02  0.19701588111E+03  0.17300000000E+03 0.  1.
</event>
<event>
 4    1  0.6104111E+000  0.1000000E+03  0.7546771E-02  0.1280296E+00
         21   -1    0    0  501  502  0.00000000000E+00  0.00000000000E+00  0.95848893547E+02  0.95848893547E+02  0.00000000000E+00 0.  1.
         21   -1    0    0  502  503 -0.00000000000E+00 -0.00000000000E+00 -0.73155110120E+03  0.73155110120E+03  0.00000000000E+00 0.  1.
          6    1    1    2  501    0  0.17553759305E+03 -0.95544571274E+02 -0.29328978681E+03  0.39482921716E+03  0.17300000000E+03 0.  1.
         -6    1    1    2    0  503 -0.17553759305E+03  0.95544571274E+02 -0.34241242085E+03  0.43257077759E+03  0.17300000000E+03 0.  1.
</event>
<event>
 4    1  0.6104111E+000  0.1000000E+03  0.7546771E-02  0.1280296E+00
         21   -1    0    0  501  502  0.00000000000E+00  0.00000000000E+00  0.31178728691E+03  0.31178728691E+03  0.00000000000E+00 0.  1.
         21   -1    0    0  502  503 -0.00000000000E+00 -0.00000000000E+00 -0.26468333055E+03  0.26468333055E+03  0.00000000000E+00 0.  1.
          6    1    1    2  501    0 -0.12293763216E+03  0.12052694359E+03  0.17557101844E+03  0.30065692749E+03  0.17300000000E+03 0.  1.
         -6    1    1    2    0  503  0.12293763216E+03 -0.12052694359E+03 -0.12846706208E+03  0.27581368996E+03  0.17300000000E+03 0.  1.
</event>
<event>
 4    1  0.6104111E+000  0.1000000E+03  0.7546771E-02  0.1280296E+00
         21   -1    0    0  501  502  0.00000000000E+00  0.00000000000E+00  0.27305499718E+04  0.27305499718E+04  0.00000000000E+00 0.  1.
         21   -1    0    0  502  503 -0.00000000000E+00 -0.00000000000E+00 -0.79591606077E+02  0.79591606077E+02  0.00000000000E+00 0.  1.
          6    1    1    2  501    0 -0.84939819904E+02  0.59188505348E+02  0.25923590097E+04  0.26001869716E+04  0.17300000000E+03 0.  1.
         -6    1    1    2    0  503  0.84939819904E+02 -0.59188505348E+02  0.58599356040E+02  0.20995460628E+03  0.17300000000E+03 0.  1.
</event>
<event>
 4    1  0.6104111E+000  0.1000000E+03  0.7546771E-02  0.1280296E+00
         21   -1    0    0  501  502  0.00000000000E+00  0.00000000000E+00  0.34317431330E+03  0.34317431330E+03  0.00000000000E+00 0.  1.
         21   -1    0    0  502  503 -0.00000000000E+00 -0.00000000000E+00 -0.15680842570E+03  0.15680842570E+03  0.00000000000E+00 0.  1.
          6    1    1    2  501    0 -0.13556489409E+03  0.45612386180E+02  0.15625425047E+03  0.27350086119E+03  0.17300000000E+03 0.  1.
         -6    1    1    2    0  503  0.13556489409E+03 -0.45612386180E+02  0.30111637131E+02  0.22648187780E+03  0.17300000000E+03 0.  1.
</event>
<event>
 4    1  0.6104111E+000  0.1000000E+03  0.7546771E-02  0.1280296E+00
         21   -1    0    0  501  502  0.00000000000E+00  0.00000000000E+00  0.19519100655E+03  0.19519100655E+03  0.00000000000E+00 0.  1.
         21   -1    0    0  502  503 -0.00000000000E+00 -0.00000000000E+00 -0.20923397032E+03  0.20923397032E+03  0.00000000000E+00 0.  1.
          6    1    1    2  501    0  0.87851871221E+01 -0.71073734603E+02  0.69070008754E+02  0.19957034192E+03  0.17300000000E+03 0.  1.
         -6    1    1    2    0  503 -0.87851871221E+01  0.71073734603E+02 -0.83112972523E+02  0.20485463496E+03  0.17300000000E+03 0.  1.
</event>
<event>
 4    1  0.6104111E+000  0.1000000E+03  0.7546771E-02  0.1280296E+00
         21   -1    0    0  501  502  0.00000000000E+00  0.00000000000E+00  0.39734069411E+02  0.39734069411E+02  0.00000000000E+00 0. -1.
         21   -1    0    0  502  503 -0.00000000000E+00 -0.00000000000E+00 -0.19365304881E+04  0.19365304881E+04  0.00000000000E+00 0. -1.
          6    1    1    2  501    0  0.13097467873E+03 -0.17235040988E+03 -0.90359246898E+03  0.94512823482E+03  0.17300000000E+03 0. -1.
         -6    1    1    2    0  503 -0.13097467873E+03  0.17235040988E+03 -0.99320394967E+03  0.10311363227E+04  0.17300000000E+03 0. -1.
</event>
<event>
 4    1  0.6104111E+000  0.1000000E+03  0.7546771E-02  0.1280296E+00
         21   -1    0    0  503  502  0.00000000000E+00  0.00000000000E+00  0.30174094555E+03  0.30174094555E+03  0.00000000000E+00 0.  1.
         21   -1    0    0  501  503 -0.00000000000E+00 -0.00000000000E+00 -0.17404838638E+03  0.17404838638E+03  0.00000000000E+00 0. -1.
          6    1    1    2  501    0  0.60561131054E+02  0.11470182613E+03 -0.14968619328E+02  0.21674228724E+03  0.17300000000E+03 0. -1.
         -6    1    1    2    0  502 -0.60561131054E+02 -0.11470182613E+03  0.14266117850E+03  0.25904704469E+03  0.17300000000E+03 0.  1.
</event>
<event>
 4    1  0.6104111E+000  0.1000000E+03  0.7546771E-02  0.1280296E+00
         21   -1    0    0  503  502  0.00000000000E+00  0.00000000000E+00  0.34804897642E+02  0.34804897642E+02  0.00000000000E+00 0.  1.
         21   -1    0    0  501  503 -0.00000000000E+00 -0.00000000000E+00 -0.20597458365E+04  0.20597458365E+04  0.00000000000E+00 0. -1.
          6    1    1    2  501    0  0.68683574721E+02  0.27908019048E+02 -0.17573249889E+04  0.17673755706E+04  0.17300000000E+03 0.  1.
         -6    1    1    2    0  502 -0.68683574721E+02 -0.27908019048E+02 -0.26761594996E+03  0.32717516354E+03  0.17300000000E+03 0.  1.
</event>
<event>
 4    1  0.6104111E+000  0.1000000E+03  0.7546771E-02  0.1280296E+00
         21   -1    0    0  503  502  0.00000000000E+00  0.00000000000E+00  0.40380763306E+03  0.40380763306E+03  0.00000000000E+00 0. -1.
         21   -1    0    0  501  503 -0.00000000000E+00 -0.00000000000E+00 -0.13357069437E+03  0.13357069437E+03  0.00000000000E+00 0. -1.
          6    1    1    2  501    0  0.65953455538E+02  0.13883822315E+03  0.15772915049E+03  0.28005962833E+03  0.17300000000E+03 0. -1.
         -6    1    1    2    0  502 -0.65953455538E+02 -0.13883822315E+03  0.11250778820E+03  0.25731869911E+03  0.17300000000E+03 0. -1.
</event>
<event>
 4    1  0.6104111E+000  0.1000000E+03  0.7546771E-02  0.1280296E+00
         21   -1    0    0  503  502  0.00000000000E+00  0.00000000000E+00  0.16555412770E+03  0.16555412770E+03  0.00000000000E+00 0. -1.
         21   -1    0    0  501  503 -0.00000000000E+00 -0.00000000000E+00 -0.24387174461E+03  0.24387174461E+03  0.00000000000E+00 0. -1.
          6    1    1    2  501    0  0.22534321446E+02 -0.34836373207E+02 -0.13431620351E+03  0.22291525535E+03  0.17300000000E+03 0. -1.
         -6    1    1    2    0  502 -0.22534321446E+02  0.34836373207E+02  0.55998586594E+02  0.18651061697E+03  0.17300000000E+03 0. -1.
</event>
<event>
 4    1  0.6104111E+000  0.1000000E+03  0.7546771E-02  0.1280296E+00
         21   -1    0    0  503  502  0.00000000000E+00  0.00000000000E+00  0.74441271860E+02  0.74441271860E+02  0.00000000000E+00 0. -1.
         21   -1    0    0  501  503 -0.00000000000E+00 -0.00000000000E+00 -0.66271656174E+03  0.66271656174E+03  0.00000000000E+00 0. -1.
          6    1    1    2  501    0 -0.12734778257E+02  0.10643239664E+03 -0.44176594500E+03  0.48639097421E+03  0.17300000000E+03 0. -1.
         -6    1    1    2    0  502  0.12734778257E+02 -0.10643239664E+03 -0.14650934489E+03  0.25076685940E+03  0.17300000000E+03 0. -1.
</event>
<event>
 4    1  0.6104111E+000  0.1000000E+03  0.7546771E-02  0.1280296E+00
         21   -1    0    0  501  502  0.00000000000E+00  0.00000000000E+00  0.82244481068E+02  0.82244481068E+02  0.00000000000E+00 0.  1.
         21   -1    0    0  502  503 -0.00000000000E+00 -0.00000000000E+00 -0.49180184781E+03  0.49180184781E+03  0.00000000000E+00 0. -1.
          6    1    1    2  501    0  0.76224234785E+02  0.22343451630E+02 -0.11218312834E+03  0.22096021833E+03  0.17300000000E+03 0.  1.
         -6    1    1    2    0  503 -0.76224234785E+02 -0.22343451630E+02 -0.29737423840E+03  0.35308611055E+03  0.17300000000E+03 0. -1.
</event>
<event>
 4    1  0.6104111E+000  0.1000000E+03  0.7546771E-02  0.1280296E+00
         21   -1    0    0  503  502  0.00000000000E+00  0.00000000000E+00  0.39312257279E+02  0.39312257279E+02  0.00000000000E+00 0. -1.
         21   -1    0    0  501  503 -0.00000000000E+00 -0.00000000000E+00 -0.13894873551E+04  0.13894873551E+04  0.00000000000E+00 0. -1.
          6    1    1    2  501    0 -0.55105934552E+02 -0.11998265827E+03 -0.93557666664E+03  0.96055463221E+03  0.17300000000E+03 0. -1.
         -6    1    1    2    0  502  0.55105934552E+02  0.11998265827E+03 -0.41459843117E+03  0.46824498015E+03  0.17300000000E+03 0. -1.
</event>
<event>
 4    1  0.6104111E+000  0.1000000E+03  0.7546771E-02  0.1280296E+00
         21   -1    0    0  503  502  0.00000000000E+00  0.00000000000E+00  0.10499381985E+04  0.10499381985E+04  0.00000000000E+00 0. -1.
         21   -1    0    0  501  503 -0.00000000000E+00 -0.00000000000E+00 -0.79126852686E+02  0.79126852686E+02  0.00000000000E+00 0. -1.
          6    1    1    2  501    0 -0.79030880869E+00  0.27882575085E+02  0.37185298575E+02  0.17913628614E+03  0.17300000000E+03 0. -1.
         -6    1    1    2    0  502  0.79030880869E+00 -0.27882575085E+02  0.93362604727E+03  0.94992876508E+03  0.17300000000E+03 0. -1.
</event>
<event>
 4    1  0.6104111E+000  0.1000000E+03  0.7546771E-02  0.1280296E+00
         21   -1    0    0  503  502  0.00000000000E+00  0.00000000000E+00  0.55080257853E+03  0.55080257853E+03  0.00000000000E+00 0. -1.
         21   -1    0    0  501  503 -0.00000000000E+00 -0.00000000000E+00 -0.12108776331E+03  0.12108776331E+03  0.00000000000E+00 0. -1.
          6    1    1    2  501    0 -0.33756936495E+02 -0.38717675278E+02 -0.25454250407E+02  0.18225122223E+03  0.17300000000E+03 0. -1.
         -6    1    1    2    0  502  0.33756936495E+02  0.38717675278E+02  0.45516906563E+03  0.48963911960E+03  0.17300000000E+03 0. -1.
</event>
<event>
 4    1  0.6104111E+000  0.1000000E+03  0.7546771E-02  0.1280296E+00
         21   -1    0    0  503  502  0.00000000000E+00  0.00000000000E+00  0.32879884330E+03  0.32879884330E+03  0.00000000000E+00 0. -1.
         21   -1    0    0  501  503 -0.00000000000E+00 -0.00000000000E+00 -0.12866322663E+03  0.12866322663E+03  0.00000000000E+00 0. -1.
          6    1    1    2  501    0  0.98609586206E+02  0.32225290146E+02  0.55404595972E+02  0.20919127389E+03  0.17300000000E+03 0. -1.
         -6    1    1    2    0  502 -0.98609586206E+02 -0.32225290146E+02  0.14473102070E+03  0.24827079605E+03  0.17300000000E+03 0. -1.
</event>
<event>
 4    1  0.6104111E+000  0.1000000E+03  0.7546771E-02  0.1280296E+00
         21   -1    0    0  501  502  0.00000000000E+00  0.00000000000E+00  0.24898919245E+03  0.24898919245E+03  0.00000000000E+00 0.  1.
         21   -1    0    0  502  503 -0.00000000000E+00 -0.00000000000E+00 -0.15704129845E+03  0.15704129845E+03  0.00000000000E+00 0.  1.
          6    1    1    2  501    0  0.22720632355E+02  0.44728010797E+02  0.12973274235E+03  0.22198289692E+03  0.17300000000E+03 0.  1.
         -6    1    1    2    0  503 -0.22720632355E+02 -0.44728010797E+02 -0.37784848356E+02  0.18404759398E+03  0.17300000000E+03 0.  1.
</event>
<event>
 4    1  0.6104111E+000  0.1000000E+03  0.7546771E-02  0.1280296E+00
         21   -1    0    0  501  502  0.00000000000E+00  0.00000000000E+00  0.67250032430E+02  0.67250032430E+02  0.00000000000E+00 0.  1.
         21   -1    0    0  502  503 -0.00000000000E+00 -0.00000000000E+00 -0.49125153967E+03  0.49125153967E+03  0.00000000000E+00 0.  1.
          6    1    1    2  501    0  0.20689308507E+01 -0.54046299972E+02 -0.23275024094E+03  0.29500331807E+03  0.17300000000E+03 0.  1.
         -6    1    1    2    0  503 -0.20689308507E+01  0.54046299972E+02 -0.19125126631E+03  0.26349825403E+03  0.17300000000E+03 0.  1.
</event>
<event>
 4    1  0.6104111E+000  0.1000000E+03  0.7546771E-02  0.1280296E+00
         21   -1    0    0  501  502  0.00000000000E+00  0.00000000000E+00  0.15625045461E+03  0.15625045461E+03  0.00000000000E+00 0. -1.
         21   -1    0    0  502  503 -0.00000000000E+00 -0.00000000000E+00 -0.63375865116E+03  0.63375865116E+03  0.00000000000E+00 0. -1.
          6    1    1    2  501    0 -0.42237529442E+02  0.99262019956E+02  0.62136758448E+02  0.21313595250E+03  0.17300000000E+03 0. -1.
         -6    1    1    2    0  503  0.42237529442E+02 -0.99262019956E+02 -0.53964495500E+03  0.57687315326E+03  0.17300000000E+03 0. -1.
</event>
<event>
 4    1  0.6104111E+000  0.1000000E+03  0.7546771E-02  0.1280296E+00
         21   -1    0    0  501  502  0.00000000000E+00  0.00000000000E+00  0.44309308739E+02  0.44309308739E+02  0.00000000000E+00 0. -1.
         21   -1    0    0  502  503 -0.00000000000E+00 -0.00000000000E+00 -0.14591438114E+04  0.14591438114E+04  0.00000000000E+00 0.  1.
          6    1    1    2  501    0 -0.49223003759E+02 -0.37710379574E+02 -0.18790028884E+03  0.26283168640E+03  0.17300000000E+03 0.  1.
         -6    1    1    2    0  503  0.49223003759E+02  0.37710379574E+02 -0.12269342138E+04  0.12406214338E+04  0.17300000000E+03 0. -1.
</event>
<event>
 4    1  0.6104111E+000  0.1000000E+03  0.7546771E-02  0.1280296E+00
         21   -1    0    0  501  502  0.00000000000E+00  0.00000000000E+00  0.27273542970E+03  0.27273542970E+03  0.00000000000E+00 0. -1.
         21   -1    0    0  502  503 -0.00000000000E+00 -0.00000000000E+00 -0.97154862773E+03  0.97154862773E+03  0.00000000000E+00 0.  1.
          6    1    1    2  501    0  0.16491064128E+03  0.96958783255E+02  0.18900234868E+03  0.31976149403E+03  0.17300000000E+03 0.  1.
         -6    1    1    2    0  503 -0.16491064128E+03 -0.96958783255E+02 -0.88781554671E+03  0.92452256340E+03  0.17300000000E+03 0. -1.
</event>
<event>
 4    1  0.6104111E+000  0.1000000E+03  0.7546771E-02  0.1280296E+00
         21   -1    0    0  501  502  0.00000000000E+00  0.00000000000E+00  0.84922212703E+03  0.84922212703E+03  0.00000000000E+00 0. -1.
         21   -1    0    0  502  503 -0.00000000000E+00 -0.00000000000E+00 -0.34287110652E+03  0.34287110652E+03  0.00000000000E+00 0.  1.
          6    1    1    2  501    0  0.37213480559E+03 -0.95789213021E+02  0.62545089745E+03  0.75417352909E+03  0.17300000000E+03 0.  1.
         -6    1    1    2    0  503 -0.37213480559E+03  0.95789213021E+02 -0.11909987694E+03  0.43791970446E+03  0.17300000000E+03 0. -1.
</event>
<event>
 4    1  0.6104111E+000  0.1000000E+03  0.7546771E-02  0.1280296E+00
         21   -1    0    0  501  502  0.00000000000E+00  0.00000000000E+00  0.88771999403E+03  0.88771999403E+03  0.00000000000E+00 0. -1.
         21   -1    0    0  502  503 -0.00000000000E+00 -0.00000000000E+00 -0.55322317143E+02  0.55322317143E+02  0.00000000000E+00 0.  1.
          6    1    1    2  501    0  0.12552322712E+03 -0.40725390526E+02  0.50564098645E+03  0.55046929538E+03  0.17300000000E+03 0.  1.
         -6    1    1    2    0  503 -0.12552322712E+03  0.40725390526E+02  0.32675669044E+03  0.39257301579E+03  0.17300000000E+03 0. -1.
</event>
<event>
 4    1  0.6104111E+000  0.1000000E+03  0.7546771E-02  0.1280296E+00
         21   -1    0    0  503  502  0.00000000000E+00  0.00000000000E+00  0.51931866936E+03  0.51931866936E+03  0.00000000000E+00 0. -1.
         21   -1    0    0  501  503 -0.00000000000E+00 -0.00000000000E+00 -0.12973210034E+03  0.12973210034E+03  0.00000000000E+00 0.  1.
          6    1    1    2  501    0  0.36054675185E+02  0.59522510986E+02 -0.30952507722E+02  0.18902361400E+03  0.17300000000E+03 0. -1.
         -6    1    1    2    0  502 -0.36054675185E+02 -0.59522510986E+02  0.42053907674E+03  0.46002715570E+03  0.17300000000E+03 0. -1.
</event>
<event>
 4    1  0.6104111E+000  0.1000000E+03  0.7546771E-02  0.1280296E+00
         21   -1    0    0  501  502  0.00000000000E+00  0.00000000000E+00  0.25788805439E+03  0.25788805439E+03  0.00000000000E+00 0.  1.
         21   -1    0    0  502  503 -0.00000000000E+00 -0.00000000000E+00 -0.44805089225E+03  0.44805089225E+03  0.00000000000E+00 0. -1.
          6    1    1    2  501    0  0.19990815351E+03  0.18207703020E+03 -0.21118858859E+03  0.38424592999E+03  0.17300000000E+03 0.  1.
         -6    1    1    2    0  503 -0.19990815351E+03 -0.18207703020E+03  0.21025750728E+02  0.32169301665E+03  0.17300000000E+03 0. -1.
</event>
<event>
 4    1  0.6104111E+000  0.1000000E+03  0.7546771E-02  0.1280296E+00
         21   -1    0    0  501  502  0.00000000000E+00  0.00000000000E+00  0.25630884582E+03  0.25630884582E+03  0.00000000000E+00 0.  1.
         21   -1    0    0  502  503 -0.00000000000E+00 -0.00000000000E+00 -0.29642977530E+03  0.29642977530E+03  0.00000000000E+00 0. -1.
          6    1    1    2  501    0 -0.17076737210E+02 -0.87871132771E+02  0.17548257870E+03  0.26217567842E+03  0.17300000000E+03 0. -1.
         -6    1    1    2    0  503  0.17076737210E+02  0.87871132771E+02 -0.21560350818E+03  0.29056294270E+03  0.17300000000E+03 0.  1.
</event>
<event>
 4    1  0.6104111E+000  0.1000000E+03  0.7546771E-02  0.1280296E+00
         21   -1    0    0  501  502  0.00000000000E+00  0.00000000000E+00  0.72719546919E+03  0.72719546919E+03  0.00000000000E+00 0.  1.
         21   -1    0    0  502  503 -0.00000000000E+00 -0.00000000000E+00 -0.14663790922E+03  0.14663790922E+03  0.00000000000E+00 0. -1.
          6    1    1    2  501    0 -0.12434706157E+03  0.17805456134E+03  0.52023953801E+03  0.58969805447E+03  0.17300000000E+03 0. -1.
         -6    1    1    2    0  503  0.12434706157E+03 -0.17805456134E+03  0.60318021963E+02  0.28413532394E+03  0.17300000000E+03 0.  1.
</event>
<event>
 4    1  0.6104111E+000  0.1000000E+03  0.7546771E-02  0.1280296E+00
         21   -1    0    0  501  502  0.00000000000E+00  0.00000000000E+00  0.48012789641E+03  0.48012789641E+03  0.00000000000E+00 0.  1.
         21   -1    0    0  502  503 -0.00000000000E+00 -0.00000000000E+00 -0.13578169746E+03  0.13578169746E+03  0.00000000000E+00 0. -1.
          6    1    1    2  501    0 -0.74546572824E+02 -0.16442545078E+03  0.23450311270E+03  0.34280261121E+03  0.17300000000E+03 0. -1.
         -6    1    1    2    0  503  0.74546572824E+02  0.16442545078E+03  0.10984308625E+03  0.27310698267E+03  0.17300000000E+03 0.  1.
</event>
<event>
 4    1  0.6104111E+000  0.1000000E+03  0.7546771E-02  0.1280296E+00
         21   -1    0    0  501  502  0.00000000000E+00  0.00000000000E+00  0.19829476238E+03  0.19829476238E+03  0.00000000000E+00 0.  1.
         21   -1    0    0  502  503 -0.00000000000E+00 -0.00000000000E+00 -0.34185895679E+03  0.34185895679E+03  0.00000000000E+00 0. -1.
          6    1    1    2  501    0  0.10380021701E+03 -0.10221909312E+03  0.62013161373E+02  0.23451622595E+03  0.17300000000E+03 0. -1.
         -6    1    1    2    0  503 -0.10380021701E+03  0.10221909312E+03 -0.20557735578E+03  0.30563749322E+03  0.17300000000E+03 0.  1.
</event>
<event>
 4    1  0.6104111E+000  0.1000000E+03  0.7546771E-02  0.1280296E+00
         21   -1    0    0  501  502  0.00000000000E+00  0.00000000000E+00  0.26421797100E+03  0.26421797100E+03  0.00000000000E+00 0.  1.
         21   -1    0    0  502  503 -0.00000000000E+00 -0.00000000000E+00 -0.14022348684E+03  0.14022348684E+03  0.00000000000E+00 0.  1.
          6    1    1    2  501    0 -0.63786288983E+02 -0.46466558318E+02  0.93387510108E+02  0.21184442109E+03  0.17300000000E+03 0.  1.
         -6    1    1    2    0  503  0.63786288983E+02  0.46466558318E+02  0.30606974046E+02  0.19259703675E+03  0.17300000000E+03 0.  1.
</event>
<event>
 4    1  0.6104111E+000  0.1000000E+03  0.7546771E-02  0.1280296E+00
         21   -1    0    0  501  502  0.00000000000E+00  0.00000000000E+00  0.28361789411E+03  0.28361789411E+03  0.00000000000E+00 0.  1.
         21   -1    0    0  502  503 -0.00000000000E+00 -0.00000000000E+00 -0.43621627497E+03  0.43621627497E+03  0.00000000000E+00 0.  1.
          6    1    1    2  501    0  0.13106825434E+03  0.21210960532E+03  0.10565756531E+03  0.32134388601E+03  0.17300000000E+03 0.  1.
         -6    1    1    2    0  503 -0.13106825434E+03 -0.21210960532E+03 -0.25825594617E+03  0.39849028307E+03  0.17300000000E+03 0.  1.
</event>
<event>
 4    1  0.6104111E+000  0.1000000E+03  0.7546771E-02  0.1280296E+00
         21   -1    0    0  501  502  0.00000000000E+00  0.00000000000E+00  0.13153919239E+04  0.13153919239E+04  0.00000000000E+00 0.  1.
         21   -1    0    0  502  503 -0.00000000000E+00 -0.00000000000E+00 -0.41153913904E+02  0.41153913904E+02  0.00000000000E+00 0.  1.
          6    1    1    2  501    0  0.10470554149E+03 -0.39090510499E+02  0.95262617931E+03  0.97463683284E+03  0.17300000000E+03 0.  1.
         -6    1    1    2    0  503 -0.10470554149E+03  0.39090510499E+02  0.32161183066E+03  0.38190900494E+03  0.17300000000E+03 0.  1.
</event>
<event>
 4    1  0.6104111E+000  0.1000000E+03  0.7546771E-02  0.1280296E+00
         21   -1    0    0  501  502  0.00000000000E+00  0.00000000000E+00  0.66571027757E+03  0.66571027757E+03  0.00000000000E+00 0.  1.
         21   -1    0    0  502  503 -0.00000000000E+00 -0.00000000000E+00 -0.63781995923E+02  0.63781995923E+02  0.00000000000E+00 0.  1.
          6    1    1    2  501    0 -0.78760260681E+02  0.79547152145E+02  0.30208663492E+03  0.36567234387E+03  0.17300000000E+03 0.  1.
         -6    1    1    2    0  503  0.78760260681E+02 -0.79547152145E+02  0.29984164673E+03  0.36381992962E+03  0.17300000000E+03 0.  1.
</event>
<event>
 4    1  0.6104111E+000  0.1000000E+03  0.7546771E-02  0.1280296E+00
         21   -1    0    0  503  502  0.00000000000E+00  0.00000000000E+00  0.19554889808E+03  0.19554889808E+03  0.00000000000E+00 0.  1.
         21   -1    0    0  501  503 -0.00000000000E+00 -0.00000000000E+00 -0.28581737943E+03  0.28581737943E+03  0.00000000000E+00 0.  1.
          6    1    1    2  501    0  0.62422796176E+02  0.10391404476E+03 -0.15320002417E+03  0.26094823546E+03  0.17300000000E+03 0.  1.
         -6    1    1    2    0  502 -0.62422796176E+02 -0.10391404476E+03  0.62931542813E+02  0.22041804205E+03  0.17300000000E+03 0.  1.
</event>
<event>
 4    1  0.6104111E+000  0.1000000E+03  0.7546771E-02  0.1280296E+00
         21   -1    0    0  503  502  0.00000000000E+00  0.00000000000E+00  0.10171652989E+03  0.10171652989E+03  0.00000000000E+00 0.  1.
         21   -1    0    0  501  503 -0.00000000000E+00 -0.00000000000E+00 -0.53120861287E+03  0.53120861287E+03  0.00000000000E+00 0.  1.
          6    1    1    2  501    0  0.61938334627E+02 -0.12584909860E+03 -0.30535345391E+03  0.37794719833E+03  0.17300000000E+03 0.  1.
         -6    1    1    2    0  502 -0.61938334627E+02  0.12584909860E+03 -0.12413862908E+03  0.25497794442E+03  0.17300000000E+03 0.  1.
</event>
<event>
 4    1  0.6104111E+000  0.1000000E+03  0.7546771E-02  0.1280296E+00
         21   -1    0    0  503  502  0.00000000000E+00  0.00000000000E+00  0.50232012056E+03  0.50232012056E+03  0.00000000000E+00 0. -1.
         21   -1    0    0  501  503 -0.00000000000E+00 -0.00000000000E+00 -0.84953879204E+03  0.84953879204E+03  0.00000000000E+00 0.  1.
          6    1    1    2  501    0  0.90183348971E+01 -0.25252340713E+03 -0.77066776192E+03  0.82928113494E+03  0.17300000000E+03 0.  1.
         -6    1    1    2    0  502 -0.90183348971E+01  0.25252340713E+03  0.42344909044E+03  0.52257777766E+03  0.17300000000E+03 0. -1.
</event>
<event>
 4    1  0.6104111E+000  0.1000000E+03  0.7546771E-02  0.1280296E+00
         21   -1    0    0  503  502  0.00000000000E+00  0.00000000000E+00  0.29389341635E+03  0.29389341635E+03  0.00000000000E+00 0. -1.
         21   -1    0    0  501  503 -0.00000000000E+00 -0.00000000000E+00 -0.37858542311E+03  0.37858542311E+03  0.00000000000E+00 0.  1.
          6    1    1    2  501    0 -0.80815485334E+02 -0.12839388909E+03 -0.28577673884E+03  0.36689709441E+03  0.17300000000E+03 0.  1.
         -6    1    1    2    0  502  0.80815485334E+02  0.12839388909E+03  0.20108473209E+03  0.30558174504E+03  0.17300000000E+03 0. -1.
</event>
<event>
 4    1  0.6104111E+000  0.1000000E+03  0.7546771E-02  0.1280296E+00
         21   -1    0    0  501  502  0.00000000000E+00  0.00000000000E+00  0.39100789834E+03  0.39100789834E+03  0.00000000000E+00 0.  1.
         21   -1    0    0  502  503 -0.00000000000E+00 -0.00000000000E+00 -0.22233912029E+03  0.22233912029E+03  0.00000000000E+00 0.  1.
          6    1    1    2  501    0  0.52101357473E+02  0.14114690554E+02  0.32624137111E+03  0.37319727781E+03  0.17300000000E+03 0.  1.
         -6    1    1    2    0  503 -0.52101357473E+02 -0.14114690554E+02 -0.15757259306E+03  0.24014974083E+03  0.17300000000E+03 0.  1.
</event>
<event>
 4    1  0.6104111E+000  0.1000000E+03  0.7546771E-02  0.1280296E+00
         21   -1    0    0  503  502  0.00000000000E+00  0.00000000000E+00  0.84610558352E+03  0.84610558352E+03  0.00000000000E+00 0. -1.
         21   -1    0    0  501  503 -0.00000000000E+00 -0.00000000000E+00 -0.59231004003E+02  0.59231004003E+02  0.00000000000E+00 0.  1.
          6    1    1    2  501    0  0.71103542696E+02  0.54294863283E+02  0.17024919003E+03  0.25868404023E+03  0.17300000000E+03 0.  1.
         -6    1    1    2    0  502 -0.71103542696E+02 -0.54294863283E+02  0.61662538948E+03  0.64665254729E+03  0.17300000000E+03 0. -1.
</event>
<event>
 4    1  0.6104111E+000  0.1000000E+03  0.7546771E-02  0.1280296E+00
         21   -1    0    0  503  502  0.00000000000E+00  0.00000000000E+00  0.87836152587E+03  0.87836152587E+03  0.00000000000E+00 0. -1.
         21   -1    0    0  501  503 -0.00000000000E+00 -0.00000000000E+00 -0.43474759844E+03  0.43474759844E+03  0.00000000000E+00 0.  1.
          6    1    1    2  501    0 -0.20940416132E+03  0.24297178250E+02 -0.36735593086E+03  0.45751484739E+03  0.17300000000E+03 0.  1.
         -6    1    1    2    0  502  0.20940416132E+03 -0.24297178250E+02  0.81096985829E+03  0.85559427692E+03  0.17300000000E+03 0. -1.
</event>
<event>
 4    1  0.6104111E+000  0.1000000E+03  0.7546771E-02  0.1280296E+00
         21   -1    0    0  503  502  0.00000000000E+00  0.00000000000E+00  0.24395365237E+03  0.24395365237E+03  0.00000000000E+00 0. -1.
         21   -1    0    0  501  503 -0.00000000000E+00 -0.00000000000E+00 -0.15923676774E+03  0.15923676774E+03  0.00000000000E+00 0.  1.
          6    1    1    2  501    0 -0.36668300726E+02  0.79989746370E+02  0.73054311598E+01  0.19423000058E+03  0.17300000000E+03 0.  1.
         -6    1    1    2    0  502  0.36668300726E+02 -0.79989746370E+02  0.77411453465E+02  0.20896041953E+03  0.17300000000E+03 0. -1.
</event>
<event>
 4    1  0.6104111E+000  0.1000000E+03  0.7546771E-02  0.1280296E+00
         21   -1    0    0  503  502  0.00000000000E+00  0.00000000000E+00  0.87850958859E+03  0.87850958859E+03  0.00000000000E+00 0. -1.
         21   -1    0    0  501  503 -0.00000000000E+00 -0.00000000000E+00 -0.99764286507E+02  0.99764286507E+02  0.00000000000E+00 0. -1.
          6    1    1    2  501    0 -0.74005947373E+02  0.20216986722E+03  0.56551387245E+03  0.62935242542E+03  0.17300000000E+03 0. -1.
         -6    1    1    2    0  502  0.74005947373E+02 -0.20216986722E+03  0.21323142963E+03  0.34892144967E+03  0.17300000000E+03 0. -1.
</event>
<event>
 4    1  0.6104111E+000  0.1000000E+03  0.7546771E-02  0.1280296E+00
         21   -1    0    0  503  502  0.00000000000E+00  0.00000000000E+00  0.63392895274E+03  0.63392895274E+03  0.00000000000E+00 0. -1.
         21   -1    0    0  501  503 -0.00000000000E+00 -0.00000000000E+00 -0.59944251639E+02  0.59944251639E+02  0.00000000000E+00 0. -1.
          6    1    1    2  501    0  0.71074447335E+02  0.37909778176E+02  0.21618945641E+03  0.28836714342E+03  0.17300000000E+03 0. -1.
         -6    1    1    2    0  502 -0.71074447335E+02 -0.37909778176E+02  0.35779524469E+03  0.40550606095E+03  0.17300000000E+03 0. -1.
</event>
<event>
 4    1  0.6104111E+000  0.1000000E+03  0.7546771E-02  0.1280296E+00
         21   -1    0    0  503  502  0.00000000000E+00  0.00000000000E+00  0.47256648093E+03  0.47256648093E+03  0.00000000000E+00 0. -1.
         21   -1    0    0  501  503 -0.00000000000E+00 -0.00000000000E+00 -0.89863772218E+02  0.89863772218E+02  0.00000000000E+00 0. -1.
          6    1    1    2  501    0  0.49688053443E+02 -0.90453866557E+02  0.13207546772E+03  0.24088116117E+03  0.17300000000E+03 0. -1.
         -6    1    1    2    0  502 -0.49688053443E+02  0.90453866557E+02  0.25062724099E+03  0.32154909199E+03  0.17300000000E+03 0. -1.
</event>
<event>
 4    1  0.6104111E+000  0.1000000E+03  0.7546771E-02  0.1280296E+00
         21   -1    0    0  503  502  0.00000000000E+00  0.00000000000E+00  0.13807358064E+03  0.13807358064E+03  0.00000000000E+00 0.  1.
         21   -1    0    0  501  503 -0.00000000000E+00 -0.00000000000E+00 -0.24996943061E+03  0.24996943061E+03  0.00000000000E+00 0.  1.
          6    1    1    2  501    0  0.64090064037E+02  0.36152240700E+01 -0.78457943765E+02  0.20051248114E+03  0.17300000000E+03 0.  1.
         -6    1    1    2    0  502 -0.64090064037E+02 -0.36152240700E+01 -0.33437906207E+02  0.18753053011E+03  0.17300000000E+03 0.  1.
</event>
<event>
 4    1  0.6104111E+000  0.1000000E+03  0.7546771E-02  0.1280296E+00
         21   -1    0    0  503  502  0.00000000000E+00  0.00000000000E+00  0.92135767094E+02  0.92135767094E+02  0.00000000000E+00 0.  1.
         21   -1    0    0  501  503 -0.00000000000E+00 -0.00000000000E+00 -0.63517125638E+03  0.63517125638E+03  0.00000000000E+00 0.  1.
          6    1    1    2  501    0  0.68936246528E+02 -0.74311916990E+02 -0.47497513826E+03  0.51556265289E+03  0.17300000000E+03 0.  1.
         -6    1    1    2    0  502 -0.68936246528E+02  0.74311916990E+02 -0.68060351030E+02  0.21174437059E+03  0.17300000000E+03 0.  1.
</event>
<event>
 4    1  0.6104111E+000  0.1000000E+03  0.7546771E-02  0.1280296E+00
         21   -1    0    0  501  502  0.00000000000E+00  0.00000000000E+00  0.19918510807E+03  0.19918510807E+03  0.00000000000E+00 0. -1.
         21   -1    0    0  502  503 -0.00000000000E+00 -0.00000000000E+00 -0.21303697964E+03  0.21303697964E+03  0.00000000000E+00 0.  1.
          6    1    1    2  501    0  0.31474685715E+02 -0.72520991646E+02  0.72206323303E+02  0.20345196778E+03  0.17300000000E+03 0.  1.
         -6    1    1    2    0  503 -0.31474685715E+02  0.72520991646E+02 -0.86058194870E+02  0.20877011993E+03  0.17300000000E+03 0. -1.
</event>
<event>
 4    1  0.6104111E+000  0.1000000E+03  0.7546771E-02  0.1280296E+00
         21   -1    0    0  501  502  0.00000000000E+00  0.00000000000E+00  0.85186651400E+03  0.85186651400E+03  0.00000000000E+00 0. -1.
         21   -1    0    0  502  503 -0.00000000000E+00 -0.00000000000E+00 -0.79728962276E+02  0.79728962276E+02  0.00000000000E+00 0.  1.
          6    1    1    2  501    0  0.77928913453E+02  0.28477711902E+02  0.70129504469E+03  0.72706783406E+03  0.17300000000E+03 0.  1.
         -6    1    1    2    0  503 -0.77928913453E+02 -0.28477711902E+02  0.70842507042E+02  0.20452764222E+03  0.17300000000E+03 0. -1.
</event>
<event>
 4    1  0.6104111E+000  0.1000000E+03  0.7546771E-02  0.1280296E+00
         21   -1    0    0  501  502  0.00000000000E+00  0.00000000000E+00  0.38588855488E+03  0.38588855488E+03  0.00000000000E+00 0.  1.
         21   -1    0    0  502  503 -0.00000000000E+00 -0.00000000000E+00 -0.34636442523E+03  0.34636442523E+03  0.00000000000E+00 0.  1.
          6    1    1    2  501    0  0.18453090959E+03 -0.20364122527E+03 -0.14843449589E+03  0.35704790266E+03  0.17300000000E+03 0.  1.
         -6    1    1    2    0  503 -0.18453090959E+03  0.20364122527E+03  0.18795862554E+03  0.37520507744E+03  0.17300000000E+03 0.  1.
</event>
<event>
 4    1  0.6104111E+000  0.1000000E+03  0.7546771E-02  0.1280296E+00
         21   -1    0    0  501  502  0.00000000000E+00  0.00000000000E+00  0.41631376434E+02  0.41631376434E+02  0.00000000000E+00 0.  1.
         21   -1    0    0  502  503 -0.00000000000E+00 -0.00000000000E+00 -0.95057356960E+03  0.95057356960E+03  0.00000000000E+00 0.  1.
          6    1    1    2  501    0  0.75045163933E+02 -0.61293861040E+02 -0.41457187406E+03  0.45955146914E+03  0.17300000000E+03 0.  1.
         -6    1    1    2    0  503 -0.75045163933E+02  0.61293861040E+02 -0.49437031911E+03  0.53265347690E+03  0.17300000000E+03 0.  1.
</event>
<event>
 4    1  0.6104111E+000  0.1000000E+03  0.7546771E-02  0.1280296E+00
         21   -1    0    0  501  502  0.00000000000E+00  0.00000000000E+00  0.35633050052E+03  0.35633050052E+03  0.00000000000E+00 0.  1.
         21   -1    0    0  502  503 -0.00000000000E+00 -0.00000000000E+00 -0.12654964029E+03  0.12654964029E+03  0.00000000000E+00 0. -1.
          6    1    1    2  501    0 -0.76030818162E+02 -0.53618753835E+02  0.20661891291E+03  0.28508951445E+03  0.17300000000E+03 0. -1.
         -6    1    1    2    0  503  0.76030818162E+02  0.53618753835E+02  0.23161947321E+02  0.19779062636E+03  0.17300000000E+03 0.  1.
</event>
<event>
 4    1  0.6104111E+000  0.1000000E+03  0.7546771E-02  0.1280296E+00
         21   -1    0    0  501  502  0.00000000000E+00  0.00000000000E+00  0.12014378243E+03  0.12014378243E+03  0.00000000000E+00 0.  1.
         21   -1    0    0  502  503 -0.00000000000E+00 -0.00000000000E+00 -0.26185635956E+04  0.26185635956E+04  0.00000000000E+00 0. -1.
          6    1    1    2  501    0  0.45372558806E+02  0.22775958540E+03 -0.76483284592E+02  0.29951926592E+03  0.17300000000E+03 0.  1.
         -6    1    1    2    0  503 -0.45372558806E+02 -0.22775958540E+03 -0.24219365286E+04  0.24391881121E+04  0.17300000000E+03 0. -1.
</event>
<event>
 4    1  0.6104111E+000  0.1000000E+03  0.7546771E-02  0.1280296E+00
         21   -1    0    0  501  502  0.00000000000E+00  0.00000000000E+00  0.33451611836E+03  0.33451611836E+03  0.00000000000E+00 0.  1.
         21   -1    0    0  502  503 -0.00000000000E+00 -0.00000000000E+00 -0.25397834850E+03  0.25397834850E+03  0.00000000000E+00 0. -1.
          6    1    1    2  501    0  0.10650866748E+03 -0.29435113312E+02  0.24916507395E+03  0.32283549406E+03  0.17300000000E+03 0.  1.
         -6    1    1    2    0  503 -0.10650866748E+03  0.29435113312E+02 -0.16862730409E+03  0.26565897280E+03  0.17300000000E+03 0. -1.
</event>
<event>
 4    1  0.6104111E+000  0.1000000E+03  0.7546771E-02  0.1280296E+00
         21   -1    0    0  501  502  0.00000000000E+00  0.00000000000E+00  0.85648140459E+02  0.85648140459E+02  0.00000000000E+00 0.  1.
         21   -1    0    0  502  503 -0.00000000000E+00 -0.00000000000E+00 -0.59534836599E+03  0.59534836599E+03  0.00000000000E+00 0. -1.
          6    1    1    2  501    0 -0.99462256220E+02 -0.85826392083E+02 -0.16186595268E+03  0.27090311299E+03  0.17300000000E+03 0.  1.
         -6    1    1    2    0  503  0.99462256220E+02  0.85826392083E+02 -0.34783427285E+03  0.41009339346E+03  0.17300000000E+03 0. -1.
</event>
<event>
 4    1  0.6104111E+000  0.1000000E+03  0.7546771E-02  0.1280296E+00
         21   -1    0    0  503  502  0.00000000000E+00  0.00000000000E+00  0.57224888443E+02  0.57224888443E+02  0.00000000000E+00 0. -1.
         21   -1    0    0  501  503 -0.00000000000E+00 -0.00000000000E+00 -0.93245826993E+03  0.93245826993E+03  0.00000000000E+00 0. -1.
          6    1    1    2  501    0  0.15017375304E+03 -0.26247095998E+02 -0.46712571483E+03  0.52093809575E+03  0.17300000000E+03 0. -1.
         -6    1    1    2    0  502 -0.15017375304E+03  0.26247095998E+02 -0.40810766666E+03  0.46874506263E+03  0.17300000000E+03 0. -1.
</event>
<event>
 4    1  0.6104111E+000  0.1000000E+03  0.7546771E-02  0.1280296E+00
         21   -1    0    0  503  502  0.00000000000E+00  0.00000000000E+00  0.13324101260E+04  0.13324101260E+04  0.00000000000E+00 0. -1.
         21   -1    0    0  501  503 -0.00000000000E+00 -0.00000000000E+00 -0.41071142629E+02  0.41071142629E+02  0.00000000000E+00 0. -1.
          6    1    1    2  501    0 -0.13002220390E+03 -0.65728075890E+02  0.47029858710E+03  0.52185794474E+03  0.17300000000E+03 0. -1.
         -6    1    1    2    0  502  0.13002220390E+03  0.65728075890E+02  0.82104039623E+03  0.85162332384E+03  0.17300000000E+03 0. -1.
</event>
<event>
 4    1  0.6104111E+000  0.1000000E+03  0.7546771E-02  0.1280296E+00
         21   -1    0    0  501  502  0.00000000000E+00  0.00000000000E+00  0.45694297977E+02  0.45694297977E+02  0.00000000000E+00 0. -1.
         21   -1    0    0  502  503 -0.00000000000E+00 -0.00000000000E+00 -0.13401537666E+04  0.13401537666E+04  0.00000000000E+00 0. -1.
          6    1    1    2  501    0  0.45217291485E+02  0.11864113176E+03 -0.30214280331E+03  0.37059357143E+03  0.17300000000E+03 0. -1.
         -6    1    1    2    0  503 -0.45217291485E+02 -0.11864113176E+03 -0.99231666535E+03  0.10152544932E+04  0.17300000000E+03 0. -1.
</event>
<event>
 4    1  0.6104111E+000  0.1000000E+03  0.7546771E-02  0.1280296E+00
         21   -1    0    0  501  502  0.00000000000E+00  0.00000000000E+00  0.64010611484E+03  0.64010611484E+03  0.00000000000E+00 0. -1.
         21   -1    0    0  502  503 -0.00000000000E+00 -0.00000000000E+00 -0.57559409723E+03  0.57559409723E+03  0.00000000000E+00 0. -1.
          6    1    1    2  501    0 -0.23018210324E+02 -0.12228240737E+03  0.60141476233E+03  0.63805293002E+03  0.17300000000E+03 0. -1.
         -6    1    1    2    0  503  0.23018210324E+02  0.12228240737E+03 -0.53690274473E+03  0.57764728204E+03  0.17300000000E+03 0. -1.
</event>
<event>
 4    1  0.6104111E+000  0.1000000E+03  0.7546771E-02  0.1280296E+00
         21   -1    0    0  501  502  0.00000000000E+00  0.00000000000E+00  0.12513682507E+03  0.12513682507E+03  0.00000000000E+00 0.  1.
         21   -1    0    0  502  503 -0.00000000000E+00 -0.00000000000E+00 -0.60055501350E+03  0.60055501350E+03  0.00000000000E+00 0. -1.
          6    1    1    2  501    0  0.59240934343E+02  0.28433807899E+02  0.29985275319E+02  0.18747289529E+03  0.17300000000E+03 0.  1.
         -6    1    1    2    0  503 -0.59240934343E+02 -0.28433807899E+02 -0.50540346375E+03  0.53821894328E+03  0.17300000000E+03 0. -1.
</event>
<event>
 4    1  0.6104111E+000  0.1000000E+03  0.7546771E-02  0.1280296E+00
         21   -1    0    0  501  502  0.00000000000E+00  0.00000000000E+00  0.55640746841E+03  0.55640746841E+03  0.00000000000E+00 0.  1.
         21   -1    0    0  502  503 -0.00000000000E+00 -0.00000000000E+00 -0.84801822115E+02  0.84801822115E+02  0.00000000000E+00 0. -1.
          6    1    1    2  501    0 -0.17158996621E+02 -0.60305464409E+02  0.40617203024E+03  0.44591019090E+03  0.17300000000E+03 0.  1.
         -6    1    1    2    0  503  0.17158996621E+02  0.60305464409E+02  0.65433616054E+02  0.19529909962E+03  0.17300000000E+03 0. -1.
</event>
<event>
 4    1  0.6104111E+000  0.1000000E+03  0.7546771E-02  0.1280296E+00
         21   -1    0    0  501  502  0.00000000000E+00  0.00000000000E+00  0.25289429558E+02  0.25289429558E+02  0.00000000000E+00 0.  1.
         21   -1    0    0  502  503 -0.00000000000E+00 -0.00000000000E+00 -0.22300561671E+04  0.22300561671E+04  0.00000000000E+00 0.  1.
          6    1    1    2  501    0 -0.44731327954E+02 -0.15441541712E+02 -0.36325633115E+03  0.40512158056E+03  0.17300000000E+03 0.  1.
         -6    1    1    2    0  503  0.44731327954E+02  0.15441541712E+02 -0.18415104064E+04  0.18502240161E+04  0.17300000000E+03 0.  1.
</event>
<event>
 4    1  0.6104111E+000  0.1000000E+03  0.7546771E-02  0.1280296E+00
         21   -1    0    0  501  502  0.00000000000E+00  0.00000000000E+00  0.81103920407E+03  0.81103920407E+03  0.00000000000E+00 0.  1.
         21   -1    0    0  502  503 -0.00000000000E+00 -0.00000000000E+00 -0.33617960276E+03  0.33617960276E+03  0.00000000000E+00 0.  1.
          6    1    1    2  501    0  0.19450292854E+03  0.19897367371E+02  0.73419912214E+03  0.77923337030E+03  0.17300000000E+03 0.  1.
         -6    1    1    2    0  503 -0.19450292854E+03 -0.19897367371E+02 -0.25933952083E+03  0.36798543653E+03  0.17300000000E+03 0.  1.
</event>
<event>
 4    1  0.6104111E+000  0.1000000E+03  0.7546771E-02  0.1280296E+00
         21   -1    0    0  501  502  0.00000000000E+00  0.00000000000E+00  0.24574312204E+03  0.24574312204E+03  0.00000000000E+00 0.  1.
         21   -1    0    0  502  503 -0.00000000000E+00 -0.00000000000E+00 -0.62849101027E+03  0.62849101027E+03  0.00000000000E+00 0.  1.
          6    1    1    2  501    0  0.22302134256E+02  0.28127928132E+03  0.44318061472E+02  0.33392889942E+03  0.17300000000E+03 0.  1.
         -6    1    1    2    0  503 -0.22302134256E+02 -0.28127928132E+03 -0.42706594970E+03  0.54030523289E+03  0.17300000000E+03 0.  1.
</event>
<event>
 4    1  0.6104111E+000  0.1000000E+03  0.7546771E-02  0.1280296E+00
         21   -1    0    0  501  502  0.00000000000E+00  0.00000000000E+00  0.93265351579E+03  0.93265351579E+03  0.00000000000E+00 0.  1.
         21   -1    0    0  502  503 -0.00000000000E+00 -0.00000000000E+00 -0.59210309728E+02  0.59210309728E+02  0.00000000000E+00 0.  1.
          6    1    1    2  501    0  0.37495501847E+02  0.14848161936E+03  0.52727193974E+03  0.57567126243E+03  0.17300000000E+03 0. -1.
         -6    1    1    2    0  503 -0.37495501847E+02 -0.14848161936E+03  0.34617126632E+03  0.41619256309E+03  0.17300000000E+03 0. -1.
</event>
<event>
 4    1  0.6104111E+000  0.1000000E+03  0.7546771E-02  0.1280296E+00
         21   -1    0    0  501  502  0.00000000000E+00  0.00000000000E+00  0.52794111295E+03  0.52794111295E+03  0.00000000000E+00 0.  1.
         21   -1    0    0  502  503 -0.00000000000E+00 -0.00000000000E+00 -0.93248142263E+02  0.93248142263E+02  0.00000000000E+00 0.  1.
          6    1    1    2  501    0  0.10776160226E+02 -0.10080239544E+03  0.35031943645E+03  0.40364583004E+03  0.17300000000E+03 0. -1.
         -6    1    1    2    0  503 -0.10776160226E+02  0.10080239544E+03  0.84373534239E+02  0.21754342517E+03  0.17300000000E+03 0. -1.
</event>
<event>
 4    1  0.6104111E+000  0.1000000E+03  0.7546771E-02  0.1280296E+00
         21   -1    0    0  501  502  0.00000000000E+00  0.00000000000E+00  0.34411262411E+03  0.34411262411E+03  0.00000000000E+00 0.  1.
         21   -1    0    0  502  503 -0.00000000000E+00 -0.00000000000E+00 -0.52678890062E+03  0.52678890062E+03  0.00000000000E+00 0.  1.
          6    1    1    2  501    0 -0.10423138659E+03 -0.55422595154E+02  0.28778422333E+03  0.35592780898E+03  0.17300000000E+03 0.  1.
         -6    1    1    2    0  503  0.10423138659E+03  0.55422595154E+02 -0.47046049984E+03  0.51497371575E+03  0.17300000000E+03 0.  1.
</event>
<event>
 4    1  0.6104111E+000  0.1000000E+03  0.7546771E-02  0.1280296E+00
         21   -1    0    0  501  502  0.00000000000E+00  0.00000000000E+00  0.98962455744E+03  0.98962455744E+03  0.00000000000E+00 0.  1.
         21   -1    0    0  502  503 -0.00000000000E+00 -0.00000000000E+00 -0.58805962607E+02  0.58805962607E+02  0.00000000000E+00 0.  1.
          6    1    1    2  501    0  0.10858063837E+03 -0.25950213471E+01  0.74428775595E+03  0.77180940187E+03  0.17300000000E+03 0.  1.
         -6    1    1    2    0  503 -0.10858063837E+03  0.25950213471E+01  0.18653083888E+03  0.27662111817E+03  0.17300000000E+03 0.  1.
</event>
<event>
 4    1  0.6104111E+000  0.1000000E+03  0.7546771E-02  0.1280296E+00
         21   -1    0    0  501  502  0.00000000000E+00  0.00000000000E+00  0.32914997485E+03  0.32914997485E+03  0.00000000000E+00 0.  1.
         21   -1    0    0  502  503 -0.00000000000E+00 -0.00000000000E+00 -0.97448914669E+02  0.97448914669E+02  0.00000000000E+00 0.  1.
          6    1    1    2  501    0  0.19616516482E+02  0.32577942126E+02  0.14736488856E+03  0.23041601597E+03  0.17300000000E+03 0.  1.
         -6    1    1    2    0  503 -0.19616516482E+02 -0.32577942126E+02  0.84336171616E+02  0.19618287355E+03  0.17300000000E+03 0.  1.
</event>
<event>
 4    1  0.6104111E+000  0.1000000E+03  0.7546771E-02  0.1280296E+00
         21   -1    0    0  501  502  0.00000000000E+00  0.00000000000E+00  0.25411757082E+03  0.25411757082E+03  0.00000000000E+00 0.  1.
         21   -1    0    0  502  503 -0.00000000000E+00 -0.00000000000E+00 -0.40568310530E+03  0.40568310530E+03  0.00000000000E+00 0.  1.
          6    1    1    2  501    0 -0.25667964915E+03 -0.63844485806E+02 -0.17644978216E+02  0.31654526677E+03  0.17300000000E+03 0.  1.
         -6    1    1    2    0  503  0.25667964915E+03  0.63844485806E+02 -0.13392055626E+03  0.34325540935E+03  0.17300000000E+03 0.  1.
</event>
<event>
 4    1  0.6104111E+000  0.1000000E+03  0.7546771E-02  0.1280296E+00
         21   -1    0    0  501  502  0.00000000000E+00  0.00000000000E+00  0.22675583297E+03  0.22675583297E+03  0.00000000000E+00 0.  1.
         21   -1    0    0  502  503 -0.00000000000E+00 -0.00000000000E+00 -0.36783502075E+03  0.36783502075E+03  0.00000000000E+00 0.  1.
          6    1    1    2  501    0  0.13060909010E+03  0.15269094448E+03 -0.18838847185E+03  0.32525755221E+03  0.17300000000E+03 0.  1.
         -6    1    1    2    0  503 -0.13060909010E+03 -0.15269094448E+03  0.47309284069E+02  0.26933330151E+03  0.17300000000E+03 0.  1.
</event>
<event>
 4    1  0.6104111E+000  0.1000000E+03  0.7546771E-02  0.1280296E+00
         21   -1    0    0  501  502  0.00000000000E+00  0.00000000000E+00  0.14103908941E+04  0.14103908941E+04  0.00000000000E+00 0.  1.
         21   -1    0    0  502  503 -0.00000000000E+00 -0.00000000000E+00 -0.99197486493E+02  0.99197486493E+02  0.00000000000E+00 0.  1.
          6    1    1    2  501    0  0.76851899198E+02  0.10753320305E+03  0.12693581236E+04  0.12878931051E+04  0.17300000000E+03 0.  1.
         -6    1    1    2    0  503 -0.76851899198E+02 -0.10753320305E+03  0.41835283930E+02  0.22169527544E+03  0.17300000000E+03 0.  1.
</event>
<event>
 4    1  0.6104111E+000  0.1000000E+03  0.7546771E-02  0.1280296E+00
         21   -1    0    0  501  502  0.00000000000E+00  0.00000000000E+00  0.92253216763E+03  0.92253216763E+03  0.00000000000E+00 0. -1.
         21   -1    0    0  502  503 -0.00000000000E+00 -0.00000000000E+00 -0.75460113184E+02  0.75460113184E+02  0.00000000000E+00 0.  1.
          6    1    1    2  501    0  0.96344440960E+02  0.16916683001E+03  0.50345569425E+03  0.56683004838E+03  0.17300000000E+03 0.  1.
         -6    1    1    2    0  503 -0.96344440960E+02 -0.16916683001E+03  0.34361636020E+03  0.43116223243E+03  0.17300000000E+03 0.  1.
</event>
<event>
 4    1  0.6104111E+000  0.1000000E+03  0.7546771E-02  0.1280296E+00
         21   -1    0    0  501  502  0.00000000000E+00  0.00000000000E+00  0.61100712946E+02  0.61100712946E+02  0.00000000000E+00 0. -1.
         21   -1    0    0  502  503 -0.00000000000E+00 -0.00000000000E+00 -0.51414995469E+03  0.51414995469E+03  0.00000000000E+00 0.  1.
          6    1    1    2  501    0  0.19242745278E+02  0.32489978523E+02 -0.23909951051E+03  0.29752891940E+03  0.17300000000E+03 0.  1.
         -6    1    1    2    0  503 -0.19242745278E+02 -0.32489978523E+02 -0.21394973123E+03  0.27772174823E+03  0.17300000000E+03 0.  1.
</event>
<event>
 4    1  0.6104111E+000  0.1000000E+03  0.7546771E-02  0.1280296E+00
         21   -1    0    0  503  502  0.00000000000E+00  0.00000000000E+00  0.33444473441E+03  0.33444473441E+03  0.00000000000E+00 0. -1.
         21   -1    0    0  501  503 -0.00000000000E+00 -0.00000000000E+00 -0.24132657606E+03  0.24132657606E+03  0.00000000000E+00 0.  1.
          6    1    1    2  501    0 -0.67135975766E+02 -0.39154019083E+02 -0.16778363425E+03  0.25322050544E+03  0.17300000000E+03 0.  1.
         -6    1    1    2    0  502  0.67135975766E+02  0.39154019083E+02  0.26090179259E+03  0.32255080504E+03  0.17300000000E+03 0. -1.
</event>
<event>
 4    1  0.6104111E+000  0.1000000E+03  0.7546771E-02  0.1280296E+00
         21   -1    0    0  503  502  0.00000000000E+00  0.00000000000E+00  0.70480522090E+03  0.70480522090E+03  0.00000000000E+00 0. -1.
         21   -1    0    0  501  503 -0.00000000000E+00 -0.00000000000E+00 -0.51774643941E+03  0.51774643941E+03  0.00000000000E+00 0.  1.
          6    1    1    2  501    0 -0.15665868107E+03  0.91925617624E+02 -0.46255379610E+03  0.52619129204E+03  0.17300000000E+03 0.  1.
         -6    1    1    2    0  502  0.15665868107E+03 -0.91925617624E+02  0.64961257759E+03  0.69636036827E+03  0.17300000000E+03 0. -1.
</event>
<event>
 4    1  0.6104111E+000  0.1000000E+03  0.7546771E-02  0.1280296E+00
         21   -1    0    0  501  502  0.00000000000E+00  0.00000000000E+00  0.20781513684E+03  0.20781513684E+03  0.00000000000E+00 0.  1.
         21   -1    0    0  502  503 -0.00000000000E+00 -0.00000000000E+00 -0.39213114790E+03  0.39213114790E+03  0.00000000000E+00 0. -1.
          6    1    1    2  501    0 -0.15534073349E+03  0.60938513148E+02  0.69673455609E+02  0.25025514237E+03  0.17300000000E+03 0.  1.
         -6    1    1    2    0  503  0.15534073349E+03 -0.60938513148E+02 -0.25398946668E+03  0.34969114237E+03  0.17300000000E+03 0. -1.
</event>
<event>
 4    1  0.6104111E+000  0.1000000E+03  0.7546771E-02  0.1280296E+00
         21   -1    0    0  501  502  0.00000000000E+00  0.00000000000E+00  0.12562867229E+03  0.12562867229E+03  0.00000000000E+00 0.  1.
         21   -1    0    0  502  503 -0.00000000000E+00 -0.00000000000E+00 -0.77194843079E+03  0.77194843079E+03  0.00000000000E+00 0. -1.
          6    1    1    2  501    0  0.11388037479E+03  0.10862322663E+03 -0.26825818079E+02  0.23540681732E+03  0.17300000000E+03 0.  1.
         -6    1    1    2    0  503 -0.11388037479E+03 -0.10862322663E+03 -0.61949394042E+03  0.66217028576E+03  0.17300000000E+03 0. -1.
</event>
<event>
 4    1  0.6104111E+000  0.1000000E+03  0.7546771E-02  0.1280296E+00
         21   -1    0    0  501  502  0.00000000000E+00  0.00000000000E+00  0.11812053184E+04  0.11812053184E+04  0.00000000000E+00 0.  1.
         21   -1    0    0  502  503 -0.00000000000E+00 -0.00000000000E+00 -0.63839474628E+02  0.63839474628E+02  0.00000000000E+00 0. -1.
          6    1    1    2  501    0 -0.24291785886E+02  0.13044444040E+03  0.93715777377E+03  0.96218477219E+03  0.17300000000E+03 0.  1.
         -6    1    1    2    0  503  0.24291785886E+02 -0.13044444040E+03  0.18020806998E+03  0.28286002082E+03  0.17300000000E+03 0. -1.
</event>
<event>
 4    1  0.6104111E+000  0.1000000E+03  0.7546771E-02  0.1280296E+00
         21   -1    0    0  501  502  0.00000000000E+00  0.00000000000E+00  0.51560673230E+03  0.51560673230E+03  0.00000000000E+00 0.  1.
         21   -1    0    0  502  503 -0.00000000000E+00 -0.00000000000E+00 -0.64772520105E+02  0.64772520105E+02  0.00000000000E+00 0. -1.
          6    1    1    2  501    0 -0.13446467541E+02  0.47946424029E+02  0.17549289391E+03  0.25140887590E+03  0.17300000000E+03 0.  1.
         -6    1    1    2    0  503  0.13446467541E+02 -0.47946424029E+02  0.27534131829E+03  0.32897037651E+03  0.17300000000E+03 0. -1.
</event>
<event>
 4    1  0.6104111E+000  0.1000000E+03  0.7546771E-02  0.1280296E+00
         21   -1    0    0  501  502  0.00000000000E+00  0.00000000000E+00  0.66183257970E+02  0.66183257970E+02  0.00000000000E+00 0.  1.
         21   -1    0    0  502  503 -0.00000000000E+00 -0.00000000000E+00 -0.19130000969E+04  0.19130000969E+04  0.00000000000E+00 0. -1.
          6    1    1    2  501    0  0.26353762851E+03  0.22687082777E+02 -0.46885584598E+03  0.56543928911E+03  0.17300000000E+03 0.  1.
         -6    1    1    2    0  503 -0.26353762851E+03 -0.22687082777E+02 -0.13779609929E+04  0.14137440657E+04  0.17300000000E+03 0. -1.
</event>
<event>
 4    1  0.6104111E+000  0.1000000E+03  0.7546771E-02  0.1280296E+00
         21   -1    0    0  501  502  0.00000000000E+00  0.00000000000E+00  0.81909859832E+03  0.81909859832E+03  0.00000000000E+00 0. -1.
         21   -1    0    0  502  503 -0.00000000000E+00 -0.00000000000E+00 -0.14272604292E+03  0.14272604292E+03  0.00000000000E+00 0. -1.
          6    1    1    2  501    0 -0.23981259599E+03 -0.10707998492E+03  0.52689871113E+03  0.61361833102E+03  0.17300000000E+03 0. -1.
         -6    1    1    2    0  503  0.23981259599E+03  0.10707998492E+03  0.14947384426E+03  0.34820631023E+03  0.17300000000E+03 0. -1.
</event>
<event>
 4    1  0.6104111E+000  0.1000000E+03  0.7546771E-02  0.1280296E+00
         21   -1    0    0  501  502  0.00000000000E+00  0.00000000000E+00  0.14752938395E+03  0.14752938395E+03  0.00000000000E+00 0. -1.
         21   -1    0    0  502  503 -0.00000000000E+00 -0.00000000000E+00 -0.56982344452E+03  0.56982344452E+03  0.00000000000E+00 0. -1.
          6    1    1    2  501    0  0.11352478559E+03  0.18885991774E+03 -0.11873257126E+03  0.30427351010E+03  0.17300000000E+03 0. -1.
         -6    1    1    2    0  503 -0.11352478559E+03 -0.18885991774E+03 -0.30356148931E+03  0.41307931837E+03  0.17300000000E+03 0. -1.
</event>
<event>
 4    1  0.6104111E+000  0.1000000E+03  0.7546771E-02  0.1280296E+00
         21   -1    0    0  501  502  0.00000000000E+00  0.00000000000E+00  0.16188641288E+03  0.16188641288E+03  0.00000000000E+00 0. -1.
         21   -1    0    0  502  503 -0.00000000000E+00 -0.00000000000E+00 -0.20694935034E+03  0.20694935034E+03  0.00000000000E+00 0. -1.
          6    1    1    2  501    0  0.20788157769E+01 -0.54274230167E+02  0.26224384110E+01  0.18134467381E+03  0.17300000000E+03 0. -1.
         -6    1    1    2    0  503 -0.20788157769E+01  0.54274230167E+02 -0.47685375868E+02  0.18749108941E+03  0.17300000000E+03 0. -1.
</event>
<event>
 4    1  0.6104111E+000  0.1000000E+03  0.7546771E-02  0.1280296E+00
         21   -1    0    0  503  502  0.00000000000E+00  0.00000000000E+00  0.39986525371E+02  0.39986525371E+02  0.00000000000E+00 0. -1.
         21   -1    0    0  501  503 -0.00000000000E+00 -0.00000000000E+00 -0.76757377567E+03  0.76757377567E+03  0.00000000000E+00 0. -1.
          6    1    1    2  501    0  0.24476258134E+02  0.65648294962E+00 -0.33427003136E+03  0.37718029117E+03  0.17300000000E+03 0. -1.
         -6    1    1    2    0  502 -0.24476258134E+02 -0.65648294962E+00 -0.39331721893E+03  0.43038000987E+03  0.17300000000E+03 0. -1.
</event>
<event>
 4    1  0.6104111E+000  0.1000000E+03  0.7546771E-02  0.1280296E+00
         21   -1    0    0  503  502  0.00000000000E+00  0.00000000000E+00  0.23653277147E+04  0.23653277147E+04  0.00000000000E+00 0. -1.
         21   -1    0    0  501  503 -0.00000000000E+00 -0.00000000000E+00 -0.56367918725E+02  0.56367918725E+02  0.00000000000E+00 0. -1.
          6    1    1    2  501    0  0.14955583345E+03 -0.19838177632E+03  0.47749681632E+03  0.56537994844E+03  0.17300000000E+03 0. -1.
         -6    1    1    2    0  502 -0.14955583345E+03  0.19838177632E+03  0.18314629797E+04  0.18563156850E+04  0.17300000000E+03 0. -1.
</event>
<event>
 4    1  0.6104111E+000  0.1000000E+03  0.7546771E-02  0.1280296E+00
         21   -1    0    0  501  502  0.00000000000E+00  0.00000000000E+00  0.45029582804E+03  0.45029582804E+03  0.00000000000E+00 0.  1.
         21   -1    0    0  502  503 -0.00000000000E+00 -0.00000000000E+00 -0.78573944769E+02  0.78573944769E+02  0.00000000000E+00 0. -1.
          6    1    1    2  501    0  0.49342395483E+02  0.20320004559E+02  0.25761224335E+03  0.31486607074E+03  0.17300000000E+03 0. -1.
         -6    1    1    2    0  503 -0.49342395483E+02 -0.20320004559E+02  0.11410963992E+03  0.21400370207E+03  0.17300000000E+03 0.  1.
</event>
<event>
 4    1  0.6104111E+000  0.1000000E+03  0.7546771E-02  0.1280296E+00
         21   -1    0    0  503  502  0.00000000000E+00  0.00000000000E+00  0.22393461252E+03  0.22393461252E+03  0.00000000000E+00 0.  1.
         21   -1    0    0  501  503 -0.00000000000E+00 -0.00000000000E+00 -0.27537024557E+03  0.27537024557E+03  0.00000000000E+00 0. -1.
          6    1    1    2  501    0 -0.16021543485E+03  0.33601348522E+02 -0.96363806785E+02  0.25692998938E+03  0.17300000000E+03 0. -1.
         -6    1    1    2    0  502  0.16021543485E+03 -0.33601348522E+02  0.44928173736E+02  0.24237486871E+03  0.17300000000E+03 0.  1.
</event>
<event>
 4    1  0.6104111E+000  0.1000000E+03  0.7546771E-02  0.1280296E+00
         21   -1    0    0  503  502  0.00000000000E+00  0.00000000000E+00  0.18170000613E+03  0.18170000613E+03  0.00000000000E+00 0. -1.
         21   -1    0    0  501  503 -0.00000000000E+00 -0.00000000000E+00 -0.28913110056E+03  0.28913110056E+03  0.00000000000E+00 0. -1.
          6    1    1    2  501    0 -0.46956222689E+02  0.11856463435E+03 -0.13552063994E+03  0.25408129254E+03  0.17300000000E+03 0. -1.
         -6    1    1    2    0  502  0.46956222689E+02 -0.11856463435E+03  0.28089545513E+02  0.21674981415E+03  0.17300000000E+03 0. -1.
</event>
<event>
 4    1  0.6104111E+000  0.1000000E+03  0.7546771E-02  0.1280296E+00
         21   -1    0    0  501  502  0.00000000000E+00  0.00000000000E+00  0.73485994822E+02  0.73485994822E+02  0.00000000000E+00 0. -1.
         21   -1    0    0  502  503 -0.00000000000E+00 -0.00000000000E+00 -0.68137813044E+03  0.68137813044E+03  0.00000000000E+00 0.  1.
          6    1    1    2  501    0 -0.67256853849E+02 -0.12474906056E+03 -0.31667349760E+03  0.38768146278E+03  0.17300000000E+03 0. -1.
         -6    1    1    2    0  503  0.67256853849E+02  0.12474906056E+03 -0.29121863801E+03  0.36718266248E+03  0.17300000000E+03 0. -1.
</event>
<event>
 4    1  0.6104111E+000  0.1000000E+03  0.7546771E-02  0.1280296E+00
         21   -1    0    0  501  502  0.00000000000E+00  0.00000000000E+00  0.42096496934E+03  0.42096496934E+03  0.00000000000E+00 0. -1.
         21   -1    0    0  502  503 -0.00000000000E+00 -0.00000000000E+00 -0.12187766600E+03  0.12187766600E+03  0.00000000000E+00 0.  1.
          6    1    1    2  501    0 -0.46602522960E+02 -0.11026070129E+03  0.25014230886E+03  0.32684765882E+03  0.17300000000E+03 0. -1.
         -6    1    1    2    0  503  0.46602522960E+02  0.11026070129E+03  0.48944994475E+02  0.21599497651E+03  0.17300000000E+03 0. -1.
</event>
<event>
 4    1  0.6104111E+000  0.1000000E+03  0.7546771E-02  0.1280296E+00
         21   -1    0    0  501  502  0.00000000000E+00  0.00000000000E+00  0.41125859646E+03  0.41125859646E+03  0.00000000000E+00 0. -1.
         21   -1    0    0  502  503 -0.00000000000E+00 -0.00000000000E+00 -0.80296987731E+02  0.80296987731E+02  0.00000000000E+00 0.  1.
          6    1    1    2  501    0  0.19988196407E+02  0.12318337125E+02  0.23367868373E+03  0.29169504051E+03  0.17300000000E+03 0.  1.
         -6    1    1    2    0  503 -0.19988196407E+02 -0.12318337125E+02  0.97282924993E+02  0.19986054368E+03  0.17300000000E+03 0.  1.
</event>
<event>
 4    1  0.6104111E+000  0.1000000E+03  0.7546771E-02  0.1280296E+00
         21   -1    0    0  501  502  0.00000000000E+00  0.00000000000E+00  0.68238749224E+02  0.68238749224E+02  0.00000000000E+00 0.  1.
         21   -1    0    0  502  503 -0.00000000000E+00 -0.00000000000E+00 -0.16747836012E+04  0.16747836012E+04  0.00000000000E+00 0. -1.
          6    1    1    2  501    0  0.10493706328E+03  0.13670104967E+03 -0.20057176491E+03  0.31600157770E+03  0.17300000000E+03 0. -1.
         -6    1    1    2    0  503 -0.10493706328E+03 -0.13670104967E+03 -0.14059730870E+04  0.14270207727E+04  0.17300000000E+03 0. -1.
</event>
<event>
 4    1  0.6104111E+000  0.1000000E+03  0.7546771E-02  0.1280296E+00
         21   -1    0    0  501  502  0.00000000000E+00  0.00000000000E+00  0.18276413415E+03  0.18276413415E+03  0.00000000000E+00 0.  1.
         21   -1    0    0  502  503 -0.00000000000E+00 -0.00000000000E+00 -0.38484004362E+03  0.38484004362E+03  0.00000000000E+00 0. -1.
          6    1    1    2  501    0 -0.39695514995E+02 -0.18129924010E+03 -0.18418452112E+02  0.25438826181E+03  0.17300000000E+03 0. -1.
         -6    1    1    2    0  503  0.39695514995E+02  0.18129924010E+03 -0.18365745736E+03  0.31321591597E+03  0.17300000000E+03 0. -1.
</event>
<event>
 4    1  0.6104111E+000  0.1000000E+03  0.7546771E-02  0.1280296E+00
         21   -1    0    0  503  502  0.00000000000E+00  0.00000000000E+00  0.18558232602E+04  0.18558232602E+04  0.00000000000E+00 0. -1.
         21   -1    0    0  501  503 -0.00000000000E+00 -0.00000000000E+00 -0.28161678672E+02  0.28161678672E+02  0.00000000000E+00 0.  1.
          6    1    1    2  501    0  0.76244900537E+01  0.70750288943E+02  0.37232815335E+03  0.41667852118E+03  0.17300000000E+03 0.  1.
         -6    1    1    2    0  502 -0.76244900537E+01 -0.70750288943E+02  0.14553334282E+04  0.14673064177E+04  0.17300000000E+03 0. -1.
</event>
<event>
 4    1  0.6104111E+000  0.1000000E+03  0.7546771E-02  0.1280296E+00
         21   -1    0    0  503  502  0.00000000000E+00  0.00000000000E+00  0.45586302413E+03  0.45586302413E+03  0.00000000000E+00 0. -1.
         21   -1    0    0  501  503 -0.00000000000E+00 -0.00000000000E+00 -0.17821167430E+03  0.17821167430E+03  0.00000000000E+00 0.  1.
          6    1    1    2  501    0  0.12392677481E+03 -0.10704350774E+03 -0.35260182090E+02  0.24080788713E+03  0.17300000000E+03 0.  1.
         -6    1    1    2    0  502 -0.12392677481E+03  0.10704350774E+03  0.31291153192E+03  0.39326681130E+03  0.17300000000E+03 0. -1.
</event>
<event>
 4    1  0.6104111E+000  0.1000000E+03  0.7546771E-02  0.1280296E+00
         21   -1    0    0  501  502  0.00000000000E+00  0.00000000000E+00  0.68953874782E+03  0.68953874782E+03  0.00000000000E+00 0.  1.
         21   -1    0    0  502  503 -0.00000000000E+00 -0.00000000000E+00 -0.97484533819E+02  0.97484533819E+02  0.00000000000E+00 0.  1.
          6    1    1    2  501    0  0.65911051868E+01 -0.10959708733E+03  0.53713724739E+03  0.57489163044E+03  0.17300000000E+03 0.  1.
         -6    1    1    2    0  503 -0.65911051868E+01  0.10959708733E+03  0.54916966613E+02  0.21213165120E+03  0.17300000000E+03 0.  1.
</event>
<event>
 4    1  0.6104111E+000  0.1000000E+03  0.7546771E-02  0.1280296E+00
         21   -1    0    0  501  502  0.00000000000E+00  0.00000000000E+00  0.59623664794E+03  0.59623664794E+03  0.00000000000E+00 0.  1.
         21   -1    0    0  502  503 -0.00000000000E+00 -0.00000000000E+00 -0.74585176723E+02  0.74585176723E+02  0.00000000000E+00 0.  1.
          6    1    1    2  501    0  0.30396439883E+02  0.11441634527E+03  0.29731692658E+03  0.36378757325E+03  0.17300000000E+03 0.  1.
         -6    1    1    2    0  503 -0.30396439883E+02 -0.11441634527E+03  0.22433454464E+03  0.30703425141E+03  0.17300000000E+03 0.  1.
</event>
<event>
 4    1  0.6104111E+000  0.1000000E+03  0.7546771E-02  0.1280296E+00
         21   -1    0    0  501  502  0.00000000000E+00  0.00000000000E+00  0.50124914486E+02  0.50124914486E+02  0.00000000000E+00 0.  1.
         21   -1    0    0  502  503 -0.00000000000E+00 -0.00000000000E+00 -0.10618332897E+04  0.10618332897E+04  0.00000000000E+00 0.  1.
          6    1    1    2  501    0  0.12893980496E+03 -0.37914891899E+02 -0.33153331079E+03  0.39737431786E+03  0.17300000000E+03 0.  1.
         -6    1    1    2    0  503 -0.12893980496E+03  0.37914891899E+02 -0.68017506438E+03  0.71458388628E+03  0.17300000000E+03 0.  1.
</event>
<event>
 4    1  0.6104111E+000  0.1000000E+03  0.7546771E-02  0.1280296E+00
         21   -1    0    0  503  502  0.00000000000E+00  0.00000000000E+00  0.64718282780E+03  0.64718282780E+03  0.00000000000E+00 0.  1.
         21   -1    0    0  501  503 -0.00000000000E+00 -0.00000000000E+00 -0.11178198336E+03  0.11178198336E+03  0.00000000000E+00 0.  1.
          6    1    1    2  501    0  0.20413036639E+02 -0.15196305795E+03  0.73710291922E+02  0.24263484948E+03  0.17300000000E+03 0.  1.
         -6    1    1    2    0  502 -0.20413036639E+02  0.15196305795E+03  0.46169055252E+03  0.51632996168E+03  0.17300000000E+03 0.  1.
</event>
<event>
 4    1  0.6104111E+000  0.1000000E+03  0.7546771E-02  0.1280296E+00
         21   -1    0    0  503  502  0.00000000000E+00  0.00000000000E+00  0.46961070163E+02  0.46961070163E+02  0.00000000000E+00 0.  1.
         21   -1    0    0  501  503 -0.00000000000E+00 -0.00000000000E+00 -0.85219905186E+03  0.85219905186E+03  0.00000000000E+00 0.  1.
          6    1    1    2  501    0  0.26424931338E+02  0.25501594032E+02 -0.61274853302E+03  0.63776043544E+03  0.17300000000E+03 0.  1.
         -6    1    1    2    0  502 -0.26424931338E+02 -0.25501594032E+02 -0.19248944868E+03  0.26139968659E+03  0.17300000000E+03 0.  1.
</event>
<event>
 4    1  0.6104111E+000  0.1000000E+03  0.7546771E-02  0.1280296E+00
         21   -1    0    0  503  502  0.00000000000E+00  0.00000000000E+00  0.67478671159E+02  0.67478671159E+02  0.00000000000E+00 0.  1.
         21   -1    0    0  501  503 -0.00000000000E+00 -0.00000000000E+00 -0.23278363653E+04  0.23278363653E+04  0.00000000000E+00 0.  1.
          6    1    1    2  501    0  0.15997780487E+03  0.12619585773E+03 -0.20144617623E+04  0.20321179800E+04  0.17300000000E+03 0.  1.
         -6    1    1    2    0  502 -0.15997780487E+03 -0.12619585773E+03 -0.24589593175E+03  0.36319705645E+03  0.17300000000E+03 0.  1.
</event>
<event>
 4    1  0.6104111E+000  0.1000000E+03  0.7546771E-02  0.1280296E+00
         21   -1    0    0  501  502  0.00000000000E+00  0.00000000000E+00  0.12865805190E+03  0.12865805190E+03  0.00000000000E+00 0.  1.
         21   -1    0    0  502  503 -0.00000000000E+00 -0.00000000000E+00 -0.59397885148E+03  0.59397885148E+03  0.00000000000E+00 0.  1.
          6    1    1    2  501    0 -0.16445743710E+02  0.10245861222E+03  0.14375296929E+02  0.20224707381E+03  0.17300000000E+03 0.  1.
         -6    1    1    2    0  503  0.16445743710E+02 -0.10245861222E+03 -0.47969609651E+03  0.52038982957E+03  0.17300000000E+03 0.  1.
</event>
<event>
 4    1  0.6104111E+000  0.1000000E+03  0.7546771E-02  0.1280296E+00
         21   -1    0    0  501  502  0.00000000000E+00  0.00000000000E+00  0.29669840817E+02  0.29669840817E+02  0.00000000000E+00 0.  1.
         21   -1    0    0  502  503 -0.00000000000E+00 -0.00000000000E+00 -0.12483670752E+04  0.12483670752E+04  0.00000000000E+00 0.  1.
          6    1    1    2  501    0  0.29023955391E+02 -0.26194842670E+02 -0.36129130213E+03  0.40247852708E+03  0.17300000000E+03 0.  1.
         -6    1    1    2    0  503 -0.29023955391E+02  0.26194842670E+02 -0.85740593223E+03  0.87555838892E+03  0.17300000000E+03 0.  1.
</event>
<event>
 4    1  0.6104111E+000  0.1000000E+03  0.7546771E-02  0.1280296E+00
         21   -1    0    0  503  502  0.00000000000E+00  0.00000000000E+00  0.54953971788E+03  0.54953971788E+03  0.00000000000E+00 0. -1.
         21   -1    0    0  501  503 -0.00000000000E+00 -0.00000000000E+00 -0.10157717381E+03  0.10157717381E+03  0.00000000000E+00 0.  1.
          6    1    1    2  501    0  0.36789961750E+02  0.15346894879E+03  0.26723798212E+03  0.35531867192E+03  0.17300000000E+03 0. -1.
         -6    1    1    2    0  502 -0.36789961750E+02 -0.15346894879E+03  0.18072456195E+03  0.29579821977E+03  0.17300000000E+03 0.  1.
</event>
<event>
 4    1  0.6104111E+000  0.1000000E+03  0.7546771E-02  0.1280296E+00
         21   -1    0    0  503  502  0.00000000000E+00  0.00000000000E+00  0.23766598021E+03  0.23766598021E+03  0.00000000000E+00 0. -1.
         21   -1    0    0  501  503 -0.00000000000E+00 -0.00000000000E+00 -0.39865576894E+03  0.39865576894E+03  0.00000000000E+00 0. -1.
          6    1    1    2  501    0 -0.98826999621E+02 -0.12350247240E+03 -0.28669855604E+03  0.37033052613E+03  0.17300000000E+03 0.  1.
         -6    1    1    2    0  502  0.98826999621E+02  0.12350247240E+03  0.12570876731E+03  0.26599122302E+03  0.17300000000E+03 0.  1.
</event>
<event>
 4    1  0.6104111E+000  0.1000000E+03  0.7546771E-02  0.1280296E+00
         21   -1    0    0  503  502  0.00000000000E+00  0.00000000000E+00  0.21842597944E+03  0.21842597944E+03  0.00000000000E+00 0. -1.
         21   -1    0    0  501  503 -0.00000000000E+00 -0.00000000000E+00 -0.18419404745E+03  0.18419404745E+03  0.00000000000E+00 0. -1.
          6    1    1    2  501    0  0.17849199945E+00 -0.39569396827E+02 -0.76700995277E+02  0.19333342107E+03  0.17300000000E+03 0.  1.
         -6    1    1    2    0  502 -0.17849199945E+00  0.39569396827E+02  0.11093292726E+03  0.20928660582E+03  0.17300000000E+03 0.  1.
</event>
<event>
 4    1  0.6104111E+000  0.1000000E+03  0.7546771E-02  0.1280296E+00
         21   -1    0    0  503  502  0.00000000000E+00  0.00000000000E+00  0.17215702717E+03  0.17215702717E+03  0.00000000000E+00 0.  1.
         21   -1    0    0  501  503 -0.00000000000E+00 -0.00000000000E+00 -0.32271503056E+03  0.32271503056E+03  0.00000000000E+00 0.  1.
          6    1    1    2  501    0  0.71906067903E+02  0.29642144324E+02  0.71610918229E+02  0.20274679512E+03  0.17300000000E+03 0.  1.
         -6    1    1    2    0  502 -0.71906067903E+02 -0.29642144324E+02 -0.22216892162E+03  0.29212526261E+03  0.17300000000E+03 0.  1.
</event>
<event>
 4    1  0.6104111E+000  0.1000000E+03  0.7546771E-02  0.1280296E+00
         21   -1    0    0  503  502  0.00000000000E+00  0.00000000000E+00  0.55851424183E+02  0.55851424183E+02  0.00000000000E+00 0.  1.
         21   -1    0    0  501  503 -0.00000000000E+00 -0.00000000000E+00 -0.13542900219E+04  0.13542900219E+04  0.00000000000E+00 0.  1.
          6    1    1    2  501    0 -0.13387891743E+02 -0.10178101369E+02 -0.11956281011E+04  0.12081963357E+04  0.17300000000E+03 0.  1.
         -6    1    1    2    0  502  0.13387891743E+02  0.10178101369E+02 -0.10281049656E+03  0.20194511035E+03  0.17300000000E+03 0.  1.
</event>
<event>
 4    1  0.6104111E+000  0.1000000E+03  0.7546771E-02  0.1280296E+00
         21   -1    0    0  503  502  0.00000000000E+00  0.00000000000E+00  0.12813748260E+04  0.12813748260E+04  0.00000000000E+00 0.  1.
         21   -1    0    0  501  503 -0.00000000000E+00 -0.00000000000E+00 -0.63194467356E+02  0.63194467356E+02  0.00000000000E+00 0.  1.
          6    1    1    2  501    0  0.64431896091E+02  0.18662618062E+02  0.99382013601E+02  0.21048882910E+03  0.17300000000E+03 0.  1.
         -6    1    1    2    0  502 -0.64431896091E+02 -0.18662618062E+02  0.11187983451E+04  0.11340804643E+04  0.17300000000E+03 0.  1.
</event>
<event>
 4    1  0.6104111E+000  0.1000000E+03  0.7546771E-02  0.1280296E+00
         21   -1    0    0  503  502  0.00000000000E+00  0.00000000000E+00  0.46935196604E+02  0.46935196604E+02  0.00000000000E+00 0.  1.
         21   -1    0    0  501  503 -0.00000000000E+00 -0.00000000000E+00 -0.14668384908E+04  0.14668384908E+04  0.00000000000E+00 0.  1.
          6    1    1    2  501    0  0.72404270704E+02 -0.18095986197E+03 -0.79785027935E+03  0.83933480704E+03  0.17300000000E+03 0.  1.
         -6    1    1    2    0  502 -0.72404270704E+02  0.18095986197E+03 -0.62205301489E+03  0.67443888040E+03  0.17300000000E+03 0.  1.
</event>
<event>
 4    1  0.6104111E+000  0.1000000E+03  0.7546771E-02  0.1280296E+00
         21   -1    0    0  503  502  0.00000000000E+00  0.00000000000E+00  0.73526830069E+02  0.73526830069E+02  0.00000000000E+00 0.  1.
         21   -1    0    0  501  503 -0.00000000000E+00 -0.00000000000E+00 -0.45979032179E+03  0.45979032179E+03  0.00000000000E+00 0.  1.
          6    1    1    2  501    0  0.13054394477E+02  0.45441679437E+02 -0.25190957326E+03  0.30922935913E+03  0.17300000000E+03 0.  1.
         -6    1    1    2    0  502 -0.13054394477E+02 -0.45441679437E+02 -0.13435391845E+03  0.22408779273E+03  0.17300000000E+03 0.  1.
</event>
<event>
 4    1  0.6104111E+000  0.1000000E+03  0.7546771E-02  0.1280296E+00
         21   -1    0    0  501  502  0.00000000000E+00  0.00000000000E+00  0.11919320651E+03  0.11919320651E+03  0.00000000000E+00 0.  1.
         21   -1    0    0  502  503 -0.00000000000E+00 -0.00000000000E+00 -0.16456775457E+04  0.16456775457E+04  0.00000000000E+00 0.  1.
          6    1    1    2  501    0 -0.10241579554E+03 -0.26619905876E+03 -0.18278360257E+03  0.38038109762E+03  0.17300000000E+03 0.  1.
         -6    1    1    2    0  503  0.10241579554E+03  0.26619905876E+03 -0.13437007366E+04  0.13844896545E+04  0.17300000000E+03 0.  1.
</event>
<event>
 4    1  0.6104111E+000  0.1000000E+03  0.7546771E-02  0.1280296E+00
         21   -1    0    0  501  502  0.00000000000E+00  0.00000000000E+00  0.25491656980E+03  0.25491656980E+03  0.00000000000E+00 0.  1.
         21   -1    0    0  502  503 -0.00000000000E+00 -0.00000000000E+00 -0.40713741408E+03  0.40713741408E+03  0.00000000000E+00 0.  1.
          6    1    1    2  501    0  0.19549091545E+03  0.16171565537E+02 -0.26938100539E+03  0.37546417089E+03  0.17300000000E+03 0.  1.
         -6    1    1    2    0  503 -0.19549091545E+03 -0.16171565537E+02  0.11716016111E+03  0.28658981299E+03  0.17300000000E+03 0.  1.
</event>
<event>
 4    1  0.6104111E+000  0.1000000E+03  0.7546771E-02  0.1280296E+00
         21   -1    0    0  501  502  0.00000000000E+00  0.00000000000E+00  0.25722141276E+02  0.25722141276E+02  0.00000000000E+00 0.  1.
         21   -1    0    0  502  503 -0.00000000000E+00 -0.00000000000E+00 -0.13816074927E+04  0.13816074927E+04  0.00000000000E+00 0.  1.
          6    1    1    2  501    0  0.13567590248E+02 -0.20631708567E+02 -0.41402511332E+03  0.44939463878E+03  0.17300000000E+03 0.  1.
         -6    1    1    2    0  503 -0.13567590248E+02  0.20631708567E+02 -0.94186023814E+03  0.95793499523E+03  0.17300000000E+03 0.  1.
</event>
<event>
 4    1  0.6104111E+000  0.1000000E+03  0.7546771E-02  0.1280296E+00
         21   -1    0    0  501  502  0.00000000000E+00  0.00000000000E+00  0.16214990786E+03  0.16214990786E+03  0.00000000000E+00 0.  1.
         21   -1    0    0  502  503 -0.00000000000E+00 -0.00000000000E+00 -0.84298363558E+03  0.84298363558E+03  0.00000000000E+00 0. -1.
          6    1    1    2  501    0 -0.54140059467E+02 -0.16811184451E+03  0.33258747722E+02  0.24945517153E+03  0.17300000000E+03 0. -1.
         -6    1    1    2    0  503  0.54140059467E+02  0.16811184451E+03 -0.71409247544E+03  0.75567837192E+03  0.17300000000E+03 0.  1.
</event>
<event>
 4    1  0.6104111E+000  0.1000000E+03  0.7546771E-02  0.1280296E+00
         21   -1    0    0  501  502  0.00000000000E+00  0.00000000000E+00  0.25629766289E+03  0.25629766289E+03  0.00000000000E+00 0.  1.
         21   -1    0    0  502  503 -0.00000000000E+00 -0.00000000000E+00 -0.31000849228E+03  0.31000849228E+03  0.00000000000E+00 0. -1.
          6    1    1    2  501    0  0.73996436217E+02 -0.19835822654E+03  0.42040825397E+02  0.27661867184E+03  0.17300000000E+03 0. -1.
         -6    1    1    2    0  503 -0.73996436217E+02  0.19835822654E+03 -0.95751654787E+02  0.28968748334E+03  0.17300000000E+03 0.  1.
</event>
<event>
 4    1  0.6104111E+000  0.1000000E+03  0.7546771E-02  0.1280296E+00
         21   -1    0    0  501  502  0.00000000000E+00  0.00000000000E+00  0.19248390397E+03  0.19248390397E+03  0.00000000000E+00 0.  1.
         21   -1    0    0  502  503 -0.00000000000E+00 -0.00000000000E+00 -0.18960398979E+03  0.18960398979E+03  0.00000000000E+00 0. -1.
          6    1    1    2  501    0  0.69628930347E+02  0.40168154982E+02 -0.88096045639E+01  0.19096669277E+03  0.17300000000E+03 0.  1.
         -6    1    1    2    0  503 -0.69628930347E+02 -0.40168154982E+02  0.11689518745E+02  0.19112120098E+03  0.17300000000E+03 0. -1.
</event>
<event>
 4    1  0.6104111E+000  0.1000000E+03  0.7546771E-02  0.1280296E+00
         21   -1    0    0  501  502  0.00000000000E+00  0.00000000000E+00  0.10491536113E+03  0.10491536113E+03  0.00000000000E+00 0.  1.
         21   -1    0    0  502  503 -0.00000000000E+00 -0.00000000000E+00 -0.36885191026E+03  0.36885191026E+03  0.00000000000E+00 0. -1.
          6    1    1    2  501    0 -0.74737983692E+02  0.56367753012E+02 -0.13495248691E+03  0.23854614545E+03  0.17300000000E+03 0.  1.
         -6    1    1    2    0  503  0.74737983692E+02 -0.56367753012E+02 -0.12898406222E+03  0.23522112595E+03  0.17300000000E+03 0. -1.
</event>
<event>
 4    1  0.6104111E+000  0.1000000E+03  0.7546771E-02  0.1280296E+00
         21   -1    0    0  501  502  0.00000000000E+00  0.00000000000E+00  0.64045203866E+03  0.64045203866E+03  0.00000000000E+00 0.  1.
         21   -1    0    0  502  503 -0.00000000000E+00 -0.00000000000E+00 -0.69155641570E+02  0.69155641570E+02  0.00000000000E+00 0.  1.
          6    1    1    2  501    0 -0.72693964665E+02  0.93023823329E+02  0.25093231923E+03  0.32685451356E+03  0.17300000000E+03 0.  1.
         -6    1    1    2    0  503  0.72693964665E+02 -0.93023823329E+02  0.32036407786E+03  0.38275316666E+03  0.17300000000E+03 0.  1.
</event>
<event>
 4    1  0.6104111E+000  0.1000000E+03  0.7546771E-02  0.1280296E+00
         21   -1    0    0  503  502  0.00000000000E+00  0.00000000000E+00  0.85858610393E+03  0.85858610393E+03  0.00000000000E+00 0. -1.
         21   -1    0    0  501  503 -0.00000000000E+00 -0.00000000000E+00 -0.53721703789E+02  0.53721703789E+02  0.00000000000E+00 0.  1.
          6    1    1    2  501    0  0.42683197787E+02  0.31084875157E+02  0.15649748574E+03  0.23918316806E+03  0.17300000000E+03 0.  1.
         -6    1    1    2    0  502 -0.42683197787E+02 -0.31084875157E+02  0.64836691440E+03  0.67312463966E+03  0.17300000000E+03 0. -1.
</event>
<event>
 4    1  0.6104111E+000  0.1000000E+03  0.7546771E-02  0.1280296E+00
         21   -1    0    0  503  502  0.00000000000E+00  0.00000000000E+00  0.31778270363E+03  0.31778270363E+03  0.00000000000E+00 0.  1.
         21   -1    0    0  501  503 -0.00000000000E+00 -0.00000000000E+00 -0.14565094536E+03  0.14565094536E+03  0.00000000000E+00 0. -1.
          6    1    1    2  501    0  0.47407286400E+02 -0.66898363139E+02 -0.19647036079E+02  0.19245219620E+03  0.17300000000E+03 0. -1.
         -6    1    1    2    0  502 -0.47407286400E+02  0.66898363139E+02  0.19177879436E+03  0.27098145279E+03  0.17300000000E+03 0.  1.
</event>
<event>
 4    1  0.6104111E+000  0.1000000E+03  0.7546771E-02  0.1280296E+00
         21   -1    0    0  503  502  0.00000000000E+00  0.00000000000E+00  0.23246579871E+04  0.23246579871E+04  0.00000000000E+00 0. -1.
         21   -1    0    0  501  503 -0.00000000000E+00 -0.00000000000E+00 -0.27109635997E+02  0.27109635997E+02  0.00000000000E+00 0. -1.
          6    1    1    2  501    0  0.73859022931E+02 -0.94665224172E+01  0.37134810942E+03  0.41638106187E+03  0.17300000000E+03 0. -1.
         -6    1    1    2    0  502 -0.73859022931E+02  0.94665224172E+01  0.19262002416E+04  0.19353865612E+04  0.17300000000E+03 0. -1.
</event>
<event>
 4    1  0.6104111E+000  0.1000000E+03  0.7546771E-02  0.1280296E+00
         21   -1    0    0  503  502  0.00000000000E+00  0.00000000000E+00  0.78905763875E+02  0.78905763875E+02  0.00000000000E+00 0.  1.
         21   -1    0    0  501  503 -0.00000000000E+00 -0.00000000000E+00 -0.65832589016E+03  0.65832589016E+03  0.00000000000E+00 0. -1.
          6    1    1    2  501    0  0.30203863731E+02  0.50646162001E+02 -0.50992510762E+03  0.54169172274E+03  0.17300000000E+03 0.  1.
         -6    1    1    2    0  502 -0.30203863731E+02 -0.50646162001E+02 -0.69495018666E+02  0.19553993129E+03  0.17300000000E+03 0.  1.
</event>
<event>
 4    1  0.6104111E+000  0.1000000E+03  0.7546771E-02  0.1280296E+00
         21   -1    0    0  503  502  0.00000000000E+00  0.00000000000E+00  0.15450341162E+04  0.15450341162E+04  0.00000000000E+00 0.  1.
         21   -1    0    0  501  503 -0.00000000000E+00 -0.00000000000E+00 -0.98802126844E+02  0.98802126844E+02  0.00000000000E+00 0. -1.
          6    1    1    2  501    0  0.12753123478E+03 -0.13079681307E+02  0.37281647640E+02  0.21852737851E+03  0.17300000000E+03 0.  1.
         -6    1    1    2    0  502 -0.12753123478E+03  0.13079681307E+02  0.14089503417E+04  0.14253088645E+04  0.17300000000E+03 0.  1.
</event>
<event>
 4    1  0.6104111E+000  0.1000000E+03  0.7546771E-02  0.1280296E+00
         21   -1    0    0  503  502  0.00000000000E+00  0.00000000000E+00  0.10362053137E+04  0.10362053137E+04  0.00000000000E+00 0.  1.
         21   -1    0    0  501  503 -0.00000000000E+00 -0.00000000000E+00 -0.85379139865E+02  0.85379139865E+02  0.00000000000E+00 0. -1.
          6    1    1    2  501    0 -0.10569996238E+03 -0.17105829368E+03  0.22170331664E+03  0.34570910097E+03  0.17300000000E+03 0. -1.
         -6    1    1    2    0  502  0.10569996238E+03  0.17105829368E+03  0.72912285718E+03  0.77587535258E+03  0.17300000000E+03 0.  1.
</event>
<event>
 4    1  0.6104111E+000  0.1000000E+03  0.7546771E-02  0.1280296E+00
         21   -1    0    0  501  502  0.00000000000E+00  0.00000000000E+00  0.99715877929E+02  0.99715877929E+02  0.00000000000E+00 0. -1.
         21   -1    0    0  502  503 -0.00000000000E+00 -0.00000000000E+00 -0.14545593383E+04  0.14545593383E+04  0.00000000000E+00 0.  1.
          6    1    1    2  501    0  0.99856355661E+02  0.26614900735E+03 -0.29946516317E+03  0.44767730547E+03  0.17300000000E+03 0. -1.
         -6    1    1    2    0  503 -0.99856355661E+02 -0.26614900735E+03 -0.10553782972E+04  0.11065979107E+04  0.17300000000E+03 0.  1.
</event>
<event>
 4    1  0.6104111E+000  0.1000000E+03  0.7546771E-02  0.1280296E+00
         21   -1    0    0  501  502  0.00000000000E+00  0.00000000000E+00  0.25102144593E+04  0.25102144593E+04  0.00000000000E+00 0. -1.
         21   -1    0    0  502  503 -0.00000000000E+00 -0.00000000000E+00 -0.40909834367E+02  0.40909834367E+02  0.00000000000E+00 0.  1.
          6    1    1    2  501    0  0.41073714213E+02  0.15725783383E+03  0.20915722839E+04  0.21049989775E+04  0.17300000000E+03 0. -1.
         -6    1    1    2    0  503 -0.41073714213E+02 -0.15725783383E+03  0.37773234100E+03  0.44612531618E+03  0.17300000000E+03 0.  1.
</event>
<event>
 4    1  0.6104111E+000  0.1000000E+03  0.7546771E-02  0.1280296E+00
         21   -1    0    0  501  502  0.00000000000E+00  0.00000000000E+00  0.72935769655E+03  0.72935769655E+03  0.00000000000E+00 0. -1.
         21   -1    0    0  502  503 -0.00000000000E+00 -0.00000000000E+00 -0.10934640897E+03  0.10934640897E+03  0.00000000000E+00 0.  1.
          6    1    1    2  501    0  0.14458093913E+02 -0.12420794343E+03  0.58456528059E+03  0.62232002777E+03  0.17300000000E+03 0. -1.
         -6    1    1    2    0  503 -0.14458093913E+02  0.12420794343E+03  0.35446006988E+02  0.21638407775E+03  0.17300000000E+03 0.  1.
</event>
<event>
 4    1  0.6104111E+000  0.1000000E+03  0.7546771E-02  0.1280296E+00
         21   -1    0    0  501  502  0.00000000000E+00  0.00000000000E+00  0.40133810744E+03  0.40133810744E+03  0.00000000000E+00 0. -1.
         21   -1    0    0  502  503 -0.00000000000E+00 -0.00000000000E+00 -0.18189138553E+03  0.18189138553E+03  0.00000000000E+00 0.  1.
          6    1    1    2  501    0  0.79739134761E+02 -0.18070642365E+03  0.17847668672E+03  0.31748396631E+03  0.17300000000E+03 0. -1.
         -6    1    1    2    0  503 -0.79739134761E+02  0.18070642365E+03  0.40970035192E+02  0.26574552667E+03  0.17300000000E+03 0.  1.
</event>
<event>
 4    1  0.6104111E+000  0.1000000E+03  0.7546771E-02  0.1280296E+00
         21   -1    0    0  501  502  0.00000000000E+00  0.00000000000E+00  0.21451744203E+02  0.21451744203E+02  0.00000000000E+00 0.  1.
         21   -1    0    0  502  503 -0.00000000000E+00 -0.00000000000E+00 -0.17071436518E+04  0.17071436518E+04  0.00000000000E+00 0.  1.
          6    1    1    2  501    0  0.61127412606E+02 -0.54364089808E+02 -0.84085613217E+03  0.86235726346E+03  0.17300000000E+03 0.  1.
         -6    1    1    2    0  503 -0.61127412606E+02  0.54364089808E+02 -0.84483577547E+03  0.86623813259E+03  0.17300000000E+03 0.  1.
</event>
<event>
 4    1  0.6104111E+000  0.1000000E+03  0.7546771E-02  0.1280296E+00
         21   -1    0    0  501  502  0.00000000000E+00  0.00000000000E+00  0.51894274671E+03  0.51894274671E+03  0.00000000000E+00 0.  1.
         21   -1    0    0  502  503 -0.00000000000E+00 -0.00000000000E+00 -0.12847744825E+03  0.12847744825E+03  0.00000000000E+00 0. -1.
          6    1    1    2  501    0 -0.14719616421E+03 -0.19976952497E+02  0.34711641043E+03  0.41531264341E+03  0.17300000000E+03 0.  1.
         -6    1    1    2    0  503  0.14719616421E+03  0.19976952497E+02  0.43348888025E+02  0.23210755154E+03  0.17300000000E+03 0. -1.
</event>
<event>
 4    1  0.6104111E+000  0.1000000E+03  0.7546771E-02  0.1280296E+00
         21   -1    0    0  501  502  0.00000000000E+00  0.00000000000E+00  0.50809844582E+03  0.50809844582E+03  0.00000000000E+00 0.  1.
         21   -1    0    0  502  503 -0.00000000000E+00 -0.00000000000E+00 -0.13599302217E+03  0.13599302217E+03  0.00000000000E+00 0. -1.
          6    1    1    2  501    0  0.78632183310E+02  0.14133374679E+03  0.32579694129E+03  0.40277896568E+03  0.17300000000E+03 0.  1.
         -6    1    1    2    0  503 -0.78632183310E+02 -0.14133374679E+03  0.46308482351E+02  0.24131250231E+03  0.17300000000E+03 0. -1.
</event>
<event>
 4    1  0.6104111E+000  0.1000000E+03  0.7546771E-02  0.1280296E+00
         21   -1    0    0  501  502  0.00000000000E+00  0.00000000000E+00  0.10658454489E+03  0.10658454489E+03  0.00000000000E+00 0.  1.
         21   -1    0    0  502  503 -0.00000000000E+00 -0.00000000000E+00 -0.61784936634E+03  0.61784936634E+03  0.00000000000E+00 0. -1.
          6    1    1    2  501    0 -0.11169656641E+03  0.33857957855E+02 -0.44842688963E+02  0.21345339307E+03  0.17300000000E+03 0.  1.
         -6    1    1    2    0  503  0.11169656641E+03 -0.33857957855E+02 -0.46642213249E+03  0.51098051816E+03  0.17300000000E+03 0. -1.
</event>
<event>
 4    1  0.6104111E+000  0.1000000E+03  0.7546771E-02  0.1280296E+00
         21   -1    0    0  501  502  0.00000000000E+00  0.00000000000E+00  0.13903675487E+03  0.13903675487E+03  0.00000000000E+00 0.  1.
         21   -1    0    0  502  503 -0.00000000000E+00 -0.00000000000E+00 -0.26380805555E+03  0.26380805555E+03  0.00000000000E+00 0. -1.
          6    1    1    2  501    0  0.79916957892E+02 -0.13159059939E+02 -0.76887717105E+02  0.20591406474E+03  0.17300000000E+03 0.  1.
         -6    1    1    2    0  503 -0.79916957892E+02  0.13159059939E+02 -0.47883583569E+02  0.19693074568E+03  0.17300000000E+03 0. -1.
</event>
<event>
 4    1  0.6104111E+000  0.1000000E+03  0.7546771E-02  0.1280296E+00
         21   -1    0    0  501  502  0.00000000000E+00  0.00000000000E+00  0.10663031562E+04  0.10663031562E+04  0.00000000000E+00 0. -1.
         21   -1    0    0  502  503 -0.00000000000E+00 -0.00000000000E+00 -0.28706656789E+02  0.28706656789E+02  0.00000000000E+00 0.  1.
          6    1    1    2  501    0 -0.16760480613E+02  0.60226507355E+01  0.45910911400E+03  0.49094537842E+03  0.17300000000E+03 0. -1.
         -6    1    1    2    0  503  0.16760480613E+02 -0.60226507355E+01  0.57848738538E+03  0.60406443454E+03  0.17300000000E+03 0.  1.
</event>
<event>
 4    1  0.6104111E+000  0.1000000E+03  0.7546771E-02  0.1280296E+00
         21   -1    0    0  501  502  0.00000000000E+00  0.00000000000E+00  0.47937250087E+03  0.47937250087E+03  0.00000000000E+00 0. -1.
         21   -1    0    0  502  503 -0.00000000000E+00 -0.00000000000E+00 -0.14320875175E+03  0.14320875175E+03  0.00000000000E+00 0.  1.
          6    1    1    2  501    0 -0.15540951755E+03 -0.11471846502E+03  0.12348712517E+03  0.28721161962E+03  0.17300000000E+03 0. -1.
         -6    1    1    2    0  503  0.15540951755E+03  0.11471846502E+03  0.21267662395E+03  0.33536963300E+03  0.17300000000E+03 0.  1.
</event>
<event>
 4    1  0.6104111E+000  0.1000000E+03  0.7546771E-02  0.1280296E+00
         21   -1    0    0  501  502  0.00000000000E+00  0.00000000000E+00  0.32342335826E+03  0.32342335826E+03  0.00000000000E+00 0. -1.
         21   -1    0    0  502  503 -0.00000000000E+00 -0.00000000000E+00 -0.17150151887E+03  0.17150151887E+03  0.00000000000E+00 0.  1.
          6    1    1    2  501    0  0.21485873095E+02  0.15775790698E+03  0.61500649271E+02  0.24302372275E+03  0.17300000000E+03 0. -1.
         -6    1    1    2    0  503 -0.21485873095E+02 -0.15775790698E+03  0.90421190114E+02  0.25190115438E+03  0.17300000000E+03 0.  1.
</event>
<event>
 4    1  0.6104111E+000  0.1000000E+03  0.7546771E-02  0.1280296E+00
         21   -1    0    0  503  502  0.00000000000E+00  0.00000000000E+00  0.57037250329E+03  0.57037250329E+03  0.00000000000E+00 0.  1.
         21   -1    0    0  501  503 -0.00000000000E+00 -0.00000000000E+00 -0.78706292513E+02  0.78706292513E+02  0.00000000000E+00 0.  1.
          6    1    1    2  501    0  0.32662657965E+02 -0.69271068911E+02  0.99734447183E+02  0.21387213509E+03  0.17300000000E+03 0.  1.
         -6    1    1    2    0  502 -0.32662657965E+02  0.69271068911E+02  0.39193176359E+03  0.43520666071E+03  0.17300000000E+03 0.  1.
</event>
<event>
 4    1  0.6104111E+000  0.1000000E+03  0.7546771E-02  0.1280296E+00
         21   -1    0    0  503  502  0.00000000000E+00  0.00000000000E+00  0.25843088635E+03  0.25843088635E+03  0.00000000000E+00 0.  1.
         21   -1    0    0  501  503 -0.00000000000E+00 -0.00000000000E+00 -0.17033889464E+03  0.17033889464E+03  0.00000000000E+00 0.  1.
          6    1    1    2  501    0 -0.63627623145E+01  0.86002425436E+02 -0.39309988703E+02  0.19725916237E+03  0.17300000000E+03 0.  1.
         -6    1    1    2    0  502  0.63627623145E+01 -0.86002425436E+02  0.12740198041E+03  0.23151061863E+03  0.17300000000E+03 0.  1.
</event>
<event>
 4    1  0.6104111E+000  0.1000000E+03  0.7546771E-02  0.1280296E+00
         21   -1    0    0  501  502  0.00000000000E+00  0.00000000000E+00  0.31823955398E+02  0.31823955398E+02  0.00000000000E+00 0. -1.
         21   -1    0    0  502  503 -0.00000000000E+00 -0.00000000000E+00 -0.18789521740E+04  0.18789521740E+04  0.00000000000E+00 0.  1.
          6    1    1    2  501    0 -0.10817975967E+03 -0.13049211113E+03 -0.79190074024E+03  0.82811039956E+03  0.17300000000E+03 0.  1.
         -6    1    1    2    0  503  0.10817975967E+03  0.13049211113E+03 -0.10552274784E+04  0.10826657298E+04  0.17300000000E+03 0. -1.
</event>
<event>
 4    1  0.6104111E+000  0.1000000E+03  0.7546771E-02  0.1280296E+00
         21   -1    0    0  501  502  0.00000000000E+00  0.00000000000E+00  0.97081293758E+02  0.97081293758E+02  0.00000000000E+00 0. -1.
         21   -1    0    0  502  503 -0.00000000000E+00 -0.00000000000E+00 -0.38173953777E+03  0.38173953777E+03  0.00000000000E+00 0.  1.
          6    1    1    2  501    0 -0.36359219257E+02  0.48798556949E+01 -0.47739832926E+02  0.18317722966E+03  0.17300000000E+03 0.  1.
         -6    1    1    2    0  503  0.36359219257E+02 -0.48798556949E+01 -0.23691841109E+03  0.29564360187E+03  0.17300000000E+03 0. -1.
</event>
<event>
 4    1  0.6104111E+000  0.1000000E+03  0.7546771E-02  0.1280296E+00
         21   -1    0    0  501  502  0.00000000000E+00  0.00000000000E+00  0.41959572064E+03  0.41959572064E+03  0.00000000000E+00 0. -1.
         21   -1    0    0  502  503 -0.00000000000E+00 -0.00000000000E+00 -0.14046522344E+03  0.14046522344E+03  0.00000000000E+00 0.  1.
          6    1    1    2  501    0 -0.14312886956E+03  0.74382979878E+02  0.20264743207E+03  0.31147019556E+03  0.17300000000E+03 0.  1.
         -6    1    1    2    0  503  0.14312886956E+03 -0.74382979878E+02  0.76483065127E+02  0.24859074852E+03  0.17300000000E+03 0. -1.
</event>
<event>
 4    1  0.6104111E+000  0.1000000E+03  0.7546771E-02  0.1280296E+00
         21   -1    0    0  501  502  0.00000000000E+00  0.00000000000E+00  0.13385767601E+04  0.13385767601E+04  0.00000000000E+00 0. -1.
         21   -1    0    0  502  503 -0.00000000000E+00 -0.00000000000E+00 -0.85621594987E+02  0.85621594987E+02  0.00000000000E+00 0.  1.
          6    1    1    2  501    0  0.92956697787E+02 -0.29661952711E+02  0.12031435517E+04  0.12194278105E+04  0.17300000000E+03 0. -1.
         -6    1    1    2    0  503 -0.92956697787E+02  0.29661952711E+02  0.49811613464E+02  0.20477054461E+03  0.17300000000E+03 0.  1.
</event>
<event>
 4    1  0.6104111E+000  0.1000000E+03  0.7546771E-02  0.1280296E+00
         21   -1    0    0  501  502  0.00000000000E+00  0.00000000000E+00  0.76804292688E+02  0.76804292688E+02  0.00000000000E+00 0. -1.
         21   -1    0    0  502  503 -0.00000000000E+00 -0.00000000000E+00 -0.83757787795E+03  0.83757787795E+03  0.00000000000E+00 0.  1.
          6    1    1    2  501    0 -0.37452091920E+02  0.41408743173E+02 -0.61564834989E+02  0.19192855991E+03  0.17300000000E+03 0. -1.
         -6    1    1    2    0  503  0.37452091920E+02 -0.41408743173E+02 -0.69920875028E+03  0.72245361073E+03  0.17300000000E+03 0.  1.
</event>
<event>
 4    1  0.6104111E+000  0.1000000E+03  0.7546771E-02  0.1280296E+00
         21   -1    0    0  503  502  0.00000000000E+00  0.00000000000E+00  0.30647806044E+03  0.30647806044E+03  0.00000000000E+00 0. -1.
         21   -1    0    0  501  503 -0.00000000000E+00 -0.00000000000E+00 -0.35616020012E+03  0.35616020012E+03  0.00000000000E+00 0.  1.
          6    1    1    2  501    0 -0.38122376528E+02 -0.57385159662E+02 -0.29852147921E+03  0.35183866430E+03  0.17300000000E+03 0.  1.
         -6    1    1    2    0  502  0.38122376528E+02  0.57385159662E+02  0.24883933953E+03  0.31079959626E+03  0.17300000000E+03 0. -1.
</event>
<event>
 4    1  0.6104111E+000  0.1000000E+03  0.7546771E-02  0.1280296E+00
         21   -1    0    0  503  502  0.00000000000E+00  0.00000000000E+00  0.85042440672E+02  0.85042440672E+02  0.00000000000E+00 0.  1.
         21   -1    0    0  501  503 -0.00000000000E+00 -0.00000000000E+00 -0.60588139565E+03  0.60588139565E+03  0.00000000000E+00 0.  1.
          6    1    1    2  501    0  0.11117931562E+03 -0.85174395664E+02 -0.32815918684E+03  0.39652612752E+03  0.17300000000E+03 0. -1.
         -6    1    1    2    0  502 -0.11117931562E+03  0.85174395664E+02 -0.19267976814E+03  0.29439770880E+03  0.17300000000E+03 0. -1.
</event>
<event>
 4    1  0.6104111E+000  0.1000000E+03  0.7546771E-02  0.1280296E+00
         21   -1    0    0  503  502  0.00000000000E+00  0.00000000000E+00  0.44151064172E+02  0.44151064172E+02  0.00000000000E+00 0. -1.
         21   -1    0    0  501  503 -0.00000000000E+00 -0.00000000000E+00 -0.21069812412E+04  0.21069812412E+04  0.00000000000E+00 0.  1.
          6    1    1    2  501    0  0.12389942359E+02 -0.67529067744E+02 -0.18834915804E+04  0.18926656384E+04  0.17300000000E+03 0.  1.
         -6    1    1    2    0  502 -0.12389942359E+02  0.67529067744E+02 -0.17933859669E+03  0.25846666695E+03  0.17300000000E+03 0. -1.
</event>
<event>
 4    1  0.6104111E+000  0.1000000E+03  0.7546771E-02  0.1280296E+00
         21   -1    0    0  503  502  0.00000000000E+00  0.00000000000E+00  0.12880762267E+04  0.12880762267E+04  0.00000000000E+00 0.  1.
         21   -1    0    0  501  503 -0.00000000000E+00 -0.00000000000E+00 -0.29319440465E+02  0.29319440465E+02  0.00000000000E+00 0.  1.
          6    1    1    2  501    0  0.29915835762E+02 -0.66045699128E+02  0.80153383450E+03  0.82319042721E+03  0.17300000000E+03 0.  1.
         -6    1    1    2    0  502 -0.29915835762E+02  0.66045699128E+02  0.45722295171E+03  0.49420523993E+03  0.17300000000E+03 0.  1.
</event>
<event>
 4    1  0.6104111E+000  0.1000000E+03  0.7546771E-02  0.1280296E+00
         21   -1    0    0  503  502  0.00000000000E+00  0.00000000000E+00  0.89961024333E+02  0.89961024333E+02  0.00000000000E+00 0.  1.
         21   -1    0    0  501  503 -0.00000000000E+00 -0.00000000000E+00 -0.14819390774E+04  0.14819390774E+04  0.00000000000E+00 0.  1.
          6    1    1    2  501    0 -0.20312235520E+03  0.18628925138E+03 -0.10524638893E+04  0.11016222650E+04  0.17300000000E+03 0.  1.
         -6    1    1    2    0  502  0.20312235520E+03 -0.18628925138E+03 -0.33951416374E+03  0.47027783675E+03  0.17300000000E+03 0.  1.
</event>
<event>
 4    1  0.6104111E+000  0.1000000E+03  0.7546771E-02  0.1280296E+00
         21   -1    0    0  503  502  0.00000000000E+00  0.00000000000E+00  0.95747127783E+02  0.95747127783E+02  0.00000000000E+00 0.  1.
         21   -1    0    0  501  503 -0.00000000000E+00 -0.00000000000E+00 -0.48492292512E+03  0.48492292512E+03  0.00000000000E+00 0.  1.
          6    1    1    2  501    0  0.21471564436E+02  0.11290522915E+03 -0.27190111699E+03  0.34215177373E+03  0.17300000000E+03 0.  1.
         -6    1    1    2    0  502 -0.21471564436E+02 -0.11290522915E+03 -0.11727468034E+03  0.23851827917E+03  0.17300000000E+03 0.  1.
</event>
<event>
 4    1  0.6104111E+000  0.1000000E+03  0.7546771E-02  0.1280296E+00
         21   -1    0    0  503  502  0.00000000000E+00  0.00000000000E+00  0.18092628159E+03  0.18092628159E+03  0.00000000000E+00 0.  1.
         21   -1    0    0  501  503 -0.00000000000E+00 -0.00000000000E+00 -0.16980234603E+03  0.16980234603E+03  0.00000000000E+00 0.  1.
          6    1    1    2  501    0 -0.19182326252E+02 -0.10194851640E+02 -0.12358229627E+02  0.17479594526E+03  0.17300000000E+03 0.  1.
         -6    1    1    2    0  502  0.19182326252E+02  0.10194851640E+02  0.23482165188E+02  0.17593268236E+03  0.17300000000E+03 0.  1.
</event>
<event>
 4    1  0.6104111E+000  0.1000000E+03  0.7546771E-02  0.1280296E+00
         21   -1    0    0  503  502  0.00000000000E+00  0.00000000000E+00  0.53162686657E+02  0.53162686657E+02  0.00000000000E+00 0.  1.
         21   -1    0    0  501  503 -0.00000000000E+00 -0.00000000000E+00 -0.21619152055E+04  0.21619152055E+04  0.00000000000E+00 0.  1.
          6    1    1    2  501    0  0.89185530624E+02  0.81936593585E+02 -0.19207928696E+04  0.19323669197E+04  0.17300000000E+03 0.  1.
         -6    1    1    2    0  502 -0.89185530624E+02 -0.81936593585E+02 -0.18795964928E+03  0.28271097255E+03  0.17300000000E+03 0.  1.
</event>
<event>
 4    1  0.6104111E+000  0.1000000E+03  0.7546771E-02  0.1280296E+00
         21   -1    0    0  503  502  0.00000000000E+00  0.00000000000E+00  0.21629779103E+03  0.21629779103E+03  0.00000000000E+00 0.  1.
         21   -1    0    0  501  503 -0.00000000000E+00 -0.00000000000E+00 -0.24610155402E+03  0.24610155402E+03  0.00000000000E+00 0.  1.
          6    1    1    2  501    0  0.10760971868E+03 -0.59557031650E+02 -0.10550782043E+03  0.23703964172E+03  0.17300000000E+03 0.  1.
         -6    1    1    2    0  502 -0.10760971868E+03  0.59557031650E+02  0.75704057431E+02  0.22535970333E+03  0.17300000000E+03 0.  1.
</event>
<event>
 4    1  0.6104111E+000  0.1000000E+03  0.7546771E-02  0.1280296E+00
         21   -1    0    0  501  502  0.00000000000E+00  0.00000000000E+00  0.34519479012E+02  0.34519479012E+02  0.00000000000E+00 0. -1.
         21   -1    0    0  502  503 -0.00000000000E+00 -0.00000000000E+00 -0.13332397512E+04  0.13332397512E+04  0.00000000000E+00 0. -1.
          6    1    1    2  501    0  0.11671987235E+03  0.49525206931E+02 -0.63603716228E+03  0.67122913116E+03  0.17300000000E+03 0. -1.
         -6    1    1    2    0  503 -0.11671987235E+03 -0.49525206931E+02 -0.66268310990E+03  0.69653009904E+03  0.17300000000E+03 0. -1.
</event>
<event>
 4    1  0.6104111E+000  0.1000000E+03  0.7546771E-02  0.1280296E+00
         21   -1    0    0  501  502  0.00000000000E+00  0.00000000000E+00  0.44917236872E+03  0.44917236872E+03  0.00000000000E+00 0. -1.
         21   -1    0    0  502  503 -0.00000000000E+00 -0.00000000000E+00 -0.15184901050E+03  0.15184901050E+03  0.00000000000E+00 0. -1.
          6    1    1    2  501    0 -0.51795266598E+01  0.20339764658E+01  0.37369290879E+03  0.41183292078E+03  0.17300000000E+03 0. -1.
         -6    1    1    2    0  503  0.51795266598E+01 -0.20339764658E+01 -0.76369550567E+02  0.18918845845E+03  0.17300000000E+03 0. -1.
</event>
<event>
 4    1  0.6104111E+000  0.1000000E+03  0.7546771E-02  0.1280296E+00
         21   -1    0    0  501  502  0.00000000000E+00  0.00000000000E+00  0.28103492088E+03  0.28103492088E+03  0.00000000000E+00 0. -1.
         21   -1    0    0  502  503 -0.00000000000E+00 -0.00000000000E+00 -0.21641428924E+03  0.21641428924E+03  0.00000000000E+00 0. -1.
          6    1    1    2  501    0  0.69751556460E+02  0.27267127153E+02  0.19267289903E+03  0.26955634267E+03  0.17300000000E+03 0. -1.
         -6    1    1    2    0  503 -0.69751556460E+02 -0.27267127153E+02 -0.12805226739E+03  0.22789286745E+03  0.17300000000E+03 0. -1.
</event>
<event>
 4    1  0.6104111E+000  0.1000000E+03  0.7546771E-02  0.1280296E+00
         21   -1    0    0  503  502  0.00000000000E+00  0.00000000000E+00  0.19861452406E+03  0.19861452406E+03  0.00000000000E+00 0.  1.
         21   -1    0    0  501  503 -0.00000000000E+00 -0.00000000000E+00 -0.50068630512E+03  0.50068630512E+03  0.00000000000E+00 0.  1.
          6    1    1    2  501    0 -0.12032538022E+03 -0.20190124968E+03 -0.28349812306E+03  0.40686914055E+03  0.17300000000E+03 0.  1.
         -6    1    1    2    0  502  0.12032538022E+03  0.20190124968E+03 -0.18573658001E+02  0.29243168864E+03  0.17300000000E+03 0.  1.
</event>
<event>
 4    1  0.6104111E+000  0.1000000E+03  0.7546771E-02  0.1280296E+00
         21   -1    0    0  503  502  0.00000000000E+00  0.00000000000E+00  0.96603544017E+03  0.96603544017E+03  0.00000000000E+00 0.  1.
         21   -1    0    0  501  503 -0.00000000000E+00 -0.00000000000E+00 -0.43159202126E+02  0.43159202126E+02  0.00000000000E+00 0.  1.
          6    1    1    2  501    0 -0.51999576258E+01  0.82357252545E+02  0.28749215743E+03  0.34552930004E+03  0.17300000000E+03 0.  1.
         -6    1    1    2    0  502  0.51999576258E+01 -0.82357252545E+02  0.63538408062E+03  0.66366534225E+03  0.17300000000E+03 0.  1.
</event>
<event>
 4    1  0.6104111E+000  0.1000000E+03  0.7546771E-02  0.1280296E+00
         21   -1    0    0  503  502  0.00000000000E+00  0.00000000000E+00  0.23667515391E+03  0.23667515391E+03  0.00000000000E+00 0. -1.
         21   -1    0    0  501  503 -0.00000000000E+00 -0.00000000000E+00 -0.25258283031E+03  0.25258283031E+03  0.00000000000E+00 0. -1.
          6    1    1    2  501    0  0.54996017684E+02 -0.53888403986E+02 -0.16270484709E+03  0.24966054817E+03  0.17300000000E+03 0. -1.
         -6    1    1    2    0  502 -0.54996017684E+02  0.53888403986E+02  0.14679717069E+03  0.23959743606E+03  0.17300000000E+03 0. -1.
</event>
<event>
 4    1  0.6104111E+000  0.1000000E+03  0.7546771E-02  0.1280296E+00
         21   -1    0    0  501  502  0.00000000000E+00  0.00000000000E+00  0.15017443836E+04  0.15017443836E+04  0.00000000000E+00 0. -1.
         21   -1    0    0  502  503 -0.00000000000E+00 -0.00000000000E+00 -0.43421406198E+02  0.43421406198E+02  0.00000000000E+00 0.  1.
          6    1    1    2  501    0 -0.85989574044E+02 -0.69319159525E+02  0.11887914577E+04  0.12063803225E+04  0.17300000000E+03 0.  1.
         -6    1    1    2    0  503  0.85989574044E+02  0.69319159525E+02  0.26953151979E+03  0.33878546734E+03  0.17300000000E+03 0. -1.
</event>
<event>
 4    1  0.6104111E+000  0.1000000E+03  0.7546771E-02  0.1280296E+00
         21   -1    0    0  501  502  0.00000000000E+00  0.00000000000E+00  0.77454659011E+02  0.77454659011E+02  0.00000000000E+00 0. -1.
         21   -1    0    0  502  503 -0.00000000000E+00 -0.00000000000E+00 -0.14322543768E+04  0.14322543768E+04  0.00000000000E+00 0.  1.
          6    1    1    2  501    0 -0.24369612289E+03 -0.89310674797E-01 -0.34417543785E+03  0.45582182956E+03  0.17300000000E+03 0.  1.
         -6    1    1    2    0  503  0.24369612289E+03  0.89310674797E-01 -0.10106242799E+04  0.10538872062E+04  0.17300000000E+03 0. -1.
</event>
<event>
 4    1  0.6104111E+000  0.1000000E+03  0.7546771E-02  0.1280296E+00
         21   -1    0    0  501  502  0.00000000000E+00  0.00000000000E+00  0.46917736695E+03  0.46917736695E+03  0.00000000000E+00 0.  1.
         21   -1    0    0  502  503 -0.00000000000E+00 -0.00000000000E+00 -0.17584000485E+03  0.17584000485E+03  0.00000000000E+00 0. -1.
          6    1    1    2  501    0 -0.13816202639E+03 -0.18264306222E+03  0.13416957122E+03  0.31682441123E+03  0.17300000000E+03 0.  1.
         -6    1    1    2    0  503  0.13816202639E+03  0.18264306222E+03  0.15916779088E+03  0.32819296057E+03  0.17300000000E+03 0. -1.
</event>
<event>
 4    1  0.6104111E+000  0.1000000E+03  0.7546771E-02  0.1280296E+00
         21   -1    0    0  501  502  0.00000000000E+00  0.00000000000E+00  0.22242483706E+03  0.22242483706E+03  0.00000000000E+00 0.  1.
         21   -1    0    0  502  503 -0.00000000000E+00 -0.00000000000E+00 -0.25326133371E+03  0.25326133371E+03  0.00000000000E+00 0. -1.
          6    1    1    2  501    0  0.15646562695E+03 -0.17242624399E+02  0.24963219431E+02  0.23522534480E+03  0.17300000000E+03 0.  1.
         -6    1    1    2    0  503 -0.15646562695E+03  0.17242624399E+02 -0.55799716083E+02  0.24046082597E+03  0.17300000000E+03 0. -1.
</event>
<event>
 4    1  0.6104111E+000  0.1000000E+03  0.7546771E-02  0.1280296E+00
         21   -1    0    0  501  502  0.00000000000E+00  0.00000000000E+00  0.10333001716E+04  0.10333001716E+04  0.00000000000E+00 0. -1.
         21   -1    0    0  502  503 -0.00000000000E+00 -0.00000000000E+00 -0.32516624521E+02  0.32516624521E+02  0.00000000000E+00 0. -1.
          6    1    1    2  501    0 -0.19107406900E+00  0.18391569807E+02  0.66821369307E+03  0.69049027941E+03  0.17300000000E+03 0. -1.
         -6    1    1    2    0  503  0.19107406900E+00 -0.18391569807E+02  0.33256985396E+03  0.37532651667E+03  0.17300000000E+03 0. -1.
</event>
<event>
 4    1  0.6104111E+000  0.1000000E+03  0.7546771E-02  0.1280296E+00
         21   -1    0    0  501  502  0.00000000000E+00  0.00000000000E+00  0.20096451505E+03  0.20096451505E+03  0.00000000000E+00 0. -1.
         21   -1    0    0  502  503 -0.00000000000E+00 -0.00000000000E+00 -0.16318177807E+03  0.16318177807E+03  0.00000000000E+00 0. -1.
          6    1    1    2  501    0 -0.50869620730E+02 -0.11244335186E+02  0.31229616664E+02  0.18335332651E+03  0.17300000000E+03 0. -1.
         -6    1    1    2    0  503  0.50869620730E+02  0.11244335186E+02  0.65531203100E+01  0.18079296660E+03  0.17300000000E+03 0. -1.
</event>
<event>
 4    1  0.6104111E+000  0.1000000E+03  0.7546771E-02  0.1280296E+00
         21   -1    0    0  501  502  0.00000000000E+00  0.00000000000E+00  0.14850091581E+04  0.14850091581E+04  0.00000000000E+00 0. -1.
         21   -1    0    0  502  503 -0.00000000000E+00 -0.00000000000E+00 -0.65676860365E+02  0.65676860365E+02  0.00000000000E+00 0. -1.
          6    1    1    2  501    0  0.12708128449E+03 -0.20903675941E+03  0.49102386074E+03  0.57522121959E+03  0.17300000000E+03 0. -1.
         -6    1    1    2    0  503 -0.12708128449E+03  0.20903675941E+03  0.92830843704E+03  0.97546479892E+03  0.17300000000E+03 0. -1.
</event>
<event>
 4    1  0.6104111E+000  0.1000000E+03  0.7546771E-02  0.1280296E+00
         21   -1    0    0  503  502  0.00000000000E+00  0.00000000000E+00  0.27008196743E+03  0.27008196743E+03  0.00000000000E+00 0.  1.
         21   -1    0    0  501  503 -0.00000000000E+00 -0.00000000000E+00 -0.19039555313E+03  0.19039555313E+03  0.00000000000E+00 0. -1.
          6    1    1    2  501    0 -0.63734853301E+02 -0.36845781487E+02 -0.88880833922E+02  0.20796284711E+03  0.17300000000E+03 0. -1.
         -6    1    1    2    0  502  0.63734853301E+02  0.36845781487E+02  0.16856724822E+03  0.25251467346E+03  0.17300000000E+03 0.  1.
</event>
<event>
 4    1  0.6104111E+000  0.1000000E+03  0.7546771E-02  0.1280296E+00
         21   -1    0    0  503  502  0.00000000000E+00  0.00000000000E+00  0.86826303554E+02  0.86826303554E+02  0.00000000000E+00 0.  1.
         21   -1    0    0  501  503 -0.00000000000E+00 -0.00000000000E+00 -0.69126140494E+03  0.69126140494E+03  0.00000000000E+00 0. -1.
          6    1    1    2  501    0  0.13177907724E+03  0.76042166157E+02 -0.43453308330E+03  0.49182937764E+03  0.17300000000E+03 0. -1.
         -6    1    1    2    0  502 -0.13177907724E+03 -0.76042166157E+02 -0.16990201809E+03  0.28625833085E+03  0.17300000000E+03 0.  1.
</event>
<event>
 4    1  0.6104111E+000  0.1000000E+03  0.7546771E-02  0.1280296E+00
         21   -1    0    0  503  502  0.00000000000E+00  0.00000000000E+00  0.15509979368E+03  0.15509979368E+03  0.00000000000E+00 0.  1.
         21   -1    0    0  501  503 -0.00000000000E+00 -0.00000000000E+00 -0.20956763230E+03  0.20956763230E+03  0.00000000000E+00 0. -1.
          6    1    1    2  501    0 -0.26897301640E+02 -0.27553958233E+02 -0.60657467492E+02  0.18732595606E+03  0.17300000000E+03 0. -1.
         -6    1    1    2    0  502  0.26897301640E+02  0.27553958233E+02  0.61896288727E+01  0.17734146993E+03  0.17300000000E+03 0.  1.
</event>
<event>
 4    1  0.6104111E+000  0.1000000E+03  0.7546771E-02  0.1280296E+00
         21   -1    0    0  503  502  0.00000000000E+00  0.00000000000E+00  0.41081881978E+03  0.41081881978E+03  0.00000000000E+00 0.  1.
         21   -1    0    0  501  503 -0.00000000000E+00 -0.00000000000E+00 -0.14260201982E+03  0.14260201982E+03  0.00000000000E+00 0. -1.
          6    1    1    2  501    0 -0.97674840352E+01 -0.28976022293E+02 -0.56231935867E+02  0.18446149794E+03  0.17300000000E+03 0. -1.
         -6    1    1    2    0  502  0.97674840352E+01  0.28976022293E+02  0.32444873583E+03  0.36895934165E+03  0.17300000000E+03 0.  1.
</event>
<event>
 4    1  0.6104111E+000  0.1000000E+03  0.7546771E-02  0.1280296E+00
         21   -1    0    0  501  502  0.00000000000E+00  0.00000000000E+00  0.66178236762E+02  0.66178236762E+02  0.00000000000E+00 0. -1.
         21   -1    0    0  502  503 -0.00000000000E+00 -0.00000000000E+00 -0.27709643490E+04  0.27709643490E+04  0.00000000000E+00 0. -1.
          6    1    1    2  501    0  0.98253667837E+02 -0.40289283987E+02 -0.10332985688E+03  0.22777855248E+03  0.17300000000E+03 0. -1.
         -6    1    1    2    0  503 -0.98253667837E+02  0.40289283987E+02 -0.26014562554E+04  0.26093640333E+04  0.17300000000E+03 0. -1.
</event>
<event>
 4    1  0.6104111E+000  0.1000000E+03  0.7546771E-02  0.1280296E+00
         21   -1    0    0  501  502  0.00000000000E+00  0.00000000000E+00  0.15092344368E+03  0.15092344368E+03  0.00000000000E+00 0. -1.
         21   -1    0    0  502  503 -0.00000000000E+00 -0.00000000000E+00 -0.43750617129E+03  0.43750617129E+03  0.00000000000E+00 0. -1.
          6    1    1    2  501    0 -0.51701686252E+02  0.15786607447E+03 -0.37692008146E+02  0.24278477981E+03  0.17300000000E+03 0. -1.
         -6    1    1    2    0  503  0.51701686252E+02 -0.15786607447E+03 -0.24889071947E+03  0.34564483515E+03  0.17300000000E+03 0. -1.
</event>
<event>
 4    1  0.6104111E+000  0.1000000E+03  0.7546771E-02  0.1280296E+00
         21   -1    0    0  501  502  0.00000000000E+00  0.00000000000E+00  0.21504510195E+03  0.21504510195E+03  0.00000000000E+00 0. -1.
         21   -1    0    0  502  503 -0.00000000000E+00 -0.00000000000E+00 -0.27642398087E+03  0.27642398087E+03  0.00000000000E+00 0. -1.
          6    1    1    2  501    0 -0.16109966299E+03 -0.66210802865E+01  0.29088635104E+02  0.23826894219E+03  0.17300000000E+03 0. -1.
         -6    1    1    2    0  503  0.16109966299E+03  0.66210802865E+01 -0.90467514021E+02  0.25320014063E+03  0.17300000000E+03 0. -1.
</event>
<event>
 4    1  0.6104111E+000  0.1000000E+03  0.7546771E-02  0.1280296E+00
         21   -1    0    0  501  502  0.00000000000E+00  0.00000000000E+00  0.15033173779E+03  0.15033173779E+03  0.00000000000E+00 0. -1.
         21   -1    0    0  502  503 -0.00000000000E+00 -0.00000000000E+00 -0.60715538060E+03  0.60715538060E+03  0.00000000000E+00 0. -1.
          6    1    1    2  501    0 -0.51616889890E+02 -0.13170067996E+02  0.74821907237E+02  0.19587003808E+03  0.17300000000E+03 0. -1.
         -6    1    1    2    0  503  0.51616889890E+02  0.13170067996E+02 -0.53164555005E+03  0.56161708032E+03  0.17300000000E+03 0. -1.
</event>
<event>
 4    1  0.6104111E+000  0.1000000E+03  0.7546771E-02  0.1280296E+00
         21   -1    0    0  503  502  0.00000000000E+00  0.00000000000E+00  0.51605656205E+03  0.51605656205E+03  0.00000000000E+00 0.  1.
         21   -1    0    0  501  503 -0.00000000000E+00 -0.00000000000E+00 -0.44439561507E+03  0.44439561507E+03  0.00000000000E+00 0.  1.
          6    1    1    2  501    0 -0.57370552840E+02 -0.14356525719E+03 -0.38426996830E+03  0.44888169036E+03  0.17300000000E+03 0.  1.
         -6    1    1    2    0  502  0.57370552840E+02  0.14356525719E+03  0.45593091529E+03  0.51157048675E+03  0.17300000000E+03 0.  1.
</event>
<event>
 4    1  0.6104111E+000  0.1000000E+03  0.7546771E-02  0.1280296E+00
         21   -1    0    0  503  502  0.00000000000E+00  0.00000000000E+00  0.30696604594E+03  0.30696604594E+03  0.00000000000E+00 0.  1.
         21   -1    0    0  501  503 -0.00000000000E+00 -0.00000000000E+00 -0.15365378685E+03  0.15365378685E+03  0.00000000000E+00 0.  1.
          6    1    1    2  501    0  0.25742542763E+02 -0.12734168889E+03  0.56565695762E+02  0.22362303587E+03  0.17300000000E+03 0.  1.
         -6    1    1    2    0  502 -0.25742542763E+02  0.12734168889E+03  0.96746563330E+02  0.23699679692E+03  0.17300000000E+03 0.  1.
</event>
<event>
 4    1  0.6104111E+000  0.1000000E+03  0.7546771E-02  0.1280296E+00
         21   -1    0    0  503  502  0.00000000000E+00  0.00000000000E+00  0.30274177758E+03  0.30274177758E+03  0.00000000000E+00 0. -1.
         21   -1    0    0  501  503 -0.00000000000E+00 -0.00000000000E+00 -0.17423236387E+03  0.17423236387E+03  0.00000000000E+00 0. -1.
          6    1    1    2  501    0  0.13152662646E+03  0.17256909778E+00 -0.12888848226E+02  0.21770256235E+03  0.17300000000E+03 0. -1.
         -6    1    1    2    0  502 -0.13152662646E+03 -0.17256909778E+00  0.14139826194E+03  0.25927157910E+03  0.17300000000E+03 0. -1.
</event>
<event>
 4    1  0.6104111E+000  0.1000000E+03  0.7546771E-02  0.1280296E+00
         21   -1    0    0  503  502  0.00000000000E+00  0.00000000000E+00  0.45202800926E+03  0.45202800926E+03  0.00000000000E+00 0. -1.
         21   -1    0    0  501  503 -0.00000000000E+00 -0.00000000000E+00 -0.13784675642E+03  0.13784675642E+03  0.00000000000E+00 0. -1.
          6    1    1    2  501    0 -0.86296967720E+02 -0.13468592122E+03  0.59700298612E+02  0.24306499063E+03  0.17300000000E+03 0. -1.
         -6    1    1    2    0  502  0.86296967720E+02  0.13468592122E+03  0.25448095422E+03  0.34680977506E+03  0.17300000000E+03 0. -1.
</event>
<event>
 4    1  0.6104111E+000  0.1000000E+03  0.7546771E-02  0.1280296E+00
         21   -1    0    0  503  502  0.00000000000E+00  0.00000000000E+00  0.90012977114E+02  0.90012977114E+02  0.00000000000E+00 0.  1.
         21   -1    0    0  501  503 -0.00000000000E+00 -0.00000000000E+00 -0.87907574227E+03  0.87907574227E+03  0.00000000000E+00 0.  1.
          6    1    1    2  501    0  0.44433387728E+02  0.77370947283E+02 -0.74433151834E+03  0.76936272240E+03  0.17300000000E+03 0.  1.
         -6    1    1    2    0  502 -0.44433387728E+02 -0.77370947283E+02 -0.44731246816E+02  0.19972599698E+03  0.17300000000E+03 0.  1.
</event>
<event>
 4    1  0.6104111E+000  0.1000000E+03  0.7546771E-02  0.1280296E+00
         21   -1    0    0  503  502  0.00000000000E+00  0.00000000000E+00  0.25190252489E+02  0.25190252489E+02  0.00000000000E+00 0.  1.
         21   -1    0    0  501  503 -0.00000000000E+00 -0.00000000000E+00 -0.32719168176E+04  0.32719168176E+04  0.00000000000E+00 0.  1.
          6    1    1    2  501    0  0.14591728650E+03  0.33322526674E+02 -0.26194352986E+04  0.26294053565E+04  0.17300000000E+03 0.  1.
         -6    1    1    2    0  502 -0.14591728650E+03 -0.33322526674E+02 -0.62729126658E+03  0.66770171365E+03  0.17300000000E+03 0.  1.
</event>
<event>
 4    1  0.6104111E+000  0.1000000E+03  0.7546771E-02  0.1280296E+00
         21   -1    0    0  503  502  0.00000000000E+00  0.00000000000E+00  0.12695913206E+03  0.12695913206E+03  0.00000000000E+00 0.  1.
         21   -1    0    0  501  503 -0.00000000000E+00 -0.00000000000E+00 -0.16091504372E+04  0.16091504372E+04  0.00000000000E+00 0.  1.
          6    1    1    2  501    0  0.69932002188E+02  0.17851208949E+02 -0.15309797252E+04  0.15424127430E+04  0.17300000000E+03 0.  1.
         -6    1    1    2    0  502 -0.69932002188E+02 -0.17851208949E+02  0.48788420068E+02  0.19369682631E+03  0.17300000000E+03 0.  1.
</event>
<event>
 4    1  0.6104111E+000  0.1000000E+03  0.7546771E-02  0.1280296E+00
         21   -1    0    0  501  502  0.00000000000E+00  0.00000000000E+00  0.52487765753E+02  0.52487765753E+02  0.00000000000E+00 0. -1.
         21   -1    0    0  502  503 -0.00000000000E+00 -0.00000000000E+00 -0.84652754019E+03  0.84652754019E+03  0.00000000000E+00 0. -1.
          6    1    1    2  501    0  0.95977427680E+02  0.61613457080E+02 -0.31455404377E+03  0.37667111804E+03  0.17300000000E+03 0. -1.
         -6    1    1    2    0  503 -0.95977427680E+02 -0.61613457080E+02 -0.47948573067E+03  0.52234418790E+03  0.17300000000E+03 0. -1.
</event>
<event>
 4    1  0.6104111E+000  0.1000000E+03  0.7546771E-02  0.1280296E+00
         21   -1    0    0  501  502  0.00000000000E+00  0.00000000000E+00  0.84815901422E+03  0.84815901422E+03  0.00000000000E+00 0. -1.
         21   -1    0    0  502  503 -0.00000000000E+00 -0.00000000000E+00 -0.73820675937E+02  0.73820675937E+02  0.00000000000E+00 0.  1.
          6    1    1    2  501    0  0.51178410118E+02  0.50013601303E+02  0.69302707954E+03  0.71786915448E+03  0.17300000000E+03 0. -1.
         -6    1    1    2    0  503 -0.51178410118E+02 -0.50013601303E+02  0.81311258747E+02  0.20411053568E+03  0.17300000000E+03 0. -1.
</event>
<event>
 4    1  0.6104111E+000  0.1000000E+03  0.7546771E-02  0.1280296E+00
         21   -1    0    0  503  502  0.00000000000E+00  0.00000000000E+00  0.81328140287E+02  0.81328140287E+02  0.00000000000E+00 0. -1.
         21   -1    0    0  501  503 -0.00000000000E+00 -0.00000000000E+00 -0.42997533896E+03  0.42997533896E+03  0.00000000000E+00 0. -1.
          6    1    1    2  501    0 -0.45723326196E+02 -0.13381017376E+02 -0.24628165235E+03  0.30471843802E+03  0.17300000000E+03 0. -1.
         -6    1    1    2    0  502  0.45723326196E+02  0.13381017376E+02 -0.10236554632E+03  0.20658504123E+03  0.17300000000E+03 0. -1.
</event>
<event>
 4    1  0.6104111E+000  0.1000000E+03  0.7546771E-02  0.1280296E+00
         21   -1    0    0  501  502  0.00000000000E+00  0.00000000000E+00  0.54313562773E+02  0.54313562773E+02  0.00000000000E+00 0.  1.
         21   -1    0    0  502  503 -0.00000000000E+00 -0.00000000000E+00 -0.71663006751E+03  0.71663006751E+03  0.00000000000E+00 0.  1.
          6    1    1    2  501    0  0.53952711776E+02 -0.77459435743E+02 -0.31337148018E+03  0.37019122611E+03  0.17300000000E+03 0.  1.
         -6    1    1    2    0  503 -0.53952711776E+02  0.77459435743E+02 -0.34894502456E+03  0.40075240418E+03  0.17300000000E+03 0.  1.
</event>
<event>
 4    1  0.6104111E+000  0.1000000E+03  0.7546771E-02  0.1280296E+00
         21   -1    0    0  501  502  0.00000000000E+00  0.00000000000E+00  0.76035331877E+03  0.76035331877E+03  0.00000000000E+00 0.  1.
         21   -1    0    0  502  503 -0.00000000000E+00 -0.00000000000E+00 -0.68402427979E+02  0.68402427979E+02  0.00000000000E+00 0.  1.
          6    1    1    2  501    0 -0.73552449174E+02 -0.22221396926E+02  0.57707843119E+03  0.60733209120E+03  0.17300000000E+03 0.  1.
         -6    1    1    2    0  503  0.73552449174E+02  0.22221396926E+02  0.11487245960E+03  0.22142365555E+03  0.17300000000E+03 0.  1.
</event>
<event>
 4    1  0.6104111E+000  0.1000000E+03  0.7546771E-02  0.1280296E+00
         21   -1    0    0  501  502  0.00000000000E+00  0.00000000000E+00  0.40863972296E+02  0.40863972296E+02  0.00000000000E+00 0.  1.
         21   -1    0    0  502  503 -0.00000000000E+00 -0.00000000000E+00 -0.11561453612E+04  0.11561453612E+04  0.00000000000E+00 0.  1.
          6    1    1    2  501    0 -0.78418689965E+02  0.37168891573E+02 -0.28526758859E+03  0.34472831989E+03  0.17300000000E+03 0.  1.
         -6    1    1    2    0  503  0.78418689965E+02 -0.37168891573E+02 -0.83001380031E+03  0.85228101360E+03  0.17300000000E+03 0.  1.
</event>
<event>
 4    1  0.6104111E+000  0.1000000E+03  0.7546771E-02  0.1280296E+00
         21   -1    0    0  503  502  0.00000000000E+00  0.00000000000E+00  0.78836519603E+02  0.78836519603E+02  0.00000000000E+00 0.  1.
         21   -1    0    0  501  503 -0.00000000000E+00 -0.00000000000E+00 -0.58849710298E+03  0.58849710298E+03  0.00000000000E+00 0.  1.
          6    1    1    2  501    0  0.18356913269E+01  0.87721079858E+02 -0.39988108508E+03  0.44444599202E+03  0.17300000000E+03 0.  1.
         -6    1    1    2    0  502 -0.18356913269E+01 -0.87721079858E+02 -0.10977949830E+03  0.22288763057E+03  0.17300000000E+03 0.  1.
</event>
<event>
 4    1  0.6104111E+000  0.1000000E+03  0.7546771E-02  0.1280296E+00
         21   -1    0    0  503  502  0.00000000000E+00  0.00000000000E+00  0.26411177524E+03  0.26411177524E+03  0.00000000000E+00 0.  1.
         21   -1    0    0  501  503 -0.00000000000E+00 -0.00000000000E+00 -0.14058187194E+03  0.14058187194E+03  0.00000000000E+00 0.  1.
          6    1    1    2  501    0 -0.23579533109E+02  0.76731243821E+02  0.90650808398E+02  0.21116402919E+03  0.17300000000E+03 0. -1.
         -6    1    1    2    0  502  0.23579533109E+02 -0.76731243821E+02  0.32879094905E+02  0.19352961800E+03  0.17300000000E+03 0. -1.
</event>
<event>
 4    1  0.6104111E+000  0.1000000E+03  0.7546771E-02  0.1280296E+00
         21   -1    0    0  503  502  0.00000000000E+00  0.00000000000E+00  0.11791118031E+04  0.11791118031E+04  0.00000000000E+00 0.  1.
         21   -1    0    0  501  503 -0.00000000000E+00 -0.00000000000E+00 -0.31433623985E+02  0.31433623985E+02  0.00000000000E+00 0.  1.
          6    1    1    2  501    0 -0.75106046013E+02  0.38210370162E+02  0.55555907204E+03  0.58794203206E+03  0.17300000000E+03 0. -1.
         -6    1    1    2    0  502  0.75106046013E+02 -0.38210370162E+02  0.59211910710E+03  0.62260339505E+03  0.17300000000E+03 0. -1.
</event>
<event>
 4    1  0.6104111E+000  0.1000000E+03  0.7546771E-02  0.1280296E+00
         21   -1    0    0  503  502  0.00000000000E+00  0.00000000000E+00  0.12465432307E+04  0.12465432307E+04  0.00000000000E+00 0. -1.
         21   -1    0    0  501  503 -0.00000000000E+00 -0.00000000000E+00 -0.26747367507E+02  0.26747367507E+02  0.00000000000E+00 0. -1.
          6    1    1    2  501    0 -0.29413494633E+02 -0.42733706265E+02  0.51624973602E+03  0.54693154349E+03  0.17300000000E+03 0. -1.
         -6    1    1    2    0  502  0.29413494633E+02  0.42733706265E+02  0.70354612715E+03  0.72635905470E+03  0.17300000000E+03 0. -1.
</event>
<event>
 4    1  0.6104111E+000  0.1000000E+03  0.7546771E-02  0.1280296E+00
         21   -1    0    0  503  502  0.00000000000E+00  0.00000000000E+00  0.12132885021E+03  0.12132885021E+03  0.00000000000E+00 0. -1.
         21   -1    0    0  501  503 -0.00000000000E+00 -0.00000000000E+00 -0.32179104150E+03  0.32179104150E+03  0.00000000000E+00 0. -1.
          6    1    1    2  501    0  0.52121519469E+02 -0.11394503465E+02 -0.18899855698E+03  0.26171729412E+03  0.17300000000E+03 0. -1.
         -6    1    1    2    0  502 -0.52121519469E+02  0.11394503465E+02 -0.11463634318E+02  0.18140259759E+03  0.17300000000E+03 0. -1.
</event>
<event>
 4    1  0.6104111E+000  0.1000000E+03  0.7546771E-02  0.1280296E+00
         21   -1    0    0  503  502  0.00000000000E+00  0.00000000000E+00  0.16599965389E+03  0.16599965389E+03  0.00000000000E+00 0.  1.
         21   -1    0    0  501  503 -0.00000000000E+00 -0.00000000000E+00 -0.98209494738E+03  0.98209494738E+03  0.00000000000E+00 0. -1.
          6    1    1    2  501    0  0.28366105155E+03 -0.13209682858E+03 -0.67473210923E+03  0.76361350401E+03  0.17300000000E+03 0.  1.
         -6    1    1    2    0  502 -0.28366105155E+03  0.13209682858E+03 -0.14136318426E+03  0.38448109726E+03  0.17300000000E+03 0. -1.
</event>
<event>
 4    1  0.6104111E+000  0.1000000E+03  0.7546771E-02  0.1280296E+00
         21   -1    0    0  503  502  0.00000000000E+00  0.00000000000E+00  0.66509870883E+03  0.66509870883E+03  0.00000000000E+00 0.  1.
         21   -1    0    0  501  503 -0.00000000000E+00 -0.00000000000E+00 -0.18709826648E+03  0.18709826648E+03  0.00000000000E+00 0. -1.
          6    1    1    2  501    0  0.13207658257E+03 -0.34237038633E+02 -0.93762074623E+02  0.23945088247E+03  0.17300000000E+03 0. -1.
         -6    1    1    2    0  502 -0.13207658257E+03  0.34237038633E+02  0.57176251697E+03  0.61274609284E+03  0.17300000000E+03 0.  1.
</event>
<event>
 4    1  0.6104111E+000  0.1000000E+03  0.7546771E-02  0.1280296E+00
         21   -1    0    0  501  502  0.00000000000E+00  0.00000000000E+00  0.11657900038E+04  0.11657900038E+04  0.00000000000E+00 0. -1.
         21   -1    0    0  502  503 -0.00000000000E+00 -0.00000000000E+00 -0.74695851594E+02  0.74695851594E+02  0.00000000000E+00 0. -1.
          6    1    1    2  501    0 -0.45337545392E+02 -0.23510475254E+02  0.10364218382E+04  0.10520016455E+04  0.17300000000E+03 0. -1.
         -6    1    1    2    0  503  0.45337545392E+02  0.23510475254E+02  0.54672314059E+02  0.18848420993E+03  0.17300000000E+03 0. -1.
</event>
<event>
 4    1  0.6104111E+000  0.1000000E+03  0.7546771E-02  0.1280296E+00
         21   -1    0    0  501  502  0.00000000000E+00  0.00000000000E+00  0.13359932860E+03  0.13359932860E+03  0.00000000000E+00 0. -1.
         21   -1    0    0  502  503 -0.00000000000E+00 -0.00000000000E+00 -0.45153413776E+03  0.45153413776E+03  0.00000000000E+00 0. -1.
          6    1    1    2  501    0 -0.36143711098E+02 -0.83085276805E+02  0.18459000250E+02  0.19616132586E+03  0.17300000000E+03 0. -1.
         -6    1    1    2    0  503  0.36143711098E+02  0.83085276805E+02 -0.33639380941E+03  0.38897214049E+03  0.17300000000E+03 0. -1.
</event>
<event>
 4    1  0.6104111E+000  0.1000000E+03  0.7546771E-02  0.1280296E+00
         21   -1    0    0  501  502  0.00000000000E+00  0.00000000000E+00  0.17667642410E+03  0.17667642410E+03  0.00000000000E+00 0. -1.
         21   -1    0    0  502  503 -0.00000000000E+00 -0.00000000000E+00 -0.87807579922E+03  0.87807579922E+03  0.00000000000E+00 0.  1.
          6    1    1    2  501    0 -0.14986276292E+02 -0.30058210857E+03 -0.10152463301E+03  0.36167726440E+03  0.17300000000E+03 0. -1.
         -6    1    1    2    0  503  0.14986276292E+02  0.30058210857E+03 -0.59987474211E+03  0.69307495893E+03  0.17300000000E+03 0.  1.
</event>
<event>
 4    1  0.6104111E+000  0.1000000E+03  0.7546771E-02  0.1280296E+00
         21   -1    0    0  501  502  0.00000000000E+00  0.00000000000E+00  0.57509688790E+03  0.57509688790E+03  0.00000000000E+00 0. -1.
         21   -1    0    0  502  503 -0.00000000000E+00 -0.00000000000E+00 -0.74676418609E+03  0.74676418609E+03  0.00000000000E+00 0.  1.
          6    1    1    2  501    0 -0.22054834908E+03  0.10030642844E+03  0.50295896290E+03  0.58446528745E+03  0.17300000000E+03 0. -1.
         -6    1    1    2    0  503  0.22054834908E+03 -0.10030642844E+03 -0.67462626108E+03  0.73739578654E+03  0.17300000000E+03 0.  1.
</event>
<event>
 4    1  0.6104111E+000  0.1000000E+03  0.7546771E-02  0.1280296E+00
         21   -1    0    0  503  502  0.00000000000E+00  0.00000000000E+00  0.56865758723E+03  0.56865758723E+03  0.00000000000E+00 0. -1.
         21   -1    0    0  501  503 -0.00000000000E+00 -0.00000000000E+00 -0.54925322557E+02  0.54925322557E+02  0.00000000000E+00 0. -1.
          6    1    1    2  501    0 -0.29504652009E+02  0.10792437858E+02  0.22542043542E+03  0.28588524605E+03  0.17300000000E+03 0. -1.
         -6    1    1    2    0  502  0.29504652009E+02 -0.10792437858E+02  0.28831182925E+03  0.33769766373E+03  0.17300000000E+03 0. -1.
</event>
<event>
 4    1  0.6104111E+000  0.1000000E+03  0.7546771E-02  0.1280296E+00
         21   -1    0    0  503  502  0.00000000000E+00  0.00000000000E+00  0.49834638335E+03  0.49834638335E+03  0.00000000000E+00 0.  1.
         21   -1    0    0  501  503 -0.00000000000E+00 -0.00000000000E+00 -0.34665026029E+03  0.34665026029E+03  0.00000000000E+00 0. -1.
          6    1    1    2  501    0 -0.87222208705E+02  0.34920614141E+03 -0.41250967383E+02  0.40147638187E+03  0.17300000000E+03 0. -1.
         -6    1    1    2    0  502  0.87222208705E+02 -0.34920614141E+03  0.19294709045E+03  0.44352026177E+03  0.17300000000E+03 0.  1.
</event>
<event>
 4    1  0.6104111E+000  0.1000000E+03  0.7546771E-02  0.1280296E+00
         21   -1    0    0  503  502  0.00000000000E+00  0.00000000000E+00  0.91194164820E+03  0.91194164820E+03  0.00000000000E+00 0.  1.
         21   -1    0    0  501  503 -0.00000000000E+00 -0.00000000000E+00 -0.16069238751E+04  0.16069238751E+04  0.00000000000E+00 0. -1.
          6    1    1    2  501    0 -0.16146003877E+03  0.26458691760E+03 -0.15515607020E+04  0.15916485771E+04  0.17300000000E+03 0. -1.
         -6    1    1    2    0  502  0.16146003877E+03 -0.26458691760E+03  0.85657847515E+03  0.92721694612E+03  0.17300000000E+03 0.  1.
</event>
<event>
 4    1  0.6104111E+000  0.1000000E+03  0.7546771E-02  0.1280296E+00
         21   -1    0    0  503  502  0.00000000000E+00  0.00000000000E+00  0.62140544839E+03  0.62140544839E+03  0.00000000000E+00 0.  1.
         21   -1    0    0  501  503 -0.00000000000E+00 -0.00000000000E+00 -0.34909710040E+03  0.34909710040E+03  0.00000000000E+00 0. -1.
          6    1    1    2  501    0  0.38459101177E+03  0.25273957683E+02 -0.68146659393E+02  0.42792754814E+03  0.17300000000E+03 0. -1.
         -6    1    1    2    0  502 -0.38459101177E+03 -0.25273957683E+02  0.34045500738E+03  0.54257500064E+03  0.17300000000E+03 0.  1.
</event>
<event>
 4    1  0.6104111E+000  0.1000000E+03  0.7546771E-02  0.1280296E+00
         21   -1    0    0  503  502  0.00000000000E+00  0.00000000000E+00  0.50019533617E+03  0.50019533617E+03  0.00000000000E+00 0.  1.
         21   -1    0    0  501  503 -0.00000000000E+00 -0.00000000000E+00 -0.62717964035E+02  0.62717964035E+02  0.00000000000E+00 0. -1.
          6    1    1    2  501    0  0.34321801244E+02  0.80212465914E+01  0.19627094767E+03  0.26399547598E+03  0.17300000000E+03 0. -1.
         -6    1    1    2    0  502 -0.34321801244E+02 -0.80212465914E+01  0.24120642446E+03  0.29891782422E+03  0.17300000000E+03 0.  1.
</event>
<event>
 4    1  0.6104111E+000  0.1000000E+03  0.7546771E-02  0.1280296E+00
         21   -1    0    0  503  502  0.00000000000E+00  0.00000000000E+00  0.37798101937E+03  0.37798101937E+03  0.00000000000E+00 0.  1.
         21   -1    0    0  501  503 -0.00000000000E+00 -0.00000000000E+00 -0.23590258957E+03  0.23590258957E+03  0.00000000000E+00 0. -1.
          6    1    1    2  501    0  0.10876150399E+03 -0.10408751462E+03 -0.12554264982E+03  0.26144451108E+03  0.17300000000E+03 0. -1.
         -6    1    1    2    0  502 -0.10876150399E+03  0.10408751462E+03  0.26762107962E+03  0.35243909786E+03  0.17300000000E+03 0.  1.
</event>
<event>
 4    1  0.6104111E+000  0.1000000E+03  0.7546771E-02  0.1280296E+00
         21   -1    0    0  503  502  0.00000000000E+00  0.00000000000E+00  0.43210348994E+03  0.43210348994E+03  0.00000000000E+00 0.  1.
         21   -1    0    0  501  503 -0.00000000000E+00 -0.00000000000E+00 -0.11409511097E+03  0.11409511097E+03  0.00000000000E+00 0. -1.
          6    1    1    2  501    0  0.10549886907E+03 -0.60788658399E+02  0.76069223987E+02  0.22481280925E+03  0.17300000000E+03 0. -1.
         -6    1    1    2    0  502 -0.10549886907E+03  0.60788658399E+02  0.24193915498E+03  0.32138579166E+03  0.17300000000E+03 0.  1.
</event>
<event>
 4    1  0.6104111E+000  0.1000000E+03  0.7546771E-02  0.1280296E+00
         21   -1    0    0  503  502  0.00000000000E+00  0.00000000000E+00  0.27109871942E+03  0.27109871942E+03  0.00000000000E+00 0. -1.
         21   -1    0    0  501  503 -0.00000000000E+00 -0.00000000000E+00 -0.39171668283E+03  0.39171668283E+03  0.00000000000E+00 0. -1.
          6    1    1    2  501    0  0.14614626751E+03  0.18732855121E+03 -0.20346209899E+03  0.35745844980E+03  0.17300000000E+03 0. -1.
         -6    1    1    2    0  502 -0.14614626751E+03 -0.18732855121E+03  0.82844135578E+02  0.30535695244E+03  0.17300000000E+03 0. -1.
</event>
<event>
 4    1  0.6104111E+000  0.1000000E+03  0.7546771E-02  0.1280296E+00
         21   -1    0    0  503  502  0.00000000000E+00  0.00000000000E+00  0.72341753774E+02  0.72341753774E+02  0.00000000000E+00 0. -1.
         21   -1    0    0  501  503 -0.00000000000E+00 -0.00000000000E+00 -0.11867348245E+04  0.11867348245E+04  0.00000000000E+00 0. -1.
          6    1    1    2  501    0  0.71841550103E+02  0.29723767957E+02 -0.10370403934E+04  0.10542421393E+04  0.17300000000E+03 0. -1.
         -6    1    1    2    0  502 -0.71841550103E+02 -0.29723767957E+02 -0.77352677312E+02  0.20483443897E+03  0.17300000000E+03 0. -1.
</event>
<event>
 4    1  0.6104111E+000  0.1000000E+03  0.7546771E-02  0.1280296E+00
         21   -1    0    0  503  502  0.00000000000E+00  0.00000000000E+00  0.13808526642E+04  0.13808526642E+04  0.00000000000E+00 0. -1.
         21   -1    0    0  501  503 -0.00000000000E+00 -0.00000000000E+00 -0.27211708265E+02  0.27211708265E+02  0.00000000000E+00 0. -1.
          6    1    1    2  501    0 -0.45100318254E+02 -0.16741900676E+02  0.41161210666E+03  0.44907444405E+03  0.17300000000E+03 0. -1.
         -6    1    1    2    0  502  0.45100318254E+02  0.16741900676E+02  0.94202884927E+03  0.95898992841E+03  0.17300000000E+03 0. -1.
</event>
<event>
 4    1  0.6104111E+000  0.1000000E+03  0.7546771E-02  0.1280296E+00
         21   -1    0    0  503  502  0.00000000000E+00  0.00000000000E+00  0.22025774100E+03  0.22025774100E+03  0.00000000000E+00 0.  1.
         21   -1    0    0  501  503 -0.00000000000E+00 -0.00000000000E+00 -0.27593586304E+03  0.27593586304E+03  0.00000000000E+00 0. -1.
          6    1    1    2  501    0 -0.99564927922E+01 -0.25267538277E+02 -0.20246549180E+03  0.26769171748E+03  0.17300000000E+03 0.  1.
         -6    1    1    2    0  502  0.99564927922E+01  0.25267538277E+02  0.14678736976E+03  0.22850188656E+03  0.17300000000E+03 0. -1.
</event>
<event>
 4    1  0.6104111E+000  0.1000000E+03  0.7546771E-02  0.1280296E+00
         21   -1    0    0  503  502  0.00000000000E+00  0.00000000000E+00  0.11618944396E+04  0.11618944396E+04  0.00000000000E+00 0.  1.
         21   -1    0    0  501  503 -0.00000000000E+00 -0.00000000000E+00 -0.30299085578E+02  0.30299085578E+02  0.00000000000E+00 0. -1.
          6    1    1    2  501    0  0.42963993342E+02 -0.32054566549E+02  0.41009371587E+03  0.44830709983E+03  0.17300000000E+03 0.  1.
         -6    1    1    2    0  502 -0.42963993342E+02  0.32054566549E+02  0.72150163811E+03  0.74388642531E+03  0.17300000000E+03 0. -1.
</event>
<event>
 4    1  0.6104111E+000  0.1000000E+03  0.7546771E-02  0.1280296E+00
         21   -1    0    0  503  502  0.00000000000E+00  0.00000000000E+00  0.75181607861E+02  0.75181607861E+02  0.00000000000E+00 0.  1.
         21   -1    0    0  501  503 -0.00000000000E+00 -0.00000000000E+00 -0.61387136324E+03  0.61387136324E+03  0.00000000000E+00 0. -1.
          6    1    1    2  501    0  0.12411699143E+03 -0.14057019601E+02 -0.30928386655E+03  0.37575009976E+03  0.17300000000E+03 0.  1.
         -6    1    1    2    0  502 -0.12411699143E+03  0.14057019601E+02 -0.22940588883E+03  0.31330287134E+03  0.17300000000E+03 0. -1.
</event>
<event>
 4    1  0.6104111E+000  0.1000000E+03  0.7546771E-02  0.1280296E+00
         21   -1    0    0  503  502  0.00000000000E+00  0.00000000000E+00  0.13253950250E+03  0.13253950250E+03  0.00000000000E+00 0.  1.
         21   -1    0    0  501  503 -0.00000000000E+00 -0.00000000000E+00 -0.29264139068E+03  0.29264139068E+03  0.00000000000E+00 0. -1.
          6    1    1    2  501    0  0.83199444558E+02 -0.43217762672E+02 -0.88927538874E+02  0.21593292884E+03  0.17300000000E+03 0.  1.
         -6    1    1    2    0  502 -0.83199444558E+02  0.43217762672E+02 -0.71174349297E+02  0.20924796435E+03  0.17300000000E+03 0. -1.
</event>
<event>
 4    1  0.6104111E+000  0.1000000E+03  0.7546771E-02  0.1280296E+00
         21   -1    0    0  503  502  0.00000000000E+00  0.00000000000E+00  0.14911131686E+03  0.14911131686E+03  0.00000000000E+00 0.  1.
         21   -1    0    0  501  503 -0.00000000000E+00 -0.00000000000E+00 -0.21371014101E+03  0.21371014101E+03  0.00000000000E+00 0. -1.
          6    1    1    2  501    0 -0.18778692141E+02  0.35828339846E+02 -0.49938999487E+02  0.18455138278E+03  0.17300000000E+03 0.  1.
         -6    1    1    2    0  502  0.18778692141E+02 -0.35828339846E+02 -0.14659824670E+02  0.17827007509E+03  0.17300000000E+03 0. -1.
</event>
<event>
 4    1  0.6104111E+000  0.1000000E+03  0.7546771E-02  0.1280296E+00
         21   -1    0    0  501  502  0.00000000000E+00  0.00000000000E+00  0.14921427285E+03  0.14921427285E+03  0.00000000000E+00 0.  1.
         21   -1    0    0  502  503 -0.00000000000E+00 -0.00000000000E+00 -0.15061179939E+04  0.15061179939E+04  0.00000000000E+00 0. -1.
          6    1    1    2  501    0 -0.65423124786E+02  0.13826275381E+03  0.44379047073E+02  0.23514947197E+03  0.17300000000E+03 0.  1.
         -6    1    1    2    0  503  0.65423124786E+02 -0.13826275381E+03 -0.14012827682E+04  0.14201827948E+04  0.17300000000E+03 0.  1.
</event>
<event>
 4    1  0.6104111E+000  0.1000000E+03  0.7546771E-02  0.1280296E+00
         21   -1    0    0  501  502  0.00000000000E+00  0.00000000000E+00  0.26756537753E+03  0.26756537753E+03  0.00000000000E+00 0. -1.
         21   -1    0    0  502  503 -0.00000000000E+00 -0.00000000000E+00 -0.11381192924E+03  0.11381192924E+03  0.00000000000E+00 0. -1.
          6    1    1    2  501    0 -0.16363120460E+02  0.11667114458E+02  0.88810029430E+02  0.19549960255E+03  0.17300000000E+03 0. -1.
         -6    1    1    2    0  503  0.16363120460E+02 -0.11667114458E+02  0.64943418861E+02  0.18587770422E+03  0.17300000000E+03 0. -1.
</event>
<event>
 4    1  0.6104111E+000  0.1000000E+03  0.7546771E-02  0.1280296E+00
         21   -1    0    0  501  502  0.00000000000E+00  0.00000000000E+00  0.12413354382E+04  0.12413354382E+04  0.00000000000E+00 0. -1.
         21   -1    0    0  502  503 -0.00000000000E+00 -0.00000000000E+00 -0.45116509292E+02  0.45116509292E+02  0.00000000000E+00 0. -1.
          6    1    1    2  501    0 -0.60640728182E+02 -0.67984314154E+02  0.96049852164E+03  0.98019670218E+03  0.17300000000E+03 0. -1.
         -6    1    1    2    0  503  0.60640728182E+02  0.67984314154E+02  0.23572040730E+03  0.30625524535E+03  0.17300000000E+03 0. -1.
</event>
<event>
 4    1  0.6104111E+000  0.1000000E+03  0.7546771E-02  0.1280296E+00
         21   -1    0    0  501  502  0.00000000000E+00  0.00000000000E+00  0.91569000141E+02  0.91569000141E+02  0.00000000000E+00 0. -1.
         21   -1    0    0  502  503 -0.00000000000E+00 -0.00000000000E+00 -0.61647567716E+03  0.61647567716E+03  0.00000000000E+00 0. -1.
          6    1    1    2  501    0  0.39252495391E+01  0.15052564930E+03 -0.35488017362E+03  0.42254267987E+03  0.17300000000E+03 0. -1.
         -6    1    1    2    0  503 -0.39252495391E+01 -0.15052564930E+03 -0.17002650340E+03  0.28550199744E+03  0.17300000000E+03 0. -1.
</event>
<event>
 4    1  0.6104111E+000  0.1000000E+03  0.7546771E-02  0.1280296E+00
         21   -1    0    0  501  502  0.00000000000E+00  0.00000000000E+00  0.20387497748E+03  0.20387497748E+03  0.00000000000E+00 0. -1.
         21   -1    0    0  502  503 -0.00000000000E+00 -0.00000000000E+00 -0.36987435302E+03  0.36987435302E+03  0.00000000000E+00 0. -1.
          6    1    1    2  501    0 -0.75246120201E+02  0.39415784950E+02  0.12135081591E+03  0.22775118711E+03  0.17300000000E+03 0. -1.
         -6    1    1    2    0  503  0.75246120201E+02 -0.39415784950E+02 -0.28735019145E+03  0.34599814339E+03  0.17300000000E+03 0. -1.
</event>
<event>
 4    1  0.6104111E+000  0.1000000E+03  0.7546771E-02  0.1280296E+00
         21   -1    0    0  501  502  0.00000000000E+00  0.00000000000E+00  0.25435593558E+03  0.25435593558E+03  0.00000000000E+00 0. -1.
         21   -1    0    0  502  503 -0.00000000000E+00 -0.00000000000E+00 -0.97819220931E+03  0.97819220931E+03  0.00000000000E+00 0. -1.
          6    1    1    2  501    0 -0.10586601434E+03 -0.44695285249E+02  0.19839564992E+03  0.28721962924E+03  0.17300000000E+03 0. -1.
         -6    1    1    2    0  503  0.10586601434E+03  0.44695285249E+02 -0.92223192364E+03  0.94532851565E+03  0.17300000000E+03 0. -1.
</event>
<event>
 4    1  0.6104111E+000  0.1000000E+03  0.7546771E-02  0.1280296E+00
         21   -1    0    0  503  502  0.00000000000E+00  0.00000000000E+00  0.71675548401E+02  0.71675548401E+02  0.00000000000E+00 0.  1.
         21   -1    0    0  501  503 -0.00000000000E+00 -0.00000000000E+00 -0.11113037272E+04  0.11113037272E+04  0.00000000000E+00 0.  1.
          6    1    1    2  501    0 -0.69815030951E+02 -0.60507091801E+02 -0.94515403338E+03  0.96528772577E+03  0.17300000000E+03 0.  1.
         -6    1    1    2    0  502  0.69815030951E+02  0.60507091801E+02 -0.94474145375E+02  0.21769154979E+03  0.17300000000E+03 0.  1.
</event>
<event>
 4    1  0.6104111E+000  0.1000000E+03  0.7546771E-02  0.1280296E+00
         21   -1    0    0  503  502  0.00000000000E+00  0.00000000000E+00  0.90778809575E+02  0.90778809575E+02  0.00000000000E+00 0.  1.
         21   -1    0    0  501  503 -0.00000000000E+00 -0.00000000000E+00 -0.50033693179E+03  0.50033693179E+03  0.00000000000E+00 0.  1.
          6    1    1    2  501    0 -0.60369911829E+02  0.18596014687E+02 -0.35350278720E+03  0.39860200523E+03  0.17300000000E+03 0.  1.
         -6    1    1    2    0  502  0.60369911829E+02 -0.18596014687E+02 -0.56055335014E+02  0.19251373613E+03  0.17300000000E+03 0.  1.
</event>
<event>
 4    1  0.6104111E+000  0.1000000E+03  0.7546771E-02  0.1280296E+00
         21   -1    0    0  503  502  0.00000000000E+00  0.00000000000E+00  0.32137617036E+03  0.32137617036E+03  0.00000000000E+00 0.  1.
         21   -1    0    0  501  503 -0.00000000000E+00 -0.00000000000E+00 -0.24458211271E+03  0.24458211271E+03  0.00000000000E+00 0.  1.
          6    1    1    2  501    0  0.53813812290E+02 -0.42962121118E+02 -0.17315962144E+03  0.25427332684E+03  0.17300000000E+03 0.  1.
         -6    1    1    2    0  502 -0.53813812290E+02  0.42962121118E+02  0.24995367909E+03  0.31168495622E+03  0.17300000000E+03 0.  1.
</event>
<event>
 4    1  0.6104111E+000  0.1000000E+03  0.7546771E-02  0.1280296E+00
         21   -1    0    0  503  502  0.00000000000E+00  0.00000000000E+00  0.10904428623E+03  0.10904428623E+03  0.00000000000E+00 0.  1.
         21   -1    0    0  501  503 -0.00000000000E+00 -0.00000000000E+00 -0.99086220397E+03  0.99086220397E+03  0.00000000000E+00 0.  1.
          6    1    1    2  501    0  0.21374745965E+03  0.99549281616E+02 -0.69198763864E+03  0.75124824659E+03  0.17300000000E+03 0.  1.
         -6    1    1    2    0  502 -0.21374745965E+03 -0.99549281616E+02 -0.18983027911E+03  0.34865824362E+03  0.17300000000E+03 0.  1.
</event>
