<event>
 4    1  0.5929306E+000  0.1000000E+03  0.7546771E-02  0.1280296E+00
         21   -1    0    0  503  502  0.00000000000E+00  0.00000000000E+00  0.11541889954E+04  0.11541889954E+04  0.00000000000E+00 0.  1.
         21   -1    0    0  501  503 -0.00000000000E+00 -0.00000000000E+00 -0.65993422983E+02  0.65993422983E+02  0.00000000000E+00 0. -1.
          6    1    1    2  501    0 -0.71786249916E+01 -0.10014614098E+03  0.96445139812E+03  0.98497526951E+03  0.17300000000E+03 0. -1.
         -6    1    1    2    0  502  0.71786249916E+01  0.10014614098E+03  0.12374417431E+03  0.23520714888E+03  0.17300000000E+03 0.  1.
</event>
<event>
 4    1  0.5929306E+000  0.1000000E+03  0.7546771E-02  0.1280296E+00
         21   -1    0    0  501  502  0.00000000000E+00  0.00000000000E+00  0.12965899336E+03  0.12965899336E+03  0.00000000000E+00 0.  1.
         21   -1    0    0  502  503 -0.00000000000E+00 -0.00000000000E+00 -0.26420214004E+03  0.26420214004E+03  0.00000000000E+00 0.  1.
          6    1    1    2  501    0  0.17478917848E+01  0.56827601710E+02 -0.32066801711E+02  0.18490460030E+03  0.17300000000E+03 0.  1.
         -6    1    1    2    0  503 -0.17478917848E+01 -0.56827601710E+02 -0.10247634497E+03  0.20895653309E+03  0.17300000000E+03 0.  1.
</event>
<event>
 4    1  0.5929306E+000  0.1000000E+03  0.7546771E-02  0.1280296E+00
         21   -1    0    0  501  502  0.00000000000E+00  0.00000000000E+00  0.18666858621E+03  0.18666858621E+03  0.00000000000E+00 0.  1.
         21   -1    0    0  502  503 -0.00000000000E+00 -0.00000000000E+00 -0.30666436996E+03  0.30666436996E+03  0.00000000000E+00 0.  1.
          6    1    1    2  501    0 -0.54638743391E+02  0.12090072441E+03  0.41609340422E+02  0.22195205485E+03  0.17300000000E+03 0.  1.
         -6    1    1    2    0  503  0.54638743391E+02 -0.12090072441E+03 -0.16160512417E+03  0.27138090132E+03  0.17300000000E+03 0.  1.
</event>
<event>
 4    1  0.5929306E+000  0.1000000E+03  0.7546771E-02  0.1280296E+00
         21   -1    0    0  501  502  0.00000000000E+00  0.00000000000E+00  0.21776813540E+03  0.21776813540E+03  0.00000000000E+00 0.  1.
         21   -1    0    0  502  503 -0.00000000000E+00 -0.00000000000E+00 -0.16185864102E+03  0.16185864102E+03  0.00000000000E+00 0.  1.
          6    1    1    2  501    0 -0.39444239522E+02  0.15241767786E+02  0.88027775687E+02  0.19866063729E+03  0.17300000000E+03 0.  1.
         -6    1    1    2    0  503  0.39444239522E+02 -0.15241767786E+02 -0.32118281315E+02  0.18096613913E+03  0.17300000000E+03 0.  1.
</event>
<event>
 4    1  0.5929306E+000  0.1000000E+03  0.7546771E-02  0.1280296E+00
         21   -1    0    0  501  502  0.00000000000E+00  0.00000000000E+00  0.59580528095E+02  0.59580528095E+02  0.00000000000E+00 0.  1.
         21   -1    0    0  502  503 -0.00000000000E+00 -0.00000000000E+00 -0.12349858763E+04  0.12349858763E+04  0.00000000000E+00 0.  1.
          6    1    1    2  501    0  0.20283904775E+02 -0.21468476922E+02 -0.94153496690E+02  0.19916378494E+03  0.17300000000E+03 0.  1.
         -6    1    1    2    0  503 -0.20283904775E+02  0.21468476922E+02 -0.10812518515E+04  0.10954026194E+04  0.17300000000E+03 0.  1.
</event>
<event>
 4    1  0.5929306E+000  0.1000000E+03  0.7546771E-02  0.1280296E+00
         21   -1    0    0  501  502  0.00000000000E+00  0.00000000000E+00  0.13240655862E+03  0.13240655862E+03  0.00000000000E+00 0.  1.
         21   -1    0    0  502  503 -0.00000000000E+00 -0.00000000000E+00 -0.15093758942E+04  0.15093758942E+04  0.00000000000E+00 0.  1.
          6    1    1    2  501    0 -0.84347156046E+00  0.22824852247E+03 -0.58181700466E+02  0.29225367359E+03  0.17300000000E+03 0.  1.
         -6    1    1    2    0  503  0.84347156046E+00 -0.22824852247E+03 -0.13187876351E+04  0.13495287792E+04  0.17300000000E+03 0.  1.
</event>
<event>
 4    1  0.5929306E+000  0.1000000E+03  0.7546771E-02  0.1280296E+00
         21   -1    0    0  501  502  0.00000000000E+00  0.00000000000E+00  0.25036159376E+03  0.25036159376E+03  0.00000000000E+00 0.  1.
         21   -1    0    0  502  503 -0.00000000000E+00 -0.00000000000E+00 -0.52089011865E+03  0.52089011865E+03  0.00000000000E+00 0.  1.
          6    1    1    2  501    0  0.17074147576E+03  0.13958525470E+03  0.10787967671E+03  0.30033934061E+03  0.17300000000E+03 0.  1.
         -6    1    1    2    0  503 -0.17074147576E+03 -0.13958525470E+03 -0.37840820160E+03  0.47091237180E+03  0.17300000000E+03 0.  1.
</event>
<event>
 4    1  0.5929306E+000  0.1000000E+03  0.7546771E-02  0.1280296E+00
         21   -1    0    0  503  502  0.00000000000E+00  0.00000000000E+00  0.40544030317E+03  0.40544030317E+03  0.00000000000E+00 0.  1.
         21   -1    0    0  501  503 -0.00000000000E+00 -0.00000000000E+00 -0.33405853252E+03  0.33405853252E+03  0.00000000000E+00 0.  1.
          6    1    1    2  501    0  0.14486734879E+03 -0.12170143003E+03 -0.22958194725E+03  0.34414336739E+03  0.17300000000E+03 0.  1.
         -6    1    1    2    0  502 -0.14486734879E+03  0.12170143003E+03  0.30096371790E+03  0.39535546829E+03  0.17300000000E+03 0.  1.
</event>
<event>
 4    1  0.5929306E+000  0.1000000E+03  0.7546771E-02  0.1280296E+00
         21   -1    0    0  503  502  0.00000000000E+00  0.00000000000E+00  0.12451042400E+03  0.12451042400E+03  0.00000000000E+00 0.  1.
         21   -1    0    0  501  503 -0.00000000000E+00 -0.00000000000E+00 -0.30959073590E+03  0.30959073590E+03  0.00000000000E+00 0.  1.
          6    1    1    2  501    0 -0.79195510360E+01  0.86942621928E+02 -0.57641363995E+02  0.20217137690E+03  0.17300000000E+03 0.  1.
         -6    1    1    2    0  502  0.79195510360E+01 -0.86942621928E+02 -0.12743894791E+03  0.23192978299E+03  0.17300000000E+03 0.  1.
</event>
<event>
 4    1  0.5929306E+000  0.1000000E+03  0.7546771E-02  0.1280296E+00
         21   -1    0    0  503  502  0.00000000000E+00  0.00000000000E+00  0.14962937173E+03  0.14962937173E+03  0.00000000000E+00 0.  1.
         21   -1    0    0  501  503 -0.00000000000E+00 -0.00000000000E+00 -0.37431667509E+03  0.37431667509E+03  0.00000000000E+00 0.  1.
          6    1    1    2  501    0  0.15568698148E+02  0.12669810696E+03 -0.22184221031E+03  0.30893002597E+03  0.17300000000E+03 0.  1.
         -6    1    1    2    0  502 -0.15568698148E+02 -0.12669810696E+03 -0.28450930538E+01  0.21501602086E+03  0.17300000000E+03 0.  1.
</event>
<event>
 4    1  0.5929306E+000  0.1000000E+03  0.7546771E-02  0.1280296E+00
         21   -1    0    0  503  502  0.00000000000E+00  0.00000000000E+00  0.37774390888E+03  0.37774390888E+03  0.00000000000E+00 0.  1.
         21   -1    0    0  501  503 -0.00000000000E+00 -0.00000000000E+00 -0.27260090755E+03  0.27260090755E+03  0.00000000000E+00 0.  1.
          6    1    1    2  501    0  0.81945763150E+02  0.49807527574E+01 -0.20835760879E+03  0.28298729501E+03  0.17300000000E+03 0.  1.
         -6    1    1    2    0  502 -0.81945763150E+02 -0.49807527574E+01  0.31350061012E+03  0.36735752142E+03  0.17300000000E+03 0.  1.
</event>
<event>
 4    1  0.5929306E+000  0.1000000E+03  0.7546771E-02  0.1280296E+00
         21   -1    0    0  503  502  0.00000000000E+00  0.00000000000E+00  0.85654905492E+03  0.85654905492E+03  0.00000000000E+00 0.  1.
         21   -1    0    0  501  503 -0.00000000000E+00 -0.00000000000E+00 -0.53936344095E+02  0.53936344095E+02  0.00000000000E+00 0.  1.
          6    1    1    2  501    0  0.20763793623E+01 -0.98911653826E+02  0.23078035295E+03  0.30492031406E+03  0.17300000000E+03 0.  1.
         -6    1    1    2    0  502 -0.20763793623E+01  0.98911653826E+02  0.57183235787E+03  0.60556508496E+03  0.17300000000E+03 0.  1.
</event>
<event>
 4    1  0.5929306E+000  0.1000000E+03  0.7546771E-02  0.1280296E+00
         21   -1    0    0  503  502  0.00000000000E+00  0.00000000000E+00  0.13704390952E+04  0.13704390952E+04  0.00000000000E+00 0.  1.
         21   -1    0    0  501  503 -0.00000000000E+00 -0.00000000000E+00 -0.45728403176E+02  0.45728403176E+02  0.00000000000E+00 0.  1.
          6    1    1    2  501    0  0.97503600437E+02  0.15191903877E+03  0.69730179738E+03  0.74077334122E+03  0.17300000000E+03 0.  1.
         -6    1    1    2    0  502 -0.97503600437E+02 -0.15191903877E+03  0.62740889466E+03  0.67539415717E+03  0.17300000000E+03 0.  1.
</event>
<event>
 4    1  0.5929306E+000  0.1000000E+03  0.7546771E-02  0.1280296E+00
         21   -1    0    0  501  502  0.00000000000E+00  0.00000000000E+00  0.26627566528E+03  0.26627566528E+03  0.00000000000E+00 0.  1.
         21   -1    0    0  502  503 -0.00000000000E+00 -0.00000000000E+00 -0.20804888192E+03  0.20804888192E+03  0.00000000000E+00 0. -1.
          6    1    1    2  501    0  0.84669038097E+02  0.24059835502E+02  0.16325053064E+03  0.25362858169E+03  0.17300000000E+03 0.  1.
         -6    1    1    2    0  503 -0.84669038097E+02 -0.24059835502E+02 -0.10502374728E+03  0.22069596550E+03  0.17300000000E+03 0. -1.
</event>
<event>
 4    1  0.5929306E+000  0.1000000E+03  0.7546771E-02  0.1280296E+00
         21   -1    0    0  501  502  0.00000000000E+00  0.00000000000E+00  0.22374613849E+03  0.22374613849E+03  0.00000000000E+00 0.  1.
         21   -1    0    0  502  503 -0.00000000000E+00 -0.00000000000E+00 -0.39877536063E+03  0.39877536063E+03  0.00000000000E+00 0. -1.
          6    1    1    2  501    0  0.16850078647E+03 -0.17416832387E+03 -0.62672896619E+02  0.30427621013E+03  0.17300000000E+03 0.  1.
         -6    1    1    2    0  503 -0.16850078647E+03  0.17416832387E+03 -0.11235632552E+03  0.31824528899E+03  0.17300000000E+03 0. -1.
</event>
<event>
 4    1  0.5929306E+000  0.1000000E+03  0.7546771E-02  0.1280296E+00
         21   -1    0    0  501  502  0.00000000000E+00  0.00000000000E+00  0.12479551514E+04  0.12479551514E+04  0.00000000000E+00 0.  1.
         21   -1    0    0  502  503 -0.00000000000E+00 -0.00000000000E+00 -0.12465271277E+03  0.12465271277E+03  0.00000000000E+00 0. -1.
          6    1    1    2  501    0  0.15513926378E+03  0.71180019039E+01  0.11160563710E+04  0.11400130177E+04  0.17300000000E+03 0.  1.
         -6    1    1    2    0  503 -0.15513926378E+03 -0.71180019039E+01  0.72460675839E+01  0.23259484649E+03  0.17300000000E+03 0. -1.
</event>
<event>
 4    1  0.5929306E+000  0.1000000E+03  0.7546771E-02  0.1280296E+00
         21   -1    0    0  503  502  0.00000000000E+00  0.00000000000E+00  0.74099856671E+03  0.74099856671E+03  0.00000000000E+00 0.  1.
         21   -1    0    0  501  503 -0.00000000000E+00 -0.00000000000E+00 -0.45468513096E+03  0.45468513096E+03  0.00000000000E+00 0.  1.
          6    1    1    2  501    0 -0.10028150458E+03  0.63545544276E+02 -0.41426023020E+03  0.46436510924E+03  0.17300000000E+03 0.  1.
         -6    1    1    2    0  502  0.10028150458E+03 -0.63545544276E+02  0.70057366595E+03  0.73131858842E+03  0.17300000000E+03 0.  1.
</event>
<event>
 4    1  0.5929306E+000  0.1000000E+03  0.7546771E-02  0.1280296E+00
         21   -1    0    0  501  502  0.00000000000E+00  0.00000000000E+00  0.52971950976E+03  0.52971950976E+03  0.00000000000E+00 0. -1.
         21   -1    0    0  502  503 -0.00000000000E+00 -0.00000000000E+00 -0.82617661036E+02  0.82617661036E+02  0.00000000000E+00 0. -1.
          6    1    1    2  501    0 -0.58349389225E+02  0.13602618650E+02  0.37168939905E+03  0.41433282736E+03  0.17300000000E+03 0. -1.
         -6    1    1    2    0  503  0.58349389225E+02 -0.13602618650E+02  0.75412449677E+02  0.19800434345E+03  0.17300000000E+03 0. -1.
</event>
<event>
 4    1  0.5929306E+000  0.1000000E+03  0.7546771E-02  0.1280296E+00
         21   -1    0    0  501  502  0.00000000000E+00  0.00000000000E+00  0.18173669574E+03  0.18173669574E+03  0.00000000000E+00 0. -1.
         21   -1    0    0  502  503 -0.00000000000E+00 -0.00000000000E+00 -0.28978737208E+03  0.28978737208E+03  0.00000000000E+00 0. -1.
          6    1    1    2  501    0  0.14356111957E+03 -0.51535767706E+01 -0.69508323221E+01  0.22497481743E+03  0.17300000000E+03 0. -1.
         -6    1    1    2    0  503 -0.14356111957E+03  0.51535767706E+01 -0.10109984402E+03  0.24654925039E+03  0.17300000000E+03 0. -1.
</event>
<event>
 4    1  0.5929306E+000  0.1000000E+03  0.7546771E-02  0.1280296E+00
         21   -1    0    0  503  502  0.00000000000E+00  0.00000000000E+00  0.11074100493E+03  0.11074100493E+03  0.00000000000E+00 0. -1.
         21   -1    0    0  501  503 -0.00000000000E+00 -0.00000000000E+00 -0.37023273458E+03  0.37023273458E+03  0.00000000000E+00 0. -1.
          6    1    1    2  501    0  0.49690750387E+02  0.43572901663E+02 -0.22698477087E+03  0.29294855289E+03  0.17300000000E+03 0. -1.
         -6    1    1    2    0  502 -0.49690750387E+02 -0.43572901663E+02 -0.32506958777E+02  0.18802518662E+03  0.17300000000E+03 0. -1.
</event>
<event>
 4    1  0.5929306E+000  0.1000000E+03  0.7546771E-02  0.1280296E+00
         21   -1    0    0  503  502  0.00000000000E+00  0.00000000000E+00  0.22100757946E+03  0.22100757946E+03  0.00000000000E+00 0. -1.
         21   -1    0    0  501  503 -0.00000000000E+00 -0.00000000000E+00 -0.17954540842E+03  0.17954540842E+03  0.00000000000E+00 0.  1.
          6    1    1    2  501    0  0.55763421705E+02  0.66921664823E+02 -0.26037106565E+02  0.19543540964E+03  0.17300000000E+03 0. -1.
         -6    1    1    2    0  502 -0.55763421705E+02 -0.66921664823E+02  0.67499277603E+02  0.20511757823E+03  0.17300000000E+03 0. -1.
</event>
<event>
 4    1  0.5929306E+000  0.1000000E+03  0.7546771E-02  0.1280296E+00
         21   -1    0    0  503  502  0.00000000000E+00  0.00000000000E+00  0.13247977756E+04  0.13247977756E+04  0.00000000000E+00 0. -1.
         21   -1    0    0  501  503 -0.00000000000E+00 -0.00000000000E+00 -0.29397912593E+02  0.29397912593E+02  0.00000000000E+00 0.  1.
          6    1    1    2  501    0  0.22000220236E+02  0.81894946905E+02  0.79433163948E+03  0.81736316622E+03  0.17300000000E+03 0. -1.
         -6    1    1    2    0  502 -0.22000220236E+02 -0.81894946905E+02  0.50106822357E+03  0.53683252201E+03  0.17300000000E+03 0. -1.
</event>
<event>
 4    1  0.5929306E+000  0.1000000E+03  0.7546771E-02  0.1280296E+00
         21   -1    0    0  501  502  0.00000000000E+00  0.00000000000E+00  0.69590296071E+03  0.69590296071E+03  0.00000000000E+00 0. -1.
         21   -1    0    0  502  503 -0.00000000000E+00 -0.00000000000E+00 -0.19685541894E+03  0.19685541894E+03  0.00000000000E+00 0. -1.
          6    1    1    2  501    0 -0.93913342515E+02  0.10692165905E+03  0.60486374778E+03  0.64501248860E+03  0.17300000000E+03 0.  1.
         -6    1    1    2    0  503  0.93913342515E+02 -0.10692165905E+03 -0.10581620600E+03  0.24774589104E+03  0.17300000000E+03 0.  1.
</event>
<event>
 4    1  0.5929306E+000  0.1000000E+03  0.7546771E-02  0.1280296E+00
         21   -1    0    0  501  502  0.00000000000E+00  0.00000000000E+00  0.80465939709E+02  0.80465939709E+02  0.00000000000E+00 0. -1.
         21   -1    0    0  502  503 -0.00000000000E+00 -0.00000000000E+00 -0.46512122105E+03  0.46512122105E+03  0.00000000000E+00 0. -1.
          6    1    1    2  501    0 -0.80136783467E+02 -0.25096441478E+02 -0.16255914185E+03  0.25180589754E+03  0.17300000000E+03 0.  1.
         -6    1    1    2    0  503  0.80136783467E+02  0.25096441478E+02 -0.22209613949E+03  0.29378126322E+03  0.17300000000E+03 0.  1.
</event>
<event>
 4    1  0.5929306E+000  0.1000000E+03  0.7546771E-02  0.1280296E+00
         21   -1    0    0  503  502  0.00000000000E+00  0.00000000000E+00  0.58492463115E+03  0.58492463115E+03  0.00000000000E+00 0.  1.
         21   -1    0    0  501  503 -0.00000000000E+00 -0.00000000000E+00 -0.11338221872E+03  0.11338221872E+03  0.00000000000E+00 0. -1.
          6    1    1    2  501    0  0.50368484297E+02 -0.47970728622E+02 -0.50603329487E+01  0.18652823375E+03  0.17300000000E+03 0.  1.
         -6    1    1    2    0  502 -0.50368484297E+02  0.47970728622E+02  0.47660274538E+03  0.51177861612E+03  0.17300000000E+03 0. -1.
</event>
<event>
 4    1  0.5929306E+000  0.1000000E+03  0.7546771E-02  0.1280296E+00
         21   -1    0    0  503  502  0.00000000000E+00  0.00000000000E+00  0.27288548753E+03  0.27288548753E+03  0.00000000000E+00 0.  1.
         21   -1    0    0  501  503 -0.00000000000E+00 -0.00000000000E+00 -0.25060377585E+03  0.25060377585E+03  0.00000000000E+00 0.  1.
          6    1    1    2  501    0 -0.20671145153E+02  0.69416164904E+01 -0.18392474022E+03  0.25344189146E+03  0.17300000000E+03 0. -1.
         -6    1    1    2    0  502  0.20671145153E+02 -0.69416164904E+01  0.20620645190E+03  0.27004737193E+03  0.17300000000E+03 0. -1.
</event>
<event>
 4    1  0.5929306E+000  0.1000000E+03  0.7546771E-02  0.1280296E+00
         21   -1    0    0  503  502  0.00000000000E+00  0.00000000000E+00  0.86792446808E+03  0.86792446808E+03  0.00000000000E+00 0.  1.
         21   -1    0    0  501  503 -0.00000000000E+00 -0.00000000000E+00 -0.58560264157E+02  0.58560264157E+02  0.00000000000E+00 0.  1.
          6    1    1    2  501    0 -0.11728979143E+03 -0.75840792591E+02  0.32812484639E+03  0.39636301015E+03  0.17300000000E+03 0. -1.
         -6    1    1    2    0  502  0.11728979143E+03  0.75840792591E+02  0.48123935753E+03  0.53012172209E+03  0.17300000000E+03 0. -1.
</event>
<event>
 4    1  0.5929306E+000  0.1000000E+03  0.7546771E-02  0.1280296E+00
         21   -1    0    0  501  502  0.00000000000E+00  0.00000000000E+00  0.87169374821E+02  0.87169374821E+02  0.00000000000E+00 0. -1.
         21   -1    0    0  502  503 -0.00000000000E+00 -0.00000000000E+00 -0.94859795487E+03  0.94859795487E+03  0.00000000000E+00 0.  1.
          6    1    1    2  501    0 -0.11951269044E+03 -0.11190687105E+03 -0.14057595703E+03  0.27658096583E+03  0.17300000000E+03 0. -1.
         -6    1    1    2    0  503  0.11951269044E+03  0.11190687105E+03 -0.72085262301E+03  0.75918636386E+03  0.17300000000E+03 0.  1.
</event>
<event>
 4    1  0.5929306E+000  0.1000000E+03  0.7546771E-02  0.1280296E+00
         21   -1    0    0  501  502  0.00000000000E+00  0.00000000000E+00  0.11148780117E+03  0.11148780117E+03  0.00000000000E+00 0. -1.
         21   -1    0    0  502  503 -0.00000000000E+00 -0.00000000000E+00 -0.32122638188E+03  0.32122638188E+03  0.00000000000E+00 0.  1.
          6    1    1    2  501    0 -0.21733157268E+02  0.46568505617E+02 -0.39763976726E+02  0.18480024265E+03  0.17300000000E+03 0. -1.
         -6    1    1    2    0  503  0.21733157268E+02 -0.46568505617E+02 -0.16997460399E+03  0.24791394039E+03  0.17300000000E+03 0.  1.
</event>
<event>
 4    1  0.5929306E+000  0.1000000E+03  0.7546771E-02  0.1280296E+00
         21   -1    0    0  503  502  0.00000000000E+00  0.00000000000E+00  0.80850605826E+03  0.80850605826E+03  0.00000000000E+00 0.  1.
         21   -1    0    0  501  503 -0.00000000000E+00 -0.00000000000E+00 -0.16878115972E+03  0.16878115972E+03  0.00000000000E+00 0.  1.
          6    1    1    2  501    0 -0.92164932195E+01  0.21087322595E+03 -0.94524156398E+01  0.27307656313E+03  0.17300000000E+03 0. -1.
         -6    1    1    2    0  502  0.92164932195E+01 -0.21087322595E+03  0.64917731417E+03  0.70421065485E+03  0.17300000000E+03 0. -1.
</event>
<event>
 4    1  0.5929306E+000  0.1000000E+03  0.7546771E-02  0.1280296E+00
         21   -1    0    0  501  502  0.00000000000E+00  0.00000000000E+00  0.13959816340E+04  0.13959816340E+04  0.00000000000E+00 0.  1.
         21   -1    0    0  502  503 -0.00000000000E+00 -0.00000000000E+00 -0.30389780111E+02  0.30389780111E+02  0.00000000000E+00 0.  1.
          6    1    1    2  501    0 -0.37184468859E+02 -0.81221987595E+02  0.91545610323E+03  0.93593192751E+03  0.17300000000E+03 0. -1.
         -6    1    1    2    0  503  0.37184468859E+02  0.81221987595E+02  0.45013575063E+03  0.49043948658E+03  0.17300000000E+03 0. -1.
</event>
<event>
 4    1  0.5929306E+000  0.1000000E+03  0.7546771E-02  0.1280296E+00
         21   -1    0    0  501  502  0.00000000000E+00  0.00000000000E+00  0.66294659890E+02  0.66294659890E+02  0.00000000000E+00 0.  1.
         21   -1    0    0  502  503 -0.00000000000E+00 -0.00000000000E+00 -0.76375952448E+03  0.76375952448E+03  0.00000000000E+00 0.  1.
          6    1    1    2  501    0  0.61200297727E+02  0.37970112938E+02 -0.57848604162E+03  0.60808083860E+03  0.17300000000E+03 0. -1.
         -6    1    1    2    0  503 -0.61200297727E+02 -0.37970112938E+02 -0.11897882297E+03  0.22197334577E+03  0.17300000000E+03 0. -1.
</event>
<event>
 4    1  0.5929306E+000  0.1000000E+03  0.7546771E-02  0.1280296E+00
         21   -1    0    0  503  502  0.00000000000E+00  0.00000000000E+00  0.98230882391E+02  0.98230882391E+02  0.00000000000E+00 0.  1.
         21   -1    0    0  501  503 -0.00000000000E+00 -0.00000000000E+00 -0.67151266797E+03  0.67151266797E+03  0.00000000000E+00 0. -1.
          6    1    1    2  501    0 -0.15352297400E+03  0.10928194467E+03 -0.32089250674E+03  0.41038134443E+03  0.17300000000E+03 0. -1.
         -6    1    1    2    0  502  0.15352297400E+03 -0.10928194467E+03 -0.25238927884E+03  0.35936220593E+03  0.17300000000E+03 0.  1.
</event>
<event>
 4    1  0.5929306E+000  0.1000000E+03  0.7546771E-02  0.1280296E+00
         21   -1    0    0  503  502  0.00000000000E+00  0.00000000000E+00  0.68561657178E+03  0.68561657178E+03  0.00000000000E+00 0.  1.
         21   -1    0    0  501  503 -0.00000000000E+00 -0.00000000000E+00 -0.50990053730E+02  0.50990053730E+02  0.00000000000E+00 0. -1.
          6    1    1    2  501    0  0.19959111510E+02 -0.55953135526E+02  0.24098491851E+03  0.30254231184E+03  0.17300000000E+03 0. -1.
         -6    1    1    2    0  502 -0.19959111510E+02  0.55953135526E+02  0.39364159954E+03  0.43406431366E+03  0.17300000000E+03 0.  1.
</event>
<event>
 4    1  0.5929306E+000  0.1000000E+03  0.7546771E-02  0.1280296E+00
         21   -1    0    0  501  502  0.00000000000E+00  0.00000000000E+00  0.29877033297E+03  0.29877033297E+03  0.00000000000E+00 0.  1.
         21   -1    0    0  502  503 -0.00000000000E+00 -0.00000000000E+00 -0.13720483641E+03  0.13720483641E+03  0.00000000000E+00 0. -1.
          6    1    1    2  501    0 -0.59213870847E+02  0.83242229009E+02  0.10776769499E+03  0.22798777878E+03  0.17300000000E+03 0.  1.
         -6    1    1    2    0  503  0.59213870847E+02 -0.83242229009E+02  0.53797801570E+02  0.20798739059E+03  0.17300000000E+03 0. -1.
</event>
<event>
 4    1  0.5929306E+000  0.1000000E+03  0.7546771E-02  0.1280296E+00
         21   -1    0    0  501  502  0.00000000000E+00  0.00000000000E+00  0.95138231670E+03  0.95138231670E+03  0.00000000000E+00 0.  1.
         21   -1    0    0  502  503 -0.00000000000E+00 -0.00000000000E+00 -0.68761940473E+02  0.68761940473E+02  0.00000000000E+00 0. -1.
          6    1    1    2  501    0  0.18630145556E+02  0.35683696607E+02  0.80832559426E+03  0.82761082332E+03  0.17300000000E+03 0. -1.
         -6    1    1    2    0  503 -0.18630145556E+02 -0.35683696607E+02  0.74294781967E+02  0.19253343386E+03  0.17300000000E+03 0. -1.
</event>
<event>
 4    1  0.5929306E+000  0.1000000E+03  0.7546771E-02  0.1280296E+00
         21   -1    0    0  501  502  0.00000000000E+00  0.00000000000E+00  0.74782717622E+03  0.74782717622E+03  0.00000000000E+00 0.  1.
         21   -1    0    0  502  503 -0.00000000000E+00 -0.00000000000E+00 -0.87490382207E+02  0.87490382207E+02  0.00000000000E+00 0. -1.
          6    1    1    2  501    0 -0.42788365038E+02  0.57325296773E+02  0.61477601859E+03  0.64264732697E+03  0.17300000000E+03 0. -1.
         -6    1    1    2    0  503  0.42788365038E+02 -0.57325296773E+02  0.45560775428E+02  0.19267023146E+03  0.17300000000E+03 0. -1.
</event>
<event>
 4    1  0.5929306E+000  0.1000000E+03  0.7546771E-02  0.1280296E+00
         21   -1    0    0  501  502  0.00000000000E+00  0.00000000000E+00  0.27841741622E+03  0.27841741622E+03  0.00000000000E+00 0. -1.
         21   -1    0    0  502  503 -0.00000000000E+00 -0.00000000000E+00 -0.18420933211E+03  0.18420933211E+03  0.00000000000E+00 0. -1.
          6    1    1    2  501    0  0.13149361488E+03 -0.47005392747E+02  0.91131193643E+02  0.24027894655E+03  0.17300000000E+03 0. -1.
         -6    1    1    2    0  503 -0.13149361488E+03  0.47005392747E+02  0.30768904693E+01  0.22234780178E+03  0.17300000000E+03 0. -1.
</event>
<event>
 4    1  0.5929306E+000  0.1000000E+03  0.7546771E-02  0.1280296E+00
         21   -1    0    0  501  502  0.00000000000E+00  0.00000000000E+00  0.21113736535E+03  0.21113736535E+03  0.00000000000E+00 0. -1.
         21   -1    0    0  502  503 -0.00000000000E+00 -0.00000000000E+00 -0.33409469616E+03  0.33409469616E+03  0.00000000000E+00 0. -1.
          6    1    1    2  501    0 -0.31416554979E+02  0.19746989987E+03 -0.35725164195E+02  0.26680826193E+03  0.17300000000E+03 0. -1.
         -6    1    1    2    0  503  0.31416554979E+02 -0.19746989987E+03 -0.87232166608E+02  0.27842379958E+03  0.17300000000E+03 0. -1.
</event>
<event>
 4    1  0.5929306E+000  0.1000000E+03  0.7546771E-02  0.1280296E+00
         21   -1    0    0  503  502  0.00000000000E+00  0.00000000000E+00  0.45118585135E+02  0.45118585135E+02  0.00000000000E+00 0. -1.
         21   -1    0    0  501  503 -0.00000000000E+00 -0.00000000000E+00 -0.19743470533E+04  0.19743470533E+04  0.00000000000E+00 0.  1.
          6    1    1    2  501    0 -0.77469995975E+02 -0.13498520046E+03 -0.15968873614E+04  0.16137536521E+04  0.17300000000E+03 0.  1.
         -6    1    1    2    0  502  0.77469995975E+02  0.13498520046E+03 -0.33234110673E+03  0.40571198632E+03  0.17300000000E+03 0. -1.
</event>
<event>
 4    1  0.5929306E+000  0.1000000E+03  0.7546771E-02  0.1280296E+00
         21   -1    0    0  503  502  0.00000000000E+00  0.00000000000E+00  0.33047672795E+03  0.33047672795E+03  0.00000000000E+00 0.  1.
         21   -1    0    0  501  503 -0.00000000000E+00 -0.00000000000E+00 -0.16332255113E+03  0.16332255113E+03  0.00000000000E+00 0.  1.
          6    1    1    2  501    0 -0.52882249304E+02  0.15863537574E+02 -0.70417969578E+02  0.19477133915E+03  0.17300000000E+03 0.  1.
         -6    1    1    2    0  502  0.52882249304E+02 -0.15863537574E+02  0.23757214640E+03  0.29902793993E+03  0.17300000000E+03 0.  1.
</event>
<event>
 4    1  0.5929306E+000  0.1000000E+03  0.7546771E-02  0.1280296E+00
         21   -1    0    0  503  502  0.00000000000E+00  0.00000000000E+00  0.27650562449E+03  0.27650562449E+03  0.00000000000E+00 0. -1.
         21   -1    0    0  501  503 -0.00000000000E+00 -0.00000000000E+00 -0.35453009095E+03  0.35453009095E+03  0.00000000000E+00 0.  1.
          6    1    1    2  501    0 -0.28292962992E+02  0.53405523134E+02 -0.29484129014E+03  0.34714986393E+03  0.17300000000E+03 0. -1.
         -6    1    1    2    0  502  0.28292962992E+02 -0.53405523134E+02  0.21681682368E+03  0.28388585151E+03  0.17300000000E+03 0.  1.
</event>
<event>
 4    1  0.5929306E+000  0.1000000E+03  0.7546771E-02  0.1280296E+00
         21   -1    0    0  503  502  0.00000000000E+00  0.00000000000E+00  0.12641153540E+03  0.12641153540E+03  0.00000000000E+00 0.  1.
         21   -1    0    0  501  503 -0.00000000000E+00 -0.00000000000E+00 -0.46609344488E+03  0.46609344488E+03  0.00000000000E+00 0. -1.
          6    1    1    2  501    0 -0.16487828764E+03 -0.15998510623E+02 -0.21788814724E+03  0.32379784864E+03  0.17300000000E+03 0. -1.
         -6    1    1    2    0  502  0.16487828764E+03  0.15998510623E+02 -0.12179376224E+03  0.26870713164E+03  0.17300000000E+03 0.  1.
</event>
<event>
 4    1  0.5929306E+000  0.1000000E+03  0.7546771E-02  0.1280296E+00
         21   -1    0    0  503  502  0.00000000000E+00  0.00000000000E+00  0.14308641698E+03  0.14308641698E+03  0.00000000000E+00 0.  1.
         21   -1    0    0  501  503 -0.00000000000E+00 -0.00000000000E+00 -0.83602569883E+03  0.83602569883E+03  0.00000000000E+00 0.  1.
          6    1    1    2  501    0  0.15449499197E+03 -0.65352773520E+02 -0.69764651191E+03  0.73809169019E+03  0.17300000000E+03 0.  1.
         -6    1    1    2    0  502 -0.15449499197E+03  0.65352773520E+02  0.47072300630E+01  0.24102042562E+03  0.17300000000E+03 0.  1.
</event>
<event>
 4    1  0.5929306E+000  0.1000000E+03  0.7546771E-02  0.1280296E+00
         21   -1    0    0  503  502  0.00000000000E+00  0.00000000000E+00  0.48280054662E+03  0.48280054662E+03  0.00000000000E+00 0.  1.
         21   -1    0    0  501  503 -0.00000000000E+00 -0.00000000000E+00 -0.31833696325E+03  0.31833696325E+03  0.00000000000E+00 0.  1.
          6    1    1    2  501    0  0.57740750376E+02  0.12550613978E+03 -0.24834956063E+03  0.33270450800E+03  0.17300000000E+03 0.  1.
         -6    1    1    2    0  502 -0.57740750376E+02 -0.12550613978E+03  0.41281314401E+03  0.46843300187E+03  0.17300000000E+03 0.  1.
</event>
<event>
 4    1  0.5929306E+000  0.1000000E+03  0.7546771E-02  0.1280296E+00
         21   -1    0    0  503  502  0.00000000000E+00  0.00000000000E+00  0.17683351962E+03  0.17683351962E+03  0.00000000000E+00 0. -1.
         21   -1    0    0  501  503 -0.00000000000E+00 -0.00000000000E+00 -0.48372485108E+03  0.48372485108E+03  0.00000000000E+00 0. -1.
          6    1    1    2  501    0  0.17082674976E+03 -0.10310272268E+00 -0.33702833702E+03  0.41557055841E+03  0.17300000000E+03 0. -1.
         -6    1    1    2    0  502 -0.17082674976E+03  0.10310272268E+00  0.30137005555E+02  0.24498781229E+03  0.17300000000E+03 0. -1.
</event>
<event>
 4    1  0.5929306E+000  0.1000000E+03  0.7546771E-02  0.1280296E+00
         21   -1    0    0  503  502  0.00000000000E+00  0.00000000000E+00  0.16258847124E+04  0.16258847124E+04  0.00000000000E+00 0. -1.
         21   -1    0    0  501  503 -0.00000000000E+00 -0.00000000000E+00 -0.12874984866E+03  0.12874984866E+03  0.00000000000E+00 0. -1.
          6    1    1    2  501    0 -0.39917991428E+02  0.23128778326E+03  0.72481606281E+02  0.30044977613E+03  0.17300000000E+03 0. -1.
         -6    1    1    2    0  502  0.39917991428E+02 -0.23128778326E+03  0.14246532575E+04  0.14541847850E+04  0.17300000000E+03 0. -1.
</event>
<event>
 4    1  0.5929306E+000  0.1000000E+03  0.7546771E-02  0.1280296E+00
         21   -1    0    0  501  502  0.00000000000E+00  0.00000000000E+00  0.29940505391E+03  0.29940505391E+03  0.00000000000E+00 0. -1.
         21   -1    0    0  502  503 -0.00000000000E+00 -0.00000000000E+00 -0.22302620268E+03  0.22302620268E+03  0.00000000000E+00 0. -1.
          6    1    1    2  501    0 -0.23094159699E+01 -0.10008001051E+03  0.20375122591E+03  0.28542057383E+03  0.17300000000E+03 0. -1.
         -6    1    1    2    0  503  0.23094159699E+01  0.10008001051E+03 -0.12737237469E+03  0.23701068276E+03  0.17300000000E+03 0. -1.
</event>
<event>
 4    1  0.5929306E+000  0.1000000E+03  0.7546771E-02  0.1280296E+00
         21   -1    0    0  501  502  0.00000000000E+00  0.00000000000E+00  0.45941053928E+03  0.45941053928E+03  0.00000000000E+00 0. -1.
         21   -1    0    0  502  503 -0.00000000000E+00 -0.00000000000E+00 -0.11746428830E+03  0.11746428830E+03  0.00000000000E+00 0. -1.
          6    1    1    2  501    0  0.26900071906E+01  0.76761771973E+02  0.33818444190E+03  0.38755299317E+03  0.17300000000E+03 0. -1.
         -6    1    1    2    0  503 -0.26900071906E+01 -0.76761771973E+02  0.37618090887E+01  0.18932183441E+03  0.17300000000E+03 0. -1.
</event>
<event>
 4    1  0.5929306E+000  0.1000000E+03  0.7546771E-02  0.1280296E+00
         21   -1    0    0  503  502  0.00000000000E+00  0.00000000000E+00  0.22165674969E+04  0.22165674969E+04  0.00000000000E+00 0. -1.
         21   -1    0    0  501  503 -0.00000000000E+00 -0.00000000000E+00 -0.85349404826E+02  0.85349404826E+02  0.00000000000E+00 0. -1.
          6    1    1    2  501    0 -0.39474628038E+01 -0.21618818161E+03  0.17805107041E+03  0.32921739931E+03  0.17300000000E+03 0. -1.
         -6    1    1    2    0  502  0.39474628038E+01  0.21618818161E+03  0.19531670217E+04  0.19726995024E+04  0.17300000000E+03 0. -1.
</event>
<event>
 4    1  0.5929306E+000  0.1000000E+03  0.7546771E-02  0.1280296E+00
         21   -1    0    0  503  502  0.00000000000E+00  0.00000000000E+00  0.89413175113E+02  0.89413175113E+02  0.00000000000E+00 0. -1.
         21   -1    0    0  501  503 -0.00000000000E+00 -0.00000000000E+00 -0.41982033277E+03  0.41982033277E+03  0.00000000000E+00 0. -1.
          6    1    1    2  501    0  0.59740943737E+02 -0.14810237777E+02 -0.24642946017E+03  0.30731873087E+03  0.17300000000E+03 0. -1.
         -6    1    1    2    0  502 -0.59740943737E+02  0.14810237777E+02 -0.83977697482E+02  0.20191477701E+03  0.17300000000E+03 0. -1.
</event>
<event>
 4    1  0.5929306E+000  0.1000000E+03  0.7546771E-02  0.1280296E+00
         21   -1    0    0  503  502  0.00000000000E+00  0.00000000000E+00  0.23956187075E+03  0.23956187075E+03  0.00000000000E+00 0. -1.
         21   -1    0    0  501  503 -0.00000000000E+00 -0.00000000000E+00 -0.17898765046E+03  0.17898765046E+03  0.00000000000E+00 0. -1.
          6    1    1    2  501    0 -0.94737006360E+01 -0.11316837015E+03  0.22944452175E+02  0.20821210073E+03  0.17300000000E+03 0. -1.
         -6    1    1    2    0  502  0.94737006360E+01  0.11316837015E+03  0.37629768113E+02  0.21033742048E+03  0.17300000000E+03 0. -1.
</event>
<event>
 4    1  0.5929306E+000  0.1000000E+03  0.7546771E-02  0.1280296E+00
         21   -1    0    0  501  502  0.00000000000E+00  0.00000000000E+00  0.16975910977E+03  0.16975910977E+03  0.00000000000E+00 0. -1.
         21   -1    0    0  502  503 -0.00000000000E+00 -0.00000000000E+00 -0.33738670335E+03  0.33738670335E+03  0.00000000000E+00 0.  1.
          6    1    1    2  501    0 -0.12255220695E+03 -0.81370494585E+02 -0.16384516765E+03  0.28002578413E+03  0.17300000000E+03 0. -1.
         -6    1    1    2    0  503  0.12255220695E+03  0.81370494585E+02 -0.37824259341E+01  0.22712002898E+03  0.17300000000E+03 0.  1.
</event>
<event>
 4    1  0.5929306E+000  0.1000000E+03  0.7546771E-02  0.1280296E+00
         21   -1    0    0  501  502  0.00000000000E+00  0.00000000000E+00  0.61643445487E+03  0.61643445487E+03  0.00000000000E+00 0. -1.
         21   -1    0    0  502  503 -0.00000000000E+00 -0.00000000000E+00 -0.11182964989E+03  0.11182964989E+03  0.00000000000E+00 0. -1.
          6    1    1    2  501    0  0.18291077348E+03 -0.48010559247E+02  0.33130899945E+03  0.41887470438E+03  0.17300000000E+03 0. -1.
         -6    1    1    2    0  503 -0.18291077348E+03  0.48010559247E+02  0.17329580552E+03  0.30938940038E+03  0.17300000000E+03 0. -1.
</event>
<event>
 4    1  0.5929306E+000  0.1000000E+03  0.7546771E-02  0.1280296E+00
         21   -1    0    0  501  502  0.00000000000E+00  0.00000000000E+00  0.24915649033E+03  0.24915649033E+03  0.00000000000E+00 0. -1.
         21   -1    0    0  502  503 -0.00000000000E+00 -0.00000000000E+00 -0.36916673157E+03  0.36916673157E+03  0.00000000000E+00 0. -1.
          6    1    1    2  501    0 -0.26365178561E+02 -0.34327781745E+02  0.19006178417E+03  0.26062617106E+03  0.17300000000E+03 0. -1.
         -6    1    1    2    0  503  0.26365178561E+02  0.34327781745E+02 -0.31007202541E+03  0.35769705084E+03  0.17300000000E+03 0. -1.
</event>
<event>
 4    1  0.5929306E+000  0.1000000E+03  0.7546771E-02  0.1280296E+00
         21   -1    0    0  501  502  0.00000000000E+00  0.00000000000E+00  0.30908186456E+03  0.30908186456E+03  0.00000000000E+00 0. -1.
         21   -1    0    0  502  503 -0.00000000000E+00 -0.00000000000E+00 -0.75920398960E+03  0.75920398960E+03  0.00000000000E+00 0. -1.
          6    1    1    2  501    0 -0.16487567411E+03 -0.28831679239E+03  0.11375634353E+03  0.39138225098E+03  0.17300000000E+03 0. -1.
         -6    1    1    2    0  503  0.16487567411E+03  0.28831679239E+03 -0.56387846857E+03  0.67690360318E+03  0.17300000000E+03 0. -1.
</event>
<event>
 4    1  0.5929306E+000  0.1000000E+03  0.7546771E-02  0.1280296E+00
         21   -1    0    0  501  502  0.00000000000E+00  0.00000000000E+00  0.24442119913E+03  0.24442119913E+03  0.00000000000E+00 0. -1.
         21   -1    0    0  502  503 -0.00000000000E+00 -0.00000000000E+00 -0.21588501198E+03  0.21588501198E+03  0.00000000000E+00 0.  1.
          6    1    1    2  501    0 -0.14737321636E+02  0.10444102944E+03  0.12270215142E+03  0.23687535803E+03  0.17300000000E+03 0. -1.
         -6    1    1    2    0  503  0.14737321636E+02 -0.10444102944E+03 -0.94165964278E+02  0.22343085308E+03  0.17300000000E+03 0.  1.
</event>
<event>
 4    1  0.5929306E+000  0.1000000E+03  0.7546771E-02  0.1280296E+00
         21   -1    0    0  501  502  0.00000000000E+00  0.00000000000E+00  0.82040008694E+02  0.82040008694E+02  0.00000000000E+00 0. -1.
         21   -1    0    0  502  503 -0.00000000000E+00 -0.00000000000E+00 -0.19052276508E+04  0.19052276508E+04  0.00000000000E+00 0.  1.
          6    1    1    2  501    0  0.10429391488E+03  0.14080038856E+03 -0.13420753775E+03  0.28043293902E+03  0.17300000000E+03 0. -1.
         -6    1    1    2    0  503 -0.10429391488E+03 -0.14080038856E+03 -0.16889801043E+04  0.17068347204E+04  0.17300000000E+03 0.  1.
</event>
<event>
 4    1  0.5929306E+000  0.1000000E+03  0.7546771E-02  0.1280296E+00
         21   -1    0    0  501  502  0.00000000000E+00  0.00000000000E+00  0.74241892922E+02  0.74241892922E+02  0.00000000000E+00 0. -1.
         21   -1    0    0  502  503 -0.00000000000E+00 -0.00000000000E+00 -0.69342825912E+03  0.69342825912E+03  0.00000000000E+00 0.  1.
          6    1    1    2  501    0  0.61755904437E+02  0.22980435573E+02 -0.87662908275E+02  0.20483085129E+03  0.17300000000E+03 0. -1.
         -6    1    1    2    0  503 -0.61755904437E+02 -0.22980435573E+02 -0.53152345792E+03  0.56283930075E+03  0.17300000000E+03 0.  1.
</event>
<event>
 4    1  0.5929306E+000  0.1000000E+03  0.7546771E-02  0.1280296E+00
         21   -1    0    0  501  502  0.00000000000E+00  0.00000000000E+00  0.10758378785E+03  0.10758378785E+03  0.00000000000E+00 0. -1.
         21   -1    0    0  502  503 -0.00000000000E+00 -0.00000000000E+00 -0.34700863241E+03  0.34700863241E+03  0.00000000000E+00 0. -1.
          6    1    1    2  501    0  0.21329286798E+02 -0.65975613542E+02 -0.17964774311E+03  0.25886295923E+03  0.17300000000E+03 0. -1.
         -6    1    1    2    0  503 -0.21329286798E+02  0.65975613542E+02 -0.59777101443E+02  0.19572946103E+03  0.17300000000E+03 0. -1.
</event>
<event>
 4    1  0.5929306E+000  0.1000000E+03  0.7546771E-02  0.1280296E+00
         21   -1    0    0  501  502  0.00000000000E+00  0.00000000000E+00  0.24237690858E+03  0.24237690858E+03  0.00000000000E+00 0. -1.
         21   -1    0    0  502  503 -0.00000000000E+00 -0.00000000000E+00 -0.27277969957E+03  0.27277969957E+03  0.00000000000E+00 0. -1.
          6    1    1    2  501    0 -0.43732908313E+02  0.86955716657E+02  0.14852398610E+03  0.24791578888E+03  0.17300000000E+03 0. -1.
         -6    1    1    2    0  503  0.43732908313E+02 -0.86955716657E+02 -0.17892677708E+03  0.26724081927E+03  0.17300000000E+03 0. -1.
</event>
<event>
 4    1  0.5929306E+000  0.1000000E+03  0.7546771E-02  0.1280296E+00
         21   -1    0    0  501  502  0.00000000000E+00  0.00000000000E+00  0.52423391313E+02  0.52423391313E+02  0.00000000000E+00 0. -1.
         21   -1    0    0  502  503 -0.00000000000E+00 -0.00000000000E+00 -0.84725388299E+03  0.84725388299E+03  0.00000000000E+00 0. -1.
          6    1    1    2  501    0  0.96446827857E+02 -0.57677776188E+02 -0.30540540676E+03  0.36855146038E+03  0.17300000000E+03 0. -1.
         -6    1    1    2    0  503 -0.96446827857E+02  0.57677776188E+02 -0.48942508492E+03  0.53112581392E+03  0.17300000000E+03 0. -1.
</event>
<event>
 4    1  0.5929306E+000  0.1000000E+03  0.7546771E-02  0.1280296E+00
         21   -1    0    0  501  502  0.00000000000E+00  0.00000000000E+00  0.21811388044E+03  0.21811388044E+03  0.00000000000E+00 0. -1.
         21   -1    0    0  502  503 -0.00000000000E+00 -0.00000000000E+00 -0.39213519749E+03  0.39213519749E+03  0.00000000000E+00 0. -1.
          6    1    1    2  501    0 -0.21516962456E+02 -0.32827737007E+02  0.15557077516E+03  0.23594894803E+03  0.17300000000E+03 0. -1.
         -6    1    1    2    0  503  0.21516962456E+02  0.32827737007E+02 -0.32959209222E+03  0.37430012990E+03  0.17300000000E+03 0. -1.
</event>
<event>
 4    1  0.5929306E+000  0.1000000E+03  0.7546771E-02  0.1280296E+00
         21   -1    0    0  501  502  0.00000000000E+00  0.00000000000E+00  0.29029160124E+03  0.29029160124E+03  0.00000000000E+00 0. -1.
         21   -1    0    0  502  503 -0.00000000000E+00 -0.00000000000E+00 -0.28739901315E+03  0.28739901315E+03  0.00000000000E+00 0. -1.
          6    1    1    2  501    0  0.16653181824E+03 -0.45197510544E+02 -0.15258439482E+03  0.28807405122E+03  0.17300000000E+03 0. -1.
         -6    1    1    2    0  503 -0.16653181824E+03  0.45197510544E+02  0.15547698291E+03  0.28961656317E+03  0.17300000000E+03 0. -1.
</event>
<event>
 4    1  0.5929306E+000  0.1000000E+03  0.7546771E-02  0.1280296E+00
         21   -1    0    0  501  502  0.00000000000E+00  0.00000000000E+00  0.43080325769E+02  0.43080325769E+02  0.00000000000E+00 0. -1.
         21   -1    0    0  502  503 -0.00000000000E+00 -0.00000000000E+00 -0.10250241566E+04  0.10250241566E+04  0.00000000000E+00 0. -1.
          6    1    1    2  501    0 -0.81412183996E+02 -0.72498391318E+02 -0.61405176927E+03  0.64720362777E+03  0.17300000000E+03 0. -1.
         -6    1    1    2    0  503  0.81412183996E+02  0.72498391318E+02 -0.36789206156E+03  0.42090085460E+03  0.17300000000E+03 0. -1.
</event>
<event>
 4    1  0.5929306E+000  0.1000000E+03  0.7546771E-02  0.1280296E+00
         21   -1    0    0  503  502  0.00000000000E+00  0.00000000000E+00  0.10689526270E+04  0.10689526270E+04  0.00000000000E+00 0. -1.
         21   -1    0    0  501  503 -0.00000000000E+00 -0.00000000000E+00 -0.37455283021E+02  0.37455283021E+02  0.00000000000E+00 0. -1.
          6    1    1    2  501    0  0.68762789060E+02 -0.56274081785E+02  0.38566535153E+03  0.43192806902E+03  0.17300000000E+03 0. -1.
         -6    1    1    2    0  502 -0.68762789060E+02  0.56274081785E+02  0.64583199245E+03  0.67447984100E+03  0.17300000000E+03 0. -1.
</event>
<event>
 4    1  0.5929306E+000  0.1000000E+03  0.7546771E-02  0.1280296E+00
         21   -1    0    0  503  502  0.00000000000E+00  0.00000000000E+00  0.47807629095E+02  0.47807629095E+02  0.00000000000E+00 0. -1.
         21   -1    0    0  501  503 -0.00000000000E+00 -0.00000000000E+00 -0.97391245193E+03  0.97391245193E+03  0.00000000000E+00 0. -1.
          6    1    1    2  501    0 -0.11268226201E+03 -0.39443914997E+02 -0.34759296012E+03  0.40620558899E+03  0.17300000000E+03 0. -1.
         -6    1    1    2    0  502  0.11268226201E+03  0.39443914997E+02 -0.57851186271E+03  0.61551449203E+03  0.17300000000E+03 0. -1.
</event>
<event>
 4    1  0.5929306E+000  0.1000000E+03  0.7546771E-02  0.1280296E+00
         21   -1    0    0  503  502  0.00000000000E+00  0.00000000000E+00  0.12995909169E+04  0.12995909169E+04  0.00000000000E+00 0. -1.
         21   -1    0    0  501  503 -0.00000000000E+00 -0.00000000000E+00 -0.64052564605E+02  0.64052564605E+02  0.00000000000E+00 0. -1.
          6    1    1    2  501    0 -0.58109560431E+02  0.11461482113E+03  0.16443100172E+03  0.27107163733E+03  0.17300000000E+03 0. -1.
         -6    1    1    2    0  502  0.58109560431E+02 -0.11461482113E+03  0.10711073506E+04  0.10925718442E+04  0.17300000000E+03 0. -1.
</event>
<event>
 4    1  0.5929306E+000  0.1000000E+03  0.7546771E-02  0.1280296E+00
         21   -1    0    0  501  502  0.00000000000E+00  0.00000000000E+00  0.22955483303E+03  0.22955483303E+03  0.00000000000E+00 0.  1.
         21   -1    0    0  502  503 -0.00000000000E+00 -0.00000000000E+00 -0.30403988261E+03  0.30403988261E+03  0.00000000000E+00 0.  1.
          6    1    1    2  501    0 -0.14001773391E+03 -0.16516801858E+02  0.10553091337E+03  0.24686746288E+03  0.17300000000E+03 0.  1.
         -6    1    1    2    0  503  0.14001773391E+03  0.16516801858E+02 -0.18001596295E+03  0.28672725275E+03  0.17300000000E+03 0.  1.
</event>
<event>
 4    1  0.5929306E+000  0.1000000E+03  0.7546771E-02  0.1280296E+00
         21   -1    0    0  501  502  0.00000000000E+00  0.00000000000E+00  0.25365766437E+03  0.25365766437E+03  0.00000000000E+00 0.  1.
         21   -1    0    0  502  503 -0.00000000000E+00 -0.00000000000E+00 -0.14936188494E+03  0.14936188494E+03  0.00000000000E+00 0.  1.
          6    1    1    2  501    0  0.34625279206E+01  0.54902187960E+02 -0.20553689028E+02  0.18269563070E+03  0.17300000000E+03 0.  1.
         -6    1    1    2    0  503 -0.34625279206E+01 -0.54902187960E+02  0.12484946846E+03  0.22032391862E+03  0.17300000000E+03 0.  1.
</event>
<event>
 4    1  0.5929306E+000  0.1000000E+03  0.7546771E-02  0.1280296E+00
         21   -1    0    0  503  502  0.00000000000E+00  0.00000000000E+00  0.15157024272E+03  0.15157024272E+03  0.00000000000E+00 0. -1.
         21   -1    0    0  501  503 -0.00000000000E+00 -0.00000000000E+00 -0.69750033844E+03  0.69750033844E+03  0.00000000000E+00 0. -1.
          6    1    1    2  501    0 -0.17982717544E+03 -0.15238064953E+03 -0.45869049413E+03  0.54395187727E+03  0.17300000000E+03 0. -1.
         -6    1    1    2    0  502  0.17982717544E+03  0.15238064953E+03 -0.87239601583E+02  0.30511870389E+03  0.17300000000E+03 0. -1.
</event>
<event>
 4    1  0.5929306E+000  0.1000000E+03  0.7546771E-02  0.1280296E+00
         21   -1    0    0  503  502  0.00000000000E+00  0.00000000000E+00  0.22817673411E+03  0.22817673411E+03  0.00000000000E+00 0. -1.
         21   -1    0    0  501  503 -0.00000000000E+00 -0.00000000000E+00 -0.32922484312E+03  0.32922484312E+03  0.00000000000E+00 0. -1.
          6    1    1    2  501    0 -0.34990517160E+02  0.43239032918E+02 -0.25916018768E+03  0.31652322685E+03  0.17300000000E+03 0. -1.
         -6    1    1    2    0  502  0.34990517160E+02 -0.43239032918E+02  0.15811207867E+03  0.24087835038E+03  0.17300000000E+03 0. -1.
</event>
<event>
 4    1  0.5929306E+000  0.1000000E+03  0.7546771E-02  0.1280296E+00
         21   -1    0    0  503  502  0.00000000000E+00  0.00000000000E+00  0.13622348863E+04  0.13622348863E+04  0.00000000000E+00 0. -1.
         21   -1    0    0  501  503 -0.00000000000E+00 -0.00000000000E+00 -0.23450889467E+03  0.23450889467E+03  0.00000000000E+00 0. -1.
          6    1    1    2  501    0 -0.12470173409E+02  0.36383826232E+03  0.41823465183E+01  0.40308842501E+03  0.17300000000E+03 0. -1.
         -6    1    1    2    0  502  0.12470173409E+02 -0.36383826232E+03  0.11235436451E+04  0.11936553560E+04  0.17300000000E+03 0. -1.
</event>
<event>
 4    1  0.5929306E+000  0.1000000E+03  0.7546771E-02  0.1280296E+00
         21   -1    0    0  503  502  0.00000000000E+00  0.00000000000E+00  0.99449495736E+03  0.99449495736E+03  0.00000000000E+00 0. -1.
         21   -1    0    0  501  503 -0.00000000000E+00 -0.00000000000E+00 -0.59363764859E+02  0.59363764859E+02  0.00000000000E+00 0. -1.
          6    1    1    2  501    0 -0.16000913937E+03  0.32548727396E+02  0.36031865419E+03  0.43176483981E+03  0.17300000000E+03 0. -1.
         -6    1    1    2    0  502  0.16000913937E+03 -0.32548727396E+02  0.57481253830E+03  0.62209388240E+03  0.17300000000E+03 0. -1.
</event>
<event>
 4    1  0.5929306E+000  0.1000000E+03  0.7546771E-02  0.1280296E+00
         21   -1    0    0  503  502  0.00000000000E+00  0.00000000000E+00  0.78275044404E+03  0.78275044404E+03  0.00000000000E+00 0.  1.
         21   -1    0    0  501  503 -0.00000000000E+00 -0.00000000000E+00 -0.11148763226E+03  0.11148763226E+03  0.00000000000E+00 0.  1.
          6    1    1    2  501    0  0.17538874525E+03 -0.59413498463E+01  0.89049764072E+02  0.26202170154E+03  0.17300000000E+03 0.  1.
         -6    1    1    2    0  502 -0.17538874525E+03  0.59413498463E+01  0.58221304771E+03  0.63221637476E+03  0.17300000000E+03 0.  1.
</event>
<event>
 4    1  0.5929306E+000  0.1000000E+03  0.7546771E-02  0.1280296E+00
         21   -1    0    0  503  502  0.00000000000E+00  0.00000000000E+00  0.15483173499E+03  0.15483173499E+03  0.00000000000E+00 0.  1.
         21   -1    0    0  501  503 -0.00000000000E+00 -0.00000000000E+00 -0.73523818862E+03  0.73523818862E+03  0.00000000000E+00 0.  1.
          6    1    1    2  501    0  0.36896215195E+02  0.82339497463E+02 -0.65327564305E+03  0.68179116255E+03  0.17300000000E+03 0.  1.
         -6    1    1    2    0  502 -0.36896215195E+02 -0.82339497463E+02  0.72869189418E+02  0.20827876105E+03  0.17300000000E+03 0.  1.
</event>
<event>
 4    1  0.5929306E+000  0.1000000E+03  0.7546771E-02  0.1280296E+00
         21   -1    0    0  501  502  0.00000000000E+00  0.00000000000E+00  0.52884361065E+02  0.52884361065E+02  0.00000000000E+00 0.  1.
         21   -1    0    0  502  503 -0.00000000000E+00 -0.00000000000E+00 -0.70911605616E+03  0.70911605616E+03  0.00000000000E+00 0.  1.
          6    1    1    2  501    0  0.20413262322E+02  0.58180359247E+02 -0.20730607848E+03  0.27695932130E+03  0.17300000000E+03 0.  1.
         -6    1    1    2    0  503 -0.20413262322E+02 -0.58180359247E+02 -0.44892561662E+03  0.48504109592E+03  0.17300000000E+03 0.  1.
</event>
<event>
 4    1  0.5929306E+000  0.1000000E+03  0.7546771E-02  0.1280296E+00
         21   -1    0    0  503  502  0.00000000000E+00  0.00000000000E+00  0.31591216904E+03  0.31591216904E+03  0.00000000000E+00 0.  1.
         21   -1    0    0  501  503 -0.00000000000E+00 -0.00000000000E+00 -0.29214565901E+03  0.29214565901E+03  0.00000000000E+00 0. -1.
          6    1    1    2  501    0  0.61854177897E+02 -0.12439463043E+02 -0.22992662395E+03  0.29457754831E+03  0.17300000000E+03 0. -1.
         -6    1    1    2    0  502 -0.61854177897E+02  0.12439463043E+02  0.25369313398E+03  0.31348027975E+03  0.17300000000E+03 0.  1.
</event>
<event>
 4    1  0.5929306E+000  0.1000000E+03  0.7546771E-02  0.1280296E+00
         21   -1    0    0  503  502  0.00000000000E+00  0.00000000000E+00  0.12757604683E+03  0.12757604683E+03  0.00000000000E+00 0.  1.
         21   -1    0    0  501  503 -0.00000000000E+00 -0.00000000000E+00 -0.12228920825E+04  0.12228920825E+04  0.00000000000E+00 0. -1.
          6    1    1    2  501    0  0.90712147993E+02  0.16877313735E+03 -0.10587167210E+04  0.10897353628E+04  0.17300000000E+03 0. -1.
         -6    1    1    2    0  502 -0.90712147993E+02 -0.16877313735E+03 -0.36599314662E+02  0.26073276649E+03  0.17300000000E+03 0.  1.
</event>
<event>
 4    1  0.5929306E+000  0.1000000E+03  0.7546771E-02  0.1280296E+00
         21   -1    0    0  501  502  0.00000000000E+00  0.00000000000E+00  0.32069760498E+03  0.32069760498E+03  0.00000000000E+00 0.  1.
         21   -1    0    0  502  503 -0.00000000000E+00 -0.00000000000E+00 -0.20191695809E+03  0.20191695809E+03  0.00000000000E+00 0.  1.
          6    1    1    2  501    0  0.21196472346E+02  0.26073740374E+02  0.24788861851E+03  0.30414946583E+03  0.17300000000E+03 0.  1.
         -6    1    1    2    0  503 -0.21196472346E+02 -0.26073740374E+02 -0.12910797162E+03  0.21846509724E+03  0.17300000000E+03 0.  1.
</event>
<event>
 4    1  0.5929306E+000  0.1000000E+03  0.7546771E-02  0.1280296E+00
         21   -1    0    0  501  502  0.00000000000E+00  0.00000000000E+00  0.35619718731E+03  0.35619718731E+03  0.00000000000E+00 0.  1.
         21   -1    0    0  502  503 -0.00000000000E+00 -0.00000000000E+00 -0.90704780881E+02  0.90704780881E+02  0.00000000000E+00 0.  1.
          6    1    1    2  501    0 -0.42382579510E+02 -0.23665812739E+02  0.13876411700E+03  0.22702606437E+03  0.17300000000E+03 0.  1.
         -6    1    1    2    0  503  0.42382579510E+02  0.23665812739E+02  0.12672828944E+03  0.21987590382E+03  0.17300000000E+03 0.  1.
</event>
<event>
 4    1  0.5929306E+000  0.1000000E+03  0.7546771E-02  0.1280296E+00
         21   -1    0    0  501  502  0.00000000000E+00  0.00000000000E+00  0.12471785696E+04  0.12471785696E+04  0.00000000000E+00 0.  1.
         21   -1    0    0  502  503 -0.00000000000E+00 -0.00000000000E+00 -0.14213042725E+03  0.14213042725E+03  0.00000000000E+00 0.  1.
          6    1    1    2  501    0  0.29038517089E+03  0.22551274517E+03  0.37063304298E+03  0.54997945257E+03  0.17300000000E+03 0.  1.
         -6    1    1    2    0  503 -0.29038517089E+03 -0.22551274517E+03  0.73441509939E+03  0.83932954429E+03  0.17300000000E+03 0.  1.
</event>
<event>
 4    1  0.5929306E+000  0.1000000E+03  0.7546771E-02  0.1280296E+00
         21   -1    0    0  501  502  0.00000000000E+00  0.00000000000E+00  0.51459564558E+03  0.51459564558E+03  0.00000000000E+00 0.  1.
         21   -1    0    0  502  503 -0.00000000000E+00 -0.00000000000E+00 -0.28621123047E+03  0.28621123047E+03  0.00000000000E+00 0.  1.
          6    1    1    2  501    0  0.16193226754E+02 -0.12726704845E+03  0.44559493792E+03  0.49491713540E+03  0.17300000000E+03 0.  1.
         -6    1    1    2    0  503 -0.16193226754E+02  0.12726704845E+03 -0.21721052281E+03  0.30588974065E+03  0.17300000000E+03 0.  1.
</event>
<event>
 4    1  0.5929306E+000  0.1000000E+03  0.7546771E-02  0.1280296E+00
         21   -1    0    0  503  502  0.00000000000E+00  0.00000000000E+00  0.15477138964E+04  0.15477138964E+04  0.00000000000E+00 0. -1.
         21   -1    0    0  501  503 -0.00000000000E+00 -0.00000000000E+00 -0.16684611665E+03  0.16684611665E+03  0.00000000000E+00 0.  1.
          6    1    1    2  501    0 -0.79707243529E+02  0.39237436157E+02 -0.10158074846E+03  0.21940936517E+03  0.17300000000E+03 0.  1.
         -6    1    1    2    0  502  0.79707243529E+02 -0.39237436157E+02  0.14824485282E+04  0.14951506479E+04  0.17300000000E+03 0. -1.
</event>
<event>
 4    1  0.5929306E+000  0.1000000E+03  0.7546771E-02  0.1280296E+00
         21   -1    0    0  503  502  0.00000000000E+00  0.00000000000E+00  0.50033570078E+02  0.50033570078E+02  0.00000000000E+00 0. -1.
         21   -1    0    0  501  503 -0.00000000000E+00 -0.00000000000E+00 -0.11873457281E+04  0.11873457281E+04  0.00000000000E+00 0.  1.
          6    1    1    2  501    0  0.10510113852E+03  0.80480943512E+02 -0.84619449428E+03  0.87378347074E+03  0.17300000000E+03 0.  1.
         -6    1    1    2    0  502 -0.10510113852E+03 -0.80480943512E+02 -0.29111766373E+03  0.36359582743E+03  0.17300000000E+03 0. -1.
</event>
<event>
 4    1  0.5929306E+000  0.1000000E+03  0.7546771E-02  0.1280296E+00
         21   -1    0    0  503  502  0.00000000000E+00  0.00000000000E+00  0.61141603531E+03  0.61141603531E+03  0.00000000000E+00 0. -1.
         21   -1    0    0  501  503 -0.00000000000E+00 -0.00000000000E+00 -0.81693967832E+02  0.81693967832E+02  0.00000000000E+00 0. -1.
          6    1    1    2  501    0  0.41642220533E+02  0.13276000724E+03  0.22500321732E+03  0.31609293231E+03  0.17300000000E+03 0. -1.
         -6    1    1    2    0  502 -0.41642220533E+02 -0.13276000724E+03  0.30471885017E+03  0.37701707083E+03  0.17300000000E+03 0. -1.
</event>
<event>
 4    1  0.5929306E+000  0.1000000E+03  0.7546771E-02  0.1280296E+00
         21   -1    0    0  503  502  0.00000000000E+00  0.00000000000E+00  0.25405778928E+03  0.25405778928E+03  0.00000000000E+00 0. -1.
         21   -1    0    0  501  503 -0.00000000000E+00 -0.00000000000E+00 -0.26678810389E+03  0.26678810389E+03  0.00000000000E+00 0. -1.
          6    1    1    2  501    0  0.63060025560E+01  0.10661755295E+03 -0.16902841138E+03  0.26439869916E+03  0.17300000000E+03 0. -1.
         -6    1    1    2    0  502 -0.63060025560E+01 -0.10661755295E+03  0.15629809676E+03  0.25644719401E+03  0.17300000000E+03 0. -1.
</event>
<event>
 4    1  0.5929306E+000  0.1000000E+03  0.7546771E-02  0.1280296E+00
         21   -1    0    0  503  502  0.00000000000E+00  0.00000000000E+00  0.35388045957E+03  0.35388045957E+03  0.00000000000E+00 0. -1.
         21   -1    0    0  501  503 -0.00000000000E+00 -0.00000000000E+00 -0.14246043510E+03  0.14246043510E+03  0.00000000000E+00 0.  1.
          6    1    1    2  501    0  0.68618421804E+02  0.11742103415E+03  0.15500102050E+03  0.26916631184E+03  0.17300000000E+03 0.  1.
         -6    1    1    2    0  502 -0.68618421804E+02 -0.11742103415E+03  0.56419003975E+02  0.22717458283E+03  0.17300000000E+03 0. -1.
</event>
<event>
 4    1  0.5929306E+000  0.1000000E+03  0.7546771E-02  0.1280296E+00
         21   -1    0    0  503  502  0.00000000000E+00  0.00000000000E+00  0.25772144477E+03  0.25772144477E+03  0.00000000000E+00 0. -1.
         21   -1    0    0  501  503 -0.00000000000E+00 -0.00000000000E+00 -0.91971691501E+03  0.91971691501E+03  0.00000000000E+00 0.  1.
          6    1    1    2  501    0  0.67415934329E+02  0.81379714291E+02 -0.86625300271E+03  0.88965770429E+03  0.17300000000E+03 0.  1.
         -6    1    1    2    0  502 -0.67415934329E+02 -0.81379714291E+02  0.20425753248E+03  0.28778065549E+03  0.17300000000E+03 0. -1.
</event>
<event>
 4    1  0.5929306E+000  0.1000000E+03  0.7546771E-02  0.1280296E+00
         21   -1    0    0  503  502  0.00000000000E+00  0.00000000000E+00  0.15422062178E+04  0.15422062178E+04  0.00000000000E+00 0.  1.
         21   -1    0    0  501  503 -0.00000000000E+00 -0.00000000000E+00 -0.20209609297E+03  0.20209609297E+03  0.00000000000E+00 0. -1.
          6    1    1    2  501    0 -0.18256111863E+03  0.23436149959E+02 -0.10771453631E+03  0.27460742250E+03  0.17300000000E+03 0. -1.
         -6    1    1    2    0  502  0.18256111863E+03 -0.23436149959E+02  0.14478246611E+04  0.14696948882E+04  0.17300000000E+03 0.  1.
</event>
<event>
 4    1  0.5929306E+000  0.1000000E+03  0.7546771E-02  0.1280296E+00
         21   -1    0    0  503  502  0.00000000000E+00  0.00000000000E+00  0.17337300012E+04  0.17337300012E+04  0.00000000000E+00 0.  1.
         21   -1    0    0  501  503 -0.00000000000E+00 -0.00000000000E+00 -0.34166777200E+02  0.34166777200E+02  0.00000000000E+00 0. -1.
          6    1    1    2  501    0 -0.10533714410E+03 -0.12514686416E+03  0.10331590628E+04  0.10602378509E+04  0.17300000000E+03 0. -1.
         -6    1    1    2    0  502  0.10533714410E+03  0.12514686416E+03  0.66640416118E+03  0.70765892743E+03  0.17300000000E+03 0.  1.
</event>
<event>
 4    1  0.5929306E+000  0.1000000E+03  0.7546771E-02  0.1280296E+00
         21   -1    0    0  501  502  0.00000000000E+00  0.00000000000E+00  0.22567486837E+03  0.22567486837E+03  0.00000000000E+00 0. -1.
         21   -1    0    0  502  503 -0.00000000000E+00 -0.00000000000E+00 -0.13814834279E+03  0.13814834279E+03  0.00000000000E+00 0.  1.
          6    1    1    2  501    0 -0.34597825747E+02 -0.53573352027E+01  0.48584439382E+02  0.18307145691E+03  0.17300000000E+03 0. -1.
         -6    1    1    2    0  503  0.34597825747E+02  0.53573352027E+01  0.38942086198E+02  0.18075175425E+03  0.17300000000E+03 0.  1.
</event>
<event>
 4    1  0.5929306E+000  0.1000000E+03  0.7546771E-02  0.1280296E+00
         21   -1    0    0  503  502  0.00000000000E+00  0.00000000000E+00  0.28183140383E+03  0.28183140383E+03  0.00000000000E+00 0.  1.
         21   -1    0    0  501  503 -0.00000000000E+00 -0.00000000000E+00 -0.30865809105E+03  0.30865809105E+03  0.00000000000E+00 0.  1.
          6    1    1    2  501    0  0.23157593731E+02  0.50418780992E+02 -0.24599422250E+03  0.30581119196E+03  0.17300000000E+03 0.  1.
         -6    1    1    2    0  502 -0.23157593731E+02 -0.50418780992E+02  0.21916753528E+03  0.28467830291E+03  0.17300000000E+03 0.  1.
</event>
<event>
 4    1  0.5929306E+000  0.1000000E+03  0.7546771E-02  0.1280296E+00
         21   -1    0    0  503  502  0.00000000000E+00  0.00000000000E+00  0.62519318622E+02  0.62519318622E+02  0.00000000000E+00 0.  1.
         21   -1    0    0  501  503 -0.00000000000E+00 -0.00000000000E+00 -0.85015568616E+03  0.85015568616E+03  0.00000000000E+00 0.  1.
          6    1    1    2  501    0 -0.29819950150E+02  0.42105496228E+02 -0.67763747768E+03  0.70127288083E+03  0.17300000000E+03 0.  1.
         -6    1    1    2    0  502  0.29819950150E+02 -0.42105496228E+02 -0.10999888986E+03  0.21140212395E+03  0.17300000000E+03 0.  1.
</event>
<event>
 4    1  0.5929306E+000  0.1000000E+03  0.7546771E-02  0.1280296E+00
         21   -1    0    0  503  502  0.00000000000E+00  0.00000000000E+00  0.25766732872E+03  0.25766732872E+03  0.00000000000E+00 0.  1.
         21   -1    0    0  501  503 -0.00000000000E+00 -0.00000000000E+00 -0.16238906403E+03  0.16238906403E+03  0.00000000000E+00 0.  1.
          6    1    1    2  501    0 -0.16417579390E+02 -0.20580826030E+02 -0.61121264617E+02  0.18535888514E+03  0.17300000000E+03 0.  1.
         -6    1    1    2    0  502  0.16417579390E+02  0.20580826030E+02  0.15639952931E+03  0.23469750761E+03  0.17300000000E+03 0.  1.
</event>
<event>
 4    1  0.5929306E+000  0.1000000E+03  0.7546771E-02  0.1280296E+00
         21   -1    0    0  501  502  0.00000000000E+00  0.00000000000E+00  0.42554800631E+03  0.42554800631E+03  0.00000000000E+00 0. -1.
         21   -1    0    0  502  503 -0.00000000000E+00 -0.00000000000E+00 -0.11203146246E+03  0.11203146246E+03  0.00000000000E+00 0.  1.
          6    1    1    2  501    0 -0.56301639320E+02  0.11979631641E+03  0.17521277192E+03  0.27955240557E+03  0.17300000000E+03 0. -1.
         -6    1    1    2    0  503  0.56301639320E+02 -0.11979631641E+03  0.13830377192E+03  0.25802706320E+03  0.17300000000E+03 0.  1.
</event>
<event>
 4    1  0.5929306E+000  0.1000000E+03  0.7546771E-02  0.1280296E+00
         21   -1    0    0  501  502  0.00000000000E+00  0.00000000000E+00  0.87499605949E+03  0.87499605949E+03  0.00000000000E+00 0. -1.
         21   -1    0    0  502  503 -0.00000000000E+00 -0.00000000000E+00 -0.40180676783E+02  0.40180676783E+02  0.00000000000E+00 0.  1.
          6    1    1    2  501    0 -0.43926500592E+00 -0.63872321404E+02  0.50013255621E+03  0.53304919114E+03  0.17300000000E+03 0. -1.
         -6    1    1    2    0  503  0.43926500592E+00  0.63872321404E+02  0.33468282650E+03  0.38212754513E+03  0.17300000000E+03 0.  1.
</event>
<event>
 4    1  0.5929306E+000  0.1000000E+03  0.7546771E-02  0.1280296E+00
         21   -1    0    0  501  502  0.00000000000E+00  0.00000000000E+00  0.24540141120E+03  0.24540141120E+03  0.00000000000E+00 0. -1.
         21   -1    0    0  502  503 -0.00000000000E+00 -0.00000000000E+00 -0.37198420379E+03  0.37198420379E+03  0.00000000000E+00 0.  1.
          6    1    1    2  501    0 -0.57545079949E+02  0.39179376627E+02  0.17958669663E+03  0.25889542558E+03  0.17300000000E+03 0. -1.
         -6    1    1    2    0  503  0.57545079949E+02 -0.39179376627E+02 -0.30616948922E+03  0.35849018941E+03  0.17300000000E+03 0.  1.
</event>
<event>
 4    1  0.5929306E+000  0.1000000E+03  0.7546771E-02  0.1280296E+00
         21   -1    0    0  503  502  0.00000000000E+00  0.00000000000E+00  0.82033407468E+02  0.82033407468E+02  0.00000000000E+00 0. -1.
         21   -1    0    0  501  503 -0.00000000000E+00 -0.00000000000E+00 -0.41770600444E+03  0.41770600444E+03  0.00000000000E+00 0.  1.
          6    1    1    2  501    0 -0.39958732384E+02 -0.26272349502E+02 -0.22895164682E+03  0.29092059608E+03  0.17300000000E+03 0.  1.
         -6    1    1    2    0  502  0.39958732384E+02  0.26272349502E+02 -0.10672095015E+03  0.20881881583E+03  0.17300000000E+03 0. -1.
</event>
<event>
 4    1  0.5929306E+000  0.1000000E+03  0.7546771E-02  0.1280296E+00
         21   -1    0    0  503  502  0.00000000000E+00  0.00000000000E+00  0.16105355193E+03  0.16105355193E+03  0.00000000000E+00 0. -1.
         21   -1    0    0  501  503 -0.00000000000E+00 -0.00000000000E+00 -0.78322095896E+03  0.78322095896E+03  0.00000000000E+00 0.  1.
          6    1    1    2  501    0  0.99858345204E+02 -0.21260017082E+03 -0.58039211064E+03  0.64958026743E+03  0.17300000000E+03 0.  1.
         -6    1    1    2    0  502 -0.99858345204E+02  0.21260017082E+03 -0.41775296397E+02  0.29469424346E+03  0.17300000000E+03 0. -1.
</event>
<event>
 4    1  0.5929306E+000  0.1000000E+03  0.7546771E-02  0.1280296E+00
         21   -1    0    0  503  502  0.00000000000E+00  0.00000000000E+00  0.19045223376E+03  0.19045223376E+03  0.00000000000E+00 0. -1.
         21   -1    0    0  501  503 -0.00000000000E+00 -0.00000000000E+00 -0.27179246829E+03  0.27179246829E+03  0.00000000000E+00 0.  1.
          6    1    1    2  501    0  0.85101231136E+02 -0.10705408546E+02 -0.16290055015E+03  0.25263098494E+03  0.17300000000E+03 0.  1.
         -6    1    1    2    0  502 -0.85101231136E+02  0.10705408546E+02  0.81560315629E+02  0.20961371711E+03  0.17300000000E+03 0. -1.
</event>
<event>
 4    1  0.5929306E+000  0.1000000E+03  0.7546771E-02  0.1280296E+00
         21   -1    0    0  503  502  0.00000000000E+00  0.00000000000E+00  0.36464927862E+03  0.36464927862E+03  0.00000000000E+00 0. -1.
         21   -1    0    0  501  503 -0.00000000000E+00 -0.00000000000E+00 -0.10795114687E+03  0.10795114687E+03  0.00000000000E+00 0.  1.
          6    1    1    2  501    0 -0.91204716177E-01  0.75189415802E+02  0.55106251249E+02  0.19651757045E+03  0.17300000000E+03 0.  1.
         -6    1    1    2    0  502  0.91204716177E-01 -0.75189415802E+02  0.20159188050E+03  0.27608285505E+03  0.17300000000E+03 0. -1.
</event>
<event>
 4    1  0.5929306E+000  0.1000000E+03  0.7546771E-02  0.1280296E+00
         21   -1    0    0  503  502  0.00000000000E+00  0.00000000000E+00  0.13418750850E+03  0.13418750850E+03  0.00000000000E+00 0. -1.
         21   -1    0    0  501  503 -0.00000000000E+00 -0.00000000000E+00 -0.28950878820E+03  0.28950878820E+03  0.00000000000E+00 0.  1.
          6    1    1    2  501    0 -0.64583677446E+02 -0.31202634691E+02 -0.14369730569E+03  0.23605628877E+03  0.17300000000E+03 0.  1.
         -6    1    1    2    0  502  0.64583677446E+02  0.31202634691E+02 -0.11623974013E+02  0.18764000793E+03  0.17300000000E+03 0. -1.
</event>
<event>
 4    1  0.5929306E+000  0.1000000E+03  0.7546771E-02  0.1280296E+00
         21   -1    0    0  501  502  0.00000000000E+00  0.00000000000E+00  0.14516166384E+03  0.14516166384E+03  0.00000000000E+00 0. -1.
         21   -1    0    0  502  503 -0.00000000000E+00 -0.00000000000E+00 -0.98080725783E+03  0.98080725783E+03  0.00000000000E+00 0. -1.
          6    1    1    2  501    0 -0.72615981527E+02  0.66939771160E+02  0.60309607217E+02  0.20813520235E+03  0.17300000000E+03 0. -1.
         -6    1    1    2    0  503  0.72615981527E+02 -0.66939771160E+02 -0.89595520121E+03  0.91783371931E+03  0.17300000000E+03 0. -1.
</event>
<event>
 4    1  0.5929306E+000  0.1000000E+03  0.7546771E-02  0.1280296E+00
         21   -1    0    0  503  502  0.00000000000E+00  0.00000000000E+00  0.30615372002E+03  0.30615372002E+03  0.00000000000E+00 0. -1.
         21   -1    0    0  501  503 -0.00000000000E+00 -0.00000000000E+00 -0.16417241056E+03  0.16417241056E+03  0.00000000000E+00 0.  1.
          6    1    1    2  501    0  0.51998308249E+02 -0.11124509134E+03 -0.50388010098E+01  0.21221141327E+03  0.17300000000E+03 0.  1.
         -6    1    1    2    0  502 -0.51998308249E+02  0.11124509134E+03  0.14702011048E+03  0.25811471731E+03  0.17300000000E+03 0. -1.
</event>
<event>
 4    1  0.5929306E+000  0.1000000E+03  0.7546771E-02  0.1280296E+00
         21   -1    0    0  503  502  0.00000000000E+00  0.00000000000E+00  0.14871179173E+03  0.14871179173E+03  0.00000000000E+00 0. -1.
         21   -1    0    0  501  503 -0.00000000000E+00 -0.00000000000E+00 -0.42925341186E+03  0.42925341186E+03  0.00000000000E+00 0. -1.
          6    1    1    2  501    0  0.11304357374E+03 -0.13038742572E+03 -0.66798578072E+02  0.25331952231E+03  0.17300000000E+03 0. -1.
         -6    1    1    2    0  502 -0.11304357374E+03  0.13038742572E+03 -0.21374304206E+03  0.32464568129E+03  0.17300000000E+03 0. -1.
</event>
<event>
 4    1  0.5929306E+000  0.1000000E+03  0.7546771E-02  0.1280296E+00
         21   -1    0    0  503  502  0.00000000000E+00  0.00000000000E+00  0.25070901019E+03  0.25070901019E+03  0.00000000000E+00 0. -1.
         21   -1    0    0  501  503 -0.00000000000E+00 -0.00000000000E+00 -0.19873247039E+03  0.19873247039E+03  0.00000000000E+00 0. -1.
          6    1    1    2  501    0  0.88580347477E+02  0.50804844974E+02  0.12394615026E+03  0.23604927112E+03  0.17300000000E+03 0. -1.
         -6    1    1    2    0  502 -0.88580347477E+02 -0.50804844974E+02 -0.71969610456E+02  0.21339220947E+03  0.17300000000E+03 0. -1.
</event>
<event>
 4    1  0.5929306E+000  0.1000000E+03  0.7546771E-02  0.1280296E+00
         21   -1    0    0  503  502  0.00000000000E+00  0.00000000000E+00  0.21250656041E+03  0.21250656041E+03  0.00000000000E+00 0. -1.
         21   -1    0    0  501  503 -0.00000000000E+00 -0.00000000000E+00 -0.24026708241E+03  0.24026708241E+03  0.00000000000E+00 0. -1.
          6    1    1    2  501    0 -0.11582091725E+03 -0.14968006429E+02 -0.10059283625E+03  0.23170335516E+03  0.17300000000E+03 0. -1.
         -6    1    1    2    0  502  0.11582091725E+03  0.14968006429E+02  0.72832314248E+02  0.22107028766E+03  0.17300000000E+03 0. -1.
</event>
<event>
 4    1  0.5929306E+000  0.1000000E+03  0.7546771E-02  0.1280296E+00
         21   -1    0    0  503  502  0.00000000000E+00  0.00000000000E+00  0.11522701022E+03  0.11522701022E+03  0.00000000000E+00 0. -1.
         21   -1    0    0  501  503 -0.00000000000E+00 -0.00000000000E+00 -0.49394575690E+03  0.49394575690E+03  0.00000000000E+00 0. -1.
          6    1    1    2  501    0  0.51315132935E+02  0.20011320343E+02 -0.38695414592E+03  0.42742976833E+03  0.17300000000E+03 0. -1.
         -6    1    1    2    0  502 -0.51315132935E+02 -0.20011320343E+02  0.82353992326E+01  0.18174299879E+03  0.17300000000E+03 0. -1.
</event>
<event>
 4    1  0.5929306E+000  0.1000000E+03  0.7546771E-02  0.1280296E+00
         21   -1    0    0  503  502  0.00000000000E+00  0.00000000000E+00  0.13860070988E+03  0.13860070988E+03  0.00000000000E+00 0. -1.
         21   -1    0    0  501  503 -0.00000000000E+00 -0.00000000000E+00 -0.42440058332E+03  0.42440058332E+03  0.00000000000E+00 0. -1.
          6    1    1    2  501    0  0.10418719824E+03 -0.12109041599E+03 -0.75467508703E+02  0.24726950073E+03  0.17300000000E+03 0. -1.
         -6    1    1    2    0  502 -0.10418719824E+03  0.12109041599E+03 -0.21033236473E+03  0.31573179247E+03  0.17300000000E+03 0. -1.
</event>
<event>
 4    1  0.5929306E+000  0.1000000E+03  0.7546771E-02  0.1280296E+00
         21   -1    0    0  503  502  0.00000000000E+00  0.00000000000E+00  0.61618076247E+03  0.61618076247E+03  0.00000000000E+00 0. -1.
         21   -1    0    0  501  503 -0.00000000000E+00 -0.00000000000E+00 -0.83067218726E+02  0.83067218726E+02  0.00000000000E+00 0. -1.
          6    1    1    2  501    0  0.51294532363E+02 -0.84941974161E+02  0.10149023226E+03  0.22377563600E+03  0.17300000000E+03 0. -1.
         -6    1    1    2    0  502 -0.51294532363E+02  0.84941974161E+02  0.43162331149E+03  0.47547234519E+03  0.17300000000E+03 0. -1.
</event>
<event>
 4    1  0.5929306E+000  0.1000000E+03  0.7546771E-02  0.1280296E+00
         21   -1    0    0  503  502  0.00000000000E+00  0.00000000000E+00  0.23032950693E+02  0.23032950693E+02  0.00000000000E+00 0.  1.
         21   -1    0    0  501  503 -0.00000000000E+00 -0.00000000000E+00 -0.22682515664E+04  0.22682515664E+04  0.00000000000E+00 0. -1.
          6    1    1    2  501    0  0.99485073935E+02 -0.11112564832E+03 -0.11643452898E+04  0.11865391453E+04  0.17300000000E+03 0.  1.
         -6    1    1    2    0  502 -0.99485073935E+02  0.11112564832E+03 -0.10808733259E+04  0.11047453717E+04  0.17300000000E+03 0. -1.
</event>
<event>
 4    1  0.5929306E+000  0.1000000E+03  0.7546771E-02  0.1280296E+00
         21   -1    0    0  503  502  0.00000000000E+00  0.00000000000E+00  0.37658309221E+02  0.37658309221E+02  0.00000000000E+00 0. -1.
         21   -1    0    0  501  503 -0.00000000000E+00 -0.00000000000E+00 -0.10600448966E+04  0.10600448966E+04  0.00000000000E+00 0.  1.
          6    1    1    2  501    0  0.10486980231E+02 -0.46338358805E+02 -0.26962261639E+03  0.32385579432E+03  0.17300000000E+03 0.  1.
         -6    1    1    2    0  502 -0.10486980231E+02  0.46338358805E+02 -0.75276397095E+03  0.77384741145E+03  0.17300000000E+03 0. -1.
</event>
<event>
 4    1  0.5929306E+000  0.1000000E+03  0.7546771E-02  0.1280296E+00
         21   -1    0    0  503  502  0.00000000000E+00  0.00000000000E+00  0.56553306490E+03  0.56553306490E+03  0.00000000000E+00 0. -1.
         21   -1    0    0  501  503 -0.00000000000E+00 -0.00000000000E+00 -0.12806998606E+04  0.12806998606E+04  0.00000000000E+00 0.  1.
          6    1    1    2  501    0  0.58982967264E+02 -0.31230801771E+03 -0.11930967014E+04  0.12467654259E+04  0.17300000000E+03 0.  1.
         -6    1    1    2    0  502 -0.58982967264E+02  0.31230801771E+03  0.47792990568E+03  0.59946749961E+03  0.17300000000E+03 0. -1.
</event>
<event>
 4    1  0.5929306E+000  0.1000000E+03  0.7546771E-02  0.1280296E+00
         21   -1    0    0  503  502  0.00000000000E+00  0.00000000000E+00  0.58332633984E+03  0.58332633984E+03  0.00000000000E+00 0. -1.
         21   -1    0    0  501  503 -0.00000000000E+00 -0.00000000000E+00 -0.10810739579E+03  0.10810739579E+03  0.00000000000E+00 0.  1.
          6    1    1    2  501    0  0.69088520003E+02  0.11069827739E+03  0.62896569577E+02  0.22563756486E+03  0.17300000000E+03 0.  1.
         -6    1    1    2    0  502 -0.69088520003E+02 -0.11069827739E+03  0.41232237447E+03  0.46579617077E+03  0.17300000000E+03 0. -1.
</event>
<event>
 4    1  0.5929306E+000  0.1000000E+03  0.7546771E-02  0.1280296E+00
         21   -1    0    0  503  502  0.00000000000E+00  0.00000000000E+00  0.61199916082E+02  0.61199916082E+02  0.00000000000E+00 0. -1.
         21   -1    0    0  501  503 -0.00000000000E+00 -0.00000000000E+00 -0.67965309684E+03  0.67965309684E+03  0.00000000000E+00 0.  1.
          6    1    1    2  501    0  0.26165124314E+02 -0.55821169121E+02 -0.47030413539E+03  0.50489166801E+03  0.17300000000E+03 0.  1.
         -6    1    1    2    0  502 -0.26165124314E+02  0.55821169121E+02 -0.14814904536E+03  0.23596134492E+03  0.17300000000E+03 0. -1.
</event>
<event>
 4    1  0.5929306E+000  0.1000000E+03  0.7546771E-02  0.1280296E+00
         21   -1    0    0  501  502  0.00000000000E+00  0.00000000000E+00  0.16134042620E+03  0.16134042620E+03  0.00000000000E+00 0.  1.
         21   -1    0    0  502  503 -0.00000000000E+00 -0.00000000000E+00 -0.21808686067E+03  0.21808686067E+03  0.00000000000E+00 0. -1.
          6    1    1    2  501    0  0.40356721337E+02 -0.26564820726E+02  0.26305351991E+02  0.18153601902E+03  0.17300000000E+03 0.  1.
         -6    1    1    2    0  503 -0.40356721337E+02  0.26564820726E+02 -0.83051786460E+02  0.19789126785E+03  0.17300000000E+03 0. -1.
</event>
<event>
 4    1  0.5929306E+000  0.1000000E+03  0.7546771E-02  0.1280296E+00
         21   -1    0    0  501  502  0.00000000000E+00  0.00000000000E+00  0.43923501477E+02  0.43923501477E+02  0.00000000000E+00 0.  1.
         21   -1    0    0  502  503 -0.00000000000E+00 -0.00000000000E+00 -0.18076167582E+04  0.18076167582E+04  0.00000000000E+00 0. -1.
          6    1    1    2  501    0  0.10400930738E+03 -0.56142697702E+02 -0.26282909029E+03  0.33612210464E+03  0.17300000000E+03 0.  1.
         -6    1    1    2    0  503 -0.10400930738E+03  0.56142697702E+02 -0.15008641665E+04  0.15154181551E+04  0.17300000000E+03 0. -1.
</event>
<event>
 4    1  0.5929306E+000  0.1000000E+03  0.7546771E-02  0.1280296E+00
         21   -1    0    0  501  502  0.00000000000E+00  0.00000000000E+00  0.34175806635E+03  0.34175806635E+03  0.00000000000E+00 0.  1.
         21   -1    0    0  502  503 -0.00000000000E+00 -0.00000000000E+00 -0.93001673620E+02  0.93001673620E+02  0.00000000000E+00 0. -1.
          6    1    1    2  501    0  0.43016823016E+02  0.87826712057E-01  0.12175813298E+03  0.21588074884E+03  0.17300000000E+03 0.  1.
         -6    1    1    2    0  503 -0.43016823016E+02 -0.87826712057E-01  0.12699825976E+03  0.21887899113E+03  0.17300000000E+03 0. -1.
</event>
<event>
 4    1  0.5929306E+000  0.1000000E+03  0.7546771E-02  0.1280296E+00
         21   -1    0    0  501  502  0.00000000000E+00  0.00000000000E+00  0.37760458934E+03  0.37760458934E+03  0.00000000000E+00 0.  1.
         21   -1    0    0  502  503 -0.00000000000E+00 -0.00000000000E+00 -0.25848982113E+03  0.25848982113E+03  0.00000000000E+00 0. -1.
          6    1    1    2  501    0  0.71738964245E+02  0.18133397030E+02  0.31345326212E+03  0.36559163915E+03  0.17300000000E+03 0.  1.
         -6    1    1    2    0  503 -0.71738964245E+02 -0.18133397030E+02 -0.19433849391E+03  0.27050277133E+03  0.17300000000E+03 0. -1.
</event>
<event>
 4    1  0.5929306E+000  0.1000000E+03  0.7546771E-02  0.1280296E+00
         21   -1    0    0  501  502  0.00000000000E+00  0.00000000000E+00  0.16564430035E+04  0.16564430035E+04  0.00000000000E+00 0.  1.
         21   -1    0    0  502  503 -0.00000000000E+00 -0.00000000000E+00 -0.32031730600E+02  0.32031730600E+02  0.00000000000E+00 0. -1.
          6    1    1    2  501    0 -0.23028221173E+02 -0.44115876304E+02  0.13389259587E+04  0.13509730687E+04  0.17300000000E+03 0.  1.
         -6    1    1    2    0  503  0.23028221173E+02  0.44115876304E+02  0.28548531418E+03  0.33750166537E+03  0.17300000000E+03 0. -1.
</event>
<event>
 4    1  0.5929306E+000  0.1000000E+03  0.7546771E-02  0.1280296E+00
         21   -1    0    0  501  502  0.00000000000E+00  0.00000000000E+00  0.28609254365E+03  0.28609254365E+03  0.00000000000E+00 0.  1.
         21   -1    0    0  502  503 -0.00000000000E+00 -0.00000000000E+00 -0.20434099636E+03  0.20434099636E+03  0.00000000000E+00 0. -1.
          6    1    1    2  501    0 -0.16249121430E+03 -0.17254449013E+02  0.84265130573E+02  0.25244944635E+03  0.17300000000E+03 0.  1.
         -6    1    1    2    0  503  0.16249121430E+03  0.17254449013E+02 -0.25135832799E+01  0.23798409366E+03  0.17300000000E+03 0. -1.
</event>
<event>
 4    1  0.5929306E+000  0.1000000E+03  0.7546771E-02  0.1280296E+00
         21   -1    0    0  501  502  0.00000000000E+00  0.00000000000E+00  0.36896330251E+02  0.36896330251E+02  0.00000000000E+00 0. -1.
         21   -1    0    0  502  503 -0.00000000000E+00 -0.00000000000E+00 -0.10279537804E+04  0.10279537804E+04  0.00000000000E+00 0. -1.
          6    1    1    2  501    0 -0.18192007576E+02 -0.46873214169E+02 -0.29331969102E+03  0.34422883158E+03  0.17300000000E+03 0.  1.
         -6    1    1    2    0  503  0.18192007576E+02  0.46873214169E+02 -0.69773775911E+03  0.72062127906E+03  0.17300000000E+03 0.  1.
</event>
<event>
 4    1  0.5929306E+000  0.1000000E+03  0.7546771E-02  0.1280296E+00
         21   -1    0    0  503  502  0.00000000000E+00  0.00000000000E+00  0.12003090467E+03  0.12003090467E+03  0.00000000000E+00 0. -1.
         21   -1    0    0  501  503 -0.00000000000E+00 -0.00000000000E+00 -0.25977402552E+03  0.25977402552E+03  0.00000000000E+00 0. -1.
          6    1    1    2  501    0  0.23092733423E+02 -0.16686044385E+02 -0.92435637384E+02  0.19820455462E+03  0.17300000000E+03 0. -1.
         -6    1    1    2    0  502 -0.23092733423E+02  0.16686044385E+02 -0.47307483465E+02  0.18160037557E+03  0.17300000000E+03 0. -1.
</event>
<event>
 4    1  0.5929306E+000  0.1000000E+03  0.7546771E-02  0.1280296E+00
         21   -1    0    0  503  502  0.00000000000E+00  0.00000000000E+00  0.63239389049E+03  0.63239389049E+03  0.00000000000E+00 0. -1.
         21   -1    0    0  501  503 -0.00000000000E+00 -0.00000000000E+00 -0.93948262456E+02  0.93948262456E+02  0.00000000000E+00 0. -1.
          6    1    1    2  501    0 -0.85334122905E+02  0.63853491150E+02  0.68636367487E+02  0.21447408190E+03  0.17300000000E+03 0. -1.
         -6    1    1    2    0  502  0.85334122905E+02 -0.63853491150E+02  0.46980926055E+03  0.51186807105E+03  0.17300000000E+03 0. -1.
</event>
<event>
 4    1  0.5929306E+000  0.1000000E+03  0.7546771E-02  0.1280296E+00
         21   -1    0    0  503  502  0.00000000000E+00  0.00000000000E+00  0.23959160070E+03  0.23959160070E+03  0.00000000000E+00 0. -1.
         21   -1    0    0  501  503 -0.00000000000E+00 -0.00000000000E+00 -0.23333160466E+03  0.23333160466E+03  0.00000000000E+00 0.  1.
          6    1    1    2  501    0  0.14436883336E+03 -0.12540239480E+02 -0.67414647133E+02  0.23552781641E+03  0.17300000000E+03 0.  1.
         -6    1    1    2    0  502 -0.14436883336E+03  0.12540239480E+02  0.73674643175E+02  0.23739538896E+03  0.17300000000E+03 0. -1.
</event>
<event>
 4    1  0.5929306E+000  0.1000000E+03  0.7546771E-02  0.1280296E+00
         21   -1    0    0  503  502  0.00000000000E+00  0.00000000000E+00  0.10097666936E+03  0.10097666936E+03  0.00000000000E+00 0. -1.
         21   -1    0    0  501  503 -0.00000000000E+00 -0.00000000000E+00 -0.65282090709E+03  0.65282090709E+03  0.00000000000E+00 0.  1.
          6    1    1    2  501    0 -0.19440531813E+02  0.12501867789E+03 -0.48343658224E+03  0.52881710746E+03  0.17300000000E+03 0.  1.
         -6    1    1    2    0  502  0.19440531813E+02 -0.12501867789E+03 -0.68407655499E+02  0.22498046899E+03  0.17300000000E+03 0. -1.
</event>
<event>
 4    1  0.5929306E+000  0.1000000E+03  0.7546771E-02  0.1280296E+00
         21   -1    0    0  503  502  0.00000000000E+00  0.00000000000E+00  0.14593743439E+03  0.14593743439E+03  0.00000000000E+00 0.  1.
         21   -1    0    0  501  503 -0.00000000000E+00 -0.00000000000E+00 -0.23660030822E+03  0.23660030822E+03  0.00000000000E+00 0. -1.
          6    1    1    2  501    0  0.14395700411E+02  0.44991904813E+02 -0.95424176970E+02  0.20314103780E+03  0.17300000000E+03 0.  1.
         -6    1    1    2    0  502 -0.14395700411E+02 -0.44991904813E+02  0.47613031474E+01  0.17939670481E+03  0.17300000000E+03 0.  1.
</event>
<event>
 4    1  0.5929306E+000  0.1000000E+03  0.7546771E-02  0.1280296E+00
         21   -1    0    0  501  502  0.00000000000E+00  0.00000000000E+00  0.14294023592E+03  0.14294023592E+03  0.00000000000E+00 0. -1.
         21   -1    0    0  502  503 -0.00000000000E+00 -0.00000000000E+00 -0.62712907975E+03  0.62712907975E+03  0.00000000000E+00 0. -1.
          6    1    1    2  501    0 -0.12816124081E+02  0.17107870559E+03 -0.18311060334E+02  0.24432861370E+03  0.17300000000E+03 0. -1.
         -6    1    1    2    0  503  0.12816124081E+02 -0.17107870559E+03 -0.46587778350E+03  0.52574070196E+03  0.17300000000E+03 0. -1.
</event>
<event>
 4    1  0.5929306E+000  0.1000000E+03  0.7546771E-02  0.1280296E+00
         21   -1    0    0  501  502  0.00000000000E+00  0.00000000000E+00  0.12901898927E+03  0.12901898927E+03  0.00000000000E+00 0. -1.
         21   -1    0    0  502  503 -0.00000000000E+00 -0.00000000000E+00 -0.14418818120E+04  0.14418818120E+04  0.00000000000E+00 0. -1.
          6    1    1    2  501    0  0.19200540452E+02  0.63764110475E+02  0.52774109998E+02  0.19273979668E+03  0.17300000000E+03 0. -1.
         -6    1    1    2    0  503 -0.19200540452E+02 -0.63764110475E+02 -0.13656369327E+04  0.13781610046E+04  0.17300000000E+03 0. -1.
</event>
<event>
 4    1  0.5929306E+000  0.1000000E+03  0.7546771E-02  0.1280296E+00
         21   -1    0    0  503  502  0.00000000000E+00  0.00000000000E+00  0.38987051202E+02  0.38987051202E+02  0.00000000000E+00 0. -1.
         21   -1    0    0  501  503 -0.00000000000E+00 -0.00000000000E+00 -0.95173366572E+03  0.95173366572E+03  0.00000000000E+00 0. -1.
          6    1    1    2  501    0  0.28113946812E+02  0.77810820977E+02 -0.40956092124E+03  0.45223231428E+03  0.17300000000E+03 0. -1.
         -6    1    1    2    0  502 -0.28113946812E+02 -0.77810820977E+02 -0.50318569328E+03  0.53848840265E+03  0.17300000000E+03 0. -1.
</event>
<event>
 4    1  0.5929306E+000  0.1000000E+03  0.7546771E-02  0.1280296E+00
         21   -1    0    0  503  502  0.00000000000E+00  0.00000000000E+00  0.68357255730E+03  0.68357255730E+03  0.00000000000E+00 0. -1.
         21   -1    0    0  501  503 -0.00000000000E+00 -0.00000000000E+00 -0.80510661133E+02  0.80510661133E+02  0.00000000000E+00 0. -1.
          6    1    1    2  501    0 -0.13380651646E+03  0.84841653603E+02  0.30461589313E+03  0.38447643930E+03  0.17300000000E+03 0. -1.
         -6    1    1    2    0  502  0.13380651646E+03 -0.84841653603E+02  0.29844600304E+03  0.37960677913E+03  0.17300000000E+03 0. -1.
</event>
<event>
 4    1  0.5929306E+000  0.1000000E+03  0.7546771E-02  0.1280296E+00
         21   -1    0    0  503  502  0.00000000000E+00  0.00000000000E+00  0.47805476696E+03  0.47805476696E+03  0.00000000000E+00 0. -1.
         21   -1    0    0  501  503 -0.00000000000E+00 -0.00000000000E+00 -0.94457224538E+02  0.94457224538E+02  0.00000000000E+00 0. -1.
          6    1    1    2  501    0  0.78153966183E+02 -0.94514738761E+02  0.17344422987E+03  0.27395798792E+03  0.17300000000E+03 0. -1.
         -6    1    1    2    0  502 -0.78153966183E+02  0.94514738761E+02  0.21015331256E+03  0.29855400358E+03  0.17300000000E+03 0. -1.
</event>
<event>
 4    1  0.5929306E+000  0.1000000E+03  0.7546771E-02  0.1280296E+00
         21   -1    0    0  501  502  0.00000000000E+00  0.00000000000E+00  0.64986564806E+03  0.64986564806E+03  0.00000000000E+00 0. -1.
         21   -1    0    0  502  503 -0.00000000000E+00 -0.00000000000E+00 -0.64747698226E+02  0.64747698226E+02  0.00000000000E+00 0. -1.
          6    1    1    2  501    0  0.60416080239E+02 -0.58992872219E+02  0.41595022538E+03  0.45833814124E+03  0.17300000000E+03 0. -1.
         -6    1    1    2    0  503 -0.60416080239E+02  0.58992872219E+02  0.16916772446E+03  0.25627520505E+03  0.17300000000E+03 0. -1.
</event>
<event>
 4    1  0.5929306E+000  0.1000000E+03  0.7546771E-02  0.1280296E+00
         21   -1    0    0  501  502  0.00000000000E+00  0.00000000000E+00  0.46362507666E+02  0.46362507666E+02  0.00000000000E+00 0.  1.
         21   -1    0    0  502  503 -0.00000000000E+00 -0.00000000000E+00 -0.11660073616E+04  0.11660073616E+04  0.00000000000E+00 0.  1.
          6    1    1    2  501    0 -0.28770780648E+02  0.10047661333E+03 -0.26020402791E+03  0.32948208416E+03  0.17300000000E+03 0.  1.
         -6    1    1    2    0  503  0.28770780648E+02 -0.10047661333E+03 -0.85944082606E+03  0.88288778513E+03  0.17300000000E+03 0.  1.
</event>
<event>
 4    1  0.5929306E+000  0.1000000E+03  0.7546771E-02  0.1280296E+00
         21   -1    0    0  503  502  0.00000000000E+00  0.00000000000E+00  0.11946169782E+04  0.11946169782E+04  0.00000000000E+00 0.  1.
         21   -1    0    0  501  503 -0.00000000000E+00 -0.00000000000E+00 -0.16304191886E+03  0.16304191886E+03  0.00000000000E+00 0.  1.
          6    1    1    2  501    0  0.49657884728E+02  0.77067573332E+02 -0.92583152405E+02  0.21657783008E+03  0.17300000000E+03 0.  1.
         -6    1    1    2    0  502 -0.49657884728E+02 -0.77067573332E+02  0.11241582118E+04  0.11410810670E+04  0.17300000000E+03 0.  1.
</event>
<event>
 4    1  0.5929306E+000  0.1000000E+03  0.7546771E-02  0.1280296E+00
         21   -1    0    0  503  502  0.00000000000E+00  0.00000000000E+00  0.32513037159E+03  0.32513037159E+03  0.00000000000E+00 0.  1.
         21   -1    0    0  501  503 -0.00000000000E+00 -0.00000000000E+00 -0.47964057140E+03  0.47964057140E+03  0.00000000000E+00 0.  1.
          6    1    1    2  501    0  0.32680204778E+03  0.13518797795E+03 -0.45992075484E+02  0.39638319695E+03  0.17300000000E+03 0.  1.
         -6    1    1    2    0  502 -0.32680204778E+03 -0.13518797795E+03 -0.10851812432E+03  0.40838774605E+03  0.17300000000E+03 0.  1.
</event>
<event>
 4    1  0.5929306E+000  0.1000000E+03  0.7546771E-02  0.1280296E+00
         21   -1    0    0  503  502  0.00000000000E+00  0.00000000000E+00  0.27570723401E+03  0.27570723401E+03  0.00000000000E+00 0.  1.
         21   -1    0    0  501  503 -0.00000000000E+00 -0.00000000000E+00 -0.25175869964E+03  0.25175869964E+03  0.00000000000E+00 0.  1.
          6    1    1    2  501    0 -0.13889487430E+02 -0.40959133245E+02 -0.18216439786E+03  0.25491848953E+03  0.17300000000E+03 0.  1.
         -6    1    1    2    0  502  0.13889487430E+02  0.40959133245E+02  0.20611293224E+03  0.27254744412E+03  0.17300000000E+03 0.  1.
</event>
<event>
 4    1  0.5929306E+000  0.1000000E+03  0.7546771E-02  0.1280296E+00
         21   -1    0    0  503  502  0.00000000000E+00  0.00000000000E+00  0.13897469871E+03  0.13897469871E+03  0.00000000000E+00 0.  1.
         21   -1    0    0  501  503 -0.00000000000E+00 -0.00000000000E+00 -0.68140172392E+03  0.68140172392E+03  0.00000000000E+00 0.  1.
          6    1    1    2  501    0  0.12138776477E+03  0.38326774337E+01 -0.56932646603E+03  0.60729836471E+03  0.17300000000E+03 0.  1.
         -6    1    1    2    0  502 -0.12138776477E+03 -0.38326774337E+01  0.26899440820E+02  0.21307805792E+03  0.17300000000E+03 0.  1.
</event>
<event>
 4    1  0.5929306E+000  0.1000000E+03  0.7546771E-02  0.1280296E+00
         21   -1    0    0  503  502  0.00000000000E+00  0.00000000000E+00  0.70282460943E+03  0.70282460943E+03  0.00000000000E+00 0.  1.
         21   -1    0    0  501  503 -0.00000000000E+00 -0.00000000000E+00 -0.10621770892E+03  0.10621770892E+03  0.00000000000E+00 0.  1.
          6    1    1    2  501    0  0.92793949351E+02 -0.15385659705E+03  0.13316647319E+03  0.28274525473E+03  0.17300000000E+03 0.  1.
         -6    1    1    2    0  502 -0.92793949351E+02  0.15385659705E+03  0.46344042732E+03  0.52629706361E+03  0.17300000000E+03 0.  1.
</event>
<event>
 4    1  0.5929306E+000  0.1000000E+03  0.7546771E-02  0.1280296E+00
         21   -1    0    0  503  502  0.00000000000E+00  0.00000000000E+00  0.23327766965E+04  0.23327766965E+04  0.00000000000E+00 0.  1.
         21   -1    0    0  501  503 -0.00000000000E+00 -0.00000000000E+00 -0.30464572854E+02  0.30464572854E+02  0.00000000000E+00 0.  1.
          6    1    1    2  501    0  0.97913983062E+02  0.16488134602E+03  0.85831092673E+03  0.89632564021E+03  0.17300000000E+03 0.  1.
         -6    1    1    2    0  502 -0.97913983062E+02 -0.16488134602E+03  0.14440011969E+04  0.14669156291E+04  0.17300000000E+03 0.  1.
</event>
<event>
 4    1  0.5929306E+000  0.1000000E+03  0.7546771E-02  0.1280296E+00
         21   -1    0    0  503  502  0.00000000000E+00  0.00000000000E+00  0.29420673111E+03  0.29420673111E+03  0.00000000000E+00 0.  1.
         21   -1    0    0  501  503 -0.00000000000E+00 -0.00000000000E+00 -0.18212302567E+03  0.18212302567E+03  0.00000000000E+00 0.  1.
          6    1    1    2  501    0  0.37630983679E+02 -0.11465618254E+03 -0.42057780813E+02  0.21508135218E+03  0.17300000000E+03 0.  1.
         -6    1    1    2    0  502 -0.37630983679E+02  0.11465618254E+03  0.15414148625E+03  0.26124840461E+03  0.17300000000E+03 0.  1.
</event>
<event>
 4    1  0.5929306E+000  0.1000000E+03  0.7546771E-02  0.1280296E+00
         21   -1    0    0  503  502  0.00000000000E+00  0.00000000000E+00  0.97394178059E+03  0.97394178059E+03  0.00000000000E+00 0.  1.
         21   -1    0    0  501  503 -0.00000000000E+00 -0.00000000000E+00 -0.97047542228E+02  0.97047542228E+02  0.00000000000E+00 0.  1.
          6    1    1    2  501    0  0.62545907152E+02 -0.31334578600E+02  0.12879769799E+02  0.18705275937E+03  0.17300000000E+03 0.  1.
         -6    1    1    2    0  502 -0.62545907152E+02  0.31334578600E+02  0.86401446857E+03  0.88393656345E+03  0.17300000000E+03 0.  1.
</event>
<event>
 4    1  0.5929306E+000  0.1000000E+03  0.7546771E-02  0.1280296E+00
         21   -1    0    0  501  502  0.00000000000E+00  0.00000000000E+00  0.23554300581E+02  0.23554300581E+02  0.00000000000E+00 0. -1.
         21   -1    0    0  502  503 -0.00000000000E+00 -0.00000000000E+00 -0.17217702236E+04  0.17217702236E+04  0.00000000000E+00 0. -1.
          6    1    1    2  501    0  0.16271905316E+02 -0.85408596490E+02 -0.60913713920E+03  0.63916856744E+03  0.17300000000E+03 0. -1.
         -6    1    1    2    0  503 -0.16271905316E+02  0.85408596490E+02 -0.10890787838E+04  0.11061559568E+04  0.17300000000E+03 0. -1.
</event>
<event>
 4    1  0.5929306E+000  0.1000000E+03  0.7546771E-02  0.1280296E+00
         21   -1    0    0  501  502  0.00000000000E+00  0.00000000000E+00  0.68659235199E+03  0.68659235199E+03  0.00000000000E+00 0. -1.
         21   -1    0    0  502  503 -0.00000000000E+00 -0.00000000000E+00 -0.47847359887E+02  0.47847359887E+02  0.00000000000E+00 0. -1.
          6    1    1    2  501    0  0.96909928385E+00 -0.43137963796E+01  0.42853599298E+03  0.46215976163E+03  0.17300000000E+03 0. -1.
         -6    1    1    2    0  503 -0.96909928385E+00  0.43137963796E+01  0.21020899912E+03  0.27227995024E+03  0.17300000000E+03 0. -1.
</event>
<event>
 4    1  0.5929306E+000  0.1000000E+03  0.7546771E-02  0.1280296E+00
         21   -1    0    0  501  502  0.00000000000E+00  0.00000000000E+00  0.21360937063E+04  0.21360937063E+04  0.00000000000E+00 0. -1.
         21   -1    0    0  502  503 -0.00000000000E+00 -0.00000000000E+00 -0.84223010235E+02  0.84223010235E+02  0.00000000000E+00 0. -1.
          6    1    1    2  501    0 -0.44077796411E+02 -0.11366288899E+03  0.19880229569E+04  0.19992564572E+04  0.17300000000E+03 0. -1.
         -6    1    1    2    0  503  0.44077796411E+02  0.11366288899E+03  0.63847739189E+02  0.22106025937E+03  0.17300000000E+03 0. -1.
</event>
<event>
 4    1  0.5929306E+000  0.1000000E+03  0.7546771E-02  0.1280296E+00
         21   -1    0    0  501  502  0.00000000000E+00  0.00000000000E+00  0.19520002385E+03  0.19520002385E+03  0.00000000000E+00 0. -1.
         21   -1    0    0  502  503 -0.00000000000E+00 -0.00000000000E+00 -0.61129916203E+03  0.61129916203E+03  0.00000000000E+00 0. -1.
          6    1    1    2  501    0  0.25134173425E+03  0.12741370730E+03 -0.32472599788E+03  0.46344675410E+03  0.17300000000E+03 0. -1.
         -6    1    1    2    0  503 -0.25134173425E+03 -0.12741370730E+03 -0.91373140297E+02  0.34305243178E+03  0.17300000000E+03 0. -1.
</event>
<event>
 4    1  0.5929306E+000  0.1000000E+03  0.7546771E-02  0.1280296E+00
         21   -1    0    0  501  502  0.00000000000E+00  0.00000000000E+00  0.13274679776E+03  0.13274679776E+03  0.00000000000E+00 0.  1.
         21   -1    0    0  502  503 -0.00000000000E+00 -0.00000000000E+00 -0.26293823096E+03  0.26293823096E+03  0.00000000000E+00 0.  1.
          6    1    1    2  501    0 -0.11650385643E+02  0.85755992696E+01  0.80105861669E+01  0.17378849755E+03  0.17300000000E+03 0.  1.
         -6    1    1    2    0  503  0.11650385643E+02 -0.85755992696E+01 -0.13820201937E+03  0.22189653117E+03  0.17300000000E+03 0.  1.
</event>
<event>
 4    1  0.5929306E+000  0.1000000E+03  0.7546771E-02  0.1280296E+00
         21   -1    0    0  501  502  0.00000000000E+00  0.00000000000E+00  0.16775575352E+03  0.16775575352E+03  0.00000000000E+00 0.  1.
         21   -1    0    0  502  503 -0.00000000000E+00 -0.00000000000E+00 -0.58565845064E+03  0.58565845064E+03  0.00000000000E+00 0.  1.
          6    1    1    2  501    0 -0.77197653227E+02 -0.11251071267E+03  0.58979667274E+02  0.22809151514E+03  0.17300000000E+03 0.  1.
         -6    1    1    2    0  503  0.77197653227E+02  0.11251071267E+03 -0.47688236439E+03  0.52532268902E+03  0.17300000000E+03 0.  1.
</event>
<event>
 4    1  0.5929306E+000  0.1000000E+03  0.7546771E-02  0.1280296E+00
         21   -1    0    0  503  502  0.00000000000E+00  0.00000000000E+00  0.93605319163E+03  0.93605319163E+03  0.00000000000E+00 0. -1.
         21   -1    0    0  501  503 -0.00000000000E+00 -0.00000000000E+00 -0.14252200887E+03  0.14252200887E+03  0.00000000000E+00 0. -1.
          6    1    1    2  501    0  0.11985475585E+03  0.68287922527E+02 -0.32307255115E+02  0.22360939514E+03  0.17300000000E+03 0. -1.
         -6    1    1    2    0  502 -0.11985475585E+03 -0.68287922527E+02  0.82583843787E+03  0.85496580536E+03  0.17300000000E+03 0. -1.
</event>
<event>
 4    1  0.5929306E+000  0.1000000E+03  0.7546771E-02  0.1280296E+00
         21   -1    0    0  503  502  0.00000000000E+00  0.00000000000E+00  0.23956907245E+04  0.23956907245E+04  0.00000000000E+00 0. -1.
         21   -1    0    0  501  503 -0.00000000000E+00 -0.00000000000E+00 -0.10014678223E+03  0.10014678223E+03  0.00000000000E+00 0. -1.
          6    1    1    2  501    0 -0.31706806441E+03  0.28680290196E+03  0.72756227756E+03  0.86143132621E+03  0.17300000000E+03 0. -1.
         -6    1    1    2    0  502  0.31706806441E+03 -0.28680290196E+03  0.15679816647E+04  0.16344061805E+04  0.17300000000E+03 0. -1.
</event>
<event>
 4    1  0.5929306E+000  0.1000000E+03  0.7546771E-02  0.1280296E+00
         21   -1    0    0  503  502  0.00000000000E+00  0.00000000000E+00  0.92706231975E+03  0.92706231975E+03  0.00000000000E+00 0. -1.
         21   -1    0    0  501  503 -0.00000000000E+00 -0.00000000000E+00 -0.55133835012E+02  0.55133835012E+02  0.00000000000E+00 0. -1.
          6    1    1    2  501    0  0.39792089113E+02  0.13552368278E+03  0.35967548888E+03  0.42337399099E+03  0.17300000000E+03 0. -1.
         -6    1    1    2    0  502 -0.39792089113E+02 -0.13552368278E+03  0.51225299586E+03  0.55882216377E+03  0.17300000000E+03 0. -1.
</event>
<event>
 4    1  0.5929306E+000  0.1000000E+03  0.7546771E-02  0.1280296E+00
         21   -1    0    0  501  502  0.00000000000E+00  0.00000000000E+00  0.11795792664E+04  0.11795792664E+04  0.00000000000E+00 0. -1.
         21   -1    0    0  502  503 -0.00000000000E+00 -0.00000000000E+00 -0.48737611292E+02  0.48737611292E+02  0.00000000000E+00 0. -1.
          6    1    1    2  501    0  0.22818960820E+02  0.11725334936E+03  0.86073005060E+03  0.88603288478E+03  0.17300000000E+03 0. -1.
         -6    1    1    2    0  503 -0.22818960820E+02 -0.11725334936E+03  0.27011160449E+03  0.34228399289E+03  0.17300000000E+03 0. -1.
</event>
<event>
 4    1  0.5929306E+000  0.1000000E+03  0.7546771E-02  0.1280296E+00
         21   -1    0    0  501  502  0.00000000000E+00  0.00000000000E+00  0.33844692667E+03  0.33844692667E+03  0.00000000000E+00 0.  1.
         21   -1    0    0  502  503 -0.00000000000E+00 -0.00000000000E+00 -0.41329552561E+03  0.41329552561E+03  0.00000000000E+00 0.  1.
          6    1    1    2  501    0 -0.23205415320E+03  0.65980425851E+02  0.19119150790E+03  0.35310867917E+03  0.17300000000E+03 0.  1.
         -6    1    1    2    0  503  0.23205415320E+03 -0.65980425851E+02 -0.26604010684E+03  0.39863377311E+03  0.17300000000E+03 0.  1.
</event>
<event>
 4    1  0.5929306E+000  0.1000000E+03  0.7546771E-02  0.1280296E+00
         21   -1    0    0  501  502  0.00000000000E+00  0.00000000000E+00  0.78128598522E+03  0.78128598522E+03  0.00000000000E+00 0.  1.
         21   -1    0    0  502  503 -0.00000000000E+00 -0.00000000000E+00 -0.92620408402E+02  0.92620408402E+02  0.00000000000E+00 0.  1.
          6    1    1    2  501    0 -0.71504522832E+02  0.17057064979E+03  0.49166292689E+03  0.55305395490E+03  0.17300000000E+03 0.  1.
         -6    1    1    2    0  503  0.71504522832E+02 -0.17057064979E+03  0.19700264992E+03  0.32085243872E+03  0.17300000000E+03 0.  1.
</event>
<event>
 4    1  0.5929306E+000  0.1000000E+03  0.7546771E-02  0.1280296E+00
         21   -1    0    0  501  502  0.00000000000E+00  0.00000000000E+00  0.92033074804E+02  0.92033074804E+02  0.00000000000E+00 0.  1.
         21   -1    0    0  502  503 -0.00000000000E+00 -0.00000000000E+00 -0.64005889742E+03  0.64005889742E+03  0.00000000000E+00 0. -1.
          6    1    1    2  501    0 -0.14580907020E+02 -0.13672028480E+02 -0.19054059760E+02  0.17519013787E+03  0.17300000000E+03 0.  1.
         -6    1    1    2    0  503  0.14580907020E+02  0.13672028480E+02 -0.52897176286E+03  0.55690183436E+03  0.17300000000E+03 0. -1.
</event>
<event>
 4    1  0.5929306E+000  0.1000000E+03  0.7546771E-02  0.1280296E+00
         21   -1    0    0  501  502  0.00000000000E+00  0.00000000000E+00  0.41740568683E+03  0.41740568683E+03  0.00000000000E+00 0.  1.
         21   -1    0    0  502  503 -0.00000000000E+00 -0.00000000000E+00 -0.48990484427E+03  0.48990484427E+03  0.00000000000E+00 0. -1.
          6    1    1    2  501    0  0.35623622850E+03  0.14801172145E+03  0.12472807452E+03  0.44079225578E+03  0.17300000000E+03 0.  1.
         -6    1    1    2    0  503 -0.35623622850E+03 -0.14801172145E+03 -0.19722723196E+03  0.46651827532E+03  0.17300000000E+03 0. -1.
</event>
<event>
 4    1  0.5929306E+000  0.1000000E+03  0.7546771E-02  0.1280296E+00
         21   -1    0    0  501  502  0.00000000000E+00  0.00000000000E+00  0.12833237353E+03  0.12833237353E+03  0.00000000000E+00 0.  1.
         21   -1    0    0  502  503 -0.00000000000E+00 -0.00000000000E+00 -0.37137516448E+03  0.37137516448E+03  0.00000000000E+00 0. -1.
          6    1    1    2  501    0 -0.15922378678E+02 -0.34224560149E+02  0.24622250312E+02  0.17877387357E+03  0.17300000000E+03 0.  1.
         -6    1    1    2    0  503  0.15922378678E+02  0.34224560149E+02 -0.26766504126E+03  0.32093366444E+03  0.17300000000E+03 0. -1.
</event>
<event>
 4    1  0.5929306E+000  0.1000000E+03  0.7546771E-02  0.1280296E+00
         21   -1    0    0  503  502  0.00000000000E+00  0.00000000000E+00  0.79480526859E+02  0.79480526859E+02  0.00000000000E+00 0. -1.
         21   -1    0    0  501  503 -0.00000000000E+00 -0.00000000000E+00 -0.41798291368E+03  0.41798291368E+03  0.00000000000E+00 0. -1.
          6    1    1    2  501    0 -0.33636872883E+02 -0.39180883040E+01 -0.10603807560E+03  0.20571792365E+03  0.17300000000E+03 0. -1.
         -6    1    1    2    0  502  0.33636872883E+02  0.39180883040E+01 -0.23246431122E+03  0.29174551689E+03  0.17300000000E+03 0. -1.
</event>
<event>
 4    1  0.5929306E+000  0.1000000E+03  0.7546771E-02  0.1280296E+00
         21   -1    0    0  503  502  0.00000000000E+00  0.00000000000E+00  0.99269908960E+03  0.99269908960E+03  0.00000000000E+00 0. -1.
         21   -1    0    0  501  503 -0.00000000000E+00 -0.00000000000E+00 -0.13188105711E+03  0.13188105711E+03  0.00000000000E+00 0. -1.
          6    1    1    2  501    0  0.53839448120E+02  0.22678678515E+03  0.94729588617E+02  0.30534182002E+03  0.17300000000E+03 0. -1.
         -6    1    1    2    0  502 -0.53839448120E+02 -0.22678678515E+03  0.76608844387E+03  0.81923832669E+03  0.17300000000E+03 0. -1.
</event>
<event>
 4    1  0.5929306E+000  0.1000000E+03  0.7546771E-02  0.1280296E+00
         21   -1    0    0  503  502  0.00000000000E+00  0.00000000000E+00  0.11741109854E+03  0.11741109854E+03  0.00000000000E+00 0. -1.
         21   -1    0    0  501  503 -0.00000000000E+00 -0.00000000000E+00 -0.28412237419E+03  0.28412237419E+03  0.00000000000E+00 0. -1.
          6    1    1    2  501    0  0.15567581701E+01  0.39333445288E+02 -0.13102397326E+03  0.22055798553E+03  0.17300000000E+03 0. -1.
         -6    1    1    2    0  502 -0.15567581701E+01 -0.39333445288E+02 -0.35687302397E+02  0.18097548720E+03  0.17300000000E+03 0. -1.
</event>
<event>
 4    1  0.5929306E+000  0.1000000E+03  0.7546771E-02  0.1280296E+00
         21   -1    0    0  501  502  0.00000000000E+00  0.00000000000E+00  0.17513937414E+03  0.17513937414E+03  0.00000000000E+00 0. -1.
         21   -1    0    0  502  503 -0.00000000000E+00 -0.00000000000E+00 -0.69920447469E+03  0.69920447469E+03  0.00000000000E+00 0. -1.
          6    1    1    2  501    0  0.21030473327E+01  0.16493746100E+03  0.57255625341E+02  0.24579665475E+03  0.17300000000E+03 0. -1.
         -6    1    1    2    0  503 -0.21030473327E+01 -0.16493746100E+03 -0.58132072589E+03  0.62854719409E+03  0.17300000000E+03 0. -1.
</event>
<event>
 4    1  0.5929306E+000  0.1000000E+03  0.7546771E-02  0.1280296E+00
         21   -1    0    0  501  502  0.00000000000E+00  0.00000000000E+00  0.18895570319E+03  0.18895570319E+03  0.00000000000E+00 0. -1.
         21   -1    0    0  502  503 -0.00000000000E+00 -0.00000000000E+00 -0.38379311410E+03  0.38379311410E+03  0.00000000000E+00 0. -1.
          6    1    1    2  501    0  0.83219045976E+02 -0.10582893023E+03  0.68916686028E+02  0.22979051699E+03  0.17300000000E+03 0. -1.
         -6    1    1    2    0  503 -0.83219045976E+02  0.10582893023E+03 -0.26375409694E+03  0.34295830030E+03  0.17300000000E+03 0. -1.
</event>
<event>
 4    1  0.5929306E+000  0.1000000E+03  0.7546771E-02  0.1280296E+00
         21   -1    0    0  501  502  0.00000000000E+00  0.00000000000E+00  0.14517595739E+04  0.14517595739E+04  0.00000000000E+00 0.  1.
         21   -1    0    0  502  503 -0.00000000000E+00 -0.00000000000E+00 -0.24970019170E+02  0.24970019170E+02  0.00000000000E+00 0.  1.
          6    1    1    2  501    0  0.31220837702E+02 -0.44337444693E+02  0.93888686157E+03  0.95623118990E+03  0.17300000000E+03 0.  1.
         -6    1    1    2    0  503 -0.31220837702E+02  0.44337444693E+02  0.48790269316E+03  0.52049840316E+03  0.17300000000E+03 0.  1.
</event>
<event>
 4    1  0.5929306E+000  0.1000000E+03  0.7546771E-02  0.1280296E+00
         21   -1    0    0  503  502  0.00000000000E+00  0.00000000000E+00  0.14697132982E+03  0.14697132982E+03  0.00000000000E+00 0. -1.
         21   -1    0    0  501  503 -0.00000000000E+00 -0.00000000000E+00 -0.22022263670E+03  0.22022263670E+03  0.00000000000E+00 0.  1.
          6    1    1    2  501    0  0.18313417654E+02 -0.45228462377E+02 -0.44290964363E+02  0.18512613160E+03  0.17300000000E+03 0.  1.
         -6    1    1    2    0  502 -0.18313417654E+02  0.45228462377E+02 -0.28960342520E+02  0.18206783492E+03  0.17300000000E+03 0. -1.
</event>
<event>
 4    1  0.5929306E+000  0.1000000E+03  0.7546771E-02  0.1280296E+00
         21   -1    0    0  503  502  0.00000000000E+00  0.00000000000E+00  0.69374582663E+03  0.69374582663E+03  0.00000000000E+00 0.  1.
         21   -1    0    0  501  503 -0.00000000000E+00 -0.00000000000E+00 -0.11389227667E+03  0.11389227667E+03  0.00000000000E+00 0.  1.
          6    1    1    2  501    0 -0.13424257216E+03  0.14790908112E+02  0.37624615264E+02  0.22267566283E+03  0.17300000000E+03 0.  1.
         -6    1    1    2    0  502  0.13424257216E+03 -0.14790908112E+02  0.54222893469E+03  0.58496244047E+03  0.17300000000E+03 0.  1.
</event>
<event>
 4    1  0.5929306E+000  0.1000000E+03  0.7546771E-02  0.1280296E+00
         21   -1    0    0  503  502  0.00000000000E+00  0.00000000000E+00  0.73412788134E+03  0.73412788134E+03  0.00000000000E+00 0.  1.
         21   -1    0    0  501  503 -0.00000000000E+00 -0.00000000000E+00 -0.68776666426E+02  0.68776666426E+02  0.00000000000E+00 0.  1.
          6    1    1    2  501    0  0.43664885205E+02 -0.51896377264E+02  0.10695494214E+03  0.21440199584E+03  0.17300000000E+03 0.  1.
         -6    1    1    2    0  502 -0.43664885205E+02  0.51896377264E+02  0.55839627277E+03  0.58850255192E+03  0.17300000000E+03 0.  1.
</event>
<event>
 4    1  0.5929306E+000  0.1000000E+03  0.7546771E-02  0.1280296E+00
         21   -1    0    0  503  502  0.00000000000E+00  0.00000000000E+00  0.21464280257E+03  0.21464280257E+03  0.00000000000E+00 0.  1.
         21   -1    0    0  501  503 -0.00000000000E+00 -0.00000000000E+00 -0.22831383246E+03  0.22831383246E+03  0.00000000000E+00 0.  1.
          6    1    1    2  501    0  0.12597690491E+03 -0.34930278287E+01 -0.63382706345E+02  0.22322354105E+03  0.17300000000E+03 0.  1.
         -6    1    1    2    0  502 -0.12597690491E+03  0.34930278287E+01  0.49711676459E+02  0.21973309398E+03  0.17300000000E+03 0.  1.
</event>
<event>
 4    1  0.5929306E+000  0.1000000E+03  0.7546771E-02  0.1280296E+00
         21   -1    0    0  503  502  0.00000000000E+00  0.00000000000E+00  0.24326895834E+03  0.24326895834E+03  0.00000000000E+00 0. -1.
         21   -1    0    0  501  503 -0.00000000000E+00 -0.00000000000E+00 -0.50328005490E+03  0.50328005490E+03  0.00000000000E+00 0.  1.
          6    1    1    2  501    0 -0.63045777572E+01 -0.21020760632E+03 -0.36440019713E+03  0.45491041879E+03  0.17300000000E+03 0.  1.
         -6    1    1    2    0  502  0.63045777572E+01  0.21020760632E+03  0.10438910057E+03  0.29163859445E+03  0.17300000000E+03 0. -1.
</event>
<event>
 4    1  0.5929306E+000  0.1000000E+03  0.7546771E-02  0.1280296E+00
         21   -1    0    0  501  502  0.00000000000E+00  0.00000000000E+00  0.18919053576E+03  0.18919053576E+03  0.00000000000E+00 0.  1.
         21   -1    0    0  502  503 -0.00000000000E+00 -0.00000000000E+00 -0.41470720588E+03  0.41470720588E+03  0.00000000000E+00 0.  1.
          6    1    1    2  501    0  0.14176245670E+03  0.27988505247E+02  0.66491327365E+02  0.23501073841E+03  0.17300000000E+03 0.  1.
         -6    1    1    2    0  503 -0.14176245670E+03 -0.27988505247E+02 -0.29200799749E+03  0.36888700323E+03  0.17300000000E+03 0.  1.
</event>
<event>
 4    1  0.5929306E+000  0.1000000E+03  0.7546771E-02  0.1280296E+00
         21   -1    0    0  503  502  0.00000000000E+00  0.00000000000E+00  0.31630063716E+02  0.31630063716E+02  0.00000000000E+00 0. -1.
         21   -1    0    0  501  503 -0.00000000000E+00 -0.00000000000E+00 -0.12167873377E+04  0.12167873377E+04  0.00000000000E+00 0.  1.
          6    1    1    2  501    0 -0.69377676070E+02 -0.28624531559E+02 -0.76467341426E+03  0.78758304719E+03  0.17300000000E+03 0.  1.
         -6    1    1    2    0  502  0.69377676070E+02  0.28624531559E+02 -0.42048385968E+03  0.46083435418E+03  0.17300000000E+03 0.  1.
</event>
<event>
 4    1  0.5929306E+000  0.1000000E+03  0.7546771E-02  0.1280296E+00
         21   -1    0    0  503  502  0.00000000000E+00  0.00000000000E+00  0.60250114932E+03  0.60250114932E+03  0.00000000000E+00 0. -1.
         21   -1    0    0  501  503 -0.00000000000E+00 -0.00000000000E+00 -0.22426101317E+03  0.22426101317E+03  0.00000000000E+00 0.  1.
          6    1    1    2  501    0 -0.47996569540E+02  0.27357212704E+03  0.79502395947E+00  0.32722318293E+03  0.17300000000E+03 0.  1.
         -6    1    1    2    0  502  0.47996569540E+02 -0.27357212704E+03  0.37744511219E+03  0.49953897956E+03  0.17300000000E+03 0.  1.
</event>
<event>
 4    1  0.5929306E+000  0.1000000E+03  0.7546771E-02  0.1280296E+00
         21   -1    0    0  503  502  0.00000000000E+00  0.00000000000E+00  0.86746863567E+03  0.86746863567E+03  0.00000000000E+00 0. -1.
         21   -1    0    0  501  503 -0.00000000000E+00 -0.00000000000E+00 -0.42287251854E+03  0.42287251854E+03  0.00000000000E+00 0.  1.
          6    1    1    2  501    0  0.12318320687E+02  0.29296019191E+03 -0.31129786379E+03  0.46131635032E+03  0.17300000000E+03 0.  1.
         -6    1    1    2    0  502 -0.12318320687E+02 -0.29296019191E+03  0.75589398092E+03  0.82902480389E+03  0.17300000000E+03 0. -1.
</event>
<event>
 4    1  0.5929306E+000  0.1000000E+03  0.7546771E-02  0.1280296E+00
         21   -1    0    0  503  502  0.00000000000E+00  0.00000000000E+00  0.76445850837E+02  0.76445850837E+02  0.00000000000E+00 0. -1.
         21   -1    0    0  501  503 -0.00000000000E+00 -0.00000000000E+00 -0.58507079057E+03  0.58507079057E+03  0.00000000000E+00 0.  1.
          6    1    1    2  501    0  0.70496629116E+02  0.58836308174E+02 -0.37909516142E+03  0.42670086394E+03  0.17300000000E+03 0.  1.
         -6    1    1    2    0  502 -0.70496629116E+02 -0.58836308174E+02 -0.12952977831E+03  0.23481577746E+03  0.17300000000E+03 0. -1.
</event>
<event>
 4    1  0.5929306E+000  0.1000000E+03  0.7546771E-02  0.1280296E+00
         21   -1    0    0  501  502  0.00000000000E+00  0.00000000000E+00  0.26022188670E+03  0.26022188670E+03  0.00000000000E+00 0.  1.
         21   -1    0    0  502  503 -0.00000000000E+00 -0.00000000000E+00 -0.16245999085E+03  0.16245999085E+03  0.00000000000E+00 0.  1.
          6    1    1    2  501    0 -0.38730659890E+02  0.10043597664E+03  0.77202395032E+02  0.21789139317E+03  0.17300000000E+03 0.  1.
         -6    1    1    2    0  503  0.38730659890E+02 -0.10043597664E+03  0.20559500825E+02  0.20479048438E+03  0.17300000000E+03 0.  1.
</event>
<event>
 4    1  0.5929306E+000  0.1000000E+03  0.7546771E-02  0.1280296E+00
         21   -1    0    0  503  502  0.00000000000E+00  0.00000000000E+00  0.13422326002E+04  0.13422326002E+04  0.00000000000E+00 0. -1.
         21   -1    0    0  501  503 -0.00000000000E+00 -0.00000000000E+00 -0.53753461681E+02  0.53753461681E+02  0.00000000000E+00 0.  1.
          6    1    1    2  501    0  0.25660771102E+02  0.79259500360E+02  0.15615069172E+03  0.24749258998E+03  0.17300000000E+03 0.  1.
         -6    1    1    2    0  502 -0.25660771102E+02 -0.79259500360E+02  0.11323284468E+04  0.11484934719E+04  0.17300000000E+03 0. -1.
</event>
<event>
 4    1  0.5929306E+000  0.1000000E+03  0.7546771E-02  0.1280296E+00
         21   -1    0    0  503  502  0.00000000000E+00  0.00000000000E+00  0.14640727622E+03  0.14640727622E+03  0.00000000000E+00 0. -1.
         21   -1    0    0  501  503 -0.00000000000E+00 -0.00000000000E+00 -0.41115398972E+03  0.41115398972E+03  0.00000000000E+00 0.  1.
          6    1    1    2  501    0  0.18627959546E+02 -0.12251349102E+03  0.63735666520E+01  0.21289945681E+03  0.17300000000E+03 0.  1.
         -6    1    1    2    0  502 -0.18627959546E+02  0.12251349102E+03 -0.27112028015E+03  0.34466180912E+03  0.17300000000E+03 0. -1.
</event>
<event>
 4    1  0.5929306E+000  0.1000000E+03  0.7546771E-02  0.1280296E+00
         21   -1    0    0  503  502  0.00000000000E+00  0.00000000000E+00  0.12990796448E+04  0.12990796448E+04  0.00000000000E+00 0. -1.
         21   -1    0    0  501  503 -0.00000000000E+00 -0.00000000000E+00 -0.40568635539E+02  0.40568635539E+02  0.00000000000E+00 0.  1.
          6    1    1    2  501    0  0.12722549736E+03 -0.80774894141E+02  0.65222578488E+03  0.69140320014E+03  0.17300000000E+03 0.  1.
         -6    1    1    2    0  502 -0.12722549736E+03  0.80774894141E+02  0.60628522442E+03  0.64824508023E+03  0.17300000000E+03 0. -1.
</event>
<event>
 4    1  0.5929306E+000  0.1000000E+03  0.7546771E-02  0.1280296E+00
         21   -1    0    0  501  502  0.00000000000E+00  0.00000000000E+00  0.18697358971E+03  0.18697358971E+03  0.00000000000E+00 0.  1.
         21   -1    0    0  502  503 -0.00000000000E+00 -0.00000000000E+00 -0.53124733935E+03  0.53124733935E+03  0.00000000000E+00 0.  1.
          6    1    1    2  501    0 -0.18689052592E+03 -0.10997413237E+03 -0.34258752442E+03  0.44081468936E+03  0.17300000000E+03 0.  1.
         -6    1    1    2    0  503  0.18689052592E+03  0.10997413237E+03 -0.16862252225E+01  0.27740623970E+03  0.17300000000E+03 0.  1.
</event>
<event>
 4    1  0.5929306E+000  0.1000000E+03  0.7546771E-02  0.1280296E+00
         21   -1    0    0  501  502  0.00000000000E+00  0.00000000000E+00  0.52933385685E+03  0.52933385685E+03  0.00000000000E+00 0.  1.
         21   -1    0    0  502  503 -0.00000000000E+00 -0.00000000000E+00 -0.15665976523E+03  0.15665976523E+03  0.00000000000E+00 0.  1.
          6    1    1    2  501    0  0.10115804606E+03 -0.14818505430E+03  0.14536021850E+02  0.24966388712E+03  0.17300000000E+03 0.  1.
         -6    1    1    2    0  503 -0.10115804606E+03  0.14818505430E+03  0.35813806977E+03  0.43632973497E+03  0.17300000000E+03 0.  1.
</event>
<event>
 4    1  0.5929306E+000  0.1000000E+03  0.7546771E-02  0.1280296E+00
         21   -1    0    0  501  502  0.00000000000E+00  0.00000000000E+00  0.78032701461E+02  0.78032701461E+02  0.00000000000E+00 0.  1.
         21   -1    0    0  502  503 -0.00000000000E+00 -0.00000000000E+00 -0.10919027809E+04  0.10919027809E+04  0.00000000000E+00 0.  1.
          6    1    1    2  501    0 -0.64641707760E+01 -0.10937104087E+03 -0.90064072703E+02  0.22370593930E+03  0.17300000000E+03 0.  1.
         -6    1    1    2    0  503  0.64641707760E+01  0.10937104087E+03 -0.92380600670E+03  0.94622954303E+03  0.17300000000E+03 0.  1.
</event>
<event>
 4    1  0.5929306E+000  0.1000000E+03  0.7546771E-02  0.1280296E+00
         21   -1    0    0  503  502  0.00000000000E+00  0.00000000000E+00  0.23959193766E+03  0.23959193766E+03  0.00000000000E+00 0.  1.
         21   -1    0    0  501  503 -0.00000000000E+00 -0.00000000000E+00 -0.22805935071E+03  0.22805935071E+03  0.00000000000E+00 0.  1.
          6    1    1    2  501    0  0.39477105647E+02 -0.15094643000E+03  0.24979300274E+02  0.23429944951E+03  0.17300000000E+03 0. -1.
         -6    1    1    2    0  502 -0.39477105647E+02  0.15094643000E+03 -0.13446713322E+02  0.23335183886E+03  0.17300000000E+03 0. -1.
</event>
<event>
 4    1  0.5929306E+000  0.1000000E+03  0.7546771E-02  0.1280296E+00
         21   -1    0    0  503  502  0.00000000000E+00  0.00000000000E+00  0.77440233531E+03  0.77440233531E+03  0.00000000000E+00 0.  1.
         21   -1    0    0  501  503 -0.00000000000E+00 -0.00000000000E+00 -0.13086180735E+03  0.13086180735E+03  0.00000000000E+00 0.  1.
          6    1    1    2  501    0  0.17652747304E+03  0.15481863678E+03  0.14035166545E+03  0.32366394459E+03  0.17300000000E+03 0.  1.
         -6    1    1    2    0  502 -0.17652747304E+03 -0.15481863678E+03  0.50318886251E+03  0.58160019806E+03  0.17300000000E+03 0.  1.
</event>
<event>
 4    1  0.5929306E+000  0.1000000E+03  0.7546771E-02  0.1280296E+00
         21   -1    0    0  503  502  0.00000000000E+00  0.00000000000E+00  0.83483717808E+03  0.83483717808E+03  0.00000000000E+00 0.  1.
         21   -1    0    0  501  503 -0.00000000000E+00 -0.00000000000E+00 -0.10492365197E+03  0.10492365197E+03  0.00000000000E+00 0.  1.
          6    1    1    2  501    0 -0.13994299846E+03  0.16430604524E+03  0.19780511157E+03  0.34005349797E+03  0.17300000000E+03 0.  1.
         -6    1    1    2    0  502  0.13994299846E+03 -0.16430604524E+03  0.53210841455E+03  0.59970733208E+03  0.17300000000E+03 0.  1.
</event>
<event>
 4    1  0.5929306E+000  0.1000000E+03  0.7546771E-02  0.1280296E+00
         21   -1    0    0  501  502  0.00000000000E+00  0.00000000000E+00  0.36866759496E+03  0.36866759496E+03  0.00000000000E+00 0. -1.
         21   -1    0    0  502  503 -0.00000000000E+00 -0.00000000000E+00 -0.17085706712E+03  0.17085706712E+03  0.00000000000E+00 0.  1.
          6    1    1    2  501    0 -0.75697330617E+02 -0.75176910460E+02  0.25716304482E+03  0.32778573085E+03  0.17300000000E+03 0. -1.
         -6    1    1    2    0  503  0.75697330617E+02  0.75176910460E+02 -0.59352516979E+02  0.21173893124E+03  0.17300000000E+03 0.  1.
</event>
<event>
 4    1  0.5929306E+000  0.1000000E+03  0.7546771E-02  0.1280296E+00
         21   -1    0    0  501  502  0.00000000000E+00  0.00000000000E+00  0.30358952061E+03  0.30358952061E+03  0.00000000000E+00 0.  1.
         21   -1    0    0  502  503 -0.00000000000E+00 -0.00000000000E+00 -0.17426467276E+03  0.17426467276E+03  0.00000000000E+00 0.  1.
          6    1    1    2  501    0  0.63276923296E+02  0.82653179722E+02  0.17911723178E+03  0.26990276001E+03  0.17300000000E+03 0.  1.
         -6    1    1    2    0  503 -0.63276923296E+02 -0.82653179722E+02 -0.49792383931E+02  0.20795143336E+03  0.17300000000E+03 0.  1.
</event>
<event>
 4    1  0.5929306E+000  0.1000000E+03  0.7546771E-02  0.1280296E+00
         21   -1    0    0  503  502  0.00000000000E+00  0.00000000000E+00  0.76520426389E+02  0.76520426389E+02  0.00000000000E+00 0.  1.
         21   -1    0    0  501  503 -0.00000000000E+00 -0.00000000000E+00 -0.60217036078E+03  0.60217036078E+03  0.00000000000E+00 0.  1.
          6    1    1    2  501    0 -0.10424465678E+03  0.22710325334E+01 -0.37766583240E+03  0.42829030694E+03  0.17300000000E+03 0.  1.
         -6    1    1    2    0  502  0.10424465678E+03 -0.22710325334E+01 -0.14798410199E+03  0.25040048023E+03  0.17300000000E+03 0.  1.
</event>
<event>
 4    1  0.5929306E+000  0.1000000E+03  0.7546771E-02  0.1280296E+00
         21   -1    0    0  503  502  0.00000000000E+00  0.00000000000E+00  0.52171123669E+03  0.52171123669E+03  0.00000000000E+00 0.  1.
         21   -1    0    0  501  503 -0.00000000000E+00 -0.00000000000E+00 -0.10053363882E+03  0.10053363882E+03  0.00000000000E+00 0.  1.
          6    1    1    2  501    0 -0.38778054842E+02  0.40552739978E+02  0.21506550863E+02  0.18313872880E+03  0.17300000000E+03 0.  1.
         -6    1    1    2    0  502  0.38778054842E+02 -0.40552739978E+02  0.39967104701E+03  0.43910614670E+03  0.17300000000E+03 0.  1.
</event>
<event>
 4    1  0.5929306E+000  0.1000000E+03  0.7546771E-02  0.1280296E+00
         21   -1    0    0  503  502  0.00000000000E+00  0.00000000000E+00  0.10363826416E+03  0.10363826416E+03  0.00000000000E+00 0.  1.
         21   -1    0    0  501  503 -0.00000000000E+00 -0.00000000000E+00 -0.73203519757E+03  0.73203519757E+03  0.00000000000E+00 0.  1.
          6    1    1    2  501    0 -0.28306971522E+02  0.83233977855E+02 -0.61072364175E+03  0.64081319142E+03  0.17300000000E+03 0.  1.
         -6    1    1    2    0  502  0.28306971522E+02 -0.83233977855E+02 -0.17673291664E+02  0.19486027031E+03  0.17300000000E+03 0.  1.
</event>
<event>
 4    1  0.5929306E+000  0.1000000E+03  0.7546771E-02  0.1280296E+00
         21   -1    0    0  501  502  0.00000000000E+00  0.00000000000E+00  0.99431329823E+03  0.99431329823E+03  0.00000000000E+00 0. -1.
         21   -1    0    0  502  503 -0.00000000000E+00 -0.00000000000E+00 -0.46348736448E+02  0.46348736448E+02  0.00000000000E+00 0. -1.
          6    1    1    2  501    0 -0.99430619518E+02  0.53997874170E+02  0.61435322045E+03  0.64819834773E+03  0.17300000000E+03 0. -1.
         -6    1    1    2    0  503  0.99430619518E+02 -0.53997874170E+02  0.33361134132E+03  0.39246368695E+03  0.17300000000E+03 0. -1.
</event>
<event>
 4    1  0.5929306E+000  0.1000000E+03  0.7546771E-02  0.1280296E+00
         21   -1    0    0  501  502  0.00000000000E+00  0.00000000000E+00  0.38124707302E+03  0.38124707302E+03  0.00000000000E+00 0. -1.
         21   -1    0    0  502  503 -0.00000000000E+00 -0.00000000000E+00 -0.16981751519E+03  0.16981751519E+03  0.00000000000E+00 0. -1.
          6    1    1    2  501    0 -0.12048619650E+02 -0.16401129609E+03  0.10270882165E+02  0.23891288266E+03  0.17300000000E+03 0. -1.
         -6    1    1    2    0  503  0.12048619650E+02  0.16401129609E+03  0.20115867567E+03  0.31215170555E+03  0.17300000000E+03 0. -1.
</event>
<event>
 4    1  0.5929306E+000  0.1000000E+03  0.7546771E-02  0.1280296E+00
         21   -1    0    0  503  502  0.00000000000E+00  0.00000000000E+00  0.19467939329E+03  0.19467939329E+03  0.00000000000E+00 0.  1.
         21   -1    0    0  501  503 -0.00000000000E+00 -0.00000000000E+00 -0.45707205385E+03  0.45707205385E+03  0.00000000000E+00 0.  1.
          6    1    1    2  501    0 -0.36621898907E+01  0.13030410493E+03 -0.35524334559E+03  0.41607620213E+03  0.17300000000E+03 0.  1.
         -6    1    1    2    0  502  0.36621898907E+01 -0.13030410493E+03  0.92850685031E+02  0.23567524500E+03  0.17300000000E+03 0.  1.
</event>
<event>
 4    1  0.5929306E+000  0.1000000E+03  0.7546771E-02  0.1280296E+00
         21   -1    0    0  503  502  0.00000000000E+00  0.00000000000E+00  0.83957345162E+03  0.83957345162E+03  0.00000000000E+00 0. -1.
         21   -1    0    0  501  503 -0.00000000000E+00 -0.00000000000E+00 -0.67293662997E+02  0.67293662997E+02  0.00000000000E+00 0.  1.
          6    1    1    2  501    0  0.58931790787E+02 -0.13109031539E+03  0.23947018856E+03  0.32853096957E+03  0.17300000000E+03 0.  1.
         -6    1    1    2    0  502 -0.58931790787E+02  0.13109031539E+03  0.53280960006E+03  0.57833614505E+03  0.17300000000E+03 0. -1.
</event>
<event>
 4    1  0.5929306E+000  0.1000000E+03  0.7546771E-02  0.1280296E+00
         21   -1    0    0  501  502  0.00000000000E+00  0.00000000000E+00  0.12574863645E+04  0.12574863645E+04  0.00000000000E+00 0. -1.
         21   -1    0    0  502  503 -0.00000000000E+00 -0.00000000000E+00 -0.41792901151E+02  0.41792901151E+02  0.00000000000E+00 0. -1.
          6    1    1    2  501    0  0.28759884383E+02  0.33743505643E+02  0.10151584143E+04  0.10307479621E+04  0.17300000000E+03 0. -1.
         -6    1    1    2    0  503 -0.28759884383E+02 -0.33743505643E+02  0.20053504905E+03  0.26853130361E+03  0.17300000000E+03 0. -1.
</event>
<event>
 4    1  0.5929306E+000  0.1000000E+03  0.7546771E-02  0.1280296E+00
         21   -1    0    0  501  502  0.00000000000E+00  0.00000000000E+00  0.85966427940E+03  0.85966427940E+03  0.00000000000E+00 0. -1.
         21   -1    0    0  502  503 -0.00000000000E+00 -0.00000000000E+00 -0.49275699488E+02  0.49275699488E+02  0.00000000000E+00 0. -1.
          6    1    1    2  501    0  0.95128952535E+01  0.87626605688E+02  0.55597312467E+03  0.58890069839E+03  0.17300000000E+03 0. -1.
         -6    1    1    2    0  503 -0.95128952535E+01 -0.87626605688E+02  0.25441545524E+03  0.32003928050E+03  0.17300000000E+03 0. -1.
</event>
<event>
 4    1  0.5929306E+000  0.1000000E+03  0.7546771E-02  0.1280296E+00
         21   -1    0    0  501  502  0.00000000000E+00  0.00000000000E+00  0.19765639534E+04  0.19765639534E+04  0.00000000000E+00 0. -1.
         21   -1    0    0  502  503 -0.00000000000E+00 -0.00000000000E+00 -0.18343011230E+02  0.18343011230E+02  0.00000000000E+00 0. -1.
          6    1    1    2  501    0 -0.23925250839E+02 -0.12411431574E+02  0.13711429318E+04  0.13822765283E+04  0.17300000000E+03 0. -1.
         -6    1    1    2    0  503  0.23925250839E+02  0.12411431574E+02  0.58707801044E+03  0.61263043640E+03  0.17300000000E+03 0. -1.
</event>
<event>
 4    1  0.5929306E+000  0.1000000E+03  0.7546771E-02  0.1280296E+00
         21   -1    0    0  503  502  0.00000000000E+00  0.00000000000E+00  0.49415457178E+03  0.49415457178E+03  0.00000000000E+00 0.  1.
         21   -1    0    0  501  503 -0.00000000000E+00 -0.00000000000E+00 -0.15204939410E+03  0.15204939410E+03  0.00000000000E+00 0. -1.
          6    1    1    2  501    0 -0.15869515968E+03  0.65530906352E+02  0.23223864799E+02  0.24484035879E+03  0.17300000000E+03 0. -1.
         -6    1    1    2    0  502  0.15869515968E+03 -0.65530906352E+02  0.31888131288E+03  0.40136360710E+03  0.17300000000E+03 0. -1.
</event>
<event>
 4    1  0.5929306E+000  0.1000000E+03  0.7546771E-02  0.1280296E+00
         21   -1    0    0  503  502  0.00000000000E+00  0.00000000000E+00  0.98605669579E+03  0.98605669579E+03  0.00000000000E+00 0. -1.
         21   -1    0    0  501  503 -0.00000000000E+00 -0.00000000000E+00 -0.49051744659E+03  0.49051744659E+03  0.00000000000E+00 0. -1.
          6    1    1    2  501    0 -0.57590499881E+02  0.73807972296E+02 -0.46037121997E+03  0.50063453999E+03  0.17300000000E+03 0. -1.
         -6    1    1    2    0  502  0.57590499881E+02 -0.73807972296E+02  0.95591046917E+03  0.97593960239E+03  0.17300000000E+03 0. -1.
</event>
<event>
 4    1  0.5929306E+000  0.1000000E+03  0.7546771E-02  0.1280296E+00
         21   -1    0    0  503  502  0.00000000000E+00  0.00000000000E+00  0.60331464495E+03  0.60331464495E+03  0.00000000000E+00 0. -1.
         21   -1    0    0  501  503 -0.00000000000E+00 -0.00000000000E+00 -0.70161057476E+02  0.70161057476E+02  0.00000000000E+00 0. -1.
          6    1    1    2  501    0 -0.33623743121E+02 -0.37719296848E+02  0.10416351746E+03  0.20816421360E+03  0.17300000000E+03 0. -1.
         -6    1    1    2    0  502  0.33623743121E+02  0.37719296848E+02  0.42899007002E+03  0.46531148883E+03  0.17300000000E+03 0. -1.
</event>
<event>
 4    1  0.5929306E+000  0.1000000E+03  0.7546771E-02  0.1280296E+00
         21   -1    0    0  501  502  0.00000000000E+00  0.00000000000E+00  0.18745730811E+03  0.18745730811E+03  0.00000000000E+00 0.  1.
         21   -1    0    0  502  503 -0.00000000000E+00 -0.00000000000E+00 -0.23749869735E+03  0.23749869735E+03  0.00000000000E+00 0.  1.
          6    1    1    2  501    0 -0.79614650167E+02 -0.75083497983E+02  0.26482948481E+02  0.20641310702E+03  0.17300000000E+03 0.  1.
         -6    1    1    2    0  503  0.79614650167E+02  0.75083497983E+02 -0.76524337721E+02  0.21854289843E+03  0.17300000000E+03 0.  1.
</event>
<event>
 4    1  0.5929306E+000  0.1000000E+03  0.7546771E-02  0.1280296E+00
         21   -1    0    0  503  502  0.00000000000E+00  0.00000000000E+00  0.34154105271E+04  0.34154105271E+04  0.00000000000E+00 0. -1.
         21   -1    0    0  501  503 -0.00000000000E+00 -0.00000000000E+00 -0.42617768417E+02  0.42617768417E+02  0.00000000000E+00 0.  1.
          6    1    1    2  501    0  0.32459418604E+03 -0.29718036571E+01  0.21453958548E+04  0.21766999313E+04  0.17300000000E+03 0.  1.
         -6    1    1    2    0  502 -0.32459418604E+03  0.29718036571E+01  0.12273969039E+04  0.12813283642E+04  0.17300000000E+03 0. -1.
</event>
<event>
 4    1  0.5929306E+000  0.1000000E+03  0.7546771E-02  0.1280296E+00
         21   -1    0    0  503  502  0.00000000000E+00  0.00000000000E+00  0.59075677411E+03  0.59075677411E+03  0.00000000000E+00 0. -1.
         21   -1    0    0  501  503 -0.00000000000E+00 -0.00000000000E+00 -0.68840289288E+02  0.68840289288E+02  0.00000000000E+00 0.  1.
          6    1    1    2  501    0  0.77599539044E+01  0.99429428513E+02  0.30699513104E+03  0.36622593930E+03  0.17300000000E+03 0.  1.
         -6    1    1    2    0  502 -0.77599539044E+01 -0.99429428513E+02  0.21492135378E+03  0.29337112409E+03  0.17300000000E+03 0. -1.
</event>
<event>
 4    1  0.5929306E+000  0.1000000E+03  0.7546771E-02  0.1280296E+00
         21   -1    0    0  503  502  0.00000000000E+00  0.00000000000E+00  0.96508237826E+03  0.96508237826E+03  0.00000000000E+00 0. -1.
         21   -1    0    0  501  503 -0.00000000000E+00 -0.00000000000E+00 -0.40474779838E+02  0.40474779838E+02  0.00000000000E+00 0.  1.
          6    1    1    2  501    0 -0.87442423521E+02 -0.31326766809E+02  0.51946848486E+03  0.55534138196E+03  0.17300000000E+03 0.  1.
         -6    1    1    2    0  502  0.87442423521E+02  0.31326766809E+02  0.40513911357E+03  0.45021577615E+03  0.17300000000E+03 0. -1.
</event>
<event>
 4    1  0.5929306E+000  0.1000000E+03  0.7546771E-02  0.1280296E+00
         21   -1    0    0  503  502  0.00000000000E+00  0.00000000000E+00  0.20581594211E+04  0.20581594211E+04  0.00000000000E+00 0. -1.
         21   -1    0    0  501  503 -0.00000000000E+00 -0.00000000000E+00 -0.34871224833E+02  0.34871224833E+02  0.00000000000E+00 0.  1.
          6    1    1    2  501    0 -0.22328734397E+01 -0.17792567790E+03  0.61752707063E+03  0.66553077730E+03  0.17300000000E+03 0.  1.
         -6    1    1    2    0  502  0.22328734397E+01  0.17792567790E+03  0.14057611256E+04  0.14274998686E+04  0.17300000000E+03 0. -1.
</event>
<event>
 4    1  0.5929306E+000  0.1000000E+03  0.7546771E-02  0.1280296E+00
         21   -1    0    0  503  502  0.00000000000E+00  0.00000000000E+00  0.34777229212E+03  0.34777229212E+03  0.00000000000E+00 0. -1.
         21   -1    0    0  501  503 -0.00000000000E+00 -0.00000000000E+00 -0.12352202817E+03  0.12352202817E+03  0.00000000000E+00 0.  1.
          6    1    1    2  501    0 -0.11583486193E+02 -0.11251883235E+03  0.94737775461E+02  0.22737394504E+03  0.17300000000E+03 0.  1.
         -6    1    1    2    0  502  0.11583486193E+02  0.11251883235E+03  0.12951248849E+03  0.24392037525E+03  0.17300000000E+03 0. -1.
</event>
<event>
 4    1  0.5929306E+000  0.1000000E+03  0.7546771E-02  0.1280296E+00
         21   -1    0    0  503  502  0.00000000000E+00  0.00000000000E+00  0.81262089901E+03  0.81262089901E+03  0.00000000000E+00 0. -1.
         21   -1    0    0  501  503 -0.00000000000E+00 -0.00000000000E+00 -0.92369557114E+02  0.92369557114E+02  0.00000000000E+00 0.  1.
          6    1    1    2  501    0  0.11676816796E+03 -0.15379104433E+02  0.68108908960E+02  0.22008894880E+03  0.17300000000E+03 0.  1.
         -6    1    1    2    0  502 -0.11676816796E+03  0.15379104433E+02  0.65214243294E+03  0.68490150733E+03  0.17300000000E+03 0. -1.
</event>
<event>
 4    1  0.5929306E+000  0.1000000E+03  0.7546771E-02  0.1280296E+00
         21   -1    0    0  501  502  0.00000000000E+00  0.00000000000E+00  0.35248935158E+02  0.35248935158E+02  0.00000000000E+00 0. -1.
         21   -1    0    0  502  503 -0.00000000000E+00 -0.00000000000E+00 -0.11542545188E+04  0.11542545188E+04  0.00000000000E+00 0. -1.
          6    1    1    2  501    0  0.25541848072E+02  0.22116531437E+02 -0.27036642013E+03  0.32275149589E+03  0.17300000000E+03 0. -1.
         -6    1    1    2    0  503 -0.25541848072E+02 -0.22116531437E+02 -0.84863916352E+03  0.86675195808E+03  0.17300000000E+03 0. -1.
</event>
<event>
 4    1  0.5929306E+000  0.1000000E+03  0.7546771E-02  0.1280296E+00
         21   -1    0    0  501  502  0.00000000000E+00  0.00000000000E+00  0.64267504417E+03  0.64267504417E+03  0.00000000000E+00 0.  1.
         21   -1    0    0  502  503 -0.00000000000E+00 -0.00000000000E+00 -0.97171084582E+02  0.97171084582E+02  0.00000000000E+00 0.  1.
          6    1    1    2  501    0 -0.84431430492E+02  0.99772617038E+02  0.88830994540E+02  0.23431429140E+03  0.17300000000E+03 0.  1.
         -6    1    1    2    0  503  0.84431430492E+02 -0.99772617038E+02  0.45667296505E+03  0.50553183735E+03  0.17300000000E+03 0.  1.
</event>
<event>
 4    1  0.5929306E+000  0.1000000E+03  0.7546771E-02  0.1280296E+00
         21   -1    0    0  501  502  0.00000000000E+00  0.00000000000E+00  0.34308513678E+03  0.34308513678E+03  0.00000000000E+00 0.  1.
         21   -1    0    0  502  503 -0.00000000000E+00 -0.00000000000E+00 -0.19265707246E+03  0.19265707246E+03  0.00000000000E+00 0.  1.
          6    1    1    2  501    0 -0.15273430227E+03  0.10523944627E+03  0.11899518539E+03  0.28016417024E+03  0.17300000000E+03 0.  1.
         -6    1    1    2    0  503  0.15273430227E+03 -0.10523944627E+03  0.31432878934E+02  0.25557803900E+03  0.17300000000E+03 0.  1.
</event>
<event>
 4    1  0.5929306E+000  0.1000000E+03  0.7546771E-02  0.1280296E+00
         21   -1    0    0  503  502  0.00000000000E+00  0.00000000000E+00  0.30778187009E+02  0.30778187009E+02  0.00000000000E+00 0.  1.
         21   -1    0    0  501  503 -0.00000000000E+00 -0.00000000000E+00 -0.14675436319E+04  0.14675436319E+04  0.00000000000E+00 0.  1.
          6    1    1    2  501    0  0.35995007991E+01 -0.41807932666E+02 -0.11276230483E+04  0.11415881914E+04  0.17300000000E+03 0.  1.
         -6    1    1    2    0  502 -0.35995007991E+01  0.41807932666E+02 -0.30914239659E+03  0.35673362752E+03  0.17300000000E+03 0.  1.
</event>
<event>
 4    1  0.5929306E+000  0.1000000E+03  0.7546771E-02  0.1280296E+00
         21   -1    0    0  501  502  0.00000000000E+00  0.00000000000E+00  0.18731326650E+04  0.18731326650E+04  0.00000000000E+00 0. -1.
         21   -1    0    0  502  503 -0.00000000000E+00 -0.00000000000E+00 -0.17742532631E+02  0.17742532631E+02  0.00000000000E+00 0.  1.
          6    1    1    2  501    0 -0.34463160898E+02 -0.43581256838E+02  0.85110882962E+03  0.87028861608E+03  0.17300000000E+03 0. -1.
         -6    1    1    2    0  503  0.34463160898E+02  0.43581256838E+02  0.10042813027E+04  0.10205865815E+04  0.17300000000E+03 0.  1.
</event>
<event>
 4    1  0.5929306E+000  0.1000000E+03  0.7546771E-02  0.1280296E+00
         21   -1    0    0  501  502  0.00000000000E+00  0.00000000000E+00  0.73810685849E+02  0.73810685849E+02  0.00000000000E+00 0. -1.
         21   -1    0    0  502  503 -0.00000000000E+00 -0.00000000000E+00 -0.97308610657E+03  0.97308610657E+03  0.00000000000E+00 0.  1.
          6    1    1    2  501    0  0.13135945817E+03  0.51342831763E+02 -0.15991198433E+03  0.27457646723E+03  0.17300000000E+03 0. -1.
         -6    1    1    2    0  503 -0.13135945817E+03 -0.51342831763E+02 -0.73936343639E+03  0.77232032519E+03  0.17300000000E+03 0.  1.
</event>
<event>
 4    1  0.5929306E+000  0.1000000E+03  0.7546771E-02  0.1280296E+00
         21   -1    0    0  503  502  0.00000000000E+00  0.00000000000E+00  0.16329717009E+04  0.16329717009E+04  0.00000000000E+00 0. -1.
         21   -1    0    0  501  503 -0.00000000000E+00 -0.00000000000E+00 -0.40190982956E+02  0.40190982956E+02  0.00000000000E+00 0. -1.
          6    1    1    2  501    0 -0.40993426224E+02  0.14661025678E+03  0.11618782834E+04  0.11845105208E+04  0.17300000000E+03 0. -1.
         -6    1    1    2    0  502  0.40993426224E+02 -0.14661025678E+03  0.43090243453E+03  0.48865216307E+03  0.17300000000E+03 0. -1.
</event>
<event>
 4    1  0.5929306E+000  0.1000000E+03  0.7546771E-02  0.1280296E+00
         21   -1    0    0  503  502  0.00000000000E+00  0.00000000000E+00  0.88695482345E+02  0.88695482345E+02  0.00000000000E+00 0. -1.
         21   -1    0    0  501  503 -0.00000000000E+00 -0.00000000000E+00 -0.58985994459E+03  0.58985994459E+03  0.00000000000E+00 0. -1.
          6    1    1    2  501    0  0.18838270719E+02  0.14379529957E+03 -0.30522227518E+03  0.37963351524E+03  0.17300000000E+03 0. -1.
         -6    1    1    2    0  502 -0.18838270719E+02 -0.14379529957E+03 -0.19594218707E+03  0.29892191170E+03  0.17300000000E+03 0. -1.
</event>
<event>
 4    1  0.5929306E+000  0.1000000E+03  0.7546771E-02  0.1280296E+00
         21   -1    0    0  501  502  0.00000000000E+00  0.00000000000E+00  0.17044650135E+03  0.17044650135E+03  0.00000000000E+00 0. -1.
         21   -1    0    0  502  503 -0.00000000000E+00 -0.00000000000E+00 -0.30560493725E+03  0.30560493725E+03  0.00000000000E+00 0. -1.
          6    1    1    2  501    0 -0.37973097233E+02 -0.10811033867E+03  0.31528011907E+02  0.20988762940E+03  0.17300000000E+03 0.  1.
         -6    1    1    2    0  503  0.37973097233E+02  0.10811033867E+03 -0.16668644781E+03  0.26616380919E+03  0.17300000000E+03 0.  1.
</event>
<event>
 4    1  0.5929306E+000  0.1000000E+03  0.7546771E-02  0.1280296E+00
         21   -1    0    0  501  502  0.00000000000E+00  0.00000000000E+00  0.53842184443E+03  0.53842184443E+03  0.00000000000E+00 0. -1.
         21   -1    0    0  502  503 -0.00000000000E+00 -0.00000000000E+00 -0.75362291042E+02  0.75362291042E+02  0.00000000000E+00 0. -1.
          6    1    1    2  501    0 -0.52229391290E+02 -0.54362025279E+02  0.33887627101E+03  0.38787790110E+03  0.17300000000E+03 0.  1.
         -6    1    1    2    0  503  0.52229391290E+02  0.54362025279E+02  0.12418328238E+03  0.22590623438E+03  0.17300000000E+03 0.  1.
</event>
<event>
 4    1  0.5929306E+000  0.1000000E+03  0.7546771E-02  0.1280296E+00
         21   -1    0    0  501  502  0.00000000000E+00  0.00000000000E+00  0.25491070225E+03  0.25491070225E+03  0.00000000000E+00 0. -1.
         21   -1    0    0  502  503 -0.00000000000E+00 -0.00000000000E+00 -0.28347008842E+03  0.28347008842E+03  0.00000000000E+00 0. -1.
          6    1    1    2  501    0 -0.17040360382E+03  0.11510211397E+03 -0.75863727304E+01  0.26883533601E+03  0.17300000000E+03 0. -1.
         -6    1    1    2    0  503  0.17040360382E+03 -0.11510211397E+03 -0.20973013439E+02  0.26954545466E+03  0.17300000000E+03 0. -1.
</event>
<event>
 4    1  0.5929306E+000  0.1000000E+03  0.7546771E-02  0.1280296E+00
         21   -1    0    0  501  502  0.00000000000E+00  0.00000000000E+00  0.34700555049E+02  0.34700555049E+02  0.00000000000E+00 0. -1.
         21   -1    0    0  502  503 -0.00000000000E+00 -0.00000000000E+00 -0.11848482199E+04  0.11848482199E+04  0.00000000000E+00 0. -1.
          6    1    1    2  501    0 -0.56193254216E+02 -0.76325964715E+02 -0.43393936002E+03  0.47667148319E+03  0.17300000000E+03 0. -1.
         -6    1    1    2    0  503  0.56193254216E+02  0.76325964715E+02 -0.71620830486E+03  0.74287729179E+03  0.17300000000E+03 0. -1.
</event>
<event>
 4    1  0.5929306E+000  0.1000000E+03  0.7546771E-02  0.1280296E+00
         21   -1    0    0  501  502  0.00000000000E+00  0.00000000000E+00  0.87293568446E+03  0.87293568446E+03  0.00000000000E+00 0.  1.
         21   -1    0    0  502  503 -0.00000000000E+00 -0.00000000000E+00 -0.43766115691E+02  0.43766115691E+02  0.00000000000E+00 0.  1.
          6    1    1    2  501    0 -0.48304284457E+02 -0.22395706311E+02  0.58755949700E+03  0.61480894111E+03  0.17300000000E+03 0.  1.
         -6    1    1    2    0  503  0.48304284457E+02  0.22395706311E+02  0.24161007177E+03  0.30189285904E+03  0.17300000000E+03 0.  1.
</event>
<event>
 4    1  0.5929306E+000  0.1000000E+03  0.7546771E-02  0.1280296E+00
         21   -1    0    0  503  502  0.00000000000E+00  0.00000000000E+00  0.28840798071E+03  0.28840798071E+03  0.00000000000E+00 0.  1.
         21   -1    0    0  501  503 -0.00000000000E+00 -0.00000000000E+00 -0.14939199481E+03  0.14939199481E+03  0.00000000000E+00 0. -1.
          6    1    1    2  501    0 -0.95623556944E+02 -0.57124928167E+02  0.98383420185E+02  0.22806889185E+03  0.17300000000E+03 0. -1.
         -6    1    1    2    0  502  0.95623556944E+02  0.57124928167E+02  0.40632565720E+02  0.20973108367E+03  0.17300000000E+03 0. -1.
</event>
<event>
 4    1  0.5929306E+000  0.1000000E+03  0.7546771E-02  0.1280296E+00
         21   -1    0    0  503  502  0.00000000000E+00  0.00000000000E+00  0.27932900051E+03  0.27932900051E+03  0.00000000000E+00 0.  1.
         21   -1    0    0  501  503 -0.00000000000E+00 -0.00000000000E+00 -0.12231781978E+03  0.12231781978E+03  0.00000000000E+00 0. -1.
          6    1    1    2  501    0  0.25680262655E+00 -0.20427767282E+02  0.11351159895E+02  0.17457149955E+03  0.17300000000E+03 0. -1.
         -6    1    1    2    0  502 -0.25680262655E+00  0.20427767282E+02  0.14566002083E+03  0.22707532075E+03  0.17300000000E+03 0. -1.
</event>
<event>
 4    1  0.5929306E+000  0.1000000E+03  0.7546771E-02  0.1280296E+00
         21   -1    0    0  503  502  0.00000000000E+00  0.00000000000E+00  0.11811516996E+04  0.11811516996E+04  0.00000000000E+00 0.  1.
         21   -1    0    0  501  503 -0.00000000000E+00 -0.00000000000E+00 -0.90529933734E+02  0.90529933734E+02  0.00000000000E+00 0. -1.
          6    1    1    2  501    0 -0.94249044201E+02 -0.46570463032E+02  0.45962988336E+02  0.20758922577E+03  0.17300000000E+03 0. -1.
         -6    1    1    2    0  502  0.94249044201E+02  0.46570463032E+02  0.10446587775E+04  0.10640924076E+04  0.17300000000E+03 0. -1.
</event>
<event>
 4    1  0.5929306E+000  0.1000000E+03  0.7546771E-02  0.1280296E+00
         21   -1    0    0  503  502  0.00000000000E+00  0.00000000000E+00  0.10312171886E+04  0.10312171886E+04  0.00000000000E+00 0. -1.
         21   -1    0    0  501  503 -0.00000000000E+00 -0.00000000000E+00 -0.29711993117E+03  0.29711993117E+03  0.00000000000E+00 0.  1.
          6    1    1    2  501    0 -0.33258340549E+02  0.17413188355E+01 -0.26258140167E+03  0.31620743494E+03  0.17300000000E+03 0.  1.
         -6    1    1    2    0  502  0.33258340549E+02 -0.17413188355E+01  0.99667865907E+03  0.10121296848E+04  0.17300000000E+03 0. -1.
</event>
<event>
 4    1  0.5929306E+000  0.1000000E+03  0.7546771E-02  0.1280296E+00
         21   -1    0    0  503  502  0.00000000000E+00  0.00000000000E+00  0.25028863238E+03  0.25028863238E+03  0.00000000000E+00 0. -1.
         21   -1    0    0  501  503 -0.00000000000E+00 -0.00000000000E+00 -0.45669519911E+03  0.45669519911E+03  0.00000000000E+00 0.  1.
          6    1    1    2  501    0  0.78962961702E+02 -0.50191710424E+02 -0.39072491582E+03  0.43743492883E+03  0.17300000000E+03 0.  1.
         -6    1    1    2    0  502 -0.78962961702E+02  0.50191710424E+02  0.18431834909E+03  0.26954890266E+03  0.17300000000E+03 0. -1.
</event>
<event>
 4    1  0.5929306E+000  0.1000000E+03  0.7546771E-02  0.1280296E+00
         21   -1    0    0  503  502  0.00000000000E+00  0.00000000000E+00  0.32327317424E+03  0.32327317424E+03  0.00000000000E+00 0.  1.
         21   -1    0    0  501  503 -0.00000000000E+00 -0.00000000000E+00 -0.51796842105E+03  0.51796842105E+03  0.00000000000E+00 0.  1.
          6    1    1    2  501    0  0.11660980438E+03  0.27892891993E+03 -0.31808978653E+03  0.47170891570E+03  0.17300000000E+03 0.  1.
         -6    1    1    2    0  502 -0.11660980438E+03 -0.27892891993E+03  0.12339453973E+03  0.36953267959E+03  0.17300000000E+03 0.  1.
</event>
<event>
 4    1  0.5929306E+000  0.1000000E+03  0.7546771E-02  0.1280296E+00
         21   -1    0    0  503  502  0.00000000000E+00  0.00000000000E+00  0.97089162841E+02  0.97089162841E+02  0.00000000000E+00 0.  1.
         21   -1    0    0  501  503 -0.00000000000E+00 -0.00000000000E+00 -0.55913247763E+03  0.55913247763E+03  0.00000000000E+00 0.  1.
          6    1    1    2  501    0  0.13067987855E+03  0.26311191033E+02 -0.34531687692E+03  0.40858567635E+03  0.17300000000E+03 0.  1.
         -6    1    1    2    0  502 -0.13067987855E+03 -0.26311191033E+02 -0.11672643787E+03  0.24763596413E+03  0.17300000000E+03 0.  1.
</event>
<event>
 4    1  0.5929306E+000  0.1000000E+03  0.7546771E-02  0.1280296E+00
         21   -1    0    0  503  502  0.00000000000E+00  0.00000000000E+00  0.10124822718E+03  0.10124822718E+03  0.00000000000E+00 0.  1.
         21   -1    0    0  501  503 -0.00000000000E+00 -0.00000000000E+00 -0.47387497902E+03  0.47387497902E+03  0.00000000000E+00 0. -1.
          6    1    1    2  501    0  0.70377480576E+02  0.63420353387E+02 -0.31137541694E+03  0.36859026204E+03  0.17300000000E+03 0. -1.
         -6    1    1    2    0  502 -0.70377480576E+02 -0.63420353387E+02 -0.61251334893E+02  0.20653294416E+03  0.17300000000E+03 0. -1.
</event>
<event>
 4    1  0.5929306E+000  0.1000000E+03  0.7546771E-02  0.1280296E+00
         21   -1    0    0  503  502  0.00000000000E+00  0.00000000000E+00  0.99117790804E+03  0.99117790804E+03  0.00000000000E+00 0.  1.
         21   -1    0    0  501  503 -0.00000000000E+00 -0.00000000000E+00 -0.55667433689E+02  0.55667433689E+02  0.00000000000E+00 0. -1.
          6    1    1    2  501    0  0.16595564411E+02 -0.64690324063E+02  0.14648324777E+03  0.23631883688E+03  0.17300000000E+03 0. -1.
         -6    1    1    2    0  502 -0.16595564411E+02  0.64690324063E+02  0.78902722658E+03  0.81052650485E+03  0.17300000000E+03 0. -1.
</event>
<event>
 4    1  0.5929306E+000  0.1000000E+03  0.7546771E-02  0.1280296E+00
         21   -1    0    0  503  502  0.00000000000E+00  0.00000000000E+00  0.16088655314E+03  0.16088655314E+03  0.00000000000E+00 0.  1.
         21   -1    0    0  501  503 -0.00000000000E+00 -0.00000000000E+00 -0.25508426273E+03  0.25508426273E+03  0.00000000000E+00 0. -1.
          6    1    1    2  501    0 -0.46307384640E+02 -0.91484900964E+02 -0.22018510634E+02  0.20230589657E+03  0.17300000000E+03 0. -1.
         -6    1    1    2    0  502  0.46307384640E+02  0.91484900964E+02 -0.72179198958E+02  0.21366491930E+03  0.17300000000E+03 0. -1.
</event>
<event>
 4    1  0.5929306E+000  0.1000000E+03  0.7546771E-02  0.1280296E+00
         21   -1    0    0  503  502  0.00000000000E+00  0.00000000000E+00  0.10796387184E+03  0.10796387184E+03  0.00000000000E+00 0.  1.
         21   -1    0    0  501  503 -0.00000000000E+00 -0.00000000000E+00 -0.81063268307E+03  0.81063268307E+03  0.00000000000E+00 0. -1.
          6    1    1    2  501    0  0.44311293018E+02  0.92699048301E+02 -0.68803734136E+03  0.71685492769E+03  0.17300000000E+03 0. -1.
         -6    1    1    2    0  502 -0.44311293018E+02 -0.92699048301E+02 -0.14631469872E+02  0.20174162723E+03  0.17300000000E+03 0. -1.
</event>
<event>
 4    1  0.5929306E+000  0.1000000E+03  0.7546771E-02  0.1280296E+00
         21   -1    0    0  501  502  0.00000000000E+00  0.00000000000E+00  0.12074614017E+04  0.12074614017E+04  0.00000000000E+00 0. -1.
         21   -1    0    0  502  503 -0.00000000000E+00 -0.00000000000E+00 -0.70007477568E+02  0.70007477568E+02  0.00000000000E+00 0.  1.
          6    1    1    2  501    0 -0.13896517021E+03 -0.97334865448E+02  0.21573581865E+03  0.32443233195E+03  0.17300000000E+03 0. -1.
         -6    1    1    2    0  503  0.13896517021E+03  0.97334865448E+02  0.92171810547E+03  0.95303654732E+03  0.17300000000E+03 0.  1.
</event>
<event>
 4    1  0.5929306E+000  0.1000000E+03  0.7546771E-02  0.1280296E+00
         21   -1    0    0  501  502  0.00000000000E+00  0.00000000000E+00  0.50763269751E+03  0.50763269751E+03  0.00000000000E+00 0.  1.
         21   -1    0    0  502  503 -0.00000000000E+00 -0.00000000000E+00 -0.14266247465E+03  0.14266247465E+03  0.00000000000E+00 0.  1.
          6    1    1    2  501    0  0.16215673917E+03 -0.76815957826E+02  0.30508144527E+03  0.39395328109E+03  0.17300000000E+03 0.  1.
         -6    1    1    2    0  503 -0.16215673917E+03  0.76815957826E+02  0.59888777588E+02  0.25634189107E+03  0.17300000000E+03 0.  1.
</event>
<event>
 4    1  0.5929306E+000  0.1000000E+03  0.7546771E-02  0.1280296E+00
         21   -1    0    0  501  502  0.00000000000E+00  0.00000000000E+00  0.92733176389E+02  0.92733176389E+02  0.00000000000E+00 0.  1.
         21   -1    0    0  502  503 -0.00000000000E+00 -0.00000000000E+00 -0.44069494887E+03  0.44069494887E+03  0.00000000000E+00 0.  1.
          6    1    1    2  501    0 -0.30308480876E+00  0.31970105635E+02 -0.42602305084E+02  0.18101418705E+03  0.17300000000E+03 0.  1.
         -6    1    1    2    0  503  0.30308480876E+00 -0.31970105635E+02 -0.30535946740E+03  0.35241393821E+03  0.17300000000E+03 0.  1.
</event>
<event>
 4    1  0.5929306E+000  0.1000000E+03  0.7546771E-02  0.1280296E+00
         21   -1    0    0  501  502  0.00000000000E+00  0.00000000000E+00  0.19022728439E+03  0.19022728439E+03  0.00000000000E+00 0. -1.
         21   -1    0    0  502  503 -0.00000000000E+00 -0.00000000000E+00 -0.26846272553E+03  0.26846272553E+03  0.00000000000E+00 0.  1.
          6    1    1    2  501    0 -0.85218889405E+02  0.99075850215E+02  0.25561122235E+02  0.21831320202E+03  0.17300000000E+03 0. -1.
         -6    1    1    2    0  503  0.85218889405E+02 -0.99075850215E+02 -0.10379656337E+03  0.24037680790E+03  0.17300000000E+03 0.  1.
</event>
<event>
 4    1  0.5929306E+000  0.1000000E+03  0.7546771E-02  0.1280296E+00
         21   -1    0    0  503  502  0.00000000000E+00  0.00000000000E+00  0.44116788264E+02  0.44116788264E+02  0.00000000000E+00 0. -1.
         21   -1    0    0  501  503 -0.00000000000E+00 -0.00000000000E+00 -0.10258980118E+04  0.10258980118E+04  0.00000000000E+00 0.  1.
          6    1    1    2  501    0 -0.40885659346E+02 -0.94903980809E+02 -0.66241346553E+03  0.69238645425E+03  0.17300000000E+03 0.  1.
         -6    1    1    2    0  502  0.40885659346E+02  0.94903980809E+02 -0.31936775805E+03  0.37762834586E+03  0.17300000000E+03 0. -1.
</event>
<event>
 4    1  0.5929306E+000  0.1000000E+03  0.7546771E-02  0.1280296E+00
         21   -1    0    0  503  502  0.00000000000E+00  0.00000000000E+00  0.62802579890E+03  0.62802579890E+03  0.00000000000E+00 0. -1.
         21   -1    0    0  501  503 -0.00000000000E+00 -0.00000000000E+00 -0.15601218713E+03  0.15601218713E+03  0.00000000000E+00 0.  1.
          6    1    1    2  501    0  0.36222007504E+02  0.99710604343E+02 -0.62462490212E+02  0.21233181846E+03  0.17300000000E+03 0.  1.
         -6    1    1    2    0  502 -0.36222007504E+02 -0.99710604343E+02  0.53447610198E+03  0.57170616757E+03  0.17300000000E+03 0. -1.
</event>
<event>
 4    1  0.5929306E+000  0.1000000E+03  0.7546771E-02  0.1280296E+00
         21   -1    0    0  501  502  0.00000000000E+00  0.00000000000E+00  0.18299316661E+03  0.18299316661E+03  0.00000000000E+00 0.  1.
         21   -1    0    0  502  503 -0.00000000000E+00 -0.00000000000E+00 -0.33243971062E+03  0.33243971062E+03  0.00000000000E+00 0. -1.
          6    1    1    2  501    0  0.39114340957E+02  0.41493247058E+02  0.99034353221E+02  0.20733650025E+03  0.17300000000E+03 0. -1.
         -6    1    1    2    0  503 -0.39114340957E+02 -0.41493247058E+02 -0.24848089723E+03  0.30809637698E+03  0.17300000000E+03 0.  1.
</event>
<event>
 4    1  0.5929306E+000  0.1000000E+03  0.7546771E-02  0.1280296E+00
         21   -1    0    0  501  502  0.00000000000E+00  0.00000000000E+00  0.72842812719E+03  0.72842812719E+03  0.00000000000E+00 0.  1.
         21   -1    0    0  502  503 -0.00000000000E+00 -0.00000000000E+00 -0.11713972551E+03  0.11713972551E+03  0.00000000000E+00 0. -1.
          6    1    1    2  501    0 -0.17477577043E+02 -0.22618633680E+03  0.39641435209E+03  0.48840461013E+03  0.17300000000E+03 0. -1.
         -6    1    1    2    0  503  0.17477577043E+02  0.22618633680E+03  0.21487404959E+03  0.35716324257E+03  0.17300000000E+03 0.  1.
</event>
<event>
 4    1  0.5929306E+000  0.1000000E+03  0.7546771E-02  0.1280296E+00
         21   -1    0    0  501  502  0.00000000000E+00  0.00000000000E+00  0.19791587154E+03  0.19791587154E+03  0.00000000000E+00 0.  1.
         21   -1    0    0  502  503 -0.00000000000E+00 -0.00000000000E+00 -0.21631487128E+03  0.21631487128E+03  0.00000000000E+00 0. -1.
          6    1    1    2  501    0  0.83477391339E+02 -0.44979710670E+02  0.53243992399E+02  0.20434180180E+03  0.17300000000E+03 0. -1.
         -6    1    1    2    0  503 -0.83477391339E+02  0.44979710670E+02 -0.71642992144E+02  0.20988894101E+03  0.17300000000E+03 0.  1.
</event>
<event>
 4    1  0.5929306E+000  0.1000000E+03  0.7546771E-02  0.1280296E+00
         21   -1    0    0  503  502  0.00000000000E+00  0.00000000000E+00  0.52853006106E+03  0.52853006106E+03  0.00000000000E+00 0.  1.
         21   -1    0    0  501  503 -0.00000000000E+00 -0.00000000000E+00 -0.31564374124E+03  0.31564374124E+03  0.00000000000E+00 0.  1.
          6    1    1    2  501    0  0.20348135626E+03 -0.16878141347E+03 -0.16105851649E+03  0.35462751390E+03  0.17300000000E+03 0. -1.
         -6    1    1    2    0  502 -0.20348135626E+03  0.16878141347E+03  0.37394483631E+03  0.48954628840E+03  0.17300000000E+03 0. -1.
</event>
<event>
 4    1  0.5929306E+000  0.1000000E+03  0.7546771E-02  0.1280296E+00
         21   -1    0    0  503  502  0.00000000000E+00  0.00000000000E+00  0.52115375455E+03  0.52115375455E+03  0.00000000000E+00 0.  1.
         21   -1    0    0  501  503 -0.00000000000E+00 -0.00000000000E+00 -0.42886349397E+03  0.42886349397E+03  0.00000000000E+00 0.  1.
          6    1    1    2  501    0  0.14568183095E+03 -0.54394142220E+02 -0.36738449041E+03  0.43483592581E+03  0.17300000000E+03 0. -1.
         -6    1    1    2    0  502 -0.14568183095E+03  0.54394142220E+02  0.45967475099E+03  0.51518132272E+03  0.17300000000E+03 0. -1.
</event>
<event>
 4    1  0.5929306E+000  0.1000000E+03  0.7546771E-02  0.1280296E+00
         21   -1    0    0  503  502  0.00000000000E+00  0.00000000000E+00  0.16066016846E+04  0.16066016846E+04  0.00000000000E+00 0.  1.
         21   -1    0    0  501  503 -0.00000000000E+00 -0.00000000000E+00 -0.40569795736E+02  0.40569795736E+02  0.00000000000E+00 0. -1.
          6    1    1    2  501    0  0.10398389000E+03 -0.80727907078E+02  0.35116617109E+03  0.41300886683E+03  0.17300000000E+03 0. -1.
         -6    1    1    2    0  502 -0.10398389000E+03  0.80727907078E+02  0.12148657178E+04  0.12341626135E+04  0.17300000000E+03 0. -1.
</event>
<event>
 4    1  0.5929306E+000  0.1000000E+03  0.7546771E-02  0.1280296E+00
         21   -1    0    0  503  502  0.00000000000E+00  0.00000000000E+00  0.32454312706E+04  0.32454312706E+04  0.00000000000E+00 0.  1.
         21   -1    0    0  501  503 -0.00000000000E+00 -0.00000000000E+00 -0.11833898678E+02  0.11833898678E+02  0.00000000000E+00 0. -1.
          6    1    1    2  501    0 -0.31999964572E+02  0.11786041911E+02  0.23275313811E+04  0.23342009850E+04  0.17300000000E+03 0. -1.
         -6    1    1    2    0  502  0.31999964572E+02 -0.11786041911E+02  0.90606599090E+03  0.92306418432E+03  0.17300000000E+03 0. -1.
</event>
<event>
 4    1  0.5929306E+000  0.1000000E+03  0.7546771E-02  0.1280296E+00
         21   -1    0    0  503  502  0.00000000000E+00  0.00000000000E+00  0.35545246032E+03  0.35545246032E+03  0.00000000000E+00 0.  1.
         21   -1    0    0  501  503 -0.00000000000E+00 -0.00000000000E+00 -0.15118077644E+03  0.15118077644E+03  0.00000000000E+00 0. -1.
          6    1    1    2  501    0 -0.10841263490E+03 -0.10666088511E+03  0.73666672636E+02  0.24183800875E+03  0.17300000000E+03 0. -1.
         -6    1    1    2    0  502  0.10841263490E+03  0.10666088511E+03  0.13060501124E+03  0.26479522802E+03  0.17300000000E+03 0. -1.
</event>
<event>
 4    1  0.5929306E+000  0.1000000E+03  0.7546771E-02  0.1280296E+00
         21   -1    0    0  501  502  0.00000000000E+00  0.00000000000E+00  0.59603986486E+03  0.59603986486E+03  0.00000000000E+00 0. -1.
         21   -1    0    0  502  503 -0.00000000000E+00 -0.00000000000E+00 -0.78503577155E+02  0.78503577155E+02  0.00000000000E+00 0. -1.
          6    1    1    2  501    0  0.25775087617E+01  0.54216158553E+02  0.44270056603E+03  0.47839191733E+03  0.17300000000E+03 0. -1.
         -6    1    1    2    0  503 -0.25775087617E+01 -0.54216158553E+02  0.74835721676E+02  0.19615152469E+03  0.17300000000E+03 0. -1.
</event>
<event>
 4    1  0.5929306E+000  0.1000000E+03  0.7546771E-02  0.1280296E+00
         21   -1    0    0  501  502  0.00000000000E+00  0.00000000000E+00  0.19729155795E+03  0.19729155795E+03  0.00000000000E+00 0.  1.
         21   -1    0    0  502  503 -0.00000000000E+00 -0.00000000000E+00 -0.16991319212E+03  0.16991319212E+03  0.00000000000E+00 0. -1.
          6    1    1    2  501    0 -0.46938218625E+01 -0.48656328300E+02 -0.21105909304E+02  0.18100809279E+03  0.17300000000E+03 0. -1.
         -6    1    1    2    0  503  0.46938218625E+01  0.48656328300E+02  0.48484275133E+02  0.18619665728E+03  0.17300000000E+03 0.  1.
</event>
<event>
 4    1  0.5929306E+000  0.1000000E+03  0.7546771E-02  0.1280296E+00
         21   -1    0    0  501  502  0.00000000000E+00  0.00000000000E+00  0.78465025720E+03  0.78465025720E+03  0.00000000000E+00 0.  1.
         21   -1    0    0  502  503 -0.00000000000E+00 -0.00000000000E+00 -0.42896367634E+03  0.42896367634E+03  0.00000000000E+00 0. -1.
          6    1    1    2  501    0  0.96665776533E+02 -0.31127238543E+02  0.74722106929E+03  0.77368049202E+03  0.17300000000E+03 0. -1.
         -6    1    1    2    0  503 -0.96665776533E+02  0.31127238543E+02 -0.39153448843E+03  0.43993344152E+03  0.17300000000E+03 0.  1.
</event>
<event>
 4    1  0.5929306E+000  0.1000000E+03  0.7546771E-02  0.1280296E+00
         21   -1    0    0  501  502  0.00000000000E+00  0.00000000000E+00  0.68852924132E+03  0.68852924132E+03  0.00000000000E+00 0.  1.
         21   -1    0    0  502  503 -0.00000000000E+00 -0.00000000000E+00 -0.10027725857E+03  0.10027725857E+03  0.00000000000E+00 0.  1.
          6    1    1    2  501    0  0.37145381475E+01 -0.93527797770E+02  0.55563280572E+03  0.58942180273E+03  0.17300000000E+03 0.  1.
         -6    1    1    2    0  503 -0.37145381475E+01  0.93527797770E+02  0.32619177044E+02  0.19938469716E+03  0.17300000000E+03 0.  1.
</event>
<event>
 4    1  0.5929306E+000  0.1000000E+03  0.7546771E-02  0.1280296E+00
         21   -1    0    0  503  502  0.00000000000E+00  0.00000000000E+00  0.49544125465E+03  0.49544125465E+03  0.00000000000E+00 0. -1.
         21   -1    0    0  501  503 -0.00000000000E+00 -0.00000000000E+00 -0.11984568615E+03  0.11984568615E+03  0.00000000000E+00 0. -1.
          6    1    1    2  501    0  0.60708995895E+02 -0.15549939472E+03  0.23801163180E+03  0.33829599586E+03  0.17300000000E+03 0. -1.
         -6    1    1    2    0  502 -0.60708995895E+02  0.15549939472E+03  0.13758393670E+03  0.27699094494E+03  0.17300000000E+03 0. -1.
</event>
<event>
 4    1  0.5929306E+000  0.1000000E+03  0.7546771E-02  0.1280296E+00
         21   -1    0    0  503  502  0.00000000000E+00  0.00000000000E+00  0.59566555534E+03  0.59566555534E+03  0.00000000000E+00 0. -1.
         21   -1    0    0  501  503 -0.00000000000E+00 -0.00000000000E+00 -0.65550092431E+02  0.65550092431E+02  0.00000000000E+00 0.  1.
          6    1    1    2  501    0  0.52425010459E+01  0.87231037305E+02  0.32942789692E+03  0.38221522335E+03  0.17300000000E+03 0. -1.
         -6    1    1    2    0  502 -0.52425010459E+01 -0.87231037305E+02  0.20068756598E+03  0.27900042442E+03  0.17300000000E+03 0. -1.
</event>
<event>
 4    1  0.5929306E+000  0.1000000E+03  0.7546771E-02  0.1280296E+00
         21   -1    0    0  503  502  0.00000000000E+00  0.00000000000E+00  0.16638243814E+03  0.16638243814E+03  0.00000000000E+00 0. -1.
         21   -1    0    0  501  503 -0.00000000000E+00 -0.00000000000E+00 -0.53534388027E+03  0.53534388027E+03  0.00000000000E+00 0.  1.
          6    1    1    2  501    0 -0.17324197330E+03  0.28282795418E+02 -0.38235613220E+03  0.45490428627E+03  0.17300000000E+03 0. -1.
         -6    1    1    2    0  502  0.17324197330E+03 -0.28282795418E+02  0.13394690079E+02  0.24682203215E+03  0.17300000000E+03 0. -1.
</event>
<event>
 4    1  0.5929306E+000  0.1000000E+03  0.7546771E-02  0.1280296E+00
         21   -1    0    0  503  502  0.00000000000E+00  0.00000000000E+00  0.69155446238E+03  0.69155446238E+03  0.00000000000E+00 0. -1.
         21   -1    0    0  501  503 -0.00000000000E+00 -0.00000000000E+00 -0.18629927039E+03  0.18629927039E+03  0.00000000000E+00 0.  1.
          6    1    1    2  501    0 -0.86522064944E+02  0.51439894783E+02 -0.11172229105E+03  0.22922260101E+03  0.17300000000E+03 0. -1.
         -6    1    1    2    0  502  0.86522064944E+02 -0.51439894783E+02  0.61697748304E+03  0.64863113175E+03  0.17300000000E+03 0. -1.
</event>
<event>
 4    1  0.5929306E+000  0.1000000E+03  0.7546771E-02  0.1280296E+00
         21   -1    0    0  501  502  0.00000000000E+00  0.00000000000E+00  0.14839848662E+03  0.14839848662E+03  0.00000000000E+00 0.  1.
         21   -1    0    0  502  503 -0.00000000000E+00 -0.00000000000E+00 -0.25128135870E+03  0.25128135870E+03  0.00000000000E+00 0.  1.
          6    1    1    2  501    0  0.58859627423E+02 -0.34650776438E+02  0.22887608199E+01  0.18600906019E+03  0.17300000000E+03 0.  1.
         -6    1    1    2    0  503 -0.58859627423E+02  0.34650776438E+02 -0.10517163290E+03  0.21367078512E+03  0.17300000000E+03 0.  1.
</event>
<event>
 4    1  0.5929306E+000  0.1000000E+03  0.7546771E-02  0.1280296E+00
         21   -1    0    0  501  502  0.00000000000E+00  0.00000000000E+00  0.31757918853E+03  0.31757918853E+03  0.00000000000E+00 0. -1.
         21   -1    0    0  502  503 -0.00000000000E+00 -0.00000000000E+00 -0.22264930265E+03  0.22264930265E+03  0.00000000000E+00 0. -1.
          6    1    1    2  501    0 -0.98771642897E+02 -0.16883770555E+03  0.98435502206E+02  0.27907088052E+03  0.17300000000E+03 0. -1.
         -6    1    1    2    0  503  0.98771642897E+02  0.16883770555E+03 -0.35056163251E+01  0.26115761066E+03  0.17300000000E+03 0. -1.
</event>
<event>
 4    1  0.5929306E+000  0.1000000E+03  0.7546771E-02  0.1280296E+00
         21   -1    0    0  501  502  0.00000000000E+00  0.00000000000E+00  0.45090649401E+03  0.45090649401E+03  0.00000000000E+00 0. -1.
         21   -1    0    0  502  503 -0.00000000000E+00 -0.00000000000E+00 -0.13905759413E+03  0.13905759413E+03  0.00000000000E+00 0. -1.
          6    1    1    2  501    0  0.91068337217E+02  0.96007714695E+02  0.30145742266E+03  0.37190926447E+03  0.17300000000E+03 0. -1.
         -6    1    1    2    0  503 -0.91068337217E+02 -0.96007714695E+02  0.10391477217E+02  0.21805482366E+03  0.17300000000E+03 0. -1.
</event>
<event>
 4    1  0.5929306E+000  0.1000000E+03  0.7546771E-02  0.1280296E+00
         21   -1    0    0  501  502  0.00000000000E+00  0.00000000000E+00  0.80019327257E+02  0.80019327257E+02  0.00000000000E+00 0. -1.
         21   -1    0    0  502  503 -0.00000000000E+00 -0.00000000000E+00 -0.67196346456E+03  0.67196346456E+03  0.00000000000E+00 0. -1.
          6    1    1    2  501    0 -0.77398269722E+02  0.25493371995E+02 -0.83314821907E+02  0.20859233860E+03  0.17300000000E+03 0. -1.
         -6    1    1    2    0  503  0.77398269722E+02 -0.25493371995E+02 -0.50862931540E+03  0.54339045322E+03  0.17300000000E+03 0. -1.
</event>
<event>
 4    1  0.5929306E+000  0.1000000E+03  0.7546771E-02  0.1280296E+00
         21   -1    0    0  501  502  0.00000000000E+00  0.00000000000E+00  0.16604713798E+03  0.16604713798E+03  0.00000000000E+00 0. -1.
         21   -1    0    0  502  503 -0.00000000000E+00 -0.00000000000E+00 -0.31952658241E+03  0.31952658241E+03  0.00000000000E+00 0.  1.
          6    1    1    2  501    0  0.88094784210E+02  0.25341160155E+02  0.51162435659E+02  0.20235972975E+03  0.17300000000E+03 0. -1.
         -6    1    1    2    0  503 -0.88094784210E+02 -0.25341160155E+02 -0.20464188009E+03  0.28321399063E+03  0.17300000000E+03 0.  1.
</event>
<event>
 4    1  0.5929306E+000  0.1000000E+03  0.7546771E-02  0.1280296E+00
         21   -1    0    0  503  502  0.00000000000E+00  0.00000000000E+00  0.55837008430E+02  0.55837008430E+02  0.00000000000E+00 0.  1.
         21   -1    0    0  501  503 -0.00000000000E+00 -0.00000000000E+00 -0.24675789405E+04  0.24675789405E+04  0.00000000000E+00 0.  1.
          6    1    1    2  501    0  0.20000263047E+03  0.94389019978E+02 -0.20311065578E+04  0.20504226853E+04  0.17300000000E+03 0.  1.
         -6    1    1    2    0  502 -0.20000263047E+03 -0.94389019978E+02 -0.38063537427E+03  0.47299326362E+03  0.17300000000E+03 0.  1.
</event>
<event>
 4    1  0.5929306E+000  0.1000000E+03  0.7546771E-02  0.1280296E+00
         21   -1    0    0  503  502  0.00000000000E+00  0.00000000000E+00  0.23929634707E+03  0.23929634707E+03  0.00000000000E+00 0.  1.
         21   -1    0    0  501  503 -0.00000000000E+00 -0.00000000000E+00 -0.18963805550E+03  0.18963805550E+03  0.00000000000E+00 0.  1.
          6    1    1    2  501    0 -0.94287628747E+02  0.27980128541E+02 -0.51696269684E+02  0.20560775478E+03  0.17300000000E+03 0.  1.
         -6    1    1    2    0  502  0.94287628747E+02 -0.27980128541E+02  0.10135456125E+03  0.22332664779E+03  0.17300000000E+03 0.  1.
</event>
<event>
 4    1  0.5929306E+000  0.1000000E+03  0.7546771E-02  0.1280296E+00
         21   -1    0    0  501  502  0.00000000000E+00  0.00000000000E+00  0.86433910521E+02  0.86433910521E+02  0.00000000000E+00 0.  1.
         21   -1    0    0  502  503 -0.00000000000E+00 -0.00000000000E+00 -0.47754364246E+03  0.47754364246E+03  0.00000000000E+00 0. -1.
          6    1    1    2  501    0 -0.46854684646E+02 -0.27625620621E+02 -0.68432051117E+02  0.19383106564E+03  0.17300000000E+03 0. -1.
         -6    1    1    2    0  503  0.46854684646E+02  0.27625620621E+02 -0.32267768082E+03  0.37014648734E+03  0.17300000000E+03 0. -1.
</event>
<event>
 4    1  0.5929306E+000  0.1000000E+03  0.7546771E-02  0.1280296E+00
         21   -1    0    0  501  502  0.00000000000E+00  0.00000000000E+00  0.72986607755E+02  0.72986607755E+02  0.00000000000E+00 0.  1.
         21   -1    0    0  502  503 -0.00000000000E+00 -0.00000000000E+00 -0.63697712897E+03  0.63697712897E+03  0.00000000000E+00 0. -1.
          6    1    1    2  501    0 -0.59888790577E+02  0.39401250307E+02 -0.10603825817E+03  0.21520278334E+03  0.17300000000E+03 0. -1.
         -6    1    1    2    0  503  0.59888790577E+02 -0.39401250307E+02 -0.45795226305E+03  0.49476095338E+03  0.17300000000E+03 0. -1.
</event>
<event>
 4    1  0.5929306E+000  0.1000000E+03  0.7546771E-02  0.1280296E+00
         21   -1    0    0  503  502  0.00000000000E+00  0.00000000000E+00  0.76455116297E+03  0.76455116297E+03  0.00000000000E+00 0. -1.
         21   -1    0    0  501  503 -0.00000000000E+00 -0.00000000000E+00 -0.46170225261E+02  0.46170225261E+02  0.00000000000E+00 0. -1.
          6    1    1    2  501    0 -0.97816491178E+01  0.70700120759E+02  0.39505432517E+03  0.43713968886E+03  0.17300000000E+03 0.  1.
         -6    1    1    2    0  502  0.97816491178E+01 -0.70700120759E+02  0.32332661254E+03  0.37358169938E+03  0.17300000000E+03 0.  1.
</event>
<event>
 4    1  0.5929306E+000  0.1000000E+03  0.7546771E-02  0.1280296E+00
         21   -1    0    0  503  502  0.00000000000E+00  0.00000000000E+00  0.55546505783E+02  0.55546505783E+02  0.00000000000E+00 0. -1.
         21   -1    0    0  501  503 -0.00000000000E+00 -0.00000000000E+00 -0.67556415669E+03  0.67556415669E+03  0.00000000000E+00 0. -1.
          6    1    1    2  501    0  0.32853697929E+02  0.72217117872E+02 -0.37808921067E+03  0.42329083241E+03  0.17300000000E+03 0.  1.
         -6    1    1    2    0  502 -0.32853697929E+02 -0.72217117872E+02 -0.24192844024E+03  0.30781983006E+03  0.17300000000E+03 0.  1.
</event>
<event>
 4    1  0.5929306E+000  0.1000000E+03  0.7546771E-02  0.1280296E+00
         21   -1    0    0  501  502  0.00000000000E+00  0.00000000000E+00  0.29075703484E+03  0.29075703484E+03  0.00000000000E+00 0. -1.
         21   -1    0    0  502  503 -0.00000000000E+00 -0.00000000000E+00 -0.23701570923E+03  0.23701570923E+03  0.00000000000E+00 0. -1.
          6    1    1    2  501    0  0.16554003999E+03 -0.73063894905E+02 -0.52555772190E+02  0.25579864497E+03  0.17300000000E+03 0. -1.
         -6    1    1    2    0  503 -0.16554003999E+03  0.73063894905E+02  0.10629709781E+03  0.27197409910E+03  0.17300000000E+03 0. -1.
</event>
<event>
 4    1  0.5929306E+000  0.1000000E+03  0.7546771E-02  0.1280296E+00
         21   -1    0    0  501  502  0.00000000000E+00  0.00000000000E+00  0.19565755170E+03  0.19565755170E+03  0.00000000000E+00 0. -1.
         21   -1    0    0  502  503 -0.00000000000E+00 -0.00000000000E+00 -0.45044689227E+03  0.45044689227E+03  0.00000000000E+00 0. -1.
          6    1    1    2  501    0  0.84762371161E+00  0.37346767144E+01  0.13510307303E+03  0.21953702790E+03  0.17300000000E+03 0. -1.
         -6    1    1    2    0  503 -0.84762371161E+00 -0.37346767144E+01 -0.38989241359E+03  0.42656741607E+03  0.17300000000E+03 0. -1.
</event>
<event>
 4    1  0.5929306E+000  0.1000000E+03  0.7546771E-02  0.1280296E+00
         21   -1    0    0  501  502  0.00000000000E+00  0.00000000000E+00  0.13259105470E+03  0.13259105470E+03  0.00000000000E+00 0. -1.
         21   -1    0    0  502  503 -0.00000000000E+00 -0.00000000000E+00 -0.82301455398E+03  0.82301455398E+03  0.00000000000E+00 0. -1.
          6    1    1    2  501    0  0.15320417650E+03 -0.76807026165E+02 -0.22355331565E+02  0.24453956697E+03  0.17300000000E+03 0. -1.
         -6    1    1    2    0  503 -0.15320417650E+03  0.76807026165E+02 -0.66806816771E+03  0.71106604171E+03  0.17300000000E+03 0. -1.
</event>
<event>
 4    1  0.5929306E+000  0.1000000E+03  0.7546771E-02  0.1280296E+00
         21   -1    0    0  501  502  0.00000000000E+00  0.00000000000E+00  0.15290593826E+04  0.15290593826E+04  0.00000000000E+00 0. -1.
         21   -1    0    0  502  503 -0.00000000000E+00 -0.00000000000E+00 -0.58864386742E+02  0.58864386742E+02  0.00000000000E+00 0. -1.
          6    1    1    2  501    0  0.12193922123E+03 -0.93844302009E+02  0.12400204098E+04  0.12614497784E+04  0.17300000000E+03 0. -1.
         -6    1    1    2    0  503 -0.12193922123E+03  0.93844302009E+02  0.23017458605E+03  0.32647399093E+03  0.17300000000E+03 0. -1.
</event>
<event>
 4    1  0.5929306E+000  0.1000000E+03  0.7546771E-02  0.1280296E+00
         21   -1    0    0  503  502  0.00000000000E+00  0.00000000000E+00  0.38984086472E+03  0.38984086472E+03  0.00000000000E+00 0.  1.
         21   -1    0    0  501  503 -0.00000000000E+00 -0.00000000000E+00 -0.37548764039E+03  0.37548764039E+03  0.00000000000E+00 0.  1.
          6    1    1    2  501    0 -0.24805269970E+03 -0.20879177637E+03 -0.99271798827E+02  0.38066788379E+03  0.17300000000E+03 0.  1.
         -6    1    1    2    0  502  0.24805269970E+03  0.20879177637E+03  0.11362502316E+03  0.38466062132E+03  0.17300000000E+03 0.  1.
</event>
<event>
 4    1  0.5929306E+000  0.1000000E+03  0.7546771E-02  0.1280296E+00
         21   -1    0    0  501  502  0.00000000000E+00  0.00000000000E+00  0.18848394975E+03  0.18848394975E+03  0.00000000000E+00 0.  1.
         21   -1    0    0  502  503 -0.00000000000E+00 -0.00000000000E+00 -0.31430845674E+03  0.31430845674E+03  0.00000000000E+00 0.  1.
          6    1    1    2  501    0  0.42210786040E+02  0.25245314807E+02  0.10647135478E+03  0.20900771700E+03  0.17300000000E+03 0.  1.
         -6    1    1    2    0  503 -0.42210786040E+02 -0.25245314807E+02 -0.23229586178E+03  0.29378468949E+03  0.17300000000E+03 0.  1.
</event>
<event>
 4    1  0.5929306E+000  0.1000000E+03  0.7546771E-02  0.1280296E+00
         21   -1    0    0  501  502  0.00000000000E+00  0.00000000000E+00  0.37281826328E+02  0.37281826328E+02  0.00000000000E+00 0.  1.
         21   -1    0    0  502  503 -0.00000000000E+00 -0.00000000000E+00 -0.11908664358E+04  0.11908664358E+04  0.00000000000E+00 0.  1.
          6    1    1    2  501    0 -0.57665613146E+02  0.60398437158E+02 -0.32448050800E+03  0.37708075292E+03  0.17300000000E+03 0.  1.
         -6    1    1    2    0  503  0.57665613146E+02 -0.60398437158E+02 -0.82910410150E+03  0.85106750924E+03  0.17300000000E+03 0.  1.
</event>
<event>
 4    1  0.5929306E+000  0.1000000E+03  0.7546771E-02  0.1280296E+00
         21   -1    0    0  501  502  0.00000000000E+00  0.00000000000E+00  0.34530284515E+04  0.34530284515E+04  0.00000000000E+00 0.  1.
         21   -1    0    0  502  503 -0.00000000000E+00 -0.00000000000E+00 -0.15380464213E+02  0.15380464213E+02  0.00000000000E+00 0.  1.
          6    1    1    2  501    0  0.29278493191E+02  0.13345764789E+02  0.28386531752E+04  0.28441020004E+04  0.17300000000E+03 0.  1.
         -6    1    1    2    0  503 -0.29278493191E+02 -0.13345764789E+02  0.59899481209E+03  0.62430691532E+03  0.17300000000E+03 0.  1.
</event>
<event>
 4    1  0.5929306E+000  0.1000000E+03  0.7546771E-02  0.1280296E+00
         21   -1    0    0  501  502  0.00000000000E+00  0.00000000000E+00  0.22320322700E+04  0.22320322700E+04  0.00000000000E+00 0.  1.
         21   -1    0    0  502  503 -0.00000000000E+00 -0.00000000000E+00 -0.65843128786E+02  0.65843128786E+02  0.00000000000E+00 0.  1.
          6    1    1    2  501    0  0.24886254551E+02 -0.16329953815E+03  0.19809483998E+04  0.19953374721E+04  0.17300000000E+03 0.  1.
         -6    1    1    2    0  503 -0.24886254551E+02  0.16329953815E+03  0.18524074146E+03  0.30253792675E+03  0.17300000000E+03 0.  1.
</event>
<event>
 4    1  0.5929306E+000  0.1000000E+03  0.7546771E-02  0.1280296E+00
         21   -1    0    0  501  502  0.00000000000E+00  0.00000000000E+00  0.20260613283E+03  0.20260613283E+03  0.00000000000E+00 0.  1.
         21   -1    0    0  502  503 -0.00000000000E+00 -0.00000000000E+00 -0.48690448612E+03  0.48690448612E+03  0.00000000000E+00 0.  1.
          6    1    1    2  501    0 -0.12897844496E+03  0.34693527714E+02  0.10544693634E+03  0.24266671900E+03  0.17300000000E+03 0.  1.
         -6    1    1    2    0  503  0.12897844496E+03 -0.34693527714E+02 -0.38974528963E+03  0.44684389995E+03  0.17300000000E+03 0.  1.
</event>
<event>
 4    1  0.5929306E+000  0.1000000E+03  0.7546771E-02  0.1280296E+00
         21   -1    0    0  501  502  0.00000000000E+00  0.00000000000E+00  0.81820463442E+03  0.81820463442E+03  0.00000000000E+00 0. -1.
         21   -1    0    0  502  503 -0.00000000000E+00 -0.00000000000E+00 -0.16865885388E+03  0.16865885388E+03  0.00000000000E+00 0. -1.
          6    1    1    2  501    0 -0.40059972888E+02 -0.54817547614E+02  0.75201596832E+03  0.77463977535E+03  0.17300000000E+03 0. -1.
         -6    1    1    2    0  503  0.40059972888E+02  0.54817547614E+02 -0.10247018778E+03  0.21222371295E+03  0.17300000000E+03 0. -1.
</event>
<event>
 4    1  0.5929306E+000  0.1000000E+03  0.7546771E-02  0.1280296E+00
         21   -1    0    0  503  502  0.00000000000E+00  0.00000000000E+00  0.23531376763E+04  0.23531376763E+04  0.00000000000E+00 0.  1.
         21   -1    0    0  501  503 -0.00000000000E+00 -0.00000000000E+00 -0.58015694548E+02  0.58015694548E+02  0.00000000000E+00 0.  1.
          6    1    1    2  501    0  0.85179338447E+01  0.21171152663E+02  0.84904362602E+02  0.19405804207E+03  0.17300000000E+03 0.  1.
         -6    1    1    2    0  502 -0.85179338447E+01 -0.21171152663E+02  0.22102176191E+04  0.22170953287E+04  0.17300000000E+03 0.  1.
</event>
<event>
 4    1  0.5929306E+000  0.1000000E+03  0.7546771E-02  0.1280296E+00
         21   -1    0    0  503  502  0.00000000000E+00  0.00000000000E+00  0.13254442278E+03  0.13254442278E+03  0.00000000000E+00 0.  1.
         21   -1    0    0  501  503 -0.00000000000E+00 -0.00000000000E+00 -0.76339714471E+03  0.76339714471E+03  0.00000000000E+00 0.  1.
          6    1    1    2  501    0  0.19803871829E+03 -0.63325488236E+02 -0.55118684794E+03  0.61397507502E+03  0.17300000000E+03 0.  1.
         -6    1    1    2    0  502 -0.19803871829E+03  0.63325488236E+02 -0.79665873987E+02  0.28196649247E+03  0.17300000000E+03 0.  1.
</event>
<event>
 4    1  0.5929306E+000  0.1000000E+03  0.7546771E-02  0.1280296E+00
         21   -1    0    0  503  502  0.00000000000E+00  0.00000000000E+00  0.13403558332E+03  0.13403558332E+03  0.00000000000E+00 0.  1.
         21   -1    0    0  501  503 -0.00000000000E+00 -0.00000000000E+00 -0.10885442201E+04  0.10885442201E+04  0.00000000000E+00 0.  1.
          6    1    1    2  501    0  0.75913181197E+01  0.28343930102E+03 -0.77911891578E+03  0.84696561347E+03  0.17300000000E+03 0.  1.
         -6    1    1    2    0  502 -0.75913181197E+01 -0.28343930102E+03 -0.17538972102E+03  0.37561418998E+03  0.17300000000E+03 0.  1.
</event>
<event>
 4    1  0.5929306E+000  0.1000000E+03  0.7546771E-02  0.1280296E+00
         21   -1    0    0  501  502  0.00000000000E+00  0.00000000000E+00  0.14636666909E+04  0.14636666909E+04  0.00000000000E+00 0.  1.
         21   -1    0    0  502  503 -0.00000000000E+00 -0.00000000000E+00 -0.93269929734E+02  0.93269929734E+02  0.00000000000E+00 0.  1.
          6    1    1    2  501    0  0.17438540506E+03 -0.19185128846E+03  0.11032512331E+04  0.11464333690E+04  0.17300000000E+03 0.  1.
         -6    1    1    2    0  503 -0.17438540506E+03  0.19185128846E+03  0.26714552808E+03  0.41050325158E+03  0.17300000000E+03 0.  1.
</event>
<event>
 4    1  0.5929306E+000  0.1000000E+03  0.7546771E-02  0.1280296E+00
         21   -1    0    0  501  502  0.00000000000E+00  0.00000000000E+00  0.17446123904E+03  0.17446123904E+03  0.00000000000E+00 0.  1.
         21   -1    0    0  502  503 -0.00000000000E+00 -0.00000000000E+00 -0.47077627482E+03  0.47077627482E+03  0.00000000000E+00 0.  1.
          6    1    1    2  501    0 -0.55479939784E+00 -0.10316807786E+03  0.81334040455E+02  0.21722841948E+03  0.17300000000E+03 0.  1.
         -6    1    1    2    0  503  0.55479939784E+00  0.10316807786E+03 -0.37764907624E+03  0.42800909439E+03  0.17300000000E+03 0.  1.
</event>
<event>
 4    1  0.5929306E+000  0.1000000E+03  0.7546771E-02  0.1280296E+00
         21   -1    0    0  501  502  0.00000000000E+00  0.00000000000E+00  0.14311701986E+04  0.14311701986E+04  0.00000000000E+00 0.  1.
         21   -1    0    0  502  503 -0.00000000000E+00 -0.00000000000E+00 -0.41665838355E+02  0.41665838355E+02  0.00000000000E+00 0.  1.
          6    1    1    2  501    0  0.26811815905E+02 -0.18886683393E+02  0.12049886617E+04  0.12177858001E+04  0.17300000000E+03 0.  1.
         -6    1    1    2    0  503 -0.26811815905E+02  0.18886683393E+02  0.18451569862E+03  0.25505023685E+03  0.17300000000E+03 0.  1.
</event>
<event>
 4    1  0.5929306E+000  0.1000000E+03  0.7546771E-02  0.1280296E+00
         21   -1    0    0  503  502  0.00000000000E+00  0.00000000000E+00  0.19809298480E+03  0.19809298480E+03  0.00000000000E+00 0.  1.
         21   -1    0    0  501  503 -0.00000000000E+00 -0.00000000000E+00 -0.21833496315E+03  0.21833496315E+03  0.00000000000E+00 0.  1.
          6    1    1    2  501    0 -0.28927850046E+02  0.47732213804E+00 -0.12198762656E+03  0.21365165428E+03  0.17300000000E+03 0.  1.
         -6    1    1    2    0  502  0.28927850046E+02 -0.47732213804E+00  0.10174564820E+03  0.20277629367E+03  0.17300000000E+03 0.  1.
</event>
<event>
 4    1  0.5929306E+000  0.1000000E+03  0.7546771E-02  0.1280296E+00
         21   -1    0    0  503  502  0.00000000000E+00  0.00000000000E+00  0.15809144852E+03  0.15809144852E+03  0.00000000000E+00 0.  1.
         21   -1    0    0  501  503 -0.00000000000E+00 -0.00000000000E+00 -0.22267196242E+03  0.22267196242E+03  0.00000000000E+00 0.  1.
          6    1    1    2  501    0 -0.11423762941E+02 -0.71685766366E+02 -0.30215291607E+02  0.19002977479E+03  0.17300000000E+03 0.  1.
         -6    1    1    2    0  502  0.11423762941E+02  0.71685766366E+02 -0.34365222292E+02  0.19073363616E+03  0.17300000000E+03 0.  1.
</event>
<event>
 4    1  0.5929306E+000  0.1000000E+03  0.7546771E-02  0.1280296E+00
         21   -1    0    0  503  502  0.00000000000E+00  0.00000000000E+00  0.50400315179E+03  0.50400315179E+03  0.00000000000E+00 0. -1.
         21   -1    0    0  501  503 -0.00000000000E+00 -0.00000000000E+00 -0.60979219152E+02  0.60979219152E+02  0.00000000000E+00 0.  1.
          6    1    1    2  501    0  0.93276744637E+01 -0.19051872402E+02  0.25186149799E+03  0.30628939506E+03  0.17300000000E+03 0. -1.
         -6    1    1    2    0  502 -0.93276744637E+01  0.19051872402E+02  0.19116243465E+03  0.25869297589E+03  0.17300000000E+03 0.  1.
</event>
<event>
 4    1  0.5929306E+000  0.1000000E+03  0.7546771E-02  0.1280296E+00
         21   -1    0    0  501  502  0.00000000000E+00  0.00000000000E+00  0.31545564571E+03  0.31545564571E+03  0.00000000000E+00 0. -1.
         21   -1    0    0  502  503 -0.00000000000E+00 -0.00000000000E+00 -0.21898619076E+03  0.21898619076E+03  0.00000000000E+00 0. -1.
          6    1    1    2  501    0  0.18171595380E+03  0.26820988957E+01  0.12779468140E+03  0.28158189237E+03  0.17300000000E+03 0. -1.
         -6    1    1    2    0  503 -0.18171595380E+03 -0.26820988957E+01 -0.31325226448E+02  0.25285994410E+03  0.17300000000E+03 0. -1.
</event>
<event>
 4    1  0.5929306E+000  0.1000000E+03  0.7546771E-02  0.1280296E+00
         21   -1    0    0  501  502  0.00000000000E+00  0.00000000000E+00  0.44036903499E+03  0.44036903499E+03  0.00000000000E+00 0. -1.
         21   -1    0    0  502  503 -0.00000000000E+00 -0.00000000000E+00 -0.87821947271E+02  0.87821947271E+02  0.00000000000E+00 0. -1.
          6    1    1    2  501    0  0.88927432003E+02  0.14871150480E+02  0.20959932926E+03  0.28633916621E+03  0.17300000000E+03 0. -1.
         -6    1    1    2    0  503 -0.88927432003E+02 -0.14871150480E+02  0.14294775846E+03  0.24185181605E+03  0.17300000000E+03 0. -1.
</event>
<event>
 4    1  0.5929306E+000  0.1000000E+03  0.7546771E-02  0.1280296E+00
         21   -1    0    0  501  502  0.00000000000E+00  0.00000000000E+00  0.78738578008E+02  0.78738578008E+02  0.00000000000E+00 0. -1.
         21   -1    0    0  502  503 -0.00000000000E+00 -0.00000000000E+00 -0.61721658726E+03  0.61721658726E+03  0.00000000000E+00 0. -1.
          6    1    1    2  501    0  0.13399532231E+03 -0.18849633589E+02 -0.23930190640E+03  0.32481449705E+03  0.17300000000E+03 0. -1.
         -6    1    1    2    0  503 -0.13399532231E+03  0.18849633589E+02 -0.29917610285E+03  0.37114066822E+03  0.17300000000E+03 0. -1.
</event>
<event>
 4    1  0.5929306E+000  0.1000000E+03  0.7546771E-02  0.1280296E+00
         21   -1    0    0  503  502  0.00000000000E+00  0.00000000000E+00  0.10652388257E+04  0.10652388257E+04  0.00000000000E+00 0.  1.
         21   -1    0    0  501  503 -0.00000000000E+00 -0.00000000000E+00 -0.19378583575E+03  0.19378583575E+03  0.00000000000E+00 0.  1.
          6    1    1    2  501    0  0.55072251207E+02  0.14919630560E+02 -0.14097143502E+03  0.23034212320E+03  0.17300000000E+03 0.  1.
         -6    1    1    2    0  502 -0.55072251207E+02 -0.14919630560E+02  0.10124244250E+04  0.10286825383E+04  0.17300000000E+03 0.  1.
</event>
<event>
 4    1  0.5929306E+000  0.1000000E+03  0.7546771E-02  0.1280296E+00
         21   -1    0    0  503  502  0.00000000000E+00  0.00000000000E+00  0.38815477345E+03  0.38815477345E+03  0.00000000000E+00 0.  1.
         21   -1    0    0  501  503 -0.00000000000E+00 -0.00000000000E+00 -0.84105286794E+02  0.84105286794E+02  0.00000000000E+00 0.  1.
          6    1    1    2  501    0 -0.12096008262E+02  0.32065838433E+02  0.20334948425E+03  0.26917381774E+03  0.17300000000E+03 0.  1.
         -6    1    1    2    0  502  0.12096008262E+02 -0.32065838433E+02  0.10070000240E+03  0.20308624250E+03  0.17300000000E+03 0.  1.
</event>
<event>
 4    1  0.5929306E+000  0.1000000E+03  0.7546771E-02  0.1280296E+00
         21   -1    0    0  503  502  0.00000000000E+00  0.00000000000E+00  0.19086555604E+03  0.19086555604E+03  0.00000000000E+00 0.  1.
         21   -1    0    0  501  503 -0.00000000000E+00 -0.00000000000E+00 -0.26119080181E+03  0.26119080181E+03  0.00000000000E+00 0.  1.
          6    1    1    2  501    0  0.71424222708E+01 -0.31788661186E+02 -0.17419353423E+03  0.24765686048E+03  0.17300000000E+03 0.  1.
         -6    1    1    2    0  502 -0.71424222708E+01  0.31788661186E+02  0.10386828846E+03  0.20439949737E+03  0.17300000000E+03 0.  1.
</event>
<event>
 4    1  0.5929306E+000  0.1000000E+03  0.7546771E-02  0.1280296E+00
         21   -1    0    0  503  502  0.00000000000E+00  0.00000000000E+00  0.38038872911E+03  0.38038872911E+03  0.00000000000E+00 0.  1.
         21   -1    0    0  501  503 -0.00000000000E+00 -0.00000000000E+00 -0.16506496868E+03  0.16506496868E+03  0.00000000000E+00 0.  1.
          6    1    1    2  501    0  0.16272283952E+03  0.30641691484E+02  0.27369454088E+02  0.24103054324E+03  0.17300000000E+03 0.  1.
         -6    1    1    2    0  502 -0.16272283952E+03 -0.30641691484E+02  0.18795430634E+03  0.30442315456E+03  0.17300000000E+03 0.  1.
</event>
<event>
 4    1  0.5929306E+000  0.1000000E+03  0.7546771E-02  0.1280296E+00
         21   -1    0    0  503  502  0.00000000000E+00  0.00000000000E+00  0.13249943386E+03  0.13249943386E+03  0.00000000000E+00 0.  1.
         21   -1    0    0  501  503 -0.00000000000E+00 -0.00000000000E+00 -0.25225585177E+03  0.25225585177E+03  0.00000000000E+00 0. -1.
          6    1    1    2  501    0 -0.51436169676E+02  0.29048801214E+02 -0.62288146048E+02  0.19312774410E+03  0.17300000000E+03 0. -1.
         -6    1    1    2    0  502  0.51436169676E+02 -0.29048801214E+02 -0.57468271866E+02  0.19162754153E+03  0.17300000000E+03 0.  1.
</event>
<event>
 4    1  0.5929306E+000  0.1000000E+03  0.7546771E-02  0.1280296E+00
         21   -1    0    0  503  502  0.00000000000E+00  0.00000000000E+00  0.37753093788E+03  0.37753093788E+03  0.00000000000E+00 0.  1.
         21   -1    0    0  501  503 -0.00000000000E+00 -0.00000000000E+00 -0.17255882837E+03  0.17255882837E+03  0.00000000000E+00 0. -1.
          6    1    1    2  501    0 -0.82856138517E+02  0.18700151881E+02 -0.77839303956E+02  0.20785281478E+03  0.17300000000E+03 0. -1.
         -6    1    1    2    0  502  0.82856138517E+02 -0.18700151881E+02  0.28281141346E+03  0.34223695148E+03  0.17300000000E+03 0.  1.
</event>
<event>
 4    1  0.5929306E+000  0.1000000E+03  0.7546771E-02  0.1280296E+00
         21   -1    0    0  501  502  0.00000000000E+00  0.00000000000E+00  0.28209142027E+03  0.28209142027E+03  0.00000000000E+00 0. -1.
         21   -1    0    0  502  503 -0.00000000000E+00 -0.00000000000E+00 -0.19422994307E+03  0.19422994307E+03  0.00000000000E+00 0. -1.
          6    1    1    2  501    0 -0.67960617604E+02  0.11161529078E+03  0.13370375872E+03  0.25472006945E+03  0.17300000000E+03 0. -1.
         -6    1    1    2    0  503  0.67960617604E+02 -0.11161529078E+03 -0.45842281516E+02  0.22160129390E+03  0.17300000000E+03 0. -1.
</event>
<event>
 4    1  0.5929306E+000  0.1000000E+03  0.7546771E-02  0.1280296E+00
         21   -1    0    0  501  502  0.00000000000E+00  0.00000000000E+00  0.61376665733E+03  0.61376665733E+03  0.00000000000E+00 0. -1.
         21   -1    0    0  502  503 -0.00000000000E+00 -0.00000000000E+00 -0.33223201066E+03  0.33223201066E+03  0.00000000000E+00 0. -1.
          6    1    1    2  501    0  0.21521193931E+02 -0.81029773824E+02  0.56876142999E+03  0.60037284272E+03  0.17300000000E+03 0. -1.
         -6    1    1    2    0  503 -0.21521193931E+02  0.81029773824E+02 -0.28722678333E+03  0.34562582527E+03  0.17300000000E+03 0. -1.
</event>
<event>
 4    1  0.5929306E+000  0.1000000E+03  0.7546771E-02  0.1280296E+00
         21   -1    0    0  501  502  0.00000000000E+00  0.00000000000E+00  0.39645759276E+03  0.39645759276E+03  0.00000000000E+00 0. -1.
         21   -1    0    0  502  503 -0.00000000000E+00 -0.00000000000E+00 -0.13154232822E+03  0.13154232822E+03  0.00000000000E+00 0. -1.
          6    1    1    2  501    0 -0.72927192654E+02  0.12004174111E+03  0.19018511501E+03  0.29296377422E+03  0.17300000000E+03 0. -1.
         -6    1    1    2    0  503  0.72927192654E+02 -0.12004174111E+03  0.74730149529E+02  0.23503614676E+03  0.17300000000E+03 0. -1.
</event>
<event>
 4    1  0.5929306E+000  0.1000000E+03  0.7546771E-02  0.1280296E+00
         21   -1    0    0  503  502  0.00000000000E+00  0.00000000000E+00  0.41810375157E+03  0.41810375157E+03  0.00000000000E+00 0.  1.
         21   -1    0    0  501  503 -0.00000000000E+00 -0.00000000000E+00 -0.13171122035E+03  0.13171122035E+03  0.00000000000E+00 0.  1.
          6    1    1    2  501    0  0.73954190644E+02  0.51407961625E+02 -0.96709615089E+01  0.19528063992E+03  0.17300000000E+03 0.  1.
         -6    1    1    2    0  502 -0.73954190644E+02 -0.51407961625E+02  0.29606349273E+03  0.35453433199E+03  0.17300000000E+03 0.  1.
</event>
<event>
 4    1  0.5929306E+000  0.1000000E+03  0.7546771E-02  0.1280296E+00
         21   -1    0    0  503  502  0.00000000000E+00  0.00000000000E+00  0.81739057388E+02  0.81739057388E+02  0.00000000000E+00 0.  1.
         21   -1    0    0  501  503 -0.00000000000E+00 -0.00000000000E+00 -0.73764282746E+03  0.73764282746E+03  0.00000000000E+00 0.  1.
          6    1    1    2  501    0 -0.10293220251E+03  0.13739894957E+03 -0.37777520698E+03  0.44957381671E+03  0.17300000000E+03 0.  1.
         -6    1    1    2    0  502  0.10293220251E+03 -0.13739894957E+03 -0.27812856309E+03  0.36980806814E+03  0.17300000000E+03 0.  1.
</event>
<event>
 4    1  0.5929306E+000  0.1000000E+03  0.7546771E-02  0.1280296E+00
         21   -1    0    0  503  502  0.00000000000E+00  0.00000000000E+00  0.27822574452E+03  0.27822574452E+03  0.00000000000E+00 0.  1.
         21   -1    0    0  501  503 -0.00000000000E+00 -0.00000000000E+00 -0.23719398511E+03  0.23719398511E+03  0.00000000000E+00 0.  1.
          6    1    1    2  501    0 -0.17377473070E+03  0.54383474937E+00 -0.56321198135E+02  0.25159298509E+03  0.17300000000E+03 0.  1.
         -6    1    1    2    0  502  0.17377473070E+03 -0.54383474937E+00  0.97352957546E+02  0.26382674453E+03  0.17300000000E+03 0.  1.
</event>
<event>
 4    1  0.5929306E+000  0.1000000E+03  0.7546771E-02  0.1280296E+00
         21   -1    0    0  503  502  0.00000000000E+00  0.00000000000E+00  0.53730164252E+03  0.53730164252E+03  0.00000000000E+00 0.  1.
         21   -1    0    0  501  503 -0.00000000000E+00 -0.00000000000E+00 -0.31477193198E+03  0.31477193198E+03  0.00000000000E+00 0.  1.
          6    1    1    2  501    0 -0.50481933065E+02 -0.25510300858E+02 -0.27077468499E+03  0.32626236535E+03  0.17300000000E+03 0.  1.
         -6    1    1    2    0  502  0.50481933065E+02  0.25510300858E+02  0.49330439553E+03  0.52581120915E+03  0.17300000000E+03 0.  1.
</event>
<event>
 4    1  0.5929306E+000  0.1000000E+03  0.7546771E-02  0.1280296E+00
         21   -1    0    0  501  502  0.00000000000E+00  0.00000000000E+00  0.24889535567E+03  0.24889535567E+03  0.00000000000E+00 0. -1.
         21   -1    0    0  502  503 -0.00000000000E+00 -0.00000000000E+00 -0.23685454632E+03  0.23685454632E+03  0.00000000000E+00 0. -1.
          6    1    1    2  501    0  0.13933521792E+03 -0.15962197380E+02  0.10276570369E+03  0.24527308159E+03  0.17300000000E+03 0. -1.
         -6    1    1    2    0  503 -0.13933521792E+03  0.15962197380E+02 -0.90724894343E+02  0.24047682040E+03  0.17300000000E+03 0. -1.
</event>
<event>
 4    1  0.5929306E+000  0.1000000E+03  0.7546771E-02  0.1280296E+00
         21   -1    0    0  501  502  0.00000000000E+00  0.00000000000E+00  0.11574184515E+03  0.11574184515E+03  0.00000000000E+00 0. -1.
         21   -1    0    0  502  503 -0.00000000000E+00 -0.00000000000E+00 -0.35366600553E+03  0.35366600553E+03  0.00000000000E+00 0. -1.
          6    1    1    2  501    0  0.10306133102E+03  0.10332743614E+01 -0.96281587192E+02  0.22320808596E+03  0.17300000000E+03 0. -1.
         -6    1    1    2    0  503 -0.10306133102E+03 -0.10332743614E+01 -0.14164257319E+03  0.24619976472E+03  0.17300000000E+03 0. -1.
</event>
<event>
 4    1  0.5929306E+000  0.1000000E+03  0.7546771E-02  0.1280296E+00
         21   -1    0    0  503  502  0.00000000000E+00  0.00000000000E+00  0.14430834900E+04  0.14430834900E+04  0.00000000000E+00 0.  1.
         21   -1    0    0  501  503 -0.00000000000E+00 -0.00000000000E+00 -0.21834381076E+03  0.21834381076E+03  0.00000000000E+00 0.  1.
          6    1    1    2  501    0  0.83738002747E+02  0.16653178763E+03 -0.12819804712E+03  0.28479576661E+03  0.17300000000E+03 0.  1.
         -6    1    1    2    0  502 -0.83738002747E+02 -0.16653178763E+03  0.13529377263E+04  0.13766315341E+04  0.17300000000E+03 0.  1.
</event>
<event>
 4    1  0.5929306E+000  0.1000000E+03  0.7546771E-02  0.1280296E+00
         21   -1    0    0  503  502  0.00000000000E+00  0.00000000000E+00  0.27939608137E+04  0.27939608137E+04  0.00000000000E+00 0.  1.
         21   -1    0    0  501  503 -0.00000000000E+00 -0.00000000000E+00 -0.65624022981E+02  0.65624022981E+02  0.00000000000E+00 0.  1.
          6    1    1    2  501    0  0.10313382307E+03 -0.28320252181E+03  0.52884418391E+03  0.63280757319E+03  0.17300000000E+03 0.  1.
         -6    1    1    2    0  502 -0.10313382307E+03  0.28320252181E+03  0.21994926069E+04  0.22267772635E+04  0.17300000000E+03 0.  1.
</event>
<event>
 4    1  0.5929306E+000  0.1000000E+03  0.7546771E-02  0.1280296E+00
         21   -1    0    0  501  502  0.00000000000E+00  0.00000000000E+00  0.15122410999E+03  0.15122410999E+03  0.00000000000E+00 0. -1.
         21   -1    0    0  502  503 -0.00000000000E+00 -0.00000000000E+00 -0.24773000420E+03  0.24773000420E+03  0.00000000000E+00 0. -1.
          6    1    1    2  501    0  0.63195371268E+02  0.18113351382E+02  0.10156213038E+02  0.18534804318E+03  0.17300000000E+03 0. -1.
         -6    1    1    2    0  503 -0.63195371268E+02 -0.18113351382E+02 -0.10666210725E+03  0.21360607101E+03  0.17300000000E+03 0. -1.
</event>
<event>
 4    1  0.5929306E+000  0.1000000E+03  0.7546771E-02  0.1280296E+00
         21   -1    0    0  501  502  0.00000000000E+00  0.00000000000E+00  0.32313723310E+03  0.32313723310E+03  0.00000000000E+00 0. -1.
         21   -1    0    0  502  503 -0.00000000000E+00 -0.00000000000E+00 -0.17815923457E+03  0.17815923457E+03  0.00000000000E+00 0. -1.
          6    1    1    2  501    0  0.32750898935E+02 -0.53408232560E+02  0.23336307488E+03  0.29717399854E+03  0.17300000000E+03 0. -1.
         -6    1    1    2    0  503 -0.32750898935E+02  0.53408232560E+02 -0.88385076355E+02  0.20412246914E+03  0.17300000000E+03 0. -1.
</event>
<event>
 4    1  0.5929306E+000  0.1000000E+03  0.7546771E-02  0.1280296E+00
         21   -1    0    0  501  502  0.00000000000E+00  0.00000000000E+00  0.28084757135E+03  0.28084757135E+03  0.00000000000E+00 0. -1.
         21   -1    0    0  502  503 -0.00000000000E+00 -0.00000000000E+00 -0.21351027516E+03  0.21351027516E+03  0.00000000000E+00 0. -1.
          6    1    1    2  501    0  0.19162763751E+02 -0.13782904220E+03  0.13793997777E+03  0.26138189274E+03  0.17300000000E+03 0. -1.
         -6    1    1    2    0  503 -0.19162763751E+02  0.13782904220E+03 -0.70602681582E+02  0.23297595377E+03  0.17300000000E+03 0. -1.
</event>
<event>
 4    1  0.5929306E+000  0.1000000E+03  0.7546771E-02  0.1280296E+00
         21   -1    0    0  501  502  0.00000000000E+00  0.00000000000E+00  0.35472625943E+03  0.35472625943E+03  0.00000000000E+00 0. -1.
         21   -1    0    0  502  503 -0.00000000000E+00 -0.00000000000E+00 -0.49720976120E+03  0.49720976120E+03  0.00000000000E+00 0. -1.
          6    1    1    2  501    0  0.14861927719E+03  0.92614766763E+02  0.27388269023E+03  0.36824708089E+03  0.17300000000E+03 0. -1.
         -6    1    1    2    0  503 -0.14861927719E+03 -0.92614766763E+02 -0.41636619200E+03  0.48368893973E+03  0.17300000000E+03 0. -1.
</event>
<event>
 4    1  0.5929306E+000  0.1000000E+03  0.7546771E-02  0.1280296E+00
         21   -1    0    0  501  502  0.00000000000E+00  0.00000000000E+00  0.11480325736E+04  0.11480325736E+04  0.00000000000E+00 0. -1.
         21   -1    0    0  502  503 -0.00000000000E+00 -0.00000000000E+00 -0.63838067262E+02  0.63838067262E+02  0.00000000000E+00 0. -1.
          6    1    1    2  501    0 -0.10199119405E+03  0.21477839534E+02  0.94557734303E+03  0.96690693084E+03  0.17300000000E+03 0. -1.
         -6    1    1    2    0  503  0.10199119405E+03 -0.21477839534E+02  0.13861716327E+03  0.24496370998E+03  0.17300000000E+03 0. -1.
</event>
<event>
 4    1  0.5929306E+000  0.1000000E+03  0.7546771E-02  0.1280296E+00
         21   -1    0    0  501  502  0.00000000000E+00  0.00000000000E+00  0.30968020591E+03  0.30968020591E+03  0.00000000000E+00 0. -1.
         21   -1    0    0  502  503 -0.00000000000E+00 -0.00000000000E+00 -0.65710073347E+03  0.65710073347E+03  0.00000000000E+00 0. -1.
          6    1    1    2  501    0 -0.10339289266E+03 -0.12574442839E+02  0.25854241127E+03  0.32805698483E+03  0.17300000000E+03 0. -1.
         -6    1    1    2    0  503  0.10339289266E+03  0.12574442839E+02 -0.60596293884E+03  0.63872395455E+03  0.17300000000E+03 0. -1.
</event>
<event>
 4    1  0.5929306E+000  0.1000000E+03  0.7546771E-02  0.1280296E+00
         21   -1    0    0  501  502  0.00000000000E+00  0.00000000000E+00  0.12117876299E+03  0.12117876299E+03  0.00000000000E+00 0. -1.
         21   -1    0    0  502  503 -0.00000000000E+00 -0.00000000000E+00 -0.49481927210E+03  0.49481927210E+03  0.00000000000E+00 0. -1.
          6    1    1    2  501    0  0.15674553000E+02  0.71433799913E+02  0.10795465405E+02  0.18813298875E+03  0.17300000000E+03 0. -1.
         -6    1    1    2    0  503 -0.15674553000E+02 -0.71433799913E+02 -0.38443597451E+03  0.42786504634E+03  0.17300000000E+03 0. -1.
</event>
<event>
 4    1  0.5929306E+000  0.1000000E+03  0.7546771E-02  0.1280296E+00
         21   -1    0    0  501  502  0.00000000000E+00  0.00000000000E+00  0.10990593246E+04  0.10990593246E+04  0.00000000000E+00 0. -1.
         21   -1    0    0  502  503 -0.00000000000E+00 -0.00000000000E+00 -0.44855451968E+02  0.44855451968E+02  0.00000000000E+00 0. -1.
          6    1    1    2  501    0 -0.10328009896E+02  0.31908150645E+02  0.87505244850E+03  0.89262006783E+03  0.17300000000E+03 0. -1.
         -6    1    1    2    0  503  0.10328009896E+02 -0.31908150645E+02  0.17915142410E+03  0.25129470870E+03  0.17300000000E+03 0. -1.
</event>
<event>
 4    1  0.5929306E+000  0.1000000E+03  0.7546771E-02  0.1280296E+00
         21   -1    0    0  503  502  0.00000000000E+00  0.00000000000E+00  0.41039737095E+03  0.41039737095E+03  0.00000000000E+00 0.  1.
         21   -1    0    0  501  503 -0.00000000000E+00 -0.00000000000E+00 -0.10766017045E+03  0.10766017045E+03  0.00000000000E+00 0. -1.
          6    1    1    2  501    0 -0.35471976018E+02 -0.69423679167E+02  0.39938366964E+02  0.19391230355E+03  0.17300000000E+03 0. -1.
         -6    1    1    2    0  502  0.35471976018E+02  0.69423679167E+02  0.26279883353E+03  0.32414523785E+03  0.17300000000E+03 0.  1.
</event>
<event>
 4    1  0.5929306E+000  0.1000000E+03  0.7546771E-02  0.1280296E+00
         21   -1    0    0  503  502  0.00000000000E+00  0.00000000000E+00  0.42615597589E+03  0.42615597589E+03  0.00000000000E+00 0.  1.
         21   -1    0    0  501  503 -0.00000000000E+00 -0.00000000000E+00 -0.85277595211E+02  0.85277595211E+02  0.00000000000E+00 0. -1.
          6    1    1    2  501    0  0.71965120615E+02  0.31684920396E+02  0.15011163908E+03  0.24216815842E+03  0.17300000000E+03 0. -1.
         -6    1    1    2    0  502 -0.71965120615E+02 -0.31684920396E+02  0.19076674160E+03  0.26926541268E+03  0.17300000000E+03 0.  1.
</event>
<event>
 4    1  0.5929306E+000  0.1000000E+03  0.7546771E-02  0.1280296E+00
         21   -1    0    0  501  502  0.00000000000E+00  0.00000000000E+00  0.31124296230E+02  0.31124296230E+02  0.00000000000E+00 0.  1.
         21   -1    0    0  502  503 -0.00000000000E+00 -0.00000000000E+00 -0.24461914386E+04  0.24461914386E+04  0.00000000000E+00 0.  1.
          6    1    1    2  501    0  0.19801142804E+03 -0.56071120673E+02 -0.14862354389E+04  0.15103566718E+04  0.17300000000E+03 0. -1.
         -6    1    1    2    0  503 -0.19801142804E+03  0.56071120673E+02 -0.92883170349E+03  0.96695906305E+03  0.17300000000E+03 0. -1.
</event>
<event>
 4    1  0.5929306E+000  0.1000000E+03  0.7546771E-02  0.1280296E+00
         21   -1    0    0  501  502  0.00000000000E+00  0.00000000000E+00  0.11458578843E+03  0.11458578843E+03  0.00000000000E+00 0.  1.
         21   -1    0    0  502  503 -0.00000000000E+00 -0.00000000000E+00 -0.29464444278E+03  0.29464444278E+03  0.00000000000E+00 0.  1.
          6    1    1    2  501    0  0.55347437370E+02  0.26107013466E+02 -0.79574030725E+02  0.20001485280E+03  0.17300000000E+03 0. -1.
         -6    1    1    2    0  503 -0.55347437370E+02 -0.26107013466E+02 -0.10048462363E+03  0.20921537841E+03  0.17300000000E+03 0. -1.
</event>
<event>
 4    1  0.5929306E+000  0.1000000E+03  0.7546771E-02  0.1280296E+00
         21   -1    0    0  501  502  0.00000000000E+00  0.00000000000E+00  0.37069788063E+03  0.37069788063E+03  0.00000000000E+00 0. -1.
         21   -1    0    0  502  503 -0.00000000000E+00 -0.00000000000E+00 -0.43883033167E+03  0.43883033167E+03  0.00000000000E+00 0. -1.
          6    1    1    2  501    0  0.15800783279E+03  0.23917276850E+03  0.19162201443E+03  0.38576947109E+03  0.17300000000E+03 0. -1.
         -6    1    1    2    0  503 -0.15800783279E+03 -0.23917276850E+03 -0.25975446548E+03  0.42375874121E+03  0.17300000000E+03 0. -1.
</event>
<event>
 4    1  0.5929306E+000  0.1000000E+03  0.7546771E-02  0.1280296E+00
         21   -1    0    0  501  502  0.00000000000E+00  0.00000000000E+00  0.53565026646E+02  0.53565026646E+02  0.00000000000E+00 0. -1.
         21   -1    0    0  502  503 -0.00000000000E+00 -0.00000000000E+00 -0.83342151621E+03  0.83342151621E+03  0.00000000000E+00 0. -1.
          6    1    1    2  501    0  0.88884575490E+02 -0.53865719027E+01 -0.21704641693E+03  0.29149207540E+03  0.17300000000E+03 0. -1.
         -6    1    1    2    0  503 -0.88884575490E+02  0.53865719027E+01 -0.56281007264E+03  0.59549446746E+03  0.17300000000E+03 0. -1.
</event>
<event>
 4    1  0.5929306E+000  0.1000000E+03  0.7546771E-02  0.1280296E+00
         21   -1    0    0  501  502  0.00000000000E+00  0.00000000000E+00  0.37737646978E+02  0.37737646978E+02  0.00000000000E+00 0. -1.
         21   -1    0    0  502  503 -0.00000000000E+00 -0.00000000000E+00 -0.10031747549E+04  0.10031747549E+04  0.00000000000E+00 0. -1.
          6    1    1    2  501    0  0.37491558130E+02  0.30131409614E+02 -0.28228017313E+03  0.33455136365E+03  0.17300000000E+03 0. -1.
         -6    1    1    2    0  503 -0.37491558130E+02 -0.30131409614E+02 -0.68315693481E+03  0.70636103825E+03  0.17300000000E+03 0. -1.
</event>
<event>
 4    1  0.5929306E+000  0.1000000E+03  0.7546771E-02  0.1280296E+00
         21   -1    0    0  501  502  0.00000000000E+00  0.00000000000E+00  0.14787762201E+03  0.14787762201E+03  0.00000000000E+00 0. -1.
         21   -1    0    0  502  503 -0.00000000000E+00 -0.00000000000E+00 -0.33811953211E+03  0.33811953211E+03  0.00000000000E+00 0. -1.
          6    1    1    2  501    0 -0.41726257285E+02  0.64487945202E+01  0.51842087703E+02  0.18547040075E+03  0.17300000000E+03 0. -1.
         -6    1    1    2    0  503  0.41726257285E+02 -0.64487945202E+01 -0.24208399780E+03  0.30052675337E+03  0.17300000000E+03 0. -1.
</event>
<event>
 4    1  0.5929306E+000  0.1000000E+03  0.7546771E-02  0.1280296E+00
         21   -1    0    0  501  502  0.00000000000E+00  0.00000000000E+00  0.17944240944E+03  0.17944240944E+03  0.00000000000E+00 0. -1.
         21   -1    0    0  502  503 -0.00000000000E+00 -0.00000000000E+00 -0.74056356347E+03  0.74056356347E+03  0.00000000000E+00 0. -1.
          6    1    1    2  501    0 -0.74959453905E+02 -0.28244138232E+03 -0.11330855684E+03  0.35799425028E+03  0.17300000000E+03 0. -1.
         -6    1    1    2    0  503  0.74959453905E+02  0.28244138232E+03 -0.44781259718E+03  0.56201172263E+03  0.17300000000E+03 0. -1.
</event>
<event>
 4    1  0.5929306E+000  0.1000000E+03  0.7546771E-02  0.1280296E+00
         21   -1    0    0  503  502  0.00000000000E+00  0.00000000000E+00  0.28605791709E+02  0.28605791709E+02  0.00000000000E+00 0. -1.
         21   -1    0    0  501  503 -0.00000000000E+00 -0.00000000000E+00 -0.18628707401E+04  0.18628707401E+04  0.00000000000E+00 0.  1.
          6    1    1    2  501    0  0.10016710992E+03  0.10446302739E+03 -0.71584631877E+03  0.75054042270E+03  0.17300000000E+03 0. -1.
         -6    1    1    2    0  502 -0.10016710992E+03 -0.10446302739E+03 -0.11184186297E+04  0.11409361092E+04  0.17300000000E+03 0.  1.
</event>
<event>
 4    1  0.5929306E+000  0.1000000E+03  0.7546771E-02  0.1280296E+00
         21   -1    0    0  503  502  0.00000000000E+00  0.00000000000E+00  0.10176407991E+04  0.10176407991E+04  0.00000000000E+00 0. -1.
         21   -1    0    0  501  503 -0.00000000000E+00 -0.00000000000E+00 -0.43893085019E+02  0.43893085019E+02  0.00000000000E+00 0.  1.
          6    1    1    2  501    0  0.37101436201E+02  0.18627487622E+02  0.20037105137E+03  0.26795719451E+03  0.17300000000E+03 0. -1.
         -6    1    1    2    0  502 -0.37101436201E+02 -0.18627487622E+02  0.77337666275E+03  0.79357668965E+03  0.17300000000E+03 0.  1.
</event>
<event>
 4    1  0.5929306E+000  0.1000000E+03  0.7546771E-02  0.1280296E+00
         21   -1    0    0  501  502  0.00000000000E+00  0.00000000000E+00  0.68590934207E+02  0.68590934207E+02  0.00000000000E+00 0. -1.
         21   -1    0    0  502  503 -0.00000000000E+00 -0.00000000000E+00 -0.72998042187E+03  0.72998042187E+03  0.00000000000E+00 0. -1.
          6    1    1    2  501    0 -0.58061727682E+02  0.12835689802E+03 -0.30007862769E+03  0.37392892411E+03  0.17300000000E+03 0. -1.
         -6    1    1    2    0  503  0.58061727682E+02 -0.12835689802E+03 -0.36131085997E+03  0.42464243196E+03  0.17300000000E+03 0. -1.
</event>
<event>
 4    1  0.5929306E+000  0.1000000E+03  0.7546771E-02  0.1280296E+00
         21   -1    0    0  501  502  0.00000000000E+00  0.00000000000E+00  0.12673292316E+03  0.12673292316E+03  0.00000000000E+00 0. -1.
         21   -1    0    0  502  503 -0.00000000000E+00 -0.00000000000E+00 -0.33215068814E+03  0.33215068814E+03  0.00000000000E+00 0. -1.
          6    1    1    2  501    0 -0.33247884775E+02  0.57602384223E+02 -0.43109391702E+01  0.18539428445E+03  0.17300000000E+03 0. -1.
         -6    1    1    2    0  503  0.33247884775E+02 -0.57602384223E+02 -0.20110682581E+03  0.27348932685E+03  0.17300000000E+03 0. -1.
</event>
<event>
 4    1  0.5929306E+000  0.1000000E+03  0.7546771E-02  0.1280296E+00
         21   -1    0    0  503  502  0.00000000000E+00  0.00000000000E+00  0.22194176832E+03  0.22194176832E+03  0.00000000000E+00 0.  1.
         21   -1    0    0  501  503 -0.00000000000E+00 -0.00000000000E+00 -0.41340321288E+03  0.41340321288E+03  0.00000000000E+00 0.  1.
          6    1    1    2  501    0  0.12653027197E+03  0.13784658413E+03 -0.26745371618E+03  0.36942127819E+03  0.17300000000E+03 0.  1.
         -6    1    1    2    0  502 -0.12653027197E+03 -0.13784658413E+03  0.75992271620E+02  0.26592370302E+03  0.17300000000E+03 0.  1.
</event>
<event>
 4    1  0.5929306E+000  0.1000000E+03  0.7546771E-02  0.1280296E+00
         21   -1    0    0  503  502  0.00000000000E+00  0.00000000000E+00  0.72293464252E+02  0.72293464252E+02  0.00000000000E+00 0.  1.
         21   -1    0    0  501  503 -0.00000000000E+00 -0.00000000000E+00 -0.49817162941E+03  0.49817162941E+03  0.00000000000E+00 0.  1.
          6    1    1    2  501    0 -0.71810356065E+01  0.28135314402E+02 -0.10411507467E+03  0.20399047028E+03  0.17300000000E+03 0.  1.
         -6    1    1    2    0  502  0.71810356065E+01 -0.28135314402E+02 -0.32176309048E+03  0.36647462339E+03  0.17300000000E+03 0.  1.
</event>
<event>
 4    1  0.5929306E+000  0.1000000E+03  0.7546771E-02  0.1280296E+00
         21   -1    0    0  503  502  0.00000000000E+00  0.00000000000E+00  0.18730552132E+03  0.18730552132E+03  0.00000000000E+00 0.  1.
         21   -1    0    0  501  503 -0.00000000000E+00 -0.00000000000E+00 -0.27330744943E+03  0.27330744943E+03  0.00000000000E+00 0.  1.
          6    1    1    2  501    0  0.22456919232E+02  0.66976280364E+02 -0.17284950479E+03  0.25455075459E+03  0.17300000000E+03 0.  1.
         -6    1    1    2    0  502 -0.22456919232E+02 -0.66976280364E+02  0.86847576687E+02  0.20606221616E+03  0.17300000000E+03 0.  1.
</event>
<event>
 4    1  0.5929306E+000  0.1000000E+03  0.7546771E-02  0.1280296E+00
         21   -1    0    0  503  502  0.00000000000E+00  0.00000000000E+00  0.66991633354E+02  0.66991633354E+02  0.00000000000E+00 0. -1.
         21   -1    0    0  501  503 -0.00000000000E+00 -0.00000000000E+00 -0.71518624441E+03  0.71518624441E+03  0.00000000000E+00 0. -1.
          6    1    1    2  501    0  0.10178244150E+03  0.46420368288E+02 -0.45621746203E+03  0.50057755508E+03  0.17300000000E+03 0. -1.
         -6    1    1    2    0  502 -0.10178244150E+03 -0.46420368288E+02 -0.19197714903E+03  0.28160032269E+03  0.17300000000E+03 0. -1.
</event>
<event>
 4    1  0.5929306E+000  0.1000000E+03  0.7546771E-02  0.1280296E+00
         21   -1    0    0  503  502  0.00000000000E+00  0.00000000000E+00  0.15357194010E+04  0.15357194010E+04  0.00000000000E+00 0. -1.
         21   -1    0    0  501  503 -0.00000000000E+00 -0.00000000000E+00 -0.25394496412E+02  0.25394496412E+02  0.00000000000E+00 0. -1.
          6    1    1    2  501    0  0.25691655112E+02  0.67916169870E+02  0.51160134713E+03  0.54491981580E+03  0.17300000000E+03 0. -1.
         -6    1    1    2    0  502 -0.25691655112E+02 -0.67916169870E+02  0.99872355748E+03  0.10161940816E+04  0.17300000000E+03 0. -1.
</event>
<event>
 4    1  0.5929306E+000  0.1000000E+03  0.7546771E-02  0.1280296E+00
         21   -1    0    0  503  502  0.00000000000E+00  0.00000000000E+00  0.10072266115E+03  0.10072266115E+03  0.00000000000E+00 0. -1.
         21   -1    0    0  501  503 -0.00000000000E+00 -0.00000000000E+00 -0.55046396681E+03  0.55046396681E+03  0.00000000000E+00 0. -1.
          6    1    1    2  501    0 -0.75235252059E+01 -0.35296183410E+02 -0.44003469144E+03  0.47419611309E+03  0.17300000000E+03 0. -1.
         -6    1    1    2    0  502  0.75235252059E+01  0.35296183410E+02 -0.97066142246E+01  0.17699051487E+03  0.17300000000E+03 0. -1.
</event>
<event>
 4    1  0.5929306E+000  0.1000000E+03  0.7546771E-02  0.1280296E+00
         21   -1    0    0  503  502  0.00000000000E+00  0.00000000000E+00  0.49711939504E+02  0.49711939504E+02  0.00000000000E+00 0. -1.
         21   -1    0    0  501  503 -0.00000000000E+00 -0.00000000000E+00 -0.77554403716E+03  0.77554403716E+03  0.00000000000E+00 0. -1.
          6    1    1    2  501    0  0.43308718799E+02 -0.51229545375E+02 -0.49788087092E+03  0.53133273292E+03  0.17300000000E+03 0. -1.
         -6    1    1    2    0  502 -0.43308718799E+02  0.51229545375E+02 -0.22795122674E+03  0.29392324375E+03  0.17300000000E+03 0. -1.
</event>
<event>
 4    1  0.5929306E+000  0.1000000E+03  0.7546771E-02  0.1280296E+00
         21   -1    0    0  501  502  0.00000000000E+00  0.00000000000E+00  0.74594034977E+03  0.74594034977E+03  0.00000000000E+00 0.  1.
         21   -1    0    0  502  503 -0.00000000000E+00 -0.00000000000E+00 -0.53241063616E+02  0.53241063616E+02  0.00000000000E+00 0.  1.
          6    1    1    2  501    0 -0.24620263508E+02  0.56638775301E+02  0.50129675349E+03  0.53389282005E+03  0.17300000000E+03 0.  1.
         -6    1    1    2    0  503  0.24620263508E+02 -0.56638775301E+02  0.19140253266E+03  0.26528859333E+03  0.17300000000E+03 0.  1.
</event>
<event>
 4    1  0.5929306E+000  0.1000000E+03  0.7546771E-02  0.1280296E+00
         21   -1    0    0  503  502  0.00000000000E+00  0.00000000000E+00  0.42958107810E+03  0.42958107810E+03  0.00000000000E+00 0.  1.
         21   -1    0    0  501  503 -0.00000000000E+00 -0.00000000000E+00 -0.10846980455E+03  0.10846980455E+03  0.00000000000E+00 0.  1.
          6    1    1    2  501    0  0.67755674017E+02  0.10457724321E+03  0.11846995444E+03  0.24390851003E+03  0.17300000000E+03 0.  1.
         -6    1    1    2    0  502 -0.67755674017E+02 -0.10457724321E+03  0.20264131911E+03  0.29414237262E+03  0.17300000000E+03 0.  1.
</event>
<event>
 4    1  0.5929306E+000  0.1000000E+03  0.7546771E-02  0.1280296E+00
         21   -1    0    0  503  502  0.00000000000E+00  0.00000000000E+00  0.24212088556E+03  0.24212088556E+03  0.00000000000E+00 0.  1.
         21   -1    0    0  501  503 -0.00000000000E+00 -0.00000000000E+00 -0.66813385009E+03  0.66813385009E+03  0.00000000000E+00 0.  1.
          6    1    1    2  501    0 -0.18346584051E+03  0.14769799056E+03 -0.52571117094E+03  0.60147788513E+03  0.17300000000E+03 0.  1.
         -6    1    1    2    0  502  0.18346584051E+03 -0.14769799056E+03  0.99698206418E+02  0.30877685051E+03  0.17300000000E+03 0.  1.
</event>
<event>
 4    1  0.5929306E+000  0.1000000E+03  0.7546771E-02  0.1280296E+00
         21   -1    0    0  503  502  0.00000000000E+00  0.00000000000E+00  0.23971396093E+03  0.23971396093E+03  0.00000000000E+00 0.  1.
         21   -1    0    0  501  503 -0.00000000000E+00 -0.00000000000E+00 -0.30127156114E+03  0.30127156114E+03  0.00000000000E+00 0.  1.
          6    1    1    2  501    0  0.54897883546E+02  0.17816147889E+03 -0.11814896545E+03  0.28043442766E+03  0.17300000000E+03 0.  1.
         -6    1    1    2    0  502 -0.54897883546E+02 -0.17816147889E+03  0.56591365246E+02  0.26055109441E+03  0.17300000000E+03 0.  1.
</event>
<event>
 4    1  0.5929306E+000  0.1000000E+03  0.7546771E-02  0.1280296E+00
         21   -1    0    0  503  502  0.00000000000E+00  0.00000000000E+00  0.52498828929E+02  0.52498828929E+02  0.00000000000E+00 0.  1.
         21   -1    0    0  501  503 -0.00000000000E+00 -0.00000000000E+00 -0.12435986553E+04  0.12435986553E+04  0.00000000000E+00 0.  1.
          6    1    1    2  501    0  0.82843503606E+02 -0.41465779768E+02 -0.10105667559E+04  0.10294448141E+04  0.17300000000E+03 0.  1.
         -6    1    1    2    0  502 -0.82843503606E+02  0.41465779768E+02 -0.18053307038E+03  0.26665267012E+03  0.17300000000E+03 0.  1.
</event>
<event>
 4    1  0.5929306E+000  0.1000000E+03  0.7546771E-02  0.1280296E+00
         21   -1    0    0  503  502  0.00000000000E+00  0.00000000000E+00  0.66758528373E+03  0.66758528373E+03  0.00000000000E+00 0.  1.
         21   -1    0    0  501  503 -0.00000000000E+00 -0.00000000000E+00 -0.15030629901E+03  0.15030629901E+03  0.00000000000E+00 0.  1.
          6    1    1    2  501    0  0.26074235410E+03 -0.43301997166E+02  0.22831805959E+03  0.38976887320E+03  0.17300000000E+03 0.  1.
         -6    1    1    2    0  502 -0.26074235410E+03  0.43301997166E+02  0.28896092513E+03  0.42812270955E+03  0.17300000000E+03 0.  1.
</event>
<event>
 4    1  0.5929306E+000  0.1000000E+03  0.7546771E-02  0.1280296E+00
         21   -1    0    0  503  502  0.00000000000E+00  0.00000000000E+00  0.16020407864E+03  0.16020407864E+03  0.00000000000E+00 0.  1.
         21   -1    0    0  501  503 -0.00000000000E+00 -0.00000000000E+00 -0.54125161555E+03  0.54125161555E+03  0.00000000000E+00 0.  1.
          6    1    1    2  501    0 -0.17871614757E+02 -0.10532448471E+03 -0.44421988724E+03  0.48854165628E+03  0.17300000000E+03 0.  1.
         -6    1    1    2    0  502  0.17871614757E+02  0.10532448471E+03  0.63172350330E+02  0.21291403791E+03  0.17300000000E+03 0.  1.
</event>
<event>
 4    1  0.5929306E+000  0.1000000E+03  0.7546771E-02  0.1280296E+00
         21   -1    0    0  501  502  0.00000000000E+00  0.00000000000E+00  0.20518222310E+03  0.20518222310E+03  0.00000000000E+00 0.  1.
         21   -1    0    0  502  503 -0.00000000000E+00 -0.00000000000E+00 -0.17697887951E+03  0.17697887951E+03  0.00000000000E+00 0. -1.
          6    1    1    2  501    0 -0.13998089216E+01 -0.67561768654E+02  0.56848837503E+02  0.19423527582E+03  0.17300000000E+03 0.  1.
         -6    1    1    2    0  503  0.13998089216E+01  0.67561768654E+02 -0.28645493912E+02  0.18792582678E+03  0.17300000000E+03 0. -1.
</event>
<event>
 4    1  0.5929306E+000  0.1000000E+03  0.7546771E-02  0.1280296E+00
         21   -1    0    0  501  502  0.00000000000E+00  0.00000000000E+00  0.36800457632E+02  0.36800457632E+02  0.00000000000E+00 0.  1.
         21   -1    0    0  502  503 -0.00000000000E+00 -0.00000000000E+00 -0.14782939821E+04  0.14782939821E+04  0.00000000000E+00 0. -1.
          6    1    1    2  501    0 -0.86387739188E+02  0.49657434972E+02 -0.32905223382E+03  0.38488059825E+03  0.17300000000E+03 0.  1.
         -6    1    1    2    0  503  0.86387739188E+02 -0.49657434972E+02 -0.11124412907E+04  0.11302138415E+04  0.17300000000E+03 0. -1.
</event>
<event>
 4    1  0.5929306E+000  0.1000000E+03  0.7546771E-02  0.1280296E+00
         21   -1    0    0  501  502  0.00000000000E+00  0.00000000000E+00  0.96128190581E+03  0.96128190581E+03  0.00000000000E+00 0.  1.
         21   -1    0    0  502  503 -0.00000000000E+00 -0.00000000000E+00 -0.79805818441E+02  0.79805818441E+02  0.00000000000E+00 0.  1.
          6    1    1    2  501    0  0.13993659027E+02  0.24596693723E+02  0.84375917099E+03  0.86177686118E+03  0.17300000000E+03 0.  1.
         -6    1    1    2    0  503 -0.13993659027E+02 -0.24596693723E+02  0.37716916382E+02  0.17931086307E+03  0.17300000000E+03 0.  1.
</event>
<event>
 4    1  0.5929306E+000  0.1000000E+03  0.7546771E-02  0.1280296E+00
         21   -1    0    0  501  502  0.00000000000E+00  0.00000000000E+00  0.56728487855E+03  0.56728487855E+03  0.00000000000E+00 0.  1.
         21   -1    0    0  502  503 -0.00000000000E+00 -0.00000000000E+00 -0.69515925776E+02  0.69515925776E+02  0.00000000000E+00 0.  1.
          6    1    1    2  501    0 -0.51906420001E+02 -0.49506487451E+02  0.35476890475E+03  0.40116722761E+03  0.17300000000E+03 0.  1.
         -6    1    1    2    0  503  0.51906420001E+02  0.49506487451E+02  0.14300004803E+03  0.23563357671E+03  0.17300000000E+03 0.  1.
</event>
<event>
 4    1  0.5929306E+000  0.1000000E+03  0.7546771E-02  0.1280296E+00
         21   -1    0    0  501  502  0.00000000000E+00  0.00000000000E+00  0.14158535413E+03  0.14158535413E+03  0.00000000000E+00 0. -1.
         21   -1    0    0  502  503 -0.00000000000E+00 -0.00000000000E+00 -0.74515574091E+03  0.74515574091E+03  0.00000000000E+00 0.  1.
          6    1    1    2  501    0 -0.10197937596E+03 -0.10440476960E+03  0.16216934058E+02  0.22691879161E+03  0.17300000000E+03 0.  1.
         -6    1    1    2    0  503  0.10197937596E+03  0.10440476960E+03 -0.61978732084E+03  0.65982230343E+03  0.17300000000E+03 0. -1.
</event>
<event>
 4    1  0.5929306E+000  0.1000000E+03  0.7546771E-02  0.1280296E+00
         21   -1    0    0  503  502  0.00000000000E+00  0.00000000000E+00  0.33214071666E+03  0.33214071666E+03  0.00000000000E+00 0. -1.
         21   -1    0    0  501  503 -0.00000000000E+00 -0.00000000000E+00 -0.19845749851E+03  0.19845749851E+03  0.00000000000E+00 0. -1.
          6    1    1    2  501    0  0.65480860853E+02 -0.62904892350E+02 -0.10527002435E+03  0.22193590662E+03  0.17300000000E+03 0. -1.
         -6    1    1    2    0  502 -0.65480860853E+02  0.62904892350E+02  0.23895324250E+03  0.30866230856E+03  0.17300000000E+03 0. -1.
</event>
<event>
 4    1  0.5929306E+000  0.1000000E+03  0.7546771E-02  0.1280296E+00
         21   -1    0    0  503  502  0.00000000000E+00  0.00000000000E+00  0.15556957878E+03  0.15556957878E+03  0.00000000000E+00 0. -1.
         21   -1    0    0  501  503 -0.00000000000E+00 -0.00000000000E+00 -0.30942823167E+03  0.30942823167E+03  0.00000000000E+00 0. -1.
          6    1    1    2  501    0 -0.20928968098E+02 -0.69446763824E+02 -0.19750943615E+03  0.27239649792E+03  0.17300000000E+03 0. -1.
         -6    1    1    2    0  502  0.20928968098E+02  0.69446763824E+02  0.43650783260E+02  0.19260131254E+03  0.17300000000E+03 0. -1.
</event>
<event>
 4    1  0.5929306E+000  0.1000000E+03  0.7546771E-02  0.1280296E+00
         21   -1    0    0  503  502  0.00000000000E+00  0.00000000000E+00  0.69333559362E+02  0.69333559362E+02  0.00000000000E+00 0. -1.
         21   -1    0    0  501  503 -0.00000000000E+00 -0.00000000000E+00 -0.10321644035E+04  0.10321644035E+04  0.00000000000E+00 0. -1.
          6    1    1    2  501    0 -0.10046965218E+03  0.16218806816E+03 -0.63038139388E+03  0.68096168924E+03  0.17300000000E+03 0. -1.
         -6    1    1    2    0  502  0.10046965218E+03 -0.16218806816E+03 -0.33244945031E+03  0.42053627367E+03  0.17300000000E+03 0. -1.
</event>
<event>
 4    1  0.5929306E+000  0.1000000E+03  0.7546771E-02  0.1280296E+00
         21   -1    0    0  501  502  0.00000000000E+00  0.00000000000E+00  0.34151722794E+03  0.34151722794E+03  0.00000000000E+00 0.  1.
         21   -1    0    0  502  503 -0.00000000000E+00 -0.00000000000E+00 -0.43700035513E+03  0.43700035513E+03  0.00000000000E+00 0.  1.
          6    1    1    2  501    0  0.19764896045E+03  0.99766684111E+02  0.21940859922E+03  0.35649352903E+03  0.17300000000E+03 0.  1.
         -6    1    1    2    0  503 -0.19764896045E+03 -0.99766684111E+02 -0.31489172641E+03  0.42202405404E+03  0.17300000000E+03 0.  1.
</event>
<event>
 4    1  0.5929306E+000  0.1000000E+03  0.7546771E-02  0.1280296E+00
         21   -1    0    0  501  502  0.00000000000E+00  0.00000000000E+00  0.19476921028E+03  0.19476921028E+03  0.00000000000E+00 0.  1.
         21   -1    0    0  502  503 -0.00000000000E+00 -0.00000000000E+00 -0.31339724614E+03  0.31339724614E+03  0.00000000000E+00 0.  1.
          6    1    1    2  501    0  0.12556537866E+02 -0.16969175036E+03 -0.11537793712E+02  0.24293019052E+03  0.17300000000E+03 0.  1.
         -6    1    1    2    0  503 -0.12556537866E+02  0.16969175036E+03 -0.10709024215E+03  0.26523626590E+03  0.17300000000E+03 0.  1.
</event>
<event>
 4    1  0.5929306E+000  0.1000000E+03  0.7546771E-02  0.1280296E+00
         21   -1    0    0  501  502  0.00000000000E+00  0.00000000000E+00  0.17951770958E+04  0.17951770958E+04  0.00000000000E+00 0. -1.
         21   -1    0    0  502  503 -0.00000000000E+00 -0.00000000000E+00 -0.32831489895E+02  0.32831489895E+02  0.00000000000E+00 0.  1.
          6    1    1    2  501    0  0.14249259905E+03  0.93275684461E+02  0.88945942640E+03  0.92199325665E+03  0.17300000000E+03 0.  1.
         -6    1    1    2    0  503 -0.14249259905E+03 -0.93275684461E+02  0.87288617953E+03  0.90601532907E+03  0.17300000000E+03 0.  1.
</event>
<event>
 4    1  0.5929306E+000  0.1000000E+03  0.7546771E-02  0.1280296E+00
         21   -1    0    0  503  502  0.00000000000E+00  0.00000000000E+00  0.62593718957E+02  0.62593718957E+02  0.00000000000E+00 0.  1.
         21   -1    0    0  501  503 -0.00000000000E+00 -0.00000000000E+00 -0.23524822256E+04  0.23524822256E+04  0.00000000000E+00 0.  1.
          6    1    1    2  501    0 -0.87001860564E+02  0.82859499357E+02 -0.21543171336E+04  0.21645891833E+04  0.17300000000E+03 0.  1.
         -6    1    1    2    0  502  0.87001860564E+02 -0.82859499357E+02 -0.13557137306E+03  0.25048676126E+03  0.17300000000E+03 0.  1.
</event>
<event>
 4    1  0.5929306E+000  0.1000000E+03  0.7546771E-02  0.1280296E+00
         21   -1    0    0  503  502  0.00000000000E+00  0.00000000000E+00  0.82820571353E+03  0.82820571353E+03  0.00000000000E+00 0.  1.
         21   -1    0    0  501  503 -0.00000000000E+00 -0.00000000000E+00 -0.12074498479E+03  0.12074498479E+03  0.00000000000E+00 0.  1.
          6    1    1    2  501    0 -0.12494415286E+02 -0.25956964339E+03  0.27810945334E+03  0.41809852693E+03  0.17300000000E+03 0.  1.
         -6    1    1    2    0  502  0.12494415286E+02  0.25956964339E+03  0.42935127540E+03  0.53085217139E+03  0.17300000000E+03 0.  1.
</event>
<event>
 4    1  0.5929306E+000  0.1000000E+03  0.7546771E-02  0.1280296E+00
         21   -1    0    0  503  502  0.00000000000E+00  0.00000000000E+00  0.12270536987E+04  0.12270536987E+04  0.00000000000E+00 0.  1.
         21   -1    0    0  501  503 -0.00000000000E+00 -0.00000000000E+00 -0.27514218046E+02  0.27514218046E+02  0.00000000000E+00 0.  1.
          6    1    1    2  501    0 -0.38439977660E+02 -0.15561490095E+02  0.44285431057E+03  0.47725122550E+03  0.17300000000E+03 0.  1.
         -6    1    1    2    0  502  0.38439977660E+02  0.15561490095E+02  0.75668517011E+03  0.77731669127E+03  0.17300000000E+03 0.  1.
</event>
<event>
 4    1  0.5929306E+000  0.1000000E+03  0.7546771E-02  0.1280296E+00
         21   -1    0    0  503  502  0.00000000000E+00  0.00000000000E+00  0.31852607626E+03  0.31852607626E+03  0.00000000000E+00 0.  1.
         21   -1    0    0  501  503 -0.00000000000E+00 -0.00000000000E+00 -0.22117830582E+03  0.22117830582E+03  0.00000000000E+00 0.  1.
          6    1    1    2  501    0  0.44608014396E+02 -0.18994338664E+03 -0.16868759938E+01  0.26076850007E+03  0.17300000000E+03 0.  1.
         -6    1    1    2    0  502 -0.44608014396E+02  0.18994338664E+03  0.99034646439E+02  0.27893588201E+03  0.17300000000E+03 0.  1.
</event>
<event>
 4    1  0.5929306E+000  0.1000000E+03  0.7546771E-02  0.1280296E+00
         21   -1    0    0  503  502  0.00000000000E+00  0.00000000000E+00  0.52540746376E+02  0.52540746376E+02  0.00000000000E+00 0.  1.
         21   -1    0    0  501  503 -0.00000000000E+00 -0.00000000000E+00 -0.91462954221E+03  0.91462954221E+03  0.00000000000E+00 0.  1.
          6    1    1    2  501    0 -0.52160781005E+02  0.26389818772E+02 -0.69858887855E+03  0.72206134840E+03  0.17300000000E+03 0.  1.
         -6    1    1    2    0  502  0.52160781005E+02 -0.26389818772E+02 -0.16349991728E+03  0.24510894019E+03  0.17300000000E+03 0.  1.
</event>
<event>
 4    1  0.5929306E+000  0.1000000E+03  0.7546771E-02  0.1280296E+00
         21   -1    0    0  503  502  0.00000000000E+00  0.00000000000E+00  0.14543031044E+03  0.14543031044E+03  0.00000000000E+00 0. -1.
         21   -1    0    0  501  503 -0.00000000000E+00 -0.00000000000E+00 -0.33032048484E+03  0.33032048484E+03  0.00000000000E+00 0. -1.
          6    1    1    2  501    0 -0.50370619278E+01  0.66266768087E+02 -0.21944484256E+03  0.28723108375E+03  0.17300000000E+03 0. -1.
         -6    1    1    2    0  502  0.50370619278E+01 -0.66266768087E+02  0.34554668159E+02  0.18851971153E+03  0.17300000000E+03 0. -1.
</event>
<event>
 4    1  0.5929306E+000  0.1000000E+03  0.7546771E-02  0.1280296E+00
         21   -1    0    0  503  502  0.00000000000E+00  0.00000000000E+00  0.17349139379E+03  0.17349139379E+03  0.00000000000E+00 0. -1.
         21   -1    0    0  501  503 -0.00000000000E+00 -0.00000000000E+00 -0.25067268709E+03  0.25067268709E+03  0.00000000000E+00 0. -1.
          6    1    1    2  501    0  0.10103424317E+03  0.51766957164E+02 -0.64969755996E+02  0.21688200788E+03  0.17300000000E+03 0. -1.
         -6    1    1    2    0  502 -0.10103424317E+03 -0.51766957164E+02 -0.12211537311E+02  0.20728207301E+03  0.17300000000E+03 0. -1.
</event>
<event>
 4    1  0.5929306E+000  0.1000000E+03  0.7546771E-02  0.1280296E+00
         21   -1    0    0  503  502  0.00000000000E+00  0.00000000000E+00  0.73551069392E+03  0.73551069392E+03  0.00000000000E+00 0. -1.
         21   -1    0    0  501  503 -0.00000000000E+00 -0.00000000000E+00 -0.25651898944E+03  0.25651898944E+03  0.00000000000E+00 0. -1.
          6    1    1    2  501    0  0.66837177845E+02  0.16302146565E+02 -0.20864606644E+03  0.27963395603E+03  0.17300000000E+03 0. -1.
         -6    1    1    2    0  502 -0.66837177845E+02 -0.16302146565E+02  0.68763777091E+03  0.71239572733E+03  0.17300000000E+03 0. -1.
</event>
<event>
 4    1  0.5929306E+000  0.1000000E+03  0.7546771E-02  0.1280296E+00
         21   -1    0    0  501  502  0.00000000000E+00  0.00000000000E+00  0.50061917939E+02  0.50061917939E+02  0.00000000000E+00 0.  1.
         21   -1    0    0  502  503 -0.00000000000E+00 -0.00000000000E+00 -0.76594428277E+03  0.76594428277E+03  0.00000000000E+00 0.  1.
          6    1    1    2  501    0  0.71029768281E+02  0.43228456484E+02 -0.43868411427E+03  0.47883888683E+03  0.17300000000E+03 0.  1.
         -6    1    1    2    0  503 -0.71029768281E+02 -0.43228456484E+02 -0.27719825057E+03  0.33716731388E+03  0.17300000000E+03 0.  1.
</event>
<event>
 4    1  0.5929306E+000  0.1000000E+03  0.7546771E-02  0.1280296E+00
         21   -1    0    0  501  502  0.00000000000E+00  0.00000000000E+00  0.41693304421E+03  0.41693304421E+03  0.00000000000E+00 0.  1.
         21   -1    0    0  502  503 -0.00000000000E+00 -0.00000000000E+00 -0.21750782720E+03  0.21750782720E+03  0.00000000000E+00 0.  1.
          6    1    1    2  501    0 -0.22704847069E+03 -0.85837946368E+02  0.54551149002E+02  0.30302473321E+03  0.17300000000E+03 0.  1.
         -6    1    1    2    0  503  0.22704847069E+03  0.85837946368E+02  0.14487406801E+03  0.33141613820E+03  0.17300000000E+03 0.  1.
</event>
<event>
 4    1  0.5929306E+000  0.1000000E+03  0.7546771E-02  0.1280296E+00
         21   -1    0    0  501  502  0.00000000000E+00  0.00000000000E+00  0.48364891332E+03  0.48364891332E+03  0.00000000000E+00 0. -1.
         21   -1    0    0  502  503 -0.00000000000E+00 -0.00000000000E+00 -0.15433440939E+03  0.15433440939E+03  0.00000000000E+00 0. -1.
          6    1    1    2  501    0 -0.14308626037E+03 -0.47475148310E+02  0.33778506122E+03  0.40835684786E+03  0.17300000000E+03 0. -1.
         -6    1    1    2    0  503  0.14308626037E+03  0.47475148310E+02 -0.84705572872E+01  0.22962647486E+03  0.17300000000E+03 0. -1.
</event>
<event>
 4    1  0.5929306E+000  0.1000000E+03  0.7546771E-02  0.1280296E+00
         21   -1    0    0  501  502  0.00000000000E+00  0.00000000000E+00  0.24145374440E+03  0.24145374440E+03  0.00000000000E+00 0. -1.
         21   -1    0    0  502  503 -0.00000000000E+00 -0.00000000000E+00 -0.28960821880E+03  0.28960821880E+03  0.00000000000E+00 0. -1.
          6    1    1    2  501    0 -0.22084998047E+02 -0.12157412535E+03  0.13383093805E+03  0.25121252969E+03  0.17300000000E+03 0. -1.
         -6    1    1    2    0  503  0.22084998047E+02  0.12157412535E+03 -0.18198541245E+03  0.27984943352E+03  0.17300000000E+03 0. -1.
</event>
<event>
 4    1  0.5929306E+000  0.1000000E+03  0.7546771E-02  0.1280296E+00
         21   -1    0    0  503  502  0.00000000000E+00  0.00000000000E+00  0.23142685760E+04  0.23142685760E+04  0.00000000000E+00 0.  1.
         21   -1    0    0  501  503 -0.00000000000E+00 -0.00000000000E+00 -0.57167250829E+02  0.57167250829E+02  0.00000000000E+00 0.  1.
          6    1    1    2  501    0  0.19036066175E+01 -0.24449002395E+03  0.45578040235E+03  0.54538405798E+03  0.17300000000E+03 0. -1.
         -6    1    1    2    0  502 -0.19036066175E+01  0.24449002395E+03  0.18013209228E+04  0.18260517688E+04  0.17300000000E+03 0. -1.
</event>
<event>
 4    1  0.5929306E+000  0.1000000E+03  0.7546771E-02  0.1280296E+00
         21   -1    0    0  503  502  0.00000000000E+00  0.00000000000E+00  0.65417454159E+02  0.65417454159E+02  0.00000000000E+00 0.  1.
         21   -1    0    0  501  503 -0.00000000000E+00 -0.00000000000E+00 -0.91393349301E+03  0.91393349301E+03  0.00000000000E+00 0.  1.
          6    1    1    2  501    0 -0.85263787306E+02 -0.12196412903E+03 -0.60013825277E+03  0.64205925321E+03  0.17300000000E+03 0. -1.
         -6    1    1    2    0  502  0.85263787306E+02  0.12196412903E+03 -0.24837778608E+03  0.33729169396E+03  0.17300000000E+03 0. -1.
</event>
<event>
 4    1  0.5929306E+000  0.1000000E+03  0.7546771E-02  0.1280296E+00
         21   -1    0    0  503  502  0.00000000000E+00  0.00000000000E+00  0.31456797158E+02  0.31456797158E+02  0.00000000000E+00 0.  1.
         21   -1    0    0  501  503 -0.00000000000E+00 -0.00000000000E+00 -0.14259224816E+04  0.14259224816E+04  0.00000000000E+00 0.  1.
          6    1    1    2  501    0 -0.67913395334E+02 -0.16577892042E+02 -0.10419639041E+04  0.10585390088E+04  0.17300000000E+03 0. -1.
         -6    1    1    2    0  502  0.67913395334E+02  0.16577892042E+02 -0.35250178034E+03  0.39884026992E+03  0.17300000000E+03 0. -1.
</event>
<event>
 4    1  0.5929306E+000  0.1000000E+03  0.7546771E-02  0.1280296E+00
         21   -1    0    0  503  502  0.00000000000E+00  0.00000000000E+00  0.10738838921E+03  0.10738838921E+03  0.00000000000E+00 0.  1.
         21   -1    0    0  501  503 -0.00000000000E+00 -0.00000000000E+00 -0.31204630994E+03  0.31204630994E+03  0.00000000000E+00 0.  1.
          6    1    1    2  501    0  0.36873562380E+02 -0.39916946087E+02 -0.13104141908E+03  0.22372723505E+03  0.17300000000E+03 0. -1.
         -6    1    1    2    0  502 -0.36873562380E+02  0.39916946087E+02 -0.73616501653E+02  0.19570746410E+03  0.17300000000E+03 0. -1.
</event>
<event>
 4    1  0.5929306E+000  0.1000000E+03  0.7546771E-02  0.1280296E+00
         21   -1    0    0  503  502  0.00000000000E+00  0.00000000000E+00  0.78421518023E+03  0.78421518023E+03  0.00000000000E+00 0.  1.
         21   -1    0    0  501  503 -0.00000000000E+00 -0.00000000000E+00 -0.83315956233E+02  0.83315956233E+02  0.00000000000E+00 0.  1.
          6    1    1    2  501    0  0.94171222561E+02 -0.77410846332E+02  0.10719677078E+03  0.23723576028E+03  0.17300000000E+03 0.  1.
         -6    1    1    2    0  502 -0.94171222561E+02  0.77410846332E+02  0.59370245321E+03  0.63029537619E+03  0.17300000000E+03 0.  1.
</event>
<event>
 4    1  0.5929306E+000  0.1000000E+03  0.7546771E-02  0.1280296E+00
         21   -1    0    0  503  502  0.00000000000E+00  0.00000000000E+00  0.13737809760E+03  0.13737809760E+03  0.00000000000E+00 0.  1.
         21   -1    0    0  501  503 -0.00000000000E+00 -0.00000000000E+00 -0.80423748870E+03  0.80423748870E+03  0.00000000000E+00 0.  1.
          6    1    1    2  501    0 -0.18132039339E+03 -0.11945539389E+03 -0.59232494750E+03  0.65415939924E+03  0.17300000000E+03 0.  1.
         -6    1    1    2    0  502  0.18132039339E+03  0.11945539389E+03 -0.74534443602E+02  0.28745618705E+03  0.17300000000E+03 0.  1.
</event>
<event>
 4    1  0.5929306E+000  0.1000000E+03  0.7546771E-02  0.1280296E+00
         21   -1    0    0  503  502  0.00000000000E+00  0.00000000000E+00  0.14027140031E+03  0.14027140031E+03  0.00000000000E+00 0.  1.
         21   -1    0    0  501  503 -0.00000000000E+00 -0.00000000000E+00 -0.28305192780E+03  0.28305192780E+03  0.00000000000E+00 0. -1.
          6    1    1    2  501    0 -0.20096258682E+02 -0.78847641055E+02 -0.13104909123E+03  0.23178368024E+03  0.17300000000E+03 0. -1.
         -6    1    1    2    0  502  0.20096258682E+02  0.78847641055E+02 -0.11731436265E+02  0.19153964788E+03  0.17300000000E+03 0.  1.
</event>
<event>
 4    1  0.5929306E+000  0.1000000E+03  0.7546771E-02  0.1280296E+00
         21   -1    0    0  503  502  0.00000000000E+00  0.00000000000E+00  0.52351008651E+03  0.52351008651E+03  0.00000000000E+00 0.  1.
         21   -1    0    0  501  503 -0.00000000000E+00 -0.00000000000E+00 -0.74423843777E+02  0.74423843777E+02  0.00000000000E+00 0. -1.
          6    1    1    2  501    0  0.19806744814E+02 -0.85041413230E+02  0.16770369085E+03  0.25627695376E+03  0.17300000000E+03 0. -1.
         -6    1    1    2    0  502 -0.19806744814E+02  0.85041413230E+02  0.28138255188E+03  0.34165697653E+03  0.17300000000E+03 0.  1.
</event>
<event>
 4    1  0.5929306E+000  0.1000000E+03  0.7546771E-02  0.1280296E+00
         21   -1    0    0  503  502  0.00000000000E+00  0.00000000000E+00  0.13777185400E+03  0.13777185400E+03  0.00000000000E+00 0.  1.
         21   -1    0    0  501  503 -0.00000000000E+00 -0.00000000000E+00 -0.89902011744E+03  0.89902011744E+03  0.00000000000E+00 0. -1.
          6    1    1    2  501    0  0.14119748661E+03 -0.20936733862E+03 -0.63642792649E+03  0.70621591480E+03  0.17300000000E+03 0. -1.
         -6    1    1    2    0  502 -0.14119748661E+03  0.20936733862E+03 -0.12482033695E+03  0.33057605664E+03  0.17300000000E+03 0.  1.
</event>
<event>
 4    1  0.5929306E+000  0.1000000E+03  0.7546771E-02  0.1280296E+00
         21   -1    0    0  501  502  0.00000000000E+00  0.00000000000E+00  0.47351681851E+03  0.47351681851E+03  0.00000000000E+00 0.  1.
         21   -1    0    0  502  503 -0.00000000000E+00 -0.00000000000E+00 -0.83694933272E+02  0.83694933272E+02  0.00000000000E+00 0.  1.
          6    1    1    2  501    0  0.37309069942E+02  0.90970196250E+02  0.20312103939E+03  0.28434960866E+03  0.17300000000E+03 0. -1.
         -6    1    1    2    0  503 -0.37309069942E+02 -0.90970196250E+02  0.18670084585E+03  0.27286214312E+03  0.17300000000E+03 0. -1.
</event>
<event>
 4    1  0.5929306E+000  0.1000000E+03  0.7546771E-02  0.1280296E+00
         21   -1    0    0  503  502  0.00000000000E+00  0.00000000000E+00  0.67185730949E+02  0.67185730949E+02  0.00000000000E+00 0.  1.
         21   -1    0    0  501  503 -0.00000000000E+00 -0.00000000000E+00 -0.65111636494E+03  0.65111636494E+03  0.00000000000E+00 0.  1.
          6    1    1    2  501    0  0.34571901442E+01 -0.14949572167E+02 -0.49208037695E+03  0.52183094892E+03  0.17300000000E+03 0.  1.
         -6    1    1    2    0  502 -0.34571901442E+01  0.14949572167E+02 -0.91850257034E+02  0.19647114696E+03  0.17300000000E+03 0.  1.
</event>
<event>
 4    1  0.5929306E+000  0.1000000E+03  0.7546771E-02  0.1280296E+00
         21   -1    0    0  503  502  0.00000000000E+00  0.00000000000E+00  0.89123313366E+02  0.89123313366E+02  0.00000000000E+00 0.  1.
         21   -1    0    0  501  503 -0.00000000000E+00 -0.00000000000E+00 -0.10469144769E+04  0.10469144769E+04  0.00000000000E+00 0.  1.
          6    1    1    2  501    0  0.73663889590E+02 -0.18188388447E+02 -0.92526223433E+03  0.94434971720E+03  0.17300000000E+03 0.  1.
         -6    1    1    2    0  502 -0.73663889590E+02  0.18188388447E+02 -0.32528929156E+02  0.19168807301E+03  0.17300000000E+03 0.  1.
</event>
<event>
 4    1  0.5929306E+000  0.1000000E+03  0.7546771E-02  0.1280296E+00
         21   -1    0    0  503  502  0.00000000000E+00  0.00000000000E+00  0.78435758051E+03  0.78435758051E+03  0.00000000000E+00 0.  1.
         21   -1    0    0  501  503 -0.00000000000E+00 -0.00000000000E+00 -0.72345769846E+02  0.72345769846E+02  0.00000000000E+00 0.  1.
          6    1    1    2  501    0  0.15489315864E+03  0.50826432966E+02  0.38390611550E+03  0.45153972405E+03  0.17300000000E+03 0.  1.
         -6    1    1    2    0  502 -0.15489315864E+03 -0.50826432966E+02  0.32810569517E+03  0.40516362631E+03  0.17300000000E+03 0.  1.
</event>
<event>
 4    1  0.5929306E+000  0.1000000E+03  0.7546771E-02  0.1280296E+00
         21   -1    0    0  503  502  0.00000000000E+00  0.00000000000E+00  0.10603517468E+04  0.10603517468E+04  0.00000000000E+00 0.  1.
         21   -1    0    0  501  503 -0.00000000000E+00 -0.00000000000E+00 -0.43353839479E+02  0.43353839479E+02  0.00000000000E+00 0.  1.
          6    1    1    2  501    0  0.67631780991E+02  0.43322151541E+02  0.25643889058E+03  0.31959469835E+03  0.17300000000E+03 0.  1.
         -6    1    1    2    0  502 -0.67631780991E+02 -0.43322151541E+02  0.76055901671E+03  0.78411088790E+03  0.17300000000E+03 0.  1.
</event>
<event>
 4    1  0.5929306E+000  0.1000000E+03  0.7546771E-02  0.1280296E+00
         21   -1    0    0  503  502  0.00000000000E+00  0.00000000000E+00  0.29168278947E+03  0.29168278947E+03  0.00000000000E+00 0.  1.
         21   -1    0    0  501  503 -0.00000000000E+00 -0.00000000000E+00 -0.16640033146E+03  0.16640033146E+03  0.00000000000E+00 0.  1.
          6    1    1    2  501    0  0.10920840609E+03 -0.58456950673E+02  0.32505345368E+01  0.21279863020E+03  0.17300000000E+03 0.  1.
         -6    1    1    2    0  502 -0.10920840609E+03  0.58456950673E+02  0.12203192348E+03  0.24528449072E+03  0.17300000000E+03 0.  1.
</event>
<event>
 4    1  0.5929306E+000  0.1000000E+03  0.7546771E-02  0.1280296E+00
         21   -1    0    0  503  502  0.00000000000E+00  0.00000000000E+00  0.70937606476E+02  0.70937606476E+02  0.00000000000E+00 0.  1.
         21   -1    0    0  501  503 -0.00000000000E+00 -0.00000000000E+00 -0.13784993294E+04  0.13784993294E+04  0.00000000000E+00 0. -1.
          6    1    1    2  501    0 -0.51824785297E+02 -0.20058221352E+03 -0.10197722551E+04  0.10548855317E+04  0.17300000000E+03 0. -1.
         -6    1    1    2    0  502  0.51824785297E+02  0.20058221352E+03 -0.28778946790E+03  0.39455140424E+03  0.17300000000E+03 0.  1.
</event>
<event>
 4    1  0.5929306E+000  0.1000000E+03  0.7546771E-02  0.1280296E+00
         21   -1    0    0  503  502  0.00000000000E+00  0.00000000000E+00  0.14048990416E+03  0.14048990416E+03  0.00000000000E+00 0.  1.
         21   -1    0    0  501  503 -0.00000000000E+00 -0.00000000000E+00 -0.52198937655E+03  0.52198937655E+03  0.00000000000E+00 0. -1.
          6    1    1    2  501    0  0.18067743048E+03  0.34992261199E+02 -0.31019864151E+03  0.40002623592E+03  0.17300000000E+03 0. -1.
         -6    1    1    2    0  502 -0.18067743048E+03 -0.34992261199E+02 -0.71300830877E+02  0.26245304478E+03  0.17300000000E+03 0.  1.
</event>
<event>
 4    1  0.5929306E+000  0.1000000E+03  0.7546771E-02  0.1280296E+00
         21   -1    0    0  503  502  0.00000000000E+00  0.00000000000E+00  0.91357738868E+02  0.91357738868E+02  0.00000000000E+00 0.  1.
         21   -1    0    0  501  503 -0.00000000000E+00 -0.00000000000E+00 -0.76295348709E+03  0.76295348709E+03  0.00000000000E+00 0. -1.
          6    1    1    2  501    0 -0.87315104085E+01 -0.19485894878E+02 -0.65661187217E+03  0.67935564327E+03  0.17300000000E+03 0. -1.
         -6    1    1    2    0  502  0.87315104085E+01  0.19485894878E+02 -0.14983876059E+02  0.17495558269E+03  0.17300000000E+03 0.  1.
</event>
<event>
 4    1  0.5929306E+000  0.1000000E+03  0.7546771E-02  0.1280296E+00
         21   -1    0    0  503  502  0.00000000000E+00  0.00000000000E+00  0.26616373632E+03  0.26616373632E+03  0.00000000000E+00 0.  1.
         21   -1    0    0  501  503 -0.00000000000E+00 -0.00000000000E+00 -0.53689712940E+03  0.53689712940E+03  0.00000000000E+00 0. -1.
          6    1    1    2  501    0  0.18417054955E+03  0.23183073604E+03 -0.30434784055E+03  0.45849851640E+03  0.17300000000E+03 0. -1.
         -6    1    1    2    0  502 -0.18417054955E+03 -0.23183073604E+03  0.33614447468E+02  0.34456234933E+03  0.17300000000E+03 0.  1.
</event>
<event>
 4    1  0.5929306E+000  0.1000000E+03  0.7546771E-02  0.1280296E+00
         21   -1    0    0  503  502  0.00000000000E+00  0.00000000000E+00  0.63867018693E+03  0.63867018693E+03  0.00000000000E+00 0.  1.
         21   -1    0    0  501  503 -0.00000000000E+00 -0.00000000000E+00 -0.10513690112E+03  0.10513690112E+03  0.00000000000E+00 0.  1.
          6    1    1    2  501    0 -0.16504637005E+02  0.45581380829E+02 -0.12319597661E+01  0.17966798002E+03  0.17300000000E+03 0.  1.
         -6    1    1    2    0  502  0.16504637005E+02 -0.45581380829E+02  0.53476524558E+03  0.56413910803E+03  0.17300000000E+03 0.  1.
</event>
<event>
 4    1  0.5929306E+000  0.1000000E+03  0.7546771E-02  0.1280296E+00
         21   -1    0    0  503  502  0.00000000000E+00  0.00000000000E+00  0.48288241887E+03  0.48288241887E+03  0.00000000000E+00 0.  1.
         21   -1    0    0  501  503 -0.00000000000E+00 -0.00000000000E+00 -0.68487178670E+02  0.68487178670E+02  0.00000000000E+00 0.  1.
          6    1    1    2  501    0  0.14832729080E+02  0.48871198280E+02  0.17217107011E+03  0.24935974265E+03  0.17300000000E+03 0.  1.
         -6    1    1    2    0  502 -0.14832729080E+02 -0.48871198280E+02  0.24222417010E+03  0.30200985489E+03  0.17300000000E+03 0.  1.
</event>
<event>
 4    1  0.5929306E+000  0.1000000E+03  0.7546771E-02  0.1280296E+00
         21   -1    0    0  503  502  0.00000000000E+00  0.00000000000E+00  0.62678518575E+03  0.62678518575E+03  0.00000000000E+00 0.  1.
         21   -1    0    0  501  503 -0.00000000000E+00 -0.00000000000E+00 -0.34964544238E+03  0.34964544238E+03  0.00000000000E+00 0.  1.
          6    1    1    2  501    0  0.25912608721E+03  0.37537627657E+02 -0.22370189047E+03  0.38539192825E+03  0.17300000000E+03 0.  1.
         -6    1    1    2    0  502 -0.25912608721E+03 -0.37537627657E+02  0.50084163385E+03  0.59103869988E+03  0.17300000000E+03 0.  1.
</event>
<event>
 4    1  0.5929306E+000  0.1000000E+03  0.7546771E-02  0.1280296E+00
         21   -1    0    0  503  502  0.00000000000E+00  0.00000000000E+00  0.15691416637E+04  0.15691416637E+04  0.00000000000E+00 0. -1.
         21   -1    0    0  501  503 -0.00000000000E+00 -0.00000000000E+00 -0.37673054607E+02  0.37673054607E+02  0.00000000000E+00 0. -1.
          6    1    1    2  501    0  0.87486166908E+02 -0.72269270872E+01  0.28145111933E+03  0.34183298619E+03  0.17300000000E+03 0. -1.
         -6    1    1    2    0  502 -0.87486166908E+02  0.72269270872E+01  0.12500174898E+04  0.12649817321E+04  0.17300000000E+03 0. -1.
</event>
<event>
 4    1  0.5929306E+000  0.1000000E+03  0.7546771E-02  0.1280296E+00
         21   -1    0    0  503  502  0.00000000000E+00  0.00000000000E+00  0.82551183725E+03  0.82551183725E+03  0.00000000000E+00 0. -1.
         21   -1    0    0  501  503 -0.00000000000E+00 -0.00000000000E+00 -0.11580663014E+03  0.11580663014E+03  0.00000000000E+00 0. -1.
          6    1    1    2  501    0 -0.48601439902E+02 -0.22161710924E+03  0.17349395008E+03  0.33392423360E+03  0.17300000000E+03 0. -1.
         -6    1    1    2    0  502  0.48601439902E+02  0.22161710924E+03  0.53621125703E+03  0.60739423379E+03  0.17300000000E+03 0. -1.
</event>
<event>
 4    1  0.5929306E+000  0.1000000E+03  0.7546771E-02  0.1280296E+00
         21   -1    0    0  501  502  0.00000000000E+00  0.00000000000E+00  0.16505808728E+03  0.16505808728E+03  0.00000000000E+00 0.  1.
         21   -1    0    0  502  503 -0.00000000000E+00 -0.00000000000E+00 -0.75664478254E+03  0.75664478254E+03  0.00000000000E+00 0.  1.
          6    1    1    2  501    0  0.68447608347E+02  0.12729972087E+03  0.59118714378E+02  0.23305432073E+03  0.17300000000E+03 0.  1.
         -6    1    1    2    0  503 -0.68447608347E+02 -0.12729972087E+03 -0.65070540964E+03  0.68864854909E+03  0.17300000000E+03 0.  1.
</event>
<event>
 4    1  0.5929306E+000  0.1000000E+03  0.7546771E-02  0.1280296E+00
         21   -1    0    0  503  502  0.00000000000E+00  0.00000000000E+00  0.15043515909E+03  0.15043515909E+03  0.00000000000E+00 0. -1.
         21   -1    0    0  501  503 -0.00000000000E+00 -0.00000000000E+00 -0.20260106212E+03  0.20260106212E+03  0.00000000000E+00 0.  1.
          6    1    1    2  501    0  0.96490952401E+01  0.21318576562E+02 -0.24750652272E+02  0.17632124527E+03  0.17300000000E+03 0.  1.
         -6    1    1    2    0  502 -0.96490952401E+01 -0.21318576562E+02 -0.27415250762E+02  0.17671497594E+03  0.17300000000E+03 0.  1.
</event>
<event>
 4    1  0.5929306E+000  0.1000000E+03  0.7546771E-02  0.1280296E+00
         21   -1    0    0  501  502  0.00000000000E+00  0.00000000000E+00  0.16510737972E+03  0.16510737972E+03  0.00000000000E+00 0.  1.
         21   -1    0    0  502  503 -0.00000000000E+00 -0.00000000000E+00 -0.16815238660E+04  0.16815238660E+04  0.00000000000E+00 0.  1.
          6    1    1    2  501    0  0.21682821191E+03 -0.34397762670E+02  0.24486945360E+02  0.28058205582E+03  0.17300000000E+03 0.  1.
         -6    1    1    2    0  503 -0.21682821191E+03  0.34397762670E+02 -0.15409034316E+04  0.15660491899E+04  0.17300000000E+03 0.  1.
</event>
<event>
 4    1  0.5929306E+000  0.1000000E+03  0.7546771E-02  0.1280296E+00
         21   -1    0    0  501  502  0.00000000000E+00  0.00000000000E+00  0.15197500555E+04  0.15197500555E+04  0.00000000000E+00 0.  1.
         21   -1    0    0  502  503 -0.00000000000E+00 -0.00000000000E+00 -0.23578515491E+02  0.23578515491E+02  0.00000000000E+00 0.  1.
          6    1    1    2  501    0 -0.31406434756E+01  0.73383401925E+02  0.84009690169E+03  0.86086397970E+03  0.17300000000E+03 0.  1.
         -6    1    1    2    0  503  0.31406434756E+01 -0.73383401925E+02  0.65607463834E+03  0.68246459131E+03  0.17300000000E+03 0.  1.
</event>
<event>
 4    1  0.5929306E+000  0.1000000E+03  0.7546771E-02  0.1280296E+00
         21   -1    0    0  501  502  0.00000000000E+00  0.00000000000E+00  0.14454493000E+03  0.14454493000E+03  0.00000000000E+00 0.  1.
         21   -1    0    0  502  503 -0.00000000000E+00 -0.00000000000E+00 -0.60861545951E+03  0.60861545951E+03  0.00000000000E+00 0.  1.
          6    1    1    2  501    0  0.84861700988E+02 -0.16146199470E+03 -0.32204066456E+02  0.25345134824E+03  0.17300000000E+03 0.  1.
         -6    1    1    2    0  503 -0.84861700988E+02  0.16146199470E+03 -0.43186646305E+03  0.49970904127E+03  0.17300000000E+03 0.  1.
</event>
<event>
 4    1  0.5929306E+000  0.1000000E+03  0.7546771E-02  0.1280296E+00
         21   -1    0    0  503  502  0.00000000000E+00  0.00000000000E+00  0.70777393047E+03  0.70777393047E+03  0.00000000000E+00 0. -1.
         21   -1    0    0  501  503 -0.00000000000E+00 -0.00000000000E+00 -0.84383033028E+02  0.84383033028E+02  0.00000000000E+00 0.  1.
          6    1    1    2  501    0  0.89529554679E+02  0.13925449150E+03  0.39089111366E+03  0.45840180770E+03  0.17300000000E+03 0.  1.
         -6    1    1    2    0  502 -0.89529554679E+02 -0.13925449150E+03  0.23249978378E+03  0.33375515580E+03  0.17300000000E+03 0. -1.
</event>
<event>
 4    1  0.5929306E+000  0.1000000E+03  0.7546771E-02  0.1280296E+00
         21   -1    0    0  503  502  0.00000000000E+00  0.00000000000E+00  0.50495614221E+03  0.50495614221E+03  0.00000000000E+00 0. -1.
         21   -1    0    0  501  503 -0.00000000000E+00 -0.00000000000E+00 -0.18903661206E+03  0.18903661206E+03  0.00000000000E+00 0.  1.
          6    1    1    2  501    0 -0.36938551879E+00 -0.25105056465E+03  0.10180753611E+03  0.32143474744E+03  0.17300000000E+03 0.  1.
         -6    1    1    2    0  502  0.36938551879E+00  0.25105056465E+03  0.21411199405E+03  0.37255800682E+03  0.17300000000E+03 0. -1.
</event>
<event>
 4    1  0.5929306E+000  0.1000000E+03  0.7546771E-02  0.1280296E+00
         21   -1    0    0  503  502  0.00000000000E+00  0.00000000000E+00  0.19201523452E+03  0.19201523452E+03  0.00000000000E+00 0. -1.
         21   -1    0    0  501  503 -0.00000000000E+00 -0.00000000000E+00 -0.12705341529E+04  0.12705341529E+04  0.00000000000E+00 0. -1.
          6    1    1    2  501    0 -0.86643078164E+01 -0.64806586715E+02 -0.12173360376E+04  0.12313045896E+04  0.17300000000E+03 0. -1.
         -6    1    1    2    0  502  0.86643078164E+01  0.64806586715E+02  0.13881711925E+03  0.23124479780E+03  0.17300000000E+03 0. -1.
</event>
<event>
 4    1  0.5929306E+000  0.1000000E+03  0.7546771E-02  0.1280296E+00
         21   -1    0    0  503  502  0.00000000000E+00  0.00000000000E+00  0.13121311632E+04  0.13121311632E+04  0.00000000000E+00 0. -1.
         21   -1    0    0  501  503 -0.00000000000E+00 -0.00000000000E+00 -0.36054008904E+02  0.36054008904E+02  0.00000000000E+00 0. -1.
          6    1    1    2  501    0 -0.70169819533E+02 -0.90061578292E+02  0.43377830071E+03  0.48075722108E+03  0.17300000000E+03 0. -1.
         -6    1    1    2    0  502  0.70169819533E+02  0.90061578292E+02  0.84229885357E+03  0.86742795101E+03  0.17300000000E+03 0. -1.
</event>
<event>
 4    1  0.5929306E+000  0.1000000E+03  0.7546771E-02  0.1280296E+00
         21   -1    0    0  503  502  0.00000000000E+00  0.00000000000E+00  0.78987309494E+03  0.78987309494E+03  0.00000000000E+00 0. -1.
         21   -1    0    0  501  503 -0.00000000000E+00 -0.00000000000E+00 -0.10506225708E+03  0.10506225708E+03  0.00000000000E+00 0. -1.
          6    1    1    2  501    0  0.34962702333E+02 -0.22211884461E+03  0.42003511936E+03  0.50687046983E+03  0.17300000000E+03 0. -1.
         -6    1    1    2    0  502 -0.34962702333E+02  0.22211884461E+03  0.26477571850E+03  0.38806488219E+03  0.17300000000E+03 0. -1.
</event>
<event>
 4    1  0.5929306E+000  0.1000000E+03  0.7546771E-02  0.1280296E+00
         21   -1    0    0  501  502  0.00000000000E+00  0.00000000000E+00  0.84993102463E+02  0.84993102463E+02  0.00000000000E+00 0. -1.
         21   -1    0    0  502  503 -0.00000000000E+00 -0.00000000000E+00 -0.97434439210E+03  0.97434439210E+03  0.00000000000E+00 0. -1.
          6    1    1    2  501    0  0.82932427623E+02 -0.20195236952E+03 -0.31168124813E+03  0.41801524798E+03  0.17300000000E+03 0. -1.
         -6    1    1    2    0  503 -0.82932427623E+02  0.20195236952E+03 -0.57767004150E+03  0.64132224658E+03  0.17300000000E+03 0. -1.
</event>
<event>
 4    1  0.5929306E+000  0.1000000E+03  0.7546771E-02  0.1280296E+00
         21   -1    0    0  501  502  0.00000000000E+00  0.00000000000E+00  0.19665947582E+03  0.19665947582E+03  0.00000000000E+00 0. -1.
         21   -1    0    0  502  503 -0.00000000000E+00 -0.00000000000E+00 -0.27870953170E+03  0.27870953170E+03  0.00000000000E+00 0. -1.
          6    1    1    2  501    0  0.10525418524E+03 -0.19634247726E+02  0.76575743274E+02  0.21738627292E+03  0.17300000000E+03 0. -1.
         -6    1    1    2    0  503 -0.10525418524E+03  0.19634247726E+02 -0.15862579915E+03  0.25798273460E+03  0.17300000000E+03 0. -1.
</event>
<event>
 4    1  0.5929306E+000  0.1000000E+03  0.7546771E-02  0.1280296E+00
         21   -1    0    0  501  502  0.00000000000E+00  0.00000000000E+00  0.11330806527E+03  0.11330806527E+03  0.00000000000E+00 0. -1.
         21   -1    0    0  502  503 -0.00000000000E+00 -0.00000000000E+00 -0.86795833800E+03  0.86795833800E+03  0.00000000000E+00 0. -1.
          6    1    1    2  501    0  0.94773079234E+02  0.21557574445E+03 -0.55545108647E+03  0.62762229693E+03  0.17300000000E+03 0. -1.
         -6    1    1    2    0  503 -0.94773079234E+02 -0.21557574445E+03 -0.19919918626E+03  0.35364410634E+03  0.17300000000E+03 0. -1.
</event>
<event>
 4    1  0.5929306E+000  0.1000000E+03  0.7546771E-02  0.1280296E+00
         21   -1    0    0  503  502  0.00000000000E+00  0.00000000000E+00  0.14234504885E+03  0.14234504885E+03  0.00000000000E+00 0. -1.
         21   -1    0    0  501  503 -0.00000000000E+00 -0.00000000000E+00 -0.23581242432E+03  0.23581242432E+03  0.00000000000E+00 0. -1.
          6    1    1    2  501    0  0.28909713162E+02  0.87128810115E+01 -0.10061705123E+03  0.20239683004E+03  0.17300000000E+03 0. -1.
         -6    1    1    2    0  502 -0.28909713162E+02 -0.87128810115E+01  0.71496757534E+01  0.17576064313E+03  0.17300000000E+03 0. -1.
</event>
<event>
 4    1  0.5929306E+000  0.1000000E+03  0.7546771E-02  0.1280296E+00
         21   -1    0    0  503  502  0.00000000000E+00  0.00000000000E+00  0.86519866178E+03  0.86519866178E+03  0.00000000000E+00 0.  1.
         21   -1    0    0  501  503 -0.00000000000E+00 -0.00000000000E+00 -0.39006980161E+02  0.39006980161E+02  0.00000000000E+00 0.  1.
          6    1    1    2  501    0  0.57942881534E+02  0.21503697732E+02  0.41315079662E+03  0.45215303525E+03  0.17300000000E+03 0. -1.
         -6    1    1    2    0  502 -0.57942881534E+02 -0.21503697732E+02  0.41304088499E+03  0.45205260668E+03  0.17300000000E+03 0. -1.
</event>
<event>
 4    1  0.5929306E+000  0.1000000E+03  0.7546771E-02  0.1280296E+00
         21   -1    0    0  503  502  0.00000000000E+00  0.00000000000E+00  0.32781870363E+03  0.32781870363E+03  0.00000000000E+00 0.  1.
         21   -1    0    0  501  503 -0.00000000000E+00 -0.00000000000E+00 -0.73380621621E+03  0.73380621621E+03  0.00000000000E+00 0.  1.
          6    1    1    2  501    0  0.91106572185E+02  0.51223451543E+02 -0.68663677669E+03  0.71576763868E+03  0.17300000000E+03 0. -1.
         -6    1    1    2    0  502 -0.91106572185E+02 -0.51223451543E+02  0.28064926411E+03  0.34585728116E+03  0.17300000000E+03 0. -1.
</event>
<event>
 4    1  0.5929306E+000  0.1000000E+03  0.7546771E-02  0.1280296E+00
         21   -1    0    0  503  502  0.00000000000E+00  0.00000000000E+00  0.20238359999E+03  0.20238359999E+03  0.00000000000E+00 0.  1.
         21   -1    0    0  501  503 -0.00000000000E+00 -0.00000000000E+00 -0.17203140355E+03  0.17203140355E+03  0.00000000000E+00 0.  1.
          6    1    1    2  501    0 -0.12293395895E+01 -0.63953841570E+02  0.43477926362E+02  0.18950180793E+03  0.17300000000E+03 0.  1.
         -6    1    1    2    0  502  0.12293395895E+01  0.63953841570E+02 -0.13125729918E+02  0.18491319562E+03  0.17300000000E+03 0.  1.
</event>
<event>
 4    1  0.5929306E+000  0.1000000E+03  0.7546771E-02  0.1280296E+00
         21   -1    0    0  503  502  0.00000000000E+00  0.00000000000E+00  0.87313535469E+03  0.87313535469E+03  0.00000000000E+00 0.  1.
         21   -1    0    0  501  503 -0.00000000000E+00 -0.00000000000E+00 -0.60583607742E+02  0.60583607742E+02  0.00000000000E+00 0.  1.
          6    1    1    2  501    0  0.66935252102E+02  0.12560010905E+02  0.13145085546E+03  0.22769806598E+03  0.17300000000E+03 0.  1.
         -6    1    1    2    0  502 -0.66935252102E+02 -0.12560010905E+02  0.68110089148E+03  0.70602089645E+03  0.17300000000E+03 0.  1.
</event>
<event>
 4    1  0.5929306E+000  0.1000000E+03  0.7546771E-02  0.1280296E+00
         21   -1    0    0  501  502  0.00000000000E+00  0.00000000000E+00  0.52059461868E+03  0.52059461868E+03  0.00000000000E+00 0.  1.
         21   -1    0    0  502  503 -0.00000000000E+00 -0.00000000000E+00 -0.70577767349E+02  0.70577767349E+02  0.00000000000E+00 0.  1.
          6    1    1    2  501    0 -0.93661327311E+01 -0.81939416718E+02  0.21975333115E+03  0.29158586901E+03  0.17300000000E+03 0.  1.
         -6    1    1    2    0  503  0.93661327311E+01  0.81939416718E+02  0.23026352018E+03  0.29958651702E+03  0.17300000000E+03 0.  1.
</event>
<event>
 4    1  0.5929306E+000  0.1000000E+03  0.7546771E-02  0.1280296E+00
         21   -1    0    0  501  502  0.00000000000E+00  0.00000000000E+00  0.55967320958E+03  0.55967320958E+03  0.00000000000E+00 0.  1.
         21   -1    0    0  502  503 -0.00000000000E+00 -0.00000000000E+00 -0.13764667648E+03  0.13764667648E+03  0.00000000000E+00 0.  1.
          6    1    1    2  501    0 -0.17705601624E+02  0.20327615952E+02  0.48154868063E+03  0.51239128809E+03  0.17300000000E+03 0.  1.
         -6    1    1    2    0  503  0.17705601624E+02 -0.20327615952E+02 -0.59522147522E+02  0.18492859796E+03  0.17300000000E+03 0.  1.
</event>
<event>
 4    1  0.5929306E+000  0.1000000E+03  0.7546771E-02  0.1280296E+00
         21   -1    0    0  501  502  0.00000000000E+00  0.00000000000E+00  0.81254348480E+03  0.81254348480E+03  0.00000000000E+00 0.  1.
         21   -1    0    0  502  503 -0.00000000000E+00 -0.00000000000E+00 -0.53838218392E+02  0.53838218392E+02  0.00000000000E+00 0.  1.
          6    1    1    2  501    0 -0.10191750749E+03 -0.47420791396E+02  0.30817679341E+03  0.37086095209E+03  0.17300000000E+03 0.  1.
         -6    1    1    2    0  503  0.10191750749E+03  0.47420791396E+02  0.45052847300E+03  0.49552075110E+03  0.17300000000E+03 0.  1.
</event>
<event>
 4    1  0.5929306E+000  0.1000000E+03  0.7546771E-02  0.1280296E+00
         21   -1    0    0  503  502  0.00000000000E+00  0.00000000000E+00  0.10739626275E+04  0.10739626275E+04  0.00000000000E+00 0. -1.
         21   -1    0    0  501  503 -0.00000000000E+00 -0.00000000000E+00 -0.50756060840E+02  0.50756060840E+02  0.00000000000E+00 0.  1.
          6    1    1    2  501    0 -0.60434612985E+02 -0.13058861307E+03  0.66154854840E+03  0.69877121449E+03  0.17300000000E+03 0.  1.
         -6    1    1    2    0  502  0.60434612985E+02  0.13058861307E+03  0.36165801830E+03  0.42594747389E+03  0.17300000000E+03 0. -1.
</event>
<event>
 4    1  0.5929306E+000  0.1000000E+03  0.7546771E-02  0.1280296E+00
         21   -1    0    0  503  502  0.00000000000E+00  0.00000000000E+00  0.16560207453E+03  0.16560207453E+03  0.00000000000E+00 0.  1.
         21   -1    0    0  501  503 -0.00000000000E+00 -0.00000000000E+00 -0.21581692510E+03  0.21581692510E+03  0.00000000000E+00 0.  1.
          6    1    1    2  501    0 -0.29864762077E+02 -0.67830953456E+02 -0.43090568832E+02  0.19307702966E+03  0.17300000000E+03 0.  1.
         -6    1    1    2    0  502  0.29864762077E+02  0.67830953456E+02 -0.71242817459E+01  0.18834196997E+03  0.17300000000E+03 0.  1.
</event>
<event>
 4    1  0.5929306E+000  0.1000000E+03  0.7546771E-02  0.1280296E+00
         21   -1    0    0  503  502  0.00000000000E+00  0.00000000000E+00  0.10617738731E+03  0.10617738731E+03  0.00000000000E+00 0.  1.
         21   -1    0    0  501  503 -0.00000000000E+00 -0.00000000000E+00 -0.82315045982E+03  0.82315045982E+03  0.00000000000E+00 0.  1.
          6    1    1    2  501    0 -0.12862594509E+02  0.34525572700E+02 -0.73080709584E+03  0.75190788853E+03  0.17300000000E+03 0.  1.
         -6    1    1    2    0  502  0.12862594509E+02 -0.34525572700E+02  0.13834023329E+02  0.17741995860E+03  0.17300000000E+03 0.  1.
</event>
<event>
 4    1  0.5929306E+000  0.1000000E+03  0.7546771E-02  0.1280296E+00
         21   -1    0    0  503  502  0.00000000000E+00  0.00000000000E+00  0.17059046598E+04  0.17059046598E+04  0.00000000000E+00 0.  1.
         21   -1    0    0  501  503 -0.00000000000E+00 -0.00000000000E+00 -0.21216242144E+03  0.21216242144E+03  0.00000000000E+00 0.  1.
          6    1    1    2  501    0 -0.20009582848E+03 -0.34780330314E+03  0.87677322740E+02  0.44567004743E+03  0.17300000000E+03 0.  1.
         -6    1    1    2    0  502  0.20009582848E+03  0.34780330314E+03  0.14060649156E+04  0.14723970338E+04  0.17300000000E+03 0.  1.
</event>
<event>
 4    1  0.5929306E+000  0.1000000E+03  0.7546771E-02  0.1280296E+00
         21   -1    0    0  503  502  0.00000000000E+00  0.00000000000E+00  0.16411941250E+03  0.16411941250E+03  0.00000000000E+00 0.  1.
         21   -1    0    0  501  503 -0.00000000000E+00 -0.00000000000E+00 -0.24749602574E+03  0.24749602574E+03  0.00000000000E+00 0.  1.
          6    1    1    2  501    0  0.35818926068E+02  0.70184649629E+02  0.26669181871E+02  0.19196126112E+03  0.17300000000E+03 0.  1.
         -6    1    1    2    0  502 -0.35818926068E+02 -0.70184649629E+02 -0.11004579511E+03  0.21965417713E+03  0.17300000000E+03 0.  1.
</event>
<event>
 4    1  0.5929306E+000  0.1000000E+03  0.7546771E-02  0.1280296E+00
         21   -1    0    0  501  502  0.00000000000E+00  0.00000000000E+00  0.75270229038E+02  0.75270229038E+02  0.00000000000E+00 0.  1.
         21   -1    0    0  502  503 -0.00000000000E+00 -0.00000000000E+00 -0.68318010793E+03  0.68318010793E+03  0.00000000000E+00 0. -1.
          6    1    1    2  501    0 -0.41143191977E+02  0.60563147957E+02 -0.91541609252E+02  0.20897254212E+03  0.17300000000E+03 0. -1.
         -6    1    1    2    0  503  0.41143191977E+02 -0.60563147957E+02 -0.51636826964E+03  0.54947779484E+03  0.17300000000E+03 0. -1.
</event>
<event>
 4    1  0.5929306E+000  0.1000000E+03  0.7546771E-02  0.1280296E+00
         21   -1    0    0  501  502  0.00000000000E+00  0.00000000000E+00  0.10688224741E+03  0.10688224741E+03  0.00000000000E+00 0.  1.
         21   -1    0    0  502  503 -0.00000000000E+00 -0.00000000000E+00 -0.55849892290E+03  0.55849892290E+03  0.00000000000E+00 0. -1.
          6    1    1    2  501    0  0.57091567210E+02 -0.87607412413E+02 -0.38954066162E+02  0.20586627948E+03  0.17300000000E+03 0. -1.
         -6    1    1    2    0  503 -0.57091567210E+02  0.87607412413E+02 -0.41266260933E+03  0.45951489083E+03  0.17300000000E+03 0. -1.
</event>
<event>
 4    1  0.5929306E+000  0.1000000E+03  0.7546771E-02  0.1280296E+00
         21   -1    0    0  501  502  0.00000000000E+00  0.00000000000E+00  0.76589649503E+03  0.76589649503E+03  0.00000000000E+00 0.  1.
         21   -1    0    0  502  503 -0.00000000000E+00 -0.00000000000E+00 -0.73023513961E+02  0.73023513961E+02  0.00000000000E+00 0. -1.
          6    1    1    2  501    0  0.84215353704E+02 -0.71554760266E+02  0.55469910025E+03  0.59146631463E+03  0.17300000000E+03 0. -1.
         -6    1    1    2    0  503 -0.84215353704E+02  0.71554760266E+02  0.13817388082E+03  0.24745369437E+03  0.17300000000E+03 0. -1.
</event>
<event>
 4    1  0.5929306E+000  0.1000000E+03  0.7546771E-02  0.1280296E+00
         21   -1    0    0  503  502  0.00000000000E+00  0.00000000000E+00  0.11778780072E+03  0.11778780072E+03  0.00000000000E+00 0.  1.
         21   -1    0    0  501  503 -0.00000000000E+00 -0.00000000000E+00 -0.67655253346E+03  0.67655253346E+03  0.00000000000E+00 0.  1.
          6    1    1    2  501    0 -0.73088418964E+02 -0.39604892147E+02 -0.57062300726E+03  0.60203827194E+03  0.17300000000E+03 0.  1.
         -6    1    1    2    0  502  0.73088418964E+02  0.39604892147E+02  0.11858274511E+02  0.19230206224E+03  0.17300000000E+03 0.  1.
</event>
<event>
 4    1  0.5929306E+000  0.1000000E+03  0.7546771E-02  0.1280296E+00
         21   -1    0    0  501  502  0.00000000000E+00  0.00000000000E+00  0.14414748383E+03  0.14414748383E+03  0.00000000000E+00 0. -1.
         21   -1    0    0  502  503 -0.00000000000E+00 -0.00000000000E+00 -0.39987210125E+03  0.39987210125E+03  0.00000000000E+00 0. -1.
          6    1    1    2  501    0 -0.81957895192E+02 -0.14428375293E+03 -0.14292105136E+03  0.27908838182E+03  0.17300000000E+03 0. -1.
         -6    1    1    2    0  503  0.81957895192E+02  0.14428375293E+03 -0.11280356607E+03  0.26493120326E+03  0.17300000000E+03 0. -1.
</event>
<event>
 4    1  0.5929306E+000  0.1000000E+03  0.7546771E-02  0.1280296E+00
         21   -1    0    0  501  502  0.00000000000E+00  0.00000000000E+00  0.64607886554E+03  0.64607886554E+03  0.00000000000E+00 0. -1.
         21   -1    0    0  502  503 -0.00000000000E+00 -0.00000000000E+00 -0.20978089827E+03  0.20978089827E+03  0.00000000000E+00 0. -1.
          6    1    1    2  501    0 -0.11608320363E+03  0.17511269315E+01  0.57095974331E+03  0.60778483453E+03  0.17300000000E+03 0. -1.
         -6    1    1    2    0  503  0.11608320363E+03 -0.17511269315E+01 -0.13466177604E+03  0.24807492928E+03  0.17300000000E+03 0. -1.
</event>
<event>
 4    1  0.5929306E+000  0.1000000E+03  0.7546771E-02  0.1280296E+00
         21   -1    0    0  501  502  0.00000000000E+00  0.00000000000E+00  0.31993689243E+03  0.31993689243E+03  0.00000000000E+00 0. -1.
         21   -1    0    0  502  503 -0.00000000000E+00 -0.00000000000E+00 -0.15868561510E+03  0.15868561510E+03  0.00000000000E+00 0. -1.
          6    1    1    2  501    0  0.28351978742E+02 -0.46002803768E+02 -0.61553113033E+02  0.19141023582E+03  0.17300000000E+03 0. -1.
         -6    1    1    2    0  503 -0.28351978742E+02  0.46002803768E+02  0.22280439036E+03  0.28721227170E+03  0.17300000000E+03 0. -1.
</event>
<event>
 4    1  0.5929306E+000  0.1000000E+03  0.7546771E-02  0.1280296E+00
         21   -1    0    0  503  502  0.00000000000E+00  0.00000000000E+00  0.20694186481E+03  0.20694186481E+03  0.00000000000E+00 0. -1.
         21   -1    0    0  501  503 -0.00000000000E+00 -0.00000000000E+00 -0.22177834208E+03  0.22177834208E+03  0.00000000000E+00 0. -1.
          6    1    1    2  501    0  0.81009701806E+02 -0.92796799979E+02  0.20748336231E+02  0.21338535875E+03  0.17300000000E+03 0. -1.
         -6    1    1    2    0  502 -0.81009701806E+02  0.92796799979E+02 -0.35584813504E+02  0.21533484814E+03  0.17300000000E+03 0. -1.
</event>
<event>
 4    1  0.5929306E+000  0.1000000E+03  0.7546771E-02  0.1280296E+00
         21   -1    0    0  503  502  0.00000000000E+00  0.00000000000E+00  0.53431687674E+03  0.53431687674E+03  0.00000000000E+00 0. -1.
         21   -1    0    0  501  503 -0.00000000000E+00 -0.00000000000E+00 -0.17982276379E+03  0.17982276379E+03  0.00000000000E+00 0. -1.
          6    1    1    2  501    0 -0.17386654110E+03  0.79276293481E+02 -0.21071511476E+02  0.25862581738E+03  0.17300000000E+03 0. -1.
         -6    1    1    2    0  502  0.17386654110E+03 -0.79276293481E+02  0.37556562442E+03  0.45551382314E+03  0.17300000000E+03 0. -1.
</event>
<event>
 4    1  0.5929306E+000  0.1000000E+03  0.7546771E-02  0.1280296E+00
         21   -1    0    0  503  502  0.00000000000E+00  0.00000000000E+00  0.90041383842E+02  0.90041383842E+02  0.00000000000E+00 0. -1.
         21   -1    0    0  501  503 -0.00000000000E+00 -0.00000000000E+00 -0.98906068490E+03  0.98906068490E+03  0.00000000000E+00 0. -1.
          6    1    1    2  501    0  0.25346466772E+01 -0.13552515122E+02 -0.88843947263E+03  0.90523134702E+03  0.17300000000E+03 0. -1.
         -6    1    1    2    0  502 -0.25346466772E+01  0.13552515122E+02 -0.10579828420E+02  0.17387072171E+03  0.17300000000E+03 0. -1.
</event>
<event>
 4    1  0.5929306E+000  0.1000000E+03  0.7546771E-02  0.1280296E+00
         21   -1    0    0  503  502  0.00000000000E+00  0.00000000000E+00  0.64068963334E+03  0.64068963334E+03  0.00000000000E+00 0.  1.
         21   -1    0    0  501  503 -0.00000000000E+00 -0.00000000000E+00 -0.80178799593E+02  0.80178799593E+02  0.00000000000E+00 0. -1.
          6    1    1    2  501    0  0.11204453341E+03 -0.81665840720E+02  0.20536983634E+03  0.30220697657E+03  0.17300000000E+03 0. -1.
         -6    1    1    2    0  502 -0.11204453341E+03  0.81665840720E+02  0.35514099741E+03  0.41866145637E+03  0.17300000000E+03 0.  1.
</event>
<event>
 4    1  0.5929306E+000  0.1000000E+03  0.7546771E-02  0.1280296E+00
         21   -1    0    0  503  502  0.00000000000E+00  0.00000000000E+00  0.17275041557E+03  0.17275041557E+03  0.00000000000E+00 0.  1.
         21   -1    0    0  501  503 -0.00000000000E+00 -0.00000000000E+00 -0.37526745204E+03  0.37526745204E+03  0.00000000000E+00 0. -1.
          6    1    1    2  501    0  0.30372854014E+02  0.91357209062E+01 -0.29938266120E+03  0.34722463836E+03  0.17300000000E+03 0. -1.
         -6    1    1    2    0  502 -0.30372854014E+02 -0.91357209062E+01  0.96865624732E+02  0.20079322925E+03  0.17300000000E+03 0.  1.
</event>
<event>
 4    1  0.5929306E+000  0.1000000E+03  0.7546771E-02  0.1280296E+00
         21   -1    0    0  503  502  0.00000000000E+00  0.00000000000E+00  0.61335275862E+02  0.61335275862E+02  0.00000000000E+00 0.  1.
         21   -1    0    0  501  503 -0.00000000000E+00 -0.00000000000E+00 -0.12942216255E+04  0.12942216255E+04  0.00000000000E+00 0. -1.
          6    1    1    2  501    0  0.78169878944E+02  0.22890123553E+01 -0.11172336290E+04  0.11332500833E+04  0.17300000000E+03 0. -1.
         -6    1    1    2    0  502 -0.78169878944E+02 -0.22890123553E+01 -0.11565272059E+03  0.22230681801E+03  0.17300000000E+03 0.  1.
</event>
<event>
 4    1  0.5929306E+000  0.1000000E+03  0.7546771E-02  0.1280296E+00
         21   -1    0    0  503  502  0.00000000000E+00  0.00000000000E+00  0.11218609699E+03  0.11218609699E+03  0.00000000000E+00 0.  1.
         21   -1    0    0  501  503 -0.00000000000E+00 -0.00000000000E+00 -0.48661595644E+03  0.48661595644E+03  0.00000000000E+00 0.  1.
          6    1    1    2  501    0  0.38007209289E+02  0.10479490654E+02 -0.38200797074E+03  0.42120476896E+03  0.17300000000E+03 0.  1.
         -6    1    1    2    0  502 -0.38007209289E+02 -0.10479490654E+02  0.75781112978E+01  0.17759728448E+03  0.17300000000E+03 0.  1.
</event>
<event>
 4    1  0.5929306E+000  0.1000000E+03  0.7546771E-02  0.1280296E+00
         21   -1    0    0  503  502  0.00000000000E+00  0.00000000000E+00  0.11864733445E+03  0.11864733445E+03  0.00000000000E+00 0.  1.
         21   -1    0    0  501  503 -0.00000000000E+00 -0.00000000000E+00 -0.29107277721E+03  0.29107277721E+03  0.00000000000E+00 0.  1.
          6    1    1    2  501    0 -0.18891797867E+02 -0.65175687340E+02 -0.84985717927E+02  0.20434368720E+03  0.17300000000E+03 0.  1.
         -6    1    1    2    0  502  0.18891797867E+02  0.65175687340E+02 -0.87439724831E+02  0.20537642446E+03  0.17300000000E+03 0.  1.
</event>
<event>
 4    1  0.5929306E+000  0.1000000E+03  0.7546771E-02  0.1280296E+00
         21   -1    0    0  501  502  0.00000000000E+00  0.00000000000E+00  0.68743334709E+03  0.68743334709E+03  0.00000000000E+00 0. -1.
         21   -1    0    0  502  503 -0.00000000000E+00 -0.00000000000E+00 -0.53571479194E+02  0.53571479194E+02  0.00000000000E+00 0.  1.
          6    1    1    2  501    0  0.39757335104E+02  0.57481758478E+02  0.40355394829E+03  0.44460048069E+03  0.17300000000E+03 0. -1.
         -6    1    1    2    0  503 -0.39757335104E+02 -0.57481758478E+02  0.23030791961E+03  0.29640434559E+03  0.17300000000E+03 0.  1.
</event>
<event>
 4    1  0.5929306E+000  0.1000000E+03  0.7546771E-02  0.1280296E+00
         21   -1    0    0  501  502  0.00000000000E+00  0.00000000000E+00  0.18960728267E+03  0.18960728267E+03  0.00000000000E+00 0. -1.
         21   -1    0    0  502  503 -0.00000000000E+00 -0.00000000000E+00 -0.18259836216E+03  0.18259836216E+03  0.00000000000E+00 0.  1.
          6    1    1    2  501    0 -0.11458677567E+01 -0.38196782355E+02 -0.53362215225E+02  0.18503197888E+03  0.17300000000E+03 0. -1.
         -6    1    1    2    0  503  0.11458677567E+01  0.38196782355E+02  0.60371135733E+02  0.18717366595E+03  0.17300000000E+03 0.  1.
</event>
<event>
 4    1  0.5929306E+000  0.1000000E+03  0.7546771E-02  0.1280296E+00
         21   -1    0    0  501  502  0.00000000000E+00  0.00000000000E+00  0.32166198134E+03  0.32166198134E+03  0.00000000000E+00 0.  1.
         21   -1    0    0  502  503 -0.00000000000E+00 -0.00000000000E+00 -0.15611748570E+03  0.15611748570E+03  0.00000000000E+00 0.  1.
          6    1    1    2  501    0  0.12607677471E+03  0.17565042222E+02  0.15090000108E+03  0.26249513168E+03  0.17300000000E+03 0.  1.
         -6    1    1    2    0  503 -0.12607677471E+03 -0.17565042222E+02  0.14644494553E+02  0.21528433536E+03  0.17300000000E+03 0.  1.
</event>
<event>
 4    1  0.5929306E+000  0.1000000E+03  0.7546771E-02  0.1280296E+00
         21   -1    0    0  501  502  0.00000000000E+00  0.00000000000E+00  0.27704691138E+03  0.27704691138E+03  0.00000000000E+00 0. -1.
         21   -1    0    0  502  503 -0.00000000000E+00 -0.00000000000E+00 -0.42758001433E+03  0.42758001433E+03  0.00000000000E+00 0.  1.
          6    1    1    2  501    0  0.90681459123E+02  0.19318054566E+03  0.13697084484E+03  0.30697208763E+03  0.17300000000E+03 0.  1.
         -6    1    1    2    0  503 -0.90681459123E+02 -0.19318054566E+03 -0.28750394780E+03  0.39765483808E+03  0.17300000000E+03 0. -1.
</event>
<event>
 4    1  0.5929306E+000  0.1000000E+03  0.7546771E-02  0.1280296E+00
         21   -1    0    0  503  502  0.00000000000E+00  0.00000000000E+00  0.22444061077E+03  0.22444061077E+03  0.00000000000E+00 0. -1.
         21   -1    0    0  501  503 -0.00000000000E+00 -0.00000000000E+00 -0.50022079198E+03  0.50022079198E+03  0.00000000000E+00 0.  1.
          6    1    1    2  501    0 -0.20021483745E+03 -0.20226777690E+03 -0.98266760955E+02  0.34725148094E+03  0.17300000000E+03 0.  1.
         -6    1    1    2    0  502  0.20021483745E+03  0.20226777690E+03 -0.17751342025E+03  0.37740992180E+03  0.17300000000E+03 0. -1.
</event>
<event>
 4    1  0.5929306E+000  0.1000000E+03  0.7546771E-02  0.1280296E+00
         21   -1    0    0  501  502  0.00000000000E+00  0.00000000000E+00  0.20866422342E+03  0.20866422342E+03  0.00000000000E+00 0.  1.
         21   -1    0    0  502  503 -0.00000000000E+00 -0.00000000000E+00 -0.19717086221E+03  0.19717086221E+03  0.00000000000E+00 0.  1.
          6    1    1    2  501    0  0.73317801704E+02 -0.18288047625E+02  0.79962377809E+02  0.20501935176E+03  0.17300000000E+03 0.  1.
         -6    1    1    2    0  503 -0.73317801704E+02  0.18288047625E+02 -0.68469016604E+02  0.20081573386E+03  0.17300000000E+03 0.  1.
</event>
<event>
 4    1  0.5929306E+000  0.1000000E+03  0.7546771E-02  0.1280296E+00
         21   -1    0    0  501  502  0.00000000000E+00  0.00000000000E+00  0.18947656610E+03  0.18947656610E+03  0.00000000000E+00 0.  1.
         21   -1    0    0  502  503 -0.00000000000E+00 -0.00000000000E+00 -0.23931045121E+03  0.23931045121E+03  0.00000000000E+00 0.  1.
          6    1    1    2  501    0  0.11252650607E+03 -0.49687444488E+02 -0.41874236551E+02  0.21636429556E+03  0.17300000000E+03 0.  1.
         -6    1    1    2    0  503 -0.11252650607E+03  0.49687444488E+02 -0.79596485659E+01  0.21242272174E+03  0.17300000000E+03 0.  1.
</event>
<event>
 4    1  0.5929306E+000  0.1000000E+03  0.7546771E-02  0.1280296E+00
         21   -1    0    0  501  502  0.00000000000E+00  0.00000000000E+00  0.30753878047E+03  0.30753878047E+03  0.00000000000E+00 0.  1.
         21   -1    0    0  502  503 -0.00000000000E+00 -0.00000000000E+00 -0.11392301233E+03  0.11392301233E+03  0.00000000000E+00 0.  1.
          6    1    1    2  501    0 -0.68818335697E+02  0.10194438569E+02  0.11519906870E+03  0.21917964170E+03  0.17300000000E+03 0.  1.
         -6    1    1    2    0  503  0.68818335697E+02 -0.10194438569E+02  0.78416699436E+02  0.20228215111E+03  0.17300000000E+03 0.  1.
</event>
<event>
 4    1  0.5929306E+000  0.1000000E+03  0.7546771E-02  0.1280296E+00
         21   -1    0    0  501  502  0.00000000000E+00  0.00000000000E+00  0.17418089576E+04  0.17418089576E+04  0.00000000000E+00 0.  1.
         21   -1    0    0  502  503 -0.00000000000E+00 -0.00000000000E+00 -0.65491742688E+02  0.65491742688E+02  0.00000000000E+00 0.  1.
          6    1    1    2  501    0  0.17297344528E+03 -0.14660160924E+03  0.13222211911E+04  0.13526306675E+04  0.17300000000E+03 0.  1.
         -6    1    1    2    0  503 -0.17297344528E+03  0.14660160924E+03  0.35409602388E+03  0.45467003281E+03  0.17300000000E+03 0.  1.
</event>
<event>
 4    1  0.5929306E+000  0.1000000E+03  0.7546771E-02  0.1280296E+00
         21   -1    0    0  501  502  0.00000000000E+00  0.00000000000E+00  0.32544008097E+03  0.32544008097E+03  0.00000000000E+00 0.  1.
         21   -1    0    0  502  503 -0.00000000000E+00 -0.00000000000E+00 -0.25500062322E+03  0.25500062322E+03  0.00000000000E+00 0.  1.
          6    1    1    2  501    0 -0.67314492879E+02 -0.14565419189E+03 -0.13127434702E+03  0.27001544169E+03  0.17300000000E+03 0.  1.
         -6    1    1    2    0  503  0.67314492879E+02  0.14565419189E+03  0.20171380477E+03  0.31042526250E+03  0.17300000000E+03 0.  1.
</event>
<event>
 4    1  0.5929306E+000  0.1000000E+03  0.7546771E-02  0.1280296E+00
         21   -1    0    0  503  502  0.00000000000E+00  0.00000000000E+00  0.81195945299E+02  0.81195945299E+02  0.00000000000E+00 0.  1.
         21   -1    0    0  501  503 -0.00000000000E+00 -0.00000000000E+00 -0.51906242520E+03  0.51906242520E+03  0.00000000000E+00 0.  1.
          6    1    1    2  501    0 -0.69169472764E+02 -0.68768334925E+02 -0.14292240074E+03  0.24468206408E+03  0.17300000000E+03 0.  1.
         -6    1    1    2    0  502  0.69169472764E+02  0.68768334925E+02 -0.29494407916E+03  0.35557630641E+03  0.17300000000E+03 0.  1.
</event>
<event>
 4    1  0.5929306E+000  0.1000000E+03  0.7546771E-02  0.1280296E+00
         21   -1    0    0  503  502  0.00000000000E+00  0.00000000000E+00  0.49156730378E+02  0.49156730378E+02  0.00000000000E+00 0.  1.
         21   -1    0    0  501  503 -0.00000000000E+00 -0.00000000000E+00 -0.71839597630E+03  0.71839597630E+03  0.00000000000E+00 0.  1.
          6    1    1    2  501    0  0.65119434260E+02  0.23712612100E+02 -0.38389491064E+03  0.42674012127E+03  0.17300000000E+03 0.  1.
         -6    1    1    2    0  502 -0.65119434260E+02 -0.23712612100E+02 -0.28534433528E+03  0.34081258540E+03  0.17300000000E+03 0.  1.
</event>
<event>
 4    1  0.5929306E+000  0.1000000E+03  0.7546771E-02  0.1280296E+00
         21   -1    0    0  501  502  0.00000000000E+00  0.00000000000E+00  0.52748300716E+03  0.52748300716E+03  0.00000000000E+00 0.  1.
         21   -1    0    0  502  503 -0.00000000000E+00 -0.00000000000E+00 -0.10336856345E+03  0.10336856345E+03  0.00000000000E+00 0. -1.
          6    1    1    2  501    0 -0.64911533713E+02  0.23188922361E+01  0.40488597016E+03  0.44506239260E+03  0.17300000000E+03 0.  1.
         -6    1    1    2    0  503  0.64911533713E+02 -0.23188922361E+01  0.19228473539E+02  0.18578917801E+03  0.17300000000E+03 0. -1.
</event>
<event>
 4    1  0.5929306E+000  0.1000000E+03  0.7546771E-02  0.1280296E+00
         21   -1    0    0  501  502  0.00000000000E+00  0.00000000000E+00  0.10072246899E+04  0.10072246899E+04  0.00000000000E+00 0.  1.
         21   -1    0    0  502  503 -0.00000000000E+00 -0.00000000000E+00 -0.20452022877E+03  0.20452022877E+03  0.00000000000E+00 0. -1.
          6    1    1    2  501    0  0.29391538375E+02  0.41140250440E+03  0.50434712076E+03  0.67410006778E+03  0.17300000000E+03 0.  1.
         -6    1    1    2    0  503 -0.29391538375E+02 -0.41140250440E+03  0.29835734038E+03  0.53764485092E+03  0.17300000000E+03 0. -1.
</event>
<event>
 4    1  0.5929306E+000  0.1000000E+03  0.7546771E-02  0.1280296E+00
         21   -1    0    0  501  502  0.00000000000E+00  0.00000000000E+00  0.32071854674E+02  0.32071854674E+02  0.00000000000E+00 0. -1.
         21   -1    0    0  502  503 -0.00000000000E+00 -0.00000000000E+00 -0.12202841221E+04  0.12202841221E+04  0.00000000000E+00 0. -1.
          6    1    1    2  501    0 -0.53322650619E+02 -0.24938243557E+02 -0.35424613793E+03  0.39860324547E+03  0.17300000000E+03 0. -1.
         -6    1    1    2    0  503  0.53322650619E+02  0.24938243557E+02 -0.83396612946E+03  0.85375273127E+03  0.17300000000E+03 0. -1.
</event>
<event>
 4    1  0.5929306E+000  0.1000000E+03  0.7546771E-02  0.1280296E+00
         21   -1    0    0  503  502  0.00000000000E+00  0.00000000000E+00  0.13023251652E+03  0.13023251652E+03  0.00000000000E+00 0.  1.
         21   -1    0    0  501  503 -0.00000000000E+00 -0.00000000000E+00 -0.33372393375E+03  0.33372393375E+03  0.00000000000E+00 0.  1.
          6    1    1    2  501    0  0.96599220463E+02 -0.51487430260E+02 -0.14555918390E+03  0.25119482655E+03  0.17300000000E+03 0.  1.
         -6    1    1    2    0  502 -0.96599220463E+02  0.51487430260E+02 -0.57932233321E+02  0.21276162372E+03  0.17300000000E+03 0.  1.
</event>
<event>
 4    1  0.5929306E+000  0.1000000E+03  0.7546771E-02  0.1280296E+00
         21   -1    0    0  503  502  0.00000000000E+00  0.00000000000E+00  0.45907828866E+03  0.45907828866E+03  0.00000000000E+00 0.  1.
         21   -1    0    0  501  503 -0.00000000000E+00 -0.00000000000E+00 -0.20091166692E+03  0.20091166692E+03  0.00000000000E+00 0.  1.
          6    1    1    2  501    0  0.65793976694E+02  0.23756012269E+02 -0.13126973952E+03  0.22815332564E+03  0.17300000000E+03 0.  1.
         -6    1    1    2    0  502 -0.65793976694E+02 -0.23756012269E+02  0.38943636126E+03  0.43183662994E+03  0.17300000000E+03 0.  1.
</event>
<event>
 4    1  0.5929306E+000  0.1000000E+03  0.7546771E-02  0.1280296E+00
         21   -1    0    0  503  502  0.00000000000E+00  0.00000000000E+00  0.10368906688E+03  0.10368906688E+03  0.00000000000E+00 0.  1.
         21   -1    0    0  501  503 -0.00000000000E+00 -0.00000000000E+00 -0.63926774958E+03  0.63926774958E+03  0.00000000000E+00 0.  1.
          6    1    1    2  501    0  0.33133669763E+02  0.68076377209E+02 -0.52028594554E+03  0.55349679161E+03  0.17300000000E+03 0.  1.
         -6    1    1    2    0  502 -0.33133669763E+02 -0.68076377209E+02 -0.15292737170E+02  0.18946002485E+03  0.17300000000E+03 0.  1.
</event>
<event>
 4    1  0.5929306E+000  0.1000000E+03  0.7546771E-02  0.1280296E+00
         21   -1    0    0  501  502  0.00000000000E+00  0.00000000000E+00  0.35831086236E+03  0.35831086236E+03  0.00000000000E+00 0. -1.
         21   -1    0    0  502  503 -0.00000000000E+00 -0.00000000000E+00 -0.11518835963E+03  0.11518835963E+03  0.00000000000E+00 0.  1.
          6    1    1    2  501    0 -0.36955963473E+02  0.31531052277E+01  0.23791251342E+03  0.29649122981E+03  0.17300000000E+03 0.  1.
         -6    1    1    2    0  503  0.36955963473E+02 -0.31531052277E+01  0.52099893011E+01  0.17700799218E+03  0.17300000000E+03 0. -1.
</event>
<event>
 4    1  0.5929306E+000  0.1000000E+03  0.7546771E-02  0.1280296E+00
         21   -1    0    0  503  502  0.00000000000E+00  0.00000000000E+00  0.35766816348E+03  0.35766816348E+03  0.00000000000E+00 0.  1.
         21   -1    0    0  501  503 -0.00000000000E+00 -0.00000000000E+00 -0.12461504121E+03  0.12461504121E+03  0.00000000000E+00 0.  1.
          6    1    1    2  501    0  0.55128723532E+02 -0.10680753635E+03  0.10058433387E+03  0.23343785939E+03  0.17300000000E+03 0. -1.
         -6    1    1    2    0  502 -0.55128723532E+02  0.10680753635E+03  0.13246878839E+03  0.24884534530E+03  0.17300000000E+03 0. -1.
</event>
<event>
 4    1  0.5929306E+000  0.1000000E+03  0.7546771E-02  0.1280296E+00
         21   -1    0    0  503  502  0.00000000000E+00  0.00000000000E+00  0.15436411181E+04  0.15436411181E+04  0.00000000000E+00 0.  1.
         21   -1    0    0  501  503 -0.00000000000E+00 -0.00000000000E+00 -0.59633026807E+02  0.59633026807E+02  0.00000000000E+00 0.  1.
          6    1    1    2  501    0  0.48529884287E+02 -0.44468331742E+02  0.10683535083E+03  0.21371797861E+03  0.17300000000E+03 0. -1.
         -6    1    1    2    0  502 -0.48529884287E+02  0.44468331742E+02  0.13771727405E+04  0.13895561663E+04  0.17300000000E+03 0. -1.
</event>
<event>
 4    1  0.5929306E+000  0.1000000E+03  0.7546771E-02  0.1280296E+00
         21   -1    0    0  503  502  0.00000000000E+00  0.00000000000E+00  0.59334053826E+02  0.59334053826E+02  0.00000000000E+00 0. -1.
         21   -1    0    0  501  503 -0.00000000000E+00 -0.00000000000E+00 -0.21032731765E+04  0.21032731765E+04  0.00000000000E+00 0.  1.
          6    1    1    2  501    0 -0.42686797092E+02 -0.12986025064E+03 -0.18668023977E+04  0.18797781889E+04  0.17300000000E+03 0. -1.
         -6    1    1    2    0  502  0.42686797092E+02  0.12986025064E+03 -0.17713672494E+03  0.28282904141E+03  0.17300000000E+03 0.  1.
</event>
<event>
 4    1  0.5929306E+000  0.1000000E+03  0.7546771E-02  0.1280296E+00
         21   -1    0    0  503  502  0.00000000000E+00  0.00000000000E+00  0.50036886379E+02  0.50036886379E+02  0.00000000000E+00 0.  1.
         21   -1    0    0  501  503 -0.00000000000E+00 -0.00000000000E+00 -0.93901159065E+03  0.93901159065E+03  0.00000000000E+00 0. -1.
          6    1    1    2  501    0  0.74696560784E+02 -0.44432299117E+02 -0.66688176385E+03  0.69441636815E+03  0.17300000000E+03 0. -1.
         -6    1    1    2    0  502 -0.74696560784E+02  0.44432299117E+02 -0.22209294042E+03  0.29463210888E+03  0.17300000000E+03 0. -1.
</event>
<event>
 4    1  0.5929306E+000  0.1000000E+03  0.7546771E-02  0.1280296E+00
         21   -1    0    0  501  502  0.00000000000E+00  0.00000000000E+00  0.10539050490E+03  0.10539050490E+03  0.00000000000E+00 0. -1.
         21   -1    0    0  502  503 -0.00000000000E+00 -0.00000000000E+00 -0.37462843158E+03  0.37462843158E+03  0.00000000000E+00 0. -1.
          6    1    1    2  501    0  0.34332388453E+02  0.68335314155E+02 -0.61097749710E+02  0.19877213858E+03  0.17300000000E+03 0. -1.
         -6    1    1    2    0  503 -0.34332388453E+02 -0.68335314155E+02 -0.20814017697E+03  0.28124679790E+03  0.17300000000E+03 0. -1.
</event>
<event>
 4    1  0.5929306E+000  0.1000000E+03  0.7546771E-02  0.1280296E+00
         21   -1    0    0  501  502  0.00000000000E+00  0.00000000000E+00  0.81226299164E+02  0.81226299164E+02  0.00000000000E+00 0.  1.
         21   -1    0    0  502  503 -0.00000000000E+00 -0.00000000000E+00 -0.12751599967E+04  0.12751599967E+04  0.00000000000E+00 0.  1.
          6    1    1    2  501    0  0.14180604222E+03 -0.21495043408E+03 -0.41649088539E+03  0.51933255273E+03  0.17300000000E+03 0.  1.
         -6    1    1    2    0  503 -0.14180604222E+03  0.21495043408E+03 -0.77744281213E+03  0.83705374311E+03  0.17300000000E+03 0.  1.
</event>
<event>
 4    1  0.5929306E+000  0.1000000E+03  0.7546771E-02  0.1280296E+00
         21   -1    0    0  501  502  0.00000000000E+00  0.00000000000E+00  0.71582503685E+03  0.71582503685E+03  0.00000000000E+00 0.  1.
         21   -1    0    0  502  503 -0.00000000000E+00 -0.00000000000E+00 -0.53720079187E+02  0.53720079187E+02  0.00000000000E+00 0.  1.
          6    1    1    2  501    0  0.58178045263E+02 -0.66797857209E+02  0.38216410855E+03  0.42874822978E+03  0.17300000000E+03 0.  1.
         -6    1    1    2    0  503 -0.58178045263E+02  0.66797857209E+02  0.27994084911E+03  0.34079688625E+03  0.17300000000E+03 0.  1.
</event>
<event>
 4    1  0.5929306E+000  0.1000000E+03  0.7546771E-02  0.1280296E+00
         21   -1    0    0  503  502  0.00000000000E+00  0.00000000000E+00  0.97630879133E+02  0.97630879133E+02  0.00000000000E+00 0.  1.
         21   -1    0    0  501  503 -0.00000000000E+00 -0.00000000000E+00 -0.10301687240E+04  0.10301687240E+04  0.00000000000E+00 0.  1.
          6    1    1    2  501    0 -0.47152743422E+02 -0.62596605827E+02 -0.91786768458E+03  0.93731094236E+03  0.17300000000E+03 0.  1.
         -6    1    1    2    0  502  0.47152743422E+02  0.62596605827E+02 -0.14670160267E+02  0.19048866075E+03  0.17300000000E+03 0.  1.
</event>
<event>
 4    1  0.5929306E+000  0.1000000E+03  0.7546771E-02  0.1280296E+00
         21   -1    0    0  503  502  0.00000000000E+00  0.00000000000E+00  0.10418068855E+04  0.10418068855E+04  0.00000000000E+00 0.  1.
         21   -1    0    0  501  503 -0.00000000000E+00 -0.00000000000E+00 -0.55243241839E+02  0.55243241839E+02  0.00000000000E+00 0. -1.
          6    1    1    2  501    0 -0.10714371273E+02 -0.17651348181E+02  0.11620732897E+03  0.20942662474E+03  0.17300000000E+03 0. -1.
         -6    1    1    2    0  502  0.10714371273E+02  0.17651348181E+02  0.87035631471E+03  0.88762350261E+03  0.17300000000E+03 0.  1.
</event>
<event>
 4    1  0.5929306E+000  0.1000000E+03  0.7546771E-02  0.1280296E+00
         21   -1    0    0  503  502  0.00000000000E+00  0.00000000000E+00  0.68788002395E+03  0.68788002395E+03  0.00000000000E+00 0.  1.
         21   -1    0    0  501  503 -0.00000000000E+00 -0.00000000000E+00 -0.30716626349E+04  0.30716626349E+04  0.00000000000E+00 0. -1.
          6    1    1    2  501    0 -0.11811629801E+03 -0.16261500871E+03 -0.30401160338E+04  0.30516601384E+04  0.17300000000E+03 0. -1.
         -6    1    1    2    0  502  0.11811629801E+03  0.16261500871E+03  0.65633342284E+03  0.70788252052E+03  0.17300000000E+03 0.  1.
</event>
<event>
 4    1  0.5929306E+000  0.1000000E+03  0.7546771E-02  0.1280296E+00
         21   -1    0    0  501  502  0.00000000000E+00  0.00000000000E+00  0.34381053486E+03  0.34381053486E+03  0.00000000000E+00 0.  1.
         21   -1    0    0  502  503 -0.00000000000E+00 -0.00000000000E+00 -0.38903198767E+03  0.38903198767E+03  0.00000000000E+00 0.  1.
          6    1    1    2  501    0  0.14289191210E+02  0.30481421937E+03  0.81068283814E+02  0.36002354917E+03  0.17300000000E+03 0.  1.
         -6    1    1    2    0  503 -0.14289191210E+02 -0.30481421937E+03 -0.12628973663E+03  0.37281897336E+03  0.17300000000E+03 0.  1.
</event>
<event>
 4    1  0.5929306E+000  0.1000000E+03  0.7546771E-02  0.1280296E+00
         21   -1    0    0  501  502  0.00000000000E+00  0.00000000000E+00  0.22909688544E+03  0.22909688544E+03  0.00000000000E+00 0.  1.
         21   -1    0    0  502  503 -0.00000000000E+00 -0.00000000000E+00 -0.52201683557E+03  0.52201683557E+03  0.00000000000E+00 0.  1.
          6    1    1    2  501    0  0.93470262649E+02  0.77659797482E+01  0.16236185334E+03  0.25512226846E+03  0.17300000000E+03 0.  1.
         -6    1    1    2    0  503 -0.93470262649E+02 -0.77659797482E+01 -0.45528180347E+03  0.49599145256E+03  0.17300000000E+03 0.  1.
</event>
<event>
 4    1  0.5929306E+000  0.1000000E+03  0.7546771E-02  0.1280296E+00
         21   -1    0    0  501  502  0.00000000000E+00  0.00000000000E+00  0.14008828168E+04  0.14008828168E+04  0.00000000000E+00 0.  1.
         21   -1    0    0  502  503 -0.00000000000E+00 -0.00000000000E+00 -0.51727066659E+02  0.51727066659E+02  0.00000000000E+00 0.  1.
          6    1    1    2  501    0 -0.94315906178E+02  0.11362458342E+02  0.11684859711E+04  0.11850371556E+04  0.17300000000E+03 0.  1.
         -6    1    1    2    0  503  0.94315906178E+02 -0.11362458342E+02  0.18066977910E+03  0.26757272787E+03  0.17300000000E+03 0.  1.
</event>
<event>
 4    1  0.5929306E+000  0.1000000E+03  0.7546771E-02  0.1280296E+00
         21   -1    0    0  501  502  0.00000000000E+00  0.00000000000E+00  0.11501314321E+03  0.11501314321E+03  0.00000000000E+00 0. -1.
         21   -1    0    0  502  503 -0.00000000000E+00 -0.00000000000E+00 -0.43653679836E+03  0.43653679836E+03  0.00000000000E+00 0. -1.
          6    1    1    2  501    0 -0.10701345817E+03  0.69629773553E+02 -0.23838985622E+03  0.32102789465E+03  0.17300000000E+03 0. -1.
         -6    1    1    2    0  503  0.10701345817E+03 -0.69629773553E+02 -0.83133798929E+02  0.23052204693E+03  0.17300000000E+03 0. -1.
</event>
<event>
 4    1  0.5929306E+000  0.1000000E+03  0.7546771E-02  0.1280296E+00
         21   -1    0    0  501  502  0.00000000000E+00  0.00000000000E+00  0.46733265022E+03  0.46733265022E+03  0.00000000000E+00 0. -1.
         21   -1    0    0  502  503 -0.00000000000E+00 -0.00000000000E+00 -0.19566736704E+03  0.19566736704E+03  0.00000000000E+00 0. -1.
          6    1    1    2  501    0  0.18266657860E+03 -0.10740047003E+03  0.27712109708E+03  0.38939317194E+03  0.17300000000E+03 0. -1.
         -6    1    1    2    0  503 -0.18266657860E+03  0.10740047003E+03 -0.54558139069E+01  0.27360684532E+03  0.17300000000E+03 0. -1.
</event>
<event>
 4    1  0.5929306E+000  0.1000000E+03  0.7546771E-02  0.1280296E+00
         21   -1    0    0  503  502  0.00000000000E+00  0.00000000000E+00  0.17393511566E+04  0.17393511566E+04  0.00000000000E+00 0. -1.
         21   -1    0    0  501  503 -0.00000000000E+00 -0.00000000000E+00 -0.42058940220E+02  0.42058940220E+02  0.00000000000E+00 0. -1.
          6    1    1    2  501    0  0.97946250347E+01 -0.37469209461E+02  0.17595370623E+03  0.24977706675E+03  0.17300000000E+03 0. -1.
         -6    1    1    2    0  502 -0.97946250347E+01  0.37469209461E+02  0.15213385101E+04  0.15316330301E+04  0.17300000000E+03 0. -1.
</event>
<event>
 4    1  0.5929306E+000  0.1000000E+03  0.7546771E-02  0.1280296E+00
         21   -1    0    0  503  502  0.00000000000E+00  0.00000000000E+00  0.14735109262E+03  0.14735109262E+03  0.00000000000E+00 0. -1.
         21   -1    0    0  501  503 -0.00000000000E+00 -0.00000000000E+00 -0.57244398530E+03  0.57244398530E+03  0.00000000000E+00 0. -1.
          6    1    1    2  501    0 -0.51611398015E+02 -0.17573015297E+03 -0.39159208594E+03  0.46563739631E+03  0.17300000000E+03 0. -1.
         -6    1    1    2    0  502  0.51611398015E+02  0.17573015297E+03 -0.33500806744E+02  0.25415768161E+03  0.17300000000E+03 0. -1.
</event>
<event>
 4    1  0.5929306E+000  0.1000000E+03  0.7546771E-02  0.1280296E+00
         21   -1    0    0  503  502  0.00000000000E+00  0.00000000000E+00  0.18407900456E+03  0.18407900456E+03  0.00000000000E+00 0. -1.
         21   -1    0    0  501  503 -0.00000000000E+00 -0.00000000000E+00 -0.43781584508E+03  0.43781584508E+03  0.00000000000E+00 0. -1.
          6    1    1    2  501    0  0.74048850205E+02  0.65656454490E+02 -0.34830014236E+03  0.40129289977E+03  0.17300000000E+03 0.  1.
         -6    1    1    2    0  502 -0.74048850205E+02 -0.65656454490E+02  0.94563301836E+02  0.22060194987E+03  0.17300000000E+03 0.  1.
</event>
<event>
 4    1  0.5929306E+000  0.1000000E+03  0.7546771E-02  0.1280296E+00
         21   -1    0    0  503  502  0.00000000000E+00  0.00000000000E+00  0.78460165381E+02  0.78460165381E+02  0.00000000000E+00 0.  1.
         21   -1    0    0  501  503 -0.00000000000E+00 -0.00000000000E+00 -0.52640328311E+03  0.52640328311E+03  0.00000000000E+00 0. -1.
          6    1    1    2  501    0 -0.25516956804E+02  0.78234567203E+02 -0.32491220216E+03  0.37718523527E+03  0.17300000000E+03 0. -1.
         -6    1    1    2    0  502  0.25516956804E+02 -0.78234567203E+02 -0.12303091556E+03  0.22767821322E+03  0.17300000000E+03 0.  1.
</event>
<event>
 4    1  0.5929306E+000  0.1000000E+03  0.7546771E-02  0.1280296E+00
         21   -1    0    0  503  502  0.00000000000E+00  0.00000000000E+00  0.50226261059E+03  0.50226261059E+03  0.00000000000E+00 0.  1.
         21   -1    0    0  501  503 -0.00000000000E+00 -0.00000000000E+00 -0.10371418426E+03  0.10371418426E+03  0.00000000000E+00 0. -1.
          6    1    1    2  501    0  0.10216327818E+03  0.99685695236E+02  0.14313742497E+03  0.26606746451E+03  0.17300000000E+03 0. -1.
         -6    1    1    2    0  502 -0.10216327818E+03 -0.99685695236E+02  0.25541100136E+03  0.33990933035E+03  0.17300000000E+03 0.  1.
</event>
<event>
 4    1  0.5929306E+000  0.1000000E+03  0.7546771E-02  0.1280296E+00
         21   -1    0    0  503  502  0.00000000000E+00  0.00000000000E+00  0.17365655234E+03  0.17365655234E+03  0.00000000000E+00 0. -1.
         21   -1    0    0  501  503 -0.00000000000E+00 -0.00000000000E+00 -0.31371728085E+03  0.31371728085E+03  0.00000000000E+00 0. -1.
          6    1    1    2  501    0  0.12744843368E+03  0.68389906315E+02 -0.13293135537E+03  0.26176330486E+03  0.17300000000E+03 0. -1.
         -6    1    1    2    0  502 -0.12744843368E+03 -0.68389906315E+02 -0.71293731382E+01  0.22561052833E+03  0.17300000000E+03 0. -1.
</event>
<event>
 4    1  0.5929306E+000  0.1000000E+03  0.7546771E-02  0.1280296E+00
         21   -1    0    0  503  502  0.00000000000E+00  0.00000000000E+00  0.27772335505E+03  0.27772335505E+03  0.00000000000E+00 0. -1.
         21   -1    0    0  501  503 -0.00000000000E+00 -0.00000000000E+00 -0.59783561556E+03  0.59783561556E+03  0.00000000000E+00 0. -1.
          6    1    1    2  501    0 -0.18303453226E+01 -0.27967206555E+03 -0.41854267998E+03  0.53228450041E+03  0.17300000000E+03 0. -1.
         -6    1    1    2    0  502  0.18303453226E+01  0.27967206555E+03  0.98430419463E+02  0.34327447020E+03  0.17300000000E+03 0. -1.
</event>
<event>
 4    1  0.5929306E+000  0.1000000E+03  0.7546771E-02  0.1280296E+00
         21   -1    0    0  503  502  0.00000000000E+00  0.00000000000E+00  0.31171735093E+03  0.31171735093E+03  0.00000000000E+00 0. -1.
         21   -1    0    0  501  503 -0.00000000000E+00 -0.00000000000E+00 -0.70841195425E+03  0.70841195425E+03  0.00000000000E+00 0. -1.
          6    1    1    2  501    0 -0.24590612373E+02 -0.31047369922E+03 -0.53095088295E+03  0.63940320318E+03  0.17300000000E+03 0. -1.
         -6    1    1    2    0  502  0.24590612373E+02  0.31047369922E+03  0.13425627963E+03  0.38072610200E+03  0.17300000000E+03 0. -1.
</event>
<event>
 4    1  0.5929306E+000  0.1000000E+03  0.7546771E-02  0.1280296E+00
         21   -1    0    0  501  502  0.00000000000E+00  0.00000000000E+00  0.34203534011E+03  0.34203534011E+03  0.00000000000E+00 0. -1.
         21   -1    0    0  502  503 -0.00000000000E+00 -0.00000000000E+00 -0.14218547898E+03  0.14218547898E+03  0.00000000000E+00 0. -1.
          6    1    1    2  501    0 -0.20661821447E+02  0.15063498579E+02 -0.47572551656E+02  0.18123456493E+03  0.17300000000E+03 0. -1.
         -6    1    1    2    0  503  0.20661821447E+02 -0.15063498579E+02  0.24742241279E+03  0.30298625415E+03  0.17300000000E+03 0. -1.
</event>
<event>
 4    1  0.5929306E+000  0.1000000E+03  0.7546771E-02  0.1280296E+00
         21   -1    0    0  501  502  0.00000000000E+00  0.00000000000E+00  0.24625841546E+02  0.24625841546E+02  0.00000000000E+00 0. -1.
         21   -1    0    0  502  503 -0.00000000000E+00 -0.00000000000E+00 -0.16005145431E+04  0.16005145431E+04  0.00000000000E+00 0. -1.
          6    1    1    2  501    0  0.48313335657E+02 -0.19500181380E+02 -0.11247260914E+04  0.11391453885E+04  0.17300000000E+03 0. -1.
         -6    1    1    2    0  503 -0.48313335657E+02  0.19500181380E+02 -0.45116261019E+03  0.48599499618E+03  0.17300000000E+03 0. -1.
</event>
<event>
 4    1  0.5929306E+000  0.1000000E+03  0.7546771E-02  0.1280296E+00
         21   -1    0    0  501  502  0.00000000000E+00  0.00000000000E+00  0.29323769142E+03  0.29323769142E+03  0.00000000000E+00 0. -1.
         21   -1    0    0  502  503 -0.00000000000E+00 -0.00000000000E+00 -0.28451302149E+03  0.28451302149E+03  0.00000000000E+00 0. -1.
          6    1    1    2  501    0  0.57745071402E+02  0.22249887042E+03 -0.21344700927E+02  0.28848715199E+03  0.17300000000E+03 0. -1.
         -6    1    1    2    0  503 -0.57745071402E+02 -0.22249887042E+03  0.30069370860E+02  0.28926356091E+03  0.17300000000E+03 0. -1.
</event>
<event>
 4    1  0.5929306E+000  0.1000000E+03  0.7546771E-02  0.1280296E+00
         21   -1    0    0  501  502  0.00000000000E+00  0.00000000000E+00  0.74786736515E+02  0.74786736515E+02  0.00000000000E+00 0.  1.
         21   -1    0    0  502  503 -0.00000000000E+00 -0.00000000000E+00 -0.77675554602E+03  0.77675554602E+03  0.00000000000E+00 0. -1.
          6    1    1    2  501    0 -0.10459623376E+02 -0.93393811564E+02 -0.10537783787E+03  0.22330538837E+03  0.17300000000E+03 0.  1.
         -6    1    1    2    0  503  0.10459623376E+02  0.93393811564E+02 -0.59659097163E+03  0.62823689416E+03  0.17300000000E+03 0. -1.
</event>
<event>
 4    1  0.5929306E+000  0.1000000E+03  0.7546771E-02  0.1280296E+00
         21   -1    0    0  501  502  0.00000000000E+00  0.00000000000E+00  0.83905451559E+03  0.83905451559E+03  0.00000000000E+00 0.  1.
         21   -1    0    0  502  503 -0.00000000000E+00 -0.00000000000E+00 -0.85183104642E+02  0.85183104642E+02  0.00000000000E+00 0. -1.
          6    1    1    2  501    0  0.48969438325E+01 -0.19904640871E+03  0.45229760427E+03  0.52358912871E+03  0.17300000000E+03 0.  1.
         -6    1    1    2    0  503 -0.48969438325E+01  0.19904640871E+03  0.30157380668E+03  0.40064849152E+03  0.17300000000E+03 0. -1.
</event>
<event>
 4    1  0.5929306E+000  0.1000000E+03  0.7546771E-02  0.1280296E+00
         21   -1    0    0  501  502  0.00000000000E+00  0.00000000000E+00  0.10075036351E+03  0.10075036351E+03  0.00000000000E+00 0.  1.
         21   -1    0    0  502  503 -0.00000000000E+00 -0.00000000000E+00 -0.76001489886E+03  0.76001489886E+03  0.00000000000E+00 0. -1.
          6    1    1    2  501    0  0.14313745021E+03  0.57427245449E+01 -0.78258954597E+02  0.23785451964E+03  0.17300000000E+03 0.  1.
         -6    1    1    2    0  503 -0.14313745021E+03 -0.57427245449E+01 -0.58100558076E+03  0.62291074273E+03  0.17300000000E+03 0. -1.
</event>
<event>
 4    1  0.5929306E+000  0.1000000E+03  0.7546771E-02  0.1280296E+00
         21   -1    0    0  501  502  0.00000000000E+00  0.00000000000E+00  0.68506379294E+02  0.68506379294E+02  0.00000000000E+00 0. -1.
         21   -1    0    0  502  503 -0.00000000000E+00 -0.00000000000E+00 -0.13124743186E+04  0.13124743186E+04  0.00000000000E+00 0. -1.
          6    1    1    2  501    0  0.46567752010E+02 -0.20603057806E+03 -0.33652931447E+03  0.43335682079E+03  0.17300000000E+03 0. -1.
         -6    1    1    2    0  503 -0.46567752010E+02  0.20603057806E+03 -0.90743862480E+03  0.94762387707E+03  0.17300000000E+03 0. -1.
</event>
<event>
 4    1  0.5929306E+000  0.1000000E+03  0.7546771E-02  0.1280296E+00
         21   -1    0    0  501  502  0.00000000000E+00  0.00000000000E+00  0.28088072868E+03  0.28088072868E+03  0.00000000000E+00 0. -1.
         21   -1    0    0  502  503 -0.00000000000E+00 -0.00000000000E+00 -0.29393050514E+03  0.29393050514E+03  0.00000000000E+00 0. -1.
          6    1    1    2  501    0 -0.16525229148E+03 -0.52120093461E+02  0.14386542967E+03  0.28399134817E+03  0.17300000000E+03 0. -1.
         -6    1    1    2    0  503  0.16525229148E+03  0.52120093461E+02 -0.15691520613E+03  0.29081988566E+03  0.17300000000E+03 0. -1.
</event>
<event>
 4    1  0.5929306E+000  0.1000000E+03  0.7546771E-02  0.1280296E+00
         21   -1    0    0  501  502  0.00000000000E+00  0.00000000000E+00  0.66198605089E+03  0.66198605089E+03  0.00000000000E+00 0. -1.
         21   -1    0    0  502  503 -0.00000000000E+00 -0.00000000000E+00 -0.51936585914E+02  0.51936585914E+02  0.00000000000E+00 0. -1.
          6    1    1    2  501    0 -0.48762798993E+02 -0.20182935914E+02  0.38362884802E+03  0.42412881828E+03  0.17300000000E+03 0. -1.
         -6    1    1    2    0  503  0.48762798993E+02  0.20182935914E+02  0.22642061695E+03  0.28979381852E+03  0.17300000000E+03 0. -1.
</event>
<event>
 4    1  0.5929306E+000  0.1000000E+03  0.7546771E-02  0.1280296E+00
         21   -1    0    0  501  502  0.00000000000E+00  0.00000000000E+00  0.20362768622E+03  0.20362768622E+03  0.00000000000E+00 0.  1.
         21   -1    0    0  502  503 -0.00000000000E+00 -0.00000000000E+00 -0.25567239117E+03  0.25567239117E+03  0.00000000000E+00 0.  1.
          6    1    1    2  501    0  0.56654529211E+02 -0.13752566356E+03 -0.22850155934E+02  0.22929058734E+03  0.17300000000E+03 0.  1.
         -6    1    1    2    0  503 -0.56654529211E+02  0.13752566356E+03 -0.29194549012E+02  0.23000949004E+03  0.17300000000E+03 0.  1.
</event>
<event>
 4    1  0.5929306E+000  0.1000000E+03  0.7546771E-02  0.1280296E+00
         21   -1    0    0  501  502  0.00000000000E+00  0.00000000000E+00  0.29831907698E+02  0.29831907698E+02  0.00000000000E+00 0.  1.
         21   -1    0    0  502  503 -0.00000000000E+00 -0.00000000000E+00 -0.17277700129E+04  0.17277700129E+04  0.00000000000E+00 0.  1.
          6    1    1    2  501    0  0.45420163662E+02 -0.62147742359E+02 -0.13338058491E+04  0.13471794151E+04  0.17300000000E+03 0.  1.
         -6    1    1    2    0  503 -0.45420163662E+02  0.62147742359E+02 -0.36413225601E+03  0.41042250549E+03  0.17300000000E+03 0.  1.
</event>
<event>
 4    1  0.5929306E+000  0.1000000E+03  0.7546771E-02  0.1280296E+00
         21   -1    0    0  501  502  0.00000000000E+00  0.00000000000E+00  0.23532182811E+03  0.23532182811E+03  0.00000000000E+00 0.  1.
         21   -1    0    0  502  503 -0.00000000000E+00 -0.00000000000E+00 -0.54821350937E+03  0.54821350937E+03  0.00000000000E+00 0.  1.
          6    1    1    2  501    0  0.21045263268E+03 -0.61728730238E+02  0.89822822464E+02  0.29342441305E+03  0.17300000000E+03 0.  1.
         -6    1    1    2    0  503 -0.21045263268E+03  0.61728730238E+02 -0.40271450373E+03  0.49011092444E+03  0.17300000000E+03 0.  1.
</event>
<event>
 4    1  0.5929306E+000  0.1000000E+03  0.7546771E-02  0.1280296E+00
         21   -1    0    0  501  502  0.00000000000E+00  0.00000000000E+00  0.10876666439E+04  0.10876666439E+04  0.00000000000E+00 0. -1.
         21   -1    0    0  502  503 -0.00000000000E+00 -0.00000000000E+00 -0.86011845960E+02  0.86011845960E+02  0.00000000000E+00 0.  1.
          6    1    1    2  501    0  0.10292635052E+03 -0.16279432597E+03  0.18833506441E+03  0.32014828234E+03  0.17300000000E+03 0. -1.
         -6    1    1    2    0  503 -0.10292635052E+03  0.16279432597E+03  0.81331973355E+03  0.85353020754E+03  0.17300000000E+03 0.  1.
</event>
<event>
 4    1  0.5929306E+000  0.1000000E+03  0.7546771E-02  0.1280296E+00
         21   -1    0    0  501  502  0.00000000000E+00  0.00000000000E+00  0.56433957880E+02  0.56433957880E+02  0.00000000000E+00 0. -1.
         21   -1    0    0  502  503 -0.00000000000E+00 -0.00000000000E+00 -0.61787684238E+03  0.61787684238E+03  0.00000000000E+00 0.  1.
          6    1    1    2  501    0 -0.67519527479E+02  0.18957608150E+02 -0.27226072325E+03  0.33011085854E+03  0.17300000000E+03 0. -1.
         -6    1    1    2    0  503  0.67519527479E+02 -0.18957608150E+02 -0.28918216125E+03  0.34419994172E+03  0.17300000000E+03 0.  1.
</event>
<event>
 4    1  0.5929306E+000  0.1000000E+03  0.7546771E-02  0.1280296E+00
         21   -1    0    0  501  502  0.00000000000E+00  0.00000000000E+00  0.34133858023E+03  0.34133858023E+03  0.00000000000E+00 0. -1.
         21   -1    0    0  502  503 -0.00000000000E+00 -0.00000000000E+00 -0.10558019426E+03  0.10558019426E+03  0.00000000000E+00 0.  1.
          6    1    1    2  501    0 -0.54193288879E+02 -0.49979048034E+02  0.14845616236E+03  0.23958933604E+03  0.17300000000E+03 0. -1.
         -6    1    1    2    0  503  0.54193288879E+02  0.49979048034E+02  0.87302223600E+02  0.20732943845E+03  0.17300000000E+03 0.  1.
</event>
<event>
 4    1  0.5929306E+000  0.1000000E+03  0.7546771E-02  0.1280296E+00
         21   -1    0    0  501  502  0.00000000000E+00  0.00000000000E+00  0.47015492045E+03  0.47015492045E+03  0.00000000000E+00 0. -1.
         21   -1    0    0  502  503 -0.00000000000E+00 -0.00000000000E+00 -0.15867003822E+03  0.15867003822E+03  0.00000000000E+00 0.  1.
          6    1    1    2  501    0  0.13684336818E+03  0.13791534116E+03  0.25152854811E+03  0.36185958500E+03  0.17300000000E+03 0. -1.
         -6    1    1    2    0  503 -0.13684336818E+03 -0.13791534116E+03  0.59956334109E+02  0.26696537367E+03  0.17300000000E+03 0.  1.
</event>
<event>
 4    1  0.5929306E+000  0.1000000E+03  0.7546771E-02  0.1280296E+00
         21   -1    0    0  501  502  0.00000000000E+00  0.00000000000E+00  0.55495770915E+03  0.55495770915E+03  0.00000000000E+00 0. -1.
         21   -1    0    0  502  503 -0.00000000000E+00 -0.00000000000E+00 -0.15244927805E+03  0.15244927805E+03  0.00000000000E+00 0. -1.
          6    1    1    2  501    0  0.67141885373E+02 -0.19309320452E+03  0.63241357805E+02  0.27517537634E+03  0.17300000000E+03 0. -1.
         -6    1    1    2    0  503 -0.67141885373E+02  0.19309320452E+03  0.33926707329E+03  0.43223161086E+03  0.17300000000E+03 0. -1.
</event>
<event>
 4    1  0.5929306E+000  0.1000000E+03  0.7546771E-02  0.1280296E+00
         21   -1    0    0  503  502  0.00000000000E+00  0.00000000000E+00  0.60207071808E+03  0.60207071808E+03  0.00000000000E+00 0. -1.
         21   -1    0    0  501  503 -0.00000000000E+00 -0.00000000000E+00 -0.59691394737E+02  0.59691394737E+02  0.00000000000E+00 0. -1.
          6    1    1    2  501    0  0.68637024185E+02  0.22033625205E+02  0.22142558295E+03  0.29009448549E+03  0.17300000000E+03 0. -1.
         -6    1    1    2    0  502 -0.68637024185E+02 -0.22033625205E+02  0.32095374039E+03  0.37166762733E+03  0.17300000000E+03 0. -1.
</event>
<event>
 4    1  0.5929306E+000  0.1000000E+03  0.7546771E-02  0.1280296E+00
         21   -1    0    0  501  502  0.00000000000E+00  0.00000000000E+00  0.17978172638E+03  0.17978172638E+03  0.00000000000E+00 0. -1.
         21   -1    0    0  502  503 -0.00000000000E+00 -0.00000000000E+00 -0.19378821288E+03  0.19378821288E+03  0.00000000000E+00 0.  1.
          6    1    1    2  501    0  0.67628825640E+02 -0.11811712529E+02  0.70567265377E+01  0.18625781057E+03  0.17300000000E+03 0. -1.
         -6    1    1    2    0  503 -0.67628825640E+02  0.11811712529E+02 -0.21063213034E+02  0.18731212869E+03  0.17300000000E+03 0.  1.
</event>
<event>
 4    1  0.5929306E+000  0.1000000E+03  0.7546771E-02  0.1280296E+00
         21   -1    0    0  501  502  0.00000000000E+00  0.00000000000E+00  0.12049054160E+03  0.12049054160E+03  0.00000000000E+00 0. -1.
         21   -1    0    0  502  503 -0.00000000000E+00 -0.00000000000E+00 -0.14949990548E+04  0.14949990548E+04  0.00000000000E+00 0.  1.
          6    1    1    2  501    0  0.65649633834E+01 -0.28522004609E+03 -0.18801913200E+03  0.38298011363E+03  0.17300000000E+03 0. -1.
         -6    1    1    2    0  503 -0.65649633834E+01  0.28522004609E+03 -0.11864893812E+04  0.12325094828E+04  0.17300000000E+03 0.  1.
</event>
<event>
 4    1  0.5929306E+000  0.1000000E+03  0.7546771E-02  0.1280296E+00
         21   -1    0    0  501  502  0.00000000000E+00  0.00000000000E+00  0.16535081421E+03  0.16535081421E+03  0.00000000000E+00 0. -1.
         21   -1    0    0  502  503 -0.00000000000E+00 -0.00000000000E+00 -0.39500321803E+03  0.39500321803E+03  0.00000000000E+00 0.  1.
          6    1    1    2  501    0 -0.19322444478E+02  0.41127443853E+02  0.85290502669E+02  0.19816229042E+03  0.17300000000E+03 0. -1.
         -6    1    1    2    0  503  0.19322444478E+02 -0.41127443853E+02 -0.31494290649E+03  0.36219174182E+03  0.17300000000E+03 0.  1.
</event>
<event>
 4    1  0.5929306E+000  0.1000000E+03  0.7546771E-02  0.1280296E+00
         21   -1    0    0  503  502  0.00000000000E+00  0.00000000000E+00  0.57458853313E+03  0.57458853313E+03  0.00000000000E+00 0. -1.
         21   -1    0    0  501  503 -0.00000000000E+00 -0.00000000000E+00 -0.88064370561E+02  0.88064370561E+02  0.00000000000E+00 0.  1.
          6    1    1    2  501    0 -0.69511776199E+02 -0.53026100206E+02  0.75142444693E+02  0.20789189818E+03  0.17300000000E+03 0.  1.
         -6    1    1    2    0  502  0.69511776199E+02  0.53026100206E+02  0.41138171787E+03  0.45476100551E+03  0.17300000000E+03 0. -1.
</event>
<event>
 4    1  0.5929306E+000  0.1000000E+03  0.7546771E-02  0.1280296E+00
         21   -1    0    0  503  502  0.00000000000E+00  0.00000000000E+00  0.96268455797E+03  0.96268455797E+03  0.00000000000E+00 0. -1.
         21   -1    0    0  501  503 -0.00000000000E+00 -0.00000000000E+00 -0.85288147120E+02  0.85288147120E+02  0.00000000000E+00 0.  1.
          6    1    1    2  501    0  0.11440656126E+01 -0.22768902422E+03  0.40532916369E+03  0.49604871895E+03  0.17300000000E+03 0.  1.
         -6    1    1    2    0  502 -0.11440656126E+01  0.22768902422E+03  0.47206724716E+03  0.55192398614E+03  0.17300000000E+03 0. -1.
</event>
<event>
 4    1  0.5929306E+000  0.1000000E+03  0.7546771E-02  0.1280296E+00
         21   -1    0    0  503  502  0.00000000000E+00  0.00000000000E+00  0.12214614860E+03  0.12214614860E+03  0.00000000000E+00 0. -1.
         21   -1    0    0  501  503 -0.00000000000E+00 -0.00000000000E+00 -0.66494058756E+03  0.66494058756E+03  0.00000000000E+00 0. -1.
          6    1    1    2  501    0 -0.72441835116E+02  0.14121539622E+03 -0.49449361748E+03  0.54739615027E+03  0.17300000000E+03 0. -1.
         -6    1    1    2    0  502  0.72441835116E+02 -0.14121539622E+03 -0.48300821484E+02  0.23969058588E+03  0.17300000000E+03 0. -1.
</event>
<event>
 4    1  0.5929306E+000  0.1000000E+03  0.7546771E-02  0.1280296E+00
         21   -1    0    0  501  502  0.00000000000E+00  0.00000000000E+00  0.97256205826E+03  0.97256205826E+03  0.00000000000E+00 0. -1.
         21   -1    0    0  502  503 -0.00000000000E+00 -0.00000000000E+00 -0.47451999376E+02  0.47451999376E+02  0.00000000000E+00 0. -1.
          6    1    1    2  501    0 -0.11486174984E+03  0.55965433203E+01  0.59251072077E+03  0.62787140172E+03  0.17300000000E+03 0. -1.
         -6    1    1    2    0  503  0.11486174984E+03 -0.55965433203E+01  0.33259933812E+03  0.39214265592E+03  0.17300000000E+03 0. -1.
</event>
<event>
 4    1  0.5929306E+000  0.1000000E+03  0.7546771E-02  0.1280296E+00
         21   -1    0    0  501  502  0.00000000000E+00  0.00000000000E+00  0.13382303457E+03  0.13382303457E+03  0.00000000000E+00 0.  1.
         21   -1    0    0  502  503 -0.00000000000E+00 -0.00000000000E+00 -0.75548516337E+03  0.75548516337E+03  0.00000000000E+00 0.  1.
          6    1    1    2  501    0 -0.13901822968E+03  0.13699188249E+03 -0.56486075886E+02  0.26685674213E+03  0.17300000000E+03 0.  1.
         -6    1    1    2    0  503  0.13901822968E+03 -0.13699188249E+03 -0.56517605291E+03  0.62245145581E+03  0.17300000000E+03 0.  1.
</event>
<event>
 4    1  0.5929306E+000  0.1000000E+03  0.7546771E-02  0.1280296E+00
         21   -1    0    0  501  502  0.00000000000E+00  0.00000000000E+00  0.93837792249E+03  0.93837792249E+03  0.00000000000E+00 0.  1.
         21   -1    0    0  502  503 -0.00000000000E+00 -0.00000000000E+00 -0.84578243063E+02  0.84578243063E+02  0.00000000000E+00 0.  1.
          6    1    1    2  501    0  0.68094322715E+02 -0.14555160475E+03  0.70590040175E+03  0.74434298789E+03  0.17300000000E+03 0.  1.
         -6    1    1    2    0  503 -0.68094322715E+02  0.14555160475E+03  0.14789927768E+03  0.27861317767E+03  0.17300000000E+03 0.  1.
</event>
<event>
 4    1  0.5929306E+000  0.1000000E+03  0.7546771E-02  0.1280296E+00
         21   -1    0    0  501  502  0.00000000000E+00  0.00000000000E+00  0.78672983563E+02  0.78672983563E+02  0.00000000000E+00 0.  1.
         21   -1    0    0  502  503 -0.00000000000E+00 -0.00000000000E+00 -0.10921757687E+04  0.10921757687E+04  0.00000000000E+00 0.  1.
          6    1    1    2  501    0 -0.38910020732E+02 -0.18155181622E+03 -0.21377025316E+03  0.33181587186E+03  0.17300000000E+03 0.  1.
         -6    1    1    2    0  503  0.38910020732E+02  0.18155181622E+03 -0.79973253197E+03  0.83903288039E+03  0.17300000000E+03 0.  1.
</event>
<event>
 4    1  0.5929306E+000  0.1000000E+03  0.7546771E-02  0.1280296E+00
         21   -1    0    0  501  502  0.00000000000E+00  0.00000000000E+00  0.79816308719E+03  0.79816308719E+03  0.00000000000E+00 0.  1.
         21   -1    0    0  502  503 -0.00000000000E+00 -0.00000000000E+00 -0.42317554740E+03  0.42317554740E+03  0.00000000000E+00 0.  1.
          6    1    1    2  501    0  0.18643706717E+02  0.43962425793E+02  0.76831683682E+03  0.78899939444E+03  0.17300000000E+03 0.  1.
         -6    1    1    2    0  503 -0.18643706717E+02 -0.43962425793E+02 -0.39332929703E+03  0.43233924016E+03  0.17300000000E+03 0.  1.
</event>
<event>
 4    1  0.5929306E+000  0.1000000E+03  0.7546771E-02  0.1280296E+00
         21   -1    0    0  501  502  0.00000000000E+00  0.00000000000E+00  0.15888822743E+03  0.15888822743E+03  0.00000000000E+00 0.  1.
         21   -1    0    0  502  503 -0.00000000000E+00 -0.00000000000E+00 -0.30149395048E+03  0.30149395048E+03  0.00000000000E+00 0.  1.
          6    1    1    2  501    0 -0.86265510612E+02  0.53812037702E+02  0.20609756792E+02  0.20172068758E+03  0.17300000000E+03 0.  1.
         -6    1    1    2    0  503  0.86265510612E+02 -0.53812037702E+02 -0.16321547983E+03  0.25866149033E+03  0.17300000000E+03 0.  1.
</event>
<event>
 4    1  0.5929306E+000  0.1000000E+03  0.7546771E-02  0.1280296E+00
         21   -1    0    0  501  502  0.00000000000E+00  0.00000000000E+00  0.13236941744E+03  0.13236941744E+03  0.00000000000E+00 0.  1.
         21   -1    0    0  502  503 -0.00000000000E+00 -0.00000000000E+00 -0.25254013563E+03  0.25254013563E+03  0.00000000000E+00 0.  1.
          6    1    1    2  501    0  0.21778867780E+01  0.30852832077E+02 -0.70044211652E+01  0.17588263801E+03  0.17300000000E+03 0.  1.
         -6    1    1    2    0  503 -0.21778867780E+01 -0.30852832077E+02 -0.11316629702E+03  0.20902691506E+03  0.17300000000E+03 0.  1.
</event>
<event>
 4    1  0.5929306E+000  0.1000000E+03  0.7546771E-02  0.1280296E+00
         21   -1    0    0  501  502  0.00000000000E+00  0.00000000000E+00  0.37211100120E+03  0.37211100120E+03  0.00000000000E+00 0.  1.
         21   -1    0    0  502  503 -0.00000000000E+00 -0.00000000000E+00 -0.33285034820E+03  0.33285034820E+03  0.00000000000E+00 0.  1.
          6    1    1    2  501    0 -0.95726964617E+02  0.47057400249E+02  0.30739248387E+03  0.36850670254E+03  0.17300000000E+03 0.  1.
         -6    1    1    2    0  503  0.95726964617E+02 -0.47057400249E+02 -0.26813183087E+03  0.33645464687E+03  0.17300000000E+03 0.  1.
</event>
<event>
 4    1  0.5929306E+000  0.1000000E+03  0.7546771E-02  0.1280296E+00
         21   -1    0    0  501  502  0.00000000000E+00  0.00000000000E+00  0.38886022909E+03  0.38886022909E+03  0.00000000000E+00 0.  1.
         21   -1    0    0  502  503 -0.00000000000E+00 -0.00000000000E+00 -0.14901417273E+03  0.14901417273E+03  0.00000000000E+00 0.  1.
          6    1    1    2  501    0 -0.72383264437E+02  0.15081080624E+03  0.11346154059E+03  0.26605592916E+03  0.17300000000E+03 0.  1.
         -6    1    1    2    0  503  0.72383264437E+02 -0.15081080624E+03  0.12638451578E+03  0.27181847266E+03  0.17300000000E+03 0.  1.
</event>
<event>
 4    1  0.5929306E+000  0.1000000E+03  0.7546771E-02  0.1280296E+00
         21   -1    0    0  501  502  0.00000000000E+00  0.00000000000E+00  0.84553522685E+03  0.84553522685E+03  0.00000000000E+00 0. -1.
         21   -1    0    0  502  503 -0.00000000000E+00 -0.00000000000E+00 -0.10656602924E+03  0.10656602924E+03  0.00000000000E+00 0. -1.
          6    1    1    2  501    0 -0.36706073501E+02  0.27609227482E+01  0.75411665535E+03  0.77458110512E+03  0.17300000000E+03 0. -1.
         -6    1    1    2    0  503  0.36706073501E+02 -0.27609227482E+01 -0.15147457747E+02  0.17752015098E+03  0.17300000000E+03 0. -1.
</event>
<event>
 4    1  0.5929306E+000  0.1000000E+03  0.7546771E-02  0.1280296E+00
         21   -1    0    0  501  502  0.00000000000E+00  0.00000000000E+00  0.67429701249E+03  0.67429701249E+03  0.00000000000E+00 0. -1.
         21   -1    0    0  502  503 -0.00000000000E+00 -0.00000000000E+00 -0.12215612337E+03  0.12215612337E+03  0.00000000000E+00 0. -1.
          6    1    1    2  501    0 -0.96349946784E+00 -0.15130614645E+03  0.37565951455E+02  0.23288340214E+03  0.17300000000E+03 0. -1.
         -6    1    1    2    0  503  0.96349946784E+00  0.15130614645E+03  0.51457493766E+03  0.56356973371E+03  0.17300000000E+03 0. -1.
</event>
<event>
 4    1  0.5929306E+000  0.1000000E+03  0.7546771E-02  0.1280296E+00
         21   -1    0    0  501  502  0.00000000000E+00  0.00000000000E+00  0.29528138274E+03  0.29528138274E+03  0.00000000000E+00 0. -1.
         21   -1    0    0  502  503 -0.00000000000E+00 -0.00000000000E+00 -0.84622093366E+03  0.84622093366E+03  0.00000000000E+00 0. -1.
          6    1    1    2  501    0  0.72938178098E+02 -0.38652013764E+03  0.16137865630E+02  0.43000840147E+03  0.17300000000E+03 0. -1.
         -6    1    1    2    0  503 -0.72938178098E+02  0.38652013764E+03 -0.56707741655E+03  0.71149391493E+03  0.17300000000E+03 0. -1.
</event>
<event>
 4    1  0.5929306E+000  0.1000000E+03  0.7546771E-02  0.1280296E+00
         21   -1    0    0  501  502  0.00000000000E+00  0.00000000000E+00  0.42491200608E+03  0.42491200608E+03  0.00000000000E+00 0. -1.
         21   -1    0    0  502  503 -0.00000000000E+00 -0.00000000000E+00 -0.22241434346E+03  0.22241434346E+03  0.00000000000E+00 0. -1.
          6    1    1    2  501    0 -0.16073486133E+03 -0.81008705795E+02  0.29011383471E+03  0.38274422681E+03  0.17300000000E+03 0. -1.
         -6    1    1    2    0  503  0.16073486133E+03  0.81008705795E+02 -0.87616172088E+02  0.26458212274E+03  0.17300000000E+03 0. -1.
</event>
<event>
 4    1  0.5929306E+000  0.1000000E+03  0.7546771E-02  0.1280296E+00
         21   -1    0    0  503  502  0.00000000000E+00  0.00000000000E+00  0.30032634120E+03  0.30032634120E+03  0.00000000000E+00 0. -1.
         21   -1    0    0  501  503 -0.00000000000E+00 -0.00000000000E+00 -0.16623325343E+03  0.16623325343E+03  0.00000000000E+00 0.  1.
          6    1    1    2  501    0  0.82795454511E+02  0.78981168311E+02 -0.19692071039E+02  0.20835040172E+03  0.17300000000E+03 0. -1.
         -6    1    1    2    0  502 -0.82795454511E+02 -0.78981168311E+02  0.15378515880E+03  0.25820919291E+03  0.17300000000E+03 0.  1.
</event>
<event>
 4    1  0.5929306E+000  0.1000000E+03  0.7546771E-02  0.1280296E+00
         21   -1    0    0  503  502  0.00000000000E+00  0.00000000000E+00  0.12683450754E+03  0.12683450754E+03  0.00000000000E+00 0. -1.
         21   -1    0    0  501  503 -0.00000000000E+00 -0.00000000000E+00 -0.65364953250E+03  0.65364953250E+03  0.00000000000E+00 0.  1.
          6    1    1    2  501    0  0.15651204106E+02  0.79068082737E+02 -0.55560333734E+03  0.58746982081E+03  0.17300000000E+03 0. -1.
         -6    1    1    2    0  502 -0.15651204106E+02 -0.79068082737E+02  0.28788312378E+02  0.19301421924E+03  0.17300000000E+03 0.  1.
</event>
<event>
 4    1  0.5929306E+000  0.1000000E+03  0.7546771E-02  0.1280296E+00
         21   -1    0    0  503  502  0.00000000000E+00  0.00000000000E+00  0.17814037827E+03  0.17814037827E+03  0.00000000000E+00 0. -1.
         21   -1    0    0  501  503 -0.00000000000E+00 -0.00000000000E+00 -0.16911501802E+03  0.16911501802E+03  0.00000000000E+00 0. -1.
          6    1    1    2  501    0  0.90020075429E+01  0.27644947164E+01 -0.59088396900E+01  0.17335683707E+03  0.17300000000E+03 0. -1.
         -6    1    1    2    0  502 -0.90020075429E+01 -0.27644947164E+01  0.14934199941E+02  0.17389855922E+03  0.17300000000E+03 0. -1.
</event>
<event>
 4    1  0.5929306E+000  0.1000000E+03  0.7546771E-02  0.1280296E+00
         21   -1    0    0  503  502  0.00000000000E+00  0.00000000000E+00  0.10360570899E+03  0.10360570899E+03  0.00000000000E+00 0. -1.
         21   -1    0    0  501  503 -0.00000000000E+00 -0.00000000000E+00 -0.91960584517E+03  0.91960584517E+03  0.00000000000E+00 0. -1.
          6    1    1    2  501    0  0.15875499989E+03 -0.98161444840E+02 -0.69750358787E+03  0.74248169967E+03  0.17300000000E+03 0. -1.
         -6    1    1    2    0  502 -0.15875499989E+03  0.98161444840E+02 -0.11849654830E+03  0.28072985449E+03  0.17300000000E+03 0. -1.
</event>
<event>
 4    1  0.5929306E+000  0.1000000E+03  0.7546771E-02  0.1280296E+00
         21   -1    0    0  503  502  0.00000000000E+00  0.00000000000E+00  0.16825084948E+03  0.16825084948E+03  0.00000000000E+00 0. -1.
         21   -1    0    0  501  503 -0.00000000000E+00 -0.00000000000E+00 -0.26917835514E+03  0.26917835514E+03  0.00000000000E+00 0. -1.
          6    1    1    2  501    0 -0.61164897289E+02  0.13632804771E+02 -0.16035635723E+03  0.24406998859E+03  0.17300000000E+03 0. -1.
         -6    1    1    2    0  502  0.61164897289E+02 -0.13632804771E+02  0.59428851569E+02  0.19335921603E+03  0.17300000000E+03 0. -1.
</event>
<event>
 4    1  0.5929306E+000  0.1000000E+03  0.7546771E-02  0.1280296E+00
         21   -1    0    0  503  502  0.00000000000E+00  0.00000000000E+00  0.44111246636E+03  0.44111246636E+03  0.00000000000E+00 0.  1.
         21   -1    0    0  501  503 -0.00000000000E+00 -0.00000000000E+00 -0.21482193807E+03  0.21482193807E+03  0.00000000000E+00 0. -1.
          6    1    1    2  501    0 -0.11656402313E+03 -0.14467419325E+03 -0.72351748554E+02  0.26397266753E+03  0.17300000000E+03 0. -1.
         -6    1    1    2    0  502  0.11656402313E+03  0.14467419325E+03  0.29864227684E+03  0.39196173690E+03  0.17300000000E+03 0.  1.
</event>
<event>
 4    1  0.5929306E+000  0.1000000E+03  0.7546771E-02  0.1280296E+00
         21   -1    0    0  503  502  0.00000000000E+00  0.00000000000E+00  0.55108226254E+03  0.55108226254E+03  0.00000000000E+00 0.  1.
         21   -1    0    0  501  503 -0.00000000000E+00 -0.00000000000E+00 -0.82349574117E+02  0.82349574117E+02  0.00000000000E+00 0. -1.
          6    1    1    2  501    0  0.96179346603E+01 -0.34686419676E+02  0.57472556042E+02  0.18581643381E+03  0.17300000000E+03 0. -1.
         -6    1    1    2    0  502 -0.96179346603E+01  0.34686419676E+02  0.41126013238E+03  0.44761540284E+03  0.17300000000E+03 0.  1.
</event>
<event>
 4    1  0.5929306E+000  0.1000000E+03  0.7546771E-02  0.1280296E+00
         21   -1    0    0  501  502  0.00000000000E+00  0.00000000000E+00  0.14174400673E+04  0.14174400673E+04  0.00000000000E+00 0.  1.
         21   -1    0    0  502  503 -0.00000000000E+00 -0.00000000000E+00 -0.65190763534E+02  0.65190763534E+02  0.00000000000E+00 0.  1.
          6    1    1    2  501    0  0.40168939645E+02 -0.18338030326E+03  0.10785694814E+04  0.11083695257E+04  0.17300000000E+03 0.  1.
         -6    1    1    2    0  503 -0.40168939645E+02  0.18338030326E+03  0.27367982236E+03  0.37426130511E+03  0.17300000000E+03 0.  1.
</event>
<event>
 4    1  0.5929306E+000  0.1000000E+03  0.7546771E-02  0.1280296E+00
         21   -1    0    0  501  502  0.00000000000E+00  0.00000000000E+00  0.12098527250E+03  0.12098527250E+03  0.00000000000E+00 0.  1.
         21   -1    0    0  502  503 -0.00000000000E+00 -0.00000000000E+00 -0.32450466932E+03  0.32450466932E+03  0.00000000000E+00 0.  1.
          6    1    1    2  501    0 -0.46311165273E+02  0.70669000700E+02 -0.15439734202E+03  0.24679216137E+03  0.17300000000E+03 0.  1.
         -6    1    1    2    0  503  0.46311165273E+02 -0.70669000700E+02 -0.49122054794E+02  0.19869778045E+03  0.17300000000E+03 0.  1.
</event>
<event>
 4    1  0.5929306E+000  0.1000000E+03  0.7546771E-02  0.1280296E+00
         21   -1    0    0  501  502  0.00000000000E+00  0.00000000000E+00  0.17838411845E+03  0.17838411845E+03  0.00000000000E+00 0. -1.
         21   -1    0    0  502  503 -0.00000000000E+00 -0.00000000000E+00 -0.59739582723E+03  0.59739582723E+03  0.00000000000E+00 0. -1.
          6    1    1    2  501    0  0.97737141348E+02  0.93384668666E+02  0.77552844359E+02  0.23284477406E+03  0.17300000000E+03 0. -1.
         -6    1    1    2    0  503 -0.97737141348E+02 -0.93384668666E+02 -0.49656455314E+03  0.54293517161E+03  0.17300000000E+03 0. -1.
</event>
<event>
 4    1  0.5929306E+000  0.1000000E+03  0.7546771E-02  0.1280296E+00
         21   -1    0    0  501  502  0.00000000000E+00  0.00000000000E+00  0.47720570410E+03  0.47720570410E+03  0.00000000000E+00 0. -1.
         21   -1    0    0  502  503 -0.00000000000E+00 -0.00000000000E+00 -0.23700261311E+03  0.23700261311E+03  0.00000000000E+00 0. -1.
          6    1    1    2  501    0 -0.51029903180E+02 -0.25101976048E+03  0.26079253591E+03  0.40442146080E+03  0.17300000000E+03 0. -1.
         -6    1    1    2    0  503  0.51029903180E+02  0.25101976048E+03 -0.20589444917E+02  0.30978685642E+03  0.17300000000E+03 0. -1.
</event>
<event>
 4    1  0.5929306E+000  0.1000000E+03  0.7546771E-02  0.1280296E+00
         21   -1    0    0  501  502  0.00000000000E+00  0.00000000000E+00  0.14493607405E+03  0.14493607405E+03  0.00000000000E+00 0. -1.
         21   -1    0    0  502  503 -0.00000000000E+00 -0.00000000000E+00 -0.44239863105E+03  0.44239863105E+03  0.00000000000E+00 0. -1.
          6    1    1    2  501    0  0.15222982228E+03 -0.10359981841E+03 -0.16826453143E+03  0.30356019783E+03  0.17300000000E+03 0. -1.
         -6    1    1    2    0  503 -0.15222982228E+03  0.10359981841E+03 -0.12919802557E+03  0.28377450727E+03  0.17300000000E+03 0. -1.
</event>
<event>
 4    1  0.5929306E+000  0.1000000E+03  0.7546771E-02  0.1280296E+00
         21   -1    0    0  501  502  0.00000000000E+00  0.00000000000E+00  0.47017810096E+03  0.47017810096E+03  0.00000000000E+00 0.  1.
         21   -1    0    0  502  503 -0.00000000000E+00 -0.00000000000E+00 -0.24885591459E+03  0.24885591459E+03  0.00000000000E+00 0.  1.
          6    1    1    2  501    0  0.75365665006E+02 -0.14670270774E+03  0.36784299678E+03  0.43867885543E+03  0.17300000000E+03 0.  1.
         -6    1    1    2    0  503 -0.75365665006E+02  0.14670270774E+03 -0.14652081041E+03  0.28035516012E+03  0.17300000000E+03 0.  1.
</event>
<event>
 4    1  0.5929306E+000  0.1000000E+03  0.7546771E-02  0.1280296E+00
         21   -1    0    0  501  502  0.00000000000E+00  0.00000000000E+00  0.14861990624E+03  0.14861990624E+03  0.00000000000E+00 0.  1.
         21   -1    0    0  502  503 -0.00000000000E+00 -0.00000000000E+00 -0.38715194907E+03  0.38715194907E+03  0.00000000000E+00 0.  1.
          6    1    1    2  501    0 -0.69480193170E+01  0.40816212846E+02  0.60447486906E+02  0.18787532269E+03  0.17300000000E+03 0.  1.
         -6    1    1    2    0  503  0.69480193170E+01 -0.40816212846E+02 -0.29897952974E+03  0.34789653262E+03  0.17300000000E+03 0.  1.
</event>
<event>
 4    1  0.5929306E+000  0.1000000E+03  0.7546771E-02  0.1280296E+00
         21   -1    0    0  501  502  0.00000000000E+00  0.00000000000E+00  0.10121802735E+03  0.10121802735E+03  0.00000000000E+00 0.  1.
         21   -1    0    0  502  503 -0.00000000000E+00 -0.00000000000E+00 -0.61241804584E+03  0.61241804584E+03  0.00000000000E+00 0. -1.
          6    1    1    2  501    0 -0.14681568535E+03 -0.55647174470E+02 -0.13225441618E+03  0.26846169949E+03  0.17300000000E+03 0.  1.
         -6    1    1    2    0  503  0.14681568535E+03  0.55647174470E+02 -0.37894560232E+03  0.44517437371E+03  0.17300000000E+03 0. -1.
</event>
<event>
 4    1  0.5929306E+000  0.1000000E+03  0.7546771E-02  0.1280296E+00
         21   -1    0    0  501  502  0.00000000000E+00  0.00000000000E+00  0.14977454076E+04  0.14977454076E+04  0.00000000000E+00 0.  1.
         21   -1    0    0  502  503 -0.00000000000E+00 -0.00000000000E+00 -0.56037279723E+02  0.56037279723E+02  0.00000000000E+00 0. -1.
          6    1    1    2  501    0 -0.86884020065E+01 -0.12646884383E+03  0.12431279531E+04  0.12614935452E+04  0.17300000000E+03 0.  1.
         -6    1    1    2    0  503  0.86884020065E+01  0.12646884383E+03  0.19858017475E+03  0.29228914211E+03  0.17300000000E+03 0. -1.
</event>
<event>
 4    1  0.5929306E+000  0.1000000E+03  0.7546771E-02  0.1280296E+00
         21   -1    0    0  503  502  0.00000000000E+00  0.00000000000E+00  0.66412514237E+02  0.66412514237E+02  0.00000000000E+00 0.  1.
         21   -1    0    0  501  503 -0.00000000000E+00 -0.00000000000E+00 -0.14633479491E+04  0.14633479491E+04  0.00000000000E+00 0.  1.
          6    1    1    2  501    0  0.18054074595E+03 -0.11458743492E+03 -0.33845281831E+03  0.43612446780E+03  0.17300000000E+03 0.  1.
         -6    1    1    2    0  502 -0.18054074595E+03  0.11458743492E+03 -0.10584826165E+04  0.10936359955E+04  0.17300000000E+03 0.  1.
</event>
<event>
 4    1  0.5929306E+000  0.1000000E+03  0.7546771E-02  0.1280296E+00
         21   -1    0    0  503  502  0.00000000000E+00  0.00000000000E+00  0.38707711889E+03  0.38707711889E+03  0.00000000000E+00 0.  1.
         21   -1    0    0  501  503 -0.00000000000E+00 -0.00000000000E+00 -0.19579632421E+03  0.19579632421E+03  0.00000000000E+00 0.  1.
          6    1    1    2  501    0 -0.33920306533E+01  0.31047924585E+02 -0.12863831459E+03  0.21783547800E+03  0.17300000000E+03 0.  1.
         -6    1    1    2    0  502  0.33920306533E+01 -0.31047924585E+02  0.31991910927E+03  0.36503796510E+03  0.17300000000E+03 0.  1.
</event>
<event>
 4    1  0.5929306E+000  0.1000000E+03  0.7546771E-02  0.1280296E+00
         21   -1    0    0  503  502  0.00000000000E+00  0.00000000000E+00  0.12027806009E+03  0.12027806009E+03  0.00000000000E+00 0.  1.
         21   -1    0    0  501  503 -0.00000000000E+00 -0.00000000000E+00 -0.51993135447E+03  0.51993135447E+03  0.00000000000E+00 0.  1.
          6    1    1    2  501    0  0.72356308306E+02  0.63679721603E+02 -0.39528770826E+03  0.44212205848E+03  0.17300000000E+03 0.  1.
         -6    1    1    2    0  502 -0.72356308306E+02 -0.63679721603E+02 -0.43655861191E+01  0.19808735608E+03  0.17300000000E+03 0.  1.
</event>
<event>
 4    1  0.5929306E+000  0.1000000E+03  0.7546771E-02  0.1280296E+00
         21   -1    0    0  503  502  0.00000000000E+00  0.00000000000E+00  0.19531602709E+04  0.19531602709E+04  0.00000000000E+00 0.  1.
         21   -1    0    0  501  503 -0.00000000000E+00 -0.00000000000E+00 -0.25995431905E+02  0.25995431905E+02  0.00000000000E+00 0.  1.
          6    1    1    2  501    0  0.84000601803E+01 -0.21461952654E+02  0.15895044999E+04  0.15990574510E+04  0.17300000000E+03 0.  1.
         -6    1    1    2    0  502 -0.84000601803E+01  0.21461952654E+02  0.33766033911E+03  0.38009825181E+03  0.17300000000E+03 0.  1.
</event>
<event>
 4    1  0.5929306E+000  0.1000000E+03  0.7546771E-02  0.1280296E+00
         21   -1    0    0  503  502  0.00000000000E+00  0.00000000000E+00  0.11058077502E+03  0.11058077502E+03  0.00000000000E+00 0. -1.
         21   -1    0    0  501  503 -0.00000000000E+00 -0.00000000000E+00 -0.87206380665E+03  0.87206380665E+03  0.00000000000E+00 0.  1.
          6    1    1    2  501    0  0.24828001360E+02  0.10444668511E+03 -0.97612991422E+01  0.20383773606E+03  0.17300000000E+03 0. -1.
         -6    1    1    2    0  502 -0.24828001360E+02 -0.10444668511E+03 -0.75172173249E+03  0.77880684561E+03  0.17300000000E+03 0.  1.
</event>
<event>
 4    1  0.5929306E+000  0.1000000E+03  0.7546771E-02  0.1280296E+00
         21   -1    0    0  501  502  0.00000000000E+00  0.00000000000E+00  0.28204722615E+03  0.28204722615E+03  0.00000000000E+00 0.  1.
         21   -1    0    0  502  503 -0.00000000000E+00 -0.00000000000E+00 -0.27294355636E+03  0.27294355636E+03  0.00000000000E+00 0.  1.
          6    1    1    2  501    0  0.14798099664E+03 -0.13600197078E+03  0.86165888604E+02  0.27883412951E+03  0.17300000000E+03 0.  1.
         -6    1    1    2    0  503 -0.14798099664E+03  0.13600197078E+03 -0.77062218814E+02  0.27615665299E+03  0.17300000000E+03 0.  1.
</event>
<event>
 4    1  0.5929306E+000  0.1000000E+03  0.7546771E-02  0.1280296E+00
         21   -1    0    0  501  502  0.00000000000E+00  0.00000000000E+00  0.11981529374E+04  0.11981529374E+04  0.00000000000E+00 0.  1.
         21   -1    0    0  502  503 -0.00000000000E+00 -0.00000000000E+00 -0.50155213739E+02  0.50155213739E+02  0.00000000000E+00 0.  1.
          6    1    1    2  501    0  0.60004930617E+00  0.14783328805E+03  0.80609454337E+03  0.83759922037E+03  0.17300000000E+03 0.  1.
         -6    1    1    2    0  503 -0.60004930617E+00 -0.14783328805E+03  0.34190318026E+03  0.41070893074E+03  0.17300000000E+03 0.  1.
</event>
<event>
 4    1  0.5929306E+000  0.1000000E+03  0.7546771E-02  0.1280296E+00
         21   -1    0    0  501  502  0.00000000000E+00  0.00000000000E+00  0.78527448247E+03  0.78527448247E+03  0.00000000000E+00 0.  1.
         21   -1    0    0  502  503 -0.00000000000E+00 -0.00000000000E+00 -0.41149036760E+03  0.41149036760E+03  0.00000000000E+00 0.  1.
          6    1    1    2  501    0  0.42125865404E+03  0.17972609880E+03  0.49096982319E+03  0.69335466500E+03  0.17300000000E+03 0.  1.
         -6    1    1    2    0  503 -0.42125865404E+03 -0.17972609880E+03 -0.11718570832E+03  0.50341018507E+03  0.17300000000E+03 0.  1.
</event>
<event>
 4    1  0.5929306E+000  0.1000000E+03  0.7546771E-02  0.1280296E+00
         21   -1    0    0  501  502  0.00000000000E+00  0.00000000000E+00  0.15557031535E+04  0.15557031535E+04  0.00000000000E+00 0.  1.
         21   -1    0    0  502  503 -0.00000000000E+00 -0.00000000000E+00 -0.26387395708E+02  0.26387395708E+02  0.00000000000E+00 0. -1.
          6    1    1    2  501    0 -0.58144660214E+02  0.52551918206E+00  0.11081642480E+04  0.11230930853E+04  0.17300000000E+03 0. -1.
         -6    1    1    2    0  503  0.58144660214E+02 -0.52551918206E+00  0.42115150979E+03  0.45899746392E+03  0.17300000000E+03 0. -1.
</event>
<event>
 4    1  0.5929306E+000  0.1000000E+03  0.7546771E-02  0.1280296E+00
         21   -1    0    0  501  502  0.00000000000E+00  0.00000000000E+00  0.20799881123E+03  0.20799881123E+03  0.00000000000E+00 0.  1.
         21   -1    0    0  502  503 -0.00000000000E+00 -0.00000000000E+00 -0.18045543792E+03  0.18045543792E+03  0.00000000000E+00 0. -1.
          6    1    1    2  501    0  0.31083359107E+02 -0.62729165453E+02  0.65906687081E+02  0.19792376010E+03  0.17300000000E+03 0. -1.
         -6    1    1    2    0  503 -0.31083359107E+02  0.62729165453E+02 -0.38363313767E+02  0.19053048904E+03  0.17300000000E+03 0. -1.
</event>
<event>
 4    1  0.5929306E+000  0.1000000E+03  0.7546771E-02  0.1280296E+00
         21   -1    0    0  501  502  0.00000000000E+00  0.00000000000E+00  0.31795873721E+03  0.31795873721E+03  0.00000000000E+00 0.  1.
         21   -1    0    0  502  503 -0.00000000000E+00 -0.00000000000E+00 -0.32666847223E+03  0.32666847223E+03  0.00000000000E+00 0. -1.
          6    1    1    2  501    0  0.67053404609E+02  0.59497485428E+02  0.25238238724E+03  0.31884475726E+03  0.17300000000E+03 0. -1.
         -6    1    1    2    0  503 -0.67053404609E+02 -0.59497485428E+02 -0.26109212226E+03  0.32578245218E+03  0.17300000000E+03 0. -1.
</event>
<event>
 4    1  0.5929306E+000  0.1000000E+03  0.7546771E-02  0.1280296E+00
         21   -1    0    0  503  502  0.00000000000E+00  0.00000000000E+00  0.57534880264E+03  0.57534880264E+03  0.00000000000E+00 0. -1.
         21   -1    0    0  501  503 -0.00000000000E+00 -0.00000000000E+00 -0.12786740465E+03  0.12786740465E+03  0.00000000000E+00 0.  1.
          6    1    1    2  501    0 -0.82701077711E+02 -0.10772351335E+03  0.17973980071E+02  0.22067144705E+03  0.17300000000E+03 0.  1.
         -6    1    1    2    0  502  0.82701077711E+02  0.10772351335E+03  0.42950741792E+03  0.48254476024E+03  0.17300000000E+03 0. -1.
</event>
<event>
 4    1  0.5929306E+000  0.1000000E+03  0.7546771E-02  0.1280296E+00
         21   -1    0    0  503  502  0.00000000000E+00  0.00000000000E+00  0.20054177714E+03  0.20054177714E+03  0.00000000000E+00 0. -1.
         21   -1    0    0  501  503 -0.00000000000E+00 -0.00000000000E+00 -0.48286521344E+03  0.48286521344E+03  0.00000000000E+00 0.  1.
          6    1    1    2  501    0 -0.61788281823E+02  0.22980128297E+03 -0.25249224185E+03  0.38769543926E+03  0.17300000000E+03 0.  1.
         -6    1    1    2    0  502  0.61788281823E+02 -0.22980128297E+03 -0.29831194440E+02  0.29571155132E+03  0.17300000000E+03 0. -1.
</event>
<event>
 4    1  0.5929306E+000  0.1000000E+03  0.7546771E-02  0.1280296E+00
         21   -1    0    0  503  502  0.00000000000E+00  0.00000000000E+00  0.36802504936E+03  0.36802504936E+03  0.00000000000E+00 0.  1.
         21   -1    0    0  501  503 -0.00000000000E+00 -0.00000000000E+00 -0.19820211128E+03  0.19820211128E+03  0.00000000000E+00 0. -1.
          6    1    1    2  501    0 -0.30153081457E+02 -0.45924689847E+02 -0.12472964539E+03  0.22023798468E+03  0.17300000000E+03 0. -1.
         -6    1    1    2    0  502  0.30153081457E+02  0.45924689847E+02  0.29455258347E+03  0.34598917597E+03  0.17300000000E+03 0.  1.
</event>
<event>
 4    1  0.5929306E+000  0.1000000E+03  0.7546771E-02  0.1280296E+00
         21   -1    0    0  503  502  0.00000000000E+00  0.00000000000E+00  0.21113871458E+04  0.21113871458E+04  0.00000000000E+00 0.  1.
         21   -1    0    0  501  503 -0.00000000000E+00 -0.00000000000E+00 -0.94144260074E+02  0.94144260074E+02  0.00000000000E+00 0. -1.
          6    1    1    2  501    0 -0.25384870487E+02 -0.16320123303E+03  0.77977997002E+02  0.25157226025E+03  0.17300000000E+03 0. -1.
         -6    1    1    2    0  502  0.25384870487E+02  0.16320123303E+03  0.19392648887E+04  0.19539591456E+04  0.17300000000E+03 0.  1.
</event>
<event>
 4    1  0.5929306E+000  0.1000000E+03  0.7546771E-02  0.1280296E+00
         21   -1    0    0  501  502  0.00000000000E+00  0.00000000000E+00  0.13135231445E+03  0.13135231445E+03  0.00000000000E+00 0.  1.
         21   -1    0    0  502  503 -0.00000000000E+00 -0.00000000000E+00 -0.35074627773E+03  0.35074627773E+03  0.00000000000E+00 0.  1.
          6    1    1    2  501    0  0.32064247653E+02  0.48881116756E+02  0.16985599188E+02  0.18339844637E+03  0.17300000000E+03 0.  1.
         -6    1    1    2    0  503 -0.32064247653E+02 -0.48881116756E+02 -0.23637956247E+03  0.29870014581E+03  0.17300000000E+03 0.  1.
</event>
<event>
 4    1  0.5929306E+000  0.1000000E+03  0.7546771E-02  0.1280296E+00
         21   -1    0    0  503  502  0.00000000000E+00  0.00000000000E+00  0.24194995319E+02  0.24194995319E+02  0.00000000000E+00 0.  1.
         21   -1    0    0  501  503 -0.00000000000E+00 -0.00000000000E+00 -0.16043190473E+04  0.16043190473E+04  0.00000000000E+00 0. -1.
          6    1    1    2  501    0 -0.93660467414E+01  0.27246196751E+02 -0.41908142169E+03  0.45429980858E+03  0.17300000000E+03 0. -1.
         -6    1    1    2    0  502  0.93660467414E+01 -0.27246196751E+02 -0.11610426303E+04  0.11742142340E+04  0.17300000000E+03 0.  1.
</event>
<event>
 4    1  0.5929306E+000  0.1000000E+03  0.7546771E-02  0.1280296E+00
         21   -1    0    0  503  502  0.00000000000E+00  0.00000000000E+00  0.26814457087E+02  0.26814457087E+02  0.00000000000E+00 0.  1.
         21   -1    0    0  501  503 -0.00000000000E+00 -0.00000000000E+00 -0.23976855952E+04  0.23976855952E+04  0.00000000000E+00 0. -1.
          6    1    1    2  501    0 -0.13828393617E+03 -0.11965391241E+03 -0.13307733500E+04  0.13543729969E+04  0.17300000000E+03 0. -1.
         -6    1    1    2    0  502  0.13828393617E+03  0.11965391241E+03 -0.10400977882E+04  0.10701270554E+04  0.17300000000E+03 0.  1.
</event>
<event>
 4    1  0.5929306E+000  0.1000000E+03  0.7546771E-02  0.1280296E+00
         21   -1    0    0  503  502  0.00000000000E+00  0.00000000000E+00  0.14611547042E+04  0.14611547042E+04  0.00000000000E+00 0.  1.
         21   -1    0    0  501  503 -0.00000000000E+00 -0.00000000000E+00 -0.34407002169E+02  0.34407002169E+02  0.00000000000E+00 0. -1.
          6    1    1    2  501    0  0.11535422116E+03 -0.65445503012E+02  0.53831552673E+03  0.58077733816E+03  0.17300000000E+03 0. -1.
         -6    1    1    2    0  502 -0.11535422116E+03  0.65445503012E+02  0.88843217531E+03  0.91478436822E+03  0.17300000000E+03 0.  1.
</event>
<event>
 4    1  0.5929306E+000  0.1000000E+03  0.7546771E-02  0.1280296E+00
         21   -1    0    0  503  502  0.00000000000E+00  0.00000000000E+00  0.27109808563E+02  0.27109808563E+02  0.00000000000E+00 0.  1.
         21   -1    0    0  501  503 -0.00000000000E+00 -0.00000000000E+00 -0.19059976217E+04  0.19059976217E+04  0.00000000000E+00 0. -1.
          6    1    1    2  501    0  0.93495534829E+02 -0.10750009523E+03 -0.11010535046E+04  0.11236305023E+04  0.17300000000E+03 0. -1.
         -6    1    1    2    0  502 -0.93495534829E+02  0.10750009523E+03 -0.77783430846E+03  0.80947692798E+03  0.17300000000E+03 0.  1.
</event>
<event>
 4    1  0.5929306E+000  0.1000000E+03  0.7546771E-02  0.1280296E+00
         21   -1    0    0  503  502  0.00000000000E+00  0.00000000000E+00  0.60542892872E+02  0.60542892872E+02  0.00000000000E+00 0.  1.
         21   -1    0    0  501  503 -0.00000000000E+00 -0.00000000000E+00 -0.57176966485E+03  0.57176966485E+03  0.00000000000E+00 0.  1.
          6    1    1    2  501    0  0.12300079539E+02 -0.65112081115E+02 -0.28488381305E+03  0.33982151492E+03  0.17300000000E+03 0.  1.
         -6    1    1    2    0  502 -0.12300079539E+02  0.65112081115E+02 -0.22634295893E+03  0.29249104281E+03  0.17300000000E+03 0.  1.
</event>
<event>
 4    1  0.5929306E+000  0.1000000E+03  0.7546771E-02  0.1280296E+00
         21   -1    0    0  501  502  0.00000000000E+00  0.00000000000E+00  0.12806357445E+04  0.12806357445E+04  0.00000000000E+00 0.  1.
         21   -1    0    0  502  503 -0.00000000000E+00 -0.00000000000E+00 -0.81184195828E+02  0.81184195828E+02  0.00000000000E+00 0.  1.
          6    1    1    2  501    0 -0.50451595474E+01 -0.77964228832E+02  0.11501358251E+04  0.11656951963E+04  0.17300000000E+03 0.  1.
         -6    1    1    2    0  503  0.50451595474E+01  0.77964228832E+02  0.49315723582E+02  0.19612474399E+03  0.17300000000E+03 0.  1.
</event>
<event>
 4    1  0.5929306E+000  0.1000000E+03  0.7546771E-02  0.1280296E+00
         21   -1    0    0  501  502  0.00000000000E+00  0.00000000000E+00  0.51476447343E+02  0.51476447343E+02  0.00000000000E+00 0.  1.
         21   -1    0    0  502  503 -0.00000000000E+00 -0.00000000000E+00 -0.91778271046E+03  0.91778271046E+03  0.00000000000E+00 0.  1.
          6    1    1    2  501    0  0.58786141327E+02 -0.35922962773E+01 -0.17078845476E+03  0.25013278730E+03  0.17300000000E+03 0.  1.
         -6    1    1    2    0  503 -0.58786141327E+02  0.35922962773E+01 -0.69551780836E+03  0.71912637050E+03  0.17300000000E+03 0.  1.
</event>
<event>
 4    1  0.5929306E+000  0.1000000E+03  0.7546771E-02  0.1280296E+00
         21   -1    0    0  503  502  0.00000000000E+00  0.00000000000E+00  0.71928937437E+03  0.71928937437E+03  0.00000000000E+00 0. -1.
         21   -1    0    0  501  503 -0.00000000000E+00 -0.00000000000E+00 -0.50721410881E+02  0.50721410881E+02  0.00000000000E+00 0. -1.
          6    1    1    2  501    0 -0.54475544502E+02 -0.59236447217E+02  0.35206651388E+03  0.40044521700E+03  0.17300000000E+03 0. -1.
         -6    1    1    2    0  502  0.54475544502E+02  0.59236447217E+02  0.31650144961E+03  0.36956556825E+03  0.17300000000E+03 0. -1.
</event>
<event>
 4    1  0.5929306E+000  0.1000000E+03  0.7546771E-02  0.1280296E+00
         21   -1    0    0  503  502  0.00000000000E+00  0.00000000000E+00  0.13145920579E+03  0.13145920579E+03  0.00000000000E+00 0. -1.
         21   -1    0    0  501  503 -0.00000000000E+00 -0.00000000000E+00 -0.31643561352E+03  0.31643561352E+03  0.00000000000E+00 0. -1.
          6    1    1    2  501    0  0.48312776143E+02 -0.25681701660E+02 -0.19476100102E+03  0.26618512666E+03  0.17300000000E+03 0. -1.
         -6    1    1    2    0  502 -0.48312776143E+02  0.25681701660E+02  0.97845932825E+01  0.18170969265E+03  0.17300000000E+03 0. -1.
</event>
<event>
 4    1  0.5929306E+000  0.1000000E+03  0.7546771E-02  0.1280296E+00
         21   -1    0    0  503  502  0.00000000000E+00  0.00000000000E+00  0.60323301196E+02  0.60323301196E+02  0.00000000000E+00 0. -1.
         21   -1    0    0  501  503 -0.00000000000E+00 -0.00000000000E+00 -0.50251280801E+03  0.50251280801E+03  0.00000000000E+00 0. -1.
          6    1    1    2  501    0  0.18161085824E+02  0.71494799798E+01 -0.22402716021E+03  0.28372188603E+03  0.17300000000E+03 0. -1.
         -6    1    1    2    0  502 -0.18161085824E+02 -0.71494799798E+01 -0.21816234661E+03  0.27911422318E+03  0.17300000000E+03 0. -1.
</event>
<event>
 4    1  0.5929306E+000  0.1000000E+03  0.7546771E-02  0.1280296E+00
         21   -1    0    0  501  502  0.00000000000E+00  0.00000000000E+00  0.53999893596E+02  0.53999893596E+02  0.00000000000E+00 0.  1.
         21   -1    0    0  502  503 -0.00000000000E+00 -0.00000000000E+00 -0.12108803593E+04  0.12108803593E+04  0.00000000000E+00 0.  1.
          6    1    1    2  501    0  0.22366750402E+02  0.15553575328E+03 -0.32180573552E+03  0.39771795720E+03  0.17300000000E+03 0.  1.
         -6    1    1    2    0  503 -0.22366750402E+02 -0.15553575328E+03 -0.83507473021E+03  0.86716229571E+03  0.17300000000E+03 0.  1.
</event>
<event>
 4    1  0.5929306E+000  0.1000000E+03  0.7546771E-02  0.1280296E+00
         21   -1    0    0  501  502  0.00000000000E+00  0.00000000000E+00  0.26794192665E+02  0.26794192665E+02  0.00000000000E+00 0.  1.
         21   -1    0    0  502  503 -0.00000000000E+00 -0.00000000000E+00 -0.12242080954E+04  0.12242080954E+04  0.00000000000E+00 0.  1.
          6    1    1    2  501    0 -0.24120437713E+01  0.49787460712E+02 -0.53067253334E+03  0.56038107288E+03  0.17300000000E+03 0.  1.
         -6    1    1    2    0  503  0.24120437713E+01 -0.49787460712E+02 -0.66674136936E+03  0.69062121515E+03  0.17300000000E+03 0.  1.
</event>
<event>
 4    1  0.5929306E+000  0.1000000E+03  0.7546771E-02  0.1280296E+00
         21   -1    0    0  501  502  0.00000000000E+00  0.00000000000E+00  0.15533238056E+04  0.15533238056E+04  0.00000000000E+00 0. -1.
         21   -1    0    0  502  503 -0.00000000000E+00 -0.00000000000E+00 -0.21429505430E+02  0.21429505430E+02  0.00000000000E+00 0. -1.
          6    1    1    2  501    0  0.22657928075E+02  0.33887534728E+02  0.94368740966E+03  0.96027947695E+03  0.17300000000E+03 0.  1.
         -6    1    1    2    0  503 -0.22657928075E+02 -0.33887534728E+02  0.58820689047E+03  0.61447383403E+03  0.17300000000E+03 0.  1.
</event>
<event>
 4    1  0.5929306E+000  0.1000000E+03  0.7546771E-02  0.1280296E+00
         21   -1    0    0  501  502  0.00000000000E+00  0.00000000000E+00  0.43036986177E+02  0.43036986177E+02  0.00000000000E+00 0. -1.
         21   -1    0    0  502  503 -0.00000000000E+00 -0.00000000000E+00 -0.11441974278E+04  0.11441974278E+04  0.00000000000E+00 0. -1.
          6    1    1    2  501    0 -0.11006752554E+03  0.73395381419E+02 -0.43670685405E+03  0.48799960919E+03  0.17300000000E+03 0.  1.
         -6    1    1    2    0  503  0.11006752554E+03 -0.73395381419E+02 -0.66445358758E+03  0.69923480480E+03  0.17300000000E+03 0.  1.
</event>
<event>
 4    1  0.5929306E+000  0.1000000E+03  0.7546771E-02  0.1280296E+00
         21   -1    0    0  501  502  0.00000000000E+00  0.00000000000E+00  0.21974504549E+03  0.21974504549E+03  0.00000000000E+00 0. -1.
         21   -1    0    0  502  503 -0.00000000000E+00 -0.00000000000E+00 -0.24469280259E+03  0.24469280259E+03  0.00000000000E+00 0. -1.
          6    1    1    2  501    0  0.10274657733E+03  0.29360122492E+02  0.99141988809E+02  0.22622336283E+03  0.17300000000E+03 0. -1.
         -6    1    1    2    0  503 -0.10274657733E+03 -0.29360122492E+02 -0.12408974591E+03  0.23821448525E+03  0.17300000000E+03 0. -1.
</event>
<event>
 4    1  0.5929306E+000  0.1000000E+03  0.7546771E-02  0.1280296E+00
         21   -1    0    0  501  502  0.00000000000E+00  0.00000000000E+00  0.14336646180E+03  0.14336646180E+03  0.00000000000E+00 0. -1.
         21   -1    0    0  502  503 -0.00000000000E+00 -0.00000000000E+00 -0.36040524808E+03  0.36040524808E+03  0.00000000000E+00 0. -1.
          6    1    1    2  501    0  0.15439186201E+02  0.11797260389E+03 -0.12010860251E+02  0.21030730968E+03  0.17300000000E+03 0. -1.
         -6    1    1    2    0  503 -0.15439186201E+02 -0.11797260389E+03 -0.20502792602E+03  0.29346440021E+03  0.17300000000E+03 0. -1.
</event>
<event>
 4    1  0.5929306E+000  0.1000000E+03  0.7546771E-02  0.1280296E+00
         21   -1    0    0  503  502  0.00000000000E+00  0.00000000000E+00  0.64702343075E+02  0.64702343075E+02  0.00000000000E+00 0. -1.
         21   -1    0    0  501  503 -0.00000000000E+00 -0.00000000000E+00 -0.51610527166E+03  0.51610527166E+03  0.00000000000E+00 0.  1.
          6    1    1    2  501    0 -0.50967016336E+02 -0.22169566286E+02 -0.25647966097E+03  0.31432458211E+03  0.17300000000E+03 0. -1.
         -6    1    1    2    0  502  0.50967016336E+02  0.22169566286E+02 -0.19492326762E+03  0.26648303263E+03  0.17300000000E+03 0.  1.
</event>
<event>
 4    1  0.5929306E+000  0.1000000E+03  0.7546771E-02  0.1280296E+00
         21   -1    0    0  503  502  0.00000000000E+00  0.00000000000E+00  0.46765822344E+03  0.46765822344E+03  0.00000000000E+00 0. -1.
         21   -1    0    0  501  503 -0.00000000000E+00 -0.00000000000E+00 -0.14770071970E+03  0.14770071970E+03  0.00000000000E+00 0.  1.
          6    1    1    2  501    0  0.44201439618E+02  0.12830911272E+03 -0.85662878051E+01  0.22004403413E+03  0.17300000000E+03 0. -1.
         -6    1    1    2    0  502 -0.44201439618E+02 -0.12830911272E+03  0.32852379154E+03  0.39531490900E+03  0.17300000000E+03 0.  1.
</event>
<event>
 4    1  0.5929306E+000  0.1000000E+03  0.7546771E-02  0.1280296E+00
         21   -1    0    0  503  502  0.00000000000E+00  0.00000000000E+00  0.33992310439E+03  0.33992310439E+03  0.00000000000E+00 0.  1.
         21   -1    0    0  501  503 -0.00000000000E+00 -0.00000000000E+00 -0.10822601865E+03  0.10822601865E+03  0.00000000000E+00 0.  1.
          6    1    1    2  501    0  0.31525011941E+02  0.40409658566E+02  0.39842511185E+02  0.18477876659E+03  0.17300000000E+03 0.  1.
         -6    1    1    2    0  502 -0.31525011941E+02 -0.40409658566E+02  0.19185457455E+03  0.26337035646E+03  0.17300000000E+03 0.  1.
</event>
<event>
 4    1  0.5929306E+000  0.1000000E+03  0.7546771E-02  0.1280296E+00
         21   -1    0    0  503  502  0.00000000000E+00  0.00000000000E+00  0.23800847247E+03  0.23800847247E+03  0.00000000000E+00 0.  1.
         21   -1    0    0  501  503 -0.00000000000E+00 -0.00000000000E+00 -0.17321251230E+03  0.17321251230E+03  0.00000000000E+00 0.  1.
          6    1    1    2  501    0 -0.16295950949E+01  0.32515469488E+02 -0.70060670301E+02  0.18946611533E+03  0.17300000000E+03 0.  1.
         -6    1    1    2    0  502  0.16295950949E+01 -0.32515469488E+02  0.13485663048E+03  0.22175486944E+03  0.17300000000E+03 0.  1.
</event>
<event>
 4    1  0.5929306E+000  0.1000000E+03  0.7546771E-02  0.1280296E+00
         21   -1    0    0  503  502  0.00000000000E+00  0.00000000000E+00  0.15618528904E+03  0.15618528904E+03  0.00000000000E+00 0.  1.
         21   -1    0    0  501  503 -0.00000000000E+00 -0.00000000000E+00 -0.46651435173E+03  0.46651435173E+03  0.00000000000E+00 0. -1.
          6    1    1    2  501    0  0.18488283384E+03 -0.44264557787E+02 -0.60100513002E+02  0.26397364449E+03  0.17300000000E+03 0. -1.
         -6    1    1    2    0  502 -0.18488283384E+03  0.44264557787E+02 -0.25022854970E+03  0.35872599628E+03  0.17300000000E+03 0.  1.
</event>
<event>
 4    1  0.5929306E+000  0.1000000E+03  0.7546771E-02  0.1280296E+00
         21   -1    0    0  501  502  0.00000000000E+00  0.00000000000E+00  0.35751533665E+03  0.35751533665E+03  0.00000000000E+00 0. -1.
         21   -1    0    0  502  503 -0.00000000000E+00 -0.00000000000E+00 -0.18596696803E+03  0.18596696803E+03  0.00000000000E+00 0. -1.
          6    1    1    2  501    0  0.10996452470E+02 -0.18534830714E+03  0.13386295767E+03  0.28692021254E+03  0.17300000000E+03 0. -1.
         -6    1    1    2    0  503 -0.10996452470E+02  0.18534830714E+03  0.37685410949E+02  0.25656209214E+03  0.17300000000E+03 0. -1.
</event>
<event>
 4    1  0.5929306E+000  0.1000000E+03  0.7546771E-02  0.1280296E+00
         21   -1    0    0  501  502  0.00000000000E+00  0.00000000000E+00  0.54664826185E+03  0.54664826185E+03  0.00000000000E+00 0. -1.
         21   -1    0    0  502  503 -0.00000000000E+00 -0.00000000000E+00 -0.28488521895E+03  0.28488521895E+03  0.00000000000E+00 0. -1.
          6    1    1    2  501    0 -0.26038620644E+03  0.65666799953E+01  0.38452337168E+03  0.49561206720E+03  0.17300000000E+03 0. -1.
         -6    1    1    2    0  503  0.26038620644E+03 -0.65666799953E+01 -0.12276032879E+03  0.33592141359E+03  0.17300000000E+03 0. -1.
</event>
<event>
 4    1  0.5929306E+000  0.1000000E+03  0.7546771E-02  0.1280296E+00
         21   -1    0    0  501  502  0.00000000000E+00  0.00000000000E+00  0.41231195719E+03  0.41231195719E+03  0.00000000000E+00 0. -1.
         21   -1    0    0  502  503 -0.00000000000E+00 -0.00000000000E+00 -0.15668544596E+03  0.15668544596E+03  0.00000000000E+00 0. -1.
          6    1    1    2  501    0  0.10160986569E+03 -0.28666038932E+02  0.29950336675E+03  0.36163182007E+03  0.17300000000E+03 0. -1.
         -6    1    1    2    0  503 -0.10160986569E+03  0.28666038932E+02 -0.43876855516E+02  0.20736558307E+03  0.17300000000E+03 0. -1.
</event>
<event>
 4    1  0.5929306E+000  0.1000000E+03  0.7546771E-02  0.1280296E+00
         21   -1    0    0  503  502  0.00000000000E+00  0.00000000000E+00  0.20453872113E+03  0.20453872113E+03  0.00000000000E+00 0.  1.
         21   -1    0    0  501  503 -0.00000000000E+00 -0.00000000000E+00 -0.25090301070E+03  0.25090301070E+03  0.00000000000E+00 0.  1.
          6    1    1    2  501    0 -0.17079782472E+02  0.62338668912E+02 -0.15506391225E+03  0.24114652287E+03  0.17300000000E+03 0.  1.
         -6    1    1    2    0  502  0.17079782472E+02 -0.62338668912E+02  0.10869962269E+03  0.21429520896E+03  0.17300000000E+03 0.  1.
</event>
<event>
 4    1  0.5929306E+000  0.1000000E+03  0.7546771E-02  0.1280296E+00
         21   -1    0    0  501  502  0.00000000000E+00  0.00000000000E+00  0.59992505908E+02  0.59992505908E+02  0.00000000000E+00 0. -1.
         21   -1    0    0  502  503 -0.00000000000E+00 -0.00000000000E+00 -0.12689814257E+04  0.12689814257E+04  0.00000000000E+00 0. -1.
          6    1    1    2  501    0 -0.76466555146E+02  0.67974264288E+02 -0.14925122762E+03  0.25034488932E+03  0.17300000000E+03 0. -1.
         -6    1    1    2    0  503  0.76466555146E+02 -0.67974264288E+02 -0.10597376921E+04  0.10786290422E+04  0.17300000000E+03 0. -1.
</event>
<event>
 4    1  0.5929306E+000  0.1000000E+03  0.7546771E-02  0.1280296E+00
         21   -1    0    0  503  502  0.00000000000E+00  0.00000000000E+00  0.38805437644E+03  0.38805437644E+03  0.00000000000E+00 0. -1.
         21   -1    0    0  501  503 -0.00000000000E+00 -0.00000000000E+00 -0.14994392213E+03  0.14994392213E+03  0.00000000000E+00 0.  1.
          6    1    1    2  501    0  0.39929142557E+02 -0.88840472517E+02 -0.33728563946E+02  0.20137919954E+03  0.17300000000E+03 0.  1.
         -6    1    1    2    0  502 -0.39929142557E+02  0.88840472517E+02  0.27183901826E+03  0.33661909903E+03  0.17300000000E+03 0. -1.
</event>
<event>
 4    1  0.5929306E+000  0.1000000E+03  0.7546771E-02  0.1280296E+00
         21   -1    0    0  503  502  0.00000000000E+00  0.00000000000E+00  0.70338681010E+02  0.70338681010E+02  0.00000000000E+00 0. -1.
         21   -1    0    0  501  503 -0.00000000000E+00 -0.00000000000E+00 -0.14370556103E+04  0.14370556103E+04  0.00000000000E+00 0. -1.
          6    1    1    2  501    0  0.13615424537E+03  0.15664205332E+03 -0.10805842505E+04  0.11138518905E+04  0.17300000000E+03 0. -1.
         -6    1    1    2    0  502 -0.13615424537E+03 -0.15664205332E+03 -0.28613267874E+03  0.39354240082E+03  0.17300000000E+03 0. -1.
</event>
<event>
 4    1  0.5929306E+000  0.1000000E+03  0.7546771E-02  0.1280296E+00
         21   -1    0    0  503  502  0.00000000000E+00  0.00000000000E+00  0.35332415940E+02  0.35332415940E+02  0.00000000000E+00 0.  1.
         21   -1    0    0  501  503 -0.00000000000E+00 -0.00000000000E+00 -0.27394371471E+04  0.27394371471E+04  0.00000000000E+00 0. -1.
          6    1    1    2  501    0 -0.24408522603E+03 -0.68335950299E+02 -0.15800743164E+04  0.16095997158E+04  0.17300000000E+03 0. -1.
         -6    1    1    2    0  502  0.24408522603E+03  0.68335950299E+02 -0.11240304147E+04  0.11651698472E+04  0.17300000000E+03 0.  1.
</event>
<event>
 4    1  0.5929306E+000  0.1000000E+03  0.7546771E-02  0.1280296E+00
         21   -1    0    0  503  502  0.00000000000E+00  0.00000000000E+00  0.22468527103E+04  0.22468527103E+04  0.00000000000E+00 0. -1.
         21   -1    0    0  501  503 -0.00000000000E+00 -0.00000000000E+00 -0.18960285267E+02  0.18960285267E+02  0.00000000000E+00 0. -1.
          6    1    1    2  501    0 -0.12891171428E+02  0.79708352446E+02  0.68341428433E+03  0.70957993755E+03  0.17300000000E+03 0. -1.
         -6    1    1    2    0  502  0.12891171428E+02 -0.79708352446E+02  0.15444781407E+04  0.15562330580E+04  0.17300000000E+03 0. -1.
</event>
<event>
 4    1  0.5929306E+000  0.1000000E+03  0.7546771E-02  0.1280296E+00
         21   -1    0    0  501  502  0.00000000000E+00  0.00000000000E+00  0.40110323608E+03  0.40110323608E+03  0.00000000000E+00 0.  1.
         21   -1    0    0  502  503 -0.00000000000E+00 -0.00000000000E+00 -0.11372041084E+03  0.11372041084E+03  0.00000000000E+00 0.  1.
          6    1    1    2  501    0 -0.75626602745E+02 -0.22776989085E+02  0.26083419231E+03  0.32280280382E+03  0.17300000000E+03 0.  1.
         -6    1    1    2    0  503  0.75626602745E+02  0.22776989085E+02  0.26548632937E+02  0.19202084310E+03  0.17300000000E+03 0.  1.
</event>
<event>
 4    1  0.5929306E+000  0.1000000E+03  0.7546771E-02  0.1280296E+00
         21   -1    0    0  501  502  0.00000000000E+00  0.00000000000E+00  0.51711024743E+02  0.51711024743E+02  0.00000000000E+00 0.  1.
         21   -1    0    0  502  503 -0.00000000000E+00 -0.00000000000E+00 -0.68240809973E+03  0.68240809973E+03  0.00000000000E+00 0.  1.
          6    1    1    2  501    0 -0.17796136171E+02 -0.59893414601E+02 -0.24081202159E+03  0.30302368441E+03  0.17300000000E+03 0.  1.
         -6    1    1    2    0  503  0.17796136171E+02  0.59893414601E+02 -0.38988505340E+03  0.43109544006E+03  0.17300000000E+03 0.  1.
</event>
<event>
 4    1  0.5929306E+000  0.1000000E+03  0.7546771E-02  0.1280296E+00
         21   -1    0    0  501  502  0.00000000000E+00  0.00000000000E+00  0.15032053975E+03  0.15032053975E+03  0.00000000000E+00 0. -1.
         21   -1    0    0  502  503 -0.00000000000E+00 -0.00000000000E+00 -0.36221611955E+03  0.36221611955E+03  0.00000000000E+00 0. -1.
          6    1    1    2  501    0  0.36337852201E+02 -0.12708228406E+03 -0.13739265874E+02  0.21814700056E+03  0.17300000000E+03 0. -1.
         -6    1    1    2    0  503 -0.36337852201E+02  0.12708228406E+03 -0.19815631393E+03  0.29438965874E+03  0.17300000000E+03 0. -1.
</event>
<event>
 4    1  0.5929306E+000  0.1000000E+03  0.7546771E-02  0.1280296E+00
         21   -1    0    0  501  502  0.00000000000E+00  0.00000000000E+00  0.34960799971E+03  0.34960799971E+03  0.00000000000E+00 0. -1.
         21   -1    0    0  502  503 -0.00000000000E+00 -0.00000000000E+00 -0.16656929066E+03  0.16656929066E+03  0.00000000000E+00 0. -1.
          6    1    1    2  501    0  0.10469721940E+03 -0.86189144034E+02  0.19801319393E+03  0.29585182316E+03  0.17300000000E+03 0. -1.
         -6    1    1    2    0  503 -0.10469721940E+03  0.86189144034E+02 -0.14974484878E+02  0.22032546720E+03  0.17300000000E+03 0. -1.
</event>
<event>
 4    1  0.5929306E+000  0.1000000E+03  0.7546771E-02  0.1280296E+00
         21   -1    0    0  503  502  0.00000000000E+00  0.00000000000E+00  0.10420607206E+03  0.10420607206E+03  0.00000000000E+00 0. -1.
         21   -1    0    0  501  503 -0.00000000000E+00 -0.00000000000E+00 -0.65228043812E+03  0.65228043812E+03  0.00000000000E+00 0.  1.
          6    1    1    2  501    0  0.43066706114E+02  0.13130567573E+02 -0.54936608359E+03  0.57771900331E+03  0.17300000000E+03 0.  1.
         -6    1    1    2    0  502 -0.43066706114E+02 -0.13130567573E+02  0.12917175294E+01  0.17876750688E+03  0.17300000000E+03 0. -1.
</event>
<event>
 4    1  0.5929306E+000  0.1000000E+03  0.7546771E-02  0.1280296E+00
         21   -1    0    0  503  502  0.00000000000E+00  0.00000000000E+00  0.55061959059E+03  0.55061959059E+03  0.00000000000E+00 0. -1.
         21   -1    0    0  501  503 -0.00000000000E+00 -0.00000000000E+00 -0.64218074419E+02  0.64218074419E+02  0.00000000000E+00 0.  1.
          6    1    1    2  501    0  0.57985851772E+02  0.19938113693E+02  0.17637502194E+03  0.25455261882E+03  0.17300000000E+03 0.  1.
         -6    1    1    2    0  502 -0.57985851772E+02 -0.19938113693E+02  0.31002649423E+03  0.36028504619E+03  0.17300000000E+03 0. -1.
</event>
<event>
 4    1  0.5929306E+000  0.1000000E+03  0.7546771E-02  0.1280296E+00
         21   -1    0    0  503  502  0.00000000000E+00  0.00000000000E+00  0.13699841144E+03  0.13699841144E+03  0.00000000000E+00 0. -1.
         21   -1    0    0  501  503 -0.00000000000E+00 -0.00000000000E+00 -0.30108898564E+03  0.30108898564E+03  0.00000000000E+00 0.  1.
          6    1    1    2  501    0 -0.88526951604E+02  0.30864012775E+02 -0.27795907555E+02  0.19872398175E+03  0.17300000000E+03 0.  1.
         -6    1    1    2    0  502  0.88526951604E+02 -0.30864012775E+02 -0.13629466665E+03  0.23936341534E+03  0.17300000000E+03 0. -1.
</event>
<event>
 4    1  0.5929306E+000  0.1000000E+03  0.7546771E-02  0.1280296E+00
         21   -1    0    0  501  502  0.00000000000E+00  0.00000000000E+00  0.40554747503E+03  0.40554747503E+03  0.00000000000E+00 0.  1.
         21   -1    0    0  502  503 -0.00000000000E+00 -0.00000000000E+00 -0.17234561758E+03  0.17234561758E+03  0.00000000000E+00 0.  1.
          6    1    1    2  501    0  0.10364094883E+03 -0.10600999486E+01  0.30343546135E+03  0.36434139113E+03  0.17300000000E+03 0.  1.
         -6    1    1    2    0  503 -0.10364094883E+03  0.10600999486E+01 -0.70233603910E+02  0.21355170148E+03  0.17300000000E+03 0.  1.
</event>
<event>
 4    1  0.5929306E+000  0.1000000E+03  0.7546771E-02  0.1280296E+00
         21   -1    0    0  501  502  0.00000000000E+00  0.00000000000E+00  0.29579631451E+03  0.29579631451E+03  0.00000000000E+00 0. -1.
         21   -1    0    0  502  503 -0.00000000000E+00 -0.00000000000E+00 -0.23205710378E+03  0.23205710378E+03  0.00000000000E+00 0. -1.
          6    1    1    2  501    0  0.18031935086E+02  0.83971490843E+02  0.21019500591E+03  0.28545980885E+03  0.17300000000E+03 0. -1.
         -6    1    1    2    0  503 -0.18031935086E+02 -0.83971490843E+02 -0.14645579519E+03  0.24239360945E+03  0.17300000000E+03 0. -1.
</event>
<event>
 4    1  0.5929306E+000  0.1000000E+03  0.7546771E-02  0.1280296E+00
         21   -1    0    0  501  502  0.00000000000E+00  0.00000000000E+00  0.51569176837E+03  0.51569176837E+03  0.00000000000E+00 0. -1.
         21   -1    0    0  502  503 -0.00000000000E+00 -0.00000000000E+00 -0.25414533283E+04  0.25414533283E+04  0.00000000000E+00 0. -1.
          6    1    1    2  501    0  0.33501511465E+03  0.49023487134E+03  0.27344249776E+03  0.67621383874E+03  0.17300000000E+03 0. -1.
         -6    1    1    2    0  503 -0.33501511465E+03 -0.49023487134E+03 -0.22992040577E+04  0.23809312579E+04  0.17300000000E+03 0. -1.
</event>
<event>
 4    1  0.5929306E+000  0.1000000E+03  0.7546771E-02  0.1280296E+00
         21   -1    0    0  501  502  0.00000000000E+00  0.00000000000E+00  0.50903519369E+03  0.50903519369E+03  0.00000000000E+00 0. -1.
         21   -1    0    0  502  503 -0.00000000000E+00 -0.00000000000E+00 -0.16157569300E+03  0.16157569300E+03  0.00000000000E+00 0. -1.
          6    1    1    2  501    0 -0.12303861921E+03  0.99998112964E+02  0.36648584705E+03  0.43517697607E+03  0.17300000000E+03 0.  1.
         -6    1    1    2    0  503  0.12303861921E+03 -0.99998112964E+02 -0.19026346357E+02  0.23543391062E+03  0.17300000000E+03 0.  1.
</event>
<event>
 4    1  0.5929306E+000  0.1000000E+03  0.7546771E-02  0.1280296E+00
         21   -1    0    0  501  502  0.00000000000E+00  0.00000000000E+00  0.10023934863E+03  0.10023934863E+03  0.00000000000E+00 0.  1.
         21   -1    0    0  502  503 -0.00000000000E+00 -0.00000000000E+00 -0.59449704221E+03  0.59449704221E+03  0.00000000000E+00 0.  1.
          6    1    1    2  501    0  0.64470720588E+02  0.15360275302E+03 -0.18489574993E+03  0.30309357943E+03  0.17300000000E+03 0.  1.
         -6    1    1    2    0  503 -0.64470720588E+02 -0.15360275302E+03 -0.30936194365E+03  0.39164281141E+03  0.17300000000E+03 0.  1.
</event>
<event>
 4    1  0.5929306E+000  0.1000000E+03  0.7546771E-02  0.1280296E+00
         21   -1    0    0  503  502  0.00000000000E+00  0.00000000000E+00  0.23019265177E+03  0.23019265177E+03  0.00000000000E+00 0. -1.
         21   -1    0    0  501  503 -0.00000000000E+00 -0.00000000000E+00 -0.42592674825E+03  0.42592674825E+03  0.00000000000E+00 0.  1.
          6    1    1    2  501    0  0.91383233126E+01 -0.59416145134E+02 -0.36395652763E+03  0.40743973942E+03  0.17300000000E+03 0. -1.
         -6    1    1    2    0  502 -0.91383233126E+01  0.59416145134E+02  0.16822243114E+03  0.24867966060E+03  0.17300000000E+03 0.  1.
</event>
<event>
 4    1  0.5929306E+000  0.1000000E+03  0.7546771E-02  0.1280296E+00
         21   -1    0    0  503  502  0.00000000000E+00  0.00000000000E+00  0.29469254664E+03  0.29469254664E+03  0.00000000000E+00 0. -1.
         21   -1    0    0  501  503 -0.00000000000E+00 -0.00000000000E+00 -0.24613929706E+03  0.24613929706E+03  0.00000000000E+00 0.  1.
          6    1    1    2  501    0  0.10897545496E+03 -0.58174537065E+02 -0.14176156830E+03  0.25550982133E+03  0.17300000000E+03 0. -1.
         -6    1    1    2    0  502 -0.10897545496E+03  0.58174537065E+02  0.19031481788E+03  0.28532202237E+03  0.17300000000E+03 0.  1.
</event>
<event>
 4    1  0.5929306E+000  0.1000000E+03  0.7546771E-02  0.1280296E+00
         21   -1    0    0  501  502  0.00000000000E+00  0.00000000000E+00  0.22930450444E+02  0.22930450444E+02  0.00000000000E+00 0.  1.
         21   -1    0    0  502  503 -0.00000000000E+00 -0.00000000000E+00 -0.14497060710E+04  0.14497060710E+04  0.00000000000E+00 0.  1.
          6    1    1    2  501    0  0.36721470717E+01 -0.28822655295E+02 -0.51271157409E+03  0.54189149128E+03  0.17300000000E+03 0.  1.
         -6    1    1    2    0  503 -0.36721470717E+01  0.28822655295E+02 -0.91406404648E+03  0.93074503017E+03  0.17300000000E+03 0.  1.
</event>
<event>
 4    1  0.5929306E+000  0.1000000E+03  0.7546771E-02  0.1280296E+00
         21   -1    0    0  501  502  0.00000000000E+00  0.00000000000E+00  0.13904536392E+03  0.13904536392E+03  0.00000000000E+00 0.  1.
         21   -1    0    0  502  503 -0.00000000000E+00 -0.00000000000E+00 -0.17954427826E+04  0.17954427826E+04  0.00000000000E+00 0.  1.
          6    1    1    2  501    0  0.22471916325E+03 -0.29136838675E+03 -0.26605211684E+03  0.48590839466E+03  0.17300000000E+03 0.  1.
         -6    1    1    2    0  503 -0.22471916325E+03  0.29136838675E+03 -0.13903453018E+04  0.14485797518E+04  0.17300000000E+03 0.  1.
</event>
<event>
 4    1  0.5929306E+000  0.1000000E+03  0.7546771E-02  0.1280296E+00
         21   -1    0    0  503  502  0.00000000000E+00  0.00000000000E+00  0.54227712118E+02  0.54227712118E+02  0.00000000000E+00 0. -1.
         21   -1    0    0  501  503 -0.00000000000E+00 -0.00000000000E+00 -0.68401132505E+03  0.68401132505E+03  0.00000000000E+00 0.  1.
          6    1    1    2  501    0 -0.76852907986E+02 -0.43754212988E+01 -0.38232282023E+03  0.42664417569E+03  0.17300000000E+03 0. -1.
         -6    1    1    2    0  502  0.76852907986E+02  0.43754212988E+01 -0.24746079270E+03  0.31159486148E+03  0.17300000000E+03 0.  1.
</event>
<event>
 4    1  0.5929306E+000  0.1000000E+03  0.7546771E-02  0.1280296E+00
         21   -1    0    0  503  502  0.00000000000E+00  0.00000000000E+00  0.85032982304E+03  0.85032982304E+03  0.00000000000E+00 0. -1.
         21   -1    0    0  501  503 -0.00000000000E+00 -0.00000000000E+00 -0.62158537468E+02  0.62158537468E+02  0.00000000000E+00 0.  1.
          6    1    1    2  501    0  0.77192887338E+02  0.33267297321E+02  0.14415711712E+03  0.24036582399E+03  0.17300000000E+03 0. -1.
         -6    1    1    2    0  502 -0.77192887338E+02 -0.33267297321E+02  0.64401416846E+03  0.67212253652E+03  0.17300000000E+03 0.  1.
</event>
<event>
 4    1  0.5929306E+000  0.1000000E+03  0.7546771E-02  0.1280296E+00
         21   -1    0    0  503  502  0.00000000000E+00  0.00000000000E+00  0.21649968038E+03  0.21649968038E+03  0.00000000000E+00 0. -1.
         21   -1    0    0  501  503 -0.00000000000E+00 -0.00000000000E+00 -0.14918112586E+03  0.14918112586E+03  0.00000000000E+00 0.  1.
          6    1    1    2  501    0  0.70400335662E+01 -0.39814578381E+02  0.61220979290E+02  0.18791426510E+03  0.17300000000E+03 0. -1.
         -6    1    1    2    0  502 -0.70400335662E+01  0.39814578381E+02  0.60975752341E+01  0.17776654114E+03  0.17300000000E+03 0.  1.
</event>
<event>
 4    1  0.5929306E+000  0.1000000E+03  0.7546771E-02  0.1280296E+00
         21   -1    0    0  503  502  0.00000000000E+00  0.00000000000E+00  0.34016401629E+04  0.34016401629E+04  0.00000000000E+00 0. -1.
         21   -1    0    0  501  503 -0.00000000000E+00 -0.00000000000E+00 -0.10755429752E+02  0.10755429752E+02  0.00000000000E+00 0.  1.
          6    1    1    2  501    0  0.40316077168E+02 -0.70393924307E+02  0.16174683882E+04  0.16287153458E+04  0.17300000000E+03 0. -1.
         -6    1    1    2    0  502 -0.40316077168E+02  0.70393924307E+02  0.17734163449E+04  0.17836802469E+04  0.17300000000E+03 0.  1.
</event>
<event>
 4    1  0.5929306E+000  0.1000000E+03  0.7546771E-02  0.1280296E+00
         21   -1    0    0  503  502  0.00000000000E+00  0.00000000000E+00  0.79495103300E+02  0.79495103300E+02  0.00000000000E+00 0. -1.
         21   -1    0    0  501  503 -0.00000000000E+00 -0.00000000000E+00 -0.15705618908E+04  0.15705618908E+04  0.00000000000E+00 0.  1.
          6    1    1    2  501    0  0.28543164342E+03 -0.99250334397E+02 -0.88565028733E+03  0.95164451524E+03  0.17300000000E+03 0. -1.
         -6    1    1    2    0  502 -0.28543164342E+03  0.99250334397E+02 -0.60541650017E+03  0.69841247885E+03  0.17300000000E+03 0.  1.
</event>
<event>
 4    1  0.5929306E+000  0.1000000E+03  0.7546771E-02  0.1280296E+00
         21   -1    0    0  503  502  0.00000000000E+00  0.00000000000E+00  0.93445985720E+02  0.93445985720E+02  0.00000000000E+00 0.  1.
         21   -1    0    0  501  503 -0.00000000000E+00 -0.00000000000E+00 -0.46198886375E+03  0.46198886375E+03  0.00000000000E+00 0.  1.
          6    1    1    2  501    0  0.17455217721E+02 -0.19900916034E+02 -0.33395629842E+03  0.37703652388E+03  0.17300000000E+03 0.  1.
         -6    1    1    2    0  502 -0.17455217721E+02  0.19900916034E+02 -0.34586579610E+02  0.17839832559E+03  0.17300000000E+03 0.  1.
</event>
<event>
 4    1  0.5929306E+000  0.1000000E+03  0.7546771E-02  0.1280296E+00
         21   -1    0    0  501  502  0.00000000000E+00  0.00000000000E+00  0.74184980190E+03  0.74184980190E+03  0.00000000000E+00 0. -1.
         21   -1    0    0  502  503 -0.00000000000E+00 -0.00000000000E+00 -0.86790153075E+02  0.86790153075E+02  0.00000000000E+00 0.  1.
          6    1    1    2  501    0  0.60200102331E+02 -0.16899121022E+03  0.24966259362E+03  0.35276407429E+03  0.17300000000E+03 0. -1.
         -6    1    1    2    0  503 -0.60200102331E+02  0.16899121022E+03  0.40539705521E+03  0.47587588069E+03  0.17300000000E+03 0.  1.
</event>
<event>
 4    1  0.5929306E+000  0.1000000E+03  0.7546771E-02  0.1280296E+00
         21   -1    0    0  501  502  0.00000000000E+00  0.00000000000E+00  0.35227750746E+03  0.35227750746E+03  0.00000000000E+00 0. -1.
         21   -1    0    0  502  503 -0.00000000000E+00 -0.00000000000E+00 -0.13044178233E+03  0.13044178233E+03  0.00000000000E+00 0.  1.
          6    1    1    2  501    0 -0.97558291787E+02 -0.18017061230E+02  0.19943444355E+03  0.28203782027E+03  0.17300000000E+03 0. -1.
         -6    1    1    2    0  503  0.97558291787E+02  0.18017061230E+02  0.22401281579E+02  0.20068146952E+03  0.17300000000E+03 0.  1.
</event>
<event>
 4    1  0.5929306E+000  0.1000000E+03  0.7546771E-02  0.1280296E+00
         21   -1    0    0  501  502  0.00000000000E+00  0.00000000000E+00  0.23622136932E+03  0.23622136932E+03  0.00000000000E+00 0.  1.
         21   -1    0    0  502  503 -0.00000000000E+00 -0.00000000000E+00 -0.20138759010E+03  0.20138759010E+03  0.00000000000E+00 0.  1.
          6    1    1    2  501    0 -0.97473933977E+02 -0.35464997337E+02  0.10065159234E+03  0.22542998222E+03  0.17300000000E+03 0.  1.
         -6    1    1    2    0  503  0.97473933977E+02  0.35464997337E+02 -0.65817813119E+02  0.21217897720E+03  0.17300000000E+03 0.  1.
</event>
<event>
 4    1  0.5929306E+000  0.1000000E+03  0.7546771E-02  0.1280296E+00
         21   -1    0    0  501  502  0.00000000000E+00  0.00000000000E+00  0.19724893653E+03  0.19724893653E+03  0.00000000000E+00 0.  1.
         21   -1    0    0  502  503 -0.00000000000E+00 -0.00000000000E+00 -0.20219598050E+03  0.20219598050E+03  0.00000000000E+00 0.  1.
          6    1    1    2  501    0 -0.30633777326E+02  0.35503732628E+02  0.85595703340E+02  0.19863173909E+03  0.17300000000E+03 0.  1.
         -6    1    1    2    0  503  0.30633777326E+02 -0.35503732628E+02 -0.90542747312E+02  0.20081317794E+03  0.17300000000E+03 0.  1.
</event>
<event>
 4    1  0.5929306E+000  0.1000000E+03  0.7546771E-02  0.1280296E+00
         21   -1    0    0  501  502  0.00000000000E+00  0.00000000000E+00  0.21457807211E+03  0.21457807211E+03  0.00000000000E+00 0.  1.
         21   -1    0    0  502  503 -0.00000000000E+00 -0.00000000000E+00 -0.21168298743E+03  0.21168298743E+03  0.00000000000E+00 0.  1.
          6    1    1    2  501    0 -0.15601757117E+02 -0.50698218655E+02  0.11405477156E+03  0.21389533683E+03  0.17300000000E+03 0.  1.
         -6    1    1    2    0  503  0.15601757117E+02  0.50698218655E+02 -0.11115968688E+03  0.21236572272E+03  0.17300000000E+03 0.  1.
</event>
<event>
 4    1  0.5929306E+000  0.1000000E+03  0.7546771E-02  0.1280296E+00
         21   -1    0    0  503  502  0.00000000000E+00  0.00000000000E+00  0.22883156730E+03  0.22883156730E+03  0.00000000000E+00 0. -1.
         21   -1    0    0  501  503 -0.00000000000E+00 -0.00000000000E+00 -0.23056676298E+03  0.23056676298E+03  0.00000000000E+00 0. -1.
          6    1    1    2  501    0 -0.51169239134E+02 -0.11181683433E+03 -0.88678578212E+02  0.23003083642E+03  0.17300000000E+03 0. -1.
         -6    1    1    2    0  502  0.51169239134E+02  0.11181683433E+03  0.86943382536E+02  0.22936749386E+03  0.17300000000E+03 0. -1.
</event>
<event>
 4    1  0.5929306E+000  0.1000000E+03  0.7546771E-02  0.1280296E+00
         21   -1    0    0  503  502  0.00000000000E+00  0.00000000000E+00  0.89716461358E+02  0.89716461358E+02  0.00000000000E+00 0. -1.
         21   -1    0    0  501  503 -0.00000000000E+00 -0.00000000000E+00 -0.41147737548E+03  0.41147737548E+03  0.00000000000E+00 0. -1.
          6    1    1    2  501    0 -0.48536610038E+02 -0.18168758429E+01 -0.24961082683E+03  0.30756083694E+03  0.17300000000E+03 0. -1.
         -6    1    1    2    0  502  0.48536610038E+02  0.18168758429E+01 -0.72150087295E+02  0.19363299990E+03  0.17300000000E+03 0. -1.
</event>
<event>
 4    1  0.5929306E+000  0.1000000E+03  0.7546771E-02  0.1280296E+00
         21   -1    0    0  503  502  0.00000000000E+00  0.00000000000E+00  0.21466420486E+03  0.21466420486E+03  0.00000000000E+00 0. -1.
         21   -1    0    0  501  503 -0.00000000000E+00 -0.00000000000E+00 -0.34468073052E+03  0.34468073052E+03  0.00000000000E+00 0. -1.
          6    1    1    2  501    0 -0.66941532061E+02  0.19684020862E+03 -0.94707339584E+02  0.28657584793E+03  0.17300000000E+03 0. -1.
         -6    1    1    2    0  502  0.66941532061E+02 -0.19684020862E+03 -0.35309186082E+02  0.27276908745E+03  0.17300000000E+03 0. -1.
</event>
<event>
 4    1  0.5929306E+000  0.1000000E+03  0.7546771E-02  0.1280296E+00
         21   -1    0    0  503  502  0.00000000000E+00  0.00000000000E+00  0.29441912634E+03  0.29441912634E+03  0.00000000000E+00 0. -1.
         21   -1    0    0  501  503 -0.00000000000E+00 -0.00000000000E+00 -0.19498064272E+03  0.19498064272E+03  0.00000000000E+00 0.  1.
          6    1    1    2  501    0  0.85563432581E+02 -0.21930167199E+02 -0.93536601635E+02  0.21559250700E+03  0.17300000000E+03 0. -1.
         -6    1    1    2    0  502 -0.85563432581E+02  0.21930167199E+02  0.19297508525E+03  0.27380726206E+03  0.17300000000E+03 0. -1.
</event>
<event>
 4    1  0.5929306E+000  0.1000000E+03  0.7546771E-02  0.1280296E+00
         21   -1    0    0  501  502  0.00000000000E+00  0.00000000000E+00  0.66743358115E+03  0.66743358115E+03  0.00000000000E+00 0.  1.
         21   -1    0    0  502  503 -0.00000000000E+00 -0.00000000000E+00 -0.50540233616E+02  0.50540233616E+02  0.00000000000E+00 0.  1.
          6    1    1    2  501    0  0.26135502145E+02 -0.47143151480E+02  0.24988365081E+03  0.30866872233E+03  0.17300000000E+03 0.  1.
         -6    1    1    2    0  503 -0.26135502145E+02  0.47143151480E+02  0.36700969672E+03  0.40930509244E+03  0.17300000000E+03 0.  1.
</event>
<event>
 4    1  0.5929306E+000  0.1000000E+03  0.7546771E-02  0.1280296E+00
         21   -1    0    0  501  502  0.00000000000E+00  0.00000000000E+00  0.31463904092E+03  0.31463904092E+03  0.00000000000E+00 0.  1.
         21   -1    0    0  502  503 -0.00000000000E+00 -0.00000000000E+00 -0.70272783514E+03  0.70272783514E+03  0.00000000000E+00 0.  1.
          6    1    1    2  501    0  0.12072545118E+03  0.64290747840E+02  0.25522085635E+03  0.33730493673E+03  0.17300000000E+03 0.  1.
         -6    1    1    2    0  503 -0.12072545118E+03 -0.64290747840E+02 -0.64330965057E+03  0.68006193934E+03  0.17300000000E+03 0.  1.
</event>
<event>
 4    1  0.5929306E+000  0.1000000E+03  0.7546771E-02  0.1280296E+00
         21   -1    0    0  503  502  0.00000000000E+00  0.00000000000E+00  0.61233083301E+03  0.61233083301E+03  0.00000000000E+00 0.  1.
         21   -1    0    0  501  503 -0.00000000000E+00 -0.00000000000E+00 -0.18848900459E+03  0.18848900459E+03  0.00000000000E+00 0. -1.
          6    1    1    2  501    0  0.24867639805E+03 -0.15063144918E+02  0.31544935577E+02  0.30494414611E+03  0.17300000000E+03 0.  1.
         -6    1    1    2    0  502 -0.24867639805E+03  0.15063144918E+02  0.39229689284E+03  0.49587569150E+03  0.17300000000E+03 0.  1.
</event>
<event>
 4    1  0.5929306E+000  0.1000000E+03  0.7546771E-02  0.1280296E+00
         21   -1    0    0  503  502  0.00000000000E+00  0.00000000000E+00  0.35526496037E+03  0.35526496037E+03  0.00000000000E+00 0.  1.
         21   -1    0    0  501  503 -0.00000000000E+00 -0.00000000000E+00 -0.15534337403E+03  0.15534337403E+03  0.00000000000E+00 0.  1.
          6    1    1    2  501    0  0.32863586765E+02 -0.49360439138E+02 -0.60286602703E+02  0.19256152978E+03  0.17300000000E+03 0.  1.
         -6    1    1    2    0  502 -0.32863586765E+02  0.49360439138E+02  0.26020818904E+03  0.31804680462E+03  0.17300000000E+03 0.  1.
</event>
<event>
 4    1  0.5929306E+000  0.1000000E+03  0.7546771E-02  0.1280296E+00
         21   -1    0    0  503  502  0.00000000000E+00  0.00000000000E+00  0.86017380320E+03  0.86017380320E+03  0.00000000000E+00 0.  1.
         21   -1    0    0  501  503 -0.00000000000E+00 -0.00000000000E+00 -0.97799376132E+02  0.97799376132E+02  0.00000000000E+00 0.  1.
          6    1    1    2  501    0 -0.13621102149E+03  0.10414360166E+03  0.12113883425E+03  0.27203483105E+03  0.17300000000E+03 0.  1.
         -6    1    1    2    0  502  0.13621102149E+03 -0.10414360166E+03  0.64123559282E+03  0.68593834828E+03  0.17300000000E+03 0.  1.
</event>
<event>
 4    1  0.5929306E+000  0.1000000E+03  0.7546771E-02  0.1280296E+00
         21   -1    0    0  503  502  0.00000000000E+00  0.00000000000E+00  0.12967264670E+03  0.12967264670E+03  0.00000000000E+00 0.  1.
         21   -1    0    0  501  503 -0.00000000000E+00 -0.00000000000E+00 -0.80294978121E+03  0.80294978121E+03  0.00000000000E+00 0.  1.
          6    1    1    2  501    0  0.87977431583E+02 -0.54674004836E+02 -0.70069235013E+03  0.72912827733E+03  0.17300000000E+03 0.  1.
         -6    1    1    2    0  502 -0.87977431583E+02  0.54674004836E+02  0.27415215612E+02  0.20349415058E+03  0.17300000000E+03 0.  1.
</event>
<event>
 4    1  0.5929306E+000  0.1000000E+03  0.7546771E-02  0.1280296E+00
         21   -1    0    0  501  502  0.00000000000E+00  0.00000000000E+00  0.42751424019E+03  0.42751424019E+03  0.00000000000E+00 0.  1.
         21   -1    0    0  502  503 -0.00000000000E+00 -0.00000000000E+00 -0.11308810106E+03  0.11308810106E+03  0.00000000000E+00 0.  1.
          6    1    1    2  501    0  0.38910221134E+02  0.10256132540E+03  0.25544273940E+03  0.32743369388E+03  0.17300000000E+03 0.  1.
         -6    1    1    2    0  503 -0.38910221134E+02 -0.10256132540E+03  0.58983399731E+02  0.21316864737E+03  0.17300000000E+03 0.  1.
</event>
<event>
 4    1  0.5929306E+000  0.1000000E+03  0.7546771E-02  0.1280296E+00
         21   -1    0    0  501  502  0.00000000000E+00  0.00000000000E+00  0.48223831251E+03  0.48223831251E+03  0.00000000000E+00 0.  1.
         21   -1    0    0  502  503 -0.00000000000E+00 -0.00000000000E+00 -0.18487210834E+03  0.18487210834E+03  0.00000000000E+00 0.  1.
          6    1    1    2  501    0  0.17607228064E+03 -0.50942952425E+02  0.32751632630E+03  0.41327058498E+03  0.17300000000E+03 0.  1.
         -6    1    1    2    0  503 -0.17607228064E+03  0.50942952425E+02 -0.30150122127E+02  0.25383983587E+03  0.17300000000E+03 0.  1.
</event>
<event>
 4    1  0.5929306E+000  0.1000000E+03  0.7546771E-02  0.1280296E+00
         21   -1    0    0  501  502  0.00000000000E+00  0.00000000000E+00  0.55047195020E+03  0.55047195020E+03  0.00000000000E+00 0.  1.
         21   -1    0    0  502  503 -0.00000000000E+00 -0.00000000000E+00 -0.14408647394E+03  0.14408647394E+03  0.00000000000E+00 0.  1.
          6    1    1    2  501    0 -0.46021897560E+02 -0.12973009636E+03  0.41832833340E+03  0.47315484514E+03  0.17300000000E+03 0.  1.
         -6    1    1    2    0  503  0.46021897560E+02  0.12973009636E+03 -0.11942857131E+02  0.22140357900E+03  0.17300000000E+03 0.  1.
</event>
<event>
 4    1  0.5929306E+000  0.1000000E+03  0.7546771E-02  0.1280296E+00
         21   -1    0    0  501  502  0.00000000000E+00  0.00000000000E+00  0.33963697196E+02  0.33963697196E+02  0.00000000000E+00 0.  1.
         21   -1    0    0  502  503 -0.00000000000E+00 -0.00000000000E+00 -0.17448486786E+04  0.17448486786E+04  0.00000000000E+00 0.  1.
          6    1    1    2  501    0  0.16720673098E+03 -0.37032732765E+02 -0.84911649467E+03  0.88332176227E+03  0.17300000000E+03 0.  1.
         -6    1    1    2    0  503 -0.16720673098E+03  0.37032732765E+02 -0.86176848670E+03  0.89549061349E+03  0.17300000000E+03 0.  1.
</event>
<event>
 4    1  0.5929306E+000  0.1000000E+03  0.7546771E-02  0.1280296E+00
         21   -1    0    0  503  502  0.00000000000E+00  0.00000000000E+00  0.11255408795E+03  0.11255408795E+03  0.00000000000E+00 0.  1.
         21   -1    0    0  501  503 -0.00000000000E+00 -0.00000000000E+00 -0.50465678781E+03  0.50465678781E+03  0.00000000000E+00 0.  1.
          6    1    1    2  501    0  0.48052382522E+02 -0.82947798075E+02 -0.36823844130E+03  0.41799272520E+03  0.17300000000E+03 0.  1.
         -6    1    1    2    0  502 -0.48052382522E+02  0.82947798075E+02 -0.23864258561E+02  0.19921815055E+03  0.17300000000E+03 0.  1.
</event>
<event>
 4    1  0.5929306E+000  0.1000000E+03  0.7546771E-02  0.1280296E+00
         21   -1    0    0  503  502  0.00000000000E+00  0.00000000000E+00  0.42877777847E+03  0.42877777847E+03  0.00000000000E+00 0.  1.
         21   -1    0    0  501  503 -0.00000000000E+00 -0.00000000000E+00 -0.10949490637E+03  0.10949490637E+03  0.00000000000E+00 0.  1.
          6    1    1    2  501    0  0.18482235012E+01 -0.10394009912E+03  0.61735117960E+02  0.21106204046E+03  0.17300000000E+03 0.  1.
         -6    1    1    2    0  502 -0.18482235012E+01  0.10394009912E+03  0.25754775413E+03  0.32721064438E+03  0.17300000000E+03 0.  1.
</event>
<event>
 4    1  0.5929306E+000  0.1000000E+03  0.7546771E-02  0.1280296E+00
         21   -1    0    0  503  502  0.00000000000E+00  0.00000000000E+00  0.51634722101E+02  0.51634722101E+02  0.00000000000E+00 0.  1.
         21   -1    0    0  501  503 -0.00000000000E+00 -0.00000000000E+00 -0.16683579401E+04  0.16683579401E+04  0.00000000000E+00 0.  1.
          6    1    1    2  501    0  0.10979803684E+02 -0.21353996305E+03 -0.11085540345E+04  0.11421650140E+04  0.17300000000E+03 0.  1.
         -6    1    1    2    0  502 -0.10979803684E+02  0.21353996305E+03 -0.50816918348E+03  0.57782764814E+03  0.17300000000E+03 0.  1.
</event>
<event>
 4    1  0.5929306E+000  0.1000000E+03  0.7546771E-02  0.1280296E+00
         21   -1    0    0  503  502  0.00000000000E+00  0.00000000000E+00  0.15030977865E+03  0.15030977865E+03  0.00000000000E+00 0.  1.
         21   -1    0    0  501  503 -0.00000000000E+00 -0.00000000000E+00 -0.47929811164E+03  0.47929811164E+03  0.00000000000E+00 0.  1.
          6    1    1    2  501    0 -0.71330171936E+02 -0.62850333992E+02 -0.37779886025E+03  0.42626181710E+03  0.17300000000E+03 0.  1.
         -6    1    1    2    0  502  0.71330171936E+02  0.62850333992E+02  0.48810527256E+02  0.20334607319E+03  0.17300000000E+03 0.  1.
</event>
<event>
 4    1  0.5929306E+000  0.1000000E+03  0.7546771E-02  0.1280296E+00
         21   -1    0    0  501  502  0.00000000000E+00  0.00000000000E+00  0.11978425473E+03  0.11978425473E+03  0.00000000000E+00 0.  1.
         21   -1    0    0  502  503 -0.00000000000E+00 -0.00000000000E+00 -0.32766820259E+03  0.32766820259E+03  0.00000000000E+00 0.  1.
          6    1    1    2  501    0 -0.30562856930E+02  0.54012643140E+02 -0.20428732659E+02  0.18492643662E+03  0.17300000000E+03 0.  1.
         -6    1    1    2    0  503  0.30562856930E+02 -0.54012643140E+02 -0.18745521519E+03  0.26252602070E+03  0.17300000000E+03 0.  1.
</event>
<event>
 4    1  0.5929306E+000  0.1000000E+03  0.7546771E-02  0.1280296E+00
         21   -1    0    0  501  502  0.00000000000E+00  0.00000000000E+00  0.11789118597E+03  0.11789118597E+03  0.00000000000E+00 0.  1.
         21   -1    0    0  502  503 -0.00000000000E+00 -0.00000000000E+00 -0.12024657025E+04  0.12024657025E+04  0.00000000000E+00 0.  1.
          6    1    1    2  501    0  0.28273750346E+02  0.10702235122E+02  0.41673552429E+02  0.18049827636E+03  0.17300000000E+03 0.  1.
         -6    1    1    2    0  503 -0.28273750346E+02 -0.10702235122E+02 -0.11262480689E+04  0.11398586121E+04  0.17300000000E+03 0.  1.
</event>
<event>
 4    1  0.5929306E+000  0.1000000E+03  0.7546771E-02  0.1280296E+00
         21   -1    0    0  501  502  0.00000000000E+00  0.00000000000E+00  0.17119764040E+04  0.17119764040E+04  0.00000000000E+00 0. -1.
         21   -1    0    0  502  503 -0.00000000000E+00 -0.00000000000E+00 -0.59602967787E+02  0.59602967787E+02  0.00000000000E+00 0.  1.
          6    1    1    2  501    0  0.83888236947E+02 -0.14002650540E+03  0.14174588613E+04  0.14372763416E+04  0.17300000000E+03 0. -1.
         -6    1    1    2    0  503 -0.83888236947E+02  0.14002650540E+03  0.23491457489E+03  0.33430303021E+03  0.17300000000E+03 0.  1.
</event>
<event>
 4    1  0.5929306E+000  0.1000000E+03  0.7546771E-02  0.1280296E+00
         21   -1    0    0  501  502  0.00000000000E+00  0.00000000000E+00  0.18655776849E+03  0.18655776849E+03  0.00000000000E+00 0. -1.
         21   -1    0    0  502  503 -0.00000000000E+00 -0.00000000000E+00 -0.39887642307E+03  0.39887642307E+03  0.00000000000E+00 0.  1.
          6    1    1    2  501    0 -0.15906916866E+03 -0.10146386478E+03 -0.50038179927E+01  0.25603115917E+03  0.17300000000E+03 0. -1.
         -6    1    1    2    0  503  0.15906916866E+03  0.10146386478E+03 -0.20731483659E+03  0.32940303238E+03  0.17300000000E+03 0.  1.
</event>
<event>
 4    1  0.5929306E+000  0.1000000E+03  0.7546771E-02  0.1280296E+00
         21   -1    0    0  501  502  0.00000000000E+00  0.00000000000E+00  0.24795767549E+03  0.24795767549E+03  0.00000000000E+00 0. -1.
         21   -1    0    0  502  503 -0.00000000000E+00 -0.00000000000E+00 -0.23073546134E+03  0.23073546134E+03  0.00000000000E+00 0.  1.
          6    1    1    2  501    0  0.69513422845E+02  0.61054442033E+01  0.15842194281E+03  0.24473639772E+03  0.17300000000E+03 0. -1.
         -6    1    1    2    0  503 -0.69513422845E+02 -0.61054442033E+01 -0.14119972865E+03  0.23395673911E+03  0.17300000000E+03 0.  1.
</event>
<event>
 4    1  0.5929306E+000  0.1000000E+03  0.7546771E-02  0.1280296E+00
         21   -1    0    0  503  502  0.00000000000E+00  0.00000000000E+00  0.14773961973E+03  0.14773961973E+03  0.00000000000E+00 0. -1.
         21   -1    0    0  501  503 -0.00000000000E+00 -0.00000000000E+00 -0.34214475518E+03  0.34214475518E+03  0.00000000000E+00 0.  1.
          6    1    1    2  501    0  0.18816891031E+00 -0.52005213741E+02 -0.24302207868E+03  0.30280902957E+03  0.17300000000E+03 0.  1.
         -6    1    1    2    0  502 -0.18816891031E+00  0.52005213741E+02  0.48616943227E+02  0.18707534534E+03  0.17300000000E+03 0. -1.
</event>
<event>
 4    1  0.5929306E+000  0.1000000E+03  0.7546771E-02  0.1280296E+00
         21   -1    0    0  501  502  0.00000000000E+00  0.00000000000E+00  0.70192119533E+03  0.70192119533E+03  0.00000000000E+00 0. -1.
         21   -1    0    0  502  503 -0.00000000000E+00 -0.00000000000E+00 -0.62063680352E+02  0.62063680352E+02  0.00000000000E+00 0.  1.
          6    1    1    2  501    0  0.61623977160E+00 -0.69293349347E+02  0.49193436799E+03  0.52605168037E+03  0.17300000000E+03 0. -1.
         -6    1    1    2    0  503 -0.61623977160E+00  0.69293349347E+02  0.14792314699E+03  0.23793319531E+03  0.17300000000E+03 0.  1.
</event>
<event>
 4    1  0.5929306E+000  0.1000000E+03  0.7546771E-02  0.1280296E+00
         21   -1    0    0  501  502  0.00000000000E+00  0.00000000000E+00  0.55068830229E+03  0.55068830229E+03  0.00000000000E+00 0. -1.
         21   -1    0    0  502  503 -0.00000000000E+00 -0.00000000000E+00 -0.14864309229E+03  0.14864309229E+03  0.00000000000E+00 0.  1.
          6    1    1    2  501    0 -0.29846912636E+02  0.10406035607E+02  0.47682978809E+03  0.50822708565E+03  0.17300000000E+03 0. -1.
         -6    1    1    2    0  503  0.29846912636E+02 -0.10406035607E+02 -0.74784578095E+02  0.19110430893E+03  0.17300000000E+03 0.  1.
</event>
<event>
 4    1  0.5929306E+000  0.1000000E+03  0.7546771E-02  0.1280296E+00
         21   -1    0    0  503  502  0.00000000000E+00  0.00000000000E+00  0.46754835834E+03  0.46754835834E+03  0.00000000000E+00 0. -1.
         21   -1    0    0  501  503 -0.00000000000E+00 -0.00000000000E+00 -0.19303982287E+03  0.19303982287E+03  0.00000000000E+00 0.  1.
          6    1    1    2  501    0  0.82368641824E+01 -0.22401753043E+03  0.24760653769E+03  0.37615116294E+03  0.17300000000E+03 0.  1.
         -6    1    1    2    0  502 -0.82368641824E+01  0.22401753043E+03  0.26901997775E+02  0.28443701826E+03  0.17300000000E+03 0. -1.
</event>
<event>
 4    1  0.5929306E+000  0.1000000E+03  0.7546771E-02  0.1280296E+00
         21   -1    0    0  503  502  0.00000000000E+00  0.00000000000E+00  0.32733169333E+03  0.32733169333E+03  0.00000000000E+00 0. -1.
         21   -1    0    0  501  503 -0.00000000000E+00 -0.00000000000E+00 -0.11772252276E+03  0.11772252276E+03  0.00000000000E+00 0.  1.
          6    1    1    2  501    0  0.23924034635E+02  0.43394404851E+02  0.15906501949E+02  0.18065838096E+03  0.17300000000E+03 0.  1.
         -6    1    1    2    0  502 -0.23924034635E+02 -0.43394404851E+02  0.19370266863E+03  0.26439583514E+03  0.17300000000E+03 0. -1.
</event>
<event>
 4    1  0.5929306E+000  0.1000000E+03  0.7546771E-02  0.1280296E+00
         21   -1    0    0  501  502  0.00000000000E+00  0.00000000000E+00  0.79081728188E+02  0.79081728188E+02  0.00000000000E+00 0. -1.
         21   -1    0    0  502  503 -0.00000000000E+00 -0.00000000000E+00 -0.15163063142E+04  0.15163063142E+04  0.00000000000E+00 0.  1.
          6    1    1    2  501    0  0.30774083845E+02  0.32370648617E+02 -0.35303424832E+02  0.18212697475E+03  0.17300000000E+03 0.  1.
         -6    1    1    2    0  503 -0.30774083845E+02 -0.32370648617E+02 -0.14019211612E+04  0.14132610677E+04  0.17300000000E+03 0. -1.
</event>
<event>
 4    1  0.5929306E+000  0.1000000E+03  0.7546771E-02  0.1280296E+00
         21   -1    0    0  503  502  0.00000000000E+00  0.00000000000E+00  0.32182993554E+03  0.32182993554E+03  0.00000000000E+00 0. -1.
         21   -1    0    0  501  503 -0.00000000000E+00 -0.00000000000E+00 -0.94606107693E+02  0.94606107693E+02  0.00000000000E+00 0. -1.
          6    1    1    2  501    0  0.12039331925E+02 -0.19189365926E+02  0.11625344177E+03  0.20965934275E+03  0.17300000000E+03 0. -1.
         -6    1    1    2    0  502 -0.12039331925E+02  0.19189365926E+02  0.11097038607E+03  0.20677670048E+03  0.17300000000E+03 0. -1.
</event>
<event>
 4    1  0.5929306E+000  0.1000000E+03  0.7546771E-02  0.1280296E+00
         21   -1    0    0  503  502  0.00000000000E+00  0.00000000000E+00  0.29211701480E+03  0.29211701480E+03  0.00000000000E+00 0. -1.
         21   -1    0    0  501  503 -0.00000000000E+00 -0.00000000000E+00 -0.56673500917E+03  0.56673500917E+03  0.00000000000E+00 0. -1.
          6    1    1    2  501    0  0.11299840368E+03 -0.88471809490E+02 -0.49525849522E+03  0.54388038886E+03  0.17300000000E+03 0. -1.
         -6    1    1    2    0  502 -0.11299840368E+03  0.88471809490E+02  0.22064050085E+03  0.31497163511E+03  0.17300000000E+03 0. -1.
</event>
<event>
 4    1  0.5929306E+000  0.1000000E+03  0.7546771E-02  0.1280296E+00
         21   -1    0    0  503  502  0.00000000000E+00  0.00000000000E+00  0.70974954392E+02  0.70974954392E+02  0.00000000000E+00 0. -1.
         21   -1    0    0  501  503 -0.00000000000E+00 -0.00000000000E+00 -0.77606494351E+03  0.77606494351E+03  0.00000000000E+00 0. -1.
          6    1    1    2  501    0 -0.12437542633E+03 -0.23817612496E+01 -0.53006543189E+03  0.57129089048E+03  0.17300000000E+03 0. -1.
         -6    1    1    2    0  502  0.12437542633E+03  0.23817612496E+01 -0.17502455723E+03  0.27574900742E+03  0.17300000000E+03 0. -1.
</event>
<event>
 4    1  0.5929306E+000  0.1000000E+03  0.7546771E-02  0.1280296E+00
         21   -1    0    0  503  502  0.00000000000E+00  0.00000000000E+00  0.26785576131E+04  0.26785576131E+04  0.00000000000E+00 0. -1.
         21   -1    0    0  501  503 -0.00000000000E+00 -0.00000000000E+00 -0.18875478946E+02  0.18875478946E+02  0.00000000000E+00 0. -1.
          6    1    1    2  501    0 -0.61413766616E+02  0.20259567391E+02  0.56057392854E+03  0.59021540997E+03  0.17300000000E+03 0. -1.
         -6    1    1    2    0  502  0.61413766616E+02 -0.20259567391E+02  0.20991082056E+04  0.21072176820E+04  0.17300000000E+03 0. -1.
</event>
<event>
 4    1  0.5929306E+000  0.1000000E+03  0.7546771E-02  0.1280296E+00
         21   -1    0    0  503  502  0.00000000000E+00  0.00000000000E+00  0.93019542453E+02  0.93019542453E+02  0.00000000000E+00 0. -1.
         21   -1    0    0  501  503 -0.00000000000E+00 -0.00000000000E+00 -0.39068261942E+03  0.39068261942E+03  0.00000000000E+00 0. -1.
          6    1    1    2  501    0 -0.16004706052E+02 -0.77720295085E+02 -0.13519562364E+03  0.23345974286E+03  0.17300000000E+03 0. -1.
         -6    1    1    2    0  502  0.16004706052E+02  0.77720295085E+02 -0.16246745332E+03  0.25024241901E+03  0.17300000000E+03 0. -1.
</event>
<event>
 4    1  0.5929306E+000  0.1000000E+03  0.7546771E-02  0.1280296E+00
         21   -1    0    0  503  502  0.00000000000E+00  0.00000000000E+00  0.18136591877E+03  0.18136591877E+03  0.00000000000E+00 0. -1.
         21   -1    0    0  501  503 -0.00000000000E+00 -0.00000000000E+00 -0.62578069443E+03  0.62578069443E+03  0.00000000000E+00 0. -1.
          6    1    1    2  501    0  0.36243546657E+02 -0.52137763541E+02 -0.56004724074E+03  0.58958786701E+03  0.17300000000E+03 0. -1.
         -6    1    1    2    0  502 -0.36243546657E+02  0.52137763541E+02  0.11563246509E+03  0.21755874619E+03  0.17300000000E+03 0. -1.
</event>
<event>
 4    1  0.5929306E+000  0.1000000E+03  0.7546771E-02  0.1280296E+00
         21   -1    0    0  503  502  0.00000000000E+00  0.00000000000E+00  0.41452061256E+03  0.41452061256E+03  0.00000000000E+00 0. -1.
         21   -1    0    0  501  503 -0.00000000000E+00 -0.00000000000E+00 -0.18507449873E+03  0.18507449873E+03  0.00000000000E+00 0. -1.
          6    1    1    2  501    0 -0.36685108641E+02 -0.26958989812E+02 -0.11415877042E+03  0.21221170842E+03  0.17300000000E+03 0. -1.
         -6    1    1    2    0  502  0.36685108641E+02  0.26958989812E+02  0.34360488426E+03  0.38738340286E+03  0.17300000000E+03 0. -1.
</event>
<event>
 4    1  0.5929306E+000  0.1000000E+03  0.7546771E-02  0.1280296E+00
         21   -1    0    0  503  502  0.00000000000E+00  0.00000000000E+00  0.37604523192E+03  0.37604523192E+03  0.00000000000E+00 0. -1.
         21   -1    0    0  501  503 -0.00000000000E+00 -0.00000000000E+00 -0.10988160352E+03  0.10988160352E+03  0.00000000000E+00 0. -1.
          6    1    1    2  501    0 -0.51423733205E+02 -0.24402427942E+02  0.25167490080E+02  0.18385396755E+03  0.17300000000E+03 0. -1.
         -6    1    1    2    0  502  0.51423733205E+02  0.24402427942E+02  0.24099613832E+03  0.30207286788E+03  0.17300000000E+03 0. -1.
</event>
<event>
 4    1  0.5929306E+000  0.1000000E+03  0.7546771E-02  0.1280296E+00
         21   -1    0    0  503  502  0.00000000000E+00  0.00000000000E+00  0.19572881625E+04  0.19572881625E+04  0.00000000000E+00 0. -1.
         21   -1    0    0  501  503 -0.00000000000E+00 -0.00000000000E+00 -0.45281491633E+03  0.45281491633E+03  0.00000000000E+00 0. -1.
          6    1    1    2  501    0 -0.44619387901E+03 -0.35646642138E+02 -0.28450371811E+03  0.55788083528E+03  0.17300000000E+03 0. -1.
         -6    1    1    2    0  502  0.44619387901E+03  0.35646642138E+02  0.17889769643E+04  0.18522222436E+04  0.17300000000E+03 0. -1.
</event>
<event>
 4    1  0.5929306E+000  0.1000000E+03  0.7546771E-02  0.1280296E+00
         21   -1    0    0  501  502  0.00000000000E+00  0.00000000000E+00  0.32040292159E+03  0.32040292159E+03  0.00000000000E+00 0.  1.
         21   -1    0    0  502  503 -0.00000000000E+00 -0.00000000000E+00 -0.39345556967E+03  0.39345556967E+03  0.00000000000E+00 0.  1.
          6    1    1    2  501    0  0.23950124576E+03 -0.30140004829E+01  0.16140206587E+03  0.33667426066E+03  0.17300000000E+03 0.  1.
         -6    1    1    2    0  503 -0.23950124576E+03  0.30140004829E+01 -0.23445471395E+03  0.37718423060E+03  0.17300000000E+03 0.  1.
</event>
<event>
 4    1  0.5929306E+000  0.1000000E+03  0.7546771E-02  0.1280296E+00
         21   -1    0    0  501  502  0.00000000000E+00  0.00000000000E+00  0.39565076631E+03  0.39565076631E+03  0.00000000000E+00 0.  1.
         21   -1    0    0  502  503 -0.00000000000E+00 -0.00000000000E+00 -0.19720164879E+03  0.19720164879E+03  0.00000000000E+00 0.  1.
          6    1    1    2  501    0  0.20879866930E+02 -0.20680998383E+03  0.25032886902E+02  0.27159157513E+03  0.17300000000E+03 0.  1.
         -6    1    1    2    0  503 -0.20879866930E+02  0.20680998383E+03  0.17341623061E+03  0.32126083997E+03  0.17300000000E+03 0.  1.
</event>
<event>
 4    1  0.5929306E+000  0.1000000E+03  0.7546771E-02  0.1280296E+00
         21   -1    0    0  501  502  0.00000000000E+00  0.00000000000E+00  0.40993121219E+03  0.40993121219E+03  0.00000000000E+00 0. -1.
         21   -1    0    0  502  503 -0.00000000000E+00 -0.00000000000E+00 -0.14239859697E+03  0.14239859697E+03  0.00000000000E+00 0. -1.
          6    1    1    2  501    0 -0.15510651255E+02 -0.26452897869E+02  0.32333228056E+03  0.36798518959E+03  0.17300000000E+03 0. -1.
         -6    1    1    2    0  503  0.15510651255E+02  0.26452897869E+02 -0.55799665341E+02  0.18434461956E+03  0.17300000000E+03 0. -1.
</event>
<event>
 4    1  0.5929306E+000  0.1000000E+03  0.7546771E-02  0.1280296E+00
         21   -1    0    0  501  502  0.00000000000E+00  0.00000000000E+00  0.17784792848E+03  0.17784792848E+03  0.00000000000E+00 0.  1.
         21   -1    0    0  502  503 -0.00000000000E+00 -0.00000000000E+00 -0.24250768998E+03  0.24250768998E+03  0.00000000000E+00 0.  1.
          6    1    1    2  501    0 -0.32162667392E+02 -0.43262976156E+02  0.70353354391E+02  0.19438291271E+03  0.17300000000E+03 0.  1.
         -6    1    1    2    0  503  0.32162667392E+02  0.43262976156E+02 -0.13501311590E+03  0.22597270575E+03  0.17300000000E+03 0.  1.
</event>
<event>
 4    1  0.5929306E+000  0.1000000E+03  0.7546771E-02  0.1280296E+00
         21   -1    0    0  501  502  0.00000000000E+00  0.00000000000E+00  0.11838440702E+03  0.11838440702E+03  0.00000000000E+00 0. -1.
         21   -1    0    0  502  503 -0.00000000000E+00 -0.00000000000E+00 -0.70861875441E+03  0.70861875441E+03  0.00000000000E+00 0.  1.
          6    1    1    2  501    0 -0.36001098179E+02  0.18766252388E+02  0.31414208499E+02  0.18045526813E+03  0.17300000000E+03 0. -1.
         -6    1    1    2    0  503  0.36001098179E+02 -0.18766252388E+02 -0.62164855589E+03  0.64654789330E+03  0.17300000000E+03 0.  1.
</event>
<event>
 4    1  0.5929306E+000  0.1000000E+03  0.7546771E-02  0.1280296E+00
         21   -1    0    0  503  502  0.00000000000E+00  0.00000000000E+00  0.21977678275E+04  0.21977678275E+04  0.00000000000E+00 0.  1.
         21   -1    0    0  501  503 -0.00000000000E+00 -0.00000000000E+00 -0.83329992258E+03  0.83329992258E+03  0.00000000000E+00 0. -1.
          6    1    1    2  501    0 -0.73898860334E+03 -0.11044928465E+04  0.47134363382E+03  0.14205993190E+04  0.17300000000E+03 0.  1.
         -6    1    1    2    0  502  0.73898860334E+03  0.11044928465E+04  0.89312427109E+03  0.16104684311E+04  0.17300000000E+03 0. -1.
</event>
<event>
 4    1  0.5929306E+000  0.1000000E+03  0.7546771E-02  0.1280296E+00
         21   -1    0    0  501  502  0.00000000000E+00  0.00000000000E+00  0.16118786145E+03  0.16118786145E+03  0.00000000000E+00 0.  1.
         21   -1    0    0  502  503 -0.00000000000E+00 -0.00000000000E+00 -0.37679779910E+03  0.37679779910E+03  0.00000000000E+00 0.  1.
          6    1    1    2  501    0 -0.42644506889E+02  0.10808504212E+03  0.35780317874E+02  0.21144777474E+03  0.17300000000E+03 0.  1.
         -6    1    1    2    0  503  0.42644506889E+02 -0.10808504212E+03 -0.25139025552E+03  0.32653788581E+03  0.17300000000E+03 0.  1.
</event>
<event>
 4    1  0.5929306E+000  0.1000000E+03  0.7546771E-02  0.1280296E+00
         21   -1    0    0  501  502  0.00000000000E+00  0.00000000000E+00  0.13819159679E+03  0.13819159679E+03  0.00000000000E+00 0.  1.
         21   -1    0    0  502  503 -0.00000000000E+00 -0.00000000000E+00 -0.35719327544E+03  0.35719327544E+03  0.00000000000E+00 0.  1.
          6    1    1    2  501    0  0.51329867258E+02  0.10465340321E+03 -0.24266763943E+02  0.21001182326E+03  0.17300000000E+03 0.  1.
         -6    1    1    2    0  503 -0.51329867258E+02 -0.10465340321E+03 -0.19473491471E+03  0.28537304898E+03  0.17300000000E+03 0.  1.
</event>
<event>
 4    1  0.5929306E+000  0.1000000E+03  0.7546771E-02  0.1280296E+00
         21   -1    0    0  501  502  0.00000000000E+00  0.00000000000E+00  0.24703515041E+03  0.24703515041E+03  0.00000000000E+00 0.  1.
         21   -1    0    0  502  503 -0.00000000000E+00 -0.00000000000E+00 -0.66767611712E+03  0.66767611712E+03  0.00000000000E+00 0.  1.
          6    1    1    2  501    0  0.86410242219E+02 -0.53154399744E+02  0.18738072799E+03  0.27446795331E+03  0.17300000000E+03 0.  1.
         -6    1    1    2    0  503 -0.86410242219E+02  0.53154399744E+02 -0.60802169470E+03  0.64024331422E+03  0.17300000000E+03 0.  1.
</event>
<event>
 4    1  0.5929306E+000  0.1000000E+03  0.7546771E-02  0.1280296E+00
         21   -1    0    0  503  502  0.00000000000E+00  0.00000000000E+00  0.25599712434E+04  0.25599712434E+04  0.00000000000E+00 0.  1.
         21   -1    0    0  501  503 -0.00000000000E+00 -0.00000000000E+00 -0.35861723729E+03  0.35861723729E+03  0.00000000000E+00 0. -1.
          6    1    1    2  501    0 -0.62119003749E+02 -0.32269642157E+03 -0.24454193783E+03  0.44465886979E+03  0.17300000000E+03 0.  1.
         -6    1    1    2    0  502  0.62119003749E+02  0.32269642157E+03  0.24458959439E+04  0.24739296109E+04  0.17300000000E+03 0. -1.
</event>
<event>
 4    1  0.5929306E+000  0.1000000E+03  0.7546771E-02  0.1280296E+00
         21   -1    0    0  503  502  0.00000000000E+00  0.00000000000E+00  0.32575146723E+03  0.32575146723E+03  0.00000000000E+00 0.  1.
         21   -1    0    0  501  503 -0.00000000000E+00 -0.00000000000E+00 -0.16884208796E+03  0.16884208796E+03  0.00000000000E+00 0. -1.
          6    1    1    2  501    0 -0.87435540491E+02  0.12553314545E+03  0.12152070544E+03  0.26095943401E+03  0.17300000000E+03 0.  1.
         -6    1    1    2    0  502  0.87435540491E+02 -0.12553314545E+03  0.35388673829E+02  0.23363412119E+03  0.17300000000E+03 0. -1.
</event>
<event>
 4    1  0.5929306E+000  0.1000000E+03  0.7546771E-02  0.1280296E+00
         21   -1    0    0  501  502  0.00000000000E+00  0.00000000000E+00  0.14493559940E+03  0.14493559940E+03  0.00000000000E+00 0.  1.
         21   -1    0    0  502  503 -0.00000000000E+00 -0.00000000000E+00 -0.49682557269E+03  0.49682557269E+03  0.00000000000E+00 0. -1.
          6    1    1    2  501    0  0.19477323105E+02  0.10287612889E+03  0.34988124148E+02  0.20522191121E+03  0.17300000000E+03 0.  1.
         -6    1    1    2    0  503 -0.19477323105E+02 -0.10287612889E+03 -0.38687809744E+03  0.43653926088E+03  0.17300000000E+03 0. -1.
</event>
<event>
 4    1  0.5929306E+000  0.1000000E+03  0.7546771E-02  0.1280296E+00
         21   -1    0    0  501  502  0.00000000000E+00  0.00000000000E+00  0.67638375931E+02  0.67638375931E+02  0.00000000000E+00 0. -1.
         21   -1    0    0  502  503 -0.00000000000E+00 -0.00000000000E+00 -0.74137736647E+03  0.74137736647E+03  0.00000000000E+00 0.  1.
          6    1    1    2  501    0  0.12960470678E+03  0.19424411307E+02 -0.23724152418E+03  0.32153884457E+03  0.17300000000E+03 0. -1.
         -6    1    1    2    0  503 -0.12960470678E+03 -0.19424411307E+02 -0.43649746636E+03  0.48747689783E+03  0.17300000000E+03 0.  1.
</event>
<event>
 4    1  0.5929306E+000  0.1000000E+03  0.7546771E-02  0.1280296E+00
         21   -1    0    0  503  502  0.00000000000E+00  0.00000000000E+00  0.47794041986E+03  0.47794041986E+03  0.00000000000E+00 0. -1.
         21   -1    0    0  501  503 -0.00000000000E+00 -0.00000000000E+00 -0.24735570033E+03  0.24735570033E+03  0.00000000000E+00 0.  1.
          6    1    1    2  501    0 -0.64467783642E+02 -0.19597444265E+03 -0.11025570981E+03  0.29094226033E+03  0.17300000000E+03 0.  1.
         -6    1    1    2    0  502  0.64467783642E+02  0.19597444265E+03  0.34084042934E+03  0.43435385986E+03  0.17300000000E+03 0.  1.
</event>
<event>
 4    1  0.5929306E+000  0.1000000E+03  0.7546771E-02  0.1280296E+00
         21   -1    0    0  503  502  0.00000000000E+00  0.00000000000E+00  0.55081745378E+03  0.55081745378E+03  0.00000000000E+00 0. -1.
         21   -1    0    0  501  503 -0.00000000000E+00 -0.00000000000E+00 -0.13635426429E+03  0.13635426429E+03  0.00000000000E+00 0.  1.
          6    1    1    2  501    0  0.51823667348E+02 -0.59096247419E+02 -0.40353900681E+02  0.19425626439E+03  0.17300000000E+03 0.  1.
         -6    1    1    2    0  502 -0.51823667348E+02  0.59096247419E+02  0.45481709017E+03  0.49291545367E+03  0.17300000000E+03 0.  1.
</event>
<event>
 4    1  0.5929306E+000  0.1000000E+03  0.7546771E-02  0.1280296E+00
         21   -1    0    0  501  502  0.00000000000E+00  0.00000000000E+00  0.66354651579E+02  0.66354651579E+02  0.00000000000E+00 0.  1.
         21   -1    0    0  502  503 -0.00000000000E+00 -0.00000000000E+00 -0.52911782686E+03  0.52911782686E+03  0.00000000000E+00 0.  1.
          6    1    1    2  501    0  0.31466738240E+02 -0.58798957741E+02 -0.27440043470E+03  0.33116773939E+03  0.17300000000E+03 0. -1.
         -6    1    1    2    0  503 -0.31466738240E+02  0.58798957741E+02 -0.18836274058E+03  0.26430473905E+03  0.17300000000E+03 0. -1.
</event>
<event>
 4    1  0.5929306E+000  0.1000000E+03  0.7546771E-02  0.1280296E+00
         21   -1    0    0  501  502  0.00000000000E+00  0.00000000000E+00  0.43519172997E+02  0.43519172997E+02  0.00000000000E+00 0.  1.
         21   -1    0    0  502  503 -0.00000000000E+00 -0.00000000000E+00 -0.10471942079E+04  0.10471942079E+04  0.00000000000E+00 0.  1.
          6    1    1    2  501    0  0.98909297294E+02 -0.52843475682E+02 -0.36032564354E+03  0.41513738859E+03  0.17300000000E+03 0. -1.
         -6    1    1    2    0  503 -0.98909297294E+02  0.52843475682E+02 -0.64334939138E+03  0.67557599232E+03  0.17300000000E+03 0. -1.
</event>
<event>
 4    1  0.5929306E+000  0.1000000E+03  0.7546771E-02  0.1280296E+00
         21   -1    0    0  503  502  0.00000000000E+00  0.00000000000E+00  0.18240803955E+03  0.18240803955E+03  0.00000000000E+00 0.  1.
         21   -1    0    0  501  503 -0.00000000000E+00 -0.00000000000E+00 -0.23813408140E+03  0.23813408140E+03  0.00000000000E+00 0. -1.
          6    1    1    2  501    0  0.42146442067E+02 -0.58765279025E+02 -0.11966093323E+03  0.22243520301E+03  0.17300000000E+03 0. -1.
         -6    1    1    2    0  502 -0.42146442067E+02  0.58765279025E+02  0.63934891381E+02  0.19810691793E+03  0.17300000000E+03 0.  1.
</event>
<event>
 4    1  0.5929306E+000  0.1000000E+03  0.7546771E-02  0.1280296E+00
         21   -1    0    0  501  502  0.00000000000E+00  0.00000000000E+00  0.12165055316E+03  0.12165055316E+03  0.00000000000E+00 0.  1.
         21   -1    0    0  502  503 -0.00000000000E+00 -0.00000000000E+00 -0.32921641369E+03  0.32921641369E+03  0.00000000000E+00 0. -1.
          6    1    1    2  501    0  0.82231319081E+02  0.31733491565E+02 -0.15840645163E+03  0.25058054242E+03  0.17300000000E+03 0. -1.
         -6    1    1    2    0  503 -0.82231319081E+02 -0.31733491565E+02 -0.49159408909E+02  0.20028642443E+03  0.17300000000E+03 0.  1.
</event>
<event>
 4    1  0.5929306E+000  0.1000000E+03  0.7546771E-02  0.1280296E+00
         21   -1    0    0  501  502  0.00000000000E+00  0.00000000000E+00  0.25538498922E+03  0.25538498922E+03  0.00000000000E+00 0.  1.
         21   -1    0    0  502  503 -0.00000000000E+00 -0.00000000000E+00 -0.71974184510E+03  0.71974184510E+03  0.00000000000E+00 0. -1.
          6    1    1    2  501    0  0.12737699414E+03 -0.30841227567E+03  0.23739711373E+01  0.37586921416E+03  0.17300000000E+03 0. -1.
         -6    1    1    2    0  503 -0.12737699414E+03  0.30841227567E+03 -0.46673082702E+03  0.59925762015E+03  0.17300000000E+03 0.  1.
</event>
<event>
 4    1  0.5929306E+000  0.1000000E+03  0.7546771E-02  0.1280296E+00
         21   -1    0    0  501  502  0.00000000000E+00  0.00000000000E+00  0.33255679382E+03  0.33255679382E+03  0.00000000000E+00 0.  1.
         21   -1    0    0  502  503 -0.00000000000E+00 -0.00000000000E+00 -0.26493178012E+03  0.26493178012E+03  0.00000000000E+00 0. -1.
          6    1    1    2  501    0  0.69706028495E+02  0.15350888382E+03  0.20741558688E+03  0.31839304876E+03  0.17300000000E+03 0. -1.
         -6    1    1    2    0  503 -0.69706028495E+02 -0.15350888382E+03 -0.13979057318E+03  0.27909552517E+03  0.17300000000E+03 0.  1.
</event>
<event>
 4    1  0.5929306E+000  0.1000000E+03  0.7546771E-02  0.1280296E+00
         21   -1    0    0  501  502  0.00000000000E+00  0.00000000000E+00  0.49786719775E+03  0.49786719775E+03  0.00000000000E+00 0.  1.
         21   -1    0    0  502  503 -0.00000000000E+00 -0.00000000000E+00 -0.96051381713E+02  0.96051381713E+02  0.00000000000E+00 0. -1.
          6    1    1    2  501    0 -0.60034852432E+02 -0.19709620469E+02  0.36100481229E+03  0.40527290453E+03  0.17300000000E+03 0. -1.
         -6    1    1    2    0  503  0.60034852432E+02  0.19709620469E+02  0.40811003745E+02  0.18864567494E+03  0.17300000000E+03 0.  1.
</event>
<event>
 4    1  0.5929306E+000  0.1000000E+03  0.7546771E-02  0.1280296E+00
         21   -1    0    0  503  502  0.00000000000E+00  0.00000000000E+00  0.23436105458E+02  0.23436105458E+02  0.00000000000E+00 0. -1.
         21   -1    0    0  501  503 -0.00000000000E+00 -0.00000000000E+00 -0.17817517650E+04  0.17817517650E+04  0.00000000000E+00 0. -1.
          6    1    1    2  501    0  0.96437666347E+02 -0.44082186389E+02 -0.98597766596E+03  0.10066401643E+04  0.17300000000E+03 0. -1.
         -6    1    1    2    0  502 -0.96437666347E+02  0.44082186389E+02 -0.77233799355E+03  0.79854770610E+03  0.17300000000E+03 0. -1.
</event>
<event>
 4    1  0.5929306E+000  0.1000000E+03  0.7546771E-02  0.1280296E+00
         21   -1    0    0  503  502  0.00000000000E+00  0.00000000000E+00  0.13285134880E+03  0.13285134880E+03  0.00000000000E+00 0. -1.
         21   -1    0    0  501  503 -0.00000000000E+00 -0.00000000000E+00 -0.24073614326E+03  0.24073614326E+03  0.00000000000E+00 0. -1.
          6    1    1    2  501    0 -0.38272048372E+02  0.24231693822E+02 -0.55084999461E+02  0.18712370731E+03  0.17300000000E+03 0. -1.
         -6    1    1    2    0  502  0.38272048372E+02 -0.24231693822E+02 -0.52799795001E+02  0.18646378475E+03  0.17300000000E+03 0. -1.
</event>
<event>
 4    1  0.5929306E+000  0.1000000E+03  0.7546771E-02  0.1280296E+00
         21   -1    0    0  503  502  0.00000000000E+00  0.00000000000E+00  0.44574901382E+02  0.44574901382E+02  0.00000000000E+00 0. -1.
         21   -1    0    0  501  503 -0.00000000000E+00 -0.00000000000E+00 -0.12706988344E+04  0.12706988344E+04  0.00000000000E+00 0. -1.
          6    1    1    2  501    0  0.32368315588E+02 -0.66082119631E+01 -0.10553618475E+04  0.10699574783E+04  0.17300000000E+03 0. -1.
         -6    1    1    2    0  502 -0.32368315588E+02  0.66082119631E+01 -0.17076208559E+03  0.24531625750E+03  0.17300000000E+03 0. -1.
</event>
<event>
 4    1  0.5929306E+000  0.1000000E+03  0.7546771E-02  0.1280296E+00
         21   -1    0    0  501  502  0.00000000000E+00  0.00000000000E+00  0.27373034548E+03  0.27373034548E+03  0.00000000000E+00 0.  1.
         21   -1    0    0  502  503 -0.00000000000E+00 -0.00000000000E+00 -0.39948870628E+03  0.39948870628E+03  0.00000000000E+00 0.  1.
          6    1    1    2  501    0  0.39531522027E+02  0.74436537934E+02  0.21086242544E+03  0.28547417024E+03  0.17300000000E+03 0. -1.
         -6    1    1    2    0  503 -0.39531522027E+02 -0.74436537934E+02 -0.33662078624E+03  0.38774488152E+03  0.17300000000E+03 0. -1.
</event>
<event>
 4    1  0.5929306E+000  0.1000000E+03  0.7546771E-02  0.1280296E+00
         21   -1    0    0  501  502  0.00000000000E+00  0.00000000000E+00  0.59710111229E+03  0.59710111229E+03  0.00000000000E+00 0.  1.
         21   -1    0    0  502  503 -0.00000000000E+00 -0.00000000000E+00 -0.51743981018E+02  0.51743981018E+02  0.00000000000E+00 0. -1.
          6    1    1    2  501    0  0.85522334958E+01  0.18365722687E+02  0.31623622693E+03  0.36103295098E+03  0.17300000000E+03 0. -1.
         -6    1    1    2    0  503 -0.85522334958E+01 -0.18365722687E+02  0.22912090434E+03  0.28781214233E+03  0.17300000000E+03 0.  1.
</event>
<event>
 4    1  0.5929306E+000  0.1000000E+03  0.7546771E-02  0.1280296E+00
         21   -1    0    0  501  502  0.00000000000E+00  0.00000000000E+00  0.50357745780E+03  0.50357745780E+03  0.00000000000E+00 0.  1.
         21   -1    0    0  502  503 -0.00000000000E+00 -0.00000000000E+00 -0.98793318723E+02  0.98793318723E+02  0.00000000000E+00 0. -1.
          6    1    1    2  501    0 -0.61337358127E+02  0.14004600419E+02  0.37246114909E+03  0.41546926230E+03  0.17300000000E+03 0. -1.
         -6    1    1    2    0  503  0.61337358127E+02 -0.14004600419E+02  0.32322989980E+02  0.18690151422E+03  0.17300000000E+03 0.  1.
</event>
<event>
 4    1  0.5929306E+000  0.1000000E+03  0.7546771E-02  0.1280296E+00
         21   -1    0    0  503  502  0.00000000000E+00  0.00000000000E+00  0.27422889025E+03  0.27422889025E+03  0.00000000000E+00 0. -1.
         21   -1    0    0  501  503 -0.00000000000E+00 -0.00000000000E+00 -0.71443838080E+03  0.71443838080E+03  0.00000000000E+00 0. -1.
          6    1    1    2  501    0 -0.11256938100E+03  0.11392969215E+03 -0.63848391673E+03  0.68061924173E+03  0.17300000000E+03 0. -1.
         -6    1    1    2    0  502  0.11256938100E+03 -0.11392969215E+03  0.19827442618E+03  0.30804802932E+03  0.17300000000E+03 0. -1.
</event>
<event>
 4    1  0.5929306E+000  0.1000000E+03  0.7546771E-02  0.1280296E+00
         21   -1    0    0  503  502  0.00000000000E+00  0.00000000000E+00  0.82083483881E+03  0.82083483881E+03  0.00000000000E+00 0. -1.
         21   -1    0    0  501  503 -0.00000000000E+00 -0.00000000000E+00 -0.89458743721E+02  0.89458743721E+02  0.00000000000E+00 0. -1.
          6    1    1    2  501    0 -0.11247862025E+03 -0.36609573321E+01  0.70738092568E+02  0.21816901788E+03  0.17300000000E+03 0. -1.
         -6    1    1    2    0  502  0.11247862025E+03  0.36609573321E+01  0.66063800252E+03  0.69212456465E+03  0.17300000000E+03 0. -1.
</event>
<event>
 4    1  0.5929306E+000  0.1000000E+03  0.7546771E-02  0.1280296E+00
         21   -1    0    0  503  502  0.00000000000E+00  0.00000000000E+00  0.68755382829E+03  0.68755382829E+03  0.00000000000E+00 0. -1.
         21   -1    0    0  501  503 -0.00000000000E+00 -0.00000000000E+00 -0.10176695047E+03  0.10176695047E+03  0.00000000000E+00 0. -1.
          6    1    1    2  501    0  0.90448164949E+02 -0.99411856112E+02  0.71707447113E+02  0.23050931792E+03  0.17300000000E+03 0. -1.
         -6    1    1    2    0  502 -0.90448164949E+02  0.99411856112E+02  0.51407943071E+03  0.55881146083E+03  0.17300000000E+03 0. -1.
</event>
<event>
 4    1  0.5929306E+000  0.1000000E+03  0.7546771E-02  0.1280296E+00
         21   -1    0    0  501  502  0.00000000000E+00  0.00000000000E+00  0.97048637252E+02  0.97048637252E+02  0.00000000000E+00 0.  1.
         21   -1    0    0  502  503 -0.00000000000E+00 -0.00000000000E+00 -0.70040757727E+03  0.70040757727E+03  0.00000000000E+00 0.  1.
          6    1    1    2  501    0  0.51160106401E+02  0.11864034528E+03 -0.78207492071E+02  0.22964820886E+03  0.17300000000E+03 0.  1.
         -6    1    1    2    0  503 -0.51160106401E+02 -0.11864034528E+03 -0.52515144795E+03  0.56780800567E+03  0.17300000000E+03 0.  1.
</event>
<event>
 4    1  0.5929306E+000  0.1000000E+03  0.7546771E-02  0.1280296E+00
         21   -1    0    0  503  502  0.00000000000E+00  0.00000000000E+00  0.70928959817E+03  0.70928959817E+03  0.00000000000E+00 0. -1.
         21   -1    0    0  501  503 -0.00000000000E+00 -0.00000000000E+00 -0.49605775439E+02  0.49605775439E+02  0.00000000000E+00 0. -1.
          6    1    1    2  501    0  0.47479944894E+02  0.22016404785E+02  0.22835786720E+03  0.29123080668E+03  0.17300000000E+03 0. -1.
         -6    1    1    2    0  502 -0.47479944894E+02 -0.22016404785E+02  0.43132595553E+03  0.46766456693E+03  0.17300000000E+03 0. -1.
</event>
<event>
 4    1  0.5929306E+000  0.1000000E+03  0.7546771E-02  0.1280296E+00
         21   -1    0    0  503  502  0.00000000000E+00  0.00000000000E+00  0.66708482882E+03  0.66708482882E+03  0.00000000000E+00 0. -1.
         21   -1    0    0  501  503 -0.00000000000E+00 -0.00000000000E+00 -0.11706758743E+03  0.11706758743E+03  0.00000000000E+00 0. -1.
          6    1    1    2  501    0  0.75107791086E+02  0.89666721598E+02  0.14472095225E+02  0.20933165739E+03  0.17300000000E+03 0. -1.
         -6    1    1    2    0  502 -0.75107791086E+02 -0.89666721598E+02  0.53554514617E+03  0.57482075887E+03  0.17300000000E+03 0. -1.
</event>
<event>
 4    1  0.5929306E+000  0.1000000E+03  0.7546771E-02  0.1280296E+00
         21   -1    0    0  503  502  0.00000000000E+00  0.00000000000E+00  0.20505942741E+03  0.20505942741E+03  0.00000000000E+00 0. -1.
         21   -1    0    0  501  503 -0.00000000000E+00 -0.00000000000E+00 -0.64803570834E+03  0.64803570834E+03  0.00000000000E+00 0. -1.
          6    1    1    2  501    0  0.31246671934E+03 -0.35764762052E+02 -0.14709371709E+03  0.38791768523E+03  0.17300000000E+03 0. -1.
         -6    1    1    2    0  502 -0.31246671934E+03  0.35764762052E+02 -0.29588256383E+03  0.46517745053E+03  0.17300000000E+03 0. -1.
</event>
<event>
 4    1  0.5929306E+000  0.1000000E+03  0.7546771E-02  0.1280296E+00
         21   -1    0    0  503  502  0.00000000000E+00  0.00000000000E+00  0.31191549815E+03  0.31191549815E+03  0.00000000000E+00 0. -1.
         21   -1    0    0  501  503 -0.00000000000E+00 -0.00000000000E+00 -0.13315584017E+03  0.13315584017E+03  0.00000000000E+00 0. -1.
          6    1    1    2  501    0  0.10075409337E+03  0.34283886243E+02  0.10757303502E+03  0.22984283772E+03  0.17300000000E+03 0. -1.
         -6    1    1    2    0  502 -0.10075409337E+03 -0.34283886243E+02  0.71186622957E+02  0.21522850061E+03  0.17300000000E+03 0. -1.
</event>
<event>
 4    1  0.5929306E+000  0.1000000E+03  0.7546771E-02  0.1280296E+00
         21   -1    0    0  503  502  0.00000000000E+00  0.00000000000E+00  0.77304098008E+03  0.77304098008E+03  0.00000000000E+00 0. -1.
         21   -1    0    0  501  503 -0.00000000000E+00 -0.00000000000E+00 -0.97286138613E+02  0.97286138613E+02  0.00000000000E+00 0. -1.
          6    1    1    2  501    0  0.11424344373E+03  0.43744678797E+01  0.53105376865E+02  0.21405579053E+03  0.17300000000E+03 0. -1.
         -6    1    1    2    0  502 -0.11424344373E+03 -0.43744678797E+01  0.62264946460E+03  0.65627132816E+03  0.17300000000E+03 0. -1.
</event>
<event>
 4    1  0.5929306E+000  0.1000000E+03  0.7546771E-02  0.1280296E+00
         21   -1    0    0  501  502  0.00000000000E+00  0.00000000000E+00  0.27661089250E+03  0.27661089250E+03  0.00000000000E+00 0. -1.
         21   -1    0    0  502  503 -0.00000000000E+00 -0.00000000000E+00 -0.47799949646E+03  0.47799949646E+03  0.00000000000E+00 0. -1.
          6    1    1    2  501    0 -0.72751839369E+02  0.13120007960E+03  0.19239765273E+03  0.29908551920E+03  0.17300000000E+03 0. -1.
         -6    1    1    2    0  503  0.72751839369E+02 -0.13120007960E+03 -0.39378625669E+03  0.45552486977E+03  0.17300000000E+03 0. -1.
</event>
<event>
 4    1  0.5929306E+000  0.1000000E+03  0.7546771E-02  0.1280296E+00
         21   -1    0    0  501  502  0.00000000000E+00  0.00000000000E+00  0.33345749879E+03  0.33345749879E+03  0.00000000000E+00 0. -1.
         21   -1    0    0  502  503 -0.00000000000E+00 -0.00000000000E+00 -0.22478360910E+03  0.22478360910E+03  0.00000000000E+00 0. -1.
          6    1    1    2  501    0 -0.53057117977E+02  0.10861442025E+03  0.23213643982E+03  0.31373312982E+03  0.17300000000E+03 0. -1.
         -6    1    1    2    0  503  0.53057117977E+02 -0.10861442025E+03 -0.12346255012E+03  0.24450797807E+03  0.17300000000E+03 0. -1.
</event>
<event>
 4    1  0.5929306E+000  0.1000000E+03  0.7546771E-02  0.1280296E+00
         21   -1    0    0  501  502  0.00000000000E+00  0.00000000000E+00  0.42840663253E+03  0.42840663253E+03  0.00000000000E+00 0.  1.
         21   -1    0    0  502  503 -0.00000000000E+00 -0.00000000000E+00 -0.17963803295E+03  0.17963803295E+03  0.00000000000E+00 0.  1.
          6    1    1    2  501    0  0.10325705015E+03  0.17776268025E+03  0.20005456108E+03  0.33498121784E+03  0.17300000000E+03 0.  1.
         -6    1    1    2    0  503 -0.10325705015E+03 -0.17776268025E+03  0.48714038496E+02  0.27306344765E+03  0.17300000000E+03 0.  1.
</event>
<event>
 4    1  0.5929306E+000  0.1000000E+03  0.7546771E-02  0.1280296E+00
         21   -1    0    0  501  502  0.00000000000E+00  0.00000000000E+00  0.31287774402E+03  0.31287774402E+03  0.00000000000E+00 0.  1.
         21   -1    0    0  502  503 -0.00000000000E+00 -0.00000000000E+00 -0.12780020982E+04  0.12780020982E+04  0.00000000000E+00 0.  1.
          6    1    1    2  501    0 -0.31230272999E+03  0.89805176286E+02  0.16417627383E+03  0.40308908908E+03  0.17300000000E+03 0.  1.
         -6    1    1    2    0  503  0.31230272999E+03 -0.89805176286E+02 -0.11293006280E+04  0.11877907532E+04  0.17300000000E+03 0.  1.
</event>
<event>
 4    1  0.5929306E+000  0.1000000E+03  0.7546771E-02  0.1280296E+00
         21   -1    0    0  501  502  0.00000000000E+00  0.00000000000E+00  0.29400229536E+02  0.29400229536E+02  0.00000000000E+00 0.  1.
         21   -1    0    0  502  503 -0.00000000000E+00 -0.00000000000E+00 -0.14150777447E+04  0.14150777447E+04  0.00000000000E+00 0.  1.
          6    1    1    2  501    0  0.74781526638E+02  0.77304138660E+01 -0.96763229019E+03  0.98584648148E+03  0.17300000000E+03 0.  1.
         -6    1    1    2    0  503 -0.74781526638E+02 -0.77304138660E+01 -0.41804522495E+03  0.45863149274E+03  0.17300000000E+03 0.  1.
</event>
<event>
 4    1  0.5929306E+000  0.1000000E+03  0.7546771E-02  0.1280296E+00
         21   -1    0    0  503  502  0.00000000000E+00  0.00000000000E+00  0.19608008383E+04  0.19608008383E+04  0.00000000000E+00 0. -1.
         21   -1    0    0  501  503 -0.00000000000E+00 -0.00000000000E+00 -0.18843470031E+02  0.18843470031E+02  0.00000000000E+00 0. -1.
          6    1    1    2  501    0  0.14191403592E+02 -0.20496727894E+02  0.55909495154E+03  0.58577954610E+03  0.17300000000E+03 0. -1.
         -6    1    1    2    0  502 -0.14191403592E+02  0.20496727894E+02  0.13828624167E+04  0.13938647622E+04  0.17300000000E+03 0. -1.
</event>
<event>
 4    1  0.5929306E+000  0.1000000E+03  0.7546771E-02  0.1280296E+00
         21   -1    0    0  503  502  0.00000000000E+00  0.00000000000E+00  0.49835951748E+03  0.49835951748E+03  0.00000000000E+00 0. -1.
         21   -1    0    0  501  503 -0.00000000000E+00 -0.00000000000E+00 -0.58967144815E+03  0.58967144815E+03  0.00000000000E+00 0. -1.
          6    1    1    2  501    0 -0.31477160836E+02  0.22251315171E+03 -0.50928341443E+03  0.58292496134E+03  0.17300000000E+03 0. -1.
         -6    1    1    2    0  502  0.31477160836E+02 -0.22251315171E+03  0.41797148376E+03  0.50510600430E+03  0.17300000000E+03 0. -1.
</event>
<event>
 4    1  0.5929306E+000  0.1000000E+03  0.7546771E-02  0.1280296E+00
         21   -1    0    0  503  502  0.00000000000E+00  0.00000000000E+00  0.33095273817E+03  0.33095273817E+03  0.00000000000E+00 0.  1.
         21   -1    0    0  501  503 -0.00000000000E+00 -0.00000000000E+00 -0.18972847363E+03  0.18972847363E+03  0.00000000000E+00 0.  1.
          6    1    1    2  501    0 -0.10334090883E+03 -0.19998349230E+02 -0.82726053115E+02  0.21875071948E+03  0.17300000000E+03 0.  1.
         -6    1    1    2    0  502  0.10334090883E+03  0.19998349230E+02  0.22395031766E+03  0.30193049231E+03  0.17300000000E+03 0.  1.
</event>
<event>
 4    1  0.5929306E+000  0.1000000E+03  0.7546771E-02  0.1280296E+00
         21   -1    0    0  501  502  0.00000000000E+00  0.00000000000E+00  0.17965213203E+04  0.17965213203E+04  0.00000000000E+00 0. -1.
         21   -1    0    0  502  503 -0.00000000000E+00 -0.00000000000E+00 -0.70817974197E+02  0.70817974197E+02  0.00000000000E+00 0.  1.
          6    1    1    2  501    0  0.18513691946E+03 -0.24287047569E+03  0.10291319426E+04  0.10873377130E+04  0.17300000000E+03 0.  1.
         -6    1    1    2    0  503 -0.18513691946E+03  0.24287047569E+03  0.69657140357E+03  0.78000158153E+03  0.17300000000E+03 0. -1.
</event>
<event>
 4    1  0.5929306E+000  0.1000000E+03  0.7546771E-02  0.1280296E+00
         21   -1    0    0  501  502  0.00000000000E+00  0.00000000000E+00  0.22070279325E+03  0.22070279325E+03  0.00000000000E+00 0. -1.
         21   -1    0    0  502  503 -0.00000000000E+00 -0.00000000000E+00 -0.42279051009E+03  0.42279051009E+03  0.00000000000E+00 0.  1.
          6    1    1    2  501    0  0.42805282188E+02 -0.18409527166E+02  0.15954850731E+03  0.23990816797E+03  0.17300000000E+03 0.  1.
         -6    1    1    2    0  503 -0.42805282188E+02  0.18409527166E+02 -0.36163622415E+03  0.40358513537E+03  0.17300000000E+03 0. -1.
</event>
<event>
 4    1  0.5929306E+000  0.1000000E+03  0.7546771E-02  0.1280296E+00
         21   -1    0    0  501  502  0.00000000000E+00  0.00000000000E+00  0.15408490105E+03  0.15408490105E+03  0.00000000000E+00 0.  1.
         21   -1    0    0  502  503 -0.00000000000E+00 -0.00000000000E+00 -0.45409170105E+03  0.45409170105E+03  0.00000000000E+00 0.  1.
          6    1    1    2  501    0 -0.70937764746E+02  0.20559796215E+02  0.63788152903E+02  0.19862728951E+03  0.17300000000E+03 0.  1.
         -6    1    1    2    0  503  0.70937764746E+02 -0.20559796215E+02 -0.36379495290E+03  0.40954931259E+03  0.17300000000E+03 0.  1.
</event>
<event>
 4    1  0.5929306E+000  0.1000000E+03  0.7546771E-02  0.1280296E+00
         21   -1    0    0  501  502  0.00000000000E+00  0.00000000000E+00  0.15388686548E+03  0.15388686548E+03  0.00000000000E+00 0.  1.
         21   -1    0    0  502  503 -0.00000000000E+00 -0.00000000000E+00 -0.39568373903E+03  0.39568373903E+03  0.00000000000E+00 0.  1.
          6    1    1    2  501    0 -0.70227882652E+01  0.23975425108E+02  0.73059576403E+02  0.18944878534E+03  0.17300000000E+03 0.  1.
         -6    1    1    2    0  503  0.70227882652E+01 -0.23975425108E+02 -0.31485644995E+03  0.36012181917E+03  0.17300000000E+03 0.  1.
</event>
<event>
 4    1  0.5929306E+000  0.1000000E+03  0.7546771E-02  0.1280296E+00
         21   -1    0    0  501  502  0.00000000000E+00  0.00000000000E+00  0.41401411165E+03  0.41401411165E+03  0.00000000000E+00 0.  1.
         21   -1    0    0  502  503 -0.00000000000E+00 -0.00000000000E+00 -0.17710723128E+03  0.17710723128E+03  0.00000000000E+00 0.  1.
          6    1    1    2  501    0 -0.11488624369E+02 -0.48283534892E+02  0.33928219148E+03  0.38406339801E+03  0.17300000000E+03 0.  1.
         -6    1    1    2    0  503  0.11488624369E+02  0.48283534892E+02 -0.10237531111E+03  0.20705794492E+03  0.17300000000E+03 0.  1.
</event>
<event>
 4    1  0.5929306E+000  0.1000000E+03  0.7546771E-02  0.1280296E+00
         21   -1    0    0  501  502  0.00000000000E+00  0.00000000000E+00  0.35207288880E+03  0.35207288880E+03  0.00000000000E+00 0.  1.
         21   -1    0    0  502  503 -0.00000000000E+00 -0.00000000000E+00 -0.16419757920E+03  0.16419757920E+03  0.00000000000E+00 0.  1.
          6    1    1    2  501    0 -0.23133386544E+02 -0.83454100594E+02  0.24720794291E+03  0.31391162374E+03  0.17300000000E+03 0. -1.
         -6    1    1    2    0  503  0.23133386544E+02  0.83454100594E+02 -0.59332633312E+02  0.20235884427E+03  0.17300000000E+03 0. -1.
</event>
<event>
 4    1  0.5929306E+000  0.1000000E+03  0.7546771E-02  0.1280296E+00
         21   -1    0    0  501  502  0.00000000000E+00  0.00000000000E+00  0.96033006785E+02  0.96033006785E+02  0.00000000000E+00 0.  1.
         21   -1    0    0  502  503 -0.00000000000E+00 -0.00000000000E+00 -0.44439722194E+03  0.44439722194E+03  0.00000000000E+00 0.  1.
          6    1    1    2  501    0  0.58471587501E+02 -0.46244459119E+02 -0.63267700148E+02  0.19871909427E+03  0.17300000000E+03 0. -1.
         -6    1    1    2    0  503 -0.58471587501E+02  0.46244459119E+02 -0.28509651501E+03  0.34171113446E+03  0.17300000000E+03 0. -1.
</event>
<event>
 4    1  0.5929306E+000  0.1000000E+03  0.7546771E-02  0.1280296E+00
         21   -1    0    0  503  502  0.00000000000E+00  0.00000000000E+00  0.80262694877E+03  0.80262694877E+03  0.00000000000E+00 0.  1.
         21   -1    0    0  501  503 -0.00000000000E+00 -0.00000000000E+00 -0.20982378916E+03  0.20982378916E+03  0.00000000000E+00 0. -1.
          6    1    1    2  501    0  0.69344703151E+02 -0.20615679256E+02 -0.15388526958E+03  0.24257652458E+03  0.17300000000E+03 0.  1.
         -6    1    1    2    0  502 -0.69344703151E+02  0.20615679256E+02  0.74668842919E+03  0.76987421335E+03  0.17300000000E+03 0. -1.
</event>
<event>
 4    1  0.5929306E+000  0.1000000E+03  0.7546771E-02  0.1280296E+00
         21   -1    0    0  501  502  0.00000000000E+00  0.00000000000E+00  0.12810120337E+03  0.12810120337E+03  0.00000000000E+00 0. -1.
         21   -1    0    0  502  503 -0.00000000000E+00 -0.00000000000E+00 -0.41279634092E+03  0.41279634092E+03  0.00000000000E+00 0.  1.
          6    1    1    2  501    0 -0.56118710847E+02  0.77147290727E+02 -0.39397653183E+01  0.19759943301E+03  0.17300000000E+03 0.  1.
         -6    1    1    2    0  503  0.56118710847E+02 -0.77147290727E+02 -0.28075537224E+03  0.34329811129E+03  0.17300000000E+03 0. -1.
</event>
<event>
 4    1  0.5929306E+000  0.1000000E+03  0.7546771E-02  0.1280296E+00
         21   -1    0    0  503  502  0.00000000000E+00  0.00000000000E+00  0.45193397505E+03  0.45193397505E+03  0.00000000000E+00 0.  1.
         21   -1    0    0  501  503 -0.00000000000E+00 -0.00000000000E+00 -0.16428853716E+03  0.16428853716E+03  0.00000000000E+00 0.  1.
          6    1    1    2  501    0 -0.37113716025E+02  0.27997132576E+02 -0.88345544914E+02  0.19973783481E+03  0.17300000000E+03 0. -1.
         -6    1    1    2    0  502  0.37113716025E+02 -0.27997132576E+02  0.37599098281E+03  0.41648467740E+03  0.17300000000E+03 0. -1.
</event>
<event>
 4    1  0.5929306E+000  0.1000000E+03  0.7546771E-02  0.1280296E+00
         21   -1    0    0  501  502  0.00000000000E+00  0.00000000000E+00  0.10101018846E+03  0.10101018846E+03  0.00000000000E+00 0.  1.
         21   -1    0    0  502  503 -0.00000000000E+00 -0.00000000000E+00 -0.12352455795E+04  0.12352455795E+04  0.00000000000E+00 0. -1.
          6    1    1    2  501    0 -0.13420317576E+03 -0.11495577699E+03 -0.90038385401E+02  0.26317529119E+03  0.17300000000E+03 0.  1.
         -6    1    1    2    0  503  0.13420317576E+03  0.11495577699E+03 -0.10441970056E+04  0.10730804767E+04  0.17300000000E+03 0. -1.
</event>
<event>
 4    1  0.5929306E+000  0.1000000E+03  0.7546771E-02  0.1280296E+00
         21   -1    0    0  503  502  0.00000000000E+00  0.00000000000E+00  0.16419288984E+03  0.16419288984E+03  0.00000000000E+00 0. -1.
         21   -1    0    0  501  503 -0.00000000000E+00 -0.00000000000E+00 -0.21529356460E+04  0.21529356460E+04  0.00000000000E+00 0.  1.
          6    1    1    2  501    0  0.11345935823E+03 -0.28036977985E+03 -0.19331286074E+04  0.19642798813E+04  0.17300000000E+03 0.  1.
         -6    1    1    2    0  502 -0.11345935823E+03  0.28036977985E+03 -0.55614148721E+02  0.35284865447E+03  0.17300000000E+03 0. -1.
</event>
<event>
 4    1  0.5929306E+000  0.1000000E+03  0.7546771E-02  0.1280296E+00
         21   -1    0    0  503  502  0.00000000000E+00  0.00000000000E+00  0.41401385820E+03  0.41401385820E+03  0.00000000000E+00 0. -1.
         21   -1    0    0  501  503 -0.00000000000E+00 -0.00000000000E+00 -0.11517209138E+03  0.11517209138E+03  0.00000000000E+00 0.  1.
          6    1    1    2  501    0  0.48149957215E+02 -0.39465133772E+02  0.66763324931E+01  0.18398230507E+03  0.17300000000E+03 0.  1.
         -6    1    1    2    0  502 -0.48149957215E+02  0.39465133772E+02  0.29216543433E+03  0.34520364450E+03  0.17300000000E+03 0. -1.
</event>
<event>
 4    1  0.5929306E+000  0.1000000E+03  0.7546771E-02  0.1280296E+00
         21   -1    0    0  501  502  0.00000000000E+00  0.00000000000E+00  0.21672940494E+03  0.21672940494E+03  0.00000000000E+00 0. -1.
         21   -1    0    0  502  503 -0.00000000000E+00 -0.00000000000E+00 -0.30554902351E+03  0.30554902351E+03  0.00000000000E+00 0.  1.
          6    1    1    2  501    0  0.12221805156E+03 -0.76188398470E+02  0.82135302906E+02  0.23961872250E+03  0.17300000000E+03 0.  1.
         -6    1    1    2    0  503 -0.12221805156E+03  0.76188398470E+02 -0.17095492148E+03  0.28265970595E+03  0.17300000000E+03 0. -1.
</event>
<event>
 4    1  0.5929306E+000  0.1000000E+03  0.7546771E-02  0.1280296E+00
         21   -1    0    0  501  502  0.00000000000E+00  0.00000000000E+00  0.14692619369E+04  0.14692619369E+04  0.00000000000E+00 0. -1.
         21   -1    0    0  502  503 -0.00000000000E+00 -0.00000000000E+00 -0.93945829389E+02  0.93945829389E+02  0.00000000000E+00 0.  1.
          6    1    1    2  501    0 -0.21571787246E+03  0.28631970568E+02  0.12061768221E+04  0.12377986574E+04  0.17300000000E+03 0.  1.
         -6    1    1    2    0  503  0.21571787246E+03 -0.28631970568E+02  0.16913928540E+03  0.32540910882E+03  0.17300000000E+03 0. -1.
</event>
<event>
 4    1  0.5929306E+000  0.1000000E+03  0.7546771E-02  0.1280296E+00
         21   -1    0    0  503  502  0.00000000000E+00  0.00000000000E+00  0.90673124266E+03  0.90673124266E+03  0.00000000000E+00 0.  1.
         21   -1    0    0  501  503 -0.00000000000E+00 -0.00000000000E+00 -0.14051558337E+03  0.14051558337E+03  0.00000000000E+00 0. -1.
          6    1    1    2  501    0  0.61670418154E+02 -0.13470302921E+03 -0.20059277384E+02  0.22864715428E+03  0.17300000000E+03 0. -1.
         -6    1    1    2    0  502 -0.61670418154E+02  0.13470302921E+03  0.78627493667E+03  0.81859967175E+03  0.17300000000E+03 0.  1.
</event>
<event>
 4    1  0.5929306E+000  0.1000000E+03  0.7546771E-02  0.1280296E+00
         21   -1    0    0  503  502  0.00000000000E+00  0.00000000000E+00  0.26852281712E+04  0.26852281712E+04  0.00000000000E+00 0.  1.
         21   -1    0    0  501  503 -0.00000000000E+00 -0.00000000000E+00 -0.17726560472E+02  0.17726560472E+02  0.00000000000E+00 0. -1.
          6    1    1    2  501    0 -0.76073905641E+02 -0.31431045626E+02  0.68715377610E+03  0.71336138230E+03  0.17300000000E+03 0. -1.
         -6    1    1    2    0  502  0.76073905641E+02  0.31431045626E+02  0.19803478346E+04  0.19895933493E+04  0.17300000000E+03 0.  1.
</event>
<event>
 4    1  0.5929306E+000  0.1000000E+03  0.7546771E-02  0.1280296E+00
         21   -1    0    0  501  502  0.00000000000E+00  0.00000000000E+00  0.56584435987E+03  0.56584435987E+03  0.00000000000E+00 0.  1.
         21   -1    0    0  502  503 -0.00000000000E+00 -0.00000000000E+00 -0.78368958818E+02  0.78368958818E+02  0.00000000000E+00 0.  1.
          6    1    1    2  501    0  0.87000864211E+02 -0.40756337996E+02  0.35388414013E+03  0.40545433047E+03  0.17300000000E+03 0.  1.
         -6    1    1    2    0  503 -0.87000864211E+02  0.40756337996E+02  0.13359126092E+03  0.23875898822E+03  0.17300000000E+03 0.  1.
</event>
<event>
 4    1  0.5929306E+000  0.1000000E+03  0.7546771E-02  0.1280296E+00
         21   -1    0    0  501  502  0.00000000000E+00  0.00000000000E+00  0.19853273309E+03  0.19853273309E+03  0.00000000000E+00 0.  1.
         21   -1    0    0  502  503 -0.00000000000E+00 -0.00000000000E+00 -0.62677062365E+03  0.62677062365E+03  0.00000000000E+00 0.  1.
          6    1    1    2  501    0  0.19963140776E+03  0.23099889750E+03 -0.25617166857E+03  0.43447222395E+03  0.17300000000E+03 0.  1.
         -6    1    1    2    0  503 -0.19963140776E+03 -0.23099889750E+03 -0.17206622199E+03  0.39083113279E+03  0.17300000000E+03 0.  1.
</event>
<event>
 4    1  0.5929306E+000  0.1000000E+03  0.7546771E-02  0.1280296E+00
         21   -1    0    0  501  502  0.00000000000E+00  0.00000000000E+00  0.45704564234E+03  0.45704564234E+03  0.00000000000E+00 0.  1.
         21   -1    0    0  502  503 -0.00000000000E+00 -0.00000000000E+00 -0.75709304372E+03  0.75709304372E+03  0.00000000000E+00 0.  1.
          6    1    1    2  501    0  0.41046331822E+03  0.33790053700E+03  0.38696379528E+02  0.56043136805E+03  0.17300000000E+03 0.  1.
         -6    1    1    2    0  503 -0.41046331822E+03 -0.33790053700E+03 -0.33874378091E+03  0.65370731800E+03  0.17300000000E+03 0.  1.
</event>
<event>
 4    1  0.5929306E+000  0.1000000E+03  0.7546771E-02  0.1280296E+00
         21   -1    0    0  501  502  0.00000000000E+00  0.00000000000E+00  0.12122621631E+04  0.12122621631E+04  0.00000000000E+00 0.  1.
         21   -1    0    0  502  503 -0.00000000000E+00 -0.00000000000E+00 -0.12324804774E+03  0.12324804774E+03  0.00000000000E+00 0.  1.
          6    1    1    2  501    0 -0.17403716766E+03 -0.64485847949E+02  0.10482646536E+04  0.10785337937E+04  0.17300000000E+03 0.  1.
         -6    1    1    2    0  503  0.17403716766E+03  0.64485847949E+02  0.40749461783E+02  0.25697641710E+03  0.17300000000E+03 0.  1.
</event>
<event>
 4    1  0.5929306E+000  0.1000000E+03  0.7546771E-02  0.1280296E+00
         21   -1    0    0  501  502  0.00000000000E+00  0.00000000000E+00  0.60275120310E+02  0.60275120310E+02  0.00000000000E+00 0.  1.
         21   -1    0    0  502  503 -0.00000000000E+00 -0.00000000000E+00 -0.60329926121E+03  0.60329926121E+03  0.00000000000E+00 0.  1.
          6    1    1    2  501    0  0.21801015787E+02  0.18221335313E+02 -0.40203508805E+03  0.43859835085E+03  0.17300000000E+03 0.  1.
         -6    1    1    2    0  503 -0.21801015787E+02 -0.18221335313E+02 -0.14098905285E+03  0.22497603066E+03  0.17300000000E+03 0.  1.
</event>
<event>
 4    1  0.5929306E+000  0.1000000E+03  0.7546771E-02  0.1280296E+00
         21   -1    0    0  501  502  0.00000000000E+00  0.00000000000E+00  0.35478173803E+03  0.35478173803E+03  0.00000000000E+00 0. -1.
         21   -1    0    0  502  503 -0.00000000000E+00 -0.00000000000E+00 -0.50710385754E+03  0.50710385754E+03  0.00000000000E+00 0. -1.
          6    1    1    2  501    0  0.18052982209E+03  0.15847718351E+03  0.23246691068E+03  0.37639859048E+03  0.17300000000E+03 0. -1.
         -6    1    1    2    0  503 -0.18052982209E+03 -0.15847718351E+03 -0.38478903019E+03  0.48548700509E+03  0.17300000000E+03 0. -1.
</event>
<event>
 4    1  0.5929306E+000  0.1000000E+03  0.7546771E-02  0.1280296E+00
         21   -1    0    0  501  502  0.00000000000E+00  0.00000000000E+00  0.14165591516E+03  0.14165591516E+03  0.00000000000E+00 0. -1.
         21   -1    0    0  502  503 -0.00000000000E+00 -0.00000000000E+00 -0.58296242440E+03  0.58296242440E+03  0.00000000000E+00 0. -1.
          6    1    1    2  501    0 -0.28732288118E+02 -0.21608617442E+03 -0.13033041980E+03  0.30730082571E+03  0.17300000000E+03 0. -1.
         -6    1    1    2    0  503  0.28732288118E+02  0.21608617442E+03 -0.31097608944E+03  0.41731751385E+03  0.17300000000E+03 0. -1.
</event>
<event>
 4    1  0.5929306E+000  0.1000000E+03  0.7546771E-02  0.1280296E+00
         21   -1    0    0  501  502  0.00000000000E+00  0.00000000000E+00  0.88698297135E+03  0.88698297135E+03  0.00000000000E+00 0. -1.
         21   -1    0    0  502  503 -0.00000000000E+00 -0.00000000000E+00 -0.47025681348E+02  0.47025681348E+02  0.00000000000E+00 0. -1.
          6    1    1    2  501    0 -0.21265089566E+02  0.10169536784E+03  0.49184673355E+03  0.53163555297E+03  0.17300000000E+03 0. -1.
         -6    1    1    2    0  503  0.21265089566E+02 -0.10169536784E+03  0.34811055646E+03  0.40237309974E+03  0.17300000000E+03 0. -1.
</event>
<event>
 4    1  0.5929306E+000  0.1000000E+03  0.7546771E-02  0.1280296E+00
         21   -1    0    0  503  502  0.00000000000E+00  0.00000000000E+00  0.77767986223E+03  0.77767986223E+03  0.00000000000E+00 0.  1.
         21   -1    0    0  501  503 -0.00000000000E+00 -0.00000000000E+00 -0.23016228157E+03  0.23016228157E+03  0.00000000000E+00 0.  1.
          6    1    1    2  501    0  0.21381041133E+03 -0.13469324479E+03 -0.73922361211E+02  0.31504075557E+03  0.17300000000E+03 0.  1.
         -6    1    1    2    0  502 -0.21381041133E+03  0.13469324479E+03  0.62143994187E+03  0.69280138823E+03  0.17300000000E+03 0.  1.
</event>
<event>
 4    1  0.5929306E+000  0.1000000E+03  0.7546771E-02  0.1280296E+00
         21   -1    0    0  503  502  0.00000000000E+00  0.00000000000E+00  0.21029842655E+03  0.21029842655E+03  0.00000000000E+00 0.  1.
         21   -1    0    0  501  503 -0.00000000000E+00 -0.00000000000E+00 -0.23059992663E+03  0.23059992663E+03  0.00000000000E+00 0.  1.
          6    1    1    2  501    0  0.45544605872E+02 -0.15059688839E+02 -0.13781928280E+03  0.22632777131E+03  0.17300000000E+03 0.  1.
         -6    1    1    2    0  502 -0.45544605872E+02  0.15059688839E+02  0.11751778272E+03  0.21457058188E+03  0.17300000000E+03 0.  1.
</event>
<event>
 4    1  0.5929306E+000  0.1000000E+03  0.7546771E-02  0.1280296E+00
         21   -1    0    0  501  502  0.00000000000E+00  0.00000000000E+00  0.97296607610E+02  0.97296607610E+02  0.00000000000E+00 0. -1.
         21   -1    0    0  502  503 -0.00000000000E+00 -0.00000000000E+00 -0.84687226313E+03  0.84687226313E+03  0.00000000000E+00 0.  1.
          6    1    1    2  501    0 -0.26355987863E+02 -0.67364053713E+02 -0.17350784386E+02  0.18831517078E+03  0.17300000000E+03 0. -1.
         -6    1    1    2    0  503  0.26355987863E+02  0.67364053713E+02 -0.73222487113E+03  0.75585369995E+03  0.17300000000E+03 0.  1.
</event>
<event>
 4    1  0.5929306E+000  0.1000000E+03  0.7546771E-02  0.1280296E+00
         21   -1    0    0  501  502  0.00000000000E+00  0.00000000000E+00  0.33091817715E+03  0.33091817715E+03  0.00000000000E+00 0. -1.
         21   -1    0    0  502  503 -0.00000000000E+00 -0.00000000000E+00 -0.17213299515E+03  0.17213299515E+03  0.00000000000E+00 0.  1.
          6    1    1    2  501    0 -0.16424720416E+02 -0.61717634130E+02  0.23906133983E+03  0.30192409974E+03  0.17300000000E+03 0. -1.
         -6    1    1    2    0  503  0.16424720416E+02  0.61717634130E+02 -0.80276157823E+02  0.20112707256E+03  0.17300000000E+03 0.  1.
</event>
<event>
 4    1  0.5929306E+000  0.1000000E+03  0.7546771E-02  0.1280296E+00
         21   -1    0    0  501  502  0.00000000000E+00  0.00000000000E+00  0.68205328969E+03  0.68205328969E+03  0.00000000000E+00 0. -1.
         21   -1    0    0  502  503 -0.00000000000E+00 -0.00000000000E+00 -0.75068021560E+02  0.75068021560E+02  0.00000000000E+00 0.  1.
          6    1    1    2  501    0  0.97549042358E+02  0.10256298494E+03  0.24466518660E+03  0.33139860452E+03  0.17300000000E+03 0. -1.
         -6    1    1    2    0  503 -0.97549042358E+02 -0.10256298494E+03  0.36232008154E+03  0.42572270674E+03  0.17300000000E+03 0.  1.
</event>
<event>
 4    1  0.5929306E+000  0.1000000E+03  0.7546771E-02  0.1280296E+00
         21   -1    0    0  503  502  0.00000000000E+00  0.00000000000E+00  0.67176866286E+03  0.67176866286E+03  0.00000000000E+00 0. -1.
         21   -1    0    0  501  503 -0.00000000000E+00 -0.00000000000E+00 -0.54104648326E+02  0.54104648326E+02  0.00000000000E+00 0.  1.
          6    1    1    2  501    0 -0.54819152169E+02 -0.57634600959E+02  0.29077967812E+03  0.34757547077E+03  0.17300000000E+03 0.  1.
         -6    1    1    2    0  502  0.54819152169E+02  0.57634600959E+02  0.32688433642E+03  0.37829784042E+03  0.17300000000E+03 0. -1.
</event>
<event>
 4    1  0.5929306E+000  0.1000000E+03  0.7546771E-02  0.1280296E+00
         21   -1    0    0  503  502  0.00000000000E+00  0.00000000000E+00  0.71034762769E+02  0.71034762769E+02  0.00000000000E+00 0. -1.
         21   -1    0    0  501  503 -0.00000000000E+00 -0.00000000000E+00 -0.18423092242E+04  0.18423092242E+04  0.00000000000E+00 0. -1.
          6    1    1    2  501    0 -0.68885684810E+02 -0.14104798543E+03 -0.16161139824E+04  0.16329094205E+04  0.17300000000E+03 0. -1.
         -6    1    1    2    0  502  0.68885684810E+02  0.14104798543E+03 -0.15516047904E+03  0.28043456638E+03  0.17300000000E+03 0. -1.
</event>
<event>
 4    1  0.5929306E+000  0.1000000E+03  0.7546771E-02  0.1280296E+00
         21   -1    0    0  501  502  0.00000000000E+00  0.00000000000E+00  0.10237276600E+03  0.10237276600E+03  0.00000000000E+00 0. -1.
         21   -1    0    0  502  503 -0.00000000000E+00 -0.00000000000E+00 -0.44703937692E+03  0.44703937692E+03  0.00000000000E+00 0. -1.
          6    1    1    2  501    0 -0.68239410418E+02 -0.10251949056E+03 -0.13912478866E+03  0.25387313741E+03  0.17300000000E+03 0. -1.
         -6    1    1    2    0  503  0.68239410418E+02  0.10251949056E+03 -0.20554182226E+03  0.29553900551E+03  0.17300000000E+03 0. -1.
</event>
<event>
 4    1  0.5929306E+000  0.1000000E+03  0.7546771E-02  0.1280296E+00
         21   -1    0    0  501  502  0.00000000000E+00  0.00000000000E+00  0.28977253998E+03  0.28977253998E+03  0.00000000000E+00 0.  1.
         21   -1    0    0  502  503 -0.00000000000E+00 -0.00000000000E+00 -0.26904235316E+03  0.26904235316E+03  0.00000000000E+00 0. -1.
          6    1    1    2  501    0 -0.15083848217E+03 -0.11846153664E+02  0.16902873374E+03  0.28529334358E+03  0.17300000000E+03 0. -1.
         -6    1    1    2    0  503  0.15083848217E+03  0.11846153664E+02 -0.14829854692E+03  0.27352154957E+03  0.17300000000E+03 0.  1.
</event>
<event>
 4    1  0.5929306E+000  0.1000000E+03  0.7546771E-02  0.1280296E+00
         21   -1    0    0  501  502  0.00000000000E+00  0.00000000000E+00  0.42103154868E+03  0.42103154868E+03  0.00000000000E+00 0. -1.
         21   -1    0    0  502  503 -0.00000000000E+00 -0.00000000000E+00 -0.12324247588E+03  0.12324247588E+03  0.00000000000E+00 0. -1.
          6    1    1    2  501    0  0.14046058783E+03  0.20205167619E+02  0.19989677156E+03  0.30004190509E+03  0.17300000000E+03 0. -1.
         -6    1    1    2    0  503 -0.14046058783E+03 -0.20205167619E+02  0.97892301247E+02  0.24423211946E+03  0.17300000000E+03 0. -1.
</event>
<event>
 4    1  0.5929306E+000  0.1000000E+03  0.7546771E-02  0.1280296E+00
         21   -1    0    0  501  502  0.00000000000E+00  0.00000000000E+00  0.34911647599E+03  0.34911647599E+03  0.00000000000E+00 0. -1.
         21   -1    0    0  502  503 -0.00000000000E+00 -0.00000000000E+00 -0.29871298726E+03  0.29871298726E+03  0.00000000000E+00 0.  1.
          6    1    1    2  501    0 -0.10915127147E+03 -0.21537861490E+03 -0.10189056459E+03  0.31402648769E+03  0.17300000000E+03 0. -1.
         -6    1    1    2    0  503  0.10915127147E+03  0.21537861490E+03  0.15229405331E+03  0.33380297556E+03  0.17300000000E+03 0.  1.
</event>
<event>
 4    1  0.5929306E+000  0.1000000E+03  0.7546771E-02  0.1280296E+00
         21   -1    0    0  501  502  0.00000000000E+00  0.00000000000E+00  0.42060354049E+03  0.42060354049E+03  0.00000000000E+00 0. -1.
         21   -1    0    0  502  503 -0.00000000000E+00 -0.00000000000E+00 -0.13694260237E+03  0.13694260237E+03  0.00000000000E+00 0.  1.
          6    1    1    2  501    0  0.39699383979E+02  0.16097210507E+03  0.15747865091E+03  0.28673434603E+03  0.17300000000E+03 0. -1.
         -6    1    1    2    0  503 -0.39699383979E+02 -0.16097210507E+03  0.12618228721E+03  0.27081179684E+03  0.17300000000E+03 0.  1.
</event>
<event>
 4    1  0.5929306E+000  0.1000000E+03  0.7546771E-02  0.1280296E+00
         21   -1    0    0  503  502  0.00000000000E+00  0.00000000000E+00  0.54751631383E+03  0.54751631383E+03  0.00000000000E+00 0. -1.
         21   -1    0    0  501  503 -0.00000000000E+00 -0.00000000000E+00 -0.52009972313E+03  0.52009972313E+03  0.00000000000E+00 0. -1.
          6    1    1    2  501    0 -0.27426802492E+03 -0.90940203990E+02 -0.40036184641E+03  0.52317461545E+03  0.17300000000E+03 0. -1.
         -6    1    1    2    0  502  0.27426802492E+03  0.90940203990E+02  0.42777843711E+03  0.54444142150E+03  0.17300000000E+03 0. -1.
</event>
<event>
 4    1  0.5929306E+000  0.1000000E+03  0.7546771E-02  0.1280296E+00
         21   -1    0    0  503  502  0.00000000000E+00  0.00000000000E+00  0.88286842138E+02  0.88286842138E+02  0.00000000000E+00 0. -1.
         21   -1    0    0  501  503 -0.00000000000E+00 -0.00000000000E+00 -0.16101888938E+04  0.16101888938E+04  0.00000000000E+00 0. -1.
          6    1    1    2  501    0  0.13907638767E+03 -0.54177859808E+02 -0.14364868483E+04  0.14545449280E+04  0.17300000000E+03 0. -1.
         -6    1    1    2    0  502 -0.13907638767E+03  0.54177859808E+02 -0.85415203306E+02  0.24393080793E+03  0.17300000000E+03 0. -1.
</event>
<event>
 4    1  0.5929306E+000  0.1000000E+03  0.7546771E-02  0.1280296E+00
         21   -1    0    0  503  502  0.00000000000E+00  0.00000000000E+00  0.18245854805E+03  0.18245854805E+03  0.00000000000E+00 0. -1.
         21   -1    0    0  501  503 -0.00000000000E+00 -0.00000000000E+00 -0.20528882778E+03  0.20528882778E+03  0.00000000000E+00 0. -1.
          6    1    1    2  501    0  0.31552016893E+02 -0.57948404014E+02  0.45022405147E+02  0.19055068686E+03  0.17300000000E+03 0. -1.
         -6    1    1    2    0  502 -0.31552016893E+02  0.57948404014E+02 -0.67852684880E+02  0.19719668898E+03  0.17300000000E+03 0. -1.
</event>
<event>
 4    1  0.5929306E+000  0.1000000E+03  0.7546771E-02  0.1280296E+00
         21   -1    0    0  503  502  0.00000000000E+00  0.00000000000E+00  0.19798028882E+04  0.19798028882E+04  0.00000000000E+00 0. -1.
         21   -1    0    0  501  503 -0.00000000000E+00 -0.00000000000E+00 -0.45462567630E+02  0.45462567630E+02  0.00000000000E+00 0. -1.
          6    1    1    2  501    0  0.12450286975E+03  0.13437160039E+03  0.41748901183E+03  0.48762974331E+03  0.17300000000E+03 0. -1.
         -6    1    1    2    0  502 -0.12450286975E+03 -0.13437160039E+03  0.15168513088E+04  0.15376357125E+04  0.17300000000E+03 0. -1.
</event>
<event>
 4    1  0.5929306E+000  0.1000000E+03  0.7546771E-02  0.1280296E+00
         21   -1    0    0  503  502  0.00000000000E+00  0.00000000000E+00  0.12008988419E+03  0.12008988419E+03  0.00000000000E+00 0. -1.
         21   -1    0    0  501  503 -0.00000000000E+00 -0.00000000000E+00 -0.81493962367E+03  0.81493962367E+03  0.00000000000E+00 0. -1.
          6    1    1    2  501    0 -0.63701429247E+01 -0.22909694411E+03 -0.53294670573E+03  0.60538184617E+03  0.17300000000E+03 0. -1.
         -6    1    1    2    0  502  0.63701429247E+01  0.22909694411E+03 -0.16190303375E+03  0.32964766169E+03  0.17300000000E+03 0. -1.
</event>
<event>
 4    1  0.5929306E+000  0.1000000E+03  0.7546771E-02  0.1280296E+00
         21   -1    0    0  503  502  0.00000000000E+00  0.00000000000E+00  0.82977035207E+02  0.82977035207E+02  0.00000000000E+00 0.  1.
         21   -1    0    0  501  503 -0.00000000000E+00 -0.00000000000E+00 -0.55594398901E+03  0.55594398901E+03  0.00000000000E+00 0. -1.
          6    1    1    2  501    0  0.10018843353E+03 -0.76778438494E+02 -0.26087533310E+03  0.33751679996E+03  0.17300000000E+03 0.  1.
         -6    1    1    2    0  502 -0.10018843353E+03  0.76778438494E+02 -0.21209162070E+03  0.30140422426E+03  0.17300000000E+03 0. -1.
</event>
<event>
 4    1  0.5929306E+000  0.1000000E+03  0.7546771E-02  0.1280296E+00
         21   -1    0    0  501  502  0.00000000000E+00  0.00000000000E+00  0.50203874064E+02  0.50203874064E+02  0.00000000000E+00 0.  1.
         21   -1    0    0  502  503 -0.00000000000E+00 -0.00000000000E+00 -0.96138582637E+03  0.96138582637E+03  0.00000000000E+00 0.  1.
          6    1    1    2  501    0 -0.87834590760E+02  0.85591110988E+02 -0.32342484412E+03  0.38674718281E+03  0.17300000000E+03 0.  1.
         -6    1    1    2    0  503  0.87834590760E+02 -0.85591110988E+02 -0.58775710818E+03  0.62484251763E+03  0.17300000000E+03 0.  1.
</event>
<event>
 4    1  0.5929306E+000  0.1000000E+03  0.7546771E-02  0.1280296E+00
         21   -1    0    0  501  502  0.00000000000E+00  0.00000000000E+00  0.59121016594E+03  0.59121016594E+03  0.00000000000E+00 0.  1.
         21   -1    0    0  502  503 -0.00000000000E+00 -0.00000000000E+00 -0.80882605536E+02  0.80882605536E+02  0.00000000000E+00 0.  1.
          6    1    1    2  501    0  0.11828354783E+03  0.23272552303E+02  0.16612545436E+03  0.26843858881E+03  0.17300000000E+03 0.  1.
         -6    1    1    2    0  503 -0.11828354783E+03 -0.23272552303E+02  0.34420210605E+03  0.40365418267E+03  0.17300000000E+03 0.  1.
</event>
<event>
 4    1  0.5929306E+000  0.1000000E+03  0.7546771E-02  0.1280296E+00
         21   -1    0    0  501  502  0.00000000000E+00  0.00000000000E+00  0.33393259537E+03  0.33393259537E+03  0.00000000000E+00 0.  1.
         21   -1    0    0  502  503 -0.00000000000E+00 -0.00000000000E+00 -0.13079748778E+03  0.13079748778E+03  0.00000000000E+00 0.  1.
          6    1    1    2  501    0  0.33823568112E+02  0.11126376900E+03  0.84894258037E+02  0.22507708701E+03  0.17300000000E+03 0.  1.
         -6    1    1    2    0  503 -0.33823568112E+02 -0.11126376900E+03  0.11824084956E+03  0.23965299613E+03  0.17300000000E+03 0.  1.
</event>
<event>
 4    1  0.5929306E+000  0.1000000E+03  0.7546771E-02  0.1280296E+00
         21   -1    0    0  501  502  0.00000000000E+00  0.00000000000E+00  0.32382182314E+03  0.32382182314E+03  0.00000000000E+00 0. -1.
         21   -1    0    0  502  503 -0.00000000000E+00 -0.00000000000E+00 -0.41141542486E+03  0.41141542486E+03  0.00000000000E+00 0. -1.
          6    1    1    2  501    0  0.15160494335E+02 -0.49211403749E+02  0.27572433888E+03  0.32955198968E+03  0.17300000000E+03 0. -1.
         -6    1    1    2    0  503 -0.15160494335E+02  0.49211403749E+02 -0.36331794061E+03  0.40568525832E+03  0.17300000000E+03 0. -1.
</event>
<event>
 4    1  0.5929306E+000  0.1000000E+03  0.7546771E-02  0.1280296E+00
         21   -1    0    0  501  502  0.00000000000E+00  0.00000000000E+00  0.72955158316E+02  0.72955158316E+02  0.00000000000E+00 0.  1.
         21   -1    0    0  502  503 -0.00000000000E+00 -0.00000000000E+00 -0.72461779197E+03  0.72461779197E+03  0.00000000000E+00 0.  1.
          6    1    1    2  501    0 -0.13770703306E+03 -0.45525747395E+01 -0.21680098998E+03  0.30970247359E+03  0.17300000000E+03 0.  1.
         -6    1    1    2    0  503  0.13770703306E+03  0.45525747395E+01 -0.43486164367E+03  0.48787047669E+03  0.17300000000E+03 0.  1.
</event>
<event>
 4    1  0.5929306E+000  0.1000000E+03  0.7546771E-02  0.1280296E+00
         21   -1    0    0  501  502  0.00000000000E+00  0.00000000000E+00  0.14179442564E+04  0.14179442564E+04  0.00000000000E+00 0.  1.
         21   -1    0    0  502  503 -0.00000000000E+00 -0.00000000000E+00 -0.62993775566E+02  0.62993775566E+02  0.00000000000E+00 0.  1.
          6    1    1    2  501    0  0.90345027126E+02  0.65546229466E+02  0.12142262611E+04  0.12315571222E+04  0.17300000000E+03 0.  1.
         -6    1    1    2    0  503 -0.90345027126E+02 -0.65546229466E+02  0.14072421970E+03  0.24938090972E+03  0.17300000000E+03 0.  1.
</event>
<event>
 4    1  0.5929306E+000  0.1000000E+03  0.7546771E-02  0.1280296E+00
         21   -1    0    0  503  502  0.00000000000E+00  0.00000000000E+00  0.22619848352E+03  0.22619848352E+03  0.00000000000E+00 0.  1.
         21   -1    0    0  501  503 -0.00000000000E+00 -0.00000000000E+00 -0.16631154766E+03  0.16631154766E+03  0.00000000000E+00 0.  1.
          6    1    1    2  501    0  0.79331687832E+02  0.64591678618E+01 -0.73054432505E+01  0.19057178974E+03  0.17300000000E+03 0.  1.
         -6    1    1    2    0  502 -0.79331687832E+02 -0.64591678618E+01  0.67192379115E+02  0.20193824144E+03  0.17300000000E+03 0.  1.
</event>
<event>
 4    1  0.5929306E+000  0.1000000E+03  0.7546771E-02  0.1280296E+00
         21   -1    0    0  503  502  0.00000000000E+00  0.00000000000E+00  0.14744402104E+04  0.14744402104E+04  0.00000000000E+00 0.  1.
         21   -1    0    0  501  503 -0.00000000000E+00 -0.00000000000E+00 -0.39626652380E+02  0.39626652380E+02  0.00000000000E+00 0.  1.
          6    1    1    2  501    0 -0.79359677276E+02  0.97003941131E+02  0.36320563450E+03  0.42137282293E+03  0.17300000000E+03 0.  1.
         -6    1    1    2    0  502  0.79359677276E+02 -0.97003941131E+02  0.10716079235E+04  0.10926940399E+04  0.17300000000E+03 0.  1.
</event>
<event>
 4    1  0.5929306E+000  0.1000000E+03  0.7546771E-02  0.1280296E+00
         21   -1    0    0  503  502  0.00000000000E+00  0.00000000000E+00  0.23849711206E+03  0.23849711206E+03  0.00000000000E+00 0.  1.
         21   -1    0    0  501  503 -0.00000000000E+00 -0.00000000000E+00 -0.81708028169E+03  0.81708028169E+03  0.00000000000E+00 0.  1.
          6    1    1    2  501    0 -0.60305699857E+02 -0.16171219563E+03 -0.72883491626E+03  0.76871122459E+03  0.17300000000E+03 0.  1.
         -6    1    1    2    0  502  0.60305699857E+02  0.16171219563E+03  0.15025174662E+03  0.28686616917E+03  0.17300000000E+03 0.  1.
</event>
<event>
 4    1  0.5929306E+000  0.1000000E+03  0.7546771E-02  0.1280296E+00
         21   -1    0    0  501  502  0.00000000000E+00  0.00000000000E+00  0.91271999862E+02  0.91271999862E+02  0.00000000000E+00 0. -1.
         21   -1    0    0  502  503 -0.00000000000E+00 -0.00000000000E+00 -0.59720221972E+03  0.59720221972E+03  0.00000000000E+00 0. -1.
          6    1    1    2  501    0  0.12693267887E+02  0.10095265714E+03 -0.77102336860E+02  0.21500308924E+03  0.17300000000E+03 0. -1.
         -6    1    1    2    0  503 -0.12693267887E+02 -0.10095265714E+03 -0.42882788300E+03  0.47347113035E+03  0.17300000000E+03 0. -1.
</event>
<event>
 4    1  0.5929306E+000  0.1000000E+03  0.7546771E-02  0.1280296E+00
         21   -1    0    0  503  502  0.00000000000E+00  0.00000000000E+00  0.65509798576E+03  0.65509798576E+03  0.00000000000E+00 0. -1.
         21   -1    0    0  501  503 -0.00000000000E+00 -0.00000000000E+00 -0.56193950714E+02  0.56193950714E+02  0.00000000000E+00 0. -1.
          6    1    1    2  501    0  0.54430292609E+02  0.38903560933E+02  0.20850381646E+03  0.27906806568E+03  0.17300000000E+03 0.  1.
         -6    1    1    2    0  502 -0.54430292609E+02 -0.38903560933E+02  0.39040021859E+03  0.43222387079E+03  0.17300000000E+03 0.  1.
</event>
<event>
 4    1  0.5929306E+000  0.1000000E+03  0.7546771E-02  0.1280296E+00
         21   -1    0    0  503  502  0.00000000000E+00  0.00000000000E+00  0.26648448973E+03  0.26648448973E+03  0.00000000000E+00 0. -1.
         21   -1    0    0  501  503 -0.00000000000E+00 -0.00000000000E+00 -0.24773294604E+03  0.24773294604E+03  0.00000000000E+00 0. -1.
          6    1    1    2  501    0 -0.16902508117E+03  0.86635187583E+02  0.12963394577E+02  0.25723954476E+03  0.17300000000E+03 0.  1.
         -6    1    1    2    0  502  0.16902508117E+03 -0.86635187583E+02  0.57881491116E+01  0.25697789100E+03  0.17300000000E+03 0.  1.
</event>
<event>
 4    1  0.5929306E+000  0.1000000E+03  0.7546771E-02  0.1280296E+00
         21   -1    0    0  501  502  0.00000000000E+00  0.00000000000E+00  0.20001141577E+03  0.20001141577E+03  0.00000000000E+00 0.  1.
         21   -1    0    0  502  503 -0.00000000000E+00 -0.00000000000E+00 -0.53728746096E+03  0.53728746096E+03  0.00000000000E+00 0. -1.
          6    1    1    2  501    0  0.97877153682E+02  0.11957530399E+03  0.91853587377E+02  0.24948801986E+03  0.17300000000E+03 0.  1.
         -6    1    1    2    0  503 -0.97877153682E+02 -0.11957530399E+03 -0.42912963256E+03  0.48781085687E+03  0.17300000000E+03 0. -1.
</event>
<event>
 4    1  0.5929306E+000  0.1000000E+03  0.7546771E-02  0.1280296E+00
         21   -1    0    0  503  502  0.00000000000E+00  0.00000000000E+00  0.15819870015E+03  0.15819870015E+03  0.00000000000E+00 0. -1.
         21   -1    0    0  501  503 -0.00000000000E+00 -0.00000000000E+00 -0.42760957305E+03  0.42760957305E+03  0.00000000000E+00 0. -1.
          6    1    1    2  501    0  0.91885515017E+02 -0.11272031345E+03 -0.27966755914E+03  0.35957163482E+03  0.17300000000E+03 0. -1.
         -6    1    1    2    0  502 -0.91885515017E+02  0.11272031345E+03  0.10256686237E+02  0.22623663838E+03  0.17300000000E+03 0. -1.
</event>
<event>
 4    1  0.5929306E+000  0.1000000E+03  0.7546771E-02  0.1280296E+00
         21   -1    0    0  501  502  0.00000000000E+00  0.00000000000E+00  0.60754323612E+02  0.60754323612E+02  0.00000000000E+00 0. -1.
         21   -1    0    0  502  503 -0.00000000000E+00 -0.00000000000E+00 -0.92837098346E+03  0.92837098346E+03  0.00000000000E+00 0. -1.
          6    1    1    2  501    0 -0.47690963755E+01  0.92083639268E+02 -0.15464200900E+03  0.24969039198E+03  0.17300000000E+03 0. -1.
         -6    1    1    2    0  503  0.47690963755E+01 -0.92083639268E+02 -0.71297465085E+03  0.73943491509E+03  0.17300000000E+03 0. -1.
</event>
<event>
 4    1  0.5929306E+000  0.1000000E+03  0.7546771E-02  0.1280296E+00
         21   -1    0    0  501  502  0.00000000000E+00  0.00000000000E+00  0.70517383197E+03  0.70517383197E+03  0.00000000000E+00 0. -1.
         21   -1    0    0  502  503 -0.00000000000E+00 -0.00000000000E+00 -0.10163108663E+03  0.10163108663E+03  0.00000000000E+00 0. -1.
          6    1    1    2  501    0  0.84302983929E+02  0.18261324265E+03  0.24777575122E+03  0.36301020975E+03  0.17300000000E+03 0. -1.
         -6    1    1    2    0  503 -0.84302983929E+02 -0.18261324265E+03  0.35576699412E+03  0.44379470884E+03  0.17300000000E+03 0. -1.
</event>
<event>
 4    1  0.5929306E+000  0.1000000E+03  0.7546771E-02  0.1280296E+00
         21   -1    0    0  501  502  0.00000000000E+00  0.00000000000E+00  0.37395180989E+02  0.37395180989E+02  0.00000000000E+00 0. -1.
         21   -1    0    0  502  503 -0.00000000000E+00 -0.00000000000E+00 -0.18553194339E+04  0.18553194339E+04  0.00000000000E+00 0. -1.
          6    1    1    2  501    0 -0.23999825915E+02 -0.11602147644E+03 -0.33619939136E+03  0.39622721434E+03  0.17300000000E+03 0. -1.
         -6    1    1    2    0  503  0.23999825915E+02  0.11602147644E+03 -0.14817248615E+04  0.14964874005E+04  0.17300000000E+03 0. -1.
</event>
<event>
 4    1  0.5929306E+000  0.1000000E+03  0.7546771E-02  0.1280296E+00
         21   -1    0    0  501  502  0.00000000000E+00  0.00000000000E+00  0.56179143366E+03  0.56179143366E+03  0.00000000000E+00 0. -1.
         21   -1    0    0  502  503 -0.00000000000E+00 -0.00000000000E+00 -0.97820579147E+02  0.97820579147E+02  0.00000000000E+00 0.  1.
          6    1    1    2  501    0  0.11773989716E+03  0.45429033637E+02  0.36618757732E+03  0.42420375089E+03  0.17300000000E+03 0.  1.
         -6    1    1    2    0  503 -0.11773989716E+03 -0.45429033637E+02  0.97783277190E+02  0.23540826192E+03  0.17300000000E+03 0. -1.
</event>
<event>
 4    1  0.5929306E+000  0.1000000E+03  0.7546771E-02  0.1280296E+00
         21   -1    0    0  501  502  0.00000000000E+00  0.00000000000E+00  0.41050884967E+02  0.41050884967E+02  0.00000000000E+00 0. -1.
         21   -1    0    0  502  503 -0.00000000000E+00 -0.00000000000E+00 -0.88606368598E+03  0.88606368598E+03  0.00000000000E+00 0.  1.
          6    1    1    2  501    0  0.38868690536E+00 -0.66752413360E+02 -0.53089665646E+03  0.56234890914E+03  0.17300000000E+03 0.  1.
         -6    1    1    2    0  503 -0.38868690536E+00  0.66752413360E+02 -0.31411614455E+03  0.36476566180E+03  0.17300000000E+03 0. -1.
</event>
<event>
 4    1  0.5929306E+000  0.1000000E+03  0.7546771E-02  0.1280296E+00
         21   -1    0    0  501  502  0.00000000000E+00  0.00000000000E+00  0.11051481934E+03  0.11051481934E+03  0.00000000000E+00 0. -1.
         21   -1    0    0  502  503 -0.00000000000E+00 -0.00000000000E+00 -0.56185997527E+03  0.56185997527E+03  0.00000000000E+00 0. -1.
          6    1    1    2  501    0 -0.35684416751E+01 -0.10648554123E+03 -0.31036234931E+02  0.20553382239E+03  0.17300000000E+03 0. -1.
         -6    1    1    2    0  503  0.35684416751E+01  0.10648554123E+03 -0.42030892100E+03  0.46684097221E+03  0.17300000000E+03 0. -1.
</event>
<event>
 4    1  0.5929306E+000  0.1000000E+03  0.7546771E-02  0.1280296E+00
         21   -1    0    0  501  502  0.00000000000E+00  0.00000000000E+00  0.14888927639E+03  0.14888927639E+03  0.00000000000E+00 0. -1.
         21   -1    0    0  502  503 -0.00000000000E+00 -0.00000000000E+00 -0.23066347547E+03  0.23066347547E+03  0.00000000000E+00 0. -1.
          6    1    1    2  501    0  0.25625417373E+02  0.20607687710E+02  0.18233294719E+02  0.17703895573E+03  0.17300000000E+03 0. -1.
         -6    1    1    2    0  503 -0.25625417373E+02 -0.20607687710E+02 -0.10000749380E+03  0.20251379613E+03  0.17300000000E+03 0. -1.
</event>
<event>
 4    1  0.5929306E+000  0.1000000E+03  0.7546771E-02  0.1280296E+00
         21   -1    0    0  501  502  0.00000000000E+00  0.00000000000E+00  0.44176750490E+02  0.44176750490E+02  0.00000000000E+00 0. -1.
         21   -1    0    0  502  503 -0.00000000000E+00 -0.00000000000E+00 -0.13014913050E+04  0.13014913050E+04  0.00000000000E+00 0. -1.
          6    1    1    2  501    0 -0.14323494199E+03 -0.83627707207E+02 -0.60750678382E+03  0.65307222755E+03  0.17300000000E+03 0. -1.
         -6    1    1    2    0  503  0.14323494199E+03  0.83627707207E+02 -0.64980777068E+03  0.69259582793E+03  0.17300000000E+03 0. -1.
</event>
<event>
 4    1  0.5929306E+000  0.1000000E+03  0.7546771E-02  0.1280296E+00
         21   -1    0    0  501  502  0.00000000000E+00  0.00000000000E+00  0.18949982470E+03  0.18949982470E+03  0.00000000000E+00 0. -1.
         21   -1    0    0  502  503 -0.00000000000E+00 -0.00000000000E+00 -0.21373505856E+03  0.21373505856E+03  0.00000000000E+00 0. -1.
          6    1    1    2  501    0  0.67308647475E+02  0.49919736718E+02  0.47583277317E+02  0.19802929687E+03  0.17300000000E+03 0. -1.
         -6    1    1    2    0  503 -0.67308647475E+02 -0.49919736718E+02 -0.71818511171E+02  0.20520558639E+03  0.17300000000E+03 0. -1.
</event>
<event>
 4    1  0.5929306E+000  0.1000000E+03  0.7546771E-02  0.1280296E+00
         21   -1    0    0  501  502  0.00000000000E+00  0.00000000000E+00  0.22756160384E+03  0.22756160384E+03  0.00000000000E+00 0. -1.
         21   -1    0    0  502  503 -0.00000000000E+00 -0.00000000000E+00 -0.18514614855E+03  0.18514614855E+03  0.00000000000E+00 0.  1.
          6    1    1    2  501    0  0.34265823475E+02 -0.10420436437E+03  0.34333197855E+02  0.20770282783E+03  0.17300000000E+03 0. -1.
         -6    1    1    2    0  503 -0.34265823475E+02  0.10420436437E+03  0.80822574346E+01  0.20500492457E+03  0.17300000000E+03 0.  1.
</event>
<event>
 4    1  0.5929306E+000  0.1000000E+03  0.7546771E-02  0.1280296E+00
         21   -1    0    0  501  502  0.00000000000E+00  0.00000000000E+00  0.20805758464E+03  0.20805758464E+03  0.00000000000E+00 0. -1.
         21   -1    0    0  502  503 -0.00000000000E+00 -0.00000000000E+00 -0.21985686680E+03  0.21985686680E+03  0.00000000000E+00 0.  1.
          6    1    1    2  501    0  0.34196460932E+02 -0.11829894655E+03  0.19602210815E+02  0.21325403950E+03  0.17300000000E+03 0. -1.
         -6    1    1    2    0  503 -0.34196460932E+02  0.11829894655E+03 -0.31401492973E+02  0.21466041194E+03  0.17300000000E+03 0.  1.
</event>
<event>
 4    1  0.5929306E+000  0.1000000E+03  0.7546771E-02  0.1280296E+00
         21   -1    0    0  501  502  0.00000000000E+00  0.00000000000E+00  0.21398981132E+03  0.21398981132E+03  0.00000000000E+00 0. -1.
         21   -1    0    0  502  503 -0.00000000000E+00 -0.00000000000E+00 -0.28904603101E+03  0.28904603101E+03  0.00000000000E+00 0.  1.
          6    1    1    2  501    0 -0.62397232514E+02  0.80910617256E+02  0.11070529354E+03  0.22940053319E+03  0.17300000000E+03 0. -1.
         -6    1    1    2    0  503  0.62397232514E+02 -0.80910617256E+02 -0.18576151323E+03  0.27363530914E+03  0.17300000000E+03 0.  1.
</event>
<event>
 4    1  0.5929306E+000  0.1000000E+03  0.7546771E-02  0.1280296E+00
         21   -1    0    0  501  502  0.00000000000E+00  0.00000000000E+00  0.68275318553E+03  0.68275318553E+03  0.00000000000E+00 0. -1.
         21   -1    0    0  502  503 -0.00000000000E+00 -0.00000000000E+00 -0.20711406080E+03  0.20711406080E+03  0.00000000000E+00 0.  1.
          6    1    1    2  501    0  0.13093872074E+03 -0.22156491530E+02  0.60027893728E+03  0.63867022887E+03  0.17300000000E+03 0. -1.
         -6    1    1    2    0  503 -0.13093872074E+03  0.22156491530E+02 -0.12463981255E+03  0.25119701746E+03  0.17300000000E+03 0.  1.
</event>
<event>
 4    1  0.5929306E+000  0.1000000E+03  0.7546771E-02  0.1280296E+00
         21   -1    0    0  503  502  0.00000000000E+00  0.00000000000E+00  0.27504244412E+04  0.27504244412E+04  0.00000000000E+00 0.  1.
         21   -1    0    0  501  503 -0.00000000000E+00 -0.00000000000E+00 -0.51880755032E+02  0.51880755032E+02  0.00000000000E+00 0. -1.
          6    1    1    2  501    0 -0.74647847911E+02 -0.46934541435E+02  0.14740518891E+03  0.24378769882E+03  0.17300000000E+03 0. -1.
         -6    1    1    2    0  502  0.74647847911E+02  0.46934541435E+02  0.25511384973E+04  0.25585174975E+04  0.17300000000E+03 0.  1.
</event>
<event>
 4    1  0.5929306E+000  0.1000000E+03  0.7546771E-02  0.1280296E+00
         21   -1    0    0  503  502  0.00000000000E+00  0.00000000000E+00  0.58416054306E+03  0.58416054306E+03  0.00000000000E+00 0.  1.
         21   -1    0    0  501  503 -0.00000000000E+00 -0.00000000000E+00 -0.74277644625E+02  0.74277644625E+02  0.00000000000E+00 0. -1.
          6    1    1    2  501    0 -0.72376190087E+02 -0.45252222792E+02  0.13074531825E+03  0.23304380447E+03  0.17300000000E+03 0. -1.
         -6    1    1    2    0  502  0.72376190087E+02  0.45252222792E+02  0.37913758019E+03  0.42539438321E+03  0.17300000000E+03 0.  1.
</event>
<event>
 4    1  0.5929306E+000  0.1000000E+03  0.7546771E-02  0.1280296E+00
         21   -1    0    0  503  502  0.00000000000E+00  0.00000000000E+00  0.49760465038E+03  0.49760465038E+03  0.00000000000E+00 0.  1.
         21   -1    0    0  501  503 -0.00000000000E+00 -0.00000000000E+00 -0.19214766987E+03  0.19214766987E+03  0.00000000000E+00 0.  1.
          6    1    1    2  501    0 -0.47215753401E+02 -0.17661512862E+02 -0.12753536806E+03  0.22076124323E+03  0.17300000000E+03 0.  1.
         -6    1    1    2    0  502  0.47215753401E+02  0.17661512862E+02  0.43299234857E+03  0.46899107702E+03  0.17300000000E+03 0.  1.
</event>
<event>
 4    1  0.5929306E+000  0.1000000E+03  0.7546771E-02  0.1280296E+00
         21   -1    0    0  501  502  0.00000000000E+00  0.00000000000E+00  0.75838465315E+02  0.75838465315E+02  0.00000000000E+00 0.  1.
         21   -1    0    0  502  503 -0.00000000000E+00 -0.00000000000E+00 -0.74297734209E+03  0.74297734209E+03  0.00000000000E+00 0. -1.
          6    1    1    2  501    0 -0.92302904289E+02  0.85058892739E+00 -0.10283613103E+03  0.22141549062E+03  0.17300000000E+03 0.  1.
         -6    1    1    2    0  503  0.92302904289E+02 -0.85058892739E+00 -0.56430274574E+03  0.59740031678E+03  0.17300000000E+03 0.  1.
</event>
<event>
 4    1  0.5929306E+000  0.1000000E+03  0.7546771E-02  0.1280296E+00
         21   -1    0    0  501  502  0.00000000000E+00  0.00000000000E+00  0.14308218460E+03  0.14308218460E+03  0.00000000000E+00 0.  1.
         21   -1    0    0  502  503 -0.00000000000E+00 -0.00000000000E+00 -0.33930309995E+03  0.33930309995E+03  0.00000000000E+00 0. -1.
          6    1    1    2  501    0  0.32820463138E+02  0.10940190215E+03 -0.17983121707E+03  0.27443437399E+03  0.17300000000E+03 0.  1.
         -6    1    1    2    0  503 -0.32820463138E+02 -0.10940190215E+03 -0.16389698280E+02  0.20795091056E+03  0.17300000000E+03 0.  1.
</event>
<event>
 4    1  0.5929306E+000  0.1000000E+03  0.7546771E-02  0.1280296E+00
         21   -1    0    0  501  502  0.00000000000E+00  0.00000000000E+00  0.29134212401E+02  0.29134212401E+02  0.00000000000E+00 0.  1.
         21   -1    0    0  502  503 -0.00000000000E+00 -0.00000000000E+00 -0.18184312681E+04  0.18184312681E+04  0.00000000000E+00 0. -1.
          6    1    1    2  501    0 -0.21498988445E+02 -0.85376036590E+02 -0.39823777159E+03  0.44302776081E+03  0.17300000000E+03 0.  1.
         -6    1    1    2    0  503  0.21498988445E+02  0.85376036590E+02 -0.13910592841E+04  0.14045377197E+04  0.17300000000E+03 0.  1.
</event>
<event>
 4    1  0.5929306E+000  0.1000000E+03  0.7546771E-02  0.1280296E+00
         21   -1    0    0  501  502  0.00000000000E+00  0.00000000000E+00  0.57417173332E+03  0.57417173332E+03  0.00000000000E+00 0.  1.
         21   -1    0    0  502  503 -0.00000000000E+00 -0.00000000000E+00 -0.89647852431E+02  0.89647852431E+02  0.00000000000E+00 0. -1.
          6    1    1    2  501    0  0.23413083818E+01  0.23346340360E+02  0.45423175285E+03  0.48662718649E+03  0.17300000000E+03 0.  1.
         -6    1    1    2    0  503 -0.23413083818E+01 -0.23346340360E+02  0.30292128031E+02  0.17719239926E+03  0.17300000000E+03 0.  1.
</event>
<event>
 4    1  0.5929306E+000  0.1000000E+03  0.7546771E-02  0.1280296E+00
         21   -1    0    0  503  502  0.00000000000E+00  0.00000000000E+00  0.41112309989E+02  0.41112309989E+02  0.00000000000E+00 0. -1.
         21   -1    0    0  501  503 -0.00000000000E+00 -0.00000000000E+00 -0.88200298226E+03  0.88200298226E+03  0.00000000000E+00 0.  1.
          6    1    1    2  501    0  0.60516081394E+02  0.29080777827E+02 -0.52397199368E+03  0.55586287689E+03  0.17300000000E+03 0.  1.
         -6    1    1    2    0  502 -0.60516081394E+02 -0.29080777827E+02 -0.31691867860E+03  0.36725241536E+03  0.17300000000E+03 0. -1.
</event>
<event>
 4    1  0.5929306E+000  0.1000000E+03  0.7546771E-02  0.1280296E+00
         21   -1    0    0  503  502  0.00000000000E+00  0.00000000000E+00  0.21216556990E+03  0.21216556990E+03  0.00000000000E+00 0. -1.
         21   -1    0    0  501  503 -0.00000000000E+00 -0.00000000000E+00 -0.45496414904E+03  0.45496414904E+03  0.00000000000E+00 0.  1.
          6    1    1    2  501    0  0.21341222716E+03  0.93434362985E+02 -0.22121079940E+01  0.29018727110E+03  0.17300000000E+03 0.  1.
         -6    1    1    2    0  502 -0.21341222716E+03 -0.93434362985E+02 -0.24058647114E+03  0.37694244784E+03  0.17300000000E+03 0. -1.
</event>
<event>
 4    1  0.5929306E+000  0.1000000E+03  0.7546771E-02  0.1280296E+00
         21   -1    0    0  503  502  0.00000000000E+00  0.00000000000E+00  0.98745453377E+03  0.98745453377E+03  0.00000000000E+00 0. -1.
         21   -1    0    0  501  503 -0.00000000000E+00 -0.00000000000E+00 -0.36330160546E+02  0.36330160546E+02  0.00000000000E+00 0.  1.
          6    1    1    2  501    0  0.68875892568E+02  0.12022822111E+02  0.38769785672E+03  0.43026394798E+03  0.17300000000E+03 0.  1.
         -6    1    1    2    0  502 -0.68875892568E+02 -0.12022822111E+02  0.56342651650E+03  0.59352074633E+03  0.17300000000E+03 0. -1.
</event>
<event>
 4    1  0.5929306E+000  0.1000000E+03  0.7546771E-02  0.1280296E+00
         21   -1    0    0  503  502  0.00000000000E+00  0.00000000000E+00  0.78847750524E+02  0.78847750524E+02  0.00000000000E+00 0.  1.
         21   -1    0    0  501  503 -0.00000000000E+00 -0.00000000000E+00 -0.49954713288E+03  0.49954713288E+03  0.00000000000E+00 0. -1.
          6    1    1    2  501    0 -0.11443844980E+02 -0.41805373688E+02 -0.33722028316E+03  0.38147761433E+03  0.17300000000E+03 0.  1.
         -6    1    1    2    0  502  0.11443844980E+02  0.41805373688E+02 -0.83479099188E+02  0.19691726907E+03  0.17300000000E+03 0.  1.
</event>
<event>
 4    1  0.5929306E+000  0.1000000E+03  0.7546771E-02  0.1280296E+00
         21   -1    0    0  503  502  0.00000000000E+00  0.00000000000E+00  0.22469084335E+03  0.22469084335E+03  0.00000000000E+00 0.  1.
         21   -1    0    0  501  503 -0.00000000000E+00 -0.00000000000E+00 -0.21778636932E+03  0.21778636932E+03  0.00000000000E+00 0. -1.
          6    1    1    2  501    0  0.72116496798E+02 -0.80074236005E+02 -0.82540385622E+02  0.21989676587E+03  0.17300000000E+03 0.  1.
         -6    1    1    2    0  502 -0.72116496798E+02  0.80074236005E+02  0.89444859651E+02  0.22258044681E+03  0.17300000000E+03 0.  1.
</event>
<event>
 4    1  0.5929306E+000  0.1000000E+03  0.7546771E-02  0.1280296E+00
         21   -1    0    0  501  502  0.00000000000E+00  0.00000000000E+00  0.39288036650E+03  0.39288036650E+03  0.00000000000E+00 0. -1.
         21   -1    0    0  502  503 -0.00000000000E+00 -0.00000000000E+00 -0.24409091342E+03  0.24409091342E+03  0.00000000000E+00 0.  1.
          6    1    1    2  501    0  0.87089393060E+02 -0.23572070942E+03  0.12901618367E+03  0.33124460883E+03  0.17300000000E+03 0.  1.
         -6    1    1    2    0  503 -0.87089393060E+02  0.23572070942E+03  0.19773269410E+02  0.30572667109E+03  0.17300000000E+03 0. -1.
</event>
<event>
 4    1  0.5929306E+000  0.1000000E+03  0.7546771E-02  0.1280296E+00
         21   -1    0    0  501  502  0.00000000000E+00  0.00000000000E+00  0.77817425214E+03  0.77817425214E+03  0.00000000000E+00 0. -1.
         21   -1    0    0  502  503 -0.00000000000E+00 -0.00000000000E+00 -0.12893446363E+03  0.12893446363E+03  0.00000000000E+00 0.  1.
          6    1    1    2  501    0 -0.98332822588E+02  0.89478479234E+02  0.65341859554E+03  0.68888359194E+03  0.17300000000E+03 0.  1.
         -6    1    1    2    0  503  0.98332822588E+02 -0.89478479234E+02 -0.41788070291E+01  0.21822512383E+03  0.17300000000E+03 0. -1.
</event>
<event>
 4    1  0.5929306E+000  0.1000000E+03  0.7546771E-02  0.1280296E+00
         21   -1    0    0  501  502  0.00000000000E+00  0.00000000000E+00  0.64660362559E+02  0.64660362559E+02  0.00000000000E+00 0.  1.
         21   -1    0    0  502  503 -0.00000000000E+00 -0.00000000000E+00 -0.12257349798E+04  0.12257349798E+04  0.00000000000E+00 0. -1.
          6    1    1    2  501    0 -0.11512100914E+03  0.71295878127E+02 -0.17708066956E+03  0.28217461352E+03  0.17300000000E+03 0.  1.
         -6    1    1    2    0  503  0.11512100914E+03 -0.71295878127E+02 -0.98399394766E+03  0.10082207288E+04  0.17300000000E+03 0. -1.
</event>
<event>
 4    1  0.5929306E+000  0.1000000E+03  0.7546771E-02  0.1280296E+00
         21   -1    0    0  501  502  0.00000000000E+00  0.00000000000E+00  0.70633752032E+03  0.70633752032E+03  0.00000000000E+00 0.  1.
         21   -1    0    0  502  503 -0.00000000000E+00 -0.00000000000E+00 -0.78555466559E+02  0.78555466559E+02  0.00000000000E+00 0. -1.
          6    1    1    2  501    0  0.78608569573E+01 -0.42983095819E+01  0.57981880400E+03  0.60514387877E+03  0.17300000000E+03 0.  1.
         -6    1    1    2    0  503 -0.78608569573E+01  0.42983095819E+01  0.47963249753E+02  0.17974910810E+03  0.17300000000E+03 0. -1.
</event>
<event>
 4    1  0.5929306E+000  0.1000000E+03  0.7546771E-02  0.1280296E+00
         21   -1    0    0  503  502  0.00000000000E+00  0.00000000000E+00  0.17872002549E+02  0.17872002549E+02  0.00000000000E+00 0.  1.
         21   -1    0    0  501  503 -0.00000000000E+00 -0.00000000000E+00 -0.28670086978E+04  0.28670086978E+04  0.00000000000E+00 0. -1.
          6    1    1    2  501    0  0.20254007362E+02  0.82117779523E+02 -0.21827560281E+04  0.21912339977E+04  0.17300000000E+03 0. -1.
         -6    1    1    2    0  502 -0.20254007362E+02 -0.82117779523E+02 -0.66638066720E+03  0.69364670268E+03  0.17300000000E+03 0.  1.
</event>
<event>
 4    1  0.5929306E+000  0.1000000E+03  0.7546771E-02  0.1280296E+00
         21   -1    0    0  503  502  0.00000000000E+00  0.00000000000E+00  0.50377949706E+03  0.50377949706E+03  0.00000000000E+00 0.  1.
         21   -1    0    0  501  503 -0.00000000000E+00 -0.00000000000E+00 -0.30660972202E+03  0.30660972202E+03  0.00000000000E+00 0.  1.
          6    1    1    2  501    0  0.71742552228E+02 -0.12863176062E+03 -0.23203943449E+03  0.32475286419E+03  0.17300000000E+03 0.  1.
         -6    1    1    2    0  502 -0.71742552228E+02  0.12863176062E+03  0.42920920954E+03  0.48563635489E+03  0.17300000000E+03 0.  1.
</event>
<event>
 4    1  0.5929306E+000  0.1000000E+03  0.7546771E-02  0.1280296E+00
         21   -1    0    0  503  502  0.00000000000E+00  0.00000000000E+00  0.58764889725E+03  0.58764889725E+03  0.00000000000E+00 0.  1.
         21   -1    0    0  501  503 -0.00000000000E+00 -0.00000000000E+00 -0.11065043324E+03  0.11065043324E+03  0.00000000000E+00 0.  1.
          6    1    1    2  501    0 -0.57856863104E+02  0.47580140859E+01 -0.53794512590E+01  0.18255956234E+03  0.17300000000E+03 0.  1.
         -6    1    1    2    0  502  0.57856863104E+02 -0.47580140859E+01  0.48237791527E+03  0.51573976814E+03  0.17300000000E+03 0.  1.
</event>
<event>
 4    1  0.5929306E+000  0.1000000E+03  0.7546771E-02  0.1280296E+00
         21   -1    0    0  503  502  0.00000000000E+00  0.00000000000E+00  0.10450236316E+03  0.10450236316E+03  0.00000000000E+00 0.  1.
         21   -1    0    0  501  503 -0.00000000000E+00 -0.00000000000E+00 -0.49875267747E+03  0.49875267747E+03  0.00000000000E+00 0.  1.
          6    1    1    2  501    0 -0.12521705146E+03 -0.36032843189E+02 -0.29252713258E+03  0.36397637157E+03  0.17300000000E+03 0.  1.
         -6    1    1    2    0  502  0.12521705146E+03  0.36032843189E+02 -0.10172318173E+03  0.23927866906E+03  0.17300000000E+03 0.  1.
</event>
<event>
 4    1  0.5929306E+000  0.1000000E+03  0.7546771E-02  0.1280296E+00
         21   -1    0    0  503  502  0.00000000000E+00  0.00000000000E+00  0.35929959355E+03  0.35929959355E+03  0.00000000000E+00 0.  1.
         21   -1    0    0  501  503 -0.00000000000E+00 -0.00000000000E+00 -0.13676129355E+03  0.13676129355E+03  0.00000000000E+00 0.  1.
          6    1    1    2  501    0 -0.62215292552E+02 -0.85937794493E+02  0.11483796765E+02  0.20326565066E+03  0.17300000000E+03 0.  1.
         -6    1    1    2    0  502  0.62215292552E+02  0.85937794493E+02  0.21105450324E+03  0.29279523645E+03  0.17300000000E+03 0.  1.
</event>
<event>
 4    1  0.5929306E+000  0.1000000E+03  0.7546771E-02  0.1280296E+00
         21   -1    0    0  503  502  0.00000000000E+00  0.00000000000E+00  0.32971197452E+03  0.32971197452E+03  0.00000000000E+00 0.  1.
         21   -1    0    0  501  503 -0.00000000000E+00 -0.00000000000E+00 -0.18420225497E+03  0.18420225497E+03  0.00000000000E+00 0.  1.
          6    1    1    2  501    0  0.81766091883E+02 -0.13713588575E+03 -0.32436840521E+01  0.23543888045E+03  0.17300000000E+03 0.  1.
         -6    1    1    2    0  502 -0.81766091883E+02  0.13713588575E+03  0.14875340360E+03  0.27847534904E+03  0.17300000000E+03 0.  1.
</event>
<event>
 4    1  0.5929306E+000  0.1000000E+03  0.7546771E-02  0.1280296E+00
         21   -1    0    0  503  502  0.00000000000E+00  0.00000000000E+00  0.11102472159E+02  0.11102472159E+02  0.00000000000E+00 0.  1.
         21   -1    0    0  501  503 -0.00000000000E+00 -0.00000000000E+00 -0.39759344238E+04  0.39759344238E+04  0.00000000000E+00 0.  1.
          6    1    1    2  501    0 -0.27953053331E+02  0.97697599909E+02 -0.25740135706E+04  0.25818212672E+04  0.17300000000E+03 0.  1.
         -6    1    1    2    0  502  0.27953053331E+02 -0.97697599909E+02 -0.13908183811E+04  0.14052156288E+04  0.17300000000E+03 0.  1.
</event>
<event>
 4    1  0.5929306E+000  0.1000000E+03  0.7546771E-02  0.1280296E+00
         21   -1    0    0  501  502  0.00000000000E+00  0.00000000000E+00  0.95323989546E+02  0.95323989546E+02  0.00000000000E+00 0. -1.
         21   -1    0    0  502  503 -0.00000000000E+00 -0.00000000000E+00 -0.39489695314E+03  0.39489695314E+03  0.00000000000E+00 0. -1.
          6    1    1    2  501    0  0.51170447563E+02  0.71235870625E+02 -0.15560181718E+03  0.24866421029E+03  0.17300000000E+03 0. -1.
         -6    1    1    2    0  503 -0.51170447563E+02 -0.71235870625E+02 -0.14397114641E+03  0.24155673240E+03  0.17300000000E+03 0. -1.
</event>
<event>
 4    1  0.5929306E+000  0.1000000E+03  0.7546771E-02  0.1280296E+00
         21   -1    0    0  501  502  0.00000000000E+00  0.00000000000E+00  0.71125595609E+02  0.71125595609E+02  0.00000000000E+00 0. -1.
         21   -1    0    0  502  503 -0.00000000000E+00 -0.00000000000E+00 -0.44138221786E+03  0.44138221786E+03  0.00000000000E+00 0. -1.
          6    1    1    2  501    0  0.35762153486E+02 -0.13538220885E+02 -0.18734921773E+03  0.25785838057E+03  0.17300000000E+03 0. -1.
         -6    1    1    2    0  503 -0.35762153486E+02  0.13538220885E+02 -0.18290740453E+03  0.25464943290E+03  0.17300000000E+03 0. -1.
</event>
<event>
 4    1  0.5929306E+000  0.1000000E+03  0.7546771E-02  0.1280296E+00
         21   -1    0    0  503  502  0.00000000000E+00  0.00000000000E+00  0.92317883004E+02  0.92317883004E+02  0.00000000000E+00 0.  1.
         21   -1    0    0  501  503 -0.00000000000E+00 -0.00000000000E+00 -0.14939618626E+04  0.14939618626E+04  0.00000000000E+00 0.  1.
          6    1    1    2  501    0  0.80353772718E+02  0.37936254760E+02 -0.13765038106E+04  0.13901753950E+04  0.17300000000E+03 0.  1.
         -6    1    1    2    0  502 -0.80353772718E+02 -0.37936254760E+02 -0.25140168934E+02  0.19610435056E+03  0.17300000000E+03 0.  1.
</event>
<event>
 4    1  0.5929306E+000  0.1000000E+03  0.7546771E-02  0.1280296E+00
         21   -1    0    0  501  502  0.00000000000E+00  0.00000000000E+00  0.26382938040E+03  0.26382938040E+03  0.00000000000E+00 0.  1.
         21   -1    0    0  502  503 -0.00000000000E+00 -0.00000000000E+00 -0.17201796378E+03  0.17201796378E+03  0.00000000000E+00 0.  1.
          6    1    1    2  501    0  0.97554580111E+02 -0.37936264566E+02 -0.22703419724E+02  0.20347113195E+03  0.17300000000E+03 0. -1.
         -6    1    1    2    0  503 -0.97554580111E+02  0.37936264566E+02  0.11451483634E+03  0.23237621224E+03  0.17300000000E+03 0. -1.
</event>
<event>
 4    1  0.5929306E+000  0.1000000E+03  0.7546771E-02  0.1280296E+00
         21   -1    0    0  501  502  0.00000000000E+00  0.00000000000E+00  0.16302368110E+03  0.16302368110E+03  0.00000000000E+00 0.  1.
         21   -1    0    0  502  503 -0.00000000000E+00 -0.00000000000E+00 -0.38286464291E+03  0.38286464291E+03  0.00000000000E+00 0.  1.
          6    1    1    2  501    0  0.16545477574E+02 -0.17896829884E+03 -0.95117112340E+02  0.26698252729E+03  0.17300000000E+03 0. -1.
         -6    1    1    2    0  503 -0.16545477574E+02  0.17896829884E+03 -0.12472384947E+03  0.27890579672E+03  0.17300000000E+03 0. -1.
</event>
<event>
 4    1  0.5929306E+000  0.1000000E+03  0.7546771E-02  0.1280296E+00
         21   -1    0    0  501  502  0.00000000000E+00  0.00000000000E+00  0.74340925322E+03  0.74340925322E+03  0.00000000000E+00 0.  1.
         21   -1    0    0  502  503 -0.00000000000E+00 -0.00000000000E+00 -0.74874606115E+02  0.74874606115E+02  0.00000000000E+00 0.  1.
          6    1    1    2  501    0  0.74736144360E+02  0.49596657083E-01  0.58042223295E+03  0.61024950818E+03  0.17300000000E+03 0. -1.
         -6    1    1    2    0  503 -0.74736144360E+02 -0.49596657083E-01  0.88112414163E+02  0.20803435116E+03  0.17300000000E+03 0. -1.
</event>
<event>
 4    1  0.5929306E+000  0.1000000E+03  0.7546771E-02  0.1280296E+00
         21   -1    0    0  501  502  0.00000000000E+00  0.00000000000E+00  0.30776844289E+03  0.30776844289E+03  0.00000000000E+00 0.  1.
         21   -1    0    0  502  503 -0.00000000000E+00 -0.00000000000E+00 -0.20100205169E+03  0.20100205169E+03  0.00000000000E+00 0.  1.
          6    1    1    2  501    0 -0.30681573579E+02  0.18148689089E+02  0.23247775109E+03  0.29196855760E+03  0.17300000000E+03 0. -1.
         -6    1    1    2    0  503  0.30681573579E+02 -0.18148689089E+02 -0.12571135990E+03  0.21680193698E+03  0.17300000000E+03 0. -1.
</event>
<event>
 4    1  0.5929306E+000  0.1000000E+03  0.7546771E-02  0.1280296E+00
         21   -1    0    0  501  502  0.00000000000E+00  0.00000000000E+00  0.39247857690E+03  0.39247857690E+03  0.00000000000E+00 0.  1.
         21   -1    0    0  502  503 -0.00000000000E+00 -0.00000000000E+00 -0.15310881011E+03  0.15310881011E+03  0.00000000000E+00 0.  1.
          6    1    1    2  501    0 -0.35520350074E+02  0.35311561246E+01  0.30882808435E+03  0.35577795043E+03  0.17300000000E+03 0. -1.
         -6    1    1    2    0  503  0.35520350074E+02 -0.35311561246E+01 -0.69458317560E+02  0.18980943657E+03  0.17300000000E+03 0. -1.
</event>
<event>
 4    1  0.5929306E+000  0.1000000E+03  0.7546771E-02  0.1280296E+00
         21   -1    0    0  501  502  0.00000000000E+00  0.00000000000E+00  0.50975218455E+02  0.50975218455E+02  0.00000000000E+00 0.  1.
         21   -1    0    0  502  503 -0.00000000000E+00 -0.00000000000E+00 -0.84946394980E+03  0.84946394980E+03  0.00000000000E+00 0.  1.
          6    1    1    2  501    0 -0.17712809382E+02 -0.52772536878E+02 -0.17994338283E+03  0.25574851962E+03  0.17300000000E+03 0.  1.
         -6    1    1    2    0  503  0.17712809382E+02  0.52772536878E+02 -0.61854534852E+03  0.64469064864E+03  0.17300000000E+03 0.  1.
</event>
<event>
 4    1  0.5929306E+000  0.1000000E+03  0.7546771E-02  0.1280296E+00
         21   -1    0    0  503  502  0.00000000000E+00  0.00000000000E+00  0.90140432124E+03  0.90140432124E+03  0.00000000000E+00 0. -1.
         21   -1    0    0  501  503 -0.00000000000E+00 -0.00000000000E+00 -0.43881617862E+02  0.43881617862E+02  0.00000000000E+00 0. -1.
          6    1    1    2  501    0  0.42043741323E+02 -0.72221864634E+02  0.30660055786E+03  0.36182395719E+03  0.17300000000E+03 0. -1.
         -6    1    1    2    0  502 -0.42043741323E+02  0.72221864634E+02  0.55092214552E+03  0.58346198191E+03  0.17300000000E+03 0. -1.
</event>
<event>
 4    1  0.5929306E+000  0.1000000E+03  0.7546771E-02  0.1280296E+00
         21   -1    0    0  503  502  0.00000000000E+00  0.00000000000E+00  0.82844134325E+02  0.82844134325E+02  0.00000000000E+00 0. -1.
         21   -1    0    0  501  503 -0.00000000000E+00 -0.00000000000E+00 -0.16028053089E+04  0.16028053089E+04  0.00000000000E+00 0. -1.
          6    1    1    2  501    0  0.91532109019E+02 -0.11516104498E+03 -0.14191256151E+04  0.14371801225E+04  0.17300000000E+03 0. -1.
         -6    1    1    2    0  502 -0.91532109019E+02  0.11516104498E+03 -0.10083555950E+03  0.24846932069E+03  0.17300000000E+03 0. -1.
</event>
<event>
 4    1  0.5929306E+000  0.1000000E+03  0.7546771E-02  0.1280296E+00
         21   -1    0    0  503  502  0.00000000000E+00  0.00000000000E+00  0.27671648915E+03  0.27671648915E+03  0.00000000000E+00 0. -1.
         21   -1    0    0  501  503 -0.00000000000E+00 -0.00000000000E+00 -0.40519329538E+03  0.40519329538E+03  0.00000000000E+00 0. -1.
          6    1    1    2  501    0 -0.21364381509E+03  0.26560577357E+02 -0.25702007263E+03  0.37727637314E+03  0.17300000000E+03 0. -1.
         -6    1    1    2    0  502  0.21364381509E+03 -0.26560577357E+02  0.12854326640E+03  0.30463341139E+03  0.17300000000E+03 0. -1.
</event>
<event>
 4    1  0.5929306E+000  0.1000000E+03  0.7546771E-02  0.1280296E+00
         21   -1    0    0  503  502  0.00000000000E+00  0.00000000000E+00  0.77615214550E+03  0.77615214550E+03  0.00000000000E+00 0. -1.
         21   -1    0    0  501  503 -0.00000000000E+00 -0.00000000000E+00 -0.12493464185E+03  0.12493464185E+03  0.00000000000E+00 0. -1.
          6    1    1    2  501    0 -0.14096538814E+03 -0.21392474818E+03  0.27139065748E+03  0.41135985159E+03  0.17300000000E+03 0. -1.
         -6    1    1    2    0  502  0.14096538814E+03  0.21392474818E+03  0.37982684617E+03  0.48972693576E+03  0.17300000000E+03 0. -1.
</event>
<event>
 4    1  0.5929306E+000  0.1000000E+03  0.7546771E-02  0.1280296E+00
         21   -1    0    0  503  502  0.00000000000E+00  0.00000000000E+00  0.11698101236E+04  0.11698101236E+04  0.00000000000E+00 0.  1.
         21   -1    0    0  501  503 -0.00000000000E+00 -0.00000000000E+00 -0.10339026107E+03  0.10339026107E+03  0.00000000000E+00 0.  1.
          6    1    1    2  501    0 -0.29780019850E+02 -0.23525093030E+03  0.19179322497E+03  0.35063298609E+03  0.17300000000E+03 0.  1.
         -6    1    1    2    0  502  0.29780019850E+02  0.23525093030E+03  0.87462663751E+03  0.92256739853E+03  0.17300000000E+03 0.  1.
</event>
<event>
 4    1  0.5929306E+000  0.1000000E+03  0.7546771E-02  0.1280296E+00
         21   -1    0    0  503  502  0.00000000000E+00  0.00000000000E+00  0.12044678107E+04  0.12044678107E+04  0.00000000000E+00 0. -1.
         21   -1    0    0  501  503 -0.00000000000E+00 -0.00000000000E+00 -0.29980043999E+02  0.29980043999E+02  0.00000000000E+00 0. -1.
          6    1    1    2  501    0  0.24096345445E+02 -0.73946375508E+02  0.62460372965E+03  0.65276911646E+03  0.17300000000E+03 0. -1.
         -6    1    1    2    0  502 -0.24096345445E+02  0.73946375508E+02  0.54988403709E+03  0.58167873827E+03  0.17300000000E+03 0. -1.
</event>
<event>
 4    1  0.5929306E+000  0.1000000E+03  0.7546771E-02  0.1280296E+00
         21   -1    0    0  501  502  0.00000000000E+00  0.00000000000E+00  0.42162692818E+02  0.42162692818E+02  0.00000000000E+00 0.  1.
         21   -1    0    0  502  503 -0.00000000000E+00 -0.00000000000E+00 -0.11790521354E+04  0.11790521354E+04  0.00000000000E+00 0. -1.
          6    1    1    2  501    0 -0.90974133408E+02 -0.88516742183E+02 -0.73438566045E+03  0.76509006325E+03  0.17300000000E+03 0.  1.
         -6    1    1    2    0  503  0.90974133408E+02  0.88516742183E+02 -0.40250378215E+03  0.45612476500E+03  0.17300000000E+03 0. -1.
</event>
<event>
 4    1  0.5929306E+000  0.1000000E+03  0.7546771E-02  0.1280296E+00
         21   -1    0    0  501  502  0.00000000000E+00  0.00000000000E+00  0.78923270850E+03  0.78923270850E+03  0.00000000000E+00 0. -1.
         21   -1    0    0  502  503 -0.00000000000E+00 -0.00000000000E+00 -0.53610085121E+02  0.53610085121E+02  0.00000000000E+00 0. -1.
          6    1    1    2  501    0  0.38083244481E+02  0.20863389271E+02  0.57770878972E+03  0.60461728411E+03  0.17300000000E+03 0. -1.
         -6    1    1    2    0  503 -0.38083244481E+02 -0.20863389271E+02  0.15791383366E+03  0.23822550952E+03  0.17300000000E+03 0. -1.
</event>
<event>
 4    1  0.5929306E+000  0.1000000E+03  0.7546771E-02  0.1280296E+00
         21   -1    0    0  501  502  0.00000000000E+00  0.00000000000E+00  0.10789194294E+04  0.10789194294E+04  0.00000000000E+00 0. -1.
         21   -1    0    0  502  503 -0.00000000000E+00 -0.00000000000E+00 -0.35131871751E+02  0.35131871751E+02  0.00000000000E+00 0. -1.
          6    1    1    2  501    0  0.30600908434E+01  0.79163222364E+02  0.63983412548E+03  0.66752744367E+03  0.17300000000E+03 0. -1.
         -6    1    1    2    0  503 -0.30600908434E+01 -0.79163222364E+02  0.40395343213E+03  0.44652385744E+03  0.17300000000E+03 0. -1.
</event>
<event>
 4    1  0.5929306E+000  0.1000000E+03  0.7546771E-02  0.1280296E+00
         21   -1    0    0  501  502  0.00000000000E+00  0.00000000000E+00  0.13614920414E+03  0.13614920414E+03  0.00000000000E+00 0. -1.
         21   -1    0    0  502  503 -0.00000000000E+00 -0.00000000000E+00 -0.38208139799E+03  0.38208139799E+03  0.00000000000E+00 0. -1.
          6    1    1    2  501    0 -0.72452542096E+01  0.10136656779E+03  0.25187474827E+00  0.20064081891E+03  0.17300000000E+03 0. -1.
         -6    1    1    2    0  503  0.72452542096E+01 -0.10136656779E+03 -0.24618406860E+03  0.31758978322E+03  0.17300000000E+03 0. -1.
</event>
<event>
 4    1  0.5929306E+000  0.1000000E+03  0.7546771E-02  0.1280296E+00
         21   -1    0    0  501  502  0.00000000000E+00  0.00000000000E+00  0.32784619423E+03  0.32784619423E+03  0.00000000000E+00 0. -1.
         21   -1    0    0  502  503 -0.00000000000E+00 -0.00000000000E+00 -0.18059391362E+03  0.18059391362E+03  0.00000000000E+00 0. -1.
          6    1    1    2  501    0  0.15984202411E+03 -0.40515682792E+02  0.12135575697E+03  0.26804330429E+03  0.17300000000E+03 0. -1.
         -6    1    1    2    0  503 -0.15984202411E+03  0.40515682792E+02  0.25896523631E+02  0.24039680356E+03  0.17300000000E+03 0. -1.
</event>
<event>
 4    1  0.5929306E+000  0.1000000E+03  0.7546771E-02  0.1280296E+00
         21   -1    0    0  503  502  0.00000000000E+00  0.00000000000E+00  0.40159031044E+02  0.40159031044E+02  0.00000000000E+00 0. -1.
         21   -1    0    0  501  503 -0.00000000000E+00 -0.00000000000E+00 -0.19637150749E+04  0.19637150749E+04  0.00000000000E+00 0.  1.
          6    1    1    2  501    0  0.12245115068E+03  0.12760115518E+03 -0.14358565455E+04  0.14570138498E+04  0.17300000000E+03 0.  1.
         -6    1    1    2    0  502 -0.12245115068E+03 -0.12760115518E+03 -0.48769949833E+03  0.54686025617E+03  0.17300000000E+03 0. -1.
</event>
<event>
 4    1  0.5929306E+000  0.1000000E+03  0.7546771E-02  0.1280296E+00
         21   -1    0    0  503  502  0.00000000000E+00  0.00000000000E+00  0.31062294788E+04  0.31062294788E+04  0.00000000000E+00 0. -1.
         21   -1    0    0  501  503 -0.00000000000E+00 -0.00000000000E+00 -0.90395836507E+02  0.90395836507E+02  0.00000000000E+00 0.  1.
          6    1    1    2  501    0  0.44513711111E+03  0.16453930845E+03  0.10249268982E+04  0.11426392162E+04  0.17300000000E+03 0.  1.
         -6    1    1    2    0  502 -0.44513711111E+03 -0.16453930845E+03  0.19909067440E+04  0.20539860991E+04  0.17300000000E+03 0. -1.
</event>
<event>
 4    1  0.5929306E+000  0.1000000E+03  0.7546771E-02  0.1280296E+00
         21   -1    0    0  501  502  0.00000000000E+00  0.00000000000E+00  0.23931151926E+03  0.23931151926E+03  0.00000000000E+00 0.  1.
         21   -1    0    0  502  503 -0.00000000000E+00 -0.00000000000E+00 -0.17102216761E+03  0.17102216761E+03  0.00000000000E+00 0.  1.
          6    1    1    2  501    0 -0.20467691553E+02  0.74316270616E+02  0.10626115169E+03  0.21716875197E+03  0.17300000000E+03 0.  1.
         -6    1    1    2    0  503  0.20467691553E+02 -0.74316270616E+02 -0.37971800029E+02  0.19316493490E+03  0.17300000000E+03 0.  1.
</event>
<event>
 4    1  0.5929306E+000  0.1000000E+03  0.7546771E-02  0.1280296E+00
         21   -1    0    0  501  502  0.00000000000E+00  0.00000000000E+00  0.36441872611E+03  0.36441872611E+03  0.00000000000E+00 0.  1.
         21   -1    0    0  502  503 -0.00000000000E+00 -0.00000000000E+00 -0.31921824214E+03  0.31921824214E+03  0.00000000000E+00 0.  1.
          6    1    1    2  501    0 -0.12980806209E+03  0.30497800528E+02  0.28512861821E+03  0.35917624886E+03  0.17300000000E+03 0.  1.
         -6    1    1    2    0  503  0.12980806209E+03 -0.30497800528E+02 -0.23992813425E+03  0.32446071938E+03  0.17300000000E+03 0.  1.
</event>
<event>
 4    1  0.5929306E+000  0.1000000E+03  0.7546771E-02  0.1280296E+00
         21   -1    0    0  501  502  0.00000000000E+00  0.00000000000E+00  0.99717535218E+02  0.99717535218E+02  0.00000000000E+00 0. -1.
         21   -1    0    0  502  503 -0.00000000000E+00 -0.00000000000E+00 -0.39215458449E+03  0.39215458449E+03  0.00000000000E+00 0. -1.
          6    1    1    2  501    0  0.85802209946E+02 -0.39333417888E+02 -0.12591373764E+03  0.23386407659E+03  0.17300000000E+03 0.  1.
         -6    1    1    2    0  503 -0.85802209946E+02  0.39333417888E+02 -0.16652331163E+03  0.25800804311E+03  0.17300000000E+03 0.  1.
</event>
<event>
 4    1  0.5929306E+000  0.1000000E+03  0.7546771E-02  0.1280296E+00
         21   -1    0    0  503  502  0.00000000000E+00  0.00000000000E+00  0.71543610488E+03  0.71543610488E+03  0.00000000000E+00 0.  1.
         21   -1    0    0  501  503 -0.00000000000E+00 -0.00000000000E+00 -0.26609721621E+03  0.26609721621E+03  0.00000000000E+00 0.  1.
          6    1    1    2  501    0 -0.16008365755E+03 -0.17363158580E+03 -0.13923252979E+03  0.32417495639E+03  0.17300000000E+03 0.  1.
         -6    1    1    2    0  502  0.16008365755E+03  0.17363158580E+03  0.58857141846E+03  0.65735836469E+03  0.17300000000E+03 0.  1.
</event>
<event>
 4    1  0.5929306E+000  0.1000000E+03  0.7546771E-02  0.1280296E+00
         21   -1    0    0  501  502  0.00000000000E+00  0.00000000000E+00  0.27739784767E+02  0.27739784767E+02  0.00000000000E+00 0. -1.
         21   -1    0    0  502  503 -0.00000000000E+00 -0.00000000000E+00 -0.14898743870E+04  0.14898743870E+04  0.00000000000E+00 0. -1.
          6    1    1    2  501    0  0.93746611241E+02  0.22124349681E+02 -0.55913182146E+03  0.59315706835E+03  0.17300000000E+03 0. -1.
         -6    1    1    2    0  503 -0.93746611241E+02 -0.22124349681E+02 -0.90300278080E+03  0.92445710344E+03  0.17300000000E+03 0. -1.
</event>
<event>
 4    1  0.5929306E+000  0.1000000E+03  0.7546771E-02  0.1280296E+00
         21   -1    0    0  501  502  0.00000000000E+00  0.00000000000E+00  0.16244182988E+04  0.16244182988E+04  0.00000000000E+00 0. -1.
         21   -1    0    0  502  503 -0.00000000000E+00 -0.00000000000E+00 -0.78424800728E+02  0.78424800728E+02  0.00000000000E+00 0. -1.
          6    1    1    2  501    0 -0.76348981441E+02 -0.54361177073E+01  0.14949901571E+04  0.15069118383E+04  0.17300000000E+03 0. -1.
         -6    1    1    2    0  503  0.76348981441E+02  0.54361177073E+01  0.51003340886E+02  0.19593126122E+03  0.17300000000E+03 0. -1.
</event>
<event>
 4    1  0.5929306E+000  0.1000000E+03  0.7546771E-02  0.1280296E+00
         21   -1    0    0  503  502  0.00000000000E+00  0.00000000000E+00  0.53619684472E+03  0.53619684472E+03  0.00000000000E+00 0. -1.
         21   -1    0    0  501  503 -0.00000000000E+00 -0.00000000000E+00 -0.18714351329E+03  0.18714351329E+03  0.00000000000E+00 0. -1.
          6    1    1    2  501    0  0.85551678603E+02  0.23557455140E+03  0.74977928807E+02  0.31363218710E+03  0.17300000000E+03 0. -1.
         -6    1    1    2    0  502 -0.85551678603E+02 -0.23557455140E+03  0.27407540263E+03  0.40970817090E+03  0.17300000000E+03 0. -1.
</event>
<event>
 4    1  0.5929306E+000  0.1000000E+03  0.7546771E-02  0.1280296E+00
         21   -1    0    0  503  502  0.00000000000E+00  0.00000000000E+00  0.68876204067E+02  0.68876204067E+02  0.00000000000E+00 0. -1.
         21   -1    0    0  501  503 -0.00000000000E+00 -0.00000000000E+00 -0.12163535040E+04  0.12163535040E+04  0.00000000000E+00 0. -1.
          6    1    1    2  501    0 -0.13455487113E+03  0.15339744527E+03 -0.81909529986E+03  0.86167389412E+03  0.17300000000E+03 0. -1.
         -6    1    1    2    0  502  0.13455487113E+03 -0.15339744527E+03 -0.32838200010E+03  0.42355581397E+03  0.17300000000E+03 0. -1.
</event>
<event>
 4    1  0.5929306E+000  0.1000000E+03  0.7546771E-02  0.1280296E+00
         21   -1    0    0  503  502  0.00000000000E+00  0.00000000000E+00  0.12679433220E+04  0.12679433220E+04  0.00000000000E+00 0.  1.
         21   -1    0    0  501  503 -0.00000000000E+00 -0.00000000000E+00 -0.34387939101E+02  0.34387939101E+02  0.00000000000E+00 0. -1.
          6    1    1    2  501    0  0.23114090151E+02  0.37920358579E+02  0.27945528115E+03  0.33165715569E+03  0.17300000000E+03 0. -1.
         -6    1    1    2    0  502 -0.23114090151E+02 -0.37920358579E+02  0.95410010173E+03  0.97067410540E+03  0.17300000000E+03 0.  1.
</event>
<event>
 4    1  0.5929306E+000  0.1000000E+03  0.7546771E-02  0.1280296E+00
         21   -1    0    0  503  502  0.00000000000E+00  0.00000000000E+00  0.73624754183E+03  0.73624754183E+03  0.00000000000E+00 0.  1.
         21   -1    0    0  501  503 -0.00000000000E+00 -0.00000000000E+00 -0.12786682396E+03  0.12786682396E+03  0.00000000000E+00 0. -1.
          6    1    1    2  501    0  0.22618160927E+03  0.11133302237E+03  0.26802866766E+03  0.40659750236E+03  0.17300000000E+03 0. -1.
         -6    1    1    2    0  502 -0.22618160927E+03 -0.11133302237E+03  0.34035205021E+03  0.45751686343E+03  0.17300000000E+03 0.  1.
</event>
<event>
 4    1  0.5929306E+000  0.1000000E+03  0.7546771E-02  0.1280296E+00
         21   -1    0    0  503  502  0.00000000000E+00  0.00000000000E+00  0.56069278018E+02  0.56069278018E+02  0.00000000000E+00 0. -1.
         21   -1    0    0  501  503 -0.00000000000E+00 -0.00000000000E+00 -0.67808238304E+03  0.67808238304E+03  0.00000000000E+00 0.  1.
          6    1    1    2  501    0  0.21579437451E+01 -0.37968641832E+02 -0.46446019085E+03  0.49709007571E+03  0.17300000000E+03 0.  1.
         -6    1    1    2    0  502 -0.21579437451E+01  0.37968641832E+02 -0.15755291417E+03  0.23706158535E+03  0.17300000000E+03 0. -1.
</event>
<event>
 4    1  0.5929306E+000  0.1000000E+03  0.7546771E-02  0.1280296E+00
         21   -1    0    0  503  502  0.00000000000E+00  0.00000000000E+00  0.40794768006E+03  0.40794768006E+03  0.00000000000E+00 0. -1.
         21   -1    0    0  501  503 -0.00000000000E+00 -0.00000000000E+00 -0.22534379804E+03  0.22534379804E+03  0.00000000000E+00 0.  1.
          6    1    1    2  501    0 -0.16415695849E+03  0.85060708347E+02 -0.82879151754E+02  0.26642219300E+03  0.17300000000E+03 0.  1.
         -6    1    1    2    0  502  0.16415695849E+03 -0.85060708347E+02  0.26548303378E+03  0.36686928510E+03  0.17300000000E+03 0. -1.
</event>
<event>
 4    1  0.5929306E+000  0.1000000E+03  0.7546771E-02  0.1280296E+00
         21   -1    0    0  503  502  0.00000000000E+00  0.00000000000E+00  0.37412234640E+03  0.37412234640E+03  0.00000000000E+00 0. -1.
         21   -1    0    0  501  503 -0.00000000000E+00 -0.00000000000E+00 -0.12961341047E+03  0.12961341047E+03  0.00000000000E+00 0. -1.
          6    1    1    2  501    0 -0.47692499003E+02  0.66483649615E+02 -0.23469151500E+01  0.19138745554E+03  0.17300000000E+03 0. -1.
         -6    1    1    2    0  502  0.47692499003E+02 -0.66483649615E+02  0.24685585108E+03  0.31234830133E+03  0.17300000000E+03 0. -1.
</event>
<event>
 4    1  0.5929306E+000  0.1000000E+03  0.7546771E-02  0.1280296E+00
         21   -1    0    0  503  502  0.00000000000E+00  0.00000000000E+00  0.12480462860E+03  0.12480462860E+03  0.00000000000E+00 0. -1.
         21   -1    0    0  501  503 -0.00000000000E+00 -0.00000000000E+00 -0.27369575817E+03  0.27369575817E+03  0.00000000000E+00 0. -1.
          6    1    1    2  501    0  0.17132081720E+02 -0.19304121295E+02 -0.13879993007E+03  0.22329482285E+03  0.17300000000E+03 0. -1.
         -6    1    1    2    0  502 -0.17132081720E+02  0.19304121295E+02 -0.10091199493E+02  0.17520556392E+03  0.17300000000E+03 0. -1.
</event>
<event>
 4    1  0.5929306E+000  0.1000000E+03  0.7546771E-02  0.1280296E+00
         21   -1    0    0  501  502  0.00000000000E+00  0.00000000000E+00  0.43601284456E+03  0.43601284456E+03  0.00000000000E+00 0. -1.
         21   -1    0    0  502  503 -0.00000000000E+00 -0.00000000000E+00 -0.10972528270E+03  0.10972528270E+03  0.00000000000E+00 0.  1.
          6    1    1    2  501    0  0.34885618782E+02 -0.12069654499E+03  0.10559527121E+03  0.23846178661E+03  0.17300000000E+03 0.  1.
         -6    1    1    2    0  503 -0.34885618782E+02  0.12069654499E+03  0.22069229065E+03  0.30727634065E+03  0.17300000000E+03 0. -1.
</event>
<event>
 4    1  0.5929306E+000  0.1000000E+03  0.7546771E-02  0.1280296E+00
         21   -1    0    0  501  502  0.00000000000E+00  0.00000000000E+00  0.41176083100E+03  0.41176083100E+03  0.00000000000E+00 0. -1.
         21   -1    0    0  502  503 -0.00000000000E+00 -0.00000000000E+00 -0.29145975744E+03  0.29145975744E+03  0.00000000000E+00 0. -1.
          6    1    1    2  501    0 -0.15776250501E+03 -0.83502097332E+02  0.30505121235E+03  0.39350584545E+03  0.17300000000E+03 0. -1.
         -6    1    1    2    0  503  0.15776250501E+03  0.83502097332E+02 -0.18475013878E+03  0.30971474299E+03  0.17300000000E+03 0. -1.
</event>
<event>
 4    1  0.5929306E+000  0.1000000E+03  0.7546771E-02  0.1280296E+00
         21   -1    0    0  501  502  0.00000000000E+00  0.00000000000E+00  0.55626588284E+03  0.55626588284E+03  0.00000000000E+00 0. -1.
         21   -1    0    0  502  503 -0.00000000000E+00 -0.00000000000E+00 -0.14859918709E+03  0.14859918709E+03  0.00000000000E+00 0. -1.
          6    1    1    2  501    0 -0.29526151790E+01  0.83286284869E+02  0.46613106122E+03  0.50413538798E+03  0.17300000000E+03 0. -1.
         -6    1    1    2    0  503  0.29526151790E+01 -0.83286284869E+02 -0.58464365470E+02  0.20072968194E+03  0.17300000000E+03 0. -1.
</event>
<event>
 4    1  0.5929306E+000  0.1000000E+03  0.7546771E-02  0.1280296E+00
         21   -1    0    0  501  502  0.00000000000E+00  0.00000000000E+00  0.76486257357E+02  0.76486257357E+02  0.00000000000E+00 0. -1.
         21   -1    0    0  502  503 -0.00000000000E+00 -0.00000000000E+00 -0.13770022541E+04  0.13770022541E+04  0.00000000000E+00 0. -1.
          6    1    1    2  501    0  0.80544462844E+02 -0.20815970982E+03 -0.29213738135E+03  0.40631407171E+03  0.17300000000E+03 0. -1.
         -6    1    1    2    0  503 -0.80544462844E+02  0.20815970982E+03 -0.10083786154E+04  0.10471744398E+04  0.17300000000E+03 0. -1.
</event>
<event>
 4    1  0.5929306E+000  0.1000000E+03  0.7546771E-02  0.1280296E+00
         21   -1    0    0  503  502  0.00000000000E+00  0.00000000000E+00  0.14475001446E+04  0.14475001446E+04  0.00000000000E+00 0. -1.
         21   -1    0    0  501  503 -0.00000000000E+00 -0.00000000000E+00 -0.68773079137E+02  0.68773079137E+02  0.00000000000E+00 0. -1.
          6    1    1    2  501    0  0.40940286539E+02 -0.12955637524E+03  0.14587511543E+03  0.26394982616E+03  0.17300000000E+03 0. -1.
         -6    1    1    2    0  502 -0.40940286539E+02  0.12955637524E+03  0.12328519501E+04  0.12523233976E+04  0.17300000000E+03 0. -1.
</event>
<event>
 4    1  0.5929306E+000  0.1000000E+03  0.7546771E-02  0.1280296E+00
         21   -1    0    0  503  502  0.00000000000E+00  0.00000000000E+00  0.53803291439E+03  0.53803291439E+03  0.00000000000E+00 0. -1.
         21   -1    0    0  501  503 -0.00000000000E+00 -0.00000000000E+00 -0.67587943628E+02  0.67587943628E+02  0.00000000000E+00 0. -1.
          6    1    1    2  501    0  0.35566539678E+02 -0.15131303214E+02  0.12359639230E+03  0.21609952168E+03  0.17300000000E+03 0. -1.
         -6    1    1    2    0  502 -0.35566539678E+02  0.15131303214E+02  0.34684857846E+03  0.38952133634E+03  0.17300000000E+03 0. -1.
</event>
<event>
 4    1  0.5929306E+000  0.1000000E+03  0.7546771E-02  0.1280296E+00
         21   -1    0    0  503  502  0.00000000000E+00  0.00000000000E+00  0.14771496014E+04  0.14771496014E+04  0.00000000000E+00 0. -1.
         21   -1    0    0  501  503 -0.00000000000E+00 -0.00000000000E+00 -0.26519585999E+02  0.26519585999E+02  0.00000000000E+00 0. -1.
          6    1    1    2  501    0  0.10586036565E+02 -0.95293982198E+02  0.75254580823E+03  0.77810487770E+03  0.17300000000E+03 0. -1.
         -6    1    1    2    0  502 -0.10586036565E+02  0.95293982198E+02  0.69808420722E+03  0.72556430975E+03  0.17300000000E+03 0. -1.
</event>
<event>
 4    1  0.5929306E+000  0.1000000E+03  0.7546771E-02  0.1280296E+00
         21   -1    0    0  503  502  0.00000000000E+00  0.00000000000E+00  0.47471526107E+03  0.47471526107E+03  0.00000000000E+00 0.  1.
         21   -1    0    0  501  503 -0.00000000000E+00 -0.00000000000E+00 -0.21664463018E+03  0.21664463018E+03  0.00000000000E+00 0.  1.
          6    1    1    2  501    0 -0.16389850738E+02 -0.85694965774E+02 -0.14641993036E+03  0.24285808690E+03  0.17300000000E+03 0.  1.
         -6    1    1    2    0  502  0.16389850738E+02  0.85694965774E+02  0.40449056124E+03  0.44850180435E+03  0.17300000000E+03 0.  1.
</event>
<event>
 4    1  0.5929306E+000  0.1000000E+03  0.7546771E-02  0.1280296E+00
         21   -1    0    0  501  502  0.00000000000E+00  0.00000000000E+00  0.75077556903E+02  0.75077556903E+02  0.00000000000E+00 0. -1.
         21   -1    0    0  502  503 -0.00000000000E+00 -0.00000000000E+00 -0.68501147484E+03  0.68501147484E+03  0.00000000000E+00 0.  1.
          6    1    1    2  501    0  0.14107159832E+02 -0.39791194742E+02 -0.69647461342E+02  0.19121223813E+03  0.17300000000E+03 0.  1.
         -6    1    1    2    0  503 -0.14107159832E+02  0.39791194742E+02 -0.54028645660E+03  0.56887679362E+03  0.17300000000E+03 0. -1.
</event>
<event>
 4    1  0.5929306E+000  0.1000000E+03  0.7546771E-02  0.1280296E+00
         21   -1    0    0  501  502  0.00000000000E+00  0.00000000000E+00  0.13142107690E+03  0.13142107690E+03  0.00000000000E+00 0. -1.
         21   -1    0    0  502  503 -0.00000000000E+00 -0.00000000000E+00 -0.61583184746E+03  0.61583184746E+03  0.00000000000E+00 0. -1.
          6    1    1    2  501    0  0.41080213379E+02  0.11373982349E+03  0.82931049226E+01  0.21123945410E+03  0.17300000000E+03 0. -1.
         -6    1    1    2    0  503 -0.41080213379E+02 -0.11373982349E+03 -0.49270387549E+03  0.53601347026E+03  0.17300000000E+03 0. -1.
</event>
<event>
 4    1  0.5929306E+000  0.1000000E+03  0.7546771E-02  0.1280296E+00
         21   -1    0    0  503  502  0.00000000000E+00  0.00000000000E+00  0.82500289042E+03  0.82500289042E+03  0.00000000000E+00 0.  1.
         21   -1    0    0  501  503 -0.00000000000E+00 -0.00000000000E+00 -0.48085825599E+02  0.48085825599E+02  0.00000000000E+00 0. -1.
          6    1    1    2  501    0 -0.16455141420E+02 -0.61620589343E+01  0.17558499167E+03  0.24711906432E+03  0.17300000000E+03 0. -1.
         -6    1    1    2    0  502  0.16455141420E+02  0.61620589343E+01  0.60133207316E+03  0.62596965171E+03  0.17300000000E+03 0.  1.
</event>
<event>
 4    1  0.5929306E+000  0.1000000E+03  0.7546771E-02  0.1280296E+00
         21   -1    0    0  503  502  0.00000000000E+00  0.00000000000E+00  0.10187138439E+04  0.10187138439E+04  0.00000000000E+00 0.  1.
         21   -1    0    0  501  503 -0.00000000000E+00 -0.00000000000E+00 -0.47761907951E+02  0.47761907951E+02  0.00000000000E+00 0. -1.
          6    1    1    2  501    0  0.40275557100E+02  0.65652228462E+02  0.21203492881E+03  0.28428884368E+03  0.17300000000E+03 0. -1.
         -6    1    1    2    0  502 -0.40275557100E+02 -0.65652228462E+02  0.75891700715E+03  0.78218690819E+03  0.17300000000E+03 0.  1.
</event>
<event>
 4    1  0.5929306E+000  0.1000000E+03  0.7546771E-02  0.1280296E+00
         21   -1    0    0  503  502  0.00000000000E+00  0.00000000000E+00  0.37240427935E+03  0.37240427935E+03  0.00000000000E+00 0.  1.
         21   -1    0    0  501  503 -0.00000000000E+00 -0.00000000000E+00 -0.38918873508E+03  0.38918873508E+03  0.00000000000E+00 0. -1.
          6    1    1    2  501    0 -0.30405447941E+02  0.16277780691E+03 -0.30441250707E+03  0.38732038437E+03  0.17300000000E+03 0. -1.
         -6    1    1    2    0  502  0.30405447941E+02 -0.16277780691E+03  0.28762805134E+03  0.37427263005E+03  0.17300000000E+03 0.  1.
</event>
<event>
 4    1  0.5929306E+000  0.1000000E+03  0.7546771E-02  0.1280296E+00
         21   -1    0    0  503  502  0.00000000000E+00  0.00000000000E+00  0.88851766155E+03  0.88851766155E+03  0.00000000000E+00 0. -1.
         21   -1    0    0  501  503 -0.00000000000E+00 -0.00000000000E+00 -0.44096214064E+02  0.44096214064E+02  0.00000000000E+00 0.  1.
          6    1    1    2  501    0  0.10640525924E+00 -0.88165153942E+02  0.51278373654E+03  0.54831493337E+03  0.17300000000E+03 0. -1.
         -6    1    1    2    0  502 -0.10640525924E+00  0.88165153942E+02  0.33163771094E+03  0.38429894225E+03  0.17300000000E+03 0.  1.
</event>
<event>
 4    1  0.5929306E+000  0.1000000E+03  0.7546771E-02  0.1280296E+00
         21   -1    0    0  503  502  0.00000000000E+00  0.00000000000E+00  0.93238182428E+02  0.93238182428E+02  0.00000000000E+00 0. -1.
         21   -1    0    0  501  503 -0.00000000000E+00 -0.00000000000E+00 -0.36301707682E+03  0.36301707682E+03  0.00000000000E+00 0.  1.
          6    1    1    2  501    0 -0.52934949302E+02  0.21335666507E+02 -0.16676299673E+03  0.24697412132E+03  0.17300000000E+03 0. -1.
         -6    1    1    2    0  502  0.52934949302E+02 -0.21335666507E+02 -0.10301589767E+03  0.20928113793E+03  0.17300000000E+03 0.  1.
</event>
<event>
 4    1  0.5929306E+000  0.1000000E+03  0.7546771E-02  0.1280296E+00
         21   -1    0    0  503  502  0.00000000000E+00  0.00000000000E+00  0.22554306577E+04  0.22554306577E+04  0.00000000000E+00 0.  1.
         21   -1    0    0  501  503 -0.00000000000E+00 -0.00000000000E+00 -0.26834017936E+02  0.26834017936E+02  0.00000000000E+00 0. -1.
          6    1    1    2  501    0  0.72283737771E+02  0.60814069316E+02  0.43147610049E+03  0.47436685705E+03  0.17300000000E+03 0.  1.
         -6    1    1    2    0  502 -0.72283737771E+02 -0.60814069316E+02  0.17971205392E+04  0.18078978185E+04  0.17300000000E+03 0. -1.
</event>
<event>
 4    1  0.5929306E+000  0.1000000E+03  0.7546771E-02  0.1280296E+00
         21   -1    0    0  503  502  0.00000000000E+00  0.00000000000E+00  0.48645810822E+03  0.48645810822E+03  0.00000000000E+00 0.  1.
         21   -1    0    0  501  503 -0.00000000000E+00 -0.00000000000E+00 -0.28868134564E+03  0.28868134564E+03  0.00000000000E+00 0. -1.
          6    1    1    2  501    0  0.27182362787E+03  0.81656870574E+02  0.27786259025E+03  0.43323498039E+03  0.17300000000E+03 0.  1.
         -6    1    1    2    0  502 -0.27182362787E+03 -0.81656870574E+02 -0.80085827663E+02  0.34190447346E+03  0.17300000000E+03 0. -1.
</event>
<event>
 4    1  0.5929306E+000  0.1000000E+03  0.7546771E-02  0.1280296E+00
         21   -1    0    0  501  502  0.00000000000E+00  0.00000000000E+00  0.26194643223E+03  0.26194643223E+03  0.00000000000E+00 0.  1.
         21   -1    0    0  502  503 -0.00000000000E+00 -0.00000000000E+00 -0.16709449873E+03  0.16709449873E+03  0.00000000000E+00 0. -1.
          6    1    1    2  501    0  0.36065316703E+02 -0.17943898749E+02  0.16076605712E+03  0.23957757761E+03  0.17300000000E+03 0.  1.
         -6    1    1    2    0  503 -0.36065316703E+02  0.17943898749E+02 -0.65914123613E+02  0.18946335335E+03  0.17300000000E+03 0. -1.
</event>
<event>
 4    1  0.5929306E+000  0.1000000E+03  0.7546771E-02  0.1280296E+00
         21   -1    0    0  501  502  0.00000000000E+00  0.00000000000E+00  0.86897244838E+02  0.86897244838E+02  0.00000000000E+00 0.  1.
         21   -1    0    0  502  503 -0.00000000000E+00 -0.00000000000E+00 -0.47682341391E+03  0.47682341391E+03  0.00000000000E+00 0.  1.
          6    1    1    2  501    0  0.33786576555E+02  0.36637059868E+02 -0.63440727925E+02  0.19088617779E+03  0.17300000000E+03 0.  1.
         -6    1    1    2    0  503 -0.33786576555E+02 -0.36637059868E+02 -0.32648544115E+03  0.37283448096E+03  0.17300000000E+03 0.  1.
</event>
<event>
 4    1  0.5929306E+000  0.1000000E+03  0.7546771E-02  0.1280296E+00
         21   -1    0    0  501  502  0.00000000000E+00  0.00000000000E+00  0.14439810010E+04  0.14439810010E+04  0.00000000000E+00 0.  1.
         21   -1    0    0  502  503 -0.00000000000E+00 -0.00000000000E+00 -0.54289549464E+02  0.54289549464E+02  0.00000000000E+00 0.  1.
          6    1    1    2  501    0  0.42830096840E+02 -0.67771642484E+02  0.12434201014E+04  0.12579546738E+04  0.17300000000E+03 0.  1.
         -6    1    1    2    0  503 -0.42830096840E+02  0.67771642484E+02  0.14627135016E+03  0.24031587671E+03  0.17300000000E+03 0.  1.
</event>
<event>
 4    1  0.5929306E+000  0.1000000E+03  0.7546771E-02  0.1280296E+00
         21   -1    0    0  503  502  0.00000000000E+00  0.00000000000E+00  0.25913060190E+03  0.25913060190E+03  0.00000000000E+00 0. -1.
         21   -1    0    0  501  503 -0.00000000000E+00 -0.00000000000E+00 -0.39282667162E+03  0.39282667162E+03  0.00000000000E+00 0.  1.
          6    1    1    2  501    0  0.80133573182E+02  0.17868754053E+03 -0.25389085603E+03  0.36433527618E+03  0.17300000000E+03 0.  1.
         -6    1    1    2    0  502 -0.80133573182E+02 -0.17868754053E+03  0.12019478632E+03  0.28762199734E+03  0.17300000000E+03 0. -1.
</event>
<event>
 4    1  0.5929306E+000  0.1000000E+03  0.7546771E-02  0.1280296E+00
         21   -1    0    0  501  502  0.00000000000E+00  0.00000000000E+00  0.33195446038E+02  0.33195446038E+02  0.00000000000E+00 0. -1.
         21   -1    0    0  502  503 -0.00000000000E+00 -0.00000000000E+00 -0.11745291254E+04  0.11745291254E+04  0.00000000000E+00 0. -1.
          6    1    1    2  501    0 -0.72609914749E+02 -0.59894900965E+02 -0.52737195861E+03  0.56294740573E+03  0.17300000000E+03 0. -1.
         -6    1    1    2    0  503  0.72609914749E+02  0.59894900965E+02 -0.61396172079E+03  0.64477716576E+03  0.17300000000E+03 0. -1.
</event>
<event>
 4    1  0.5929306E+000  0.1000000E+03  0.7546771E-02  0.1280296E+00
         21   -1    0    0  501  502  0.00000000000E+00  0.00000000000E+00  0.40018515031E+03  0.40018515031E+03  0.00000000000E+00 0. -1.
         21   -1    0    0  502  503 -0.00000000000E+00 -0.00000000000E+00 -0.20499028380E+03  0.20499028380E+03  0.00000000000E+00 0. -1.
          6    1    1    2  501    0 -0.14001360579E+03 -0.11027382641E+02  0.28770100532E+03  0.36390422014E+03  0.17300000000E+03 0. -1.
         -6    1    1    2    0  503  0.14001360579E+03  0.11027382641E+02 -0.92506138812E+02  0.24127121397E+03  0.17300000000E+03 0. -1.
</event>
<event>
 4    1  0.5929306E+000  0.1000000E+03  0.7546771E-02  0.1280296E+00
         21   -1    0    0  503  502  0.00000000000E+00  0.00000000000E+00  0.32314890676E+03  0.32314890676E+03  0.00000000000E+00 0.  1.
         21   -1    0    0  501  503 -0.00000000000E+00 -0.00000000000E+00 -0.25836681745E+03  0.25836681745E+03  0.00000000000E+00 0. -1.
          6    1    1    2  501    0  0.68214958970E+02  0.37317485802E+02 -0.18695613391E+03  0.26632211958E+03  0.17300000000E+03 0. -1.
         -6    1    1    2    0  502 -0.68214958970E+02 -0.37317485802E+02  0.25173822321E+03  0.31519360463E+03  0.17300000000E+03 0.  1.
</event>
<event>
 4    1  0.5929306E+000  0.1000000E+03  0.7546771E-02  0.1280296E+00
         21   -1    0    0  503  502  0.00000000000E+00  0.00000000000E+00  0.11086003082E+03  0.11086003082E+03  0.00000000000E+00 0.  1.
         21   -1    0    0  501  503 -0.00000000000E+00 -0.00000000000E+00 -0.79177426309E+03  0.79177426309E+03  0.00000000000E+00 0. -1.
          6    1    1    2  501    0 -0.67249370520E+02 -0.76072834093E+02 -0.67259018138E+03  0.70186615961E+03  0.17300000000E+03 0. -1.
         -6    1    1    2    0  502  0.67249370520E+02  0.76072834093E+02 -0.83240508910E+01  0.20076813429E+03  0.17300000000E+03 0.  1.
</event>
<event>
 4    1  0.5929306E+000  0.1000000E+03  0.7546771E-02  0.1280296E+00
         21   -1    0    0  501  502  0.00000000000E+00  0.00000000000E+00  0.80212674453E+02  0.80212674453E+02  0.00000000000E+00 0. -1.
         21   -1    0    0  502  503 -0.00000000000E+00 -0.00000000000E+00 -0.67678494529E+03  0.67678494529E+03  0.00000000000E+00 0.  1.
          6    1    1    2  501    0 -0.65744718778E+02 -0.10242866174E+02 -0.68948048571E+02  0.19776278152E+03  0.17300000000E+03 0. -1.
         -6    1    1    2    0  503  0.65744718778E+02  0.10242866174E+02 -0.52762422227E+03  0.55923483822E+03  0.17300000000E+03 0.  1.
</event>
<event>
 4    1  0.5929306E+000  0.1000000E+03  0.7546771E-02  0.1280296E+00
         21   -1    0    0  501  502  0.00000000000E+00  0.00000000000E+00  0.11493593328E+03  0.11493593328E+03  0.00000000000E+00 0. -1.
         21   -1    0    0  502  503 -0.00000000000E+00 -0.00000000000E+00 -0.33178278971E+03  0.33178278971E+03  0.00000000000E+00 0.  1.
          6    1    1    2  501    0  0.57723550552E+02 -0.65648205493E+02 -0.13556470575E+03  0.23653432017E+03  0.17300000000E+03 0. -1.
         -6    1    1    2    0  503 -0.57723550552E+02  0.65648205493E+02 -0.81282150679E+02  0.21018440283E+03  0.17300000000E+03 0.  1.
</event>
<event>
 4    1  0.5929306E+000  0.1000000E+03  0.7546771E-02  0.1280296E+00
         21   -1    0    0  503  502  0.00000000000E+00  0.00000000000E+00  0.18650223319E+03  0.18650223319E+03  0.00000000000E+00 0. -1.
         21   -1    0    0  501  503 -0.00000000000E+00 -0.00000000000E+00 -0.21786351618E+03  0.21786351618E+03  0.00000000000E+00 0.  1.
          6    1    1    2  501    0  0.18312373578E+02 -0.47859703539E+02 -0.10582506122E+03  0.20917418061E+03  0.17300000000E+03 0.  1.
         -6    1    1    2    0  502 -0.18312373578E+02  0.47859703539E+02  0.74463778225E+02  0.19519156876E+03  0.17300000000E+03 0. -1.
</event>
<event>
 4    1  0.5929306E+000  0.1000000E+03  0.7546771E-02  0.1280296E+00
         21   -1    0    0  501  502  0.00000000000E+00  0.00000000000E+00  0.10508018832E+03  0.10508018832E+03  0.00000000000E+00 0.  1.
         21   -1    0    0  502  503 -0.00000000000E+00 -0.00000000000E+00 -0.49654436947E+03  0.49654436947E+03  0.00000000000E+00 0. -1.
          6    1    1    2  501    0  0.49989520938E+02  0.13869309342E+03 -0.16589748030E+03  0.28139953862E+03  0.17300000000E+03 0.  1.
         -6    1    1    2    0  503 -0.49989520938E+02 -0.13869309342E+03 -0.22556670085E+03  0.32022501916E+03  0.17300000000E+03 0. -1.
</event>
<event>
 4    1  0.5929306E+000  0.1000000E+03  0.7546771E-02  0.1280296E+00
         21   -1    0    0  501  502  0.00000000000E+00  0.00000000000E+00  0.90801539654E+03  0.90801539654E+03  0.00000000000E+00 0.  1.
         21   -1    0    0  502  503 -0.00000000000E+00 -0.00000000000E+00 -0.38791780441E+02  0.38791780441E+02  0.00000000000E+00 0. -1.
          6    1    1    2  501    0  0.39354727213E+02  0.20298620265E+02  0.58025114381E+03  0.60710890163E+03  0.17300000000E+03 0.  1.
         -6    1    1    2    0  503 -0.39354727213E+02 -0.20298620265E+02  0.28897247228E+03  0.33969827535E+03  0.17300000000E+03 0. -1.
</event>
<event>
 4    1  0.5929306E+000  0.1000000E+03  0.7546771E-02  0.1280296E+00
         21   -1    0    0  501  502  0.00000000000E+00  0.00000000000E+00  0.22474860556E+03  0.22474860556E+03  0.00000000000E+00 0.  1.
         21   -1    0    0  502  503 -0.00000000000E+00 -0.00000000000E+00 -0.21662581492E+03  0.21662581492E+03  0.00000000000E+00 0. -1.
          6    1    1    2  501    0  0.71514300723E+02  0.13868314935E+02  0.12005829860E+03  0.22282194782E+03  0.17300000000E+03 0.  1.
         -6    1    1    2    0  503 -0.71514300723E+02 -0.13868314935E+02 -0.11193550796E+03  0.21855247267E+03  0.17300000000E+03 0. -1.
</event>
<event>
 4    1  0.5929306E+000  0.1000000E+03  0.7546771E-02  0.1280296E+00
         21   -1    0    0  501  502  0.00000000000E+00  0.00000000000E+00  0.34651261330E+03  0.34651261330E+03  0.00000000000E+00 0.  1.
         21   -1    0    0  502  503 -0.00000000000E+00 -0.00000000000E+00 -0.43274422465E+03  0.43274422465E+03  0.00000000000E+00 0. -1.
          6    1    1    2  501    0 -0.82304710182E+02  0.33475963144E+03 -0.84901296314E+01  0.38579678389E+03  0.17300000000E+03 0.  1.
         -6    1    1    2    0  503  0.82304710182E+02 -0.33475963144E+03 -0.77741481718E+02  0.39346005406E+03  0.17300000000E+03 0. -1.
</event>
<event>
 4    1  0.5929306E+000  0.1000000E+03  0.7546771E-02  0.1280296E+00
         21   -1    0    0  501  502  0.00000000000E+00  0.00000000000E+00  0.10096098042E+03  0.10096098042E+03  0.00000000000E+00 0.  1.
         21   -1    0    0  502  503 -0.00000000000E+00 -0.00000000000E+00 -0.62243168269E+03  0.62243168269E+03  0.00000000000E+00 0. -1.
          6    1    1    2  501    0  0.10467627509E+03  0.11592746873E+03 -0.12758582646E+03  0.26571308528E+03  0.17300000000E+03 0.  1.
         -6    1    1    2    0  503 -0.10467627509E+03 -0.11592746873E+03 -0.39388487581E+03  0.45767957783E+03  0.17300000000E+03 0. -1.
</event>
<event>
 4    1  0.5929306E+000  0.1000000E+03  0.7546771E-02  0.1280296E+00
         21   -1    0    0  501  502  0.00000000000E+00  0.00000000000E+00  0.37066724660E+03  0.37066724660E+03  0.00000000000E+00 0.  1.
         21   -1    0    0  502  503 -0.00000000000E+00 -0.00000000000E+00 -0.21328932326E+03  0.21328932326E+03  0.00000000000E+00 0. -1.
          6    1    1    2  501    0 -0.47864961530E+02 -0.20890139879E+03  0.13742655053E+03  0.30780822885E+03  0.17300000000E+03 0.  1.
         -6    1    1    2    0  503  0.47864961530E+02  0.20890139879E+03  0.19951372805E+02  0.27614834100E+03  0.17300000000E+03 0. -1.
</event>
<event>
 4    1  0.5929306E+000  0.1000000E+03  0.7546771E-02  0.1280296E+00
         21   -1    0    0  501  502  0.00000000000E+00  0.00000000000E+00  0.21636636827E+03  0.21636636827E+03  0.00000000000E+00 0.  1.
         21   -1    0    0  502  503 -0.00000000000E+00 -0.00000000000E+00 -0.20996620179E+03  0.20996620179E+03  0.00000000000E+00 0. -1.
          6    1    1    2  501    0  0.49356238327E+02  0.81290209223E+02  0.83561414453E+02  0.21437268101E+03  0.17300000000E+03 0.  1.
         -6    1    1    2    0  503 -0.49356238327E+02 -0.81290209223E+02 -0.77161247977E+02  0.21195988905E+03  0.17300000000E+03 0. -1.
</event>
<event>
 4    1  0.5929306E+000  0.1000000E+03  0.7546771E-02  0.1280296E+00
         21   -1    0    0  503  502  0.00000000000E+00  0.00000000000E+00  0.37216924054E+03  0.37216924054E+03  0.00000000000E+00 0.  1.
         21   -1    0    0  501  503 -0.00000000000E+00 -0.00000000000E+00 -0.36713723690E+03  0.36713723690E+03  0.00000000000E+00 0. -1.
          6    1    1    2  501    0  0.16579586946E+03 -0.23176175349E+03 -0.15719494836E+03  0.36856618469E+03  0.17300000000E+03 0.  1.
         -6    1    1    2    0  502 -0.16579586946E+03  0.23176175349E+03  0.16222695200E+03  0.37074029275E+03  0.17300000000E+03 0. -1.
</event>
<event>
 4    1  0.5929306E+000  0.1000000E+03  0.7546771E-02  0.1280296E+00
         21   -1    0    0  501  502  0.00000000000E+00  0.00000000000E+00  0.28160118475E+03  0.28160118475E+03  0.00000000000E+00 0.  1.
         21   -1    0    0  502  503 -0.00000000000E+00 -0.00000000000E+00 -0.13457486209E+03  0.13457486209E+03  0.00000000000E+00 0.  1.
          6    1    1    2  501    0  0.62123817033E+02 -0.36493430870E+02  0.12983556559E+03  0.22798555487E+03  0.17300000000E+03 0.  1.
         -6    1    1    2    0  503 -0.62123817033E+02  0.36493430870E+02  0.17190757071E+02  0.18819049197E+03  0.17300000000E+03 0.  1.
</event>
<event>
 4    1  0.5929306E+000  0.1000000E+03  0.7546771E-02  0.1280296E+00
         21   -1    0    0  501  502  0.00000000000E+00  0.00000000000E+00  0.19139899838E+03  0.19139899838E+03  0.00000000000E+00 0.  1.
         21   -1    0    0  502  503 -0.00000000000E+00 -0.00000000000E+00 -0.42734754929E+03  0.42734754929E+03  0.00000000000E+00 0.  1.
          6    1    1    2  501    0  0.17414426766E+03  0.14573449309E+03 -0.99234126029E+02  0.30222703420E+03  0.17300000000E+03 0.  1.
         -6    1    1    2    0  503 -0.17414426766E+03 -0.14573449309E+03 -0.13671442488E+03  0.31651951347E+03  0.17300000000E+03 0.  1.
</event>
<event>
 4    1  0.5929306E+000  0.1000000E+03  0.7546771E-02  0.1280296E+00
         21   -1    0    0  501  502  0.00000000000E+00  0.00000000000E+00  0.36637951020E+03  0.36637951020E+03  0.00000000000E+00 0.  1.
         21   -1    0    0  502  503 -0.00000000000E+00 -0.00000000000E+00 -0.22146654849E+03  0.22146654849E+03  0.00000000000E+00 0.  1.
          6    1    1    2  501    0  0.11304432867E+03 -0.96579183477E+01  0.27449642334E+03  0.34372893689E+03  0.17300000000E+03 0.  1.
         -6    1    1    2    0  503 -0.11304432867E+03  0.96579183477E+01 -0.12958346163E+03  0.24411712181E+03  0.17300000000E+03 0.  1.
</event>
<event>
 4    1  0.5929306E+000  0.1000000E+03  0.7546771E-02  0.1280296E+00
         21   -1    0    0  503  502  0.00000000000E+00  0.00000000000E+00  0.99344255133E+02  0.99344255133E+02  0.00000000000E+00 0. -1.
         21   -1    0    0  501  503 -0.00000000000E+00 -0.00000000000E+00 -0.10029383052E+04  0.10029383052E+04  0.00000000000E+00 0. -1.
          6    1    1    2  501    0 -0.57521386869E+01 -0.16651171074E+03 -0.80940704431E+03  0.84429141905E+03  0.17300000000E+03 0. -1.
         -6    1    1    2    0  502  0.57521386869E+01  0.16651171074E+03 -0.94187005719E+02  0.25799114124E+03  0.17300000000E+03 0. -1.
</event>
<event>
 4    1  0.5929306E+000  0.1000000E+03  0.7546771E-02  0.1280296E+00
         21   -1    0    0  503  502  0.00000000000E+00  0.00000000000E+00  0.44386413468E+03  0.44386413468E+03  0.00000000000E+00 0. -1.
         21   -1    0    0  501  503 -0.00000000000E+00 -0.00000000000E+00 -0.14862761081E+03  0.14862761081E+03  0.00000000000E+00 0. -1.
          6    1    1    2  501    0 -0.12835035837E+03 -0.88615197186E+01 -0.13399468831E+02  0.21601131172E+03  0.17300000000E+03 0. -1.
         -6    1    1    2    0  502  0.12835035837E+03  0.88615197186E+01  0.30863599270E+03  0.37648043377E+03  0.17300000000E+03 0. -1.
</event>
<event>
 4    1  0.5929306E+000  0.1000000E+03  0.7546771E-02  0.1280296E+00
         21   -1    0    0  503  502  0.00000000000E+00  0.00000000000E+00  0.18238626882E+02  0.18238626882E+02  0.00000000000E+00 0. -1.
         21   -1    0    0  501  503 -0.00000000000E+00 -0.00000000000E+00 -0.32813779477E+04  0.32813779477E+04  0.00000000000E+00 0. -1.
          6    1    1    2  501    0 -0.15126424688E+02 -0.13411478687E+03 -0.23611319877E+04  0.23713053047E+04  0.17300000000E+03 0. -1.
         -6    1    1    2    0  502  0.15126424688E+02  0.13411478687E+03 -0.90200733305E+03  0.92831126981E+03  0.17300000000E+03 0. -1.
</event>
<event>
 4    1  0.5929306E+000  0.1000000E+03  0.7546771E-02  0.1280296E+00
         21   -1    0    0  503  502  0.00000000000E+00  0.00000000000E+00  0.14337099781E+03  0.14337099781E+03  0.00000000000E+00 0. -1.
         21   -1    0    0  501  503 -0.00000000000E+00 -0.00000000000E+00 -0.51639256230E+03  0.51639256230E+03  0.00000000000E+00 0. -1.
          6    1    1    2  501    0 -0.67043265982E+02 -0.71420417338E+02 -0.41173584602E+03  0.45722104329E+03  0.17300000000E+03 0. -1.
         -6    1    1    2    0  502  0.67043265982E+02  0.71420417338E+02  0.38714281524E+02  0.20254251682E+03  0.17300000000E+03 0. -1.
</event>
<event>
 4    1  0.5929306E+000  0.1000000E+03  0.7546771E-02  0.1280296E+00
         21   -1    0    0  503  502  0.00000000000E+00  0.00000000000E+00  0.17342994617E+03  0.17342994617E+03  0.00000000000E+00 0.  1.
         21   -1    0    0  501  503 -0.00000000000E+00 -0.00000000000E+00 -0.29611811030E+03  0.29611811030E+03  0.00000000000E+00 0. -1.
          6    1    1    2  501    0  0.14337379216E+03 -0.26498841174E+02 -0.47895549746E+02  0.23126006259E+03  0.17300000000E+03 0. -1.
         -6    1    1    2    0  502 -0.14337379216E+03  0.26498841174E+02 -0.74792614387E+02  0.23828799388E+03  0.17300000000E+03 0.  1.
</event>
<event>
 4    1  0.5929306E+000  0.1000000E+03  0.7546771E-02  0.1280296E+00
         21   -1    0    0  501  502  0.00000000000E+00  0.00000000000E+00  0.46677304186E+03  0.46677304186E+03  0.00000000000E+00 0.  1.
         21   -1    0    0  502  503 -0.00000000000E+00 -0.00000000000E+00 -0.14593252650E+03  0.14593252650E+03  0.00000000000E+00 0.  1.
          6    1    1    2  501    0  0.14077183972E+03 -0.19855199772E+02  0.31780285019E+03  0.38876547095E+03  0.17300000000E+03 0.  1.
         -6    1    1    2    0  503 -0.14077183972E+03  0.19855199772E+02  0.30376651707E+01  0.22394009740E+03  0.17300000000E+03 0.  1.
</event>
<event>
 4    1  0.5929306E+000  0.1000000E+03  0.7546771E-02  0.1280296E+00
         21   -1    0    0  501  502  0.00000000000E+00  0.00000000000E+00  0.87317998102E+03  0.87317998102E+03  0.00000000000E+00 0.  1.
         21   -1    0    0  502  503 -0.00000000000E+00 -0.00000000000E+00 -0.14266716225E+03  0.14266716225E+03  0.00000000000E+00 0.  1.
          6    1    1    2  501    0  0.10744281926E+03 -0.22619618793E+03  0.62243078266E+03  0.69286200216E+03  0.17300000000E+03 0.  1.
         -6    1    1    2    0  503 -0.10744281926E+03  0.22619618793E+03  0.10808203612E+03  0.32298514111E+03  0.17300000000E+03 0.  1.
</event>
<event>
 4    1  0.5929306E+000  0.1000000E+03  0.7546771E-02  0.1280296E+00
         21   -1    0    0  503  502  0.00000000000E+00  0.00000000000E+00  0.85312520860E+03  0.85312520860E+03  0.00000000000E+00 0.  1.
         21   -1    0    0  501  503 -0.00000000000E+00 -0.00000000000E+00 -0.39017847161E+03  0.39017847161E+03  0.00000000000E+00 0.  1.
          6    1    1    2  501    0 -0.51230662787E+03 -0.43348328149E+02  0.19768630651E+02  0.54282313627E+03  0.17300000000E+03 0.  1.
         -6    1    1    2    0  502  0.51230662787E+03  0.43348328149E+02  0.44317810634E+03  0.70048054395E+03  0.17300000000E+03 0.  1.
</event>
<event>
 4    1  0.5929306E+000  0.1000000E+03  0.7546771E-02  0.1280296E+00
         21   -1    0    0  503  502  0.00000000000E+00  0.00000000000E+00  0.19875395577E+03  0.19875395577E+03  0.00000000000E+00 0.  1.
         21   -1    0    0  501  503 -0.00000000000E+00 -0.00000000000E+00 -0.31325311679E+03  0.31325311679E+03  0.00000000000E+00 0.  1.
          6    1    1    2  501    0  0.70994063762E+02 -0.28065158592E+01 -0.22671790054E+03  0.29390141212E+03  0.17300000000E+03 0.  1.
         -6    1    1    2    0  502 -0.70994063762E+02  0.28065158592E+01  0.11221873951E+03  0.21810566045E+03  0.17300000000E+03 0.  1.
</event>
<event>
 4    1  0.5929306E+000  0.1000000E+03  0.7546771E-02  0.1280296E+00
         21   -1    0    0  503  502  0.00000000000E+00  0.00000000000E+00  0.36381235030E+03  0.36381235030E+03  0.00000000000E+00 0.  1.
         21   -1    0    0  501  503 -0.00000000000E+00 -0.00000000000E+00 -0.14205108895E+03  0.14205108895E+03  0.00000000000E+00 0.  1.
          6    1    1    2  501    0  0.10861993219E+03  0.86692072346E+02  0.55954105138E+02  0.22885293740E+03  0.17300000000E+03 0.  1.
         -6    1    1    2    0  502 -0.10861993219E+03 -0.86692072346E+02  0.16580715621E+03  0.27701050184E+03  0.17300000000E+03 0.  1.
</event>
<event>
 4    1  0.5929306E+000  0.1000000E+03  0.7546771E-02  0.1280296E+00
         21   -1    0    0  503  502  0.00000000000E+00  0.00000000000E+00  0.35926473951E+03  0.35926473951E+03  0.00000000000E+00 0.  1.
         21   -1    0    0  501  503 -0.00000000000E+00 -0.00000000000E+00 -0.36059555998E+03  0.36059555998E+03  0.00000000000E+00 0.  1.
          6    1    1    2  501    0 -0.18332721853E+02 -0.35134092876E+02 -0.31379495510E+03  0.36050903874E+03  0.17300000000E+03 0.  1.
         -6    1    1    2    0  502  0.18332721853E+02  0.35134092876E+02  0.31246413462E+03  0.35935126074E+03  0.17300000000E+03 0.  1.
</event>
<event>
 4    1  0.5929306E+000  0.1000000E+03  0.7546771E-02  0.1280296E+00
         21   -1    0    0  503  502  0.00000000000E+00  0.00000000000E+00  0.38927508713E+03  0.38927508713E+03  0.00000000000E+00 0.  1.
         21   -1    0    0  501  503 -0.00000000000E+00 -0.00000000000E+00 -0.81314531994E+02  0.81314531994E+02  0.00000000000E+00 0.  1.
          6    1    1    2  501    0 -0.14984291112E+02 -0.37963355896E+02  0.14382391519E+03  0.22864834124E+03  0.17300000000E+03 0.  1.
         -6    1    1    2    0  502  0.14984291112E+02  0.37963355896E+02  0.16413663995E+03  0.24194127788E+03  0.17300000000E+03 0.  1.
</event>
<event>
 4    1  0.5929306E+000  0.1000000E+03  0.7546771E-02  0.1280296E+00
         21   -1    0    0  503  502  0.00000000000E+00  0.00000000000E+00  0.78030178217E+03  0.78030178217E+03  0.00000000000E+00 0. -1.
         21   -1    0    0  501  503 -0.00000000000E+00 -0.00000000000E+00 -0.88559259848E+02  0.88559259848E+02  0.00000000000E+00 0. -1.
          6    1    1    2  501    0 -0.82376622755E+00 -0.28016914153E+02  0.22075166535E+02  0.17664070609E+03  0.17300000000E+03 0. -1.
         -6    1    1    2    0  502  0.82376622755E+00  0.28016914153E+02  0.66966735579E+03  0.69222033593E+03  0.17300000000E+03 0. -1.
</event>
<event>
 4    1  0.5929306E+000  0.1000000E+03  0.7546771E-02  0.1280296E+00
         21   -1    0    0  501  502  0.00000000000E+00  0.00000000000E+00  0.13654514746E+04  0.13654514746E+04  0.00000000000E+00 0. -1.
         21   -1    0    0  502  503 -0.00000000000E+00 -0.00000000000E+00 -0.23839208719E+02  0.23839208719E+02  0.00000000000E+00 0.  1.
          6    1    1    2  501    0  0.71026760043E+01  0.26814866350E+02  0.50507920950E+03  0.53460592303E+03  0.17300000000E+03 0. -1.
         -6    1    1    2    0  503 -0.71026760043E+01 -0.26814866350E+02  0.83653305640E+03  0.85468476031E+03  0.17300000000E+03 0.  1.
</event>
<event>
 4    1  0.5929306E+000  0.1000000E+03  0.7546771E-02  0.1280296E+00
         21   -1    0    0  501  502  0.00000000000E+00  0.00000000000E+00  0.30680080508E+02  0.30680080508E+02  0.00000000000E+00 0. -1.
         21   -1    0    0  502  503 -0.00000000000E+00 -0.00000000000E+00 -0.15274158295E+04  0.15274158295E+04  0.00000000000E+00 0.  1.
          6    1    1    2  501    0  0.63311861701E+02  0.37010448635E+02 -0.36153364072E+03  0.40744783532E+03  0.17300000000E+03 0. -1.
         -6    1    1    2    0  503 -0.63311861701E+02 -0.37010448635E+02 -0.11352021082E+04  0.11506480746E+04  0.17300000000E+03 0.  1.
</event>
<event>
 4    1  0.5929306E+000  0.1000000E+03  0.7546771E-02  0.1280296E+00
         21   -1    0    0  501  502  0.00000000000E+00  0.00000000000E+00  0.11048977294E+03  0.11048977294E+03  0.00000000000E+00 0. -1.
         21   -1    0    0  502  503 -0.00000000000E+00 -0.00000000000E+00 -0.42539859205E+03  0.42539859205E+03  0.00000000000E+00 0.  1.
          6    1    1    2  501    0 -0.12698041108E+03 -0.30736851787E+02 -0.15485754057E+03  0.26641816141E+03  0.17300000000E+03 0. -1.
         -6    1    1    2    0  503  0.12698041108E+03  0.30736851787E+02 -0.16005127854E+03  0.26947020358E+03  0.17300000000E+03 0.  1.
</event>
<event>
 4    1  0.5929306E+000  0.1000000E+03  0.7546771E-02  0.1280296E+00
         21   -1    0    0  501  502  0.00000000000E+00  0.00000000000E+00  0.79707526561E+03  0.79707526561E+03  0.00000000000E+00 0. -1.
         21   -1    0    0  502  503 -0.00000000000E+00 -0.00000000000E+00 -0.66106391476E+02  0.66106391476E+02  0.00000000000E+00 0.  1.
          6    1    1    2  501    0 -0.72961978816E+02  0.63507315094E+02  0.58318156152E+03  0.61594347397E+03  0.17300000000E+03 0. -1.
         -6    1    1    2    0  503  0.72961978816E+02 -0.63507315094E+02  0.14778731262E+03  0.24723818312E+03  0.17300000000E+03 0.  1.
</event>
<event>
 4    1  0.5929306E+000  0.1000000E+03  0.7546771E-02  0.1280296E+00
         21   -1    0    0  501  502  0.00000000000E+00  0.00000000000E+00  0.21240412271E+03  0.21240412271E+03  0.00000000000E+00 0. -1.
         21   -1    0    0  502  503 -0.00000000000E+00 -0.00000000000E+00 -0.30111147081E+03  0.30111147081E+03  0.00000000000E+00 0.  1.
          6    1    1    2  501    0 -0.48326696426E+02  0.52551742632E+02  0.12833404849E+03  0.22692682354E+03  0.17300000000E+03 0. -1.
         -6    1    1    2    0  503  0.48326696426E+02 -0.52551742632E+02 -0.21704139659E+03  0.28658876997E+03  0.17300000000E+03 0.  1.
</event>
<event>
 4    1  0.5929306E+000  0.1000000E+03  0.7546771E-02  0.1280296E+00
         21   -1    0    0  503  502  0.00000000000E+00  0.00000000000E+00  0.56379265612E+02  0.56379265612E+02  0.00000000000E+00 0. -1.
         21   -1    0    0  501  503 -0.00000000000E+00 -0.00000000000E+00 -0.68224519542E+03  0.68224519542E+03  0.00000000000E+00 0. -1.
          6    1    1    2  501    0  0.46601862268E+02 -0.27553290122E+02 -0.45390556936E+03  0.48876393408E+03  0.17300000000E+03 0. -1.
         -6    1    1    2    0  502 -0.46601862268E+02  0.27553290122E+02 -0.17196036046E+03  0.24986052696E+03  0.17300000000E+03 0. -1.
</event>
<event>
 4    1  0.5929306E+000  0.1000000E+03  0.7546771E-02  0.1280296E+00
         21   -1    0    0  503  502  0.00000000000E+00  0.00000000000E+00  0.32597681301E+03  0.32597681301E+03  0.00000000000E+00 0. -1.
         21   -1    0    0  501  503 -0.00000000000E+00 -0.00000000000E+00 -0.28239426746E+03  0.28239426746E+03  0.00000000000E+00 0. -1.
          6    1    1    2  501    0 -0.15463899348E+03 -0.47429631731E+02 -0.16833422703E+03  0.29056531152E+03  0.17300000000E+03 0. -1.
         -6    1    1    2    0  502  0.15463899348E+03  0.47429631731E+02  0.21191677259E+03  0.31780576895E+03  0.17300000000E+03 0. -1.
</event>
<event>
 4    1  0.5929306E+000  0.1000000E+03  0.7546771E-02  0.1280296E+00
         21   -1    0    0  503  502  0.00000000000E+00  0.00000000000E+00  0.16828703564E+03  0.16828703564E+03  0.00000000000E+00 0. -1.
         21   -1    0    0  501  503 -0.00000000000E+00 -0.00000000000E+00 -0.35703470939E+03  0.35703470939E+03  0.00000000000E+00 0. -1.
          6    1    1    2  501    0  0.50813570682E+02  0.16602406743E+03 -0.91105514943E+02  0.26148656712E+03  0.17300000000E+03 0. -1.
         -6    1    1    2    0  502 -0.50813570682E+02 -0.16602406743E+03 -0.97642158805E+02  0.26383517792E+03  0.17300000000E+03 0. -1.
</event>
<event>
 4    1  0.5929306E+000  0.1000000E+03  0.7546771E-02  0.1280296E+00
         21   -1    0    0  503  502  0.00000000000E+00  0.00000000000E+00  0.12979239383E+03  0.12979239383E+03  0.00000000000E+00 0. -1.
         21   -1    0    0  501  503 -0.00000000000E+00 -0.00000000000E+00 -0.13535733451E+04  0.13535733451E+04  0.00000000000E+00 0. -1.
          6    1    1    2  501    0 -0.93281574961E+02  0.23971709974E+03 -0.11110951767E+04  0.11535281669E+04  0.17300000000E+03 0. -1.
         -6    1    1    2    0  502  0.93281574961E+02 -0.23971709974E+03 -0.11268577455E+03  0.32983757202E+03  0.17300000000E+03 0. -1.
</event>
<event>
 4    1  0.5929306E+000  0.1000000E+03  0.7546771E-02  0.1280296E+00
         21   -1    0    0  501  502  0.00000000000E+00  0.00000000000E+00  0.66284593546E+02  0.66284593546E+02  0.00000000000E+00 0. -1.
         21   -1    0    0  502  503 -0.00000000000E+00 -0.00000000000E+00 -0.83788361304E+03  0.83788361304E+03  0.00000000000E+00 0.  1.
          6    1    1    2  501    0  0.14643497628E+02 -0.15481093642E+03 -0.31328506251E+03  0.39020172789E+03  0.17300000000E+03 0.  1.
         -6    1    1    2    0  503 -0.14643497628E+02  0.15481093642E+03 -0.45831395699E+03  0.51396647870E+03  0.17300000000E+03 0. -1.
</event>
<event>
 4    1  0.5929306E+000  0.1000000E+03  0.7546771E-02  0.1280296E+00
         21   -1    0    0  503  502  0.00000000000E+00  0.00000000000E+00  0.45550220501E+03  0.45550220501E+03  0.00000000000E+00 0. -1.
         21   -1    0    0  501  503 -0.00000000000E+00 -0.00000000000E+00 -0.88586639138E+02  0.88586639138E+02  0.00000000000E+00 0.  1.
          6    1    1    2  501    0  0.61865858067E+02  0.34767930301E+02  0.28284999529E+03  0.33907125093E+03  0.17300000000E+03 0.  1.
         -6    1    1    2    0  502 -0.61865858067E+02 -0.34767930301E+02  0.84065570585E+02  0.20501759322E+03  0.17300000000E+03 0. -1.
</event>
<event>
 4    1  0.5929306E+000  0.1000000E+03  0.7546771E-02  0.1280296E+00
         21   -1    0    0  503  502  0.00000000000E+00  0.00000000000E+00  0.26759646560E+03  0.26759646560E+03  0.00000000000E+00 0. -1.
         21   -1    0    0  501  503 -0.00000000000E+00 -0.00000000000E+00 -0.46608842663E+03  0.46608842663E+03  0.00000000000E+00 0.  1.
          6    1    1    2  501    0  0.67108871847E+02  0.10155490769E+03 -0.39300381694E+03  0.44631603163E+03  0.17300000000E+03 0.  1.
         -6    1    1    2    0  502 -0.67108871847E+02 -0.10155490769E+03  0.19451185591E+03  0.28736886060E+03  0.17300000000E+03 0. -1.
</event>
<event>
 4    1  0.5929306E+000  0.1000000E+03  0.7546771E-02  0.1280296E+00
         21   -1    0    0  503  502  0.00000000000E+00  0.00000000000E+00  0.15878568970E+03  0.15878568970E+03  0.00000000000E+00 0. -1.
         21   -1    0    0  501  503 -0.00000000000E+00 -0.00000000000E+00 -0.61221828546E+03  0.61221828546E+03  0.00000000000E+00 0.  1.
          6    1    1    2  501    0 -0.74816848360E+02  0.37057873466E+02 -0.53036289578E+03  0.56407858318E+03  0.17300000000E+03 0. -1.
         -6    1    1    2    0  502  0.74816848360E+02 -0.37057873466E+02  0.76930300024E+02  0.20692539198E+03  0.17300000000E+03 0.  1.
</event>
<event>
 4    1  0.5929306E+000  0.1000000E+03  0.7546771E-02  0.1280296E+00
         21   -1    0    0  503  502  0.00000000000E+00  0.00000000000E+00  0.58794688000E+02  0.58794688000E+02  0.00000000000E+00 0. -1.
         21   -1    0    0  501  503 -0.00000000000E+00 -0.00000000000E+00 -0.12312176242E+04  0.12312176242E+04  0.00000000000E+00 0.  1.
          6    1    1    2  501    0  0.38741050972E+01  0.31768567060E+02 -0.10742063823E+04  0.10885185356E+04  0.17300000000E+03 0. -1.
         -6    1    1    2    0  502 -0.38741050972E+01 -0.31768567060E+02 -0.98216553848E+02  0.20149377656E+03  0.17300000000E+03 0.  1.
</event>
<event>
 4    1  0.5929306E+000  0.1000000E+03  0.7546771E-02  0.1280296E+00
         21   -1    0    0  503  502  0.00000000000E+00  0.00000000000E+00  0.15570692976E+03  0.15570692976E+03  0.00000000000E+00 0. -1.
         21   -1    0    0  501  503 -0.00000000000E+00 -0.00000000000E+00 -0.26451870262E+03  0.26451870262E+03  0.00000000000E+00 0.  1.
          6    1    1    2  501    0 -0.31025612576E+02 -0.48908538630E+02 -0.14644814943E+03  0.23394592166E+03  0.17300000000E+03 0. -1.
         -6    1    1    2    0  502  0.31025612576E+02  0.48908538630E+02  0.37636376570E+02  0.18627971073E+03  0.17300000000E+03 0.  1.
</event>
<event>
 4    1  0.5929306E+000  0.1000000E+03  0.7546771E-02  0.1280296E+00
         21   -1    0    0  503  502  0.00000000000E+00  0.00000000000E+00  0.20893535798E+03  0.20893535798E+03  0.00000000000E+00 0.  1.
         21   -1    0    0  501  503 -0.00000000000E+00 -0.00000000000E+00 -0.15672851812E+03  0.15672851812E+03  0.00000000000E+00 0.  1.
          6    1    1    2  501    0  0.20814024988E+02 -0.35038045609E+02 -0.82520755696E+01  0.17792690923E+03  0.17300000000E+03 0.  1.
         -6    1    1    2    0  502 -0.20814024988E+02  0.35038045609E+02  0.60458915422E+02  0.18773696687E+03  0.17300000000E+03 0.  1.
</event>
<event>
 4    1  0.5929306E+000  0.1000000E+03  0.7546771E-02  0.1280296E+00
         21   -1    0    0  501  502  0.00000000000E+00  0.00000000000E+00  0.20473680093E+03  0.20473680093E+03  0.00000000000E+00 0. -1.
         21   -1    0    0  502  503 -0.00000000000E+00 -0.00000000000E+00 -0.50541401685E+03  0.50541401685E+03  0.00000000000E+00 0.  1.
          6    1    1    2  501    0  0.90285266442E+02 -0.87308507228E+02  0.11497765980E+03  0.24274074035E+03  0.17300000000E+03 0. -1.
         -6    1    1    2    0  503 -0.90285266442E+02  0.87308507228E+02 -0.41565487572E+03  0.46741007743E+03  0.17300000000E+03 0.  1.
</event>
<event>
 4    1  0.5929306E+000  0.1000000E+03  0.7546771E-02  0.1280296E+00
         21   -1    0    0  503  502  0.00000000000E+00  0.00000000000E+00  0.30989709659E+03  0.30989709659E+03  0.00000000000E+00 0.  1.
         21   -1    0    0  501  503 -0.00000000000E+00 -0.00000000000E+00 -0.14395371971E+03  0.14395371971E+03  0.00000000000E+00 0.  1.
          6    1    1    2  501    0  0.95754236602E+02 -0.65553404669E+02  0.12043267295E+03  0.24062242498E+03  0.17300000000E+03 0.  1.
         -6    1    1    2    0  502 -0.95754236602E+02  0.65553404669E+02  0.45510703943E+02  0.21322839132E+03  0.17300000000E+03 0.  1.
</event>
<event>
 4    1  0.5929306E+000  0.1000000E+03  0.7546771E-02  0.1280296E+00
         21   -1    0    0  503  502  0.00000000000E+00  0.00000000000E+00  0.13287635769E+03  0.13287635769E+03  0.00000000000E+00 0.  1.
         21   -1    0    0  501  503 -0.00000000000E+00 -0.00000000000E+00 -0.11251678490E+04  0.11251678490E+04  0.00000000000E+00 0.  1.
          6    1    1    2  501    0 -0.22443850530E+03  0.79504063697E+02 -0.90409789623E+03  0.95079732055E+03  0.17300000000E+03 0.  1.
         -6    1    1    2    0  502  0.22443850530E+03 -0.79504063697E+02 -0.88193595038E+02  0.30724688609E+03  0.17300000000E+03 0.  1.
</event>
<event>
 4    1  0.5929306E+000  0.1000000E+03  0.7546771E-02  0.1280296E+00
         21   -1    0    0  501  502  0.00000000000E+00  0.00000000000E+00  0.75285992001E+02  0.75285992001E+02  0.00000000000E+00 0.  1.
         21   -1    0    0  502  503 -0.00000000000E+00 -0.00000000000E+00 -0.48058634018E+03  0.48058634018E+03  0.00000000000E+00 0.  1.
          6    1    1    2  501    0 -0.71262174196E+02  0.34236079960E+02 -0.20057719927E+03  0.27642470858E+03  0.17300000000E+03 0.  1.
         -6    1    1    2    0  503  0.71262174196E+02 -0.34236079960E+02 -0.20472314891E+03  0.27944762361E+03  0.17300000000E+03 0.  1.
</event>
<event>
 4    1  0.5929306E+000  0.1000000E+03  0.7546771E-02  0.1280296E+00
         21   -1    0    0  501  502  0.00000000000E+00  0.00000000000E+00  0.25320270123E+03  0.25320270123E+03  0.00000000000E+00 0.  1.
         21   -1    0    0  502  503 -0.00000000000E+00 -0.00000000000E+00 -0.14804177103E+03  0.14804177103E+03  0.00000000000E+00 0.  1.
          6    1    1    2  501    0 -0.32827645502E+02  0.33004979165E+02  0.12864644587E+03  0.22055813518E+03  0.17300000000E+03 0.  1.
         -6    1    1    2    0  503  0.32827645502E+02 -0.33004979165E+02 -0.23485515671E+02  0.18068633707E+03  0.17300000000E+03 0.  1.
</event>
<event>
 4    1  0.5929306E+000  0.1000000E+03  0.7546771E-02  0.1280296E+00
         21   -1    0    0  503  502  0.00000000000E+00  0.00000000000E+00  0.22744967580E+04  0.22744967580E+04  0.00000000000E+00 0. -1.
         21   -1    0    0  501  503 -0.00000000000E+00 -0.00000000000E+00 -0.49987815206E+02  0.49987815206E+02  0.00000000000E+00 0.  1.
          6    1    1    2  501    0  0.48802272498E+02 -0.17759169816E+03  0.34269129127E+03  0.42577786951E+03  0.17300000000E+03 0.  1.
         -6    1    1    2    0  502 -0.48802272498E+02  0.17759169816E+03  0.18818176515E+04  0.18987067036E+04  0.17300000000E+03 0. -1.
</event>
<event>
 4    1  0.5929306E+000  0.1000000E+03  0.7546771E-02  0.1280296E+00
         21   -1    0    0  503  502  0.00000000000E+00  0.00000000000E+00  0.26778655375E+03  0.26778655375E+03  0.00000000000E+00 0. -1.
         21   -1    0    0  501  503 -0.00000000000E+00 -0.00000000000E+00 -0.18648315008E+03  0.18648315008E+03  0.00000000000E+00 0.  1.
          6    1    1    2  501    0 -0.83735975938E+02  0.79189664327E+02  0.12400961803E+03  0.24205392367E+03  0.17300000000E+03 0.  1.
         -6    1    1    2    0  502  0.83735975938E+02 -0.79189664327E+02 -0.42706214358E+02  0.21221578016E+03  0.17300000000E+03 0. -1.
</event>
<event>
 4    1  0.5929306E+000  0.1000000E+03  0.7546771E-02  0.1280296E+00
         21   -1    0    0  503  502  0.00000000000E+00  0.00000000000E+00  0.19409856667E+02  0.19409856667E+02  0.00000000000E+00 0. -1.
         21   -1    0    0  501  503 -0.00000000000E+00 -0.00000000000E+00 -0.30622827700E+04  0.30622827700E+04  0.00000000000E+00 0.  1.
          6    1    1    2  501    0 -0.15352240926E+03  0.16691191359E+02 -0.19969913052E+04  0.20104106544E+04  0.17300000000E+03 0.  1.
         -6    1    1    2    0  502  0.15352240926E+03 -0.16691191359E+02 -0.10458816081E+04  0.10712819723E+04  0.17300000000E+03 0. -1.
</event>
<event>
 4    1  0.5929306E+000  0.1000000E+03  0.7546771E-02  0.1280296E+00
         21   -1    0    0  501  502  0.00000000000E+00  0.00000000000E+00  0.24826099445E+03  0.24826099445E+03  0.00000000000E+00 0.  1.
         21   -1    0    0  502  503 -0.00000000000E+00 -0.00000000000E+00 -0.41803918487E+03  0.41803918487E+03  0.00000000000E+00 0. -1.
          6    1    1    2  501    0  0.31729053878E+02  0.26127273128E+03 -0.14875407307E+02  0.31531008660E+03  0.17300000000E+03 0.  1.
         -6    1    1    2    0  503 -0.31729053878E+02 -0.26127273128E+03 -0.15490278312E+03  0.35099009272E+03  0.17300000000E+03 0. -1.
</event>
<event>
 4    1  0.5929306E+000  0.1000000E+03  0.7546771E-02  0.1280296E+00
         21   -1    0    0  501  502  0.00000000000E+00  0.00000000000E+00  0.66115693788E+03  0.66115693788E+03  0.00000000000E+00 0.  1.
         21   -1    0    0  502  503 -0.00000000000E+00 -0.00000000000E+00 -0.25404173449E+03  0.25404173449E+03  0.00000000000E+00 0. -1.
          6    1    1    2  501    0 -0.18880432545E+03  0.18356166088E+03  0.49619437924E+03  0.58777531306E+03  0.17300000000E+03 0.  1.
         -6    1    1    2    0  503  0.18880432545E+03 -0.18356166088E+03 -0.89079175846E+02  0.32742335931E+03  0.17300000000E+03 0. -1.
</event>
<event>
 4    1  0.5929306E+000  0.1000000E+03  0.7546771E-02  0.1280296E+00
         21   -1    0    0  501  502  0.00000000000E+00  0.00000000000E+00  0.14358758362E+03  0.14358758362E+03  0.00000000000E+00 0.  1.
         21   -1    0    0  502  503 -0.00000000000E+00 -0.00000000000E+00 -0.35379602377E+03  0.35379602377E+03  0.00000000000E+00 0. -1.
          6    1    1    2  501    0 -0.92361455915E+02 -0.64250076159E+02 -0.51093761314E+01  0.20643114239E+03  0.17300000000E+03 0.  1.
         -6    1    1    2    0  503  0.92361455915E+02  0.64250076159E+02 -0.20509906401E+03  0.29095246499E+03  0.17300000000E+03 0. -1.
</event>
<event>
 4    1  0.5929306E+000  0.1000000E+03  0.7546771E-02  0.1280296E+00
         21   -1    0    0  501  502  0.00000000000E+00  0.00000000000E+00  0.20798510213E+03  0.20798510213E+03  0.00000000000E+00 0.  1.
         21   -1    0    0  502  503 -0.00000000000E+00 -0.00000000000E+00 -0.28562996119E+03  0.28562996119E+03  0.00000000000E+00 0. -1.
          6    1    1    2  501    0  0.14620418720E+03 -0.27861932713E+02  0.47847548055E+02  0.23317448296E+03  0.17300000000E+03 0.  1.
         -6    1    1    2    0  503 -0.14620418720E+03  0.27861932713E+02 -0.12549240712E+03  0.26044058035E+03  0.17300000000E+03 0. -1.
</event>
<event>
 4    1  0.5929306E+000  0.1000000E+03  0.7546771E-02  0.1280296E+00
         21   -1    0    0  501  502  0.00000000000E+00  0.00000000000E+00  0.20670952540E+03  0.20670952540E+03  0.00000000000E+00 0.  1.
         21   -1    0    0  502  503 -0.00000000000E+00 -0.00000000000E+00 -0.20019775006E+03  0.20019775006E+03  0.00000000000E+00 0. -1.
          6    1    1    2  501    0  0.78175334567E+02  0.48546003176E+02 -0.51392528291E+02  0.20257909399E+03  0.17300000000E+03 0.  1.
         -6    1    1    2    0  503 -0.78175334567E+02 -0.48546003176E+02  0.57904303630E+02  0.20432818146E+03  0.17300000000E+03 0. -1.
</event>
<event>
 4    1  0.5929306E+000  0.1000000E+03  0.7546771E-02  0.1280296E+00
         21   -1    0    0  501  502  0.00000000000E+00  0.00000000000E+00  0.43331025452E+03  0.43331025452E+03  0.00000000000E+00 0.  1.
         21   -1    0    0  502  503 -0.00000000000E+00 -0.00000000000E+00 -0.14134856625E+03  0.14134856625E+03  0.00000000000E+00 0. -1.
          6    1    1    2  501    0 -0.11570066780E+03  0.12557824917E+03  0.19996757707E+03  0.31475795950E+03  0.17300000000E+03 0.  1.
         -6    1    1    2    0  503  0.11570066780E+03 -0.12557824917E+03  0.91994111206E+02  0.25990086127E+03  0.17300000000E+03 0. -1.
</event>
<event>
 4    1  0.5929306E+000  0.1000000E+03  0.7546771E-02  0.1280296E+00
         21   -1    0    0  501  502  0.00000000000E+00  0.00000000000E+00  0.40118550967E+03  0.40118550967E+03  0.00000000000E+00 0.  1.
         21   -1    0    0  502  503 -0.00000000000E+00 -0.00000000000E+00 -0.15428332593E+03  0.15428332593E+03  0.00000000000E+00 0. -1.
          6    1    1    2  501    0 -0.13984808954E+02 -0.30839438001E+02  0.31943393486E+03  0.36484748123E+03  0.17300000000E+03 0.  1.
         -6    1    1    2    0  503  0.13984808954E+02  0.30839438001E+02 -0.72531751127E+02  0.19062135436E+03  0.17300000000E+03 0. -1.
</event>
<event>
 4    1  0.5929306E+000  0.1000000E+03  0.7546771E-02  0.1280296E+00
         21   -1    0    0  501  502  0.00000000000E+00  0.00000000000E+00  0.23086136423E+03  0.23086136423E+03  0.00000000000E+00 0. -1.
         21   -1    0    0  502  503 -0.00000000000E+00 -0.00000000000E+00 -0.22935080620E+03  0.22935080620E+03  0.00000000000E+00 0.  1.
          6    1    1    2  501    0  0.10809690037E+03  0.32640116333E+02  0.10209151921E+03  0.23043870195E+03  0.17300000000E+03 0. -1.
         -6    1    1    2    0  503 -0.10809690037E+03 -0.32640116333E+02 -0.10058096118E+03  0.22977346847E+03  0.17300000000E+03 0.  1.
</event>
<event>
 4    1  0.5929306E+000  0.1000000E+03  0.7546771E-02  0.1280296E+00
         21   -1    0    0  501  502  0.00000000000E+00  0.00000000000E+00  0.17303947706E+04  0.17303947706E+04  0.00000000000E+00 0. -1.
         21   -1    0    0  502  503 -0.00000000000E+00 -0.00000000000E+00 -0.10057318986E+03  0.10057318986E+03  0.00000000000E+00 0.  1.
          6    1    1    2  501    0 -0.79213648294E+02  0.34623973964E+03  0.11088892951E+04  0.11771666102E+04  0.17300000000E+03 0. -1.
         -6    1    1    2    0  503  0.79213648294E+02 -0.34623973964E+03  0.52093228568E+03  0.65380135030E+03  0.17300000000E+03 0.  1.
</event>
<event>
 4    1  0.5929306E+000  0.1000000E+03  0.7546771E-02  0.1280296E+00
         21   -1    0    0  501  502  0.00000000000E+00  0.00000000000E+00  0.44223220121E+03  0.44223220121E+03  0.00000000000E+00 0. -1.
         21   -1    0    0  502  503 -0.00000000000E+00 -0.00000000000E+00 -0.19904431119E+03  0.19904431119E+03  0.00000000000E+00 0.  1.
          6    1    1    2  501    0 -0.14246669801E+03 -0.16190836690E+03  0.23790992469E+03  0.36474814815E+03  0.17300000000E+03 0.  1.
         -6    1    1    2    0  503  0.14246669801E+03  0.16190836690E+03  0.52779653303E+01  0.27652836425E+03  0.17300000000E+03 0.  1.
</event>
<event>
 4    1  0.5929306E+000  0.1000000E+03  0.7546771E-02  0.1280296E+00
         21   -1    0    0  501  502  0.00000000000E+00  0.00000000000E+00  0.28515422508E+03  0.28515422508E+03  0.00000000000E+00 0. -1.
         21   -1    0    0  502  503 -0.00000000000E+00 -0.00000000000E+00 -0.42360671570E+03  0.42360671570E+03  0.00000000000E+00 0.  1.
          6    1    1    2  501    0  0.20453112065E+03 -0.23104420864E+02  0.15532109419E+03  0.31051640195E+03  0.17300000000E+03 0.  1.
         -6    1    1    2    0  503 -0.20453112065E+03  0.23104420864E+02 -0.29377358481E+03  0.39824453883E+03  0.17300000000E+03 0.  1.
</event>
<event>
 4    1  0.5929306E+000  0.1000000E+03  0.7546771E-02  0.1280296E+00
         21   -1    0    0  501  502  0.00000000000E+00  0.00000000000E+00  0.59403815879E+03  0.59403815879E+03  0.00000000000E+00 0. -1.
         21   -1    0    0  502  503 -0.00000000000E+00 -0.00000000000E+00 -0.76741848425E+02  0.76741848425E+02  0.00000000000E+00 0.  1.
          6    1    1    2  501    0 -0.27693991529E+02  0.10342181549E+03  0.15690114865E+03  0.25692411240E+03  0.17300000000E+03 0.  1.
         -6    1    1    2    0  503  0.27693991529E+02 -0.10342181549E+03  0.36039516171E+03  0.41385589481E+03  0.17300000000E+03 0.  1.
</event>
<event>
 4    1  0.5929306E+000  0.1000000E+03  0.7546771E-02  0.1280296E+00
         21   -1    0    0  501  502  0.00000000000E+00  0.00000000000E+00  0.64232215486E+03  0.64232215486E+03  0.00000000000E+00 0.  1.
         21   -1    0    0  502  503 -0.00000000000E+00 -0.00000000000E+00 -0.15499189860E+03  0.15499189860E+03  0.00000000000E+00 0.  1.
          6    1    1    2  501    0  0.94845333003E+02  0.12531313162E+03  0.51147142963E+03  0.56234423752E+03  0.17300000000E+03 0.  1.
         -6    1    1    2    0  503 -0.94845333003E+02 -0.12531313162E+03 -0.24141173368E+02  0.23496981594E+03  0.17300000000E+03 0.  1.
</event>
<event>
 4    1  0.5929306E+000  0.1000000E+03  0.7546771E-02  0.1280296E+00
         21   -1    0    0  501  502  0.00000000000E+00  0.00000000000E+00  0.36504098056E+03  0.36504098056E+03  0.00000000000E+00 0.  1.
         21   -1    0    0  502  503 -0.00000000000E+00 -0.00000000000E+00 -0.32456049383E+03  0.32456049383E+03  0.00000000000E+00 0.  1.
          6    1    1    2  501    0  0.10821767934E+03  0.19522873582E+03  0.21736317978E+03  0.35637210516E+03  0.17300000000E+03 0.  1.
         -6    1    1    2    0  503 -0.10821767934E+03 -0.19522873582E+03 -0.17688269306E+03  0.33322936923E+03  0.17300000000E+03 0.  1.
</event>
<event>
 4    1  0.5929306E+000  0.1000000E+03  0.7546771E-02  0.1280296E+00
         21   -1    0    0  503  502  0.00000000000E+00  0.00000000000E+00  0.16072524708E+03  0.16072524708E+03  0.00000000000E+00 0.  1.
         21   -1    0    0  501  503 -0.00000000000E+00 -0.00000000000E+00 -0.29578925350E+03  0.29578925350E+03  0.00000000000E+00 0. -1.
          6    1    1    2  501    0  0.12207924824E+03  0.49142279575E+02 -0.49597423057E+02  0.22295114009E+03  0.17300000000E+03 0.  1.
         -6    1    1    2    0  502 -0.12207924824E+03 -0.49142279575E+02 -0.85466583362E+02  0.23356336049E+03  0.17300000000E+03 0. -1.
</event>
<event>
 4    1  0.5929306E+000  0.1000000E+03  0.7546771E-02  0.1280296E+00
         21   -1    0    0  503  502  0.00000000000E+00  0.00000000000E+00  0.79681461269E+02  0.79681461269E+02  0.00000000000E+00 0.  1.
         21   -1    0    0  501  503 -0.00000000000E+00 -0.00000000000E+00 -0.78411890994E+03  0.78411890994E+03  0.00000000000E+00 0. -1.
          6    1    1    2  501    0  0.61786894899E+01 -0.14645950389E+02 -0.66274760919E+03  0.68513945555E+03  0.17300000000E+03 0.  1.
         -6    1    1    2    0  502 -0.61786894899E+01  0.14645950389E+02 -0.41689839478E+02  0.17866091565E+03  0.17300000000E+03 0. -1.
</event>
<event>
 4    1  0.5929306E+000  0.1000000E+03  0.7546771E-02  0.1280296E+00
         21   -1    0    0  503  502  0.00000000000E+00  0.00000000000E+00  0.40816469626E+03  0.40816469626E+03  0.00000000000E+00 0.  1.
         21   -1    0    0  501  503 -0.00000000000E+00 -0.00000000000E+00 -0.18895632392E+03  0.18895632392E+03  0.00000000000E+00 0. -1.
          6    1    1    2  501    0  0.56616356945E+02  0.15905727638E+03 -0.37375731376E+02  0.24460289111E+03  0.17300000000E+03 0.  1.
         -6    1    1    2    0  502 -0.56616356945E+02 -0.15905727638E+03  0.25658410371E+03  0.35251812907E+03  0.17300000000E+03 0. -1.
</event>
<event>
 4    1  0.5929306E+000  0.1000000E+03  0.7546771E-02  0.1280296E+00
         21   -1    0    0  501  502  0.00000000000E+00  0.00000000000E+00  0.12057098370E+03  0.12057098370E+03  0.00000000000E+00 0.  1.
         21   -1    0    0  502  503 -0.00000000000E+00 -0.00000000000E+00 -0.75608421662E+03  0.75608421662E+03  0.00000000000E+00 0.  1.
          6    1    1    2  501    0 -0.49332556813E+01 -0.87214780856E+02  0.18354658238E+02  0.19467061537E+03  0.17300000000E+03 0.  1.
         -6    1    1    2    0  503  0.49332556813E+01  0.87214780856E+02 -0.65386789116E+03  0.68198458494E+03  0.17300000000E+03 0.  1.
</event>
<event>
 4    1  0.5929306E+000  0.1000000E+03  0.7546771E-02  0.1280296E+00
         21   -1    0    0  501  502  0.00000000000E+00  0.00000000000E+00  0.99428697327E+02  0.99428697327E+02  0.00000000000E+00 0. -1.
         21   -1    0    0  502  503 -0.00000000000E+00 -0.00000000000E+00 -0.50121591319E+03  0.50121591319E+03  0.00000000000E+00 0. -1.
          6    1    1    2  501    0 -0.52120021457E+02  0.21967802953E+02 -0.27005188189E+02  0.18400369886E+03  0.17300000000E+03 0. -1.
         -6    1    1    2    0  503  0.52120021457E+02 -0.21967802953E+02 -0.37478202768E+03  0.41664091167E+03  0.17300000000E+03 0. -1.
</event>
<event>
 4    1  0.5929306E+000  0.1000000E+03  0.7546771E-02  0.1280296E+00
         21   -1    0    0  503  502  0.00000000000E+00  0.00000000000E+00  0.27178763114E+03  0.27178763114E+03  0.00000000000E+00 0. -1.
         21   -1    0    0  501  503 -0.00000000000E+00 -0.00000000000E+00 -0.51634129880E+03  0.51634129880E+03  0.00000000000E+00 0. -1.
          6    1    1    2  501    0 -0.15700084299E+03  0.18552953693E+03 -0.36061509260E+03  0.46801999828E+03  0.17300000000E+03 0. -1.
         -6    1    1    2    0  502  0.15700084299E+03 -0.18552953693E+03  0.11606142494E+03  0.32010893167E+03  0.17300000000E+03 0. -1.
</event>
<event>
 4    1  0.5929306E+000  0.1000000E+03  0.7546771E-02  0.1280296E+00
         21   -1    0    0  501  502  0.00000000000E+00  0.00000000000E+00  0.83509496810E+02  0.83509496810E+02  0.00000000000E+00 0.  1.
         21   -1    0    0  502  503 -0.00000000000E+00 -0.00000000000E+00 -0.14937582079E+04  0.14937582079E+04  0.00000000000E+00 0. -1.
          6    1    1    2  501    0 -0.62902172821E+02 -0.15376316241E+03 -0.12623194517E+03  0.27104113607E+03  0.17300000000E+03 0.  1.
         -6    1    1    2    0  503  0.62902172821E+02  0.15376316241E+03 -0.12840167659E+04  0.13062265686E+04  0.17300000000E+03 0. -1.
</event>
<event>
 4    1  0.5929306E+000  0.1000000E+03  0.7546771E-02  0.1280296E+00
         21   -1    0    0  501  502  0.00000000000E+00  0.00000000000E+00  0.17859956962E+03  0.17859956962E+03  0.00000000000E+00 0.  1.
         21   -1    0    0  502  503 -0.00000000000E+00 -0.00000000000E+00 -0.35998138788E+03  0.35998138788E+03  0.00000000000E+00 0. -1.
          6    1    1    2  501    0 -0.18181896623E+01 -0.17762687222E+03 -0.34403710271E+02  0.25033423024E+03  0.17300000000E+03 0.  1.
         -6    1    1    2    0  503  0.18181896623E+01  0.17762687222E+03 -0.14697810799E+03  0.28824672726E+03  0.17300000000E+03 0. -1.
</event>
<event>
 4    1  0.5929306E+000  0.1000000E+03  0.7546771E-02  0.1280296E+00
         21   -1    0    0  501  502  0.00000000000E+00  0.00000000000E+00  0.32739477864E+02  0.32739477864E+02  0.00000000000E+00 0.  1.
         21   -1    0    0  502  503 -0.00000000000E+00 -0.00000000000E+00 -0.15237893643E+04  0.15237893643E+04  0.00000000000E+00 0. -1.
          6    1    1    2  501    0 -0.72251361344E+02  0.61695996495E+02 -0.38120172668E+03  0.42926729625E+03  0.17300000000E+03 0.  1.
         -6    1    1    2    0  503  0.72251361344E+02 -0.61695996495E+02 -0.11098481597E+04  0.11272615459E+04  0.17300000000E+03 0. -1.
</event>
<event>
 4    1  0.5929306E+000  0.1000000E+03  0.7546771E-02  0.1280296E+00
         21   -1    0    0  501  502  0.00000000000E+00  0.00000000000E+00  0.26887655577E+03  0.26887655577E+03  0.00000000000E+00 0.  1.
         21   -1    0    0  502  503 -0.00000000000E+00 -0.00000000000E+00 -0.83370107688E+03  0.83370107688E+03  0.00000000000E+00 0.  1.
          6    1    1    2  501    0  0.35010440773E+03 -0.11984653749E+03 -0.36943134373E+01  0.40850818452E+03  0.17300000000E+03 0.  1.
         -6    1    1    2    0  503 -0.35010440773E+03  0.11984653749E+03 -0.56113020767E+03  0.69406944813E+03  0.17300000000E+03 0.  1.
</event>
<event>
 4    1  0.5929306E+000  0.1000000E+03  0.7546771E-02  0.1280296E+00
         21   -1    0    0  503  502  0.00000000000E+00  0.00000000000E+00  0.12230152525E+03  0.12230152525E+03  0.00000000000E+00 0.  1.
         21   -1    0    0  501  503 -0.00000000000E+00 -0.00000000000E+00 -0.32047640341E+03  0.32047640341E+03  0.00000000000E+00 0.  1.
          6    1    1    2  501    0 -0.55513668625E+01  0.88545677095E+02 -0.14084802414E+03  0.24007982112E+03  0.17300000000E+03 0.  1.
         -6    1    1    2    0  502  0.55513668625E+01 -0.88545677095E+02 -0.57326854014E+02  0.20269810753E+03  0.17300000000E+03 0.  1.
</event>
<event>
 4    1  0.5929306E+000  0.1000000E+03  0.7546771E-02  0.1280296E+00
         21   -1    0    0  503  502  0.00000000000E+00  0.00000000000E+00  0.52153704693E+03  0.52153704693E+03  0.00000000000E+00 0.  1.
         21   -1    0    0  501  503 -0.00000000000E+00 -0.00000000000E+00 -0.72393179630E+02  0.72393179630E+02  0.00000000000E+00 0.  1.
          6    1    1    2  501    0 -0.42536564702E+02  0.24499650593E+02  0.11208585683E+03  0.21190052269E+03  0.17300000000E+03 0.  1.
         -6    1    1    2    0  502  0.42536564702E+02 -0.24499650593E+02  0.33705801047E+03  0.38202970387E+03  0.17300000000E+03 0.  1.
</event>
<event>
 4    1  0.5929306E+000  0.1000000E+03  0.7546771E-02  0.1280296E+00
         21   -1    0    0  501  502  0.00000000000E+00  0.00000000000E+00  0.65208486580E+03  0.65208486580E+03  0.00000000000E+00 0.  1.
         21   -1    0    0  502  503 -0.00000000000E+00 -0.00000000000E+00 -0.10546206755E+03  0.10546206755E+03  0.00000000000E+00 0. -1.
          6    1    1    2  501    0  0.70995470189E+02 -0.59004724927E+02  0.52481196132E+03  0.56024861365E+03  0.17300000000E+03 0.  1.
         -6    1    1    2    0  503 -0.70995470189E+02  0.59004724927E+02  0.21810836927E+02  0.19729831971E+03  0.17300000000E+03 0. -1.
</event>
<event>
 4    1  0.5929306E+000  0.1000000E+03  0.7546771E-02  0.1280296E+00
         21   -1    0    0  501  502  0.00000000000E+00  0.00000000000E+00  0.56459407334E+02  0.56459407334E+02  0.00000000000E+00 0.  1.
         21   -1    0    0  502  503 -0.00000000000E+00 -0.00000000000E+00 -0.56590389360E+03  0.56590389360E+03  0.00000000000E+00 0. -1.
          6    1    1    2  501    0 -0.13343920466E+02  0.40628311142E+02 -0.27890002527E+03  0.33097272392E+03  0.17300000000E+03 0.  1.
         -6    1    1    2    0  503  0.13343920466E+02 -0.40628311142E+02 -0.23054446099E+03  0.29139057702E+03  0.17300000000E+03 0. -1.
</event>
<event>
 4    1  0.5929306E+000  0.1000000E+03  0.7546771E-02  0.1280296E+00
         21   -1    0    0  501  502  0.00000000000E+00  0.00000000000E+00  0.21174459304E+03  0.21174459304E+03  0.00000000000E+00 0.  1.
         21   -1    0    0  502  503 -0.00000000000E+00 -0.00000000000E+00 -0.31027158838E+03  0.31027158838E+03  0.00000000000E+00 0. -1.
          6    1    1    2  501    0 -0.61451030441E+02  0.11739096587E+03  0.88160046329E+02  0.23507033368E+03  0.17300000000E+03 0.  1.
         -6    1    1    2    0  503  0.61451030441E+02 -0.11739096587E+03 -0.18668704167E+03  0.28694584774E+03  0.17300000000E+03 0. -1.
</event>
<event>
 4    1  0.5929306E+000  0.1000000E+03  0.7546771E-02  0.1280296E+00
         21   -1    0    0  503  502  0.00000000000E+00  0.00000000000E+00  0.42187362310E+02  0.42187362310E+02  0.00000000000E+00 0.  1.
         21   -1    0    0  501  503 -0.00000000000E+00 -0.00000000000E+00 -0.14594457093E+04  0.14594457093E+04  0.00000000000E+00 0. -1.
          6    1    1    2  501    0  0.31657332133E+02  0.20706408642E+02 -0.12345563768E+04  0.12471926033E+04  0.17300000000E+03 0. -1.
         -6    1    1    2    0  502 -0.31657332133E+02 -0.20706408642E+02 -0.18270197016E+03  0.25444046835E+03  0.17300000000E+03 0. -1.
</event>
<event>
 4    1  0.5929306E+000  0.1000000E+03  0.7546771E-02  0.1280296E+00
         21   -1    0    0  503  502  0.00000000000E+00  0.00000000000E+00  0.27782410563E+03  0.27782410563E+03  0.00000000000E+00 0.  1.
         21   -1    0    0  501  503 -0.00000000000E+00 -0.00000000000E+00 -0.20893281320E+03  0.20893281320E+03  0.00000000000E+00 0.  1.
          6    1    1    2  501    0  0.26841161071E+02  0.15549785765E+03 -0.22854515431E+02  0.23526869859E+03  0.17300000000E+03 0.  1.
         -6    1    1    2    0  502 -0.26841161071E+02 -0.15549785765E+03  0.91745807868E+02  0.25148822024E+03  0.17300000000E+03 0.  1.
</event>
<event>
 4    1  0.5929306E+000  0.1000000E+03  0.7546771E-02  0.1280296E+00
         21   -1    0    0  501  502  0.00000000000E+00  0.00000000000E+00  0.12159297293E+04  0.12159297293E+04  0.00000000000E+00 0.  1.
         21   -1    0    0  502  503 -0.00000000000E+00 -0.00000000000E+00 -0.26041757767E+02  0.26041757767E+02  0.00000000000E+00 0.  1.
          6    1    1    2  501    0  0.42373353204E+01 -0.16056316998E+02  0.46159291587E+03  0.49322690550E+03  0.17300000000E+03 0.  1.
         -6    1    1    2    0  503 -0.42373353204E+01  0.16056316998E+02  0.72829505566E+03  0.74874458157E+03  0.17300000000E+03 0.  1.
</event>
<event>
 4    1  0.5929306E+000  0.1000000E+03  0.7546771E-02  0.1280296E+00
         21   -1    0    0  503  502  0.00000000000E+00  0.00000000000E+00  0.44976160700E+03  0.44976160700E+03  0.00000000000E+00 0.  1.
         21   -1    0    0  501  503 -0.00000000000E+00 -0.00000000000E+00 -0.21373973268E+03  0.21373973268E+03  0.00000000000E+00 0.  1.
          6    1    1    2  501    0  0.10270754019E+03  0.15547198451E+03 -0.71840081005E+02  0.26421652866E+03  0.17300000000E+03 0.  1.
         -6    1    1    2    0  502 -0.10270754019E+03 -0.15547198451E+03  0.30786195533E+03  0.39928481103E+03  0.17300000000E+03 0.  1.
</event>
<event>
 4    1  0.5929306E+000  0.1000000E+03  0.7546771E-02  0.1280296E+00
         21   -1    0    0  503  502  0.00000000000E+00  0.00000000000E+00  0.61489394766E+02  0.61489394766E+02  0.00000000000E+00 0. -1.
         21   -1    0    0  501  503 -0.00000000000E+00 -0.00000000000E+00 -0.63845399249E+03  0.63845399249E+03  0.00000000000E+00 0. -1.
          6    1    1    2  501    0  0.13226812438E+01  0.44639210143E+02 -0.43975494310E+03  0.47466600737E+03  0.17300000000E+03 0. -1.
         -6    1    1    2    0  502 -0.13226812438E+01 -0.44639210143E+02 -0.13720965462E+03  0.22527737989E+03  0.17300000000E+03 0. -1.
</event>
<event>
 4    1  0.5929306E+000  0.1000000E+03  0.7546771E-02  0.1280296E+00
         21   -1    0    0  503  502  0.00000000000E+00  0.00000000000E+00  0.15441023331E+03  0.15441023331E+03  0.00000000000E+00 0. -1.
         21   -1    0    0  501  503 -0.00000000000E+00 -0.00000000000E+00 -0.26722023138E+03  0.26722023138E+03  0.00000000000E+00 0. -1.
          6    1    1    2  501    0  0.47944887882E+02  0.29904466354E+01 -0.15499890576E+03  0.23719467918E+03  0.17300000000E+03 0. -1.
         -6    1    1    2    0  502 -0.47944887882E+02 -0.29904466354E+01  0.42188907694E+02  0.18443578551E+03  0.17300000000E+03 0. -1.
</event>
<event>
 4    1  0.5929306E+000  0.1000000E+03  0.7546771E-02  0.1280296E+00
         21   -1    0    0  501  502  0.00000000000E+00  0.00000000000E+00  0.52528095272E+02  0.52528095272E+02  0.00000000000E+00 0. -1.
         21   -1    0    0  502  503 -0.00000000000E+00 -0.00000000000E+00 -0.10430716242E+04  0.10430716242E+04  0.00000000000E+00 0. -1.
          6    1    1    2  501    0  0.32577250637E+02  0.14126520697E+03 -0.35016589293E+03  0.41660807545E+03  0.17300000000E+03 0. -1.
         -6    1    1    2    0  503 -0.32577250637E+02 -0.14126520697E+03 -0.64037763598E+03  0.67899164400E+03  0.17300000000E+03 0. -1.
</event>
<event>
 4    1  0.5929306E+000  0.1000000E+03  0.7546771E-02  0.1280296E+00
         21   -1    0    0  501  502  0.00000000000E+00  0.00000000000E+00  0.63070659405E+02  0.63070659405E+02  0.00000000000E+00 0. -1.
         21   -1    0    0  502  503 -0.00000000000E+00 -0.00000000000E+00 -0.10274728460E+04  0.10274728460E+04  0.00000000000E+00 0. -1.
          6    1    1    2  501    0 -0.18514809590E+03 -0.20917182717E+02 -0.45535848132E+03  0.52153398015E+03  0.17300000000E+03 0. -1.
         -6    1    1    2    0  503  0.18514809590E+03  0.20917182717E+02 -0.50904370531E+03  0.56900952528E+03  0.17300000000E+03 0. -1.
</event>
<event>
 4    1  0.5929306E+000  0.1000000E+03  0.7546771E-02  0.1280296E+00
         21   -1    0    0  503  502  0.00000000000E+00  0.00000000000E+00  0.13545570487E+04  0.13545570487E+04  0.00000000000E+00 0.  1.
         21   -1    0    0  501  503 -0.00000000000E+00 -0.00000000000E+00 -0.37626531637E+02  0.37626531637E+02  0.00000000000E+00 0.  1.
          6    1    1    2  501    0  0.54178770690E+02  0.13143182937E+03  0.56970917547E+03  0.61213332664E+03  0.17300000000E+03 0.  1.
         -6    1    1    2    0  502 -0.54178770690E+02 -0.13143182937E+03  0.74722134164E+03  0.78005025375E+03  0.17300000000E+03 0.  1.
</event>
<event>
 4    1  0.5929306E+000  0.1000000E+03  0.7546771E-02  0.1280296E+00
         21   -1    0    0  503  502  0.00000000000E+00  0.00000000000E+00  0.26773869325E+03  0.26773869325E+03  0.00000000000E+00 0.  1.
         21   -1    0    0  501  503 -0.00000000000E+00 -0.00000000000E+00 -0.17492728675E+03  0.17492728675E+03  0.00000000000E+00 0. -1.
          6    1    1    2  501    0  0.11949127542E+03 -0.25094730897E+02  0.69184403229E+00  0.21174840983E+03  0.17300000000E+03 0. -1.
         -6    1    1    2    0  502 -0.11949127542E+03  0.25094730897E+02  0.92119562467E+02  0.23091757016E+03  0.17300000000E+03 0.  1.
</event>
<event>
 4    1  0.5929306E+000  0.1000000E+03  0.7546771E-02  0.1280296E+00
         21   -1    0    0  503  502  0.00000000000E+00  0.00000000000E+00  0.25100742075E+03  0.25100742075E+03  0.00000000000E+00 0.  1.
         21   -1    0    0  501  503 -0.00000000000E+00 -0.00000000000E+00 -0.36469543160E+03  0.36469543160E+03  0.00000000000E+00 0. -1.
          6    1    1    2  501    0 -0.21839630169E+03 -0.10163063230E+03 -0.11777944373E+03  0.31910300434E+03  0.17300000000E+03 0. -1.
         -6    1    1    2    0  502  0.21839630169E+03  0.10163063230E+03  0.40914328766E+01  0.29659984801E+03  0.17300000000E+03 0.  1.
</event>
<event>
 4    1  0.5929306E+000  0.1000000E+03  0.7546771E-02  0.1280296E+00
         21   -1    0    0  503  502  0.00000000000E+00  0.00000000000E+00  0.11185800126E+04  0.11185800126E+04  0.00000000000E+00 0.  1.
         21   -1    0    0  501  503 -0.00000000000E+00 -0.00000000000E+00 -0.74309254642E+02  0.74309254642E+02  0.00000000000E+00 0. -1.
          6    1    1    2  501    0  0.78166914047E+02  0.16540399965E+03  0.23159605774E+03  0.34210273824E+03  0.17300000000E+03 0. -1.
         -6    1    1    2    0  502 -0.78166914047E+02 -0.16540399965E+03  0.81267470024E+03  0.85078652902E+03  0.17300000000E+03 0.  1.
</event>
<event>
 4    1  0.5929306E+000  0.1000000E+03  0.7546771E-02  0.1280296E+00
         21   -1    0    0  501  502  0.00000000000E+00  0.00000000000E+00  0.14771786795E+03  0.14771786795E+03  0.00000000000E+00 0.  1.
         21   -1    0    0  502  503 -0.00000000000E+00 -0.00000000000E+00 -0.53235201137E+03  0.53235201137E+03  0.00000000000E+00 0.  1.
          6    1    1    2  501    0 -0.21406888857E+02 -0.11264893533E+03  0.36344796482E+02  0.21070828591E+03  0.17300000000E+03 0.  1.
         -6    1    1    2    0  503  0.21406888857E+02  0.11264893533E+03 -0.42097893990E+03  0.46936159340E+03  0.17300000000E+03 0.  1.
</event>
<event>
 4    1  0.5929306E+000  0.1000000E+03  0.7546771E-02  0.1280296E+00
         21   -1    0    0  501  502  0.00000000000E+00  0.00000000000E+00  0.20646894146E+03  0.20646894146E+03  0.00000000000E+00 0.  1.
         21   -1    0    0  502  503 -0.00000000000E+00 -0.00000000000E+00 -0.26836030129E+03  0.26836030129E+03  0.00000000000E+00 0.  1.
          6    1    1    2  501    0  0.18104979153E+02  0.11765712457E+03  0.76308780066E+02  0.22343459703E+03  0.17300000000E+03 0.  1.
         -6    1    1    2    0  503 -0.18104979153E+02 -0.11765712457E+03 -0.13820013989E+03  0.25139464572E+03  0.17300000000E+03 0.  1.
</event>
<event>
 4    1  0.5929306E+000  0.1000000E+03  0.7546771E-02  0.1280296E+00
         21   -1    0    0  501  502  0.00000000000E+00  0.00000000000E+00  0.20591632977E+03  0.20591632977E+03  0.00000000000E+00 0.  1.
         21   -1    0    0  502  503 -0.00000000000E+00 -0.00000000000E+00 -0.32882392245E+03  0.32882392245E+03  0.00000000000E+00 0.  1.
          6    1    1    2  501    0 -0.16358340370E+03  0.10497335216E+03 -0.59902079935E+02  0.26701347122E+03  0.17300000000E+03 0.  1.
         -6    1    1    2    0  503  0.16358340370E+03 -0.10497335216E+03 -0.63005512740E+02  0.26772678100E+03  0.17300000000E+03 0.  1.
</event>
<event>
 4    1  0.5929306E+000  0.1000000E+03  0.7546771E-02  0.1280296E+00
         21   -1    0    0  503  502  0.00000000000E+00  0.00000000000E+00  0.12490370076E+03  0.12490370076E+03  0.00000000000E+00 0.  1.
         21   -1    0    0  501  503 -0.00000000000E+00 -0.00000000000E+00 -0.74715468480E+03  0.74715468480E+03  0.00000000000E+00 0. -1.
          6    1    1    2  501    0 -0.23530625137E+03 -0.88811659369E+02 -0.32782228197E+03  0.44794306706E+03  0.17300000000E+03 0. -1.
         -6    1    1    2    0  502  0.23530625137E+03  0.88811659369E+02 -0.29442870208E+03  0.42411531849E+03  0.17300000000E+03 0.  1.
</event>
<event>
 4    1  0.5929306E+000  0.1000000E+03  0.7546771E-02  0.1280296E+00
         21   -1    0    0  503  502  0.00000000000E+00  0.00000000000E+00  0.54417817567E+03  0.54417817567E+03  0.00000000000E+00 0.  1.
         21   -1    0    0  501  503 -0.00000000000E+00 -0.00000000000E+00 -0.90317097761E+02  0.90317097761E+02  0.00000000000E+00 0. -1.
          6    1    1    2  501    0  0.12455232206E+03 -0.53587963342E+02  0.18558837928E+03  0.28767515928E+03  0.17300000000E+03 0. -1.
         -6    1    1    2    0  502 -0.12455232206E+03  0.53587963342E+02  0.26827269863E+03  0.34682011415E+03  0.17300000000E+03 0.  1.
</event>
<event>
 4    1  0.5929306E+000  0.1000000E+03  0.7546771E-02  0.1280296E+00
         21   -1    0    0  503  502  0.00000000000E+00  0.00000000000E+00  0.48264057940E+03  0.48264057940E+03  0.00000000000E+00 0.  1.
         21   -1    0    0  501  503 -0.00000000000E+00 -0.00000000000E+00 -0.71555103362E+02  0.71555103362E+02  0.00000000000E+00 0. -1.
          6    1    1    2  501    0 -0.45627970989E+02 -0.41616247270E+02  0.24752061722E+03  0.30823575348E+03  0.17300000000E+03 0. -1.
         -6    1    1    2    0  502  0.45627970989E+02  0.41616247270E+02  0.16356485882E+03  0.24595992928E+03  0.17300000000E+03 0.  1.
</event>
<event>
 4    1  0.5929306E+000  0.1000000E+03  0.7546771E-02  0.1280296E+00
         21   -1    0    0  501  502  0.00000000000E+00  0.00000000000E+00  0.46629020569E+02  0.46629020569E+02  0.00000000000E+00 0.  1.
         21   -1    0    0  502  503 -0.00000000000E+00 -0.00000000000E+00 -0.10328153544E+04  0.10328153544E+04  0.00000000000E+00 0.  1.
          6    1    1    2  501    0  0.11033062073E+02  0.89397029589E+02 -0.24572243798E+03  0.31372292534E+03  0.17300000000E+03 0.  1.
         -6    1    1    2    0  503 -0.11033062073E+02 -0.89397029589E+02 -0.74046389582E+03  0.76572144959E+03  0.17300000000E+03 0.  1.
</event>
<event>
 4    1  0.5929306E+000  0.1000000E+03  0.7546771E-02  0.1280296E+00
         21   -1    0    0  501  502  0.00000000000E+00  0.00000000000E+00  0.91685532329E+02  0.91685532329E+02  0.00000000000E+00 0.  1.
         21   -1    0    0  502  503 -0.00000000000E+00 -0.00000000000E+00 -0.77340083708E+03  0.77340083708E+03  0.00000000000E+00 0.  1.
          6    1    1    2  501    0 -0.23281265680E+02  0.19106443326E+03 -0.23898901086E+03  0.35226748686E+03  0.17300000000E+03 0.  1.
         -6    1    1    2    0  503  0.23281265680E+02 -0.19106443326E+03 -0.44272629389E+03  0.51281888254E+03  0.17300000000E+03 0.  1.
</event>
<event>
 4    1  0.5929306E+000  0.1000000E+03  0.7546771E-02  0.1280296E+00
         21   -1    0    0  501  502  0.00000000000E+00  0.00000000000E+00  0.12103621047E+03  0.12103621047E+03  0.00000000000E+00 0.  1.
         21   -1    0    0  502  503 -0.00000000000E+00 -0.00000000000E+00 -0.74633939110E+03  0.74633939110E+03  0.00000000000E+00 0.  1.
          6    1    1    2  501    0 -0.16271428027E+03  0.12434981923E+03 -0.11656809541E+03  0.29232847178E+03  0.17300000000E+03 0.  1.
         -6    1    1    2    0  503  0.16271428027E+03 -0.12434981923E+03 -0.50873508522E+03  0.57504712979E+03  0.17300000000E+03 0.  1.
</event>
<event>
 4    1  0.5929306E+000  0.1000000E+03  0.7546771E-02  0.1280296E+00
         21   -1    0    0  501  502  0.00000000000E+00  0.00000000000E+00  0.16450567724E+03  0.16450567724E+03  0.00000000000E+00 0.  1.
         21   -1    0    0  502  503 -0.00000000000E+00 -0.00000000000E+00 -0.11673492021E+04  0.11673492021E+04  0.00000000000E+00 0.  1.
          6    1    1    2  501    0  0.15146474000E+03  0.26805891855E+03 -0.10716968240E+03  0.36906841114E+03  0.17300000000E+03 0.  1.
         -6    1    1    2    0  503 -0.15146474000E+03 -0.26805891855E+03 -0.89567384248E+03  0.96278646821E+03  0.17300000000E+03 0.  1.
</event>
<event>
 4    1  0.5929306E+000  0.1000000E+03  0.7546771E-02  0.1280296E+00
         21   -1    0    0  501  502  0.00000000000E+00  0.00000000000E+00  0.18566821961E+03  0.18566821961E+03  0.00000000000E+00 0.  1.
         21   -1    0    0  502  503 -0.00000000000E+00 -0.00000000000E+00 -0.31151413446E+03  0.31151413446E+03  0.00000000000E+00 0.  1.
          6    1    1    2  501    0  0.62054738499E+02  0.20831121972E+02 -0.22179950888E+03  0.28880572770E+03  0.17300000000E+03 0.  1.
         -6    1    1    2    0  503 -0.62054738499E+02 -0.20831121972E+02  0.95953594024E+02  0.20837662637E+03  0.17300000000E+03 0.  1.
</event>
<event>
 4    1  0.5929306E+000  0.1000000E+03  0.7546771E-02  0.1280296E+00
         21   -1    0    0  503  502  0.00000000000E+00  0.00000000000E+00  0.32551398508E+03  0.32551398508E+03  0.00000000000E+00 0.  1.
         21   -1    0    0  501  503 -0.00000000000E+00 -0.00000000000E+00 -0.11208765121E+03  0.11208765121E+03  0.00000000000E+00 0. -1.
          6    1    1    2  501    0  0.14526885159E+02  0.58186698427E+02  0.16903764509E+03  0.24919760778E+03  0.17300000000E+03 0. -1.
         -6    1    1    2    0  502 -0.14526885159E+02 -0.58186698427E+02  0.44388688782E+02  0.18840402851E+03  0.17300000000E+03 0.  1.
</event>
<event>
 4    1  0.5929306E+000  0.1000000E+03  0.7546771E-02  0.1280296E+00
         21   -1    0    0  503  502  0.00000000000E+00  0.00000000000E+00  0.11881765407E+03  0.11881765407E+03  0.00000000000E+00 0. -1.
         21   -1    0    0  501  503 -0.00000000000E+00 -0.00000000000E+00 -0.48614433470E+03  0.48614433470E+03  0.00000000000E+00 0. -1.
          6    1    1    2  501    0 -0.42952552963E+02  0.11313821794E+03 -0.32819741389E+03  0.39024059329E+03  0.17300000000E+03 0. -1.
         -6    1    1    2    0  502  0.42952552963E+02 -0.11313821794E+03 -0.39129266739E+02  0.21472139549E+03  0.17300000000E+03 0. -1.
</event>
<event>
 4    1  0.5929306E+000  0.1000000E+03  0.7546771E-02  0.1280296E+00
         21   -1    0    0  503  502  0.00000000000E+00  0.00000000000E+00  0.21404955775E+03  0.21404955775E+03  0.00000000000E+00 0. -1.
         21   -1    0    0  501  503 -0.00000000000E+00 -0.00000000000E+00 -0.20040924554E+03  0.20040924554E+03  0.00000000000E+00 0. -1.
          6    1    1    2  501    0 -0.62954012304E+02  0.21395739634E+02  0.99323092657E+02  0.21027377886E+03  0.17300000000E+03 0. -1.
         -6    1    1    2    0  502  0.62954012304E+02 -0.21395739634E+02 -0.85682780443E+02  0.20418502444E+03  0.17300000000E+03 0. -1.
</event>
<event>
 4    1  0.5929306E+000  0.1000000E+03  0.7546771E-02  0.1280296E+00
         21   -1    0    0  503  502  0.00000000000E+00  0.00000000000E+00  0.20238270385E+04  0.20238270385E+04  0.00000000000E+00 0. -1.
         21   -1    0    0  501  503 -0.00000000000E+00 -0.00000000000E+00 -0.66873294759E+02  0.66873294759E+02  0.00000000000E+00 0. -1.
          6    1    1    2  501    0 -0.34829234001E+02 -0.28106308318E+03  0.52738863866E+03  0.62311901629E+03  0.17300000000E+03 0. -1.
         -6    1    1    2    0  502  0.34829234001E+02  0.28106308318E+03  0.14295651051E+04  0.14675813170E+04  0.17300000000E+03 0. -1.
</event>
<event>
 4    1  0.5929306E+000  0.1000000E+03  0.7546771E-02  0.1280296E+00
         21   -1    0    0  503  502  0.00000000000E+00  0.00000000000E+00  0.16656220939E+03  0.16656220939E+03  0.00000000000E+00 0. -1.
         21   -1    0    0  501  503 -0.00000000000E+00 -0.00000000000E+00 -0.29948822786E+03  0.29948822786E+03  0.00000000000E+00 0. -1.
          6    1    1    2  501    0 -0.13903403742E+03  0.70534683609E+01 -0.91464082369E+02  0.24015597711E+03  0.17300000000E+03 0. -1.
         -6    1    1    2    0  502  0.13903403742E+03 -0.70534683609E+01 -0.41461936108E+02  0.22589446014E+03  0.17300000000E+03 0. -1.
</event>
<event>
 4    1  0.5929306E+000  0.1000000E+03  0.7546771E-02  0.1280296E+00
         21   -1    0    0  503  502  0.00000000000E+00  0.00000000000E+00  0.11364306563E+03  0.11364306563E+03  0.00000000000E+00 0. -1.
         21   -1    0    0  501  503 -0.00000000000E+00 -0.00000000000E+00 -0.64135808434E+03  0.64135808434E+03  0.00000000000E+00 0.  1.
          6    1    1    2  501    0  0.94999003910E+02  0.88633429772E+02 -0.48965444264E+03  0.53532342450E+03  0.17300000000E+03 0.  1.
         -6    1    1    2    0  502 -0.94999003910E+02 -0.88633429772E+02 -0.38060576068E+02  0.21967772547E+03  0.17300000000E+03 0. -1.
</event>
<event>
 4    1  0.5929306E+000  0.1000000E+03  0.7546771E-02  0.1280296E+00
         21   -1    0    0  503  502  0.00000000000E+00  0.00000000000E+00  0.95831784942E+03  0.95831784942E+03  0.00000000000E+00 0. -1.
         21   -1    0    0  501  503 -0.00000000000E+00 -0.00000000000E+00 -0.12630705241E+03  0.12630705241E+03  0.00000000000E+00 0.  1.
          6    1    1    2  501    0 -0.61403266407E+02 -0.19825008783E+03  0.74355117175E+02  0.28023408411E+03  0.17300000000E+03 0.  1.
         -6    1    1    2    0  502  0.61403266407E+02  0.19825008783E+03  0.75765567983E+03  0.80439081772E+03  0.17300000000E+03 0. -1.
</event>
<event>
 4    1  0.5929306E+000  0.1000000E+03  0.7546771E-02  0.1280296E+00
         21   -1    0    0  503  502  0.00000000000E+00  0.00000000000E+00  0.13610143138E+04  0.13610143138E+04  0.00000000000E+00 0.  1.
         21   -1    0    0  501  503 -0.00000000000E+00 -0.00000000000E+00 -0.33444960658E+02  0.33444960658E+02  0.00000000000E+00 0.  1.
          6    1    1    2  501    0  0.89695885914E+02  0.45362170060E+02  0.42171170452E+03  0.46676850810E+03  0.17300000000E+03 0.  1.
         -6    1    1    2    0  502 -0.89695885914E+02 -0.45362170060E+02  0.90585764857E+03  0.92769076631E+03  0.17300000000E+03 0.  1.
</event>
<event>
 4    1  0.5929306E+000  0.1000000E+03  0.7546771E-02  0.1280296E+00
         21   -1    0    0  503  502  0.00000000000E+00  0.00000000000E+00  0.43031702044E+03  0.43031702044E+03  0.00000000000E+00 0.  1.
         21   -1    0    0  501  503 -0.00000000000E+00 -0.00000000000E+00 -0.79314430798E+02  0.79314430798E+02  0.00000000000E+00 0.  1.
          6    1    1    2  501    0  0.22119388024E+02  0.31787203927E+02  0.10380926554E+03  0.20543869468E+03  0.17300000000E+03 0. -1.
         -6    1    1    2    0  502 -0.22119388024E+02 -0.31787203927E+02  0.24719332410E+03  0.30419275656E+03  0.17300000000E+03 0. -1.
</event>
<event>
 4    1  0.5929306E+000  0.1000000E+03  0.7546771E-02  0.1280296E+00
         21   -1    0    0  501  502  0.00000000000E+00  0.00000000000E+00  0.11453678655E+03  0.11453678655E+03  0.00000000000E+00 0. -1.
         21   -1    0    0  502  503 -0.00000000000E+00 -0.00000000000E+00 -0.35363529572E+03  0.35363529572E+03  0.00000000000E+00 0. -1.
          6    1    1    2  501    0 -0.67289139345E+02  0.73801299376E+02 -0.14805856292E+03  0.24864592922E+03  0.17300000000E+03 0. -1.
         -6    1    1    2    0  503  0.67289139345E+02 -0.73801299376E+02 -0.91039946247E+02  0.21952615306E+03  0.17300000000E+03 0. -1.
</event>
<event>
 4    1  0.5929306E+000  0.1000000E+03  0.7546771E-02  0.1280296E+00
         21   -1    0    0  501  502  0.00000000000E+00  0.00000000000E+00  0.13360584038E+04  0.13360584038E+04  0.00000000000E+00 0. -1.
         21   -1    0    0  502  503 -0.00000000000E+00 -0.00000000000E+00 -0.82699512853E+02  0.82699512853E+02  0.00000000000E+00 0. -1.
          6    1    1    2  501    0 -0.11667428065E+02 -0.25781962421E+02  0.12293928802E+04  0.12418279641E+04  0.17300000000E+03 0. -1.
         -6    1    1    2    0  503  0.11667428065E+02  0.25781962421E+02  0.23966010794E+02  0.17692995263E+03  0.17300000000E+03 0. -1.
</event>
<event>
 4    1  0.5929306E+000  0.1000000E+03  0.7546771E-02  0.1280296E+00
         21   -1    0    0  501  502  0.00000000000E+00  0.00000000000E+00  0.31077929041E+03  0.31077929041E+03  0.00000000000E+00 0. -1.
         21   -1    0    0  502  503 -0.00000000000E+00 -0.00000000000E+00 -0.17278798846E+03  0.17278798846E+03  0.00000000000E+00 0. -1.
          6    1    1    2  501    0 -0.64502985050E+00 -0.25769504202E+02  0.22759495226E+03  0.28704171422E+03  0.17300000000E+03 0. -1.
         -6    1    1    2    0  503  0.64502985050E+00  0.25769504202E+02 -0.89603650314E+02  0.19652556465E+03  0.17300000000E+03 0. -1.
</event>
<event>
 4    1  0.5929306E+000  0.1000000E+03  0.7546771E-02  0.1280296E+00
         21   -1    0    0  501  502  0.00000000000E+00  0.00000000000E+00  0.29019027292E+04  0.29019027292E+04  0.00000000000E+00 0. -1.
         21   -1    0    0  502  503 -0.00000000000E+00 -0.00000000000E+00 -0.15621791227E+02  0.15621791227E+02  0.00000000000E+00 0. -1.
          6    1    1    2  501    0 -0.57583650558E+02  0.16378285578E+02  0.21880141414E+04  0.21956591284E+04  0.17300000000E+03 0. -1.
         -6    1    1    2    0  503  0.57583650558E+02 -0.16378285578E+02  0.69826679664E+03  0.72186539212E+03  0.17300000000E+03 0. -1.
</event>
<event>
 4    1  0.5929306E+000  0.1000000E+03  0.7546771E-02  0.1280296E+00
         21   -1    0    0  501  502  0.00000000000E+00  0.00000000000E+00  0.24453775071E+03  0.24453775071E+03  0.00000000000E+00 0. -1.
         21   -1    0    0  502  503 -0.00000000000E+00 -0.00000000000E+00 -0.16331790084E+04  0.16331790084E+04  0.00000000000E+00 0. -1.
          6    1    1    2  501    0  0.82878930247E+02  0.40046734598E+02  0.19825937197E+03  0.27876232996E+03  0.17300000000E+03 0. -1.
         -6    1    1    2    0  503 -0.82878930247E+02 -0.40046734598E+02 -0.15869006297E+04  0.15989544291E+04  0.17300000000E+03 0. -1.
</event>
<event>
 4    1  0.5929306E+000  0.1000000E+03  0.7546771E-02  0.1280296E+00
         21   -1    0    0  501  502  0.00000000000E+00  0.00000000000E+00  0.52630424562E+02  0.52630424562E+02  0.00000000000E+00 0. -1.
         21   -1    0    0  502  503 -0.00000000000E+00 -0.00000000000E+00 -0.65090711180E+03  0.65090711180E+03  0.00000000000E+00 0. -1.
          6    1    1    2  501    0  0.44625226245E+02 -0.59353095982E+01 -0.20795393801E+03  0.27422705748E+03  0.17300000000E+03 0. -1.
         -6    1    1    2    0  503 -0.44625226245E+02  0.59353095982E+01 -0.39032274923E+03  0.42931047889E+03  0.17300000000E+03 0. -1.
</event>
<event>
 4    1  0.5929306E+000  0.1000000E+03  0.7546771E-02  0.1280296E+00
         21   -1    0    0  503  502  0.00000000000E+00  0.00000000000E+00  0.94310400742E+03  0.94310400742E+03  0.00000000000E+00 0. -1.
         21   -1    0    0  501  503 -0.00000000000E+00 -0.00000000000E+00 -0.16270827716E+03  0.16270827716E+03  0.00000000000E+00 0.  1.
          6    1    1    2  501    0 -0.10452626414E+03  0.62763252012E+02 -0.75061770779E+02  0.22456231904E+03  0.17300000000E+03 0.  1.
         -6    1    1    2    0  502  0.10452626414E+03 -0.62763252012E+02  0.85545750104E+03  0.88124996555E+03  0.17300000000E+03 0. -1.
</event>
<event>
 4    1  0.5929306E+000  0.1000000E+03  0.7546771E-02  0.1280296E+00
         21   -1    0    0  503  502  0.00000000000E+00  0.00000000000E+00  0.27017106050E+04  0.27017106050E+04  0.00000000000E+00 0. -1.
         21   -1    0    0  501  503 -0.00000000000E+00 -0.00000000000E+00 -0.28767401257E+02  0.28767401257E+02  0.00000000000E+00 0. -1.
          6    1    1    2  501    0  0.17537686171E+03  0.30340557748E+02  0.71481761614E+03  0.75668409354E+03  0.17300000000E+03 0. -1.
         -6    1    1    2    0  502 -0.17537686171E+03 -0.30340557748E+02  0.19581255876E+04  0.19737939128E+04  0.17300000000E+03 0. -1.
</event>
<event>
 4    1  0.5929306E+000  0.1000000E+03  0.7546771E-02  0.1280296E+00
         21   -1    0    0  501  502  0.00000000000E+00  0.00000000000E+00  0.31644789553E+03  0.31644789553E+03  0.00000000000E+00 0. -1.
         21   -1    0    0  502  503 -0.00000000000E+00 -0.00000000000E+00 -0.11121838734E+03  0.11121838734E+03  0.00000000000E+00 0. -1.
          6    1    1    2  501    0 -0.14790242383E+02 -0.39147676696E+02  0.17018716454E+03  0.24625994972E+03  0.17300000000E+03 0. -1.
         -6    1    1    2    0  503  0.14790242383E+02  0.39147676696E+02  0.35042343648E+02  0.18140633316E+03  0.17300000000E+03 0. -1.
</event>
<event>
 4    1  0.5929306E+000  0.1000000E+03  0.7546771E-02  0.1280296E+00
         21   -1    0    0  501  502  0.00000000000E+00  0.00000000000E+00  0.14846546759E+03  0.14846546759E+03  0.00000000000E+00 0. -1.
         21   -1    0    0  502  503 -0.00000000000E+00 -0.00000000000E+00 -0.50814057904E+03  0.50814057904E+03  0.00000000000E+00 0. -1.
          6    1    1    2  501    0 -0.37597850124E+02  0.47499923098E+02  0.64662502058E+02  0.19437098601E+03  0.17300000000E+03 0. -1.
         -6    1    1    2    0  503  0.37597850124E+02 -0.47499923098E+02 -0.42433761351E+03  0.46223506062E+03  0.17300000000E+03 0. -1.
</event>
<event>
 4    1  0.5929306E+000  0.1000000E+03  0.7546771E-02  0.1280296E+00
         21   -1    0    0  501  502  0.00000000000E+00  0.00000000000E+00  0.15938659807E+03  0.15938659807E+03  0.00000000000E+00 0.  1.
         21   -1    0    0  502  503 -0.00000000000E+00 -0.00000000000E+00 -0.23144834094E+03  0.23144834094E+03  0.00000000000E+00 0. -1.
          6    1    1    2  501    0 -0.43547337876E+02 -0.27742157898E+02 -0.10270850654E+03  0.20771142308E+03  0.17300000000E+03 0.  1.
         -6    1    1    2    0  503  0.43547337876E+02  0.27742157898E+02  0.30646763672E+02  0.18312351592E+03  0.17300000000E+03 0.  1.
</event>
<event>
 4    1  0.5929306E+000  0.1000000E+03  0.7546771E-02  0.1280296E+00
         21   -1    0    0  501  502  0.00000000000E+00  0.00000000000E+00  0.27259347298E+03  0.27259347298E+03  0.00000000000E+00 0.  1.
         21   -1    0    0  502  503 -0.00000000000E+00 -0.00000000000E+00 -0.13097613076E+03  0.13097613076E+03  0.00000000000E+00 0. -1.
          6    1    1    2  501    0 -0.33529493081E+02  0.55850351730E+01  0.14338585488E+03  0.22725299317E+03  0.17300000000E+03 0.  1.
         -6    1    1    2    0  503  0.33529493081E+02 -0.55850351730E+01 -0.17685126610E+01  0.17631661057E+03  0.17300000000E+03 0.  1.
</event>
<event>
 4    1  0.5929306E+000  0.1000000E+03  0.7546771E-02  0.1280296E+00
         21   -1    0    0  501  502  0.00000000000E+00  0.00000000000E+00  0.46843221342E+03  0.46843221342E+03  0.00000000000E+00 0. -1.
         21   -1    0    0  502  503 -0.00000000000E+00 -0.00000000000E+00 -0.92374097929E+02  0.92374097929E+02  0.00000000000E+00 0.  1.
          6    1    1    2  501    0 -0.66666281714E+02 -0.75343401151E+02  0.26453207431E+03  0.33170354166E+03  0.17300000000E+03 0. -1.
         -6    1    1    2    0  503  0.66666281714E+02  0.75343401151E+02  0.11152604118E+03  0.22910276968E+03  0.17300000000E+03 0.  1.
</event>
<event>
 4    1  0.5929306E+000  0.1000000E+03  0.7546771E-02  0.1280296E+00
         21   -1    0    0  501  502  0.00000000000E+00  0.00000000000E+00  0.25891022821E+03  0.25891022821E+03  0.00000000000E+00 0.  1.
         21   -1    0    0  502  503 -0.00000000000E+00 -0.00000000000E+00 -0.34535161036E+03  0.34535161036E+03  0.00000000000E+00 0. -1.
          6    1    1    2  501    0  0.11651391369E+03 -0.24468424329E+02  0.17185722045E+03  0.27136340965E+03  0.17300000000E+03 0.  1.
         -6    1    1    2    0  503 -0.11651391369E+03  0.24468424329E+02 -0.25829860260E+03  0.33289842892E+03  0.17300000000E+03 0. -1.
</event>
<event>
 4    1  0.5929306E+000  0.1000000E+03  0.7546771E-02  0.1280296E+00
         21   -1    0    0  501  502  0.00000000000E+00  0.00000000000E+00  0.29984954005E+03  0.29984954005E+03  0.00000000000E+00 0.  1.
         21   -1    0    0  502  503 -0.00000000000E+00 -0.00000000000E+00 -0.41276528917E+03  0.41276528917E+03  0.00000000000E+00 0. -1.
          6    1    1    2  501    0  0.18933477474E+03  0.20758595040E+03  0.67164949640E+02  0.33671904340E+03  0.17300000000E+03 0.  1.
         -6    1    1    2    0  503 -0.18933477474E+03 -0.20758595040E+03 -0.18008069876E+03  0.37589578582E+03  0.17300000000E+03 0. -1.
</event>
<event>
 4    1  0.5929306E+000  0.1000000E+03  0.7546771E-02  0.1280296E+00
         21   -1    0    0  501  502  0.00000000000E+00  0.00000000000E+00  0.32650120314E+03  0.32650120314E+03  0.00000000000E+00 0.  1.
         21   -1    0    0  502  503 -0.00000000000E+00 -0.00000000000E+00 -0.60239513023E+03  0.60239513023E+03  0.00000000000E+00 0. -1.
          6    1    1    2  501    0  0.71660305224E+02  0.24068647976E+03  0.19927786503E+03  0.36428813922E+03  0.17300000000E+03 0.  1.
         -6    1    1    2    0  503 -0.71660305224E+02 -0.24068647976E+03 -0.47517179212E+03  0.56460819416E+03  0.17300000000E+03 0. -1.
</event>
<event>
 4    1  0.5929306E+000  0.1000000E+03  0.7546771E-02  0.1280296E+00
         21   -1    0    0  501  502  0.00000000000E+00  0.00000000000E+00  0.47992580923E+03  0.47992580923E+03  0.00000000000E+00 0.  1.
         21   -1    0    0  502  503 -0.00000000000E+00 -0.00000000000E+00 -0.15243073809E+03  0.15243073809E+03  0.00000000000E+00 0. -1.
          6    1    1    2  501    0  0.63742735668E+02  0.19317202148E+03  0.11349644736E+03  0.29015342458E+03  0.17300000000E+03 0.  1.
         -6    1    1    2    0  503 -0.63742735668E+02 -0.19317202148E+03  0.21399862378E+03  0.34220312274E+03  0.17300000000E+03 0. -1.
</event>
<event>
 4    1  0.5929306E+000  0.1000000E+03  0.7546771E-02  0.1280296E+00
         21   -1    0    0  501  502  0.00000000000E+00  0.00000000000E+00  0.47101393392E+03  0.47101393392E+03  0.00000000000E+00 0.  1.
         21   -1    0    0  502  503 -0.00000000000E+00 -0.00000000000E+00 -0.49376644033E+03  0.49376644033E+03  0.00000000000E+00 0. -1.
          6    1    1    2  501    0  0.37125188189E+03 -0.72813885030E+01  0.24317616317E+03  0.47638705352E+03  0.17300000000E+03 0. -1.
         -6    1    1    2    0  503 -0.37125188189E+03  0.72813885030E+01 -0.26592866958E+03  0.48839332073E+03  0.17300000000E+03 0.  1.
</event>
<event>
 4    1  0.5929306E+000  0.1000000E+03  0.7546771E-02  0.1280296E+00
         21   -1    0    0  501  502  0.00000000000E+00  0.00000000000E+00  0.50564022479E+03  0.50564022479E+03  0.00000000000E+00 0.  1.
         21   -1    0    0  502  503 -0.00000000000E+00 -0.00000000000E+00 -0.77820763958E+02  0.77820763958E+02  0.00000000000E+00 0.  1.
          6    1    1    2  501    0 -0.26171200710E+02  0.40089721429E+02  0.33807580211E+03  0.38277456222E+03  0.17300000000E+03 0.  1.
         -6    1    1    2    0  503  0.26171200710E+02 -0.40089721429E+02  0.89743658719E+02  0.20068642652E+03  0.17300000000E+03 0.  1.
</event>
<event>
 4    1  0.5929306E+000  0.1000000E+03  0.7546771E-02  0.1280296E+00
         21   -1    0    0  501  502  0.00000000000E+00  0.00000000000E+00  0.75881954324E+03  0.75881954324E+03  0.00000000000E+00 0.  1.
         21   -1    0    0  502  503 -0.00000000000E+00 -0.00000000000E+00 -0.76983939800E+02  0.76983939800E+02  0.00000000000E+00 0.  1.
          6    1    1    2  501    0 -0.11880725765E+03  0.69483479684E+02  0.17199500299E+03  0.28009712507E+03  0.17300000000E+03 0.  1.
         -6    1    1    2    0  503  0.11880725765E+03 -0.69483479684E+02  0.50984060046E+03  0.55570635797E+03  0.17300000000E+03 0.  1.
</event>
<event>
 4    1  0.5929306E+000  0.1000000E+03  0.7546771E-02  0.1280296E+00
         21   -1    0    0  503  502  0.00000000000E+00  0.00000000000E+00  0.27925648652E+03  0.27925648652E+03  0.00000000000E+00 0.  1.
         21   -1    0    0  501  503 -0.00000000000E+00 -0.00000000000E+00 -0.15688104688E+03  0.15688104688E+03  0.00000000000E+00 0. -1.
          6    1    1    2  501    0 -0.42521099952E+02  0.65357295349E+02 -0.30834710767E+02  0.19224827537E+03  0.17300000000E+03 0. -1.
         -6    1    1    2    0  502  0.42521099952E+02 -0.65357295349E+02  0.15321015041E+03  0.24388925803E+03  0.17300000000E+03 0. -1.
</event>
<event>
 4    1  0.5929306E+000  0.1000000E+03  0.7546771E-02  0.1280296E+00
         21   -1    0    0  503  502  0.00000000000E+00  0.00000000000E+00  0.65243694688E+02  0.65243694688E+02  0.00000000000E+00 0. -1.
         21   -1    0    0  501  503 -0.00000000000E+00 -0.00000000000E+00 -0.10226768163E+04  0.10226768163E+04  0.00000000000E+00 0. -1.
          6    1    1    2  501    0 -0.14905470914E+02 -0.11307587968E+03 -0.80349587473E+03  0.82978488075E+03  0.17300000000E+03 0. -1.
         -6    1    1    2    0  502  0.14905470914E+02  0.11307587968E+03 -0.15393724693E+03  0.25813563028E+03  0.17300000000E+03 0. -1.
</event>
<event>
 4    1  0.5929306E+000  0.1000000E+03  0.7546771E-02  0.1280296E+00
         21   -1    0    0  501  502  0.00000000000E+00  0.00000000000E+00  0.88013153444E+02  0.88013153444E+02  0.00000000000E+00 0. -1.
         21   -1    0    0  502  503 -0.00000000000E+00 -0.00000000000E+00 -0.43900764571E+03  0.43900764571E+03  0.00000000000E+00 0. -1.
          6    1    1    2  501    0 -0.55096117039E+02  0.41340794605E+01 -0.74671286952E+02  0.19636057094E+03  0.17300000000E+03 0. -1.
         -6    1    1    2    0  503  0.55096117039E+02 -0.41340794605E+01 -0.27632320532E+03  0.33066022821E+03  0.17300000000E+03 0. -1.
</event>
<event>
 4    1  0.5929306E+000  0.1000000E+03  0.7546771E-02  0.1280296E+00
         21   -1    0    0  503  502  0.00000000000E+00  0.00000000000E+00  0.17055958419E+04  0.17055958419E+04  0.00000000000E+00 0.  1.
         21   -1    0    0  501  503 -0.00000000000E+00 -0.00000000000E+00 -0.12269512683E+03  0.12269512683E+03  0.00000000000E+00 0.  1.
          6    1    1    2  501    0  0.31841125505E+03  0.27773041627E+03  0.73424877469E+03  0.86462140536E+03  0.17300000000E+03 0.  1.
         -6    1    1    2    0  502 -0.31841125505E+03 -0.27773041627E+03  0.84865194038E+03  0.96366956338E+03  0.17300000000E+03 0.  1.
</event>
<event>
 4    1  0.5929306E+000  0.1000000E+03  0.7546771E-02  0.1280296E+00
         21   -1    0    0  503  502  0.00000000000E+00  0.00000000000E+00  0.29312248397E+03  0.29312248397E+03  0.00000000000E+00 0.  1.
         21   -1    0    0  501  503 -0.00000000000E+00 -0.00000000000E+00 -0.30014459401E+03  0.30014459401E+03  0.00000000000E+00 0.  1.
          6    1    1    2  501    0  0.17850371759E+03 -0.51177974426E+01 -0.16526403167E+03  0.29854810200E+03  0.17300000000E+03 0.  1.
         -6    1    1    2    0  502 -0.17850371759E+03  0.51177974426E+01  0.15824192163E+03  0.29471897598E+03  0.17300000000E+03 0.  1.
</event>
<event>
 4    1  0.5929306E+000  0.1000000E+03  0.7546771E-02  0.1280296E+00
         21   -1    0    0  501  502  0.00000000000E+00  0.00000000000E+00  0.48979343436E+03  0.48979343436E+03  0.00000000000E+00 0.  1.
         21   -1    0    0  502  503 -0.00000000000E+00 -0.00000000000E+00 -0.13014092564E+03  0.13014092564E+03  0.00000000000E+00 0. -1.
          6    1    1    2  501    0 -0.17962817041E+02  0.29247843020E+02  0.40161758845E+03  0.43863856017E+03  0.17300000000E+03 0.  1.
         -6    1    1    2    0  503  0.17962817041E+02 -0.29247843020E+02 -0.41965079732E+02  0.18129579983E+03  0.17300000000E+03 0. -1.
</event>
<event>
 4    1  0.5929306E+000  0.1000000E+03  0.7546771E-02  0.1280296E+00
         21   -1    0    0  501  502  0.00000000000E+00  0.00000000000E+00  0.25163819098E+03  0.25163819098E+03  0.00000000000E+00 0.  1.
         21   -1    0    0  502  503 -0.00000000000E+00 -0.00000000000E+00 -0.19605246712E+03  0.19605246712E+03  0.00000000000E+00 0. -1.
          6    1    1    2  501    0 -0.95047960729E+02  0.17990275311E+02  0.12881187348E+03  0.23638795146E+03  0.17300000000E+03 0.  1.
         -6    1    1    2    0  503  0.95047960729E+02 -0.17990275311E+02 -0.73226149627E+02  0.21130270664E+03  0.17300000000E+03 0. -1.
</event>
<event>
 4    1  0.5929306E+000  0.1000000E+03  0.7546771E-02  0.1280296E+00
         21   -1    0    0  501  502  0.00000000000E+00  0.00000000000E+00  0.60887390279E+03  0.60887390279E+03  0.00000000000E+00 0. -1.
         21   -1    0    0  502  503 -0.00000000000E+00 -0.00000000000E+00 -0.10623192708E+03  0.10623192708E+03  0.00000000000E+00 0.  1.
          6    1    1    2  501    0 -0.16375822063E+03  0.52240968791E+02  0.35276860119E+03  0.42885960364E+03  0.17300000000E+03 0. -1.
         -6    1    1    2    0  503  0.16375822063E+03 -0.52240968791E+02  0.14987337451E+03  0.28624622623E+03  0.17300000000E+03 0.  1.
</event>
<event>
 4    1  0.5929306E+000  0.1000000E+03  0.7546771E-02  0.1280296E+00
         21   -1    0    0  501  502  0.00000000000E+00  0.00000000000E+00  0.64384636928E+03  0.64384636928E+03  0.00000000000E+00 0. -1.
         21   -1    0    0  502  503 -0.00000000000E+00 -0.00000000000E+00 -0.92429713266E+02  0.92429713266E+02  0.00000000000E+00 0.  1.
          6    1    1    2  501    0  0.12716786425E+03 -0.77174541108E+02  0.40599719043E+03  0.46571482060E+03  0.17300000000E+03 0. -1.
         -6    1    1    2    0  503 -0.12716786425E+03  0.77174541108E+02  0.14541946558E+03  0.27056126194E+03  0.17300000000E+03 0.  1.
</event>
<event>
 4    1  0.5929306E+000  0.1000000E+03  0.7546771E-02  0.1280296E+00
         21   -1    0    0  501  502  0.00000000000E+00  0.00000000000E+00  0.21070390140E+03  0.21070390140E+03  0.00000000000E+00 0.  1.
         21   -1    0    0  502  503 -0.00000000000E+00 -0.00000000000E+00 -0.21664185552E+03  0.21664185552E+03  0.00000000000E+00 0.  1.
          6    1    1    2  501    0 -0.93806910267E+02 -0.80270539636E+01  0.79828593766E+02  0.21252240915E+03  0.17300000000E+03 0.  1.
         -6    1    1    2    0  503  0.93806910267E+02  0.80270539636E+01 -0.85766547886E+02  0.21482334777E+03  0.17300000000E+03 0.  1.
</event>
<event>
 4    1  0.5929306E+000  0.1000000E+03  0.7546771E-02  0.1280296E+00
         21   -1    0    0  501  502  0.00000000000E+00  0.00000000000E+00  0.25068755507E+03  0.25068755507E+03  0.00000000000E+00 0.  1.
         21   -1    0    0  502  503 -0.00000000000E+00 -0.00000000000E+00 -0.13512118999E+04  0.13512118999E+04  0.00000000000E+00 0.  1.
          6    1    1    2  501    0  0.10855379453E+03 -0.11150825560E+03  0.18388500797E+03  0.29658171476E+03  0.17300000000E+03 0.  1.
         -6    1    1    2    0  503 -0.10855379453E+03  0.11150825560E+03 -0.12844093528E+04  0.13053177402E+04  0.17300000000E+03 0.  1.
</event>
<event>
 4    1  0.5929306E+000  0.1000000E+03  0.7546771E-02  0.1280296E+00
         21   -1    0    0  501  502  0.00000000000E+00  0.00000000000E+00  0.20316776574E+03  0.20316776574E+03  0.00000000000E+00 0. -1.
         21   -1    0    0  502  503 -0.00000000000E+00 -0.00000000000E+00 -0.28042700276E+03  0.28042700276E+03  0.00000000000E+00 0. -1.
          6    1    1    2  501    0  0.73793305782E+02 -0.11488343604E+03  0.54220321586E+02  0.22696365155E+03  0.17300000000E+03 0. -1.
         -6    1    1    2    0  503 -0.73793305782E+02  0.11488343604E+03 -0.13147955861E+03  0.25663111695E+03  0.17300000000E+03 0. -1.
</event>
<event>
 4    1  0.5929306E+000  0.1000000E+03  0.7546771E-02  0.1280296E+00
         21   -1    0    0  501  502  0.00000000000E+00  0.00000000000E+00  0.19481755755E+03  0.19481755755E+03  0.00000000000E+00 0.  1.
         21   -1    0    0  502  503 -0.00000000000E+00 -0.00000000000E+00 -0.29778272838E+03  0.29778272838E+03  0.00000000000E+00 0. -1.
          6    1    1    2  501    0  0.79757552920E+02 -0.52456588193E+02  0.89365160701E+02  0.21685961551E+03  0.17300000000E+03 0.  1.
         -6    1    1    2    0  503 -0.79757552920E+02  0.52456588193E+02 -0.19233033154E+03  0.27574067042E+03  0.17300000000E+03 0. -1.
</event>
<event>
 4    1  0.5929306E+000  0.1000000E+03  0.7546771E-02  0.1280296E+00
         21   -1    0    0  501  502  0.00000000000E+00  0.00000000000E+00  0.23112123272E+03  0.23112123272E+03  0.00000000000E+00 0.  1.
         21   -1    0    0  502  503 -0.00000000000E+00 -0.00000000000E+00 -0.22917992352E+03  0.22917992352E+03  0.00000000000E+00 0. -1.
          6    1    1    2  501    0 -0.70840244282E+02  0.41166017888E+02  0.12874645671E+03  0.23068946953E+03  0.17300000000E+03 0.  1.
         -6    1    1    2    0  503  0.70840244282E+02 -0.41166017888E+02 -0.12680514751E+03  0.22961168671E+03  0.17300000000E+03 0. -1.
</event>
<event>
 4    1  0.5929306E+000  0.1000000E+03  0.7546771E-02  0.1280296E+00
         21   -1    0    0  503  502  0.00000000000E+00  0.00000000000E+00  0.46128921501E+03  0.46128921501E+03  0.00000000000E+00 0. -1.
         21   -1    0    0  501  503 -0.00000000000E+00 -0.00000000000E+00 -0.67478175894E+02  0.67478175894E+02  0.00000000000E+00 0. -1.
          6    1    1    2  501    0  0.11712568229E+02 -0.22425940936E+02  0.16151196528E+03  0.23802357449E+03  0.17300000000E+03 0.  1.
         -6    1    1    2    0  502 -0.11712568229E+02  0.22425940936E+02  0.23229907383E+03  0.29074381642E+03  0.17300000000E+03 0.  1.
</event>
<event>
 4    1  0.5929306E+000  0.1000000E+03  0.7546771E-02  0.1280296E+00
         21   -1    0    0  503  502  0.00000000000E+00  0.00000000000E+00  0.85588868022E+02  0.85588868022E+02  0.00000000000E+00 0. -1.
         21   -1    0    0  501  503 -0.00000000000E+00 -0.00000000000E+00 -0.10994389177E+04  0.10994389177E+04  0.00000000000E+00 0. -1.
          6    1    1    2  501    0 -0.13821730053E+03 -0.21172890161E+03 -0.47715278184E+03  0.56704226223E+03  0.17300000000E+03 0.  1.
         -6    1    1    2    0  502  0.13821730053E+03  0.21172890161E+03 -0.53669726789E+03  0.61798552354E+03  0.17300000000E+03 0.  1.
</event>
<event>
 4    1  0.5929306E+000  0.1000000E+03  0.7546771E-02  0.1280296E+00
         21   -1    0    0  501  502  0.00000000000E+00  0.00000000000E+00  0.40930862170E+02  0.40930862170E+02  0.00000000000E+00 0. -1.
         21   -1    0    0  502  503 -0.00000000000E+00 -0.00000000000E+00 -0.11688986185E+04  0.11688986185E+04  0.00000000000E+00 0. -1.
          6    1    1    2  501    0  0.52747427470E+02 -0.21887564789E+01 -0.22383402480E+03  0.28778073671E+03  0.17300000000E+03 0. -1.
         -6    1    1    2    0  503 -0.52747427470E+02  0.21887564789E+01 -0.90413373152E+03  0.92204874396E+03  0.17300000000E+03 0. -1.
</event>
<event>
 4    1  0.5929306E+000  0.1000000E+03  0.7546771E-02  0.1280296E+00
         21   -1    0    0  503  502  0.00000000000E+00  0.00000000000E+00  0.13345951557E+04  0.13345951557E+04  0.00000000000E+00 0. -1.
         21   -1    0    0  501  503 -0.00000000000E+00 -0.00000000000E+00 -0.50538691294E+02  0.50538691294E+02  0.00000000000E+00 0. -1.
          6    1    1    2  501    0  0.17394054172E+03  0.83317768711E+02  0.59413656050E+03  0.64817005112E+03  0.17300000000E+03 0. -1.
         -6    1    1    2    0  502 -0.17394054172E+03 -0.83317768711E+02  0.68991990394E+03  0.73696379592E+03  0.17300000000E+03 0. -1.
</event>
<event>
 4    1  0.5929306E+000  0.1000000E+03  0.7546771E-02  0.1280296E+00
         21   -1    0    0  501  502  0.00000000000E+00  0.00000000000E+00  0.10084482529E+03  0.10084482529E+03  0.00000000000E+00 0. -1.
         21   -1    0    0  502  503 -0.00000000000E+00 -0.00000000000E+00 -0.54788607544E+03  0.54788607544E+03  0.00000000000E+00 0. -1.
          6    1    1    2  501    0 -0.36995907291E+02  0.13079454244E+02 -0.10710010939E+02  0.17771739817E+03  0.17300000000E+03 0. -1.
         -6    1    1    2    0  503  0.36995907291E+02 -0.13079454244E+02 -0.43633123921E+03  0.47101350256E+03  0.17300000000E+03 0. -1.
</event>
<event>
 4    1  0.5929306E+000  0.1000000E+03  0.7546771E-02  0.1280296E+00
         21   -1    0    0  501  502  0.00000000000E+00  0.00000000000E+00  0.58706840556E+03  0.58706840556E+03  0.00000000000E+00 0.  1.
         21   -1    0    0  502  503 -0.00000000000E+00 -0.00000000000E+00 -0.37827330876E+03  0.37827330876E+03  0.00000000000E+00 0. -1.
          6    1    1    2  501    0 -0.17635352250E+03 -0.14445953513E+03  0.48787328982E+03  0.56561335655E+03  0.17300000000E+03 0.  1.
         -6    1    1    2    0  503  0.17635352250E+03  0.14445953513E+03 -0.27907819302E+03  0.39972835777E+03  0.17300000000E+03 0. -1.
</event>
<event>
 4    1  0.5929306E+000  0.1000000E+03  0.7546771E-02  0.1280296E+00
         21   -1    0    0  501  502  0.00000000000E+00  0.00000000000E+00  0.16649708605E+03  0.16649708605E+03  0.00000000000E+00 0.  1.
         21   -1    0    0  502  503 -0.00000000000E+00 -0.00000000000E+00 -0.18642693195E+03  0.18642693195E+03  0.00000000000E+00 0. -1.
          6    1    1    2  501    0  0.18603937790E+02 -0.27629341102E+02 -0.89366666519E+01  0.17640394271E+03  0.17300000000E+03 0.  1.
         -6    1    1    2    0  503 -0.18603937790E+02  0.27629341102E+02 -0.10993179245E+02  0.17652007529E+03  0.17300000000E+03 0. -1.
</event>
<event>
 4    1  0.5929306E+000  0.1000000E+03  0.7546771E-02  0.1280296E+00
         21   -1    0    0  501  502  0.00000000000E+00  0.00000000000E+00  0.32546468400E+03  0.32546468400E+03  0.00000000000E+00 0.  1.
         21   -1    0    0  502  503 -0.00000000000E+00 -0.00000000000E+00 -0.17107501275E+03  0.17107501275E+03  0.00000000000E+00 0. -1.
          6    1    1    2  501    0 -0.14933706515E+03  0.40152933263E+02  0.32110887829E+02  0.23425184352E+03  0.17300000000E+03 0. -1.
         -6    1    1    2    0  503  0.14933706515E+03 -0.40152933263E+02  0.12227878342E+03  0.26228785323E+03  0.17300000000E+03 0.  1.
</event>
<event>
 4    1  0.5929306E+000  0.1000000E+03  0.7546771E-02  0.1280296E+00
         21   -1    0    0  501  502  0.00000000000E+00  0.00000000000E+00  0.60924331407E+02  0.60924331407E+02  0.00000000000E+00 0.  1.
         21   -1    0    0  502  503 -0.00000000000E+00 -0.00000000000E+00 -0.11237196144E+04  0.11237196144E+04  0.00000000000E+00 0.  1.
          6    1    1    2  501    0 -0.12944030795E+03 -0.14102574177E+03 -0.43298681101E+03  0.50403336365E+03  0.17300000000E+03 0.  1.
         -6    1    1    2    0  503  0.12944030795E+03  0.14102574177E+03 -0.62980847199E+03  0.68061058216E+03  0.17300000000E+03 0.  1.
</event>
<event>
 4    1  0.5929306E+000  0.1000000E+03  0.7546771E-02  0.1280296E+00
         21   -1    0    0  501  502  0.00000000000E+00  0.00000000000E+00  0.28751695140E+03  0.28751695140E+03  0.00000000000E+00 0.  1.
         21   -1    0    0  502  503 -0.00000000000E+00 -0.00000000000E+00 -0.14494971558E+03  0.14494971558E+03  0.00000000000E+00 0.  1.
          6    1    1    2  501    0  0.30463628418E+02 -0.51700627089E+02  0.16687999824E+03  0.24774769688E+03  0.17300000000E+03 0.  1.
         -6    1    1    2    0  503 -0.30463628418E+02  0.51700627089E+02 -0.24312762417E+02  0.18471897010E+03  0.17300000000E+03 0.  1.
</event>
<event>
 4    1  0.5929306E+000  0.1000000E+03  0.7546771E-02  0.1280296E+00
         21   -1    0    0  501  502  0.00000000000E+00  0.00000000000E+00  0.46991344096E+03  0.46991344096E+03  0.00000000000E+00 0. -1.
         21   -1    0    0  502  503 -0.00000000000E+00 -0.00000000000E+00 -0.14624067763E+03  0.14624067763E+03  0.00000000000E+00 0. -1.
          6    1    1    2  501    0 -0.91886893946E+02  0.49897028482E+02  0.35798964990E+03  0.41111860110E+03  0.17300000000E+03 0. -1.
         -6    1    1    2    0  503  0.91886893946E+02 -0.49897028482E+02 -0.34316886575E+02  0.20503551750E+03  0.17300000000E+03 0. -1.
</event>
<event>
 4    1  0.5929306E+000  0.1000000E+03  0.7546771E-02  0.1280296E+00
         21   -1    0    0  501  502  0.00000000000E+00  0.00000000000E+00  0.23955736120E+03  0.23955736120E+03  0.00000000000E+00 0. -1.
         21   -1    0    0  502  503 -0.00000000000E+00 -0.00000000000E+00 -0.13300483172E+03  0.13300483172E+03  0.00000000000E+00 0. -1.
          6    1    1    2  501    0  0.21411054034E+01 -0.41517233736E+02  0.68218996609E+02  0.19055470744E+03  0.17300000000E+03 0. -1.
         -6    1    1    2    0  503 -0.21411054034E+01  0.41517233736E+02  0.38333532869E+02  0.18200748548E+03  0.17300000000E+03 0. -1.
</event>
<event>
 4    1  0.5929306E+000  0.1000000E+03  0.7546771E-02  0.1280296E+00
         21   -1    0    0  503  502  0.00000000000E+00  0.00000000000E+00  0.19930891606E+03  0.19930891606E+03  0.00000000000E+00 0. -1.
         21   -1    0    0  501  503 -0.00000000000E+00 -0.00000000000E+00 -0.40839331261E+03  0.40839331261E+03  0.00000000000E+00 0. -1.
          6    1    1    2  501    0 -0.40847589074E+02 -0.62353151690E+01 -0.34211594582E+03  0.38559009981E+03  0.17300000000E+03 0. -1.
         -6    1    1    2    0  502  0.40847589074E+02  0.62353151690E+01  0.13303154926E+03  0.22211212886E+03  0.17300000000E+03 0. -1.
</event>
<event>
 4    1  0.5929306E+000  0.1000000E+03  0.7546771E-02  0.1280296E+00
         21   -1    0    0  503  502  0.00000000000E+00  0.00000000000E+00  0.14742588124E+03  0.14742588124E+03  0.00000000000E+00 0.  1.
         21   -1    0    0  501  503 -0.00000000000E+00 -0.00000000000E+00 -0.47822266901E+03  0.47822266901E+03  0.00000000000E+00 0.  1.
          6    1    1    2  501    0 -0.15520962584E+03  0.10775034288E+03 -0.24764294541E+03  0.35630912528E+03  0.17300000000E+03 0.  1.
         -6    1    1    2    0  502  0.15520962584E+03 -0.10775034288E+03 -0.83153842353E+02  0.26933942497E+03  0.17300000000E+03 0.  1.
</event>
<event>
 4    1  0.5929306E+000  0.1000000E+03  0.7546771E-02  0.1280296E+00
         21   -1    0    0  503  502  0.00000000000E+00  0.00000000000E+00  0.19127831505E+03  0.19127831505E+03  0.00000000000E+00 0.  1.
         21   -1    0    0  501  503 -0.00000000000E+00 -0.00000000000E+00 -0.25118780420E+03  0.25118780420E+03  0.00000000000E+00 0.  1.
          6    1    1    2  501    0 -0.11335052780E+03 -0.34258763866E+02 -0.94547813921E+02  0.22997889941E+03  0.17300000000E+03 0.  1.
         -6    1    1    2    0  502  0.11335052780E+03  0.34258763866E+02  0.34638324766E+02  0.21248721984E+03  0.17300000000E+03 0.  1.
</event>
<event>
 4    1  0.5929306E+000  0.1000000E+03  0.7546771E-02  0.1280296E+00
         21   -1    0    0  503  502  0.00000000000E+00  0.00000000000E+00  0.19208758325E+03  0.19208758325E+03  0.00000000000E+00 0.  1.
         21   -1    0    0  501  503 -0.00000000000E+00 -0.00000000000E+00 -0.17158138219E+03  0.17158138219E+03  0.00000000000E+00 0.  1.
          6    1    1    2  501    0 -0.22505177112E+01 -0.21290719772E+02 -0.40535627982E+02  0.17897065881E+03  0.17300000000E+03 0.  1.
         -6    1    1    2    0  502  0.22505177112E+01  0.21290719772E+02  0.61041829046E+02  0.18469830663E+03  0.17300000000E+03 0.  1.
</event>
<event>
 4    1  0.5929306E+000  0.1000000E+03  0.7546771E-02  0.1280296E+00
         21   -1    0    0  503  502  0.00000000000E+00  0.00000000000E+00  0.57735772320E+02  0.57735772320E+02  0.00000000000E+00 0.  1.
         21   -1    0    0  501  503 -0.00000000000E+00 -0.00000000000E+00 -0.75778323120E+03  0.75778323120E+03  0.00000000000E+00 0.  1.
          6    1    1    2  501    0  0.18782609577E+01 -0.86620112153E+02 -0.50494726145E+03  0.54074699124E+03  0.17300000000E+03 0.  1.
         -6    1    1    2    0  502 -0.18782609577E+01  0.86620112153E+02 -0.19510019743E+03  0.27477201228E+03  0.17300000000E+03 0.  1.
</event>
<event>
 4    1  0.5929306E+000  0.1000000E+03  0.7546771E-02  0.1280296E+00
         21   -1    0    0  503  502  0.00000000000E+00  0.00000000000E+00  0.39531386834E+03  0.39531386834E+03  0.00000000000E+00 0. -1.
         21   -1    0    0  501  503 -0.00000000000E+00 -0.00000000000E+00 -0.26878617886E+03  0.26878617886E+03  0.00000000000E+00 0.  1.
          6    1    1    2  501    0  0.16219754156E+03 -0.21699259368E+03  0.81048136369E+01  0.32154084687E+03  0.17300000000E+03 0.  1.
         -6    1    1    2    0  502 -0.16219754156E+03  0.21699259368E+03  0.11842287585E+03  0.34255920032E+03  0.17300000000E+03 0. -1.
</event>
<event>
 4    1  0.5929306E+000  0.1000000E+03  0.7546771E-02  0.1280296E+00
         21   -1    0    0  503  502  0.00000000000E+00  0.00000000000E+00  0.36458160767E+03  0.36458160767E+03  0.00000000000E+00 0. -1.
         21   -1    0    0  501  503 -0.00000000000E+00 -0.00000000000E+00 -0.12841242414E+03  0.12841242414E+03  0.00000000000E+00 0.  1.
          6    1    1    2  501    0  0.54603198534E+02  0.33769186540E+02 -0.10632784544E+02  0.18483485428E+03  0.17300000000E+03 0.  1.
         -6    1    1    2    0  502 -0.54603198534E+02 -0.33769186540E+02  0.24680196808E+03  0.30815917753E+03  0.17300000000E+03 0. -1.
</event>
<event>
 4    1  0.5929306E+000  0.1000000E+03  0.7546771E-02  0.1280296E+00
         21   -1    0    0  503  502  0.00000000000E+00  0.00000000000E+00  0.26574724828E+03  0.26574724828E+03  0.00000000000E+00 0. -1.
         21   -1    0    0  501  503 -0.00000000000E+00 -0.00000000000E+00 -0.30561906144E+03  0.30561906144E+03  0.00000000000E+00 0.  1.
          6    1    1    2  501    0 -0.74699635723E+02 -0.13317465631E+03 -0.18759564034E+03  0.29738300041E+03  0.17300000000E+03 0. -1.
         -6    1    1    2    0  502  0.74699635723E+02  0.13317465631E+03  0.14772382718E+03  0.27398330931E+03  0.17300000000E+03 0.  1.
</event>
<event>
 4    1  0.5929306E+000  0.1000000E+03  0.7546771E-02  0.1280296E+00
         21   -1    0    0  503  502  0.00000000000E+00  0.00000000000E+00  0.12493367426E+04  0.12493367426E+04  0.00000000000E+00 0. -1.
         21   -1    0    0  501  503 -0.00000000000E+00 -0.00000000000E+00 -0.40174858657E+02  0.40174858657E+02  0.00000000000E+00 0. -1.
          6    1    1    2  501    0 -0.12646384521E+03  0.62273031717E+02  0.66155298034E+03  0.69817790027E+03  0.17300000000E+03 0. -1.
         -6    1    1    2    0  502  0.12646384521E+03 -0.62273031717E+02  0.54760890363E+03  0.59133370102E+03  0.17300000000E+03 0. -1.
</event>
<event>
 4    1  0.5929306E+000  0.1000000E+03  0.7546771E-02  0.1280296E+00
         21   -1    0    0  503  502  0.00000000000E+00  0.00000000000E+00  0.55495469759E+02  0.55495469759E+02  0.00000000000E+00 0. -1.
         21   -1    0    0  501  503 -0.00000000000E+00 -0.00000000000E+00 -0.75403661728E+03  0.75403661728E+03  0.00000000000E+00 0. -1.
          6    1    1    2  501    0 -0.10631263102E+01  0.13150590557E+02 -0.56368808950E+03  0.58978583445E+03  0.17300000000E+03 0. -1.
         -6    1    1    2    0  502  0.10631263102E+01 -0.13150590557E+02 -0.13485305802E+03  0.21974625259E+03  0.17300000000E+03 0. -1.
</event>
<event>
 4    1  0.5929306E+000  0.1000000E+03  0.7546771E-02  0.1280296E+00
         21   -1    0    0  503  502  0.00000000000E+00  0.00000000000E+00  0.31788054190E+02  0.31788054190E+02  0.00000000000E+00 0. -1.
         21   -1    0    0  501  503 -0.00000000000E+00 -0.00000000000E+00 -0.10819202248E+04  0.10819202248E+04  0.00000000000E+00 0. -1.
          6    1    1    2  501    0 -0.13114349554E+02 -0.13603281614E+01 -0.72172116855E+03  0.74228315473E+03  0.17300000000E+03 0. -1.
         -6    1    1    2    0  502  0.13114349554E+02  0.13603281614E+01 -0.32841100201E+03  0.37142512422E+03  0.17300000000E+03 0. -1.
</event>
<event>
 4    1  0.5929306E+000  0.1000000E+03  0.7546771E-02  0.1280296E+00
         21   -1    0    0  503  502  0.00000000000E+00  0.00000000000E+00  0.15153287729E+03  0.15153287729E+03  0.00000000000E+00 0. -1.
         21   -1    0    0  501  503 -0.00000000000E+00 -0.00000000000E+00 -0.57809916966E+03  0.57809916966E+03  0.00000000000E+00 0. -1.
          6    1    1    2  501    0 -0.80719566548E+01  0.88385473414E+02 -0.48833314789E+03  0.52561907473E+03  0.17300000000E+03 0. -1.
         -6    1    1    2    0  502  0.80719566548E+01 -0.88385473414E+02  0.61766855519E+02  0.20401297222E+03  0.17300000000E+03 0. -1.
</event>
<event>
 4    1  0.5929306E+000  0.1000000E+03  0.7546771E-02  0.1280296E+00
         21   -1    0    0  501  502  0.00000000000E+00  0.00000000000E+00  0.51780052832E+03  0.51780052832E+03  0.00000000000E+00 0. -1.
         21   -1    0    0  502  503 -0.00000000000E+00 -0.00000000000E+00 -0.32503689064E+03  0.32503689064E+03  0.00000000000E+00 0. -1.
          6    1    1    2  501    0  0.62901788078E+02 -0.87730790647E+00  0.47299433058E+03  0.50755299366E+03  0.17300000000E+03 0. -1.
         -6    1    1    2    0  503 -0.62901788078E+02  0.87730790647E+00 -0.28023069290E+03  0.33528442531E+03  0.17300000000E+03 0. -1.
</event>
<event>
 4    1  0.5929306E+000  0.1000000E+03  0.7546771E-02  0.1280296E+00
         21   -1    0    0  501  502  0.00000000000E+00  0.00000000000E+00  0.54719147839E+03  0.54719147839E+03  0.00000000000E+00 0. -1.
         21   -1    0    0  502  503 -0.00000000000E+00 -0.00000000000E+00 -0.10536260392E+03  0.10536260392E+03  0.00000000000E+00 0. -1.
          6    1    1    2  501    0  0.93889645097E+02 -0.45926690871E+02  0.39704233457E+03  0.44552905835E+03  0.17300000000E+03 0. -1.
         -6    1    1    2    0  503 -0.93889645097E+02  0.45926690871E+02  0.44786539893E+02  0.20702502396E+03  0.17300000000E+03 0. -1.
</event>
