<event>
 4    1  0.6164307E+000  0.1000000E+03  0.7546771E-02  0.1280296E+00
         21   -1    0    0  501  502  0.00000000000E+00  0.00000000000E+00  0.63389148540E+02  0.63389148540E+02  0.00000000000E+00 0. -1.
         21   -1    0    0  502  503 -0.00000000000E+00 -0.00000000000E+00 -0.80284063449E+03  0.80284063449E+03  0.00000000000E+00 0.  1.
          6    1    1    2  501    0  0.15782577866E+02  0.14249794489E+03 -0.33096303175E+03  0.40002535226E+03  0.17300000000E+03 0. -1.
         -6    1    1    2    0  503 -0.15782577866E+02 -0.14249794489E+03 -0.40848845420E+03  0.46620443077E+03  0.17300000000E+03 0.  1.
</event>
<event>
 4    1  0.6164307E+000  0.1000000E+03  0.7546771E-02  0.1280296E+00
         21   -1    0    0  501  502  0.00000000000E+00  0.00000000000E+00  0.22447561919E+03  0.22447561919E+03  0.00000000000E+00 0. -1.
         21   -1    0    0  502  503 -0.00000000000E+00 -0.00000000000E+00 -0.19054725278E+03  0.19054725278E+03  0.00000000000E+00 0.  1.
          6    1    1    2  501    0 -0.19916408297E+02 -0.10650764217E+03  0.50297305336E+02  0.21023643853E+03  0.17300000000E+03 0. -1.
         -6    1    1    2    0  503  0.19916408297E+02  0.10650764217E+03 -0.16368938917E+02  0.20478643344E+03  0.17300000000E+03 0.  1.
</event>
<event>
 4    1  0.6164307E+000  0.1000000E+03  0.7546771E-02  0.1280296E+00
         21   -1    0    0  501  502  0.00000000000E+00  0.00000000000E+00  0.20778734443E+03  0.20778734443E+03  0.00000000000E+00 0. -1.
         21   -1    0    0  502  503 -0.00000000000E+00 -0.00000000000E+00 -0.28928898544E+03  0.28928898544E+03  0.00000000000E+00 0.  1.
          6    1    1    2  501    0  0.61560588641E+02  0.10067345450E+03  0.88500299690E+02  0.22734588969E+03  0.17300000000E+03 0.  1.
         -6    1    1    2    0  503 -0.61560588641E+02 -0.10067345450E+03 -0.17000194070E+03  0.26973044017E+03  0.17300000000E+03 0. -1.
</event>
<event>
 4    1  0.6164307E+000  0.1000000E+03  0.7546771E-02  0.1280296E+00
         21   -1    0    0  501  502  0.00000000000E+00  0.00000000000E+00  0.23333366841E+04  0.23333366841E+04  0.00000000000E+00 0. -1.
         21   -1    0    0  502  503 -0.00000000000E+00 -0.00000000000E+00 -0.17322319399E+02  0.17322319399E+02  0.00000000000E+00 0.  1.
          6    1    1    2  501    0 -0.70822691613E+02 -0.54155841354E+02  0.86330841407E+03  0.88497408245E+03  0.17300000000E+03 0.  1.
         -6    1    1    2    0  503  0.70822691613E+02  0.54155841354E+02  0.14527059507E+04  0.14656849211E+04  0.17300000000E+03 0. -1.
</event>
<event>
 4    1  0.6164307E+000  0.1000000E+03  0.7546771E-02  0.1280296E+00
         21   -1    0    0  501  502  0.00000000000E+00  0.00000000000E+00  0.19002676844E+03  0.19002676844E+03  0.00000000000E+00 0. -1.
         21   -1    0    0  502  503 -0.00000000000E+00 -0.00000000000E+00 -0.18913427532E+03  0.18913427532E+03  0.00000000000E+00 0.  1.
          6    1    1    2  501    0  0.76379466157E+02 -0.12531845197E+02  0.49965498850E+01  0.18959123267E+03  0.17300000000E+03 0.  1.
         -6    1    1    2    0  503 -0.76379466157E+02  0.12531845197E+02 -0.41040567715E+01  0.18956981109E+03  0.17300000000E+03 0. -1.
</event>
<event>
 4    1  0.6164307E+000  0.1000000E+03  0.7546771E-02  0.1280296E+00
         21   -1    0    0  503  502  0.00000000000E+00  0.00000000000E+00  0.35998002178E+02  0.35998002178E+02  0.00000000000E+00 0. -1.
         21   -1    0    0  501  503 -0.00000000000E+00 -0.00000000000E+00 -0.16575337402E+04  0.16575337402E+04  0.00000000000E+00 0.  1.
          6    1    1    2  501    0  0.13478765437E+03  0.87846338833E+02 -0.59555870193E+03  0.64070575029E+03  0.17300000000E+03 0. -1.
         -6    1    1    2    0  502 -0.13478765437E+03 -0.87846338833E+02 -0.10259770361E+04  0.10528259921E+04  0.17300000000E+03 0.  1.
</event>
<event>
 4    1  0.6164307E+000  0.1000000E+03  0.7546771E-02  0.1280296E+00
         21   -1    0    0  503  502  0.00000000000E+00  0.00000000000E+00  0.17140848812E+04  0.17140848812E+04  0.00000000000E+00 0. -1.
         21   -1    0    0  501  503 -0.00000000000E+00 -0.00000000000E+00 -0.26700791481E+02  0.26700791481E+02  0.00000000000E+00 0.  1.
          6    1    1    2  501    0  0.10060785566E+03  0.23508246705E+01  0.53623001847E+03  0.57236273438E+03  0.17300000000E+03 0. -1.
         -6    1    1    2    0  502 -0.10060785566E+03 -0.23508246705E+01  0.11511540713E+04  0.11684229383E+04  0.17300000000E+03 0.  1.
</event>
<event>
 4    1  0.6164307E+000  0.1000000E+03  0.7546771E-02  0.1280296E+00
         21   -1    0    0  503  502  0.00000000000E+00  0.00000000000E+00  0.62730909819E+02  0.62730909819E+02  0.00000000000E+00 0. -1.
         21   -1    0    0  501  503 -0.00000000000E+00 -0.00000000000E+00 -0.10010166239E+04  0.10010166239E+04  0.00000000000E+00 0.  1.
          6    1    1    2  501    0  0.17668956590E+03 -0.26384021472E+02 -0.40371055753E+03  0.47415876407E+03  0.17300000000E+03 0. -1.
         -6    1    1    2    0  502 -0.17668956590E+03  0.26384021472E+02 -0.53457515654E+03  0.58958876964E+03  0.17300000000E+03 0.  1.
</event>
<event>
 4    1  0.6164307E+000  0.1000000E+03  0.7546771E-02  0.1280296E+00
         21   -1    0    0  503  502  0.00000000000E+00  0.00000000000E+00  0.79652888656E+02  0.79652888656E+02  0.00000000000E+00 0.  1.
         21   -1    0    0  501  503 -0.00000000000E+00 -0.00000000000E+00 -0.93309699025E+03  0.93309699025E+03  0.00000000000E+00 0. -1.
          6    1    1    2  501    0  0.49390809179E+02 -0.94220095194E+02 -0.76453602873E+03  0.79105070482E+03  0.17300000000E+03 0. -1.
         -6    1    1    2    0  502 -0.49390809179E+02  0.94220095194E+02 -0.88908072863E+02  0.22169917408E+03  0.17300000000E+03 0.  1.
</event>
<event>
 4    1  0.6164307E+000  0.1000000E+03  0.7546771E-02  0.1280296E+00
         21   -1    0    0  501  502  0.00000000000E+00  0.00000000000E+00  0.55716246750E+02  0.55716246750E+02  0.00000000000E+00 0.  1.
         21   -1    0    0  502  503 -0.00000000000E+00 -0.00000000000E+00 -0.14247554107E+04  0.14247554107E+04  0.00000000000E+00 0. -1.
          6    1    1    2  501    0 -0.18186635165E+02  0.15395466552E+03 -0.26563076450E+03  0.35287603458E+03  0.17300000000E+03 0.  1.
         -6    1    1    2    0  503  0.18186635165E+02 -0.15395466552E+03 -0.11034083995E+04  0.11275956229E+04  0.17300000000E+03 0. -1.
</event>
<event>
 4    1  0.6164307E+000  0.1000000E+03  0.7546771E-02  0.1280296E+00
         21   -1    0    0  501  502  0.00000000000E+00  0.00000000000E+00  0.30951458644E+03  0.30951458644E+03  0.00000000000E+00 0. -1.
         21   -1    0    0  502  503 -0.00000000000E+00 -0.00000000000E+00 -0.17391253932E+03  0.17391253932E+03  0.00000000000E+00 0. -1.
          6    1    1    2  501    0  0.23885806484E+02  0.59908468785E+02  0.21417626008E+03  0.28277204028E+03  0.17300000000E+03 0. -1.
         -6    1    1    2    0  503 -0.23885806484E+02 -0.59908468785E+02 -0.78574212967E+02  0.20065508548E+03  0.17300000000E+03 0. -1.
</event>
<event>
 4    1  0.6164307E+000  0.1000000E+03  0.7546771E-02  0.1280296E+00
         21   -1    0    0  503  502  0.00000000000E+00  0.00000000000E+00  0.71323869172E+02  0.71323869172E+02  0.00000000000E+00 0.  1.
         21   -1    0    0  501  503 -0.00000000000E+00 -0.00000000000E+00 -0.58085562432E+03  0.58085562432E+03  0.00000000000E+00 0. -1.
          6    1    1    2  501    0  0.31123724618E+02 -0.14731121032E+02 -0.41747163317E+03  0.45320774118E+03  0.17300000000E+03 0. -1.
         -6    1    1    2    0  502 -0.31123724618E+02  0.14731121032E+02 -0.92060121978E+02  0.19897175232E+03  0.17300000000E+03 0.  1.
</event>
<event>
 4    1  0.6164307E+000  0.1000000E+03  0.7546771E-02  0.1280296E+00
         21   -1    0    0  501  502  0.00000000000E+00  0.00000000000E+00  0.58763764761E+03  0.58763764761E+03  0.00000000000E+00 0. -1.
         21   -1    0    0  502  503 -0.00000000000E+00 -0.00000000000E+00 -0.14830036976E+03  0.14830036976E+03  0.00000000000E+00 0. -1.
          6    1    1    2  501    0 -0.17478661306E+03  0.44788842396E+02  0.41541553644E+03  0.48482519368E+03  0.17300000000E+03 0. -1.
         -6    1    1    2    0  503  0.17478661306E+03 -0.44788842396E+02  0.23921741404E+02  0.25111282368E+03  0.17300000000E+03 0. -1.
</event>
<event>
 4    1  0.6164307E+000  0.1000000E+03  0.7546771E-02  0.1280296E+00
         21   -1    0    0  501  502  0.00000000000E+00  0.00000000000E+00  0.38557274387E+03  0.38557274387E+03  0.00000000000E+00 0. -1.
         21   -1    0    0  502  503 -0.00000000000E+00 -0.00000000000E+00 -0.29208239889E+03  0.29208239889E+03  0.00000000000E+00 0. -1.
          6    1    1    2  501    0  0.10047681559E+02  0.92116017930E+01  0.33675380248E+03  0.37883760769E+03  0.17300000000E+03 0. -1.
         -6    1    1    2    0  503 -0.10047681559E+02 -0.92116017930E+01 -0.24326345750E+03  0.29881753507E+03  0.17300000000E+03 0. -1.
</event>
<event>
 4    1  0.6164307E+000  0.1000000E+03  0.7546771E-02  0.1280296E+00
         21   -1    0    0  501  502  0.00000000000E+00  0.00000000000E+00  0.21024318878E+03  0.21024318878E+03  0.00000000000E+00 0. -1.
         21   -1    0    0  502  503 -0.00000000000E+00 -0.00000000000E+00 -0.36630174378E+03  0.36630174378E+03  0.00000000000E+00 0. -1.
          6    1    1    2  501    0  0.19093613387E+03 -0.10249220636E+03 -0.66546806535E+02  0.28516440353E+03  0.17300000000E+03 0. -1.
         -6    1    1    2    0  503 -0.19093613387E+03  0.10249220636E+03 -0.89511748460E+02  0.29138052903E+03  0.17300000000E+03 0. -1.
</event>
<event>
 4    1  0.6164307E+000  0.1000000E+03  0.7546771E-02  0.1280296E+00
         21   -1    0    0  501  502  0.00000000000E+00  0.00000000000E+00  0.12045778074E+04  0.12045778074E+04  0.00000000000E+00 0. -1.
         21   -1    0    0  502  503 -0.00000000000E+00 -0.00000000000E+00 -0.46496997872E+02  0.46496997872E+02  0.00000000000E+00 0. -1.
          6    1    1    2  501    0  0.35765722608E+02  0.46151695319E+02  0.97701885632E+03  0.99393360518E+03  0.17300000000E+03 0. -1.
         -6    1    1    2    0  503 -0.35765722608E+02 -0.46151695319E+02  0.18106195326E+03  0.25714120015E+03  0.17300000000E+03 0. -1.
</event>
<event>
 4    1  0.6164307E+000  0.1000000E+03  0.7546771E-02  0.1280296E+00
         21   -1    0    0  501  502  0.00000000000E+00  0.00000000000E+00  0.66271811004E+02  0.66271811004E+02  0.00000000000E+00 0.  1.
         21   -1    0    0  502  503 -0.00000000000E+00 -0.00000000000E+00 -0.15482353401E+04  0.15482353401E+04  0.00000000000E+00 0.  1.
          6    1    1    2  501    0 -0.18665747715E+03  0.19140472755E+03 -0.82823065659E+03  0.88733973427E+03  0.17300000000E+03 0.  1.
         -6    1    1    2    0  503  0.18665747715E+03 -0.19140472755E+03 -0.65373287248E+03  0.72716741681E+03  0.17300000000E+03 0.  1.
</event>
<event>
 4    1  0.6164307E+000  0.1000000E+03  0.7546771E-02  0.1280296E+00
         21   -1    0    0  501  502  0.00000000000E+00  0.00000000000E+00  0.30783658758E+03  0.30783658758E+03  0.00000000000E+00 0. -1.
         21   -1    0    0  502  503 -0.00000000000E+00 -0.00000000000E+00 -0.24863032520E+03  0.24863032520E+03  0.00000000000E+00 0. -1.
          6    1    1    2  501    0 -0.85513212192E+02 -0.15048657094E+03  0.15937381946E+03  0.29204063385E+03  0.17300000000E+03 0. -1.
         -6    1    1    2    0  503  0.85513212192E+02  0.15048657094E+03 -0.10016755708E+03  0.26442627892E+03  0.17300000000E+03 0. -1.
</event>
<event>
 4    1  0.6164307E+000  0.1000000E+03  0.7546771E-02  0.1280296E+00
         21   -1    0    0  501  502  0.00000000000E+00  0.00000000000E+00  0.39774643462E+03  0.39774643462E+03  0.00000000000E+00 0. -1.
         21   -1    0    0  502  503 -0.00000000000E+00 -0.00000000000E+00 -0.18605726352E+03  0.18605726352E+03  0.00000000000E+00 0. -1.
          6    1    1    2  501    0 -0.10385121512E+03  0.96348817934E+02  0.27209942553E+03  0.35218640941E+03  0.17300000000E+03 0. -1.
         -6    1    1    2    0  503  0.10385121512E+03 -0.96348817934E+02 -0.60410254431E+02  0.23161728873E+03  0.17300000000E+03 0. -1.
</event>
<event>
 4    1  0.6164307E+000  0.1000000E+03  0.7546771E-02  0.1280296E+00
         21   -1    0    0  503  502  0.00000000000E+00  0.00000000000E+00  0.92214748154E+02  0.92214748154E+02  0.00000000000E+00 0.  1.
         21   -1    0    0  501  503 -0.00000000000E+00 -0.00000000000E+00 -0.48815479235E+03  0.48815479235E+03  0.00000000000E+00 0.  1.
          6    1    1    2  501    0 -0.48748836846E+02  0.28208793222E+02 -0.34725715149E+03  0.39203152216E+03  0.17300000000E+03 0. -1.
         -6    1    1    2    0  502  0.48748836846E+02 -0.28208793222E+02 -0.48682892701E+02  0.18833801834E+03  0.17300000000E+03 0. -1.
</event>
<event>
 4    1  0.6164307E+000  0.1000000E+03  0.7546771E-02  0.1280296E+00
         21   -1    0    0  503  502  0.00000000000E+00  0.00000000000E+00  0.37779677978E+02  0.37779677978E+02  0.00000000000E+00 0.  1.
         21   -1    0    0  501  503 -0.00000000000E+00 -0.00000000000E+00 -0.11654044232E+04  0.11654044232E+04  0.00000000000E+00 0.  1.
          6    1    1    2  501    0 -0.27598506785E+02  0.95624029021E+02 -0.74948477643E+03  0.77560432091E+03  0.17300000000E+03 0. -1.
         -6    1    1    2    0  502  0.27598506785E+02 -0.95624029021E+02 -0.37813996879E+03  0.42757978028E+03  0.17300000000E+03 0. -1.
</event>
<event>
 4    1  0.6164307E+000  0.1000000E+03  0.7546771E-02  0.1280296E+00
         21   -1    0    0  503  502  0.00000000000E+00  0.00000000000E+00  0.11114815446E+03  0.11114815446E+03  0.00000000000E+00 0.  1.
         21   -1    0    0  501  503 -0.00000000000E+00 -0.00000000000E+00 -0.34333504268E+03  0.34333504268E+03  0.00000000000E+00 0.  1.
          6    1    1    2  501    0 -0.16617732156E+02 -0.49322861846E+01 -0.21969290444E+03  0.28016860768E+03  0.17300000000E+03 0.  1.
         -6    1    1    2    0  502  0.16617732156E+02  0.49322861846E+01 -0.12493983781E+02  0.17431458946E+03  0.17300000000E+03 0.  1.
</event>
<event>
 4    1  0.6164307E+000  0.1000000E+03  0.7546771E-02  0.1280296E+00
         21   -1    0    0  503  502  0.00000000000E+00  0.00000000000E+00  0.18239914671E+04  0.18239914671E+04  0.00000000000E+00 0.  1.
         21   -1    0    0  501  503 -0.00000000000E+00 -0.00000000000E+00 -0.28607942082E+02  0.28607942082E+02  0.00000000000E+00 0.  1.
          6    1    1    2  501    0 -0.71003619711E+02 -0.34424498613E+02  0.38436140617E+03  0.42882309950E+03  0.17300000000E+03 0.  1.
         -6    1    1    2    0  502  0.71003619711E+02  0.34424498613E+02  0.14110221189E+04  0.14237763097E+04  0.17300000000E+03 0.  1.
</event>
<event>
 4    1  0.6164307E+000  0.1000000E+03  0.7546771E-02  0.1280296E+00
         21   -1    0    0  503  502  0.00000000000E+00  0.00000000000E+00  0.13266328097E+03  0.13266328097E+03  0.00000000000E+00 0. -1.
         21   -1    0    0  501  503 -0.00000000000E+00 -0.00000000000E+00 -0.64974689452E+03  0.64974689452E+03  0.00000000000E+00 0.  1.
          6    1    1    2  501    0 -0.19740640991E+02 -0.10184729019E+03 -0.54278581020E+03  0.57905785478E+03  0.17300000000E+03 0.  1.
         -6    1    1    2    0  502  0.19740640991E+02  0.10184729019E+03  0.25702196651E+02  0.20335232071E+03  0.17300000000E+03 0. -1.
</event>
<event>
 4    1  0.6164307E+000  0.1000000E+03  0.7546771E-02  0.1280296E+00
         21   -1    0    0  503  502  0.00000000000E+00  0.00000000000E+00  0.29796343372E+03  0.29796343372E+03  0.00000000000E+00 0. -1.
         21   -1    0    0  501  503 -0.00000000000E+00 -0.00000000000E+00 -0.45310895374E+03  0.45310895374E+03  0.00000000000E+00 0.  1.
          6    1    1    2  501    0  0.87306379615E+02  0.39954769020E+02 -0.39401357167E+03  0.44090189629E+03  0.17300000000E+03 0.  1.
         -6    1    1    2    0  502 -0.87306379615E+02 -0.39954769020E+02  0.23886805165E+03  0.31017049116E+03  0.17300000000E+03 0. -1.
</event>
<event>
 4    1  0.6164307E+000  0.1000000E+03  0.7546771E-02  0.1280296E+00
         21   -1    0    0  503  502  0.00000000000E+00  0.00000000000E+00  0.69780969558E+03  0.69780969558E+03  0.00000000000E+00 0. -1.
         21   -1    0    0  501  503 -0.00000000000E+00 -0.00000000000E+00 -0.66900474668E+02  0.66900474668E+02  0.00000000000E+00 0.  1.
          6    1    1    2  501    0  0.12078136126E+02  0.47606122852E+02  0.10352221625E+03  0.20750439408E+03  0.17300000000E+03 0.  1.
         -6    1    1    2    0  502 -0.12078136126E+02 -0.47606122852E+02  0.52738700467E+03  0.55720577617E+03  0.17300000000E+03 0. -1.
</event>
<event>
 4    1  0.6164307E+000  0.1000000E+03  0.7546771E-02  0.1280296E+00
         21   -1    0    0  501  502  0.00000000000E+00  0.00000000000E+00  0.70782354316E+03  0.70782354316E+03  0.00000000000E+00 0.  1.
         21   -1    0    0  502  503 -0.00000000000E+00 -0.00000000000E+00 -0.87992071117E+02  0.87992071117E+02  0.00000000000E+00 0.  1.
          6    1    1    2  501    0  0.10757894830E+03 -0.12303450010E+03  0.42968865879E+03  0.49119452544E+03  0.17300000000E+03 0.  1.
         -6    1    1    2    0  503 -0.10757894830E+03  0.12303450010E+03  0.19014281326E+03  0.30462108884E+03  0.17300000000E+03 0.  1.
</event>
<event>
 4    1  0.6164307E+000  0.1000000E+03  0.7546771E-02  0.1280296E+00
         21   -1    0    0  501  502  0.00000000000E+00  0.00000000000E+00  0.31846053500E+03  0.31846053500E+03  0.00000000000E+00 0.  1.
         21   -1    0    0  502  503 -0.00000000000E+00 -0.00000000000E+00 -0.17194571993E+03  0.17194571993E+03  0.00000000000E+00 0.  1.
          6    1    1    2  501    0 -0.18858362128E+02 -0.37918771888E+01  0.23713555949E+03  0.29416371246E+03  0.17300000000E+03 0.  1.
         -6    1    1    2    0  503  0.18858362128E+02  0.37918771888E+01 -0.90620744418E+02  0.19624254247E+03  0.17300000000E+03 0.  1.
</event>
<event>
 4    1  0.6164307E+000  0.1000000E+03  0.7546771E-02  0.1280296E+00
         21   -1    0    0  501  502  0.00000000000E+00  0.00000000000E+00  0.13548531119E+03  0.13548531119E+03  0.00000000000E+00 0.  1.
         21   -1    0    0  502  503 -0.00000000000E+00 -0.00000000000E+00 -0.64512790553E+03  0.64512790553E+03  0.00000000000E+00 0.  1.
          6    1    1    2  501    0  0.17080533785E+03 -0.12894348379E+03 -0.11217054619E+03  0.29717354674E+03  0.17300000000E+03 0.  1.
         -6    1    1    2    0  503 -0.17080533785E+03  0.12894348379E+03 -0.39747204815E+03  0.48343966998E+03  0.17300000000E+03 0.  1.
</event>
<event>
 4    1  0.6164307E+000  0.1000000E+03  0.7546771E-02  0.1280296E+00
         21   -1    0    0  501  502  0.00000000000E+00  0.00000000000E+00  0.40330872208E+03  0.40330872208E+03  0.00000000000E+00 0.  1.
         21   -1    0    0  502  503 -0.00000000000E+00 -0.00000000000E+00 -0.15389533042E+03  0.15389533042E+03  0.00000000000E+00 0.  1.
          6    1    1    2  501    0 -0.29470463742E+02  0.10188604898E+03  0.28633303152E+03  0.35094854345E+03  0.17300000000E+03 0.  1.
         -6    1    1    2    0  503  0.29470463742E+02 -0.10188604898E+03 -0.36919639857E+02  0.20625550906E+03  0.17300000000E+03 0.  1.
</event>
<event>
 4    1  0.6164307E+000  0.1000000E+03  0.7546771E-02  0.1280296E+00
         21   -1    0    0  503  502  0.00000000000E+00  0.00000000000E+00  0.11845067202E+03  0.11845067202E+03  0.00000000000E+00 0.  1.
         21   -1    0    0  501  503 -0.00000000000E+00 -0.00000000000E+00 -0.40521558188E+03  0.40521558188E+03  0.00000000000E+00 0. -1.
          6    1    1    2  501    0  0.11346738877E+02 -0.15032542198E+02 -0.30244764599E+03  0.34893882612E+03  0.17300000000E+03 0. -1.
         -6    1    1    2    0  502 -0.11346738877E+02  0.15032542198E+02  0.15682736133E+02  0.17472742779E+03  0.17300000000E+03 0.  1.
</event>
<event>
 4    1  0.6164307E+000  0.1000000E+03  0.7546771E-02  0.1280296E+00
         21   -1    0    0  503  502  0.00000000000E+00  0.00000000000E+00  0.64755618568E+03  0.64755618568E+03  0.00000000000E+00 0.  1.
         21   -1    0    0  501  503 -0.00000000000E+00 -0.00000000000E+00 -0.78577201856E+02  0.78577201856E+02  0.00000000000E+00 0. -1.
          6    1    1    2  501    0 -0.30782890730E+02  0.13262440165E+02  0.57833009307E+02  0.18546464797E+03  0.17300000000E+03 0. -1.
         -6    1    1    2    0  502  0.30782890730E+02 -0.13262440165E+02  0.51114597451E+03  0.54066873956E+03  0.17300000000E+03 0.  1.
</event>
<event>
 4    1  0.6164307E+000  0.1000000E+03  0.7546771E-02  0.1280296E+00
         21   -1    0    0  503  502  0.00000000000E+00  0.00000000000E+00  0.97224546733E+02  0.97224546733E+02  0.00000000000E+00 0.  1.
         21   -1    0    0  501  503 -0.00000000000E+00 -0.00000000000E+00 -0.43966343096E+03  0.43966343096E+03  0.00000000000E+00 0. -1.
          6    1    1    2  501    0 -0.13556452022E+01 -0.59245610166E+02 -0.29646673557E+03  0.34832944951E+03  0.17300000000E+03 0. -1.
         -6    1    1    2    0  502  0.13556452022E+01  0.59245610166E+02 -0.45972148658E+02  0.18855852818E+03  0.17300000000E+03 0.  1.
</event>
<event>
 4    1  0.6164307E+000  0.1000000E+03  0.7546771E-02  0.1280296E+00
         21   -1    0    0  501  502  0.00000000000E+00  0.00000000000E+00  0.11472384346E+04  0.11472384346E+04  0.00000000000E+00 0.  1.
         21   -1    0    0  502  503 -0.00000000000E+00 -0.00000000000E+00 -0.39019521215E+02  0.39019521215E+02  0.00000000000E+00 0. -1.
          6    1    1    2  501    0  0.75712290100E+02  0.45130946215E+01  0.82128420118E+03  0.84272739246E+03  0.17300000000E+03 0.  1.
         -6    1    1    2    0  503 -0.75712290100E+02 -0.45130946215E+01  0.28693471224E+03  0.34353056339E+03  0.17300000000E+03 0.  1.
</event>
<event>
 4    1  0.6164307E+000  0.1000000E+03  0.7546771E-02  0.1280296E+00
         21   -1    0    0  501  502  0.00000000000E+00  0.00000000000E+00  0.59221223793E+03  0.59221223793E+03  0.00000000000E+00 0.  1.
         21   -1    0    0  502  503 -0.00000000000E+00 -0.00000000000E+00 -0.92931366683E+02  0.92931366683E+02  0.00000000000E+00 0. -1.
          6    1    1    2  501    0 -0.52840188311E+02 -0.92386169631E+02  0.42105096805E+03  0.46748284197E+03  0.17300000000E+03 0.  1.
         -6    1    1    2    0  503  0.52840188311E+02  0.92386169631E+02  0.78229903195E+02  0.21766076264E+03  0.17300000000E+03 0.  1.
</event>
<event>
 4    1  0.6164307E+000  0.1000000E+03  0.7546771E-02  0.1280296E+00
         21   -1    0    0  501  502  0.00000000000E+00  0.00000000000E+00  0.83218155720E+02  0.83218155720E+02  0.00000000000E+00 0.  1.
         21   -1    0    0  502  503 -0.00000000000E+00 -0.00000000000E+00 -0.61388668578E+03  0.61388668578E+03  0.00000000000E+00 0.  1.
          6    1    1    2  501    0  0.85368579453E+02  0.81831820120E+01 -0.84159417230E+02  0.21063372554E+03  0.17300000000E+03 0.  1.
         -6    1    1    2    0  503 -0.85368579453E+02 -0.81831820120E+01 -0.44650911283E+03  0.48647111597E+03  0.17300000000E+03 0.  1.
</event>
<event>
 4    1  0.6164307E+000  0.1000000E+03  0.7546771E-02  0.1280296E+00
         21   -1    0    0  501  502  0.00000000000E+00  0.00000000000E+00  0.39013738363E+03  0.39013738363E+03  0.00000000000E+00 0.  1.
         21   -1    0    0  502  503 -0.00000000000E+00 -0.00000000000E+00 -0.87522991372E+02  0.87522991372E+02  0.00000000000E+00 0.  1.
          6    1    1    2  501    0  0.63732784555E+02 -0.96676712849E+01  0.16145607764E+03  0.24525985547E+03  0.17300000000E+03 0.  1.
         -6    1    1    2    0  503 -0.63732784555E+02  0.96676712849E+01  0.14115831461E+03  0.23240051953E+03  0.17300000000E+03 0.  1.
</event>
<event>
 4    1  0.6164307E+000  0.1000000E+03  0.7546771E-02  0.1280296E+00
         21   -1    0    0  503  502  0.00000000000E+00  0.00000000000E+00  0.37059490206E+03  0.37059490206E+03  0.00000000000E+00 0.  1.
         21   -1    0    0  501  503 -0.00000000000E+00 -0.00000000000E+00 -0.11843437113E+03  0.11843437113E+03  0.00000000000E+00 0. -1.
          6    1    1    2  501    0 -0.46858837645E+02  0.88722589876E+02  0.19891770846E+03  0.28207215984E+03  0.17300000000E+03 0.  1.
         -6    1    1    2    0  502  0.46858837645E+02 -0.88722589876E+02  0.53242822468E+02  0.20695711335E+03  0.17300000000E+03 0.  1.
</event>
<event>
 4    1  0.6164307E+000  0.1000000E+03  0.7546771E-02  0.1280296E+00
         21   -1    0    0  503  502  0.00000000000E+00  0.00000000000E+00  0.56939821147E+02  0.56939821147E+02  0.00000000000E+00 0. -1.
         21   -1    0    0  501  503 -0.00000000000E+00 -0.00000000000E+00 -0.79910247937E+03  0.79910247937E+03  0.00000000000E+00 0. -1.
          6    1    1    2  501    0 -0.75037820222E+02  0.15604056103E+02 -0.56868175586E+03  0.59933471490E+03  0.17300000000E+03 0. -1.
         -6    1    1    2    0  502  0.75037820222E+02 -0.15604056103E+02 -0.17348090236E+03  0.25670758562E+03  0.17300000000E+03 0. -1.
</event>
<event>
 4    1  0.6164307E+000  0.1000000E+03  0.7546771E-02  0.1280296E+00
         21   -1    0    0  503  502  0.00000000000E+00  0.00000000000E+00  0.30058638704E+03  0.30058638704E+03  0.00000000000E+00 0. -1.
         21   -1    0    0  501  503 -0.00000000000E+00 -0.00000000000E+00 -0.12648888156E+03  0.12648888156E+03  0.00000000000E+00 0. -1.
          6    1    1    2  501    0 -0.29294880777E+02  0.45457709963E+01  0.18005690485E+03  0.25145246679E+03  0.17300000000E+03 0. -1.
         -6    1    1    2    0  502  0.29294880777E+02 -0.45457709963E+01 -0.59593993706E+01  0.17562280181E+03  0.17300000000E+03 0. -1.
</event>
<event>
 4    1  0.6164307E+000  0.1000000E+03  0.7546771E-02  0.1280296E+00
         21   -1    0    0  503  502  0.00000000000E+00  0.00000000000E+00  0.81830753220E+03  0.81830753220E+03  0.00000000000E+00 0. -1.
         21   -1    0    0  501  503 -0.00000000000E+00 -0.00000000000E+00 -0.93678978133E+02  0.93678978133E+02  0.00000000000E+00 0. -1.
          6    1    1    2  501    0  0.21051064244E+03  0.32215660586E+02  0.30120764812E+03  0.40744033508E+03  0.17300000000E+03 0. -1.
         -6    1    1    2    0  502 -0.21051064244E+03 -0.32215660586E+02  0.42342090595E+03  0.50454617525E+03  0.17300000000E+03 0. -1.
</event>
<event>
 4    1  0.6164307E+000  0.1000000E+03  0.7546771E-02  0.1280296E+00
         21   -1    0    0  501  502  0.00000000000E+00  0.00000000000E+00  0.14325557770E+04  0.14325557770E+04  0.00000000000E+00 0. -1.
         21   -1    0    0  502  503 -0.00000000000E+00 -0.00000000000E+00 -0.28561485422E+02  0.28561485422E+02  0.00000000000E+00 0. -1.
          6    1    1    2  501    0  0.37075443844E+02  0.27998295485E+02  0.10413492894E+04  0.10566436654E+04  0.17300000000E+03 0. -1.
         -6    1    1    2    0  503 -0.37075443844E+02 -0.27998295485E+02  0.36264500218E+03  0.40447359702E+03  0.17300000000E+03 0. -1.
</event>
<event>
 4    1  0.6164307E+000  0.1000000E+03  0.7546771E-02  0.1280296E+00
         21   -1    0    0  501  502  0.00000000000E+00  0.00000000000E+00  0.46132074099E+03  0.46132074099E+03  0.00000000000E+00 0. -1.
         21   -1    0    0  502  503 -0.00000000000E+00 -0.00000000000E+00 -0.10312553748E+03  0.10312553748E+03  0.00000000000E+00 0. -1.
          6    1    1    2  501    0  0.39696725765E+02 -0.68470902858E+02  0.31713458405E+03  0.36982082009E+03  0.17300000000E+03 0. -1.
         -6    1    1    2    0  503 -0.39696725765E+02  0.68470902858E+02  0.41060619461E+02  0.19462545837E+03  0.17300000000E+03 0. -1.
</event>
<event>
 4    1  0.6164307E+000  0.1000000E+03  0.7546771E-02  0.1280296E+00
         21   -1    0    0  501  502  0.00000000000E+00  0.00000000000E+00  0.13844669146E+03  0.13844669146E+03  0.00000000000E+00 0. -1.
         21   -1    0    0  502  503 -0.00000000000E+00 -0.00000000000E+00 -0.66597011683E+03  0.66597011683E+03  0.00000000000E+00 0.  1.
          6    1    1    2  501    0  0.24269012151E+03  0.33279793221E+02 -0.20070329721E+03  0.36085572356E+03  0.17300000000E+03 0.  1.
         -6    1    1    2    0  503 -0.24269012151E+03 -0.33279793221E+02 -0.32682012815E+03  0.44356108473E+03  0.17300000000E+03 0. -1.
</event>
<event>
 4    1  0.6164307E+000  0.1000000E+03  0.7546771E-02  0.1280296E+00
         21   -1    0    0  501  502  0.00000000000E+00  0.00000000000E+00  0.22454012317E+03  0.22454012317E+03  0.00000000000E+00 0. -1.
         21   -1    0    0  502  503 -0.00000000000E+00 -0.00000000000E+00 -0.19818698998E+03  0.19818698998E+03  0.00000000000E+00 0.  1.
          6    1    1    2  501    0  0.40287056723E+02  0.91780123162E+02 -0.54224833847E+02  0.20716170146E+03  0.17300000000E+03 0.  1.
         -6    1    1    2    0  503 -0.40287056723E+02 -0.91780123162E+02  0.80577967034E+02  0.21556541169E+03  0.17300000000E+03 0. -1.
</event>
<event>
 4    1  0.6164307E+000  0.1000000E+03  0.7546771E-02  0.1280296E+00
         21   -1    0    0  501  502  0.00000000000E+00  0.00000000000E+00  0.23111090224E+03  0.23111090224E+03  0.00000000000E+00 0.  1.
         21   -1    0    0  502  503 -0.00000000000E+00 -0.00000000000E+00 -0.25142580073E+03  0.25142580073E+03  0.00000000000E+00 0.  1.
          6    1    1    2  501    0 -0.14293445320E+03  0.65060341976E+02  0.49183759308E+02  0.23877007390E+03  0.17300000000E+03 0.  1.
         -6    1    1    2    0  503  0.14293445320E+03 -0.65060341976E+02 -0.69498657801E+02  0.24376662907E+03  0.17300000000E+03 0.  1.
</event>
<event>
 4    1  0.6164307E+000  0.1000000E+03  0.7546771E-02  0.1280296E+00
         21   -1    0    0  503  502  0.00000000000E+00  0.00000000000E+00  0.50105766218E+02  0.50105766218E+02  0.00000000000E+00 0. -1.
         21   -1    0    0  501  503 -0.00000000000E+00 -0.00000000000E+00 -0.17213965331E+04  0.17213965331E+04  0.00000000000E+00 0. -1.
          6    1    1    2  501    0  0.68904539108E+02  0.22239987346E+03 -0.69699743927E+03  0.75494633556E+03  0.17300000000E+03 0. -1.
         -6    1    1    2    0  502 -0.68904539108E+02 -0.22239987346E+03 -0.97429332761E+03  0.10165559638E+04  0.17300000000E+03 0. -1.
</event>
<event>
 4    1  0.6164307E+000  0.1000000E+03  0.7546771E-02  0.1280296E+00
         21   -1    0    0  501  502  0.00000000000E+00  0.00000000000E+00  0.11209142610E+03  0.11209142610E+03  0.00000000000E+00 0. -1.
         21   -1    0    0  502  503 -0.00000000000E+00 -0.00000000000E+00 -0.32813122250E+03  0.32813122250E+03  0.00000000000E+00 0. -1.
          6    1    1    2  501    0 -0.47513576586E+02 -0.13773183617E+02 -0.31850845311E+02  0.18273126961E+03  0.17300000000E+03 0. -1.
         -6    1    1    2    0  503  0.47513576586E+02  0.13773183617E+02 -0.18418895109E+03  0.25749137898E+03  0.17300000000E+03 0. -1.
</event>
<event>
 4    1  0.6164307E+000  0.1000000E+03  0.7546771E-02  0.1280296E+00
         21   -1    0    0  501  502  0.00000000000E+00  0.00000000000E+00  0.79317319657E+02  0.79317319657E+02  0.00000000000E+00 0. -1.
         21   -1    0    0  502  503 -0.00000000000E+00 -0.00000000000E+00 -0.82465292989E+03  0.82465292989E+03  0.00000000000E+00 0. -1.
          6    1    1    2  501    0  0.13826361692E+03 -0.16182969310E+02 -0.14841479426E+03  0.26708550582E+03  0.17300000000E+03 0. -1.
         -6    1    1    2    0  503 -0.13826361692E+03  0.16182969310E+02 -0.59692081597E+03  0.63688474373E+03  0.17300000000E+03 0. -1.
</event>
<event>
 4    1  0.6164307E+000  0.1000000E+03  0.7546771E-02  0.1280296E+00
         21   -1    0    0  501  502  0.00000000000E+00  0.00000000000E+00  0.37906288622E+03  0.37906288622E+03  0.00000000000E+00 0.  1.
         21   -1    0    0  502  503 -0.00000000000E+00 -0.00000000000E+00 -0.20758727163E+03  0.20758727163E+03  0.00000000000E+00 0.  1.
          6    1    1    2  501    0 -0.10308533223E+03 -0.17667118338E+03  0.17272530600E+03  0.31875119465E+03  0.17300000000E+03 0.  1.
         -6    1    1    2    0  503  0.10308533223E+03  0.17667118338E+03 -0.12496914158E+01  0.26789896320E+03  0.17300000000E+03 0.  1.
</event>
<event>
 4    1  0.6164307E+000  0.1000000E+03  0.7546771E-02  0.1280296E+00
         21   -1    0    0  501  502  0.00000000000E+00  0.00000000000E+00  0.17690332030E+02  0.17690332030E+02  0.00000000000E+00 0. -1.
         21   -1    0    0  502  503 -0.00000000000E+00 -0.00000000000E+00 -0.30553035913E+04  0.30553035913E+04  0.00000000000E+00 0.  1.
          6    1    1    2  501    0  0.13246981614E+03 -0.34179935817E+02 -0.20046393446E+04  0.20167360814E+04  0.17300000000E+03 0. -1.
         -6    1    1    2    0  503 -0.13246981614E+03  0.34179935817E+02 -0.10329739147E+04  0.10562578419E+04  0.17300000000E+03 0.  1.
</event>
<event>
 4    1  0.6164307E+000  0.1000000E+03  0.7546771E-02  0.1280296E+00
         21   -1    0    0  501  502  0.00000000000E+00  0.00000000000E+00  0.41105885347E+03  0.41105885347E+03  0.00000000000E+00 0. -1.
         21   -1    0    0  502  503 -0.00000000000E+00 -0.00000000000E+00 -0.63056891973E+03  0.63056891973E+03  0.00000000000E+00 0.  1.
          6    1    1    2  501    0  0.53626172309E+02  0.38674052431E+02  0.37537646287E+03  0.41857847241E+03  0.17300000000E+03 0. -1.
         -6    1    1    2    0  503 -0.53626172309E+02 -0.38674052431E+02 -0.59488652912E+03  0.62304930079E+03  0.17300000000E+03 0.  1.
</event>
<event>
 4    1  0.6164307E+000  0.1000000E+03  0.7546771E-02  0.1280296E+00
         21   -1    0    0  503  502  0.00000000000E+00  0.00000000000E+00  0.19251080789E+03  0.19251080789E+03  0.00000000000E+00 0.  1.
         21   -1    0    0  501  503 -0.00000000000E+00 -0.00000000000E+00 -0.11685396322E+04  0.11685396322E+04  0.00000000000E+00 0.  1.
          6    1    1    2  501    0  0.99453721501E+02 -0.43026370732E+03 -0.49246188596E+03  0.68371456741E+03  0.17300000000E+03 0.  1.
         -6    1    1    2    0  502 -0.99453721501E+02  0.43026370732E+03 -0.48356693833E+03  0.67733587267E+03  0.17300000000E+03 0.  1.
</event>
<event>
 4    1  0.6164307E+000  0.1000000E+03  0.7546771E-02  0.1280296E+00
         21   -1    0    0  503  502  0.00000000000E+00  0.00000000000E+00  0.13994371579E+04  0.13994371579E+04  0.00000000000E+00 0.  1.
         21   -1    0    0  501  503 -0.00000000000E+00 -0.00000000000E+00 -0.40454617822E+02  0.40454617822E+02  0.00000000000E+00 0.  1.
          6    1    1    2  501    0 -0.11562193978E+03  0.79289784198E+02  0.42580439311E+03  0.48051397901E+03  0.17300000000E+03 0.  1.
         -6    1    1    2    0  502  0.11562193978E+03 -0.79289784198E+02  0.93317814698E+03  0.95937779672E+03  0.17300000000E+03 0.  1.
</event>
<event>
 4    1  0.6164307E+000  0.1000000E+03  0.7546771E-02  0.1280296E+00
         21   -1    0    0  503  502  0.00000000000E+00  0.00000000000E+00  0.13806951358E+04  0.13806951358E+04  0.00000000000E+00 0. -1.
         21   -1    0    0  501  503 -0.00000000000E+00 -0.00000000000E+00 -0.37242558739E+03  0.37242558739E+03  0.00000000000E+00 0. -1.
          6    1    1    2  501    0  0.38461077544E+02  0.84522055391E+02 -0.33892571305E+03  0.39169231713E+03  0.17300000000E+03 0. -1.
         -6    1    1    2    0  502 -0.38461077544E+02 -0.84522055391E+02  0.13471952615E+04  0.13614284061E+04  0.17300000000E+03 0. -1.
</event>
<event>
 4    1  0.6164307E+000  0.1000000E+03  0.7546771E-02  0.1280296E+00
         21   -1    0    0  503  502  0.00000000000E+00  0.00000000000E+00  0.12436021897E+04  0.12436021897E+04  0.00000000000E+00 0.  1.
         21   -1    0    0  501  503 -0.00000000000E+00 -0.00000000000E+00 -0.65172769560E+02  0.65172769560E+02  0.00000000000E+00 0.  1.
          6    1    1    2  501    0  0.52701450476E+02 -0.13468498200E+03  0.18974607625E+03  0.29470334357E+03  0.17300000000E+03 0.  1.
         -6    1    1    2    0  502 -0.52701450476E+02  0.13468498200E+03  0.98868334393E+03  0.10140716157E+04  0.17300000000E+03 0.  1.
</event>
<event>
 4    1  0.6164307E+000  0.1000000E+03  0.7546771E-02  0.1280296E+00
         21   -1    0    0  503  502  0.00000000000E+00  0.00000000000E+00  0.36076990258E+03  0.36076990258E+03  0.00000000000E+00 0.  1.
         21   -1    0    0  501  503 -0.00000000000E+00 -0.00000000000E+00 -0.15851424720E+03  0.15851424720E+03  0.00000000000E+00 0.  1.
          6    1    1    2  501    0 -0.16471811758E+02  0.77539858762E+01 -0.77035179630E+02  0.19024947774E+03  0.17300000000E+03 0.  1.
         -6    1    1    2    0  502  0.16471811758E+02 -0.77539858762E+01  0.27929083501E+03  0.32903467203E+03  0.17300000000E+03 0.  1.
</event>
<event>
 4    1  0.6164307E+000  0.1000000E+03  0.7546771E-02  0.1280296E+00
         21   -1    0    0  503  502  0.00000000000E+00  0.00000000000E+00  0.13901220606E+03  0.13901220606E+03  0.00000000000E+00 0. -1.
         21   -1    0    0  501  503 -0.00000000000E+00 -0.00000000000E+00 -0.48472756007E+03  0.48472756007E+03  0.00000000000E+00 0.  1.
          6    1    1    2  501    0 -0.13420282602E+03 -0.13931678775E+03 -0.16580276089E+03  0.30795960998E+03  0.17300000000E+03 0. -1.
         -6    1    1    2    0  502  0.13420282602E+03  0.13931678775E+03 -0.17991259311E+03  0.31578015615E+03  0.17300000000E+03 0.  1.
</event>
<event>
 4    1  0.6164307E+000  0.1000000E+03  0.7546771E-02  0.1280296E+00
         21   -1    0    0  501  502  0.00000000000E+00  0.00000000000E+00  0.18093672547E+03  0.18093672547E+03  0.00000000000E+00 0. -1.
         21   -1    0    0  502  503 -0.00000000000E+00 -0.00000000000E+00 -0.18395802868E+03  0.18395802868E+03  0.00000000000E+00 0. -1.
          6    1    1    2  501    0  0.20394114259E+02  0.19607426284E+02  0.49041969249E+02  0.18202880489E+03  0.17300000000E+03 0. -1.
         -6    1    1    2    0  503 -0.20394114259E+02 -0.19607426284E+02 -0.52063272455E+02  0.18286594927E+03  0.17300000000E+03 0. -1.
</event>
<event>
 4    1  0.6164307E+000  0.1000000E+03  0.7546771E-02  0.1280296E+00
         21   -1    0    0  501  502  0.00000000000E+00  0.00000000000E+00  0.23605844219E+04  0.23605844219E+04  0.00000000000E+00 0. -1.
         21   -1    0    0  502  503 -0.00000000000E+00 -0.00000000000E+00 -0.13457540191E+02  0.13457540191E+02  0.00000000000E+00 0. -1.
          6    1    1    2  501    0  0.41589761920E+02 -0.88387963574E+01  0.12105404868E+04  0.12235788094E+04  0.17300000000E+03 0. -1.
         -6    1    1    2    0  503 -0.41589761920E+02  0.88387963574E+01  0.11365863948E+04  0.11504631526E+04  0.17300000000E+03 0. -1.
</event>
<event>
 4    1  0.6164307E+000  0.1000000E+03  0.7546771E-02  0.1280296E+00
         21   -1    0    0  503  502  0.00000000000E+00  0.00000000000E+00  0.19027002371E+02  0.19027002371E+02  0.00000000000E+00 0. -1.
         21   -1    0    0  501  503 -0.00000000000E+00 -0.00000000000E+00 -0.34060021569E+04  0.34060021569E+04  0.00000000000E+00 0. -1.
          6    1    1    2  501    0  0.34330177285E+02 -0.16633974728E+03 -0.22158460809E+04  0.22290693859E+04  0.17300000000E+03 0. -1.
         -6    1    1    2    0  502 -0.34330177285E+02  0.16633974728E+03 -0.11711290736E+04  0.11959597734E+04  0.17300000000E+03 0. -1.
</event>
<event>
 4    1  0.6164307E+000  0.1000000E+03  0.7546771E-02  0.1280296E+00
         21   -1    0    0  503  502  0.00000000000E+00  0.00000000000E+00  0.37960791138E+03  0.37960791138E+03  0.00000000000E+00 0.  1.
         21   -1    0    0  501  503 -0.00000000000E+00 -0.00000000000E+00 -0.35237283036E+03  0.35237283036E+03  0.00000000000E+00 0.  1.
          6    1    1    2  501    0  0.47183379708E+02  0.42218376645E+02 -0.30255368031E+03  0.35422647010E+03  0.17300000000E+03 0.  1.
         -6    1    1    2    0  502 -0.47183379708E+02 -0.42218376645E+02  0.32978876133E+03  0.37775427165E+03  0.17300000000E+03 0.  1.
</event>
<event>
 4    1  0.6164307E+000  0.1000000E+03  0.7546771E-02  0.1280296E+00
         21   -1    0    0  501  502  0.00000000000E+00  0.00000000000E+00  0.70164882589E+03  0.70164882589E+03  0.00000000000E+00 0.  1.
         21   -1    0    0  502  503 -0.00000000000E+00 -0.00000000000E+00 -0.71315077567E+02  0.71315077567E+02  0.00000000000E+00 0.  1.
          6    1    1    2  501    0  0.53775969477E+02 -0.89830374953E+02  0.48041506480E+03  0.52123793573E+03  0.17300000000E+03 0.  1.
         -6    1    1    2    0  503 -0.53775969477E+02  0.89830374953E+02  0.14991868352E+03  0.25172596772E+03  0.17300000000E+03 0.  1.
</event>
<event>
 4    1  0.6164307E+000  0.1000000E+03  0.7546771E-02  0.1280296E+00
         21   -1    0    0  503  502  0.00000000000E+00  0.00000000000E+00  0.52005568379E+03  0.52005568379E+03  0.00000000000E+00 0. -1.
         21   -1    0    0  501  503 -0.00000000000E+00 -0.00000000000E+00 -0.13552552235E+03  0.13552552235E+03  0.00000000000E+00 0. -1.
          6    1    1    2  501    0 -0.91994705654E+02 -0.84403431072E+02 -0.28206652525E+01  0.21336335486E+03  0.17300000000E+03 0. -1.
         -6    1    1    2    0  502  0.91994705654E+02  0.84403431072E+02  0.38735082669E+03  0.44221785127E+03  0.17300000000E+03 0. -1.
</event>
<event>
 4    1  0.6164307E+000  0.1000000E+03  0.7546771E-02  0.1280296E+00
         21   -1    0    0  503  502  0.00000000000E+00  0.00000000000E+00  0.25526798963E+02  0.25526798963E+02  0.00000000000E+00 0.  1.
         21   -1    0    0  501  503 -0.00000000000E+00 -0.00000000000E+00 -0.13677614445E+04  0.13677614445E+04  0.00000000000E+00 0.  1.
          6    1    1    2  501    0 -0.42081791400E+02  0.55201881074E+02 -0.62287305000E+03  0.65016764089E+03  0.17300000000E+03 0.  1.
         -6    1    1    2    0  502  0.42081791400E+02 -0.55201881074E+02 -0.71936159558E+03  0.74312060262E+03  0.17300000000E+03 0.  1.
</event>
<event>
 4    1  0.6164307E+000  0.1000000E+03  0.7546771E-02  0.1280296E+00
         21   -1    0    0  503  502  0.00000000000E+00  0.00000000000E+00  0.74192723958E+03  0.74192723958E+03  0.00000000000E+00 0.  1.
         21   -1    0    0  501  503 -0.00000000000E+00 -0.00000000000E+00 -0.80428818404E+02  0.80428818404E+02  0.00000000000E+00 0.  1.
          6    1    1    2  501    0 -0.12761343190E+03  0.28025600504E+02  0.14126277424E+03  0.25875624373E+03  0.17300000000E+03 0.  1.
         -6    1    1    2    0  502  0.12761343190E+03 -0.28025600504E+02  0.52023564694E+03  0.56359981425E+03  0.17300000000E+03 0.  1.
</event>
<event>
 4    1  0.6164307E+000  0.1000000E+03  0.7546771E-02  0.1280296E+00
         21   -1    0    0  503  502  0.00000000000E+00  0.00000000000E+00  0.24776000262E+03  0.24776000262E+03  0.00000000000E+00 0. -1.
         21   -1    0    0  501  503 -0.00000000000E+00 -0.00000000000E+00 -0.14811702729E+03  0.14811702729E+03  0.00000000000E+00 0. -1.
          6    1    1    2  501    0  0.74715598105E+02 -0.99976955091E+01  0.15769126345E+02  0.18936747308E+03  0.17300000000E+03 0. -1.
         -6    1    1    2    0  502 -0.74715598105E+02  0.99976955091E+01  0.83873848988E+02  0.20650955682E+03  0.17300000000E+03 0. -1.
</event>
<event>
 4    1  0.6164307E+000  0.1000000E+03  0.7546771E-02  0.1280296E+00
         21   -1    0    0  501  502  0.00000000000E+00  0.00000000000E+00  0.11139537460E+04  0.11139537460E+04  0.00000000000E+00 0. -1.
         21   -1    0    0  502  503 -0.00000000000E+00 -0.00000000000E+00 -0.29723025486E+02  0.29723025486E+02  0.00000000000E+00 0.  1.
          6    1    1    2  501    0 -0.51007981481E+02 -0.13678826378E+02  0.60434824702E+03  0.63083653044E+03  0.17300000000E+03 0.  1.
         -6    1    1    2    0  503  0.51007981481E+02  0.13678826378E+02  0.47988247351E+03  0.51284024106E+03  0.17300000000E+03 0.  1.
</event>
<event>
 4    1  0.6164307E+000  0.1000000E+03  0.7546771E-02  0.1280296E+00
         21   -1    0    0  501  502  0.00000000000E+00  0.00000000000E+00  0.15164057840E+04  0.15164057840E+04  0.00000000000E+00 0. -1.
         21   -1    0    0  502  503 -0.00000000000E+00 -0.00000000000E+00 -0.54984799217E+02  0.54984799217E+02  0.00000000000E+00 0.  1.
          6    1    1    2  501    0  0.59835539878E+02  0.34138942735E+02  0.13312059055E+04  0.13441666274E+04  0.17300000000E+03 0.  1.
         -6    1    1    2    0  503 -0.59835539878E+02 -0.34138942735E+02  0.13021507926E+03  0.22722395585E+03  0.17300000000E+03 0.  1.
</event>
<event>
 4    1  0.6164307E+000  0.1000000E+03  0.7546771E-02  0.1280296E+00
         21   -1    0    0  501  502  0.00000000000E+00  0.00000000000E+00  0.53003015756E+03  0.53003015756E+03  0.00000000000E+00 0. -1.
         21   -1    0    0  502  503 -0.00000000000E+00 -0.00000000000E+00 -0.66391717594E+02  0.66391717594E+02  0.00000000000E+00 0.  1.
          6    1    1    2  501    0 -0.46433691848E+02 -0.38480235962E+02  0.29587850561E+03  0.34800848608E+03  0.17300000000E+03 0.  1.
         -6    1    1    2    0  503  0.46433691848E+02  0.38480235962E+02  0.16775993435E+03  0.24841338908E+03  0.17300000000E+03 0.  1.
</event>
<event>
 4    1  0.6164307E+000  0.1000000E+03  0.7546771E-02  0.1280296E+00
         21   -1    0    0  501  502  0.00000000000E+00  0.00000000000E+00  0.33213021270E+02  0.33213021270E+02  0.00000000000E+00 0. -1.
         21   -1    0    0  502  503 -0.00000000000E+00 -0.00000000000E+00 -0.22661490748E+04  0.22661490748E+04  0.00000000000E+00 0.  1.
          6    1    1    2  501    0  0.13861247674E+03 -0.47375526935E+02 -0.46890033209E+03  0.52082087198E+03  0.17300000000E+03 0. -1.
         -6    1    1    2    0  503 -0.13861247674E+03  0.47375526935E+02 -0.17640357214E+04  0.17785412241E+04  0.17300000000E+03 0.  1.
</event>
<event>
 4    1  0.6164307E+000  0.1000000E+03  0.7546771E-02  0.1280296E+00
         21   -1    0    0  501  502  0.00000000000E+00  0.00000000000E+00  0.14967638812E+03  0.14967638812E+03  0.00000000000E+00 0. -1.
         21   -1    0    0  502  503 -0.00000000000E+00 -0.00000000000E+00 -0.46570698475E+03  0.46570698475E+03  0.00000000000E+00 0.  1.
          6    1    1    2  501    0  0.87160782325E+00  0.16398530723E+03 -0.25729014350E+02  0.23975596524E+03  0.17300000000E+03 0. -1.
         -6    1    1    2    0  503 -0.87160782325E+00 -0.16398530723E+03 -0.29030158228E+03  0.37562740763E+03  0.17300000000E+03 0.  1.
</event>
<event>
 4    1  0.6164307E+000  0.1000000E+03  0.7546771E-02  0.1280296E+00
         21   -1    0    0  501  502  0.00000000000E+00  0.00000000000E+00  0.76100869659E+03  0.76100869659E+03  0.00000000000E+00 0. -1.
         21   -1    0    0  502  503 -0.00000000000E+00 -0.00000000000E+00 -0.69772112738E+02  0.69772112738E+02  0.00000000000E+00 0.  1.
          6    1    1    2  501    0 -0.23749860174E+02  0.67710863556E+02  0.58760442906E+03  0.61673072078E+03  0.17300000000E+03 0. -1.
         -6    1    1    2    0  503  0.23749860174E+02 -0.67710863556E+02  0.10363215480E+03  0.21405008855E+03  0.17300000000E+03 0.  1.
</event>
<event>
 4    1  0.6164307E+000  0.1000000E+03  0.7546771E-02  0.1280296E+00
         21   -1    0    0  501  502  0.00000000000E+00  0.00000000000E+00  0.43501636810E+03  0.43501636810E+03  0.00000000000E+00 0.  1.
         21   -1    0    0  502  503 -0.00000000000E+00 -0.00000000000E+00 -0.10821995858E+03  0.10821995858E+03  0.00000000000E+00 0.  1.
          6    1    1    2  501    0  0.11796356129E+03  0.40958657304E+02  0.11402640596E+03  0.24191741288E+03  0.17300000000E+03 0.  1.
         -6    1    1    2    0  503 -0.11796356129E+03 -0.40958657304E+02  0.21277000356E+03  0.30131891380E+03  0.17300000000E+03 0.  1.
</event>
<event>
 4    1  0.6164307E+000  0.1000000E+03  0.7546771E-02  0.1280296E+00
         21   -1    0    0  501  502  0.00000000000E+00  0.00000000000E+00  0.39919153528E+03  0.39919153528E+03  0.00000000000E+00 0.  1.
         21   -1    0    0  502  503 -0.00000000000E+00 -0.00000000000E+00 -0.24811020742E+03  0.24811020742E+03  0.00000000000E+00 0.  1.
          6    1    1    2  501    0  0.18517236875E+03  0.11280597083E+03  0.22842565998E+03  0.35933448950E+03  0.17300000000E+03 0. -1.
         -6    1    1    2    0  503 -0.18517236875E+03 -0.11280597083E+03 -0.77344332121E+02  0.28796725320E+03  0.17300000000E+03 0. -1.
</event>
<event>
 4    1  0.6164307E+000  0.1000000E+03  0.7546771E-02  0.1280296E+00
         21   -1    0    0  501  502  0.00000000000E+00  0.00000000000E+00  0.12323941811E+04  0.12323941811E+04  0.00000000000E+00 0.  1.
         21   -1    0    0  502  503 -0.00000000000E+00 -0.00000000000E+00 -0.53997332603E+02  0.53997332603E+02  0.00000000000E+00 0.  1.
          6    1    1    2  501    0 -0.13986934322E+03 -0.11121139581E+03  0.75987124859E+03  0.79954031928E+03  0.17300000000E+03 0. -1.
         -6    1    1    2    0  503  0.13986934322E+03  0.11121139581E+03  0.41852559996E+03  0.48685119446E+03  0.17300000000E+03 0. -1.
</event>
<event>
 4    1  0.6164307E+000  0.1000000E+03  0.7546771E-02  0.1280296E+00
         21   -1    0    0  501  502  0.00000000000E+00  0.00000000000E+00  0.53817558724E+03  0.53817558724E+03  0.00000000000E+00 0.  1.
         21   -1    0    0  502  503 -0.00000000000E+00 -0.00000000000E+00 -0.94016081351E+02  0.94016081351E+02  0.00000000000E+00 0.  1.
          6    1    1    2  501    0  0.13450637441E+03 -0.50038632403E+02  0.21012843396E+03  0.30769918467E+03  0.17300000000E+03 0. -1.
         -6    1    1    2    0  503 -0.13450637441E+03  0.50038632403E+02  0.23403107193E+03  0.32449248392E+03  0.17300000000E+03 0. -1.
</event>
<event>
 4    1  0.6164307E+000  0.1000000E+03  0.7546771E-02  0.1280296E+00
         21   -1    0    0  501  502  0.00000000000E+00  0.00000000000E+00  0.32331529595E+03  0.32331529595E+03  0.00000000000E+00 0.  1.
         21   -1    0    0  502  503 -0.00000000000E+00 -0.00000000000E+00 -0.13715930172E+03  0.13715930172E+03  0.00000000000E+00 0.  1.
          6    1    1    2  501    0  0.55071085427E+02  0.67531678319E+02  0.18339066882E+03  0.26674798862E+03  0.17300000000E+03 0. -1.
         -6    1    1    2    0  503 -0.55071085427E+02 -0.67531678319E+02  0.27653254123E+01  0.19372660904E+03  0.17300000000E+03 0. -1.
</event>
<event>
 4    1  0.6164307E+000  0.1000000E+03  0.7546771E-02  0.1280296E+00
         21   -1    0    0  501  502  0.00000000000E+00  0.00000000000E+00  0.22140186343E+03  0.22140186343E+03  0.00000000000E+00 0.  1.
         21   -1    0    0  502  503 -0.00000000000E+00 -0.00000000000E+00 -0.37024804721E+03  0.37024804721E+03  0.00000000000E+00 0.  1.
          6    1    1    2  501    0 -0.19042310014E+03 -0.97340005471E+01  0.54994712407E+02  0.26326626489E+03  0.17300000000E+03 0.  1.
         -6    1    1    2    0  503  0.19042310014E+03  0.97340005471E+01 -0.20384089619E+03  0.32838364575E+03  0.17300000000E+03 0.  1.
</event>
<event>
 4    1  0.6164307E+000  0.1000000E+03  0.7546771E-02  0.1280296E+00
         21   -1    0    0  501  502  0.00000000000E+00  0.00000000000E+00  0.12277882363E+04  0.12277882363E+04  0.00000000000E+00 0. -1.
         21   -1    0    0  502  503 -0.00000000000E+00 -0.00000000000E+00 -0.31834909531E+02  0.31834909531E+02  0.00000000000E+00 0.  1.
          6    1    1    2  501    0 -0.45136864622E+02 -0.84380968158E+02  0.59863795630E+03  0.63043943964E+03  0.17300000000E+03 0. -1.
         -6    1    1    2    0  503  0.45136864622E+02  0.84380968158E+02  0.59731537049E+03  0.62918370621E+03  0.17300000000E+03 0.  1.
</event>
<event>
 4    1  0.6164307E+000  0.1000000E+03  0.7546771E-02  0.1280296E+00
         21   -1    0    0  501  502  0.00000000000E+00  0.00000000000E+00  0.23884016837E+03  0.23884016837E+03  0.00000000000E+00 0. -1.
         21   -1    0    0  502  503 -0.00000000000E+00 -0.00000000000E+00 -0.19993426422E+03  0.19993426422E+03  0.00000000000E+00 0.  1.
          6    1    1    2  501    0  0.11470918515E+03  0.27210020150E+02  0.82348524183E+02  0.22496413445E+03  0.17300000000E+03 0. -1.
         -6    1    1    2    0  503 -0.11470918515E+03 -0.27210020150E+02 -0.43442620029E+02  0.21381029814E+03  0.17300000000E+03 0.  1.
</event>
<event>
 4    1  0.6164307E+000  0.1000000E+03  0.7546771E-02  0.1280296E+00
         21   -1    0    0  501  502  0.00000000000E+00  0.00000000000E+00  0.52959981356E+03  0.52959981356E+03  0.00000000000E+00 0. -1.
         21   -1    0    0  502  503 -0.00000000000E+00 -0.00000000000E+00 -0.17057278909E+03  0.17057278909E+03  0.00000000000E+00 0.  1.
          6    1    1    2  501    0  0.92031024393E+02 -0.36156580054E+02  0.44160163050E+03  0.48447704569E+03  0.17300000000E+03 0. -1.
         -6    1    1    2    0  503 -0.92031024393E+02  0.36156580054E+02 -0.82574606037E+02  0.21569555696E+03  0.17300000000E+03 0.  1.
</event>
<event>
 4    1  0.6164307E+000  0.1000000E+03  0.7546771E-02  0.1280296E+00
         21   -1    0    0  501  502  0.00000000000E+00  0.00000000000E+00  0.20571757897E+03  0.20571757897E+03  0.00000000000E+00 0. -1.
         21   -1    0    0  502  503 -0.00000000000E+00 -0.00000000000E+00 -0.67184016944E+03  0.67184016944E+03  0.00000000000E+00 0.  1.
          6    1    1    2  501    0 -0.20169223074E+02 -0.13537985271E+03  0.12012163828E+03  0.25118262293E+03  0.17300000000E+03 0. -1.
         -6    1    1    2    0  503  0.20169223074E+02  0.13537985271E+03 -0.58624422875E+03  0.62637512548E+03  0.17300000000E+03 0.  1.
</event>
<event>
 4    1  0.6164307E+000  0.1000000E+03  0.7546771E-02  0.1280296E+00
         21   -1    0    0  501  502  0.00000000000E+00  0.00000000000E+00  0.62974456525E+02  0.62974456525E+02  0.00000000000E+00 0. -1.
         21   -1    0    0  502  503 -0.00000000000E+00 -0.00000000000E+00 -0.74994153136E+03  0.74994153136E+03  0.00000000000E+00 0.  1.
          6    1    1    2  501    0  0.86399348533E+02 -0.91926906548E+02 -0.41303281965E+03  0.46523167742E+03  0.17300000000E+03 0. -1.
         -6    1    1    2    0  503 -0.86399348533E+02  0.91926906548E+02 -0.27393425519E+03  0.34768431046E+03  0.17300000000E+03 0.  1.
</event>
<event>
 4    1  0.6164307E+000  0.1000000E+03  0.7546771E-02  0.1280296E+00
         21   -1    0    0  501  502  0.00000000000E+00  0.00000000000E+00  0.79240416706E+02  0.79240416706E+02  0.00000000000E+00 0.  1.
         21   -1    0    0  502  503 -0.00000000000E+00 -0.00000000000E+00 -0.77901620272E+03  0.77901620272E+03  0.00000000000E+00 0.  1.
          6    1    1    2  501    0 -0.14132663477E+03  0.89129785502E+02 -0.24225693064E+03  0.34137187465E+03  0.17300000000E+03 0.  1.
         -6    1    1    2    0  503  0.14132663477E+03 -0.89129785502E+02 -0.45751885537E+03  0.51688474478E+03  0.17300000000E+03 0.  1.
</event>
<event>
 4    1  0.6164307E+000  0.1000000E+03  0.7546771E-02  0.1280296E+00
         21   -1    0    0  501  502  0.00000000000E+00  0.00000000000E+00  0.13970838764E+03  0.13970838764E+03  0.00000000000E+00 0.  1.
         21   -1    0    0  502  503 -0.00000000000E+00 -0.00000000000E+00 -0.47331521643E+03  0.47331521643E+03  0.00000000000E+00 0.  1.
          6    1    1    2  501    0 -0.14770451854E+02 -0.12701323739E+03  0.11170144462E+01  0.21512967355E+03  0.17300000000E+03 0.  1.
         -6    1    1    2    0  503  0.14770451854E+02  0.12701323739E+03 -0.33472384324E+03  0.39789393053E+03  0.17300000000E+03 0.  1.
</event>
<event>
 4    1  0.6164307E+000  0.1000000E+03  0.7546771E-02  0.1280296E+00
         21   -1    0    0  501  502  0.00000000000E+00  0.00000000000E+00  0.34187941504E+03  0.34187941504E+03  0.00000000000E+00 0.  1.
         21   -1    0    0  502  503 -0.00000000000E+00 -0.00000000000E+00 -0.16910589414E+03  0.16910589414E+03  0.00000000000E+00 0.  1.
          6    1    1    2  501    0  0.16405271026E+03  0.29136834397E+02  0.98151101599E+02  0.25947039447E+03  0.17300000000E+03 0.  1.
         -6    1    1    2    0  503 -0.16405271026E+03 -0.29136834397E+02  0.74622419297E+02  0.25151491471E+03  0.17300000000E+03 0.  1.
</event>
<event>
 4    1  0.6164307E+000  0.1000000E+03  0.7546771E-02  0.1280296E+00
         21   -1    0    0  501  502  0.00000000000E+00  0.00000000000E+00  0.27828052393E+03  0.27828052393E+03  0.00000000000E+00 0.  1.
         21   -1    0    0  502  503 -0.00000000000E+00 -0.00000000000E+00 -0.23266760440E+03  0.23266760440E+03  0.00000000000E+00 0.  1.
          6    1    1    2  501    0  0.17297508542E+03 -0.53271312353E+02  0.68371752037E+02  0.25954172954E+03  0.17300000000E+03 0.  1.
         -6    1    1    2    0  503 -0.17297508542E+03  0.53271312353E+02 -0.22758832508E+02  0.25140639879E+03  0.17300000000E+03 0.  1.
</event>
<event>
 4    1  0.6164307E+000  0.1000000E+03  0.7546771E-02  0.1280296E+00
         21   -1    0    0  503  502  0.00000000000E+00  0.00000000000E+00  0.26702728503E+03  0.26702728503E+03  0.00000000000E+00 0. -1.
         21   -1    0    0  501  503 -0.00000000000E+00 -0.00000000000E+00 -0.42382087694E+03  0.42382087694E+03  0.00000000000E+00 0.  1.
          6    1    1    2  501    0 -0.89567318159E+02 -0.25401961007E+03 -0.18458182204E+03  0.36952363363E+03  0.17300000000E+03 0.  1.
         -6    1    1    2    0  502  0.89567318159E+02  0.25401961007E+03  0.27788230131E+02  0.32132452834E+03  0.17300000000E+03 0. -1.
</event>
<event>
 4    1  0.6164307E+000  0.1000000E+03  0.7546771E-02  0.1280296E+00
         21   -1    0    0  503  502  0.00000000000E+00  0.00000000000E+00  0.12721203088E+04  0.12721203088E+04  0.00000000000E+00 0. -1.
         21   -1    0    0  501  503 -0.00000000000E+00 -0.00000000000E+00 -0.57160217735E+02  0.57160217735E+02  0.00000000000E+00 0.  1.
          6    1    1    2  501    0 -0.14205048129E+03  0.36337401269E+02  0.24786975496E+03  0.33595708266E+03  0.17300000000E+03 0.  1.
         -6    1    1    2    0  502  0.14205048129E+03 -0.36337401269E+02  0.96709033609E+03  0.99332344386E+03  0.17300000000E+03 0. -1.
</event>
<event>
 4    1  0.6164307E+000  0.1000000E+03  0.7546771E-02  0.1280296E+00
         21   -1    0    0  503  502  0.00000000000E+00  0.00000000000E+00  0.11097372445E+04  0.11097372445E+04  0.00000000000E+00 0. -1.
         21   -1    0    0  501  503 -0.00000000000E+00 -0.00000000000E+00 -0.80593438201E+02  0.80593438201E+02  0.00000000000E+00 0. -1.
          6    1    1    2  501    0  0.89028889177E+01  0.21297488640E+02  0.31274740060E+02  0.17731315185E+03  0.17300000000E+03 0. -1.
         -6    1    1    2    0  502 -0.89028889177E+01 -0.21297488640E+02  0.99786906627E+03  0.10130175309E+04  0.17300000000E+03 0. -1.
</event>
<event>
 4    1  0.6164307E+000  0.1000000E+03  0.7546771E-02  0.1280296E+00
         21   -1    0    0  503  502  0.00000000000E+00  0.00000000000E+00  0.21053068457E+04  0.21053068457E+04  0.00000000000E+00 0. -1.
         21   -1    0    0  501  503 -0.00000000000E+00 -0.00000000000E+00 -0.10281452657E+03  0.10281452657E+03  0.00000000000E+00 0. -1.
          6    1    1    2  501    0 -0.33232690110E+02 -0.11097251004E+03  0.13907041328E+02  0.20866651738E+03  0.17300000000E+03 0. -1.
         -6    1    1    2    0  502  0.33232690110E+02  0.11097251004E+03  0.19885852778E+04  0.19994548549E+04  0.17300000000E+03 0. -1.
</event>
<event>
 4    1  0.6164307E+000  0.1000000E+03  0.7546771E-02  0.1280296E+00
         21   -1    0    0  503  502  0.00000000000E+00  0.00000000000E+00  0.12709162893E+03  0.12709162893E+03  0.00000000000E+00 0. -1.
         21   -1    0    0  501  503 -0.00000000000E+00 -0.00000000000E+00 -0.31675100928E+04  0.31675100928E+04  0.00000000000E+00 0. -1.
          6    1    1    2  501    0  0.65774359991E+02  0.16020965357E+03 -0.30399709639E+04  0.30498107910E+04  0.17300000000E+03 0. -1.
         -6    1    1    2    0  502 -0.65774359991E+02 -0.16020965357E+03 -0.44750001448E+00  0.24479093077E+03  0.17300000000E+03 0. -1.
</event>
<event>
 4    1  0.6164307E+000  0.1000000E+03  0.7546771E-02  0.1280296E+00
         21   -1    0    0  503  502  0.00000000000E+00  0.00000000000E+00  0.62881968551E+02  0.62881968551E+02  0.00000000000E+00 0.  1.
         21   -1    0    0  501  503 -0.00000000000E+00 -0.00000000000E+00 -0.10369985384E+04  0.10369985384E+04  0.00000000000E+00 0.  1.
          6    1    1    2  501    0  0.87441770496E+02  0.87980802639E+02 -0.79080500690E+03  0.81895558109E+03  0.17300000000E+03 0.  1.
         -6    1    1    2    0  502 -0.87441770496E+02 -0.87980802639E+02 -0.18331156295E+03  0.28092492587E+03  0.17300000000E+03 0.  1.
</event>
<event>
 4    1  0.6164307E+000  0.1000000E+03  0.7546771E-02  0.1280296E+00
         21   -1    0    0  501  502  0.00000000000E+00  0.00000000000E+00  0.15886626855E+03  0.15886626855E+03  0.00000000000E+00 0. -1.
         21   -1    0    0  502  503 -0.00000000000E+00 -0.00000000000E+00 -0.21089007417E+03  0.21089007417E+03  0.00000000000E+00 0.  1.
          6    1    1    2  501    0 -0.51731634300E+01  0.44675691791E+01  0.33978432001E+02  0.17643767918E+03  0.17300000000E+03 0.  1.
         -6    1    1    2    0  503  0.51731634300E+01 -0.44675691791E+01 -0.86002237624E+02  0.19331866353E+03  0.17300000000E+03 0.  1.
</event>
<event>
 4    1  0.6164307E+000  0.1000000E+03  0.7546771E-02  0.1280296E+00
         21   -1    0    0  501  502  0.00000000000E+00  0.00000000000E+00  0.98432569443E+03  0.98432569443E+03  0.00000000000E+00 0. -1.
         21   -1    0    0  502  503 -0.00000000000E+00 -0.00000000000E+00 -0.78334809858E+02  0.78334809858E+02  0.00000000000E+00 0.  1.
          6    1    1    2  501    0  0.78102437149E+02  0.26506971117E+02  0.83747735849E+03  0.85912742721E+03  0.17300000000E+03 0.  1.
         -6    1    1    2    0  503 -0.78102437149E+02 -0.26506971117E+02  0.68513526080E+02  0.20353307707E+03  0.17300000000E+03 0.  1.
</event>
<event>
 4    1  0.6164307E+000  0.1000000E+03  0.7546771E-02  0.1280296E+00
         21   -1    0    0  503  502  0.00000000000E+00  0.00000000000E+00  0.63271895807E+03  0.63271895807E+03  0.00000000000E+00 0.  1.
         21   -1    0    0  501  503 -0.00000000000E+00 -0.00000000000E+00 -0.10505819505E+03  0.10505819505E+03  0.00000000000E+00 0.  1.
          6    1    1    2  501    0  0.14053258845E+02  0.10034789033E+03  0.31901186057E+02  0.20301201652E+03  0.17300000000E+03 0.  1.
         -6    1    1    2    0  502 -0.14053258845E+02 -0.10034789033E+03  0.49575957696E+03  0.53476513661E+03  0.17300000000E+03 0.  1.
</event>
<event>
 4    1  0.6164307E+000  0.1000000E+03  0.7546771E-02  0.1280296E+00
         21   -1    0    0  503  502  0.00000000000E+00  0.00000000000E+00  0.35109273862E+03  0.35109273862E+03  0.00000000000E+00 0.  1.
         21   -1    0    0  501  503 -0.00000000000E+00 -0.00000000000E+00 -0.52358594144E+03  0.52358594144E+03  0.00000000000E+00 0.  1.
          6    1    1    2  501    0 -0.14526382344E+03 -0.39827210035E+02 -0.45573246242E+03  0.51020472593E+03  0.17300000000E+03 0.  1.
         -6    1    1    2    0  502  0.14526382344E+03  0.39827210035E+02  0.28323925960E+03  0.36447395413E+03  0.17300000000E+03 0.  1.
</event>
<event>
 4    1  0.6164307E+000  0.1000000E+03  0.7546771E-02  0.1280296E+00
         21   -1    0    0  503  502  0.00000000000E+00  0.00000000000E+00  0.52502146135E+02  0.52502146135E+02  0.00000000000E+00 0. -1.
         21   -1    0    0  501  503 -0.00000000000E+00 -0.00000000000E+00 -0.60808694993E+03  0.60808694993E+03  0.00000000000E+00 0. -1.
          6    1    1    2  501    0 -0.22708315196E+00  0.24805308186E+02 -0.34650048653E+03  0.38808110240E+03  0.17300000000E+03 0. -1.
         -6    1    1    2    0  502  0.22708315196E+00 -0.24805308186E+02 -0.20908431727E+03  0.27250799366E+03  0.17300000000E+03 0. -1.
</event>
<event>
 4    1  0.6164307E+000  0.1000000E+03  0.7546771E-02  0.1280296E+00
         21   -1    0    0  503  502  0.00000000000E+00  0.00000000000E+00  0.76231086175E+03  0.76231086175E+03  0.00000000000E+00 0. -1.
         21   -1    0    0  501  503 -0.00000000000E+00 -0.00000000000E+00 -0.71015872972E+02  0.71015872972E+02  0.00000000000E+00 0. -1.
          6    1    1    2  501    0  0.63710422113E+02 -0.12124788448E+03  0.21348008366E+03  0.30702249673E+03  0.17300000000E+03 0.  1.
         -6    1    1    2    0  502 -0.63710422113E+02  0.12124788448E+03  0.47781490512E+03  0.52630423799E+03  0.17300000000E+03 0.  1.
</event>
<event>
 4    1  0.6164307E+000  0.1000000E+03  0.7546771E-02  0.1280296E+00
         21   -1    0    0  503  502  0.00000000000E+00  0.00000000000E+00  0.53203724831E+03  0.53203724831E+03  0.00000000000E+00 0. -1.
         21   -1    0    0  501  503 -0.00000000000E+00 -0.00000000000E+00 -0.10479406302E+03  0.10479406302E+03  0.00000000000E+00 0. -1.
          6    1    1    2  501    0  0.99034406428E+02 -0.98157250904E+02  0.10588660349E+03  0.24613742576E+03  0.17300000000E+03 0.  1.
         -6    1    1    2    0  502 -0.99034406428E+02  0.98157250904E+02  0.32135658180E+03  0.39069388558E+03  0.17300000000E+03 0.  1.
</event>
<event>
 4    1  0.6164307E+000  0.1000000E+03  0.7546771E-02  0.1280296E+00
         21   -1    0    0  501  502  0.00000000000E+00  0.00000000000E+00  0.19050984801E+04  0.19050984801E+04  0.00000000000E+00 0.  1.
         21   -1    0    0  502  503 -0.00000000000E+00 -0.00000000000E+00 -0.50186910727E+02  0.50186910727E+02  0.00000000000E+00 0.  1.
          6    1    1    2  501    0  0.13929893353E+03  0.18404628409E+03  0.12796001488E+04  0.13117098644E+04  0.17300000000E+03 0.  1.
         -6    1    1    2    0  503 -0.13929893353E+03 -0.18404628409E+03  0.57531142059E+03  0.64357552644E+03  0.17300000000E+03 0.  1.
</event>
<event>
 4    1  0.6164307E+000  0.1000000E+03  0.7546771E-02  0.1280296E+00
         21   -1    0    0  501  502  0.00000000000E+00  0.00000000000E+00  0.88190605189E+03  0.88190605189E+03  0.00000000000E+00 0.  1.
         21   -1    0    0  502  503 -0.00000000000E+00 -0.00000000000E+00 -0.42105465323E+02  0.42105465323E+02  0.00000000000E+00 0.  1.
          6    1    1    2  501    0  0.10220114419E+02 -0.52886948141E+02  0.57716515745E+03  0.60493809517E+03  0.17300000000E+03 0.  1.
         -6    1    1    2    0  503 -0.10220114419E+02  0.52886948141E+02  0.26263542912E+03  0.31907342204E+03  0.17300000000E+03 0.  1.
</event>
<event>
 4    1  0.6164307E+000  0.1000000E+03  0.7546771E-02  0.1280296E+00
         21   -1    0    0  503  502  0.00000000000E+00  0.00000000000E+00  0.28500428779E+03  0.28500428779E+03  0.00000000000E+00 0. -1.
         21   -1    0    0  501  503 -0.00000000000E+00 -0.00000000000E+00 -0.29450461676E+03  0.29450461676E+03  0.00000000000E+00 0. -1.
          6    1    1    2  501    0 -0.87839495845E+02  0.45933215873E+02 -0.21496985462E+03  0.29320074309E+03  0.17300000000E+03 0.  1.
         -6    1    1    2    0  502  0.87839495845E+02 -0.45933215873E+02  0.20546952565E+03  0.28630816147E+03  0.17300000000E+03 0.  1.
</event>
<event>
 4    1  0.6164307E+000  0.1000000E+03  0.7546771E-02  0.1280296E+00
         21   -1    0    0  503  502  0.00000000000E+00  0.00000000000E+00  0.28012715245E+03  0.28012715245E+03  0.00000000000E+00 0. -1.
         21   -1    0    0  501  503 -0.00000000000E+00 -0.00000000000E+00 -0.12415754615E+03  0.12415754615E+03  0.00000000000E+00 0. -1.
          6    1    1    2  501    0  0.59503463565E+02 -0.51489071207E+01  0.39149259622E+02  0.18715992613E+03  0.17300000000E+03 0.  1.
         -6    1    1    2    0  502 -0.59503463565E+02  0.51489071207E+01  0.11682034668E+03  0.21712477247E+03  0.17300000000E+03 0.  1.
</event>
<event>
 4    1  0.6164307E+000  0.1000000E+03  0.7546771E-02  0.1280296E+00
         21   -1    0    0  503  502  0.00000000000E+00  0.00000000000E+00  0.23175204576E+04  0.23175204576E+04  0.00000000000E+00 0. -1.
         21   -1    0    0  501  503 -0.00000000000E+00 -0.00000000000E+00 -0.51610598097E+02  0.51610598097E+02  0.00000000000E+00 0. -1.
          6    1    1    2  501    0 -0.45490912323E+02  0.67631349078E+02  0.14596760718E+03  0.24058047474E+03  0.17300000000E+03 0. -1.
         -6    1    1    2    0  502  0.45490912323E+02 -0.67631349078E+02  0.21199422523E+04  0.21285505810E+04  0.17300000000E+03 0. -1.
</event>
<event>
 4    1  0.6164307E+000  0.1000000E+03  0.7546771E-02  0.1280296E+00
         21   -1    0    0  503  502  0.00000000000E+00  0.00000000000E+00  0.35575180704E+03  0.35575180704E+03  0.00000000000E+00 0. -1.
         21   -1    0    0  501  503 -0.00000000000E+00 -0.00000000000E+00 -0.10604441986E+03  0.10604441986E+03  0.00000000000E+00 0. -1.
          6    1    1    2  501    0 -0.76396976289E+02  0.40782870397E+01  0.72447822206E+02  0.20256065105E+03  0.17300000000E+03 0. -1.
         -6    1    1    2    0  502  0.76396976289E+02 -0.40782870397E+01  0.17725956498E+03  0.25923557585E+03  0.17300000000E+03 0. -1.
</event>
<event>
 4    1  0.6164307E+000  0.1000000E+03  0.7546771E-02  0.1280296E+00
         21   -1    0    0  503  502  0.00000000000E+00  0.00000000000E+00  0.77152996541E+03  0.77152996541E+03  0.00000000000E+00 0. -1.
         21   -1    0    0  501  503 -0.00000000000E+00 -0.00000000000E+00 -0.43739463495E+02  0.43739463495E+02  0.00000000000E+00 0.  1.
          6    1    1    2  501    0 -0.39534389337E+02 -0.90162367446E+01  0.26045429491E+03  0.31529303862E+03  0.17300000000E+03 0. -1.
         -6    1    1    2    0  502  0.39534389337E+02  0.90162367446E+01  0.46733620700E+03  0.49997639028E+03  0.17300000000E+03 0. -1.
</event>
<event>
 4    1  0.6164307E+000  0.1000000E+03  0.7546771E-02  0.1280296E+00
         21   -1    0    0  503  502  0.00000000000E+00  0.00000000000E+00  0.35630882745E+03  0.35630882745E+03  0.00000000000E+00 0. -1.
         21   -1    0    0  501  503 -0.00000000000E+00 -0.00000000000E+00 -0.12343516902E+03  0.12343516902E+03  0.00000000000E+00 0.  1.
          6    1    1    2  501    0  0.48366442182E+02  0.12506279385E+02 -0.65211153305E+01  0.18018669401E+03  0.17300000000E+03 0. -1.
         -6    1    1    2    0  502 -0.48366442182E+02 -0.12506279385E+02  0.23939477376E+03  0.29955730246E+03  0.17300000000E+03 0. -1.
</event>
<event>
 4    1  0.6164307E+000  0.1000000E+03  0.7546771E-02  0.1280296E+00
         21   -1    0    0  503  502  0.00000000000E+00  0.00000000000E+00  0.15054247096E+04  0.15054247096E+04  0.00000000000E+00 0. -1.
         21   -1    0    0  501  503 -0.00000000000E+00 -0.00000000000E+00 -0.26493153584E+02  0.26493153584E+02  0.00000000000E+00 0.  1.
          6    1    1    2  501    0 -0.17395846257E+02  0.60094933989E+02  0.10375528336E+04  0.10537356875E+04  0.17300000000E+03 0. -1.
         -6    1    1    2    0  502  0.17395846257E+02 -0.60094933989E+02  0.44137872240E+03  0.47818217568E+03  0.17300000000E+03 0. -1.
</event>
<event>
 4    1  0.6164307E+000  0.1000000E+03  0.7546771E-02  0.1280296E+00
         21   -1    0    0  501  502  0.00000000000E+00  0.00000000000E+00  0.18542279986E+03  0.18542279986E+03  0.00000000000E+00 0.  1.
         21   -1    0    0  502  503 -0.00000000000E+00 -0.00000000000E+00 -0.29175361799E+03  0.29175361799E+03  0.00000000000E+00 0.  1.
          6    1    1    2  501    0  0.12784679946E+03  0.71736704064E+02 -0.83140106811E-01  0.22675970928E+03  0.17300000000E+03 0. -1.
         -6    1    1    2    0  503 -0.12784679946E+03 -0.71736704064E+02 -0.10624767802E+03  0.25041670856E+03  0.17300000000E+03 0. -1.
</event>
<event>
 4    1  0.6164307E+000  0.1000000E+03  0.7546771E-02  0.1280296E+00
         21   -1    0    0  501  502  0.00000000000E+00  0.00000000000E+00  0.78649663660E+03  0.78649663660E+03  0.00000000000E+00 0. -1.
         21   -1    0    0  502  503 -0.00000000000E+00 -0.00000000000E+00 -0.16979857380E+03  0.16979857380E+03  0.00000000000E+00 0.  1.
          6    1    1    2  501    0 -0.15986953214E+03 -0.22270042774E+03  0.87605062807E+02  0.33579367900E+03  0.17300000000E+03 0.  1.
         -6    1    1    2    0  503  0.15986953214E+03  0.22270042774E+03  0.52909300000E+03  0.62050153140E+03  0.17300000000E+03 0. -1.
</event>
<event>
 4    1  0.6164307E+000  0.1000000E+03  0.7546771E-02  0.1280296E+00
         21   -1    0    0  501  502  0.00000000000E+00  0.00000000000E+00  0.26205984022E+03  0.26205984022E+03  0.00000000000E+00 0. -1.
         21   -1    0    0  502  503 -0.00000000000E+00 -0.00000000000E+00 -0.13075961995E+03  0.13075961995E+03  0.00000000000E+00 0.  1.
          6    1    1    2  501    0 -0.64091420286E+01  0.60719034336E+02  0.91854802465E+02  0.20516866956E+03  0.17300000000E+03 0.  1.
         -6    1    1    2    0  503  0.64091420286E+01 -0.60719034336E+02  0.39445417797E+02  0.18765079061E+03  0.17300000000E+03 0. -1.
</event>
<event>
 4    1  0.6164307E+000  0.1000000E+03  0.7546771E-02  0.1280296E+00
         21   -1    0    0  501  502  0.00000000000E+00  0.00000000000E+00  0.56428583728E+03  0.56428583728E+03  0.00000000000E+00 0. -1.
         21   -1    0    0  502  503 -0.00000000000E+00 -0.00000000000E+00 -0.63297021234E+02  0.63297021234E+02  0.00000000000E+00 0.  1.
          6    1    1    2  501    0 -0.32572849282E+02  0.68167488405E+02  0.26542055004E+03  0.32570671680E+03  0.17300000000E+03 0.  1.
         -6    1    1    2    0  503  0.32572849282E+02 -0.68167488405E+02  0.23556826600E+03  0.30187614171E+03  0.17300000000E+03 0. -1.
</event>
<event>
 4    1  0.6164307E+000  0.1000000E+03  0.7546771E-02  0.1280296E+00
         21   -1    0    0  503  502  0.00000000000E+00  0.00000000000E+00  0.77605914766E+03  0.77605914766E+03  0.00000000000E+00 0. -1.
         21   -1    0    0  501  503 -0.00000000000E+00 -0.00000000000E+00 -0.13242854658E+03  0.13242854658E+03  0.00000000000E+00 0. -1.
          6    1    1    2  501    0 -0.67885833454E+02 -0.11556165363E+03 -0.10124616410E+02  0.21907644791E+03  0.17300000000E+03 0. -1.
         -6    1    1    2    0  502  0.67885833454E+02  0.11556165363E+03  0.65375521749E+03  0.68941124633E+03  0.17300000000E+03 0. -1.
</event>
<event>
 4    1  0.6164307E+000  0.1000000E+03  0.7546771E-02  0.1280296E+00
         21   -1    0    0  503  502  0.00000000000E+00  0.00000000000E+00  0.10169569609E+04  0.10169569609E+04  0.00000000000E+00 0. -1.
         21   -1    0    0  501  503 -0.00000000000E+00 -0.00000000000E+00 -0.61739619331E+02  0.61739619331E+02  0.00000000000E+00 0. -1.
          6    1    1    2  501    0 -0.11679045311E+03 -0.10735315901E+03  0.28881867747E+03  0.37216923454E+03  0.17300000000E+03 0. -1.
         -6    1    1    2    0  502  0.11679045311E+03  0.10735315901E+03  0.66639866411E+03  0.70652734569E+03  0.17300000000E+03 0. -1.
</event>
<event>
 4    1  0.6164307E+000  0.1000000E+03  0.7546771E-02  0.1280296E+00
         21   -1    0    0  501  502  0.00000000000E+00  0.00000000000E+00  0.92265130822E+03  0.92265130822E+03  0.00000000000E+00 0. -1.
         21   -1    0    0  502  503 -0.00000000000E+00 -0.00000000000E+00 -0.40939893215E+03  0.40939893215E+03  0.00000000000E+00 0.  1.
          6    1    1    2  501    0 -0.13589000987E+03  0.40243032667E+03  0.69998931889E+03  0.83685740074E+03  0.17300000000E+03 0.  1.
         -6    1    1    2    0  503  0.13589000987E+03 -0.40243032667E+03 -0.18673694282E+03  0.49519283963E+03  0.17300000000E+03 0. -1.
</event>
<event>
 4    1  0.6164307E+000  0.1000000E+03  0.7546771E-02  0.1280296E+00
         21   -1    0    0  501  502  0.00000000000E+00  0.00000000000E+00  0.16634758109E+04  0.16634758109E+04  0.00000000000E+00 0. -1.
         21   -1    0    0  502  503 -0.00000000000E+00 -0.00000000000E+00 -0.30565452257E+02  0.30565452257E+02  0.00000000000E+00 0.  1.
          6    1    1    2  501    0  0.43544899811E+02 -0.79574001849E+02  0.12395736259E+04  0.12548704929E+04  0.17300000000E+03 0.  1.
         -6    1    1    2    0  503 -0.43544899811E+02  0.79574001849E+02  0.39333673271E+03  0.43917077017E+03  0.17300000000E+03 0. -1.
</event>
<event>
 4    1  0.6164307E+000  0.1000000E+03  0.7546771E-02  0.1280296E+00
         21   -1    0    0  501  502  0.00000000000E+00  0.00000000000E+00  0.22355935689E+03  0.22355935689E+03  0.00000000000E+00 0. -1.
         21   -1    0    0  502  503 -0.00000000000E+00 -0.00000000000E+00 -0.16121995734E+03  0.16121995734E+03  0.00000000000E+00 0.  1.
          6    1    1    2  501    0  0.61354408523E+02  0.30260492284E+02 -0.71943652184E+01  0.18617416504E+03  0.17300000000E+03 0.  1.
         -6    1    1    2    0  503 -0.61354408523E+02 -0.30260492284E+02  0.69533764775E+02  0.19860514918E+03  0.17300000000E+03 0. -1.
</event>
<event>
 4    1  0.6164307E+000  0.1000000E+03  0.7546771E-02  0.1280296E+00
         21   -1    0    0  501  502  0.00000000000E+00  0.00000000000E+00  0.36420729135E+03  0.36420729135E+03  0.00000000000E+00 0. -1.
         21   -1    0    0  502  503 -0.00000000000E+00 -0.00000000000E+00 -0.42125223478E+03  0.42125223478E+03  0.00000000000E+00 0.  1.
          6    1    1    2  501    0 -0.15084917360E+03 -0.31708953034E+03 -0.42447800995E+02  0.39374110686E+03  0.17300000000E+03 0.  1.
         -6    1    1    2    0  503  0.15084917360E+03  0.31708953034E+03 -0.14597142435E+02  0.39171841927E+03  0.17300000000E+03 0. -1.
</event>
<event>
 4    1  0.6164307E+000  0.1000000E+03  0.7546771E-02  0.1280296E+00
         21   -1    0    0  501  502  0.00000000000E+00  0.00000000000E+00  0.21767893686E+03  0.21767893686E+03  0.00000000000E+00 0. -1.
         21   -1    0    0  502  503 -0.00000000000E+00 -0.00000000000E+00 -0.14629646888E+03  0.14629646888E+03  0.00000000000E+00 0. -1.
          6    1    1    2  501    0  0.16065269150E+02  0.28253958261E+00  0.77222289395E+02  0.19013272912E+03  0.17300000000E+03 0. -1.
         -6    1    1    2    0  503 -0.16065269150E+02 -0.28253958261E+00 -0.58398214145E+01  0.17384267662E+03  0.17300000000E+03 0. -1.
</event>
<event>
 4    1  0.6164307E+000  0.1000000E+03  0.7546771E-02  0.1280296E+00
         21   -1    0    0  501  502  0.00000000000E+00  0.00000000000E+00  0.40921238653E+03  0.40921238653E+03  0.00000000000E+00 0.  1.
         21   -1    0    0  502  503 -0.00000000000E+00 -0.00000000000E+00 -0.33227435602E+03  0.33227435602E+03  0.00000000000E+00 0.  1.
          6    1    1    2  501    0  0.26097287007E+03  0.19437403580E+03  0.26005063774E+02  0.36945008871E+03  0.17300000000E+03 0.  1.
         -6    1    1    2    0  503 -0.26097287007E+03 -0.19437403580E+03  0.50932966738E+02  0.37203665384E+03  0.17300000000E+03 0.  1.
</event>
<event>
 4    1  0.6164307E+000  0.1000000E+03  0.7546771E-02  0.1280296E+00
         21   -1    0    0  501  502  0.00000000000E+00  0.00000000000E+00  0.13383789902E+03  0.13383789902E+03  0.00000000000E+00 0. -1.
         21   -1    0    0  502  503 -0.00000000000E+00 -0.00000000000E+00 -0.62082968305E+03  0.62082968305E+03  0.00000000000E+00 0. -1.
          6    1    1    2  501    0  0.47387819003E+01 -0.95547647305E+01  0.58001499027E+02  0.18277560962E+03  0.17300000000E+03 0.  1.
         -6    1    1    2    0  503 -0.47387819003E+01  0.95547647305E+01 -0.54499328305E+03  0.57189197245E+03  0.17300000000E+03 0.  1.
</event>
<event>
 4    1  0.6164307E+000  0.1000000E+03  0.7546771E-02  0.1280296E+00
         21   -1    0    0  501  502  0.00000000000E+00  0.00000000000E+00  0.79007963029E+03  0.79007963029E+03  0.00000000000E+00 0. -1.
         21   -1    0    0  502  503 -0.00000000000E+00 -0.00000000000E+00 -0.90481986972E+02  0.90481986972E+02  0.00000000000E+00 0. -1.
          6    1    1    2  501    0  0.89810595627E+02  0.14009762325E+02  0.65027789767E+03  0.67900851300E+03  0.17300000000E+03 0.  1.
         -6    1    1    2    0  503 -0.89810595627E+02 -0.14009762325E+02  0.49319745648E+02  0.20155310426E+03  0.17300000000E+03 0.  1.
</event>
<event>
 4    1  0.6164307E+000  0.1000000E+03  0.7546771E-02  0.1280296E+00
         21   -1    0    0  501  502  0.00000000000E+00  0.00000000000E+00  0.41614657035E+02  0.41614657035E+02  0.00000000000E+00 0. -1.
         21   -1    0    0  502  503 -0.00000000000E+00 -0.00000000000E+00 -0.10942609403E+04  0.10942609403E+04  0.00000000000E+00 0.  1.
          6    1    1    2  501    0  0.85022204572E+02 -0.71251474325E+02 -0.37337128801E+03  0.42619322680E+03  0.17300000000E+03 0.  1.
         -6    1    1    2    0  503 -0.85022204572E+02  0.71251474325E+02 -0.67927499526E+03  0.70968237053E+03  0.17300000000E+03 0. -1.
</event>
<event>
 4    1  0.6164307E+000  0.1000000E+03  0.7546771E-02  0.1280296E+00
         21   -1    0    0  501  502  0.00000000000E+00  0.00000000000E+00  0.81337575853E+03  0.81337575853E+03  0.00000000000E+00 0. -1.
         21   -1    0    0  502  503 -0.00000000000E+00 -0.00000000000E+00 -0.72967606208E+02  0.72967606208E+02  0.00000000000E+00 0.  1.
          6    1    1    2  501    0  0.12162066394E+03 -0.12248659391E+02  0.58909997281E+03  0.62602667157E+03  0.17300000000E+03 0.  1.
         -6    1    1    2    0  503 -0.12162066394E+03  0.12248659391E+02  0.15130817951E+03  0.26031669317E+03  0.17300000000E+03 0. -1.
</event>
<event>
 4    1  0.6164307E+000  0.1000000E+03  0.7546771E-02  0.1280296E+00
         21   -1    0    0  501  502  0.00000000000E+00  0.00000000000E+00  0.81475902083E+03  0.81475902083E+03  0.00000000000E+00 0. -1.
         21   -1    0    0  502  503 -0.00000000000E+00 -0.00000000000E+00 -0.44834427863E+03  0.44834427863E+03  0.00000000000E+00 0.  1.
          6    1    1    2  501    0 -0.22325440456E+03  0.18519314228E+03  0.70695187494E+03  0.78348515148E+03  0.17300000000E+03 0.  1.
         -6    1    1    2    0  503  0.22325440456E+03 -0.18519314228E+03 -0.34053713274E+03  0.47961814799E+03  0.17300000000E+03 0. -1.
</event>
<event>
 4    1  0.6164307E+000  0.1000000E+03  0.7546771E-02  0.1280296E+00
         21   -1    0    0  503  502  0.00000000000E+00  0.00000000000E+00  0.68848954184E+02  0.68848954184E+02  0.00000000000E+00 0. -1.
         21   -1    0    0  501  503 -0.00000000000E+00 -0.00000000000E+00 -0.71275567096E+03  0.71275567096E+03  0.00000000000E+00 0. -1.
          6    1    1    2  501    0  0.83521577776E+01 -0.33784206260E+02 -0.55819515174E+03  0.58542459682E+03  0.17300000000E+03 0. -1.
         -6    1    1    2    0  502 -0.83521577776E+01  0.33784206260E+02 -0.85711565031E+02  0.19618002832E+03  0.17300000000E+03 0. -1.
</event>
<event>
 4    1  0.6164307E+000  0.1000000E+03  0.7546771E-02  0.1280296E+00
         21   -1    0    0  503  502  0.00000000000E+00  0.00000000000E+00  0.17071443767E+03  0.17071443767E+03  0.00000000000E+00 0.  1.
         21   -1    0    0  501  503 -0.00000000000E+00 -0.00000000000E+00 -0.80454469010E+03  0.80454469010E+03  0.00000000000E+00 0. -1.
          6    1    1    2  501    0 -0.47438014539E+02  0.10112100946E+03 -0.72233992395E+03  0.75111902487E+03  0.17300000000E+03 0. -1.
         -6    1    1    2    0  502  0.47438014539E+02 -0.10112100946E+03  0.88509671523E+02  0.22414010291E+03  0.17300000000E+03 0.  1.
</event>
<event>
 4    1  0.6164307E+000  0.1000000E+03  0.7546771E-02  0.1280296E+00
         21   -1    0    0  501  502  0.00000000000E+00  0.00000000000E+00  0.38218063669E+03  0.38218063669E+03  0.00000000000E+00 0. -1.
         21   -1    0    0  502  503 -0.00000000000E+00 -0.00000000000E+00 -0.48225676289E+03  0.48225676289E+03  0.00000000000E+00 0.  1.
          6    1    1    2  501    0 -0.93312949087E+02  0.31446959476E+03  0.16771704284E+03  0.40700913866E+03  0.17300000000E+03 0. -1.
         -6    1    1    2    0  503  0.93312949087E+02 -0.31446959476E+03 -0.26779316905E+03  0.45742826092E+03  0.17300000000E+03 0.  1.
</event>
<event>
 4    1  0.6164307E+000  0.1000000E+03  0.7546771E-02  0.1280296E+00
         21   -1    0    0  501  502  0.00000000000E+00  0.00000000000E+00  0.19323566405E+03  0.19323566405E+03  0.00000000000E+00 0. -1.
         21   -1    0    0  502  503 -0.00000000000E+00 -0.00000000000E+00 -0.24212481716E+03  0.24212481716E+03  0.00000000000E+00 0.  1.
          6    1    1    2  501    0  0.44894964836E+02  0.55222129067E+02  0.84842764453E+02  0.20540773132E+03  0.17300000000E+03 0. -1.
         -6    1    1    2    0  503 -0.44894964836E+02 -0.55222129067E+02 -0.13373191756E+03  0.22995274989E+03  0.17300000000E+03 0.  1.
</event>
<event>
 4    1  0.6164307E+000  0.1000000E+03  0.7546771E-02  0.1280296E+00
         21   -1    0    0  501  502  0.00000000000E+00  0.00000000000E+00  0.43504035931E+03  0.43504035931E+03  0.00000000000E+00 0. -1.
         21   -1    0    0  502  503 -0.00000000000E+00 -0.00000000000E+00 -0.12884044811E+03  0.12884044811E+03  0.00000000000E+00 0.  1.
          6    1    1    2  501    0 -0.13073189034E+03  0.93770847734E+02  0.13472818226E+03  0.27196411920E+03  0.17300000000E+03 0. -1.
         -6    1    1    2    0  503  0.13073189034E+03 -0.93770847734E+02  0.17147172894E+03  0.29191668822E+03  0.17300000000E+03 0.  1.
</event>
<event>
 4    1  0.6164307E+000  0.1000000E+03  0.7546771E-02  0.1280296E+00
         21   -1    0    0  501  502  0.00000000000E+00  0.00000000000E+00  0.32796294706E+03  0.32796294706E+03  0.00000000000E+00 0. -1.
         21   -1    0    0  502  503 -0.00000000000E+00 -0.00000000000E+00 -0.11892180486E+03  0.11892180486E+03  0.00000000000E+00 0.  1.
          6    1    1    2  501    0 -0.42169424740E+02  0.62682848684E+02  0.17015778679E+03  0.25414576980E+03  0.17300000000E+03 0. -1.
         -6    1    1    2    0  503  0.42169424740E+02 -0.62682848684E+02  0.38883355411E+02  0.19273898212E+03  0.17300000000E+03 0.  1.
</event>
<event>
 4    1  0.6164307E+000  0.1000000E+03  0.7546771E-02  0.1280296E+00
         21   -1    0    0  501  502  0.00000000000E+00  0.00000000000E+00  0.20226328366E+04  0.20226328366E+04  0.00000000000E+00 0. -1.
         21   -1    0    0  502  503 -0.00000000000E+00 -0.00000000000E+00 -0.83155999600E+02  0.83155999600E+02  0.00000000000E+00 0.  1.
          6    1    1    2  501    0 -0.34412822176E+03 -0.10312913180E+03  0.12160564602E+04  0.12797586355E+04  0.17300000000E+03 0. -1.
         -6    1    1    2    0  503  0.34412822176E+03  0.10312913180E+03  0.72342037683E+03  0.82603020069E+03  0.17300000000E+03 0.  1.
</event>
<event>
 4    1  0.6164307E+000  0.1000000E+03  0.7546771E-02  0.1280296E+00
         21   -1    0    0  501  502  0.00000000000E+00  0.00000000000E+00  0.14999320649E+04  0.14999320649E+04  0.00000000000E+00 0. -1.
         21   -1    0    0  502  503 -0.00000000000E+00 -0.00000000000E+00 -0.14483424093E+03  0.14483424093E+03  0.00000000000E+00 0.  1.
          6    1    1    2  501    0  0.59336108290E+02 -0.18640582338E+03  0.13587274163E+04  0.13835957128E+04  0.17300000000E+03 0.  1.
         -6    1    1    2    0  503 -0.59336108290E+02  0.18640582338E+03 -0.36295922719E+01  0.26117059306E+03  0.17300000000E+03 0. -1.
</event>
<event>
 4    1  0.6164307E+000  0.1000000E+03  0.7546771E-02  0.1280296E+00
         21   -1    0    0  501  502  0.00000000000E+00  0.00000000000E+00  0.54693410363E+03  0.54693410363E+03  0.00000000000E+00 0. -1.
         21   -1    0    0  502  503 -0.00000000000E+00 -0.00000000000E+00 -0.49838774871E+03  0.49838774871E+03  0.00000000000E+00 0.  1.
          6    1    1    2  501    0  0.66212260692E+02  0.37026208239E+02  0.51152394450E+03  0.54528960136E+03  0.17300000000E+03 0.  1.
         -6    1    1    2    0  503 -0.66212260692E+02 -0.37026208239E+02 -0.46297758958E+03  0.50003225098E+03  0.17300000000E+03 0. -1.
</event>
<event>
 4    1  0.6164307E+000  0.1000000E+03  0.7546771E-02  0.1280296E+00
         21   -1    0    0  503  502  0.00000000000E+00  0.00000000000E+00  0.10731694802E+03  0.10731694802E+03  0.00000000000E+00 0.  1.
         21   -1    0    0  501  503 -0.00000000000E+00 -0.00000000000E+00 -0.10581453853E+04  0.10581453853E+04  0.00000000000E+00 0.  1.
          6    1    1    2  501    0  0.36909362244E+02 -0.15132793015E+03 -0.89675010083E+03  0.92647298223E+03  0.17300000000E+03 0.  1.
         -6    1    1    2    0  502 -0.36909362244E+02  0.15132793015E+03 -0.54078336461E+02  0.23898935110E+03  0.17300000000E+03 0.  1.
</event>
<event>
 4    1  0.6164307E+000  0.1000000E+03  0.7546771E-02  0.1280296E+00
         21   -1    0    0  501  502  0.00000000000E+00  0.00000000000E+00  0.54495509829E+03  0.54495509829E+03  0.00000000000E+00 0. -1.
         21   -1    0    0  502  503 -0.00000000000E+00 -0.00000000000E+00 -0.16956493373E+03  0.16956493373E+03  0.00000000000E+00 0. -1.
          6    1    1    2  501    0  0.83732540545E+02 -0.25315128868E+01  0.46446633803E+03  0.50266840568E+03  0.17300000000E+03 0. -1.
         -6    1    1    2    0  503 -0.83732540545E+02  0.25315128868E+01 -0.89076173475E+02  0.21185162634E+03  0.17300000000E+03 0. -1.
</event>
<event>
 4    1  0.6164307E+000  0.1000000E+03  0.7546771E-02  0.1280296E+00
         21   -1    0    0  501  502  0.00000000000E+00  0.00000000000E+00  0.58368813575E+02  0.58368813575E+02  0.00000000000E+00 0. -1.
         21   -1    0    0  502  503 -0.00000000000E+00 -0.00000000000E+00 -0.11871593108E+04  0.11871593108E+04  0.00000000000E+00 0.  1.
          6    1    1    2  501    0  0.10014262071E+03  0.83115397036E+02 -0.21009802316E+03  0.30167348747E+03  0.17300000000E+03 0. -1.
         -6    1    1    2    0  503 -0.10014262071E+03 -0.83115397036E+02 -0.91869247403E+03  0.94385463688E+03  0.17300000000E+03 0. -1.
</event>
<event>
 4    1  0.6164307E+000  0.1000000E+03  0.7546771E-02  0.1280296E+00
         21   -1    0    0  501  502  0.00000000000E+00  0.00000000000E+00  0.12764187933E+04  0.12764187933E+04  0.00000000000E+00 0. -1.
         21   -1    0    0  502  503 -0.00000000000E+00 -0.00000000000E+00 -0.35066725988E+02  0.35066725988E+02  0.00000000000E+00 0.  1.
          6    1    1    2  501    0 -0.55383248866E+02 -0.10769819307E+03  0.66044411036E+03  0.69338418496E+03  0.17300000000E+03 0. -1.
         -6    1    1    2    0  503  0.55383248866E+02  0.10769819307E+03  0.58090795694E+03  0.61810133432E+03  0.17300000000E+03 0. -1.
</event>
<event>
 4    1  0.6164307E+000  0.1000000E+03  0.7546771E-02  0.1280296E+00
         21   -1    0    0  501  502  0.00000000000E+00  0.00000000000E+00  0.21163433400E+03  0.21163433400E+03  0.00000000000E+00 0. -1.
         21   -1    0    0  502  503 -0.00000000000E+00 -0.00000000000E+00 -0.25427013704E+03  0.25427013704E+03  0.00000000000E+00 0.  1.
          6    1    1    2  501    0  0.77382638052E+02  0.46141079785E+01  0.11293885425E+03  0.22066614480E+03  0.17300000000E+03 0. -1.
         -6    1    1    2    0  503 -0.77382638052E+02 -0.46141079785E+01 -0.15557465729E+03  0.24523832623E+03  0.17300000000E+03 0. -1.
</event>
<event>
 4    1  0.6164307E+000  0.1000000E+03  0.7546771E-02  0.1280296E+00
         21   -1    0    0  501  502  0.00000000000E+00  0.00000000000E+00  0.99368762535E+03  0.99368762535E+03  0.00000000000E+00 0. -1.
         21   -1    0    0  502  503 -0.00000000000E+00 -0.00000000000E+00 -0.13081041200E+03  0.13081041200E+03  0.00000000000E+00 0. -1.
          6    1    1    2  501    0 -0.28525497844E+03 -0.61123551935E+02  0.24076458286E+03  0.41593638419E+03  0.17300000000E+03 0. -1.
         -6    1    1    2    0  503  0.28525497844E+03  0.61123551935E+02  0.62211263049E+03  0.70856165317E+03  0.17300000000E+03 0. -1.
</event>
<event>
 4    1  0.6164307E+000  0.1000000E+03  0.7546771E-02  0.1280296E+00
         21   -1    0    0  501  502  0.00000000000E+00  0.00000000000E+00  0.10935301638E+04  0.10935301638E+04  0.00000000000E+00 0. -1.
         21   -1    0    0  502  503 -0.00000000000E+00 -0.00000000000E+00 -0.15870860003E+03  0.15870860003E+03  0.00000000000E+00 0. -1.
          6    1    1    2  501    0  0.11331580064E+03 -0.32887998706E+03  0.69345772178E+03  0.79486799436E+03  0.17300000000E+03 0. -1.
         -6    1    1    2    0  503 -0.11331580064E+03  0.32887998706E+03  0.24136384203E+03  0.45737076951E+03  0.17300000000E+03 0. -1.
</event>
<event>
 4    1  0.6164307E+000  0.1000000E+03  0.7546771E-02  0.1280296E+00
         21   -1    0    0  503  502  0.00000000000E+00  0.00000000000E+00  0.11654914477E+03  0.11654914477E+03  0.00000000000E+00 0.  1.
         21   -1    0    0  501  503 -0.00000000000E+00 -0.00000000000E+00 -0.46842762822E+03  0.46842762822E+03  0.00000000000E+00 0.  1.
          6    1    1    2  501    0  0.78255364889E+02  0.82239621242E+02 -0.31179540183E+03  0.37420933986E+03  0.17300000000E+03 0.  1.
         -6    1    1    2    0  502 -0.78255364889E+02 -0.82239621242E+02 -0.40083081626E+02  0.21076743313E+03  0.17300000000E+03 0.  1.
</event>
<event>
 4    1  0.6164307E+000  0.1000000E+03  0.7546771E-02  0.1280296E+00
         21   -1    0    0  503  502  0.00000000000E+00  0.00000000000E+00  0.18970108025E+03  0.18970108025E+03  0.00000000000E+00 0.  1.
         21   -1    0    0  501  503 -0.00000000000E+00 -0.00000000000E+00 -0.75968303648E+03  0.75968303648E+03  0.00000000000E+00 0.  1.
          6    1    1    2  501    0  0.32402968868E+02  0.53627603446E+02 -0.70019882369E+03  0.72397048623E+03  0.17300000000E+03 0.  1.
         -6    1    1    2    0  502 -0.32402968868E+02 -0.53627603446E+02  0.13021686746E+03  0.22541363050E+03  0.17300000000E+03 0.  1.
</event>
<event>
 4    1  0.6164307E+000  0.1000000E+03  0.7546771E-02  0.1280296E+00
         21   -1    0    0  503  502  0.00000000000E+00  0.00000000000E+00  0.11183287542E+04  0.11183287542E+04  0.00000000000E+00 0.  1.
         21   -1    0    0  501  503 -0.00000000000E+00 -0.00000000000E+00 -0.62452289296E+02  0.62452289296E+02  0.00000000000E+00 0.  1.
          6    1    1    2  501    0 -0.17777236802E+03 -0.76822088810E+02  0.41830111043E+03  0.49235095932E+03  0.17300000000E+03 0.  1.
         -6    1    1    2    0  502  0.17777236802E+03  0.76822088810E+02  0.63757535452E+03  0.68843008421E+03  0.17300000000E+03 0.  1.
</event>
<event>
 4    1  0.6164307E+000  0.1000000E+03  0.7546771E-02  0.1280296E+00
         21   -1    0    0  503  502  0.00000000000E+00  0.00000000000E+00  0.13734684684E+03  0.13734684684E+03  0.00000000000E+00 0.  1.
         21   -1    0    0  501  503 -0.00000000000E+00 -0.00000000000E+00 -0.48365239076E+03  0.48365239076E+03  0.00000000000E+00 0. -1.
          6    1    1    2  501    0  0.20027514522E+02  0.13925644039E+03 -0.32886296649E+03  0.39733274249E+03  0.17300000000E+03 0. -1.
         -6    1    1    2    0  502 -0.20027514522E+02 -0.13925644039E+03 -0.17442577428E+02  0.22366649511E+03  0.17300000000E+03 0.  1.
</event>
<event>
 4    1  0.6164307E+000  0.1000000E+03  0.7546771E-02  0.1280296E+00
         21   -1    0    0  503  502  0.00000000000E+00  0.00000000000E+00  0.23663209312E+03  0.23663209312E+03  0.00000000000E+00 0.  1.
         21   -1    0    0  501  503 -0.00000000000E+00 -0.00000000000E+00 -0.38426138699E+03  0.38426138699E+03  0.00000000000E+00 0. -1.
          6    1    1    2  501    0 -0.16570444511E+03  0.18292665939E+03 -0.64637976518E+02  0.30826481124E+03  0.17300000000E+03 0. -1.
         -6    1    1    2    0  502  0.16570444511E+03 -0.18292665939E+03 -0.82991317343E+02  0.31262866887E+03  0.17300000000E+03 0.  1.
</event>
<event>
 4    1  0.6164307E+000  0.1000000E+03  0.7546771E-02  0.1280296E+00
         21   -1    0    0  501  502  0.00000000000E+00  0.00000000000E+00  0.31531907246E+03  0.31531907246E+03  0.00000000000E+00 0. -1.
         21   -1    0    0  502  503 -0.00000000000E+00 -0.00000000000E+00 -0.15127237125E+03  0.15127237125E+03  0.00000000000E+00 0. -1.
          6    1    1    2  501    0 -0.59282324856E+02  0.24683757415E+02  0.20680784031E+03  0.27716811638E+03  0.17300000000E+03 0. -1.
         -6    1    1    2    0  503  0.59282324856E+02 -0.24683757415E+02 -0.42761139112E+02  0.18942332733E+03  0.17300000000E+03 0. -1.
</event>
<event>
 4    1  0.6164307E+000  0.1000000E+03  0.7546771E-02  0.1280296E+00
         21   -1    0    0  501  502  0.00000000000E+00  0.00000000000E+00  0.36553892465E+03  0.36553892465E+03  0.00000000000E+00 0. -1.
         21   -1    0    0  502  503 -0.00000000000E+00 -0.00000000000E+00 -0.43513284660E+03  0.43513284660E+03  0.00000000000E+00 0. -1.
          6    1    1    2  501    0 -0.14159646253E+03  0.28014192350E+03  0.14079597525E+03  0.38507345033E+03  0.17300000000E+03 0. -1.
         -6    1    1    2    0  503  0.14159646253E+03 -0.28014192350E+03 -0.21038989720E+03  0.41559832092E+03  0.17300000000E+03 0. -1.
</event>
<event>
 4    1  0.6164307E+000  0.1000000E+03  0.7546771E-02  0.1280296E+00
         21   -1    0    0  501  502  0.00000000000E+00  0.00000000000E+00  0.11758621368E+04  0.11758621368E+04  0.00000000000E+00 0.  1.
         21   -1    0    0  502  503 -0.00000000000E+00 -0.00000000000E+00 -0.77905848955E+02  0.77905848955E+02  0.00000000000E+00 0.  1.
          6    1    1    2  501    0  0.23071931668E+03  0.76612611008E+02  0.65411404725E+03  0.71895415853E+03  0.17300000000E+03 0.  1.
         -6    1    1    2    0  503 -0.23071931668E+03 -0.76612611008E+02  0.44384224060E+03  0.53481382723E+03  0.17300000000E+03 0.  1.
</event>
<event>
 4    1  0.6164307E+000  0.1000000E+03  0.7546771E-02  0.1280296E+00
         21   -1    0    0  503  502  0.00000000000E+00  0.00000000000E+00  0.13522959316E+03  0.13522959316E+03  0.00000000000E+00 0.  1.
         21   -1    0    0  501  503 -0.00000000000E+00 -0.00000000000E+00 -0.47114147484E+03  0.47114147484E+03  0.00000000000E+00 0.  1.
          6    1    1    2  501    0 -0.13417366609E+03 -0.99846898272E+02 -0.76390125347E+02  0.25246074352E+03  0.17300000000E+03 0.  1.
         -6    1    1    2    0  502  0.13417366609E+03  0.99846898272E+02 -0.25952175633E+03  0.35391032448E+03  0.17300000000E+03 0.  1.
</event>
<event>
 4    1  0.6164307E+000  0.1000000E+03  0.7546771E-02  0.1280296E+00
         21   -1    0    0  503  502  0.00000000000E+00  0.00000000000E+00  0.25680800128E+04  0.25680800128E+04  0.00000000000E+00 0.  1.
         21   -1    0    0  501  503 -0.00000000000E+00 -0.00000000000E+00 -0.19483150420E+02  0.19483150420E+02  0.00000000000E+00 0.  1.
          6    1    1    2  501    0  0.13528694844E+03  0.17209970681E+01  0.15196763464E+04  0.15354643331E+04  0.17300000000E+03 0.  1.
         -6    1    1    2    0  502 -0.13528694844E+03 -0.17209970681E+01  0.10289205160E+04  0.10520988302E+04  0.17300000000E+03 0.  1.
</event>
<event>
 4    1  0.6164307E+000  0.1000000E+03  0.7546771E-02  0.1280296E+00
         21   -1    0    0  503  502  0.00000000000E+00  0.00000000000E+00  0.18279927082E+03  0.18279927082E+03  0.00000000000E+00 0. -1.
         21   -1    0    0  501  503 -0.00000000000E+00 -0.00000000000E+00 -0.17533059235E+03  0.17533059235E+03  0.00000000000E+00 0. -1.
          6    1    1    2  501    0  0.14536364160E+02 -0.63306866030E+00 -0.39974111358E+02  0.17815340647E+03  0.17300000000E+03 0. -1.
         -6    1    1    2    0  502 -0.14536364160E+02  0.63306866030E+00  0.47442789827E+02  0.17997645670E+03  0.17300000000E+03 0. -1.
</event>
<event>
 4    1  0.6164307E+000  0.1000000E+03  0.7546771E-02  0.1280296E+00
         21   -1    0    0  503  502  0.00000000000E+00  0.00000000000E+00  0.42125057437E+03  0.42125057437E+03  0.00000000000E+00 0. -1.
         21   -1    0    0  501  503 -0.00000000000E+00 -0.00000000000E+00 -0.11636423042E+03  0.11636423042E+03  0.00000000000E+00 0. -1.
          6    1    1    2  501    0 -0.96445122267E+02 -0.93782606955E+02  0.19069581649E+03  0.29050083202E+03  0.17300000000E+03 0. -1.
         -6    1    1    2    0  502  0.96445122267E+02  0.93782606955E+02  0.11419052746E+03  0.24711397277E+03  0.17300000000E+03 0. -1.
</event>
<event>
 4    1  0.6164307E+000  0.1000000E+03  0.7546771E-02  0.1280296E+00
         21   -1    0    0  503  502  0.00000000000E+00  0.00000000000E+00  0.42091869407E+03  0.42091869407E+03  0.00000000000E+00 0.  1.
         21   -1    0    0  501  503 -0.00000000000E+00 -0.00000000000E+00 -0.52037496212E+03  0.52037496212E+03  0.00000000000E+00 0.  1.
          6    1    1    2  501    0 -0.17049284259E+03 -0.96000646679E+02 -0.44027312085E+03  0.51191147133E+03  0.17300000000E+03 0.  1.
         -6    1    1    2    0  502  0.17049284259E+03  0.96000646679E+02  0.34081685279E+03  0.42938218487E+03  0.17300000000E+03 0.  1.
</event>
<event>
 4    1  0.6164307E+000  0.1000000E+03  0.7546771E-02  0.1280296E+00
         21   -1    0    0  503  502  0.00000000000E+00  0.00000000000E+00  0.33658907797E+03  0.33658907797E+03  0.00000000000E+00 0.  1.
         21   -1    0    0  501  503 -0.00000000000E+00 -0.00000000000E+00 -0.52290844810E+03  0.52290844810E+03  0.00000000000E+00 0.  1.
          6    1    1    2  501    0  0.30787940465E+03 -0.32790652185E+02 -0.32269663472E+03  0.47950711438E+03  0.17300000000E+03 0.  1.
         -6    1    1    2    0  502 -0.30787940465E+03  0.32790652185E+02  0.13637726459E+03  0.37999041169E+03  0.17300000000E+03 0.  1.
</event>
<event>
 4    1  0.6164307E+000  0.1000000E+03  0.7546771E-02  0.1280296E+00
         21   -1    0    0  503  502  0.00000000000E+00  0.00000000000E+00  0.48678090727E+03  0.48678090727E+03  0.00000000000E+00 0.  1.
         21   -1    0    0  501  503 -0.00000000000E+00 -0.00000000000E+00 -0.18497101155E+03  0.18497101155E+03  0.00000000000E+00 0.  1.
          6    1    1    2  501    0  0.14786278027E+03 -0.16043970947E+03  0.27608578173E+03  0.39211817228E+03  0.17300000000E+03 0.  1.
         -6    1    1    2    0  502 -0.14786278027E+03  0.16043970947E+03  0.25724113994E+02  0.27963374654E+03  0.17300000000E+03 0.  1.
</event>
<event>
 4    1  0.6164307E+000  0.1000000E+03  0.7546771E-02  0.1280296E+00
         21   -1    0    0  503  502  0.00000000000E+00  0.00000000000E+00  0.24700724139E+03  0.24700724139E+03  0.00000000000E+00 0.  1.
         21   -1    0    0  501  503 -0.00000000000E+00 -0.00000000000E+00 -0.21725813647E+03  0.21725813647E+03  0.00000000000E+00 0.  1.
          6    1    1    2  501    0  0.17463422192E+02 -0.37995808742E+01 -0.13846320019E+03  0.22230714279E+03  0.17300000000E+03 0.  1.
         -6    1    1    2    0  502 -0.17463422192E+02  0.37995808742E+01  0.16821230511E+03  0.24195823507E+03  0.17300000000E+03 0.  1.
</event>
<event>
 4    1  0.6164307E+000  0.1000000E+03  0.7546771E-02  0.1280296E+00
         21   -1    0    0  503  502  0.00000000000E+00  0.00000000000E+00  0.15852801908E+03  0.15852801908E+03  0.00000000000E+00 0. -1.
         21   -1    0    0  501  503 -0.00000000000E+00 -0.00000000000E+00 -0.25304868712E+03  0.25304868712E+03  0.00000000000E+00 0. -1.
          6    1    1    2  501    0 -0.12907126842E+02  0.92019025673E+02 -0.87740404672E+02  0.21508480565E+03  0.17300000000E+03 0. -1.
         -6    1    1    2    0  502  0.12907126842E+02 -0.92019025673E+02 -0.67802633685E+01  0.19649190055E+03  0.17300000000E+03 0. -1.
</event>
<event>
 4    1  0.6164307E+000  0.1000000E+03  0.7546771E-02  0.1280296E+00
         21   -1    0    0  503  502  0.00000000000E+00  0.00000000000E+00  0.21217924895E+04  0.21217924895E+04  0.00000000000E+00 0. -1.
         21   -1    0    0  501  503 -0.00000000000E+00 -0.00000000000E+00 -0.28847584160E+03  0.28847584160E+03  0.00000000000E+00 0. -1.
          6    1    1    2  501    0  0.93583504851E+01  0.20266533881E+03 -0.21633218000E+03  0.34335030272E+03  0.17300000000E+03 0. -1.
         -6    1    1    2    0  502 -0.93583504851E+01 -0.20266533881E+03  0.20496488279E+04  0.20669180283E+04  0.17300000000E+03 0. -1.
</event>
<event>
 4    1  0.6164307E+000  0.1000000E+03  0.7546771E-02  0.1280296E+00
         21   -1    0    0  503  502  0.00000000000E+00  0.00000000000E+00  0.43923831654E+03  0.43923831654E+03  0.00000000000E+00 0. -1.
         21   -1    0    0  501  503 -0.00000000000E+00 -0.00000000000E+00 -0.35693105380E+03  0.35693105380E+03  0.00000000000E+00 0. -1.
          6    1    1    2  501    0  0.33200505438E+03  0.59415678808E+02  0.15618682865E+03  0.40997671210E+03  0.17300000000E+03 0. -1.
         -6    1    1    2    0  502 -0.33200505438E+03 -0.59415678808E+02 -0.73879565908E+02  0.38619265824E+03  0.17300000000E+03 0. -1.
</event>
<event>
 4    1  0.6164307E+000  0.1000000E+03  0.7546771E-02  0.1280296E+00
         21   -1    0    0  501  502  0.00000000000E+00  0.00000000000E+00  0.47740514446E+03  0.47740514446E+03  0.00000000000E+00 0. -1.
         21   -1    0    0  502  503 -0.00000000000E+00 -0.00000000000E+00 -0.16174301226E+03  0.16174301226E+03  0.00000000000E+00 0. -1.
          6    1    1    2  501    0 -0.77583852145E+02 -0.18073262084E+03  0.51152829651E+02  0.26688789094E+03  0.17300000000E+03 0. -1.
         -6    1    1    2    0  503  0.77583852145E+02  0.18073262084E+03  0.26450930254E+03  0.37226026578E+03  0.17300000000E+03 0. -1.
</event>
<event>
 4    1  0.6164307E+000  0.1000000E+03  0.7546771E-02  0.1280296E+00
         21   -1    0    0  503  502  0.00000000000E+00  0.00000000000E+00  0.49674209780E+03  0.49674209780E+03  0.00000000000E+00 0. -1.
         21   -1    0    0  501  503 -0.00000000000E+00 -0.00000000000E+00 -0.10540809587E+03  0.10540809587E+03  0.00000000000E+00 0.  1.
          6    1    1    2  501    0 -0.13602341663E+03 -0.58906888694E+02  0.22386353020E+03  0.31939986155E+03  0.17300000000E+03 0. -1.
         -6    1    1    2    0  502  0.13602341663E+03  0.58906888694E+02  0.16747047174E+03  0.28275033211E+03  0.17300000000E+03 0. -1.
</event>
<event>
 4    1  0.6164307E+000  0.1000000E+03  0.7546771E-02  0.1280296E+00
         21   -1    0    0  503  502  0.00000000000E+00  0.00000000000E+00  0.55862600154E+02  0.55862600154E+02  0.00000000000E+00 0. -1.
         21   -1    0    0  501  503 -0.00000000000E+00 -0.00000000000E+00 -0.13344289152E+04  0.13344289152E+04  0.00000000000E+00 0.  1.
          6    1    1    2  501    0  0.23228606707E+02 -0.83222108516E+02 -0.14854700799E+03  0.24384565015E+03  0.17300000000E+03 0. -1.
         -6    1    1    2    0  502 -0.23228606707E+02  0.83222108516E+02 -0.11300193071E+04  0.11464458652E+04  0.17300000000E+03 0. -1.
</event>
<event>
 4    1  0.6164307E+000  0.1000000E+03  0.7546771E-02  0.1280296E+00
         21   -1    0    0  503  502  0.00000000000E+00  0.00000000000E+00  0.48967947002E+03  0.48967947002E+03  0.00000000000E+00 0. -1.
         21   -1    0    0  501  503 -0.00000000000E+00 -0.00000000000E+00 -0.76427305861E+02  0.76427305861E+02  0.00000000000E+00 0.  1.
          6    1    1    2  501    0  0.69248907263E+02  0.42190370672E+02  0.16223590866E+03  0.25064901474E+03  0.17300000000E+03 0. -1.
         -6    1    1    2    0  502 -0.69248907263E+02 -0.42190370672E+02  0.25101625550E+03  0.31545776113E+03  0.17300000000E+03 0. -1.
</event>
<event>
 4    1  0.6164307E+000  0.1000000E+03  0.7546771E-02  0.1280296E+00
         21   -1    0    0  501  502  0.00000000000E+00  0.00000000000E+00  0.30959883601E+02  0.30959883601E+02  0.00000000000E+00 0. -1.
         21   -1    0    0  502  503 -0.00000000000E+00 -0.00000000000E+00 -0.24849001094E+04  0.24849001094E+04  0.00000000000E+00 0. -1.
          6    1    1    2  501    0  0.44949821388E+01 -0.15661611546E+03 -0.54737049132E+03  0.59505652442E+03  0.17300000000E+03 0. -1.
         -6    1    1    2    0  503 -0.44949821388E+01  0.15661611546E+03 -0.19065697345E+04  0.19208034686E+04  0.17300000000E+03 0. -1.
</event>
<event>
 4    1  0.6164307E+000  0.1000000E+03  0.7546771E-02  0.1280296E+00
         21   -1    0    0  503  502  0.00000000000E+00  0.00000000000E+00  0.24160441578E+03  0.24160441578E+03  0.00000000000E+00 0.  1.
         21   -1    0    0  501  503 -0.00000000000E+00 -0.00000000000E+00 -0.82725819028E+03  0.82725819028E+03  0.00000000000E+00 0.  1.
          6    1    1    2  501    0 -0.99603586217E+02  0.13908429930E+03 -0.74118728647E+03  0.78009801328E+03  0.17300000000E+03 0.  1.
         -6    1    1    2    0  502  0.99603586217E+02 -0.13908429930E+03  0.15553351197E+03  0.28876459278E+03  0.17300000000E+03 0.  1.
</event>
<event>
 4    1  0.6164307E+000  0.1000000E+03  0.7546771E-02  0.1280296E+00
         21   -1    0    0  503  502  0.00000000000E+00  0.00000000000E+00  0.24167217573E+03  0.24167217573E+03  0.00000000000E+00 0.  1.
         21   -1    0    0  501  503 -0.00000000000E+00 -0.00000000000E+00 -0.25162295148E+03  0.25162295148E+03  0.00000000000E+00 0.  1.
          6    1    1    2  501    0 -0.15192124159E+03  0.80759228295E+02 -0.40747866974E+02  0.24736916797E+03  0.17300000000E+03 0.  1.
         -6    1    1    2    0  502  0.15192124159E+03 -0.80759228295E+02  0.30797091222E+02  0.24592595924E+03  0.17300000000E+03 0.  1.
</event>
<event>
 4    1  0.6164307E+000  0.1000000E+03  0.7546771E-02  0.1280296E+00
         21   -1    0    0  501  502  0.00000000000E+00  0.00000000000E+00  0.35853140302E+03  0.35853140302E+03  0.00000000000E+00 0. -1.
         21   -1    0    0  502  503 -0.00000000000E+00 -0.00000000000E+00 -0.53240473503E+03  0.53240473503E+03  0.00000000000E+00 0. -1.
          6    1    1    2  501    0 -0.14157490298E+03  0.19128051427E+03  0.24238653294E+03  0.38119800582E+03  0.17300000000E+03 0.  1.
         -6    1    1    2    0  503  0.14157490298E+03 -0.19128051427E+03 -0.41625986494E+03  0.50973813223E+03  0.17300000000E+03 0.  1.
</event>
<event>
 4    1  0.6164307E+000  0.1000000E+03  0.7546771E-02  0.1280296E+00
         21   -1    0    0  501  502  0.00000000000E+00  0.00000000000E+00  0.37166300392E+03  0.37166300392E+03  0.00000000000E+00 0.  1.
         21   -1    0    0  502  503 -0.00000000000E+00 -0.00000000000E+00 -0.24169037517E+03  0.24169037517E+03  0.00000000000E+00 0.  1.
          6    1    1    2  501    0 -0.11468559937E+03 -0.59937207956E+02  0.27754678301E+03  0.35171930905E+03  0.17300000000E+03 0. -1.
         -6    1    1    2    0  503  0.11468559937E+03  0.59937207956E+02 -0.14757415425E+03  0.26163407004E+03  0.17300000000E+03 0. -1.
</event>
<event>
 4    1  0.6164307E+000  0.1000000E+03  0.7546771E-02  0.1280296E+00
         21   -1    0    0  501  502  0.00000000000E+00  0.00000000000E+00  0.19967088399E+03  0.19967088399E+03  0.00000000000E+00 0.  1.
         21   -1    0    0  502  503 -0.00000000000E+00 -0.00000000000E+00 -0.48045876990E+03  0.48045876990E+03  0.00000000000E+00 0.  1.
          6    1    1    2  501    0 -0.84484280736E+02 -0.59257657868E+02  0.11792539596E+03  0.23341907103E+03  0.17300000000E+03 0. -1.
         -6    1    1    2    0  503  0.84484280736E+02  0.59257657868E+02 -0.39871328187E+03  0.44671058287E+03  0.17300000000E+03 0. -1.
</event>
<event>
 4    1  0.6164307E+000  0.1000000E+03  0.7546771E-02  0.1280296E+00
         21   -1    0    0  503  502  0.00000000000E+00  0.00000000000E+00  0.95734085132E+03  0.95734085132E+03  0.00000000000E+00 0. -1.
         21   -1    0    0  501  503 -0.00000000000E+00 -0.00000000000E+00 -0.52676506399E+02  0.52676506399E+02  0.00000000000E+00 0. -1.
          6    1    1    2  501    0 -0.23090122622E+01  0.12777248969E+03  0.59753833019E+03  0.63506865512E+03  0.17300000000E+03 0. -1.
         -6    1    1    2    0  502  0.23090122622E+01 -0.12777248969E+03  0.30712601472E+03  0.37494870260E+03  0.17300000000E+03 0. -1.
</event>
<event>
 4    1  0.6164307E+000  0.1000000E+03  0.7546771E-02  0.1280296E+00
         21   -1    0    0  503  502  0.00000000000E+00  0.00000000000E+00  0.30449024294E+03  0.30449024294E+03  0.00000000000E+00 0. -1.
         21   -1    0    0  501  503 -0.00000000000E+00 -0.00000000000E+00 -0.43083149361E+03  0.43083149361E+03  0.00000000000E+00 0. -1.
          6    1    1    2  501    0 -0.14773191966E+03 -0.27131355968E+03 -0.14060598600E+03  0.38096562975E+03  0.17300000000E+03 0. -1.
         -6    1    1    2    0  502  0.14773191966E+03  0.27131355968E+03  0.14264735337E+02  0.35435610680E+03  0.17300000000E+03 0. -1.
</event>
<event>
 4    1  0.6164307E+000  0.1000000E+03  0.7546771E-02  0.1280296E+00
         21   -1    0    0  503  502  0.00000000000E+00  0.00000000000E+00  0.17357059540E+04  0.17357059540E+04  0.00000000000E+00 0. -1.
         21   -1    0    0  501  503 -0.00000000000E+00 -0.00000000000E+00 -0.27507591204E+02  0.27507591204E+02  0.00000000000E+00 0. -1.
          6    1    1    2  501    0 -0.41549536972E+02 -0.10344387195E+03  0.11502877724E+04  0.11685537891E+04  0.17300000000E+03 0. -1.
         -6    1    1    2    0  502  0.41549536972E+02  0.10344387195E+03  0.55791059046E+03  0.59465975617E+03  0.17300000000E+03 0. -1.
</event>
<event>
 4    1  0.6164307E+000  0.1000000E+03  0.7546771E-02  0.1280296E+00
         21   -1    0    0  503  502  0.00000000000E+00  0.00000000000E+00  0.71870808779E+03  0.71870808779E+03  0.00000000000E+00 0. -1.
         21   -1    0    0  501  503 -0.00000000000E+00 -0.00000000000E+00 -0.95005280964E+02  0.95005280964E+02  0.00000000000E+00 0.  1.
          6    1    1    2  501    0  0.19798322983E+02 -0.11197415658E+03  0.63598043330E+02  0.21657307416E+03  0.17300000000E+03 0.  1.
         -6    1    1    2    0  502 -0.19798322983E+02  0.11197415658E+03  0.56010476349E+03  0.59714029459E+03  0.17300000000E+03 0. -1.
</event>
<event>
 4    1  0.6164307E+000  0.1000000E+03  0.7546771E-02  0.1280296E+00
         21   -1    0    0  503  502  0.00000000000E+00  0.00000000000E+00  0.87691507265E+03  0.87691507265E+03  0.00000000000E+00 0.  1.
         21   -1    0    0  501  503 -0.00000000000E+00 -0.00000000000E+00 -0.63396865402E+02  0.63396865402E+02  0.00000000000E+00 0.  1.
          6    1    1    2  501    0  0.43954506378E+02  0.55817711089E+02  0.12044511294E+03  0.22244918686E+03  0.17300000000E+03 0.  1.
         -6    1    1    2    0  502 -0.43954506378E+02 -0.55817711089E+02  0.69307309430E+03  0.71786275119E+03  0.17300000000E+03 0.  1.
</event>
<event>
 4    1  0.6164307E+000  0.1000000E+03  0.7546771E-02  0.1280296E+00
         21   -1    0    0  503  502  0.00000000000E+00  0.00000000000E+00  0.18271565650E+03  0.18271565650E+03  0.00000000000E+00 0.  1.
         21   -1    0    0  501  503 -0.00000000000E+00 -0.00000000000E+00 -0.94345782987E+03  0.94345782987E+03  0.00000000000E+00 0.  1.
          6    1    1    2  501    0 -0.24599767664E+03  0.20680007258E+03 -0.64879876513E+03  0.74441249625E+03  0.17300000000E+03 0.  1.
         -6    1    1    2    0  502  0.24599767664E+03 -0.20680007258E+03 -0.11194340824E+03  0.38176099012E+03  0.17300000000E+03 0.  1.
</event>
<event>
 4    1  0.6164307E+000  0.1000000E+03  0.7546771E-02  0.1280296E+00
         21   -1    0    0  503  502  0.00000000000E+00  0.00000000000E+00  0.30154935915E+02  0.30154935915E+02  0.00000000000E+00 0.  1.
         21   -1    0    0  501  503 -0.00000000000E+00 -0.00000000000E+00 -0.14774652546E+04  0.14774652546E+04  0.00000000000E+00 0.  1.
          6    1    1    2  501    0  0.33775243263E+02  0.10009589603E+03 -0.93384305149E+03  0.95558976568E+03  0.17300000000E+03 0.  1.
         -6    1    1    2    0  502 -0.33775243263E+02 -0.10009589603E+03 -0.51346726716E+03  0.55203042480E+03  0.17300000000E+03 0.  1.
</event>
<event>
 4    1  0.6164307E+000  0.1000000E+03  0.7546771E-02  0.1280296E+00
         21   -1    0    0  503  502  0.00000000000E+00  0.00000000000E+00  0.87970496739E+02  0.87970496739E+02  0.00000000000E+00 0. -1.
         21   -1    0    0  501  503 -0.00000000000E+00 -0.00000000000E+00 -0.48594513821E+03  0.48594513821E+03  0.00000000000E+00 0. -1.
          6    1    1    2  501    0 -0.18771163010E+02  0.66252075137E+02 -0.32372901461E+03  0.37345838981E+03  0.17300000000E+03 0. -1.
         -6    1    1    2    0  502  0.18771163010E+02 -0.66252075137E+02 -0.74245626866E+02  0.20045724514E+03  0.17300000000E+03 0. -1.
</event>
<event>
 4    1  0.6164307E+000  0.1000000E+03  0.7546771E-02  0.1280296E+00
         21   -1    0    0  503  502  0.00000000000E+00  0.00000000000E+00  0.87460188812E+02  0.87460188812E+02  0.00000000000E+00 0. -1.
         21   -1    0    0  501  503 -0.00000000000E+00 -0.00000000000E+00 -0.10034008634E+04  0.10034008634E+04  0.00000000000E+00 0. -1.
          6    1    1    2  501    0 -0.39830249436E+02  0.23053277695E+03 -0.56043046847E+03  0.63146109937E+03  0.17300000000E+03 0. -1.
         -6    1    1    2    0  502  0.39830249436E+02 -0.23053277695E+03 -0.35551020611E+03  0.45939995284E+03  0.17300000000E+03 0. -1.
</event>
<event>
 4    1  0.6164307E+000  0.1000000E+03  0.7546771E-02  0.1280296E+00
         21   -1    0    0  503  502  0.00000000000E+00  0.00000000000E+00  0.31252652684E+03  0.31252652684E+03  0.00000000000E+00 0. -1.
         21   -1    0    0  501  503 -0.00000000000E+00 -0.00000000000E+00 -0.10802298000E+03  0.10802298000E+03  0.00000000000E+00 0. -1.
          6    1    1    2  501    0  0.22344233135E+02 -0.16590739280E+02  0.38981472573E+02  0.17950786219E+03  0.17300000000E+03 0. -1.
         -6    1    1    2    0  502 -0.22344233135E+02  0.16590739280E+02  0.16552207427E+03  0.24104164465E+03  0.17300000000E+03 0. -1.
</event>
<event>
 4    1  0.6164307E+000  0.1000000E+03  0.7546771E-02  0.1280296E+00
         21   -1    0    0  501  502  0.00000000000E+00  0.00000000000E+00  0.33641562183E+03  0.33641562183E+03  0.00000000000E+00 0. -1.
         21   -1    0    0  502  503 -0.00000000000E+00 -0.00000000000E+00 -0.36133234971E+03  0.36133234971E+03  0.00000000000E+00 0. -1.
          6    1    1    2  501    0  0.99954530708E+02  0.53959407091E+01  0.27339653763E+03  0.33866604668E+03  0.17300000000E+03 0. -1.
         -6    1    1    2    0  503 -0.99954530708E+02 -0.53959407091E+01 -0.29831326551E+03  0.35908192486E+03  0.17300000000E+03 0. -1.
</event>
<event>
 4    1  0.6164307E+000  0.1000000E+03  0.7546771E-02  0.1280296E+00
         21   -1    0    0  501  502  0.00000000000E+00  0.00000000000E+00  0.30890879216E+02  0.30890879216E+02  0.00000000000E+00 0. -1.
         21   -1    0    0  502  503 -0.00000000000E+00 -0.00000000000E+00 -0.17998218201E+04  0.17998218201E+04  0.00000000000E+00 0. -1.
          6    1    1    2  501    0  0.42462128924E+02 -0.72965931047E+02 -0.35585127929E+03  0.40458150286E+03  0.17300000000E+03 0. -1.
         -6    1    1    2    0  503 -0.42462128924E+02  0.72965931047E+02 -0.14130796616E+04  0.14261311964E+04  0.17300000000E+03 0. -1.
</event>
<event>
 4    1  0.6164307E+000  0.1000000E+03  0.7546771E-02  0.1280296E+00
         21   -1    0    0  501  502  0.00000000000E+00  0.00000000000E+00  0.18988737553E+03  0.18988737553E+03  0.00000000000E+00 0. -1.
         21   -1    0    0  502  503 -0.00000000000E+00 -0.00000000000E+00 -0.25368603102E+03  0.25368603102E+03  0.00000000000E+00 0. -1.
          6    1    1    2  501    0 -0.62910091580E+01  0.13413860049E+03 -0.46544135485E+02  0.22389304922E+03  0.17300000000E+03 0. -1.
         -6    1    1    2    0  503  0.62910091580E+01 -0.13413860049E+03 -0.17254520003E+02  0.21968035734E+03  0.17300000000E+03 0. -1.
</event>
<event>
 4    1  0.6164307E+000  0.1000000E+03  0.7546771E-02  0.1280296E+00
         21   -1    0    0  501  502  0.00000000000E+00  0.00000000000E+00  0.57063921771E+03  0.57063921771E+03  0.00000000000E+00 0.  1.
         21   -1    0    0  502  503 -0.00000000000E+00 -0.00000000000E+00 -0.13661109248E+03  0.13661109248E+03  0.00000000000E+00 0.  1.
          6    1    1    2  501    0  0.15217520008E+02  0.19340739971E+03  0.87922173793E+02  0.27440354193E+03  0.17300000000E+03 0.  1.
         -6    1    1    2    0  503 -0.15217520008E+02 -0.19340739971E+03  0.34610595143E+03  0.43284676826E+03  0.17300000000E+03 0.  1.
</event>
<event>
 4    1  0.6164307E+000  0.1000000E+03  0.7546771E-02  0.1280296E+00
         21   -1    0    0  501  502  0.00000000000E+00  0.00000000000E+00  0.46997037975E+03  0.46997037975E+03  0.00000000000E+00 0.  1.
         21   -1    0    0  502  503 -0.00000000000E+00 -0.00000000000E+00 -0.12985820734E+03  0.12985820734E+03  0.00000000000E+00 0.  1.
          6    1    1    2  501    0  0.10971637599E+03 -0.17464644900E+01  0.33766076372E+03  0.39494876207E+03  0.17300000000E+03 0.  1.
         -6    1    1    2    0  503 -0.10971637599E+03  0.17464644900E+01  0.24514086795E+01  0.20487982503E+03  0.17300000000E+03 0.  1.
</event>
<event>
 4    1  0.6164307E+000  0.1000000E+03  0.7546771E-02  0.1280296E+00
         21   -1    0    0  501  502  0.00000000000E+00  0.00000000000E+00  0.16655236559E+03  0.16655236559E+03  0.00000000000E+00 0.  1.
         21   -1    0    0  502  503 -0.00000000000E+00 -0.00000000000E+00 -0.45475938494E+03  0.45475938494E+03  0.00000000000E+00 0. -1.
          6    1    1    2  501    0  0.14823041037E+03 -0.39489047227E+02  0.24387561315E+02  0.23249815603E+03  0.17300000000E+03 0.  1.
         -6    1    1    2    0  503 -0.14823041037E+03  0.39489047227E+02 -0.31259458066E+03  0.38881359450E+03  0.17300000000E+03 0. -1.
</event>
<event>
 4    1  0.6164307E+000  0.1000000E+03  0.7546771E-02  0.1280296E+00
         21   -1    0    0  501  502  0.00000000000E+00  0.00000000000E+00  0.14118455648E+04  0.14118455648E+04  0.00000000000E+00 0. -1.
         21   -1    0    0  502  503 -0.00000000000E+00 -0.00000000000E+00 -0.63325169685E+02  0.63325169685E+02  0.00000000000E+00 0.  1.
          6    1    1    2  501    0  0.17257902298E+03  0.55551972581E+02  0.10766314946E+04  0.11054111977E+04  0.17300000000E+03 0.  1.
         -6    1    1    2    0  503 -0.17257902298E+03 -0.55551972581E+02  0.27188890055E+03  0.36975953682E+03  0.17300000000E+03 0. -1.
</event>
<event>
 4    1  0.6164307E+000  0.1000000E+03  0.7546771E-02  0.1280296E+00
         21   -1    0    0  501  502  0.00000000000E+00  0.00000000000E+00  0.44391033146E+03  0.44391033146E+03  0.00000000000E+00 0. -1.
         21   -1    0    0  502  503 -0.00000000000E+00 -0.00000000000E+00 -0.22019530050E+03  0.22019530050E+03  0.00000000000E+00 0.  1.
          6    1    1    2  501    0  0.20347696356E+01 -0.23033965891E+02  0.38734955052E+03  0.42485689138E+03  0.17300000000E+03 0.  1.
         -6    1    1    2    0  503 -0.20347696356E+01  0.23033965891E+02 -0.16363451956E+03  0.23924874057E+03  0.17300000000E+03 0. -1.
</event>
<event>
 4    1  0.6164307E+000  0.1000000E+03  0.7546771E-02  0.1280296E+00
         21   -1    0    0  501  502  0.00000000000E+00  0.00000000000E+00  0.47647065761E+03  0.47647065761E+03  0.00000000000E+00 0. -1.
         21   -1    0    0  502  503 -0.00000000000E+00 -0.00000000000E+00 -0.17156396069E+03  0.17156396069E+03  0.00000000000E+00 0.  1.
          6    1    1    2  501    0 -0.39509784126E+02 -0.19300181835E+03  0.28169428466E+03  0.38482644782E+03  0.17300000000E+03 0.  1.
         -6    1    1    2    0  503  0.39509784126E+02  0.19300181835E+03  0.23212412261E+02  0.26320817049E+03  0.17300000000E+03 0. -1.
</event>
<event>
 4    1  0.6164307E+000  0.1000000E+03  0.7546771E-02  0.1280296E+00
         21   -1    0    0  503  502  0.00000000000E+00  0.00000000000E+00  0.50273051287E+03  0.50273051287E+03  0.00000000000E+00 0. -1.
         21   -1    0    0  501  503 -0.00000000000E+00 -0.00000000000E+00 -0.10782916311E+03  0.10782916311E+03  0.00000000000E+00 0. -1.
          6    1    1    2  501    0  0.43444854004E+02  0.11614239939E+03  0.73729874692E+02  0.22525897695E+03  0.17300000000E+03 0. -1.
         -6    1    1    2    0  502 -0.43444854004E+02 -0.11614239939E+03  0.32117147506E+03  0.38530069903E+03  0.17300000000E+03 0. -1.
</event>
<event>
 4    1  0.6164307E+000  0.1000000E+03  0.7546771E-02  0.1280296E+00
         21   -1    0    0  503  502  0.00000000000E+00  0.00000000000E+00  0.91858477809E+02  0.91858477809E+02  0.00000000000E+00 0. -1.
         21   -1    0    0  501  503 -0.00000000000E+00 -0.00000000000E+00 -0.27238211964E+04  0.27238211964E+04  0.00000000000E+00 0. -1.
          6    1    1    2  501    0 -0.64461318791E+02 -0.19487060622E+03 -0.25039196926E+04  0.25182677859E+04  0.17300000000E+03 0. -1.
         -6    1    1    2    0  502  0.64461318791E+02  0.19487060622E+03 -0.12804302604E+03  0.29741188831E+03  0.17300000000E+03 0. -1.
</event>
<event>
 4    1  0.6164307E+000  0.1000000E+03  0.7546771E-02  0.1280296E+00
         21   -1    0    0  501  502  0.00000000000E+00  0.00000000000E+00  0.17909985063E+04  0.17909985063E+04  0.00000000000E+00 0. -1.
         21   -1    0    0  502  503 -0.00000000000E+00 -0.00000000000E+00 -0.26308811864E+02  0.26308811864E+02  0.00000000000E+00 0. -1.
          6    1    1    2  501    0 -0.77985226584E+02 -0.16981624797E+02  0.13177696972E+04  0.13314713839E+04  0.17300000000E+03 0. -1.
         -6    1    1    2    0  503  0.77985226584E+02  0.16981624797E+02  0.44691999725E+03  0.48583593434E+03  0.17300000000E+03 0. -1.
</event>
<event>
 4    1  0.6164307E+000  0.1000000E+03  0.7546771E-02  0.1280296E+00
         21   -1    0    0  501  502  0.00000000000E+00  0.00000000000E+00  0.24157508098E+04  0.24157508098E+04  0.00000000000E+00 0. -1.
         21   -1    0    0  502  503 -0.00000000000E+00 -0.00000000000E+00 -0.24988455407E+02  0.24988455407E+02  0.00000000000E+00 0.  1.
          6    1    1    2  501    0 -0.23137272020E+02  0.82848451769E+02  0.19492833751E+04  0.19588348260E+04  0.17300000000E+03 0. -1.
         -6    1    1    2    0  503  0.23137272020E+02 -0.82848451769E+02  0.44147897926E+03  0.48190443913E+03  0.17300000000E+03 0.  1.
</event>
<event>
 4    1  0.6164307E+000  0.1000000E+03  0.7546771E-02  0.1280296E+00
         21   -1    0    0  501  502  0.00000000000E+00  0.00000000000E+00  0.15197151202E+04  0.15197151202E+04  0.00000000000E+00 0. -1.
         21   -1    0    0  502  503 -0.00000000000E+00 -0.00000000000E+00 -0.55380950736E+02  0.55380950736E+02  0.00000000000E+00 0.  1.
          6    1    1    2  501    0 -0.51091743988E+01  0.16719121240E+03  0.11720366799E+04  0.11964856807E+04  0.17300000000E+03 0. -1.
         -6    1    1    2    0  503  0.51091743988E+01 -0.16719121240E+03  0.29229748958E+03  0.37861039022E+03  0.17300000000E+03 0.  1.
</event>
<event>
 4    1  0.6164307E+000  0.1000000E+03  0.7546771E-02  0.1280296E+00
         21   -1    0    0  503  502  0.00000000000E+00  0.00000000000E+00  0.76519198486E+02  0.76519198486E+02  0.00000000000E+00 0.  1.
         21   -1    0    0  501  503 -0.00000000000E+00 -0.00000000000E+00 -0.67111548898E+03  0.67111548898E+03  0.00000000000E+00 0.  1.
          6    1    1    2  501    0  0.59876774029E+02 -0.10681716194E+03 -0.42956474803E+03  0.47900940168E+03  0.17300000000E+03 0.  1.
         -6    1    1    2    0  502 -0.59876774029E+02  0.10681716194E+03 -0.16503154246E+03  0.26862528578E+03  0.17300000000E+03 0.  1.
</event>
<event>
 4    1  0.6164307E+000  0.1000000E+03  0.7546771E-02  0.1280296E+00
         21   -1    0    0  503  502  0.00000000000E+00  0.00000000000E+00  0.39641576942E+03  0.39641576942E+03  0.00000000000E+00 0. -1.
         21   -1    0    0  501  503 -0.00000000000E+00 -0.00000000000E+00 -0.33020976186E+03  0.33020976186E+03  0.00000000000E+00 0. -1.
          6    1    1    2  501    0  0.77107231108E+02  0.12482135244E+03 -0.24993502394E+03  0.33752394182E+03  0.17300000000E+03 0. -1.
         -6    1    1    2    0  502 -0.77107231108E+02 -0.12482135244E+03  0.31614103151E+03  0.38910158946E+03  0.17300000000E+03 0. -1.
</event>
<event>
 4    1  0.6164307E+000  0.1000000E+03  0.7546771E-02  0.1280296E+00
         21   -1    0    0  503  502  0.00000000000E+00  0.00000000000E+00  0.70596716302E+03  0.70596716302E+03  0.00000000000E+00 0. -1.
         21   -1    0    0  501  503 -0.00000000000E+00 -0.00000000000E+00 -0.19829972674E+03  0.19829972674E+03  0.00000000000E+00 0. -1.
          6    1    1    2  501    0 -0.10350644326E+03 -0.15472842774E+03 -0.78004739988E+02  0.26583492924E+03  0.17300000000E+03 0. -1.
         -6    1    1    2    0  502  0.10350644326E+03  0.15472842774E+03  0.58567217627E+03  0.63843196051E+03  0.17300000000E+03 0. -1.
</event>
<event>
 4    1  0.6164307E+000  0.1000000E+03  0.7546771E-02  0.1280296E+00
         21   -1    0    0  501  502  0.00000000000E+00  0.00000000000E+00  0.32744838826E+03  0.32744838826E+03  0.00000000000E+00 0.  1.
         21   -1    0    0  502  503 -0.00000000000E+00 -0.00000000000E+00 -0.14782721759E+03  0.14782721759E+03  0.00000000000E+00 0. -1.
          6    1    1    2  501    0  0.98738379712E+02 -0.89569979142E+02  0.11848403374E+03  0.24847437502E+03  0.17300000000E+03 0.  1.
         -6    1    1    2    0  503 -0.98738379712E+02  0.89569979142E+02  0.61137136930E+02  0.22680123082E+03  0.17300000000E+03 0. -1.
</event>
<event>
 4    1  0.6164307E+000  0.1000000E+03  0.7546771E-02  0.1280296E+00
         21   -1    0    0  501  502  0.00000000000E+00  0.00000000000E+00  0.23138414096E+03  0.23138414096E+03  0.00000000000E+00 0.  1.
         21   -1    0    0  502  503 -0.00000000000E+00 -0.00000000000E+00 -0.28064881705E+03  0.28064881705E+03  0.00000000000E+00 0. -1.
          6    1    1    2  501    0 -0.40307201566E+01 -0.13829410500E+03  0.10191976948E+03  0.24384041009E+03  0.17300000000E+03 0.  1.
         -6    1    1    2    0  503  0.40307201566E+01  0.13829410500E+03 -0.15118444557E+03  0.26819254793E+03  0.17300000000E+03 0. -1.
</event>
<event>
 4    1  0.6164307E+000  0.1000000E+03  0.7546771E-02  0.1280296E+00
         21   -1    0    0  503  502  0.00000000000E+00  0.00000000000E+00  0.99884814061E+03  0.99884814061E+03  0.00000000000E+00 0.  1.
         21   -1    0    0  501  503 -0.00000000000E+00 -0.00000000000E+00 -0.12119926835E+03  0.12119926835E+03  0.00000000000E+00 0.  1.
          6    1    1    2  501    0 -0.26359526369E+03  0.28450853380E+02  0.20647452656E+03  0.37795852182E+03  0.17300000000E+03 0.  1.
         -6    1    1    2    0  502  0.26359526369E+03 -0.28450853380E+02  0.67117434570E+03  0.74208888714E+03  0.17300000000E+03 0.  1.
</event>
<event>
 4    1  0.6164307E+000  0.1000000E+03  0.7546771E-02  0.1280296E+00
         21   -1    0    0  501  502  0.00000000000E+00  0.00000000000E+00  0.62382450782E+02  0.62382450782E+02  0.00000000000E+00 0.  1.
         21   -1    0    0  502  503 -0.00000000000E+00 -0.00000000000E+00 -0.68049042076E+03  0.68049042076E+03  0.00000000000E+00 0. -1.
          6    1    1    2  501    0  0.67255297646E+02 -0.73477637711E+02 -0.21714019723E+03  0.29495949478E+03  0.17300000000E+03 0. -1.
         -6    1    1    2    0  503 -0.67255297646E+02  0.73477637711E+02 -0.40096777274E+03  0.44791337677E+03  0.17300000000E+03 0.  1.
</event>
<event>
 4    1  0.6164307E+000  0.1000000E+03  0.7546771E-02  0.1280296E+00
         21   -1    0    0  503  502  0.00000000000E+00  0.00000000000E+00  0.81937911713E+02  0.81937911713E+02  0.00000000000E+00 0. -1.
         21   -1    0    0  501  503 -0.00000000000E+00 -0.00000000000E+00 -0.80738435711E+03  0.80738435711E+03  0.00000000000E+00 0. -1.
          6    1    1    2  501    0  0.13553672497E+03  0.65032594679E+02 -0.56453468433E+03  0.60928470521E+03  0.17300000000E+03 0.  1.
         -6    1    1    2    0  502 -0.13553672497E+03 -0.65032594679E+02 -0.16091176107E+03  0.28003756362E+03  0.17300000000E+03 0.  1.
</event>
<event>
 4    1  0.6164307E+000  0.1000000E+03  0.7546771E-02  0.1280296E+00
         21   -1    0    0  503  502  0.00000000000E+00  0.00000000000E+00  0.64439089934E+03  0.64439089934E+03  0.00000000000E+00 0. -1.
         21   -1    0    0  501  503 -0.00000000000E+00 -0.00000000000E+00 -0.19908772209E+03  0.19908772209E+03  0.00000000000E+00 0. -1.
          6    1    1    2  501    0  0.10762780939E+03  0.67353099022E+02 -0.11501779342E+03  0.24347130859E+03  0.17300000000E+03 0. -1.
         -6    1    1    2    0  502 -0.10762780939E+03 -0.67353099022E+02  0.56032097067E+03  0.60000731285E+03  0.17300000000E+03 0. -1.
</event>
<event>
 4    1  0.6164307E+000  0.1000000E+03  0.7546771E-02  0.1280296E+00
         21   -1    0    0  501  502  0.00000000000E+00  0.00000000000E+00  0.15474591817E+04  0.15474591817E+04  0.00000000000E+00 0. -1.
         21   -1    0    0  502  503 -0.00000000000E+00 -0.00000000000E+00 -0.54135534961E+02  0.54135534961E+02  0.00000000000E+00 0.  1.
          6    1    1    2  501    0 -0.10852652414E+03 -0.13195995752E+03  0.11810707291E+04  0.12058393359E+04  0.17300000000E+03 0. -1.
         -6    1    1    2    0  503  0.10852652414E+03  0.13195995752E+03  0.31225291758E+03  0.39575538072E+03  0.17300000000E+03 0.  1.
</event>
<event>
 4    1  0.6164307E+000  0.1000000E+03  0.7546771E-02  0.1280296E+00
         21   -1    0    0  501  502  0.00000000000E+00  0.00000000000E+00  0.27027467876E+03  0.27027467876E+03  0.00000000000E+00 0. -1.
         21   -1    0    0  502  503 -0.00000000000E+00 -0.00000000000E+00 -0.11552014784E+03  0.11552014784E+03  0.00000000000E+00 0. -1.
          6    1    1    2  501    0 -0.19832851265E+02 -0.32945213245E+01  0.44828117322E+02  0.17984091849E+03  0.17300000000E+03 0. -1.
         -6    1    1    2    0  503  0.19832851265E+02  0.32945213245E+01  0.10992641360E+03  0.20595390811E+03  0.17300000000E+03 0. -1.
</event>
<event>
 4    1  0.6164307E+000  0.1000000E+03  0.7546771E-02  0.1280296E+00
         21   -1    0    0  503  502  0.00000000000E+00  0.00000000000E+00  0.10639713700E+04  0.10639713700E+04  0.00000000000E+00 0.  1.
         21   -1    0    0  501  503 -0.00000000000E+00 -0.00000000000E+00 -0.46390902935E+02  0.46390902935E+02  0.00000000000E+00 0.  1.
          6    1    1    2  501    0 -0.10685649490E+03 -0.81095457035E+02  0.41413375399E+03  0.46843414676E+03  0.17300000000E+03 0.  1.
         -6    1    1    2    0  502  0.10685649490E+03  0.81095457035E+02  0.60344671306E+03  0.64192812616E+03  0.17300000000E+03 0.  1.
</event>
<event>
 4    1  0.6164307E+000  0.1000000E+03  0.7546771E-02  0.1280296E+00
         21   -1    0    0  503  502  0.00000000000E+00  0.00000000000E+00  0.35349543792E+03  0.35349543792E+03  0.00000000000E+00 0.  1.
         21   -1    0    0  501  503 -0.00000000000E+00 -0.00000000000E+00 -0.16765590260E+03  0.16765590260E+03  0.00000000000E+00 0.  1.
          6    1    1    2  501    0  0.80816918219E+02 -0.14959585209E+03  0.11501975217E+03  0.26845639613E+03  0.17300000000E+03 0.  1.
         -6    1    1    2    0  502 -0.80816918219E+02  0.14959585209E+03  0.70819783155E+02  0.25269494439E+03  0.17300000000E+03 0.  1.
</event>
<event>
 4    1  0.6164307E+000  0.1000000E+03  0.7546771E-02  0.1280296E+00
         21   -1    0    0  503  502  0.00000000000E+00  0.00000000000E+00  0.40018887331E+03  0.40018887331E+03  0.00000000000E+00 0.  1.
         21   -1    0    0  501  503 -0.00000000000E+00 -0.00000000000E+00 -0.13921168686E+03  0.13921168686E+03  0.00000000000E+00 0. -1.
          6    1    1    2  501    0 -0.10155013297E+03  0.11901513277E+03  0.89211816076E+02  0.24972941249E+03  0.17300000000E+03 0. -1.
         -6    1    1    2    0  502  0.10155013297E+03 -0.11901513277E+03  0.17176537038E+03  0.28967114768E+03  0.17300000000E+03 0.  1.
</event>
<event>
 4    1  0.6164307E+000  0.1000000E+03  0.7546771E-02  0.1280296E+00
         21   -1    0    0  501  502  0.00000000000E+00  0.00000000000E+00  0.20060985615E+03  0.20060985615E+03  0.00000000000E+00 0.  1.
         21   -1    0    0  502  503 -0.00000000000E+00 -0.00000000000E+00 -0.28418094230E+03  0.28418094230E+03  0.00000000000E+00 0.  1.
          6    1    1    2  501    0 -0.39639182642E+02  0.14855812846E+03  0.17754896084E+02  0.23213146850E+03  0.17300000000E+03 0. -1.
         -6    1    1    2    0  503  0.39639182642E+02 -0.14855812846E+03 -0.10132598224E+03  0.25265932995E+03  0.17300000000E+03 0. -1.
</event>
<event>
 4    1  0.6164307E+000  0.1000000E+03  0.7546771E-02  0.1280296E+00
         21   -1    0    0  501  502  0.00000000000E+00  0.00000000000E+00  0.28704657894E+03  0.28704657894E+03  0.00000000000E+00 0.  1.
         21   -1    0    0  502  503 -0.00000000000E+00 -0.00000000000E+00 -0.63885225173E+03  0.63885225173E+03  0.00000000000E+00 0.  1.
          6    1    1    2  501    0  0.10402922182E+03 -0.12723003335E+03  0.20851405294E+03  0.31688589532E+03  0.17300000000E+03 0. -1.
         -6    1    1    2    0  503 -0.10402922182E+03  0.12723003335E+03 -0.56031972573E+03  0.60901293535E+03  0.17300000000E+03 0. -1.
</event>
<event>
 4    1  0.6164307E+000  0.1000000E+03  0.7546771E-02  0.1280296E+00
         21   -1    0    0  501  502  0.00000000000E+00  0.00000000000E+00  0.49253730559E+02  0.49253730559E+02  0.00000000000E+00 0. -1.
         21   -1    0    0  502  503 -0.00000000000E+00 -0.00000000000E+00 -0.11759263568E+04  0.11759263568E+04  0.00000000000E+00 0. -1.
          6    1    1    2  501    0 -0.13244929103E+03  0.36403750332E+02 -0.32022873914E+03  0.38902891037E+03  0.17300000000E+03 0. -1.
         -6    1    1    2    0  503  0.13244929103E+03 -0.36403750332E+02 -0.80644388707E+03  0.83615117696E+03  0.17300000000E+03 0. -1.
</event>
<event>
 4    1  0.6164307E+000  0.1000000E+03  0.7546771E-02  0.1280296E+00
         21   -1    0    0  501  502  0.00000000000E+00  0.00000000000E+00  0.38462985427E+03  0.38462985427E+03  0.00000000000E+00 0. -1.
         21   -1    0    0  502  503 -0.00000000000E+00 -0.00000000000E+00 -0.30783440153E+03  0.30783440153E+03  0.00000000000E+00 0. -1.
          6    1    1    2  501    0  0.85119436188E+02  0.18232358791E+03  0.25881467416E+03  0.37067673880E+03  0.17300000000E+03 0. -1.
         -6    1    1    2    0  503 -0.85119436188E+02 -0.18232358791E+03 -0.18201922142E+03  0.32178751699E+03  0.17300000000E+03 0. -1.
</event>
<event>
 4    1  0.6164307E+000  0.1000000E+03  0.7546771E-02  0.1280296E+00
         21   -1    0    0  501  502  0.00000000000E+00  0.00000000000E+00  0.12050884625E+04  0.12050884625E+04  0.00000000000E+00 0. -1.
         21   -1    0    0  502  503 -0.00000000000E+00 -0.00000000000E+00 -0.98789187113E+02  0.98789187113E+02  0.00000000000E+00 0. -1.
          6    1    1    2  501    0  0.80576791752E+02 -0.10086712949E+03  0.10617464057E+04  0.10834672248E+04  0.17300000000E+03 0. -1.
         -6    1    1    2    0  503 -0.80576791752E+02  0.10086712949E+03  0.44552869711E+02  0.22041042485E+03  0.17300000000E+03 0. -1.
</event>
<event>
 4    1  0.6164307E+000  0.1000000E+03  0.7546771E-02  0.1280296E+00
         21   -1    0    0  503  502  0.00000000000E+00  0.00000000000E+00  0.48634150914E+03  0.48634150914E+03  0.00000000000E+00 0.  1.
         21   -1    0    0  501  503 -0.00000000000E+00 -0.00000000000E+00 -0.13904057677E+03  0.13904057677E+03  0.00000000000E+00 0. -1.
          6    1    1    2  501    0  0.14449788789E+03  0.64607192645E+02  0.38467700165E+02  0.23761837661E+03  0.17300000000E+03 0. -1.
         -6    1    1    2    0  502 -0.14449788789E+03 -0.64607192645E+02  0.30883323220E+03  0.38776370931E+03  0.17300000000E+03 0.  1.
</event>
<event>
 4    1  0.6164307E+000  0.1000000E+03  0.7546771E-02  0.1280296E+00
         21   -1    0    0  503  502  0.00000000000E+00  0.00000000000E+00  0.27929925423E+03  0.27929925423E+03  0.00000000000E+00 0.  1.
         21   -1    0    0  501  503 -0.00000000000E+00 -0.00000000000E+00 -0.31858892919E+03  0.31858892919E+03  0.00000000000E+00 0. -1.
          6    1    1    2  501    0  0.97306625012E+02 -0.56712475049E+02 -0.23544304525E+03  0.31312507350E+03  0.17300000000E+03 0.  1.
         -6    1    1    2    0  502 -0.97306625012E+02  0.56712475049E+02  0.19615337029E+03  0.28476310992E+03  0.17300000000E+03 0.  1.
</event>
<event>
 4    1  0.6164307E+000  0.1000000E+03  0.7546771E-02  0.1280296E+00
         21   -1    0    0  503  502  0.00000000000E+00  0.00000000000E+00  0.14290593610E+04  0.14290593610E+04  0.00000000000E+00 0.  1.
         21   -1    0    0  501  503 -0.00000000000E+00 -0.00000000000E+00 -0.12096941128E+03  0.12096941128E+03  0.00000000000E+00 0. -1.
          6    1    1    2  501    0  0.24108983050E+03 -0.15783300448E+03  0.19780964239E+03  0.38999130541E+03  0.17300000000E+03 0.  1.
         -6    1    1    2    0  502 -0.24108983050E+03  0.15783300448E+03  0.11102803073E+04  0.11600374669E+04  0.17300000000E+03 0.  1.
</event>
<event>
 4    1  0.6164307E+000  0.1000000E+03  0.7546771E-02  0.1280296E+00
         21   -1    0    0  501  502  0.00000000000E+00  0.00000000000E+00  0.32252245896E+02  0.32252245896E+02  0.00000000000E+00 0.  1.
         21   -1    0    0  502  503 -0.00000000000E+00 -0.00000000000E+00 -0.10330504636E+04  0.10330504636E+04  0.00000000000E+00 0. -1.
          6    1    1    2  501    0 -0.35087111078E+02 -0.46077122903E+02 -0.48313754275E+03  0.51643498316E+03  0.17300000000E+03 0.  1.
         -6    1    1    2    0  503  0.35087111078E+02  0.46077122903E+02 -0.51766067498E+03  0.54886772636E+03  0.17300000000E+03 0. -1.
</event>
<event>
 4    1  0.6164307E+000  0.1000000E+03  0.7546771E-02  0.1280296E+00
         21   -1    0    0  503  502  0.00000000000E+00  0.00000000000E+00  0.27014717276E+04  0.27014717276E+04  0.00000000000E+00 0. -1.
         21   -1    0    0  501  503 -0.00000000000E+00 -0.00000000000E+00 -0.10302494107E+03  0.10302494107E+03  0.00000000000E+00 0.  1.
          6    1    1    2  501    0 -0.16537763598E+03 -0.45357024092E+02  0.55400126180E+02  0.24981032024E+03  0.17300000000E+03 0.  1.
         -6    1    1    2    0  502  0.16537763598E+03  0.45357024092E+02  0.25430466603E+04  0.25546863484E+04  0.17300000000E+03 0. -1.
</event>
<event>
 4    1  0.6164307E+000  0.1000000E+03  0.7546771E-02  0.1280296E+00
         21   -1    0    0  503  502  0.00000000000E+00  0.00000000000E+00  0.31079703525E+04  0.31079703525E+04  0.00000000000E+00 0. -1.
         21   -1    0    0  501  503 -0.00000000000E+00 -0.00000000000E+00 -0.10508835119E+03  0.10508835119E+03  0.00000000000E+00 0.  1.
          6    1    1    2  501    0 -0.35173062099E+02 -0.25793229242E+03  0.15647510960E+03  0.34954208858E+03  0.17300000000E+03 0.  1.
         -6    1    1    2    0  502  0.35173062099E+02  0.25793229242E+03  0.28464068917E+04  0.28635166151E+04  0.17300000000E+03 0. -1.
</event>
<event>
 4    1  0.6164307E+000  0.1000000E+03  0.7546771E-02  0.1280296E+00
         21   -1    0    0  503  502  0.00000000000E+00  0.00000000000E+00  0.42221421524E+02  0.42221421524E+02  0.00000000000E+00 0. -1.
         21   -1    0    0  501  503 -0.00000000000E+00 -0.00000000000E+00 -0.11877502330E+04  0.11877502330E+04  0.00000000000E+00 0.  1.
          6    1    1    2  501    0 -0.22073370063E+02  0.13214263386E+03 -0.70362408549E+03  0.73686142729E+03  0.17300000000E+03 0.  1.
         -6    1    1    2    0  502  0.22073370063E+02 -0.13214263386E+03 -0.44190472597E+03  0.49311022721E+03  0.17300000000E+03 0. -1.
</event>
<event>
 4    1  0.6164307E+000  0.1000000E+03  0.7546771E-02  0.1280296E+00
         21   -1    0    0  503  502  0.00000000000E+00  0.00000000000E+00  0.13776017256E+03  0.13776017256E+03  0.00000000000E+00 0. -1.
         21   -1    0    0  501  503 -0.00000000000E+00 -0.00000000000E+00 -0.36632614249E+03  0.36632614249E+03  0.00000000000E+00 0.  1.
          6    1    1    2  501    0 -0.18402676498E+02  0.99506781338E+02 -0.43871942269E+00  0.20042317857E+03  0.17300000000E+03 0.  1.
         -6    1    1    2    0  502  0.18402676498E+02 -0.99506781338E+02 -0.22812725051E+03  0.30366313648E+03  0.17300000000E+03 0. -1.
</event>
<event>
 4    1  0.6164307E+000  0.1000000E+03  0.7546771E-02  0.1280296E+00
         21   -1    0    0  501  502  0.00000000000E+00  0.00000000000E+00  0.94472802782E+02  0.94472802782E+02  0.00000000000E+00 0. -1.
         21   -1    0    0  502  503 -0.00000000000E+00 -0.00000000000E+00 -0.41962912112E+03  0.41962912112E+03  0.00000000000E+00 0. -1.
          6    1    1    2  501    0  0.38063032652E+02 -0.24282568194E+02 -0.49467539483E+02  0.18551138789E+03  0.17300000000E+03 0. -1.
         -6    1    1    2    0  503 -0.38063032652E+02  0.24282568194E+02 -0.27568877885E+03  0.32859053601E+03  0.17300000000E+03 0. -1.
</event>
<event>
 4    1  0.6164307E+000  0.1000000E+03  0.7546771E-02  0.1280296E+00
         21   -1    0    0  501  502  0.00000000000E+00  0.00000000000E+00  0.70609384471E+03  0.70609384471E+03  0.00000000000E+00 0. -1.
         21   -1    0    0  502  503 -0.00000000000E+00 -0.00000000000E+00 -0.46678713467E+02  0.46678713467E+02  0.00000000000E+00 0. -1.
          6    1    1    2  501    0  0.69352496831E+01 -0.16189805302E+02  0.43783978237E+03  0.47110814311E+03  0.17300000000E+03 0. -1.
         -6    1    1    2    0  503 -0.69352496831E+01  0.16189805302E+02  0.22157534887E+03  0.28166441506E+03  0.17300000000E+03 0. -1.
</event>
<event>
 4    1  0.6164307E+000  0.1000000E+03  0.7546771E-02  0.1280296E+00
         21   -1    0    0  501  502  0.00000000000E+00  0.00000000000E+00  0.50096115614E+03  0.50096115614E+03  0.00000000000E+00 0. -1.
         21   -1    0    0  502  503 -0.00000000000E+00 -0.00000000000E+00 -0.20792948777E+03  0.20792948777E+03  0.00000000000E+00 0. -1.
          6    1    1    2  501    0 -0.75709941057E+02  0.62041108823E+02  0.42576286685E+03  0.46987669994E+03  0.17300000000E+03 0. -1.
         -6    1    1    2    0  503  0.75709941057E+02 -0.62041108823E+02 -0.13273119849E+03  0.23901394397E+03  0.17300000000E+03 0. -1.
</event>
<event>
 4    1  0.6164307E+000  0.1000000E+03  0.7546771E-02  0.1280296E+00
         21   -1    0    0  501  502  0.00000000000E+00  0.00000000000E+00  0.24368028884E+03  0.24368028884E+03  0.00000000000E+00 0. -1.
         21   -1    0    0  502  503 -0.00000000000E+00 -0.00000000000E+00 -0.15544398654E+03  0.15544398654E+03  0.00000000000E+00 0. -1.
          6    1    1    2  501    0  0.14088003770E+02 -0.22779036848E+02  0.13131857082E+03  0.21883994930E+03  0.17300000000E+03 0. -1.
         -6    1    1    2    0  503 -0.14088003770E+02  0.22779036848E+02 -0.43082268520E+02  0.18028432608E+03  0.17300000000E+03 0. -1.
</event>
<event>
 4    1  0.6164307E+000  0.1000000E+03  0.7546771E-02  0.1280296E+00
         21   -1    0    0  501  502  0.00000000000E+00  0.00000000000E+00  0.47503608989E+02  0.47503608989E+02  0.00000000000E+00 0. -1.
         21   -1    0    0  502  503 -0.00000000000E+00 -0.00000000000E+00 -0.10161589216E+04  0.10161589216E+04  0.00000000000E+00 0. -1.
          6    1    1    2  501    0  0.11195148214E+03 -0.76052918625E+02 -0.47221592775E+03  0.52080136636E+03  0.17300000000E+03 0. -1.
         -6    1    1    2    0  503 -0.11195148214E+03  0.76052918625E+02 -0.49643938486E+03  0.54286116423E+03  0.17300000000E+03 0. -1.
</event>
<event>
 4    1  0.6164307E+000  0.1000000E+03  0.7546771E-02  0.1280296E+00
         21   -1    0    0  501  502  0.00000000000E+00  0.00000000000E+00  0.99418318640E+03  0.99418318640E+03  0.00000000000E+00 0. -1.
         21   -1    0    0  502  503 -0.00000000000E+00 -0.00000000000E+00 -0.11414581779E+03  0.11414581779E+03  0.00000000000E+00 0.  1.
          6    1    1    2  501    0 -0.20000945927E+03 -0.10849457894E+03  0.73326917179E+03  0.78701177612E+03  0.17300000000E+03 0. -1.
         -6    1    1    2    0  503  0.20000945927E+03  0.10849457894E+03  0.14676819682E+03  0.32131722807E+03  0.17300000000E+03 0.  1.
</event>
<event>
 4    1  0.6164307E+000  0.1000000E+03  0.7546771E-02  0.1280296E+00
         21   -1    0    0  503  502  0.00000000000E+00  0.00000000000E+00  0.92289025437E+03  0.92289025437E+03  0.00000000000E+00 0. -1.
         21   -1    0    0  501  503 -0.00000000000E+00 -0.00000000000E+00 -0.93918945826E+02  0.93918945826E+02  0.00000000000E+00 0. -1.
          6    1    1    2  501    0  0.21326456886E+03  0.92336049176E+01  0.23188802649E+03  0.35953872200E+03  0.17300000000E+03 0. -1.
         -6    1    1    2    0  502 -0.21326456886E+03 -0.92336049176E+01  0.59708328205E+03  0.65727047819E+03  0.17300000000E+03 0. -1.
</event>
<event>
 4    1  0.6164307E+000  0.1000000E+03  0.7546771E-02  0.1280296E+00
         21   -1    0    0  503  502  0.00000000000E+00  0.00000000000E+00  0.40280176213E+02  0.40280176213E+02  0.00000000000E+00 0. -1.
         21   -1    0    0  501  503 -0.00000000000E+00 -0.00000000000E+00 -0.15948960631E+04  0.15948960631E+04  0.00000000000E+00 0. -1.
          6    1    1    2  501    0 -0.28161275798E+02 -0.48256359939E+02 -0.13470050792E+04  0.13592179432E+04  0.17300000000E+03 0. -1.
         -6    1    1    2    0  502  0.28161275798E+02  0.48256359939E+02 -0.20761080773E+03  0.27595829615E+03  0.17300000000E+03 0. -1.
</event>
<event>
 4    1  0.6164307E+000  0.1000000E+03  0.7546771E-02  0.1280296E+00
         21   -1    0    0  503  502  0.00000000000E+00  0.00000000000E+00  0.24747162534E+03  0.24747162534E+03  0.00000000000E+00 0. -1.
         21   -1    0    0  501  503 -0.00000000000E+00 -0.00000000000E+00 -0.20507240038E+03  0.20507240038E+03  0.00000000000E+00 0. -1.
          6    1    1    2  501    0  0.66932362395E+02 -0.69270508226E+02 -0.86709935849E+02  0.21616187782E+03  0.17300000000E+03 0. -1.
         -6    1    1    2    0  502 -0.66932362395E+02  0.69270508226E+02  0.12910916081E+03  0.23638214791E+03  0.17300000000E+03 0. -1.
</event>
<event>
 4    1  0.6164307E+000  0.1000000E+03  0.7546771E-02  0.1280296E+00
         21   -1    0    0  501  502  0.00000000000E+00  0.00000000000E+00  0.42512522791E+02  0.42512522791E+02  0.00000000000E+00 0. -1.
         21   -1    0    0  502  503 -0.00000000000E+00 -0.00000000000E+00 -0.85734759821E+03  0.85734759821E+03  0.00000000000E+00 0. -1.
          6    1    1    2  501    0  0.32975838148E+02 -0.38835597674E+02 -0.25979951496E+03  0.31626001568E+03  0.17300000000E+03 0. -1.
         -6    1    1    2    0  503 -0.32975838148E+02  0.38835597674E+02 -0.55503556046E+03  0.58360010532E+03  0.17300000000E+03 0. -1.
</event>
<event>
 4    1  0.6164307E+000  0.1000000E+03  0.7546771E-02  0.1280296E+00
         21   -1    0    0  501  502  0.00000000000E+00  0.00000000000E+00  0.82292218998E+03  0.82292218998E+03  0.00000000000E+00 0. -1.
         21   -1    0    0  502  503 -0.00000000000E+00 -0.00000000000E+00 -0.11814419490E+03  0.11814419490E+03  0.00000000000E+00 0. -1.
          6    1    1    2  501    0  0.40111144131E+01  0.17016098237E+03  0.64780771455E+03  0.69177646967E+03  0.17300000000E+03 0. -1.
         -6    1    1    2    0  503 -0.40111144131E+01 -0.17016098237E+03  0.56970280528E+02  0.24928991521E+03  0.17300000000E+03 0. -1.
</event>
<event>
 4    1  0.6164307E+000  0.1000000E+03  0.7546771E-02  0.1280296E+00
         21   -1    0    0  501  502  0.00000000000E+00  0.00000000000E+00  0.24569897551E+03  0.24569897551E+03  0.00000000000E+00 0.  1.
         21   -1    0    0  502  503 -0.00000000000E+00 -0.00000000000E+00 -0.21051013574E+03  0.21051013574E+03  0.00000000000E+00 0.  1.
          6    1    1    2  501    0  0.14096323964E+03  0.42961938608E+02  0.26381968762E+02  0.22878236683E+03  0.17300000000E+03 0.  1.
         -6    1    1    2    0  503 -0.14096323964E+03 -0.42961938608E+02  0.88068710158E+01  0.22742674442E+03  0.17300000000E+03 0.  1.
</event>
<event>
 4    1  0.6164307E+000  0.1000000E+03  0.7546771E-02  0.1280296E+00
         21   -1    0    0  501  502  0.00000000000E+00  0.00000000000E+00  0.17468164083E+03  0.17468164083E+03  0.00000000000E+00 0.  1.
         21   -1    0    0  502  503 -0.00000000000E+00 -0.00000000000E+00 -0.44570793235E+03  0.44570793235E+03  0.00000000000E+00 0.  1.
          6    1    1    2  501    0  0.11693019561E+03 -0.18185633410E+03 -0.97267021138E+02  0.29348640565E+03  0.17300000000E+03 0.  1.
         -6    1    1    2    0  503 -0.11693019561E+03  0.18185633410E+03 -0.17375927039E+03  0.32690316754E+03  0.17300000000E+03 0.  1.
</event>
<event>
 4    1  0.6164307E+000  0.1000000E+03  0.7546771E-02  0.1280296E+00
         21   -1    0    0  501  502  0.00000000000E+00  0.00000000000E+00  0.12434291794E+04  0.12434291794E+04  0.00000000000E+00 0.  1.
         21   -1    0    0  502  503 -0.00000000000E+00 -0.00000000000E+00 -0.33833592713E+02  0.33833592713E+02  0.00000000000E+00 0. -1.
          6    1    1    2  501    0 -0.10601660406E+03  0.17753681610E+02  0.52942741018E+03  0.56725399620E+03  0.17300000000E+03 0.  1.
         -6    1    1    2    0  503  0.10601660406E+03 -0.17753681610E+02  0.68016817648E+03  0.71000877589E+03  0.17300000000E+03 0. -1.
</event>
<event>
 4    1  0.6164307E+000  0.1000000E+03  0.7546771E-02  0.1280296E+00
         21   -1    0    0  501  502  0.00000000000E+00  0.00000000000E+00  0.20563587396E+03  0.20563587396E+03  0.00000000000E+00 0.  1.
         21   -1    0    0  502  503 -0.00000000000E+00 -0.00000000000E+00 -0.56591041080E+03  0.56591041080E+03  0.00000000000E+00 0. -1.
          6    1    1    2  501    0  0.10282765881E+03  0.72297053369E+02  0.12042916495E+03  0.24542325707E+03  0.17300000000E+03 0.  1.
         -6    1    1    2    0  503 -0.10282765881E+03 -0.72297053369E+02 -0.48070370180E+03  0.52612302769E+03  0.17300000000E+03 0. -1.
</event>
<event>
 4    1  0.6164307E+000  0.1000000E+03  0.7546771E-02  0.1280296E+00
         21   -1    0    0  501  502  0.00000000000E+00  0.00000000000E+00  0.16125371668E+03  0.16125371668E+03  0.00000000000E+00 0.  1.
         21   -1    0    0  502  503 -0.00000000000E+00 -0.00000000000E+00 -0.49677081604E+03  0.49677081604E+03  0.00000000000E+00 0. -1.
          6    1    1    2  501    0  0.19703271114E+03  0.10522596369E+02 -0.44490715639E+02  0.26615979800E+03  0.17300000000E+03 0.  1.
         -6    1    1    2    0  503 -0.19703271114E+03 -0.10522596369E+02 -0.29102638372E+03  0.39186473472E+03  0.17300000000E+03 0. -1.
</event>
<event>
 4    1  0.6164307E+000  0.1000000E+03  0.7546771E-02  0.1280296E+00
         21   -1    0    0  501  502  0.00000000000E+00  0.00000000000E+00  0.76386104083E+02  0.76386104083E+02  0.00000000000E+00 0.  1.
         21   -1    0    0  502  503 -0.00000000000E+00 -0.00000000000E+00 -0.41840071118E+03  0.41840071118E+03  0.00000000000E+00 0. -1.
          6    1    1    2  501    0  0.16080639600E+02  0.33350636419E+02 -0.13545190857E+03  0.22281622799E+03  0.17300000000E+03 0.  1.
         -6    1    1    2    0  503 -0.16080639600E+02 -0.33350636419E+02 -0.20656269853E+03  0.27197058728E+03  0.17300000000E+03 0. -1.
</event>
<event>
 4    1  0.6164307E+000  0.1000000E+03  0.7546771E-02  0.1280296E+00
         21   -1    0    0  501  502  0.00000000000E+00  0.00000000000E+00  0.39427491997E+03  0.39427491997E+03  0.00000000000E+00 0.  1.
         21   -1    0    0  502  503 -0.00000000000E+00 -0.00000000000E+00 -0.13903316660E+03  0.13903316660E+03  0.00000000000E+00 0.  1.
          6    1    1    2  501    0  0.11296097647E+03  0.45739693538E+02  0.24171662875E+03  0.32126037786E+03  0.17300000000E+03 0.  1.
         -6    1    1    2    0  503 -0.11296097647E+03 -0.45739693538E+02  0.13525124613E+02  0.21204770870E+03  0.17300000000E+03 0.  1.
</event>
<event>
 4    1  0.6164307E+000  0.1000000E+03  0.7546771E-02  0.1280296E+00
         21   -1    0    0  501  502  0.00000000000E+00  0.00000000000E+00  0.24487287359E+03  0.24487287359E+03  0.00000000000E+00 0. -1.
         21   -1    0    0  502  503 -0.00000000000E+00 -0.00000000000E+00 -0.21644323497E+03  0.21644323497E+03  0.00000000000E+00 0. -1.
          6    1    1    2  501    0 -0.88110155794E+02  0.11576619271E+03  0.57965656045E+02  0.23335429760E+03  0.17300000000E+03 0.  1.
         -6    1    1    2    0  503  0.88110155794E+02 -0.11576619271E+03 -0.29536017431E+02  0.22796181096E+03  0.17300000000E+03 0.  1.
</event>
<event>
 4    1  0.6164307E+000  0.1000000E+03  0.7546771E-02  0.1280296E+00
         21   -1    0    0  501  502  0.00000000000E+00  0.00000000000E+00  0.15652377738E+03  0.15652377738E+03  0.00000000000E+00 0. -1.
         21   -1    0    0  502  503 -0.00000000000E+00 -0.00000000000E+00 -0.39031418694E+03  0.39031418694E+03  0.00000000000E+00 0. -1.
          6    1    1    2  501    0  0.16064693515E+03  0.47590068197E+01 -0.36102397728E+02  0.23887751891E+03  0.17300000000E+03 0.  1.
         -6    1    1    2    0  503 -0.16064693515E+03 -0.47590068197E+01 -0.19768801183E+03  0.30796044542E+03  0.17300000000E+03 0.  1.
</event>
<event>
 4    1  0.6164307E+000  0.1000000E+03  0.7546771E-02  0.1280296E+00
         21   -1    0    0  501  502  0.00000000000E+00  0.00000000000E+00  0.16709141082E+03  0.16709141082E+03  0.00000000000E+00 0. -1.
         21   -1    0    0  502  503 -0.00000000000E+00 -0.00000000000E+00 -0.34726850295E+03  0.34726850295E+03  0.00000000000E+00 0. -1.
          6    1    1    2  501    0 -0.14223431362E+03 -0.74479702379E+02 -0.38677661452E+02  0.23917104242E+03  0.17300000000E+03 0. -1.
         -6    1    1    2    0  503  0.14223431362E+03  0.74479702379E+02 -0.14149943068E+03  0.27518887136E+03  0.17300000000E+03 0. -1.
</event>
<event>
 4    1  0.6164307E+000  0.1000000E+03  0.7546771E-02  0.1280296E+00
         21   -1    0    0  501  502  0.00000000000E+00  0.00000000000E+00  0.56921170770E+02  0.56921170770E+02  0.00000000000E+00 0. -1.
         21   -1    0    0  502  503 -0.00000000000E+00 -0.00000000000E+00 -0.61608988198E+03  0.61608988198E+03  0.00000000000E+00 0. -1.
          6    1    1    2  501    0  0.11489539109E+02  0.95100656758E+01 -0.15357927425E+03  0.23181467671E+03  0.17300000000E+03 0. -1.
         -6    1    1    2    0  503 -0.11489539109E+02 -0.95100656758E+01 -0.40558943696E+03  0.44119637604E+03  0.17300000000E+03 0. -1.
</event>
<event>
 4    1  0.6164307E+000  0.1000000E+03  0.7546771E-02  0.1280296E+00
         21   -1    0    0  501  502  0.00000000000E+00  0.00000000000E+00  0.53695738409E+02  0.53695738409E+02  0.00000000000E+00 0. -1.
         21   -1    0    0  502  503 -0.00000000000E+00 -0.00000000000E+00 -0.87957741518E+03  0.87957741518E+03  0.00000000000E+00 0. -1.
          6    1    1    2  501    0 -0.40073100600E+02 -0.11250691049E+03 -0.29461294999E+03  0.36192464492E+03  0.17300000000E+03 0. -1.
         -6    1    1    2    0  503  0.40073100600E+02  0.11250691049E+03 -0.53126872678E+03  0.57134850867E+03  0.17300000000E+03 0. -1.
</event>
<event>
 4    1  0.6164307E+000  0.1000000E+03  0.7546771E-02  0.1280296E+00
         21   -1    0    0  501  502  0.00000000000E+00  0.00000000000E+00  0.50470247145E+03  0.50470247145E+03  0.00000000000E+00 0.  1.
         21   -1    0    0  502  503 -0.00000000000E+00 -0.00000000000E+00 -0.11962374244E+03  0.11962374244E+03  0.00000000000E+00 0.  1.
          6    1    1    2  501    0  0.11092972755E+03  0.12640788119E+03  0.25159845123E+03  0.34859021435E+03  0.17300000000E+03 0.  1.
         -6    1    1    2    0  503 -0.11092972755E+03 -0.12640788119E+03  0.13348027778E+03  0.27573599953E+03  0.17300000000E+03 0.  1.
</event>
<event>
 4    1  0.6164307E+000  0.1000000E+03  0.7546771E-02  0.1280296E+00
         21   -1    0    0  501  502  0.00000000000E+00  0.00000000000E+00  0.24851214923E+03  0.24851214923E+03  0.00000000000E+00 0.  1.
         21   -1    0    0  502  503 -0.00000000000E+00 -0.00000000000E+00 -0.41027699131E+03  0.41027699131E+03  0.00000000000E+00 0.  1.
          6    1    1    2  501    0  0.49561933045E+02  0.21348760024E+03  0.78917948185E+02  0.29015579127E+03  0.17300000000E+03 0.  1.
         -6    1    1    2    0  503 -0.49561933045E+02 -0.21348760024E+03 -0.24068279026E+03  0.36863334926E+03  0.17300000000E+03 0.  1.
</event>
<event>
 4    1  0.6164307E+000  0.1000000E+03  0.7546771E-02  0.1280296E+00
         21   -1    0    0  501  502  0.00000000000E+00  0.00000000000E+00  0.12211790348E+03  0.12211790348E+03  0.00000000000E+00 0.  1.
         21   -1    0    0  502  503 -0.00000000000E+00 -0.00000000000E+00 -0.31656674601E+03  0.31656674601E+03  0.00000000000E+00 0.  1.
          6    1    1    2  501    0 -0.66299933026E+02 -0.22513711450E+02 -0.28212397696E+02  0.18875245086E+03  0.17300000000E+03 0.  1.
         -6    1    1    2    0  503  0.66299933026E+02  0.22513711450E+02 -0.16623644483E+03  0.24993219863E+03  0.17300000000E+03 0.  1.
</event>
<event>
 4    1  0.6164307E+000  0.1000000E+03  0.7546771E-02  0.1280296E+00
         21   -1    0    0  501  502  0.00000000000E+00  0.00000000000E+00  0.18342805833E+03  0.18342805833E+03  0.00000000000E+00 0.  1.
         21   -1    0    0  502  503 -0.00000000000E+00 -0.00000000000E+00 -0.44067951566E+03  0.44067951566E+03  0.00000000000E+00 0.  1.
          6    1    1    2  501    0 -0.22007109894E+03  0.15715559360E+02 -0.18040673127E+03  0.33339744462E+03  0.17300000000E+03 0.  1.
         -6    1    1    2    0  503  0.22007109894E+03 -0.15715559360E+02 -0.76844726058E+02  0.29071012937E+03  0.17300000000E+03 0.  1.
</event>
<event>
 4    1  0.6164307E+000  0.1000000E+03  0.7546771E-02  0.1280296E+00
         21   -1    0    0  501  502  0.00000000000E+00  0.00000000000E+00  0.85271479453E+03  0.85271479453E+03  0.00000000000E+00 0.  1.
         21   -1    0    0  502  503 -0.00000000000E+00 -0.00000000000E+00 -0.15826910908E+03  0.15826910908E+03  0.00000000000E+00 0.  1.
          6    1    1    2  501    0  0.24949135630E+02 -0.31319912922E+03  0.45655325835E+03  0.58059110536E+03  0.17300000000E+03 0. -1.
         -6    1    1    2    0  503 -0.24949135630E+02  0.31319912922E+03  0.23789242710E+03  0.43039279824E+03  0.17300000000E+03 0. -1.
</event>
<event>
 4    1  0.6164307E+000  0.1000000E+03  0.7546771E-02  0.1280296E+00
         21   -1    0    0  501  502  0.00000000000E+00  0.00000000000E+00  0.18203659474E+03  0.18203659474E+03  0.00000000000E+00 0.  1.
         21   -1    0    0  502  503 -0.00000000000E+00 -0.00000000000E+00 -0.33576725630E+03  0.33576725630E+03  0.00000000000E+00 0.  1.
          6    1    1    2  501    0  0.14964219903E+03 -0.10289903028E+02  0.20780346733E+02  0.22991192367E+03  0.17300000000E+03 0. -1.
         -6    1    1    2    0  503 -0.14964219903E+03  0.10289903028E+02 -0.17451100829E+03  0.28789192738E+03  0.17300000000E+03 0. -1.
</event>
<event>
 4    1  0.6164307E+000  0.1000000E+03  0.7546771E-02  0.1280296E+00
         21   -1    0    0  501  502  0.00000000000E+00  0.00000000000E+00  0.40174746653E+03  0.40174746653E+03  0.00000000000E+00 0.  1.
         21   -1    0    0  502  503 -0.00000000000E+00 -0.00000000000E+00 -0.11683633738E+03  0.11683633738E+03  0.00000000000E+00 0.  1.
          6    1    1    2  501    0 -0.90128739945E+01 -0.63743367975E+02  0.27820329897E+03  0.33387201802E+03  0.17300000000E+03 0. -1.
         -6    1    1    2    0  503  0.90128739945E+01  0.63743367975E+02  0.67078301800E+01  0.18471178588E+03  0.17300000000E+03 0. -1.
</event>
<event>
 4    1  0.6164307E+000  0.1000000E+03  0.7546771E-02  0.1280296E+00
         21   -1    0    0  503  502  0.00000000000E+00  0.00000000000E+00  0.10494813077E+04  0.10494813077E+04  0.00000000000E+00 0.  1.
         21   -1    0    0  501  503 -0.00000000000E+00 -0.00000000000E+00 -0.44538267148E+02  0.44538267148E+02  0.00000000000E+00 0.  1.
          6    1    1    2  501    0 -0.55022375154E+01  0.50638748487E+02  0.20077638809E+03  0.26987907566E+03  0.17300000000E+03 0.  1.
         -6    1    1    2    0  502  0.55022375154E+01 -0.50638748487E+02  0.80416665250E+03  0.82414049922E+03  0.17300000000E+03 0.  1.
</event>
<event>
 4    1  0.6164307E+000  0.1000000E+03  0.7546771E-02  0.1280296E+00
         21   -1    0    0  501  502  0.00000000000E+00  0.00000000000E+00  0.18869114939E+03  0.18869114939E+03  0.00000000000E+00 0.  1.
         21   -1    0    0  502  503 -0.00000000000E+00 -0.00000000000E+00 -0.22822934492E+03  0.22822934492E+03  0.00000000000E+00 0.  1.
          6    1    1    2  501    0 -0.95327015220E+02  0.25509702058E+02  0.38786078527E+02  0.20290723155E+03  0.17300000000E+03 0.  1.
         -6    1    1    2    0  503  0.95327015220E+02 -0.25509702058E+02 -0.78324274048E+02  0.21401326275E+03  0.17300000000E+03 0.  1.
</event>
<event>
 4    1  0.6164307E+000  0.1000000E+03  0.7546771E-02  0.1280296E+00
         21   -1    0    0  501  502  0.00000000000E+00  0.00000000000E+00  0.49843059617E+02  0.49843059617E+02  0.00000000000E+00 0.  1.
         21   -1    0    0  502  503 -0.00000000000E+00 -0.00000000000E+00 -0.21645033601E+04  0.21645033601E+04  0.00000000000E+00 0.  1.
          6    1    1    2  501    0 -0.72665526482E+00  0.27363249527E+03 -0.87022144197E+03  0.92848781821E+03  0.17300000000E+03 0.  1.
         -6    1    1    2    0  503  0.72665526482E+00 -0.27363249527E+03 -0.12444388585E+04  0.12858586015E+04  0.17300000000E+03 0.  1.
</event>
<event>
 4    1  0.6164307E+000  0.1000000E+03  0.7546771E-02  0.1280296E+00
         21   -1    0    0  501  502  0.00000000000E+00  0.00000000000E+00  0.14275988421E+04  0.14275988421E+04  0.00000000000E+00 0.  1.
         21   -1    0    0  502  503 -0.00000000000E+00 -0.00000000000E+00 -0.85863912729E+02  0.85863912729E+02  0.00000000000E+00 0.  1.
          6    1    1    2  501    0 -0.10127715869E+01  0.30255467689E+03  0.59886154079E+03  0.69289573765E+03  0.17300000000E+03 0.  1.
         -6    1    1    2    0  503  0.10127715869E+01 -0.30255467689E+03  0.74287338854E+03  0.82056701714E+03  0.17300000000E+03 0.  1.
</event>
<event>
 4    1  0.6164307E+000  0.1000000E+03  0.7546771E-02  0.1280296E+00
         21   -1    0    0  501  502  0.00000000000E+00  0.00000000000E+00  0.46335576278E+03  0.46335576278E+03  0.00000000000E+00 0.  1.
         21   -1    0    0  502  503 -0.00000000000E+00 -0.00000000000E+00 -0.16037391419E+03  0.16037391419E+03  0.00000000000E+00 0.  1.
          6    1    1    2  501    0  0.63273093589E+02 -0.55823040782E+02  0.37232816921E+03  0.41913835644E+03  0.17300000000E+03 0.  1.
         -6    1    1    2    0  503 -0.63273093589E+02  0.55823040782E+02 -0.69346320619E+02  0.20459132053E+03  0.17300000000E+03 0.  1.
</event>
<event>
 4    1  0.6164307E+000  0.1000000E+03  0.7546771E-02  0.1280296E+00
         21   -1    0    0  503  502  0.00000000000E+00  0.00000000000E+00  0.15536214596E+03  0.15536214596E+03  0.00000000000E+00 0.  1.
         21   -1    0    0  501  503 -0.00000000000E+00 -0.00000000000E+00 -0.24176684844E+03  0.24176684844E+03  0.00000000000E+00 0. -1.
          6    1    1    2  501    0  0.29889172798E+02  0.13732257706E+02 -0.12612385022E+03  0.21660600902E+03  0.17300000000E+03 0.  1.
         -6    1    1    2    0  502 -0.29889172798E+02 -0.13732257706E+02  0.39719147730E+02  0.18052298537E+03  0.17300000000E+03 0. -1.
</event>
<event>
 4    1  0.6164307E+000  0.1000000E+03  0.7546771E-02  0.1280296E+00
         21   -1    0    0  503  502  0.00000000000E+00  0.00000000000E+00  0.19520581225E+04  0.19520581225E+04  0.00000000000E+00 0.  1.
         21   -1    0    0  501  503 -0.00000000000E+00 -0.00000000000E+00 -0.20972019407E+03  0.20972019407E+03  0.00000000000E+00 0. -1.
          6    1    1    2  501    0  0.10883291508E+03 -0.11248392930E+03 -0.13530890620E+03  0.26969378534E+03  0.17300000000E+03 0.  1.
         -6    1    1    2    0  502 -0.10883291508E+03  0.11248392930E+03  0.18776468347E+04  0.18920845313E+04  0.17300000000E+03 0. -1.
</event>
<event>
 4    1  0.6164307E+000  0.1000000E+03  0.7546771E-02  0.1280296E+00
         21   -1    0    0  501  502  0.00000000000E+00  0.00000000000E+00  0.62939464121E+02  0.62939464121E+02  0.00000000000E+00 0. -1.
         21   -1    0    0  502  503 -0.00000000000E+00 -0.00000000000E+00 -0.57425566488E+03  0.57425566488E+03  0.00000000000E+00 0. -1.
          6    1    1    2  501    0  0.54216051611E+02  0.19823558869E+02 -0.16569290496E+03  0.24640513893E+03  0.17300000000E+03 0. -1.
         -6    1    1    2    0  503 -0.54216051611E+02 -0.19823558869E+02 -0.34562329580E+03  0.39078999006E+03  0.17300000000E+03 0. -1.
</event>
<event>
 4    1  0.6164307E+000  0.1000000E+03  0.7546771E-02  0.1280296E+00
         21   -1    0    0  503  502  0.00000000000E+00  0.00000000000E+00  0.29949347642E+03  0.29949347642E+03  0.00000000000E+00 0. -1.
         21   -1    0    0  501  503 -0.00000000000E+00 -0.00000000000E+00 -0.12502069815E+03  0.12502069815E+03  0.00000000000E+00 0.  1.
          6    1    1    2  501    0 -0.50011534790E+02  0.14560247464E+01  0.95897159939E+01  0.18034477057E+03  0.17300000000E+03 0. -1.
         -6    1    1    2    0  502  0.50011534790E+02 -0.14560247464E+01  0.16488306227E+03  0.24416940399E+03  0.17300000000E+03 0.  1.
</event>
<event>
 4    1  0.6164307E+000  0.1000000E+03  0.7546771E-02  0.1280296E+00
         21   -1    0    0  503  502  0.00000000000E+00  0.00000000000E+00  0.79924062076E+02  0.79924062076E+02  0.00000000000E+00 0. -1.
         21   -1    0    0  501  503 -0.00000000000E+00 -0.00000000000E+00 -0.62641531701E+03  0.62641531701E+03  0.00000000000E+00 0.  1.
          6    1    1    2  501    0  0.42840667307E+02  0.11644326665E+03 -0.16455103039E+03  0.26907322187E+03  0.17300000000E+03 0. -1.
         -6    1    1    2    0  502 -0.42840667307E+02 -0.11644326665E+03 -0.38194022454E+03  0.43726615722E+03  0.17300000000E+03 0.  1.
</event>
<event>
 4    1  0.6164307E+000  0.1000000E+03  0.7546771E-02  0.1280296E+00
         21   -1    0    0  501  502  0.00000000000E+00  0.00000000000E+00  0.20008221737E+03  0.20008221737E+03  0.00000000000E+00 0. -1.
         21   -1    0    0  502  503 -0.00000000000E+00 -0.00000000000E+00 -0.19836308170E+04  0.19836308170E+04  0.00000000000E+00 0. -1.
          6    1    1    2  501    0  0.82594579967E+02 -0.60045949109E+01  0.14825091516E+03  0.24241545669E+03  0.17300000000E+03 0. -1.
         -6    1    1    2    0  503 -0.82594579967E+02  0.60045949109E+01 -0.19317995148E+04  0.19412975777E+04  0.17300000000E+03 0. -1.
</event>
<event>
 4    1  0.6164307E+000  0.1000000E+03  0.7546771E-02  0.1280296E+00
         21   -1    0    0  501  502  0.00000000000E+00  0.00000000000E+00  0.68584351523E+03  0.68584351523E+03  0.00000000000E+00 0. -1.
         21   -1    0    0  502  503 -0.00000000000E+00 -0.00000000000E+00 -0.14435130893E+03  0.14435130893E+03  0.00000000000E+00 0. -1.
          6    1    1    2  501    0 -0.27361116390E+02 -0.16228026075E+03  0.54107939997E+03  0.59142153393E+03  0.17300000000E+03 0. -1.
         -6    1    1    2    0  503  0.27361116390E+02  0.16228026075E+03  0.41280633007E+00  0.23877329024E+03  0.17300000000E+03 0. -1.
</event>
<event>
 4    1  0.6164307E+000  0.1000000E+03  0.7546771E-02  0.1280296E+00
         21   -1    0    0  501  502  0.00000000000E+00  0.00000000000E+00  0.49049963660E+03  0.49049963660E+03  0.00000000000E+00 0.  1.
         21   -1    0    0  502  503 -0.00000000000E+00 -0.00000000000E+00 -0.22967175519E+03  0.22967175519E+03  0.00000000000E+00 0. -1.
          6    1    1    2  501    0 -0.22141807440E+03  0.37954110154E+02  0.32310180912E+03  0.42987237316E+03  0.17300000000E+03 0.  1.
         -6    1    1    2    0  503  0.22141807440E+03 -0.37954110154E+02 -0.62273927705E+02  0.29029901863E+03  0.17300000000E+03 0. -1.
</event>
<event>
 4    1  0.6164307E+000  0.1000000E+03  0.7546771E-02  0.1280296E+00
         21   -1    0    0  503  502  0.00000000000E+00  0.00000000000E+00  0.72794057447E+03  0.72794057447E+03  0.00000000000E+00 0. -1.
         21   -1    0    0  501  503 -0.00000000000E+00 -0.00000000000E+00 -0.13573091774E+03  0.13573091774E+03  0.00000000000E+00 0. -1.
          6    1    1    2  501    0 -0.29095510540E+02 -0.24454891467E+03  0.17151537478E+03  0.34640618381E+03  0.17300000000E+03 0. -1.
         -6    1    1    2    0  502  0.29095510540E+02  0.24454891467E+03  0.42069428195E+03  0.51726530840E+03  0.17300000000E+03 0. -1.
</event>
<event>
 4    1  0.6164307E+000  0.1000000E+03  0.7546771E-02  0.1280296E+00
         21   -1    0    0  501  502  0.00000000000E+00  0.00000000000E+00  0.30913272184E+03  0.30913272184E+03  0.00000000000E+00 0. -1.
         21   -1    0    0  502  503 -0.00000000000E+00 -0.00000000000E+00 -0.13557163724E+03  0.13557163724E+03  0.00000000000E+00 0. -1.
          6    1    1    2  501    0 -0.94964019653E+01 -0.29025255779E+02  0.20094369733E+03  0.26690825506E+03  0.17300000000E+03 0. -1.
         -6    1    1    2    0  503  0.94964019653E+01  0.29025255779E+02 -0.27382612732E+02  0.17779610402E+03  0.17300000000E+03 0. -1.
</event>
<event>
 4    1  0.6164307E+000  0.1000000E+03  0.7546771E-02  0.1280296E+00
         21   -1    0    0  501  502  0.00000000000E+00  0.00000000000E+00  0.65625956528E+02  0.65625956528E+02  0.00000000000E+00 0. -1.
         21   -1    0    0  502  503 -0.00000000000E+00 -0.00000000000E+00 -0.82217317494E+03  0.82217317494E+03  0.00000000000E+00 0. -1.
          6    1    1    2  501    0 -0.60422924570E+02 -0.10255291369E+03 -0.18852489571E+03  0.28220323567E+03  0.17300000000E+03 0. -1.
         -6    1    1    2    0  503  0.60422924570E+02  0.10255291369E+03 -0.56802232270E+03  0.60559589579E+03  0.17300000000E+03 0. -1.
</event>
<event>
 4    1  0.6164307E+000  0.1000000E+03  0.7546771E-02  0.1280296E+00
         21   -1    0    0  501  502  0.00000000000E+00  0.00000000000E+00  0.78543031963E+03  0.78543031963E+03  0.00000000000E+00 0. -1.
         21   -1    0    0  502  503 -0.00000000000E+00 -0.00000000000E+00 -0.14804703985E+03  0.14804703985E+03  0.00000000000E+00 0. -1.
          6    1    1    2  501    0 -0.21638348296E+03  0.72589958455E+02  0.57203940280E+03  0.63972587264E+03  0.17300000000E+03 0. -1.
         -6    1    1    2    0  503  0.21638348296E+03 -0.72589958455E+02  0.65343876982E+02  0.29375148685E+03  0.17300000000E+03 0. -1.
</event>
<event>
 4    1  0.6164307E+000  0.1000000E+03  0.7546771E-02  0.1280296E+00
         21   -1    0    0  501  502  0.00000000000E+00  0.00000000000E+00  0.10186635729E+04  0.10186635729E+04  0.00000000000E+00 0. -1.
         21   -1    0    0  502  503 -0.00000000000E+00 -0.00000000000E+00 -0.13023942966E+03  0.13023942966E+03  0.00000000000E+00 0. -1.
          6    1    1    2  501    0  0.34352106589E+02  0.33309953189E+02  0.94406822516E+03  0.96098045452E+03  0.17300000000E+03 0. -1.
         -6    1    1    2    0  503 -0.34352106589E+02 -0.33309953189E+02 -0.55644081929E+02  0.18792254804E+03  0.17300000000E+03 0. -1.
</event>
<event>
 4    1  0.6164307E+000  0.1000000E+03  0.7546771E-02  0.1280296E+00
         21   -1    0    0  501  502  0.00000000000E+00  0.00000000000E+00  0.11587110401E+04  0.11587110401E+04  0.00000000000E+00 0. -1.
         21   -1    0    0  502  503 -0.00000000000E+00 -0.00000000000E+00 -0.74521854403E+02  0.74521854403E+02  0.00000000000E+00 0. -1.
          6    1    1    2  501    0 -0.84556579168E+02 -0.61385884921E+02  0.98970704354E+03  0.10101322062E+04  0.17300000000E+03 0. -1.
         -6    1    1    2    0  503  0.84556579168E+02  0.61385884921E+02  0.94482142189E+02  0.22310068835E+03  0.17300000000E+03 0. -1.
</event>
<event>
 4    1  0.6164307E+000  0.1000000E+03  0.7546771E-02  0.1280296E+00
         21   -1    0    0  501  502  0.00000000000E+00  0.00000000000E+00  0.10519448181E+03  0.10519448181E+03  0.00000000000E+00 0.  1.
         21   -1    0    0  502  503 -0.00000000000E+00 -0.00000000000E+00 -0.12277307115E+04  0.12277307115E+04  0.00000000000E+00 0.  1.
          6    1    1    2  501    0  0.18233594746E+03 -0.25389778824E+03 -0.48918034150E+03  0.60575316022E+03  0.17300000000E+03 0.  1.
         -6    1    1    2    0  503 -0.18233594746E+03  0.25389778824E+03 -0.63335588817E+03  0.72717203308E+03  0.17300000000E+03 0.  1.
</event>
<event>
 4    1  0.6164307E+000  0.1000000E+03  0.7546771E-02  0.1280296E+00
         21   -1    0    0  503  502  0.00000000000E+00  0.00000000000E+00  0.11395774058E+04  0.11395774058E+04  0.00000000000E+00 0. -1.
         21   -1    0    0  501  503 -0.00000000000E+00 -0.00000000000E+00 -0.11404126903E+03  0.11404126903E+03  0.00000000000E+00 0.  1.
          6    1    1    2  501    0 -0.28117041143E+03 -0.42864046368E+02  0.27224595985E+03  0.43004765944E+03  0.17300000000E+03 0.  1.
         -6    1    1    2    0  502  0.28117041143E+03  0.42864046368E+02  0.75329017691E+03  0.82357101538E+03  0.17300000000E+03 0. -1.
</event>
<event>
 4    1  0.6164307E+000  0.1000000E+03  0.7546771E-02  0.1280296E+00
         21   -1    0    0  503  502  0.00000000000E+00  0.00000000000E+00  0.15956987938E+03  0.15956987938E+03  0.00000000000E+00 0. -1.
         21   -1    0    0  501  503 -0.00000000000E+00 -0.00000000000E+00 -0.22440870131E+03  0.22440870131E+03  0.00000000000E+00 0.  1.
          6    1    1    2  501    0 -0.23130623873E+02  0.72579938632E+02 -0.23516824515E+02  0.19048599499E+03  0.17300000000E+03 0.  1.
         -6    1    1    2    0  502  0.23130623873E+02 -0.72579938632E+02 -0.41321997416E+02  0.19349258571E+03  0.17300000000E+03 0. -1.
</event>
<event>
 4    1  0.6164307E+000  0.1000000E+03  0.7546771E-02  0.1280296E+00
         21   -1    0    0  503  502  0.00000000000E+00  0.00000000000E+00  0.12594591418E+03  0.12594591418E+03  0.00000000000E+00 0. -1.
         21   -1    0    0  501  503 -0.00000000000E+00 -0.00000000000E+00 -0.45895332985E+03  0.45895332985E+03  0.00000000000E+00 0.  1.
          6    1    1    2  501    0  0.35899036574E+02  0.51207231487E+00 -0.36483694075E+03  0.40536896326E+03  0.17300000000E+03 0.  1.
         -6    1    1    2    0  502 -0.35899036574E+02 -0.51207231487E+00  0.31829525073E+02  0.17953028076E+03  0.17300000000E+03 0. -1.
</event>
<event>
 4    1  0.6164307E+000  0.1000000E+03  0.7546771E-02  0.1280296E+00
         21   -1    0    0  503  502  0.00000000000E+00  0.00000000000E+00  0.56675157158E+03  0.56675157158E+03  0.00000000000E+00 0.  1.
         21   -1    0    0  501  503 -0.00000000000E+00 -0.00000000000E+00 -0.26386702156E+03  0.26386702156E+03  0.00000000000E+00 0. -1.
          6    1    1    2  501    0  0.10959631418E+03  0.16082823797E+03 -0.15560315331E+03  0.30334537335E+03  0.17300000000E+03 0. -1.
         -6    1    1    2    0  502 -0.10959631418E+03 -0.16082823797E+03  0.45848770333E+03  0.52727321979E+03  0.17300000000E+03 0.  1.
</event>
<event>
 4    1  0.6164307E+000  0.1000000E+03  0.7546771E-02  0.1280296E+00
         21   -1    0    0  503  502  0.00000000000E+00  0.00000000000E+00  0.65132654074E+03  0.65132654074E+03  0.00000000000E+00 0.  1.
         21   -1    0    0  501  503 -0.00000000000E+00 -0.00000000000E+00 -0.50345668106E+02  0.50345668106E+02  0.00000000000E+00 0. -1.
          6    1    1    2  501    0  0.16586883370E+01 -0.49025209152E+01  0.19732059891E+03  0.26247134075E+03  0.17300000000E+03 0. -1.
         -6    1    1    2    0  502 -0.16586883370E+01  0.49025209152E+01  0.40366027372E+03  0.43920086809E+03  0.17300000000E+03 0.  1.
</event>
<event>
 4    1  0.6164307E+000  0.1000000E+03  0.7546771E-02  0.1280296E+00
         21   -1    0    0  503  502  0.00000000000E+00  0.00000000000E+00  0.10254369371E+03  0.10254369371E+03  0.00000000000E+00 0.  1.
         21   -1    0    0  501  503 -0.00000000000E+00 -0.00000000000E+00 -0.48342902188E+03  0.48342902188E+03  0.00000000000E+00 0.  1.
          6    1    1    2  501    0  0.22143242315E+02  0.35557530829E+02 -0.36644515755E+03  0.40738889856E+03  0.17300000000E+03 0.  1.
         -6    1    1    2    0  502 -0.22143242315E+02 -0.35557530829E+02 -0.14440170620E+02  0.17858381703E+03  0.17300000000E+03 0.  1.
</event>
<event>
 4    1  0.6164307E+000  0.1000000E+03  0.7546771E-02  0.1280296E+00
         21   -1    0    0  503  502  0.00000000000E+00  0.00000000000E+00  0.15607164516E+03  0.15607164516E+03  0.00000000000E+00 0.  1.
         21   -1    0    0  501  503 -0.00000000000E+00 -0.00000000000E+00 -0.12381848445E+04  0.12381848445E+04  0.00000000000E+00 0.  1.
          6    1    1    2  501    0  0.18394851739E+02  0.38332699461E+03 -0.74189235318E+03  0.85300130075E+03  0.17300000000E+03 0.  1.
         -6    1    1    2    0  502 -0.18394851739E+02 -0.38332699461E+03 -0.34022084616E+03  0.54125518892E+03  0.17300000000E+03 0.  1.
</event>
<event>
 4    1  0.6164307E+000  0.1000000E+03  0.7546771E-02  0.1280296E+00
         21   -1    0    0  501  502  0.00000000000E+00  0.00000000000E+00  0.51963052125E+03  0.51963052125E+03  0.00000000000E+00 0. -1.
         21   -1    0    0  502  503 -0.00000000000E+00 -0.00000000000E+00 -0.11192185761E+03  0.11192185761E+03  0.00000000000E+00 0. -1.
          6    1    1    2  501    0 -0.40533941071E+02 -0.61751401510E+02  0.40145235604E+03  0.44333873070E+03  0.17300000000E+03 0. -1.
         -6    1    1    2    0  503  0.40533941071E+02  0.61751401510E+02  0.62563075966E+01  0.18821364816E+03  0.17300000000E+03 0. -1.
</event>
<event>
 4    1  0.6164307E+000  0.1000000E+03  0.7546771E-02  0.1280296E+00
         21   -1    0    0  501  502  0.00000000000E+00  0.00000000000E+00  0.15425340442E+03  0.15425340442E+03  0.00000000000E+00 0. -1.
         21   -1    0    0  502  503 -0.00000000000E+00 -0.00000000000E+00 -0.28038158066E+03  0.28038158066E+03  0.00000000000E+00 0. -1.
          6    1    1    2  501    0 -0.39837659474E+02  0.96446775396E+02 -0.11459477556E+03  0.23227135463E+03  0.17300000000E+03 0. -1.
         -6    1    1    2    0  503  0.39837659474E+02 -0.96446775396E+02 -0.11533400685E+02  0.20236363045E+03  0.17300000000E+03 0. -1.
</event>
<event>
 4    1  0.6164307E+000  0.1000000E+03  0.7546771E-02  0.1280296E+00
         21   -1    0    0  503  502  0.00000000000E+00  0.00000000000E+00  0.11555011055E+03  0.11555011055E+03  0.00000000000E+00 0. -1.
         21   -1    0    0  501  503 -0.00000000000E+00 -0.00000000000E+00 -0.50000459248E+03  0.50000459248E+03  0.00000000000E+00 0. -1.
          6    1    1    2  501    0  0.10091356220E+03  0.12895971108E+03 -0.15108431547E+03  0.28208088290E+03  0.17300000000E+03 0. -1.
         -6    1    1    2    0  502 -0.10091356220E+03 -0.12895971108E+03 -0.23337016647E+03  0.33347382013E+03  0.17300000000E+03 0. -1.
</event>
<event>
 4    1  0.6164307E+000  0.1000000E+03  0.7546771E-02  0.1280296E+00
         21   -1    0    0  503  502  0.00000000000E+00  0.00000000000E+00  0.11736478644E+03  0.11736478644E+03  0.00000000000E+00 0. -1.
         21   -1    0    0  501  503 -0.00000000000E+00 -0.00000000000E+00 -0.31649837158E+03  0.31649837158E+03  0.00000000000E+00 0. -1.
          6    1    1    2  501    0  0.34018766986E+02 -0.77214235575E+02 -0.88455692443E+02  0.21183183002E+03  0.17300000000E+03 0. -1.
         -6    1    1    2    0  502 -0.34018766986E+02  0.77214235575E+02 -0.11067789269E+03  0.22203132800E+03  0.17300000000E+03 0. -1.
</event>
<event>
 4    1  0.6164307E+000  0.1000000E+03  0.7546771E-02  0.1280296E+00
         21   -1    0    0  503  502  0.00000000000E+00  0.00000000000E+00  0.84463332411E+02  0.84463332411E+02  0.00000000000E+00 0. -1.
         21   -1    0    0  501  503 -0.00000000000E+00 -0.00000000000E+00 -0.44552466702E+03  0.44552466702E+03  0.00000000000E+00 0. -1.
          6    1    1    2  501    0 -0.67306583582E+02 -0.28437531521E+02 -0.11413132301E+03  0.21975856817E+03  0.17300000000E+03 0. -1.
         -6    1    1    2    0  502  0.67306583582E+02  0.28437531521E+02 -0.24693001159E+03  0.31022943126E+03  0.17300000000E+03 0. -1.
</event>
<event>
 4    1  0.6164307E+000  0.1000000E+03  0.7546771E-02  0.1280296E+00
         21   -1    0    0  503  502  0.00000000000E+00  0.00000000000E+00  0.28852372650E+03  0.28852372650E+03  0.00000000000E+00 0. -1.
         21   -1    0    0  501  503 -0.00000000000E+00 -0.00000000000E+00 -0.14998027796E+03  0.14998027796E+03  0.00000000000E+00 0. -1.
          6    1    1    2  501    0 -0.66982900650E-01  0.87429641125E+01 -0.52131170359E+02  0.18089528140E+03  0.17300000000E+03 0. -1.
         -6    1    1    2    0  502  0.66982900650E-01 -0.87429641125E+01  0.19067461890E+03  0.25760872307E+03  0.17300000000E+03 0. -1.
</event>
<event>
 4    1  0.6164307E+000  0.1000000E+03  0.7546771E-02  0.1280296E+00
         21   -1    0    0  503  502  0.00000000000E+00  0.00000000000E+00  0.37580584963E+03  0.37580584963E+03  0.00000000000E+00 0. -1.
         21   -1    0    0  501  503 -0.00000000000E+00 -0.00000000000E+00 -0.10462031627E+03  0.10462031627E+03  0.00000000000E+00 0. -1.
          6    1    1    2  501    0 -0.43146876412E+02  0.27237309217E+02  0.35808357537E+02  0.18388790723E+03  0.17300000000E+03 0. -1.
         -6    1    1    2    0  502  0.43146876412E+02 -0.27237309217E+02  0.23537717582E+03  0.29653825867E+03  0.17300000000E+03 0. -1.
</event>
<event>
 4    1  0.6164307E+000  0.1000000E+03  0.7546771E-02  0.1280296E+00
         21   -1    0    0  503  502  0.00000000000E+00  0.00000000000E+00  0.61480266373E+03  0.61480266373E+03  0.00000000000E+00 0. -1.
         21   -1    0    0  501  503 -0.00000000000E+00 -0.00000000000E+00 -0.98686116381E+02  0.98686116381E+02  0.00000000000E+00 0. -1.
          6    1    1    2  501    0  0.16732145871E+02 -0.42271627668E+02  0.12799063902E+02  0.17933117757E+03  0.17300000000E+03 0. -1.
         -6    1    1    2    0  502 -0.16732145871E+02  0.42271627668E+02  0.50331748344E+03  0.53415760254E+03  0.17300000000E+03 0. -1.
</event>
<event>
 4    1  0.6164307E+000  0.1000000E+03  0.7546771E-02  0.1280296E+00
         21   -1    0    0  503  502  0.00000000000E+00  0.00000000000E+00  0.10521716755E+04  0.10521716755E+04  0.00000000000E+00 0.  1.
         21   -1    0    0  501  503 -0.00000000000E+00 -0.00000000000E+00 -0.10206366477E+03  0.10206366477E+03  0.00000000000E+00 0.  1.
          6    1    1    2  501    0 -0.12840776044E+02  0.95555842826E+02  0.15261335079E+02  0.19863965610E+03  0.17300000000E+03 0.  1.
         -6    1    1    2    0  502  0.12840776044E+02 -0.95555842826E+02  0.93484667566E+03  0.95559568418E+03  0.17300000000E+03 0.  1.
</event>
<event>
 4    1  0.6164307E+000  0.1000000E+03  0.7546771E-02  0.1280296E+00
         21   -1    0    0  501  502  0.00000000000E+00  0.00000000000E+00  0.20236668235E+03  0.20236668235E+03  0.00000000000E+00 0.  1.
         21   -1    0    0  502  503 -0.00000000000E+00 -0.00000000000E+00 -0.17444396960E+03  0.17444396960E+03  0.00000000000E+00 0.  1.
          6    1    1    2  501    0 -0.68297831965E+02  0.26073207271E+02  0.19290270939E+02  0.18880021330E+03  0.17300000000E+03 0.  1.
         -6    1    1    2    0  503  0.68297831965E+02 -0.26073207271E+02  0.86324418157E+01  0.18801043865E+03  0.17300000000E+03 0.  1.
</event>
<event>
 4    1  0.6164307E+000  0.1000000E+03  0.7546771E-02  0.1280296E+00
         21   -1    0    0  501  502  0.00000000000E+00  0.00000000000E+00  0.20057294351E+04  0.20057294351E+04  0.00000000000E+00 0.  1.
         21   -1    0    0  502  503 -0.00000000000E+00 -0.00000000000E+00 -0.61334587791E+02  0.61334587791E+02  0.00000000000E+00 0.  1.
          6    1    1    2  501    0 -0.15726012221E+03  0.85681268327E+02  0.17000938333E+04  0.17182316689E+04  0.17300000000E+03 0.  1.
         -6    1    1    2    0  503  0.15726012221E+03 -0.85681268327E+02  0.24430101398E+03  0.34883235402E+03  0.17300000000E+03 0.  1.
</event>
<event>
 4    1  0.6164307E+000  0.1000000E+03  0.7546771E-02  0.1280296E+00
         21   -1    0    0  501  502  0.00000000000E+00  0.00000000000E+00  0.32082770335E+03  0.32082770335E+03  0.00000000000E+00 0.  1.
         21   -1    0    0  502  503 -0.00000000000E+00 -0.00000000000E+00 -0.16672118741E+03  0.16672118741E+03  0.00000000000E+00 0.  1.
          6    1    1    2  501    0 -0.85810217008E+01 -0.12689732240E+03 -0.13515726266E+02  0.21514701770E+03  0.17300000000E+03 0.  1.
         -6    1    1    2    0  503  0.85810217008E+01  0.12689732240E+03  0.16762224221E+03  0.27240187307E+03  0.17300000000E+03 0.  1.
</event>
<event>
 4    1  0.6164307E+000  0.1000000E+03  0.7546771E-02  0.1280296E+00
         21   -1    0    0  501  502  0.00000000000E+00  0.00000000000E+00  0.20586128843E+04  0.20586128843E+04  0.00000000000E+00 0.  1.
         21   -1    0    0  502  503 -0.00000000000E+00 -0.00000000000E+00 -0.20943007692E+02  0.20943007692E+02  0.00000000000E+00 0.  1.
          6    1    1    2  501    0  0.32130616477E+02  0.10375132747E+03  0.12053878471E+04  0.12225733420E+04  0.17300000000E+03 0.  1.
         -6    1    1    2    0  503 -0.32130616477E+02 -0.10375132747E+03  0.83228202953E+03  0.85698255008E+03  0.17300000000E+03 0.  1.
</event>
<event>
 4    1  0.6164307E+000  0.1000000E+03  0.7546771E-02  0.1280296E+00
         21   -1    0    0  501  502  0.00000000000E+00  0.00000000000E+00  0.21733760758E+03  0.21733760758E+03  0.00000000000E+00 0.  1.
         21   -1    0    0  502  503 -0.00000000000E+00 -0.00000000000E+00 -0.25555388545E+03  0.25555388545E+03  0.00000000000E+00 0.  1.
          6    1    1    2  501    0  0.84389207414E+02 -0.72496622628E+02  0.96313598222E+02  0.22711804821E+03  0.17300000000E+03 0.  1.
         -6    1    1    2    0  503 -0.84389207414E+02  0.72496622628E+02 -0.13452987609E+03  0.24577344482E+03  0.17300000000E+03 0.  1.
</event>
<event>
 4    1  0.6164307E+000  0.1000000E+03  0.7546771E-02  0.1280296E+00
         21   -1    0    0  503  502  0.00000000000E+00  0.00000000000E+00  0.39142512785E+03  0.39142512785E+03  0.00000000000E+00 0. -1.
         21   -1    0    0  501  503 -0.00000000000E+00 -0.00000000000E+00 -0.11054716941E+03  0.11054716941E+03  0.00000000000E+00 0. -1.
          6    1    1    2  501    0 -0.33729363064E+02 -0.61159419282E+02  0.29436119193E+02  0.18887463994E+03  0.17300000000E+03 0. -1.
         -6    1    1    2    0  502  0.33729363064E+02  0.61159419282E+02  0.25144183925E+03  0.31309765733E+03  0.17300000000E+03 0. -1.
</event>
<event>
 4    1  0.6164307E+000  0.1000000E+03  0.7546771E-02  0.1280296E+00
         21   -1    0    0  501  502  0.00000000000E+00  0.00000000000E+00  0.17529307255E+03  0.17529307255E+03  0.00000000000E+00 0. -1.
         21   -1    0    0  502  503 -0.00000000000E+00 -0.00000000000E+00 -0.26460986938E+03  0.26460986938E+03  0.00000000000E+00 0. -1.
          6    1    1    2  501    0  0.30038365814E+02 -0.10184029738E+03  0.28855656093E+02  0.20502536058E+03  0.17300000000E+03 0. -1.
         -6    1    1    2    0  503 -0.30038365814E+02  0.10184029738E+03 -0.11817245292E+03  0.23487758135E+03  0.17300000000E+03 0. -1.
</event>
<event>
 4    1  0.6164307E+000  0.1000000E+03  0.7546771E-02  0.1280296E+00
         21   -1    0    0  501  502  0.00000000000E+00  0.00000000000E+00  0.11790479112E+04  0.11790479112E+04  0.00000000000E+00 0. -1.
         21   -1    0    0  502  503 -0.00000000000E+00 -0.00000000000E+00 -0.12008370453E+03  0.12008370453E+03  0.00000000000E+00 0.  1.
          6    1    1    2  501    0 -0.13282247606E+03  0.79460523758E+01  0.10586151894E+04  0.10808793037E+04  0.17300000000E+03 0. -1.
         -6    1    1    2    0  503  0.13282247606E+03 -0.79460523758E+01  0.34901725254E+00  0.21825231204E+03  0.17300000000E+03 0.  1.
</event>
<event>
 4    1  0.6164307E+000  0.1000000E+03  0.7546771E-02  0.1280296E+00
         21   -1    0    0  501  502  0.00000000000E+00  0.00000000000E+00  0.27112100664E+03  0.27112100664E+03  0.00000000000E+00 0. -1.
         21   -1    0    0  502  503 -0.00000000000E+00 -0.00000000000E+00 -0.32565352210E+03  0.32565352210E+03  0.00000000000E+00 0.  1.
          6    1    1    2  501    0  0.42405471501E+02  0.91824391240E+02  0.19304684402E+03  0.27825532668E+03  0.17300000000E+03 0. -1.
         -6    1    1    2    0  503 -0.42405471501E+02 -0.91824391240E+02 -0.24757935948E+03  0.31851920206E+03  0.17300000000E+03 0.  1.
</event>
<event>
 4    1  0.6164307E+000  0.1000000E+03  0.7546771E-02  0.1280296E+00
         21   -1    0    0  503  502  0.00000000000E+00  0.00000000000E+00  0.33889257014E+02  0.33889257014E+02  0.00000000000E+00 0. -1.
         21   -1    0    0  501  503 -0.00000000000E+00 -0.00000000000E+00 -0.15077499969E+04  0.15077499969E+04  0.00000000000E+00 0. -1.
          6    1    1    2  501    0 -0.15089985365E+02  0.82691896262E+01 -0.12295744624E+04  0.12418045119E+04  0.17300000000E+03 0.  1.
         -6    1    1    2    0  502  0.15089985365E+02 -0.82691896262E+01 -0.24428627746E+03  0.29983474200E+03  0.17300000000E+03 0.  1.
</event>
<event>
 4    1  0.6164307E+000  0.1000000E+03  0.7546771E-02  0.1280296E+00
         21   -1    0    0  503  502  0.00000000000E+00  0.00000000000E+00  0.26671307456E+03  0.26671307456E+03  0.00000000000E+00 0. -1.
         21   -1    0    0  501  503 -0.00000000000E+00 -0.00000000000E+00 -0.12241067527E+03  0.12241067527E+03  0.00000000000E+00 0. -1.
          6    1    1    2  501    0  0.18503114672E+02  0.47817143427E+02  0.61897298432E+02  0.19075932483E+03  0.17300000000E+03 0.  1.
         -6    1    1    2    0  502 -0.18503114672E+02 -0.47817143427E+02  0.82405100851E+02  0.19836442500E+03  0.17300000000E+03 0.  1.
</event>
<event>
 4    1  0.6164307E+000  0.1000000E+03  0.7546771E-02  0.1280296E+00
         21   -1    0    0  503  502  0.00000000000E+00  0.00000000000E+00  0.54248970287E+02  0.54248970287E+02  0.00000000000E+00 0. -1.
         21   -1    0    0  501  503 -0.00000000000E+00 -0.00000000000E+00 -0.72356421052E+03  0.72356421052E+03  0.00000000000E+00 0. -1.
          6    1    1    2  501    0 -0.23660669579E+02  0.66180074479E+02 -0.46462832837E+03  0.50074755423E+03  0.17300000000E+03 0.  1.
         -6    1    1    2    0  502  0.23660669579E+02 -0.66180074479E+02 -0.20468691186E+03  0.27706562658E+03  0.17300000000E+03 0.  1.
</event>
<event>
 4    1  0.6164307E+000  0.1000000E+03  0.7546771E-02  0.1280296E+00
         21   -1    0    0  503  502  0.00000000000E+00  0.00000000000E+00  0.11464754264E+04  0.11464754264E+04  0.00000000000E+00 0. -1.
         21   -1    0    0  501  503 -0.00000000000E+00 -0.00000000000E+00 -0.85540369388E+02  0.85540369388E+02  0.00000000000E+00 0. -1.
          6    1    1    2  501    0 -0.22791652548E+03  0.58721249609E+02  0.30838264758E+03  0.42476226889E+03  0.17300000000E+03 0. -1.
         -6    1    1    2    0  502  0.22791652548E+03 -0.58721249609E+02  0.75255240940E+03  0.80725352687E+03  0.17300000000E+03 0. -1.
</event>
<event>
 4    1  0.6164307E+000  0.1000000E+03  0.7546771E-02  0.1280296E+00
         21   -1    0    0  503  502  0.00000000000E+00  0.00000000000E+00  0.15420604114E+03  0.15420604114E+03  0.00000000000E+00 0. -1.
         21   -1    0    0  501  503 -0.00000000000E+00 -0.00000000000E+00 -0.44267182872E+03  0.44267182872E+03  0.00000000000E+00 0. -1.
          6    1    1    2  501    0  0.56651481311E+02  0.25322625807E+02 -0.35634558127E+03  0.40095111797E+03  0.17300000000E+03 0. -1.
         -6    1    1    2    0  502 -0.56651481311E+02 -0.25322625807E+02  0.67879793688E+02  0.19592675188E+03  0.17300000000E+03 0. -1.
</event>
<event>
 4    1  0.6164307E+000  0.1000000E+03  0.7546771E-02  0.1280296E+00
         21   -1    0    0  503  502  0.00000000000E+00  0.00000000000E+00  0.52083842818E+03  0.52083842818E+03  0.00000000000E+00 0. -1.
         21   -1    0    0  501  503 -0.00000000000E+00 -0.00000000000E+00 -0.48458271758E+03  0.48458271758E+03  0.00000000000E+00 0. -1.
          6    1    1    2  501    0  0.18973479423E+03  0.22734238779E+03 -0.34923018649E+03  0.48946356002E+03  0.17300000000E+03 0. -1.
         -6    1    1    2    0  502 -0.18973479423E+03 -0.22734238779E+03  0.38548589709E+03  0.51595758574E+03  0.17300000000E+03 0. -1.
</event>
<event>
 4    1  0.6164307E+000  0.1000000E+03  0.7546771E-02  0.1280296E+00
         21   -1    0    0  501  502  0.00000000000E+00  0.00000000000E+00  0.16141406394E+04  0.16141406394E+04  0.00000000000E+00 0. -1.
         21   -1    0    0  502  503 -0.00000000000E+00 -0.00000000000E+00 -0.25271118820E+03  0.25271118820E+03  0.00000000000E+00 0.  1.
          6    1    1    2  501    0 -0.30316375099E+03  0.65066572639E+02  0.14566019801E+04  0.14992532299E+04  0.17300000000E+03 0. -1.
         -6    1    1    2    0  503  0.30316375099E+03 -0.65066572639E+02 -0.95172528919E+02  0.36759859773E+03  0.17300000000E+03 0.  1.
</event>
<event>
 4    1  0.6164307E+000  0.1000000E+03  0.7546771E-02  0.1280296E+00
         21   -1    0    0  501  502  0.00000000000E+00  0.00000000000E+00  0.25050680342E+03  0.25050680342E+03  0.00000000000E+00 0. -1.
         21   -1    0    0  502  503 -0.00000000000E+00 -0.00000000000E+00 -0.31359141234E+03  0.31359141234E+03  0.00000000000E+00 0.  1.
          6    1    1    2  501    0  0.63354961999E+02 -0.49789134701E+02  0.17502151151E+03  0.25894852507E+03  0.17300000000E+03 0. -1.
         -6    1    1    2    0  503 -0.63354961999E+02  0.49789134701E+02 -0.23810612043E+03  0.30514969069E+03  0.17300000000E+03 0.  1.
</event>
<event>
 4    1  0.6164307E+000  0.1000000E+03  0.7546771E-02  0.1280296E+00
         21   -1    0    0  501  502  0.00000000000E+00  0.00000000000E+00  0.13684265676E+04  0.13684265676E+04  0.00000000000E+00 0.  1.
         21   -1    0    0  502  503 -0.00000000000E+00 -0.00000000000E+00 -0.26337611991E+02  0.26337611991E+02  0.00000000000E+00 0.  1.
          6    1    1    2  501    0  0.43855128676E+02 -0.54992546784E+01  0.90793301882E+03  0.92532420307E+03  0.17300000000E+03 0.  1.
         -6    1    1    2    0  503 -0.43855128676E+02  0.54992546784E+01  0.43415593679E+03  0.46943997653E+03  0.17300000000E+03 0.  1.
</event>
<event>
 4    1  0.6164307E+000  0.1000000E+03  0.7546771E-02  0.1280296E+00
         21   -1    0    0  501  502  0.00000000000E+00  0.00000000000E+00  0.34357221553E+03  0.34357221553E+03  0.00000000000E+00 0.  1.
         21   -1    0    0  502  503 -0.00000000000E+00 -0.00000000000E+00 -0.19669258526E+03  0.19669258526E+03  0.00000000000E+00 0.  1.
          6    1    1    2  501    0  0.75207968412E+02 -0.84286051519E+01  0.25909946977E+03  0.32060694804E+03  0.17300000000E+03 0.  1.
         -6    1    1    2    0  503 -0.75207968412E+02  0.84286051519E+01 -0.11221983949E+03  0.21965785275E+03  0.17300000000E+03 0.  1.
</event>
<event>
 4    1  0.6164307E+000  0.1000000E+03  0.7546771E-02  0.1280296E+00
         21   -1    0    0  503  502  0.00000000000E+00  0.00000000000E+00  0.21802857185E+03  0.21802857185E+03  0.00000000000E+00 0.  1.
         21   -1    0    0  501  503 -0.00000000000E+00 -0.00000000000E+00 -0.15438755941E+03  0.15438755941E+03  0.00000000000E+00 0.  1.
          6    1    1    2  501    0 -0.73928975747E+01  0.60111392429E+02  0.23709664681E+02  0.18482202962E+03  0.17300000000E+03 0.  1.
         -6    1    1    2    0  502  0.73928975747E+01 -0.60111392429E+02  0.39931347758E+02  0.18759410163E+03  0.17300000000E+03 0.  1.
</event>
<event>
 4    1  0.6164307E+000  0.1000000E+03  0.7546771E-02  0.1280296E+00
         21   -1    0    0  503  502  0.00000000000E+00  0.00000000000E+00  0.27615269143E+03  0.27615269143E+03  0.00000000000E+00 0.  1.
         21   -1    0    0  501  503 -0.00000000000E+00 -0.00000000000E+00 -0.16749481528E+03  0.16749481528E+03  0.00000000000E+00 0.  1.
          6    1    1    2  501    0 -0.99112230483E+02  0.51668917970E+02 -0.95207327795E+01  0.20618573100E+03  0.17300000000E+03 0.  1.
         -6    1    1    2    0  502  0.99112230483E+02 -0.51668917970E+02  0.11817860893E+03  0.23746177571E+03  0.17300000000E+03 0.  1.
</event>
<event>
 4    1  0.6164307E+000  0.1000000E+03  0.7546771E-02  0.1280296E+00
         21   -1    0    0  503  502  0.00000000000E+00  0.00000000000E+00  0.20859167136E+03  0.20859167136E+03  0.00000000000E+00 0.  1.
         21   -1    0    0  501  503 -0.00000000000E+00 -0.00000000000E+00 -0.21425513745E+03  0.21425513745E+03  0.00000000000E+00 0.  1.
          6    1    1    2  501    0  0.92452921535E+02 -0.47509199812E+02 -0.65751369370E+02  0.21226612858E+03  0.17300000000E+03 0.  1.
         -6    1    1    2    0  502 -0.92452921535E+02  0.47509199812E+02  0.60087903274E+02  0.21058068023E+03  0.17300000000E+03 0.  1.
</event>
<event>
 4    1  0.6164307E+000  0.1000000E+03  0.7546771E-02  0.1280296E+00
         21   -1    0    0  501  502  0.00000000000E+00  0.00000000000E+00  0.86240338344E+03  0.86240338344E+03  0.00000000000E+00 0.  1.
         21   -1    0    0  502  503 -0.00000000000E+00 -0.00000000000E+00 -0.11997151273E+03  0.11997151273E+03  0.00000000000E+00 0.  1.
          6    1    1    2  501    0  0.15367390439E+02 -0.16190058391E+03  0.70257811397E+03  0.74161510367E+03  0.17300000000E+03 0.  1.
         -6    1    1    2    0  503 -0.15367390439E+02  0.16190058391E+03  0.39853756744E+02  0.24075979251E+03  0.17300000000E+03 0.  1.
</event>
<event>
 4    1  0.6164307E+000  0.1000000E+03  0.7546771E-02  0.1280296E+00
         21   -1    0    0  501  502  0.00000000000E+00  0.00000000000E+00  0.13602501486E+03  0.13602501486E+03  0.00000000000E+00 0. -1.
         21   -1    0    0  502  503 -0.00000000000E+00 -0.00000000000E+00 -0.23794509774E+04  0.23794509774E+04  0.00000000000E+00 0. -1.
          6    1    1    2  501    0 -0.26158588972E+02 -0.21183476929E+03 -0.20367152988E+02  0.27550328887E+03  0.17300000000E+03 0. -1.
         -6    1    1    2    0  503  0.26158588972E+02  0.21183476929E+03 -0.22230588095E+04  0.22399727034E+04  0.17300000000E+03 0. -1.
</event>
<event>
 4    1  0.6164307E+000  0.1000000E+03  0.7546771E-02  0.1280296E+00
         21   -1    0    0  501  502  0.00000000000E+00  0.00000000000E+00  0.31679655952E+03  0.31679655952E+03  0.00000000000E+00 0. -1.
         21   -1    0    0  502  503 -0.00000000000E+00 -0.00000000000E+00 -0.29317028415E+03  0.29317028415E+03  0.00000000000E+00 0. -1.
          6    1    1    2  501    0  0.22314357082E+03 -0.10145932065E+03 -0.41699353055E+02  0.30291068484E+03  0.17300000000E+03 0. -1.
         -6    1    1    2    0  503 -0.22314357082E+03  0.10145932065E+03  0.65325628424E+02  0.30705615883E+03  0.17300000000E+03 0. -1.
</event>
<event>
 4    1  0.6164307E+000  0.1000000E+03  0.7546771E-02  0.1280296E+00
         21   -1    0    0  501  502  0.00000000000E+00  0.00000000000E+00  0.11439524064E+03  0.11439524064E+03  0.00000000000E+00 0. -1.
         21   -1    0    0  502  503 -0.00000000000E+00 -0.00000000000E+00 -0.30249671226E+03  0.30249671226E+03  0.00000000000E+00 0. -1.
          6    1    1    2  501    0 -0.43328256725E+02  0.14343468204E+02 -0.37000685725E+02  0.18270501814E+03  0.17300000000E+03 0. -1.
         -6    1    1    2    0  503  0.43328256725E+02 -0.14343468204E+02 -0.15110078590E+03  0.23418693475E+03  0.17300000000E+03 0. -1.
</event>
<event>
 4    1  0.6164307E+000  0.1000000E+03  0.7546771E-02  0.1280296E+00
         21   -1    0    0  503  502  0.00000000000E+00  0.00000000000E+00  0.18399258044E+03  0.18399258044E+03  0.00000000000E+00 0.  1.
         21   -1    0    0  501  503 -0.00000000000E+00 -0.00000000000E+00 -0.65859092377E+03  0.65859092377E+03  0.00000000000E+00 0.  1.
          6    1    1    2  501    0 -0.12003890348E+03 -0.46745397621E+02 -0.56797065195E+03  0.60754763766E+03  0.17300000000E+03 0. -1.
         -6    1    1    2    0  502  0.12003890348E+03  0.46745397621E+02  0.93372308626E+02  0.23503586655E+03  0.17300000000E+03 0. -1.
</event>
<event>
 4    1  0.6164307E+000  0.1000000E+03  0.7546771E-02  0.1280296E+00
         21   -1    0    0  503  502  0.00000000000E+00  0.00000000000E+00  0.44668316232E+03  0.44668316232E+03  0.00000000000E+00 0.  1.
         21   -1    0    0  501  503 -0.00000000000E+00 -0.00000000000E+00 -0.13456645645E+03  0.13456645645E+03  0.00000000000E+00 0.  1.
          6    1    1    2  501    0  0.73760918040E+02  0.49754394020E+01 -0.30295019915E+02  0.19055764550E+03  0.17300000000E+03 0. -1.
         -6    1    1    2    0  502 -0.73760918040E+02 -0.49754394020E+01  0.34241172578E+03  0.39069197327E+03  0.17300000000E+03 0. -1.
</event>
<event>
 4    1  0.6164307E+000  0.1000000E+03  0.7546771E-02  0.1280296E+00
         21   -1    0    0  503  502  0.00000000000E+00  0.00000000000E+00  0.10222194879E+04  0.10222194879E+04  0.00000000000E+00 0.  1.
         21   -1    0    0  501  503 -0.00000000000E+00 -0.00000000000E+00 -0.67042415889E+02  0.67042415889E+02  0.00000000000E+00 0.  1.
          6    1    1    2  501    0 -0.12741902531E+03  0.48475739736E+02  0.18324061804E+03  0.28651636856E+03  0.17300000000E+03 0. -1.
         -6    1    1    2    0  502  0.12741902531E+03 -0.48475739736E+02  0.77193645396E+03  0.80274553521E+03  0.17300000000E+03 0. -1.
</event>
<event>
 4    1  0.6164307E+000  0.1000000E+03  0.7546771E-02  0.1280296E+00
         21   -1    0    0  503  502  0.00000000000E+00  0.00000000000E+00  0.35754118626E+03  0.35754118626E+03  0.00000000000E+00 0. -1.
         21   -1    0    0  501  503 -0.00000000000E+00 -0.00000000000E+00 -0.87774654380E+03  0.87774654380E+03  0.00000000000E+00 0. -1.
          6    1    1    2  501    0  0.28283564632E+03 -0.25846349004E+03 -0.66833997714E+03  0.78956108285E+03  0.17300000000E+03 0. -1.
         -6    1    1    2    0  502 -0.28283564632E+03  0.25846349004E+03  0.14813461960E+03  0.44572664721E+03  0.17300000000E+03 0. -1.
</event>
<event>
 4    1  0.6164307E+000  0.1000000E+03  0.7546771E-02  0.1280296E+00
         21   -1    0    0  503  502  0.00000000000E+00  0.00000000000E+00  0.23244307983E+03  0.23244307983E+03  0.00000000000E+00 0. -1.
         21   -1    0    0  501  503 -0.00000000000E+00 -0.00000000000E+00 -0.32809003734E+03  0.32809003734E+03  0.00000000000E+00 0.  1.
          6    1    1    2  501    0 -0.13040017921E+03 -0.14784041825E+03 -0.13555234476E+03  0.29523623453E+03  0.17300000000E+03 0.  1.
         -6    1    1    2    0  502  0.13040017921E+03  0.14784041825E+03  0.39905387251E+02  0.26529688264E+03  0.17300000000E+03 0. -1.
</event>
<event>
 4    1  0.6164307E+000  0.1000000E+03  0.7546771E-02  0.1280296E+00
         21   -1    0    0  503  502  0.00000000000E+00  0.00000000000E+00  0.26823380605E+03  0.26823380605E+03  0.00000000000E+00 0. -1.
         21   -1    0    0  501  503 -0.00000000000E+00 -0.00000000000E+00 -0.18775817327E+03  0.18775817327E+03  0.00000000000E+00 0.  1.
          6    1    1    2  501    0  0.68424949373E+02 -0.48938605898E+02 -0.77178264361E+02  0.20727384141E+03  0.17300000000E+03 0.  1.
         -6    1    1    2    0  502 -0.68424949373E+02  0.48938605898E+02  0.15765389714E+03  0.24871813791E+03  0.17300000000E+03 0. -1.
</event>
<event>
 4    1  0.6164307E+000  0.1000000E+03  0.7546771E-02  0.1280296E+00
         21   -1    0    0  501  502  0.00000000000E+00  0.00000000000E+00  0.45502067570E+02  0.45502067570E+02  0.00000000000E+00 0. -1.
         21   -1    0    0  502  503 -0.00000000000E+00 -0.00000000000E+00 -0.12600711276E+04  0.12600711276E+04  0.00000000000E+00 0.  1.
          6    1    1    2  501    0  0.50936701335E+02  0.23236540903E+02 -0.18255338250E+03  0.25766106000E+03  0.17300000000E+03 0.  1.
         -6    1    1    2    0  503 -0.50936701335E+02 -0.23236540903E+02 -0.10320156775E+04  0.10479121351E+04  0.17300000000E+03 0. -1.
</event>
<event>
 4    1  0.6164307E+000  0.1000000E+03  0.7546771E-02  0.1280296E+00
         21   -1    0    0  501  502  0.00000000000E+00  0.00000000000E+00  0.48014691736E+03  0.48014691736E+03  0.00000000000E+00 0.  1.
         21   -1    0    0  502  503 -0.00000000000E+00 -0.00000000000E+00 -0.67725669639E+02  0.67725669639E+02  0.00000000000E+00 0.  1.
          6    1    1    2  501    0  0.34197115222E+02  0.29165250914E+02  0.16996757188E+03  0.24665366415E+03  0.17300000000E+03 0.  1.
         -6    1    1    2    0  503 -0.34197115222E+02 -0.29165250914E+02  0.24245367584E+03  0.30121892285E+03  0.17300000000E+03 0.  1.
</event>
<event>
 4    1  0.6164307E+000  0.1000000E+03  0.7546771E-02  0.1280296E+00
         21   -1    0    0  501  502  0.00000000000E+00  0.00000000000E+00  0.10445680802E+04  0.10445680802E+04  0.00000000000E+00 0.  1.
         21   -1    0    0  502  503 -0.00000000000E+00 -0.00000000000E+00 -0.40380099975E+02  0.40380099975E+02  0.00000000000E+00 0.  1.
          6    1    1    2  501    0  0.78523792099E+02 -0.36530090126E+02  0.32004476922E+03  0.37397605233E+03  0.17300000000E+03 0.  1.
         -6    1    1    2    0  503 -0.78523792099E+02  0.36530090126E+02  0.68414321099E+03  0.71097212783E+03  0.17300000000E+03 0.  1.
</event>
<event>
 4    1  0.6164307E+000  0.1000000E+03  0.7546771E-02  0.1280296E+00
         21   -1    0    0  501  502  0.00000000000E+00  0.00000000000E+00  0.13249322672E+04  0.13249322672E+04  0.00000000000E+00 0.  1.
         21   -1    0    0  502  503 -0.00000000000E+00 -0.00000000000E+00 -0.39569021209E+02  0.39569021209E+02  0.00000000000E+00 0.  1.
          6    1    1    2  501    0 -0.45606808249E+02 -0.10213944435E+03  0.94042335557E+03  0.96272401796E+03  0.17300000000E+03 0.  1.
         -6    1    1    2    0  503  0.45606808249E+02  0.10213944435E+03  0.34493989043E+03  0.40177727047E+03  0.17300000000E+03 0.  1.
</event>
<event>
 4    1  0.6164307E+000  0.1000000E+03  0.7546771E-02  0.1280296E+00
         21   -1    0    0  501  502  0.00000000000E+00  0.00000000000E+00  0.14024377257E+03  0.14024377257E+03  0.00000000000E+00 0.  1.
         21   -1    0    0  502  503 -0.00000000000E+00 -0.00000000000E+00 -0.34209194484E+03  0.34209194484E+03  0.00000000000E+00 0.  1.
          6    1    1    2  501    0  0.20711240480E+02 -0.12780625827E+03 -0.14037587474E+03  0.25767766947E+03  0.17300000000E+03 0.  1.
         -6    1    1    2    0  503 -0.20711240480E+02  0.12780625827E+03 -0.61472297534E+02  0.22465804793E+03  0.17300000000E+03 0.  1.
</event>
<event>
 4    1  0.6164307E+000  0.1000000E+03  0.7546771E-02  0.1280296E+00
         21   -1    0    0  503  502  0.00000000000E+00  0.00000000000E+00  0.73273340227E+02  0.73273340227E+02  0.00000000000E+00 0. -1.
         21   -1    0    0  501  503 -0.00000000000E+00 -0.00000000000E+00 -0.50158970641E+03  0.50158970641E+03  0.00000000000E+00 0. -1.
          6    1    1    2  501    0  0.69770313742E+02  0.27651613712E+02 -0.26591415920E+03  0.32599363258E+03  0.17300000000E+03 0. -1.
         -6    1    1    2    0  502 -0.69770313742E+02 -0.27651613712E+02 -0.16240220699E+03  0.24886941406E+03  0.17300000000E+03 0. -1.
</event>
<event>
 4    1  0.6164307E+000  0.1000000E+03  0.7546771E-02  0.1280296E+00
         21   -1    0    0  503  502  0.00000000000E+00  0.00000000000E+00  0.22661103226E+03  0.22661103226E+03  0.00000000000E+00 0. -1.
         21   -1    0    0  501  503 -0.00000000000E+00 -0.00000000000E+00 -0.18923474236E+03  0.18923474236E+03  0.00000000000E+00 0. -1.
          6    1    1    2  501    0 -0.19803775533E+02 -0.11176837640E+03  0.10328397169E+02  0.20717151174E+03  0.17300000000E+03 0. -1.
         -6    1    1    2    0  502  0.19803775533E+02  0.11176837640E+03  0.27047892734E+02  0.20867426288E+03  0.17300000000E+03 0. -1.
</event>
<event>
 4    1  0.6164307E+000  0.1000000E+03  0.7546771E-02  0.1280296E+00
         21   -1    0    0  503  502  0.00000000000E+00  0.00000000000E+00  0.33935003282E+02  0.33935003282E+02  0.00000000000E+00 0. -1.
         21   -1    0    0  501  503 -0.00000000000E+00 -0.00000000000E+00 -0.12255345024E+04  0.12255345024E+04  0.00000000000E+00 0. -1.
          6    1    1    2  501    0 -0.39855285843E+01  0.60275549475E+02 -0.87217586739E+03  0.89121757723E+03  0.17300000000E+03 0. -1.
         -6    1    1    2    0  502  0.39855285843E+01 -0.60275549475E+02 -0.31942363172E+03  0.36825192845E+03  0.17300000000E+03 0. -1.
</event>
<event>
 4    1  0.6164307E+000  0.1000000E+03  0.7546771E-02  0.1280296E+00
         21   -1    0    0  503  502  0.00000000000E+00  0.00000000000E+00  0.90181509749E+03  0.90181509749E+03  0.00000000000E+00 0. -1.
         21   -1    0    0  501  503 -0.00000000000E+00 -0.00000000000E+00 -0.64469930650E+02  0.64469930650E+02  0.00000000000E+00 0. -1.
          6    1    1    2  501    0 -0.38246490130E+02 -0.59922399824E+02  0.11375431404E+03  0.21891215583E+03  0.17300000000E+03 0. -1.
         -6    1    1    2    0  502  0.38246490130E+02  0.59922399824E+02  0.72359085279E+03  0.74737287230E+03  0.17300000000E+03 0. -1.
</event>
<event>
 4    1  0.6164307E+000  0.1000000E+03  0.7546771E-02  0.1280296E+00
         21   -1    0    0  503  502  0.00000000000E+00  0.00000000000E+00  0.72914229452E+02  0.72914229452E+02  0.00000000000E+00 0. -1.
         21   -1    0    0  501  503 -0.00000000000E+00 -0.00000000000E+00 -0.68646004939E+03  0.68646004939E+03  0.00000000000E+00 0. -1.
          6    1    1    2  501    0 -0.33640590169E+02 -0.12911893556E+03 -0.38852253013E+03  0.44573775389E+03  0.17300000000E+03 0. -1.
         -6    1    1    2    0  502  0.33640590169E+02  0.12911893556E+03 -0.22502328981E+03  0.31363652495E+03  0.17300000000E+03 0. -1.
</event>
<event>
 4    1  0.6164307E+000  0.1000000E+03  0.7546771E-02  0.1280296E+00
         21   -1    0    0  503  502  0.00000000000E+00  0.00000000000E+00  0.22417582355E+02  0.22417582355E+02  0.00000000000E+00 0.  1.
         21   -1    0    0  501  503 -0.00000000000E+00 -0.00000000000E+00 -0.16098367597E+04  0.16098367597E+04  0.00000000000E+00 0.  1.
          6    1    1    2  501    0  0.46188870176E+02  0.28453780660E+02 -0.55005627264E+03  0.57916658435E+03  0.17300000000E+03 0.  1.
         -6    1    1    2    0  502 -0.46188870176E+02 -0.28453780660E+02 -0.10373629047E+04  0.10530877577E+04  0.17300000000E+03 0.  1.
</event>
<event>
 4    1  0.6164307E+000  0.1000000E+03  0.7546771E-02  0.1280296E+00
         21   -1    0    0  503  502  0.00000000000E+00  0.00000000000E+00  0.36691979890E+04  0.36691979890E+04  0.00000000000E+00 0. -1.
         21   -1    0    0  501  503 -0.00000000000E+00 -0.00000000000E+00 -0.21330084325E+02  0.21330084325E+02  0.00000000000E+00 0. -1.
          6    1    1    2  501    0 -0.10976761161E+03 -0.53241524719E+02  0.61754918305E+03  0.65282431174E+03  0.17300000000E+03 0. -1.
         -6    1    1    2    0  502  0.10976761161E+03  0.53241524719E+02  0.30303187216E+04  0.30377037616E+04  0.17300000000E+03 0. -1.
</event>
<event>
 4    1  0.6164307E+000  0.1000000E+03  0.7546771E-02  0.1280296E+00
         21   -1    0    0  503  502  0.00000000000E+00  0.00000000000E+00  0.33728809534E+02  0.33728809534E+02  0.00000000000E+00 0. -1.
         21   -1    0    0  501  503 -0.00000000000E+00 -0.00000000000E+00 -0.99350206053E+03  0.99350206053E+03  0.00000000000E+00 0. -1.
          6    1    1    2  501    0  0.22660189466E+02 -0.36985210561E+02 -0.59554632012E+03  0.62167982869E+03  0.17300000000E+03 0. -1.
         -6    1    1    2    0  502 -0.22660189466E+02  0.36985210561E+02 -0.36422693088E+03  0.40555104138E+03  0.17300000000E+03 0. -1.
</event>
<event>
 4    1  0.6164307E+000  0.1000000E+03  0.7546771E-02  0.1280296E+00
         21   -1    0    0  503  502  0.00000000000E+00  0.00000000000E+00  0.14091392354E+04  0.14091392354E+04  0.00000000000E+00 0. -1.
         21   -1    0    0  501  503 -0.00000000000E+00 -0.00000000000E+00 -0.34554235259E+03  0.34554235259E+03  0.00000000000E+00 0. -1.
          6    1    1    2  501    0  0.52475141413E+03  0.17114901842E+03  0.41075163047E+02  0.57988981898E+03  0.17300000000E+03 0. -1.
         -6    1    1    2    0  502 -0.52475141413E+03 -0.17114901842E+03  0.10225217198E+04  0.11747917690E+04  0.17300000000E+03 0. -1.
</event>
<event>
 4    1  0.6164307E+000  0.1000000E+03  0.7546771E-02  0.1280296E+00
         21   -1    0    0  503  502  0.00000000000E+00  0.00000000000E+00  0.16174444546E+03  0.16174444546E+03  0.00000000000E+00 0.  1.
         21   -1    0    0  501  503 -0.00000000000E+00 -0.00000000000E+00 -0.31891592710E+03  0.31891592710E+03  0.00000000000E+00 0.  1.
          6    1    1    2  501    0 -0.45721686086E+02 -0.29496823720E+02 -0.22326258826E+03  0.28763817289E+03  0.17300000000E+03 0.  1.
         -6    1    1    2    0  502  0.45721686086E+02  0.29496823720E+02  0.66091106620E+02  0.19302219966E+03  0.17300000000E+03 0.  1.
</event>
<event>
 4    1  0.6164307E+000  0.1000000E+03  0.7546771E-02  0.1280296E+00
         21   -1    0    0  503  502  0.00000000000E+00  0.00000000000E+00  0.79145496984E+02  0.79145496984E+02  0.00000000000E+00 0.  1.
         21   -1    0    0  501  503 -0.00000000000E+00 -0.00000000000E+00 -0.39238808695E+03  0.39238808695E+03  0.00000000000E+00 0.  1.
          6    1    1    2  501    0  0.17865621759E+02  0.18791045106E+02 -0.18514214608E+03  0.25471336453E+03  0.17300000000E+03 0.  1.
         -6    1    1    2    0  502 -0.17865621759E+02 -0.18791045106E+02 -0.12810044389E+03  0.21682021940E+03  0.17300000000E+03 0.  1.
</event>
<event>
 4    1  0.6164307E+000  0.1000000E+03  0.7546771E-02  0.1280296E+00
         21   -1    0    0  503  502  0.00000000000E+00  0.00000000000E+00  0.36298046083E+03  0.36298046083E+03  0.00000000000E+00 0.  1.
         21   -1    0    0  501  503 -0.00000000000E+00 -0.00000000000E+00 -0.90528062318E+03  0.90528062318E+03  0.00000000000E+00 0.  1.
          6    1    1    2  501    0 -0.12466209046E+02 -0.88186070443E+02 -0.86763068405E+03  0.88918175493E+03  0.17300000000E+03 0.  1.
         -6    1    1    2    0  502  0.12466209046E+02  0.88186070443E+02  0.32533052170E+03  0.37907932908E+03  0.17300000000E+03 0.  1.
</event>
<event>
 4    1  0.6164307E+000  0.1000000E+03  0.7546771E-02  0.1280296E+00
         21   -1    0    0  501  502  0.00000000000E+00  0.00000000000E+00  0.12985044480E+03  0.12985044480E+03  0.00000000000E+00 0.  1.
         21   -1    0    0  502  503 -0.00000000000E+00 -0.00000000000E+00 -0.24970738935E+03  0.24970738935E+03  0.00000000000E+00 0.  1.
          6    1    1    2  501    0  0.47010356440E+02  0.11488150335E+02 -0.72993102792E+02  0.19390447201E+03  0.17300000000E+03 0.  1.
         -6    1    1    2    0  503 -0.47010356440E+02 -0.11488150335E+02 -0.46863841758E+02  0.18565336214E+03  0.17300000000E+03 0.  1.
</event>
<event>
 4    1  0.6164307E+000  0.1000000E+03  0.7546771E-02  0.1280296E+00
         21   -1    0    0  501  502  0.00000000000E+00  0.00000000000E+00  0.21166926236E+03  0.21166926236E+03  0.00000000000E+00 0.  1.
         21   -1    0    0  502  503 -0.00000000000E+00 -0.00000000000E+00 -0.41938069688E+03  0.41938069688E+03  0.00000000000E+00 0.  1.
          6    1    1    2  501    0 -0.78466281266E+02 -0.59352198923E+02  0.13095211741E+03  0.23823748208E+03  0.17300000000E+03 0.  1.
         -6    1    1    2    0  503  0.78466281266E+02  0.59352198923E+02 -0.33866355193E+03  0.39281247717E+03  0.17300000000E+03 0.  1.
</event>
<event>
 4    1  0.6164307E+000  0.1000000E+03  0.7546771E-02  0.1280296E+00
         21   -1    0    0  501  502  0.00000000000E+00  0.00000000000E+00  0.61844569779E+02  0.61844569779E+02  0.00000000000E+00 0.  1.
         21   -1    0    0  502  503 -0.00000000000E+00 -0.00000000000E+00 -0.91661457373E+03  0.91661457373E+03  0.00000000000E+00 0.  1.
          6    1    1    2  501    0  0.14451129637E+02  0.21921187427E+02 -0.95618228090E+02  0.19940215432E+03  0.17300000000E+03 0.  1.
         -6    1    1    2    0  503 -0.14451129637E+02 -0.21921187427E+02 -0.75915177586E+03  0.77905698919E+03  0.17300000000E+03 0.  1.
</event>
<event>
 4    1  0.6164307E+000  0.1000000E+03  0.7546771E-02  0.1280296E+00
         21   -1    0    0  503  502  0.00000000000E+00  0.00000000000E+00  0.64897548017E+03  0.64897548017E+03  0.00000000000E+00 0.  1.
         21   -1    0    0  501  503 -0.00000000000E+00 -0.00000000000E+00 -0.78439948461E+02  0.78439948461E+02  0.00000000000E+00 0.  1.
          6    1    1    2  501    0 -0.58060915790E+02 -0.95526822922E+02  0.13682066311E+03  0.24727583322E+03  0.17300000000E+03 0.  1.
         -6    1    1    2    0  502  0.58060915790E+02  0.95526822922E+02  0.43371486860E+03  0.48013959541E+03  0.17300000000E+03 0.  1.
</event>
<event>
 4    1  0.6164307E+000  0.1000000E+03  0.7546771E-02  0.1280296E+00
         21   -1    0    0  503  502  0.00000000000E+00  0.00000000000E+00  0.17917912942E+03  0.17917912942E+03  0.00000000000E+00 0.  1.
         21   -1    0    0  501  503 -0.00000000000E+00 -0.00000000000E+00 -0.58124162282E+03  0.58124162282E+03  0.00000000000E+00 0.  1.
          6    1    1    2  501    0  0.16340758392E+03  0.21797455746E+03 -0.20286469592E+03  0.38117978834E+03  0.17300000000E+03 0.  1.
         -6    1    1    2    0  502 -0.16340758392E+03 -0.21797455746E+03 -0.19919779748E+03  0.37924096391E+03  0.17300000000E+03 0.  1.
</event>
<event>
 4    1  0.6164307E+000  0.1000000E+03  0.7546771E-02  0.1280296E+00
         21   -1    0    0  503  502  0.00000000000E+00  0.00000000000E+00  0.84687659480E+02  0.84687659480E+02  0.00000000000E+00 0.  1.
         21   -1    0    0  501  503 -0.00000000000E+00 -0.00000000000E+00 -0.17509619022E+04  0.17509619022E+04  0.00000000000E+00 0.  1.
          6    1    1    2  501    0 -0.61350635187E+02  0.49569195246E+02 -0.16312819202E+04  0.16423247878E+04  0.17300000000E+03 0.  1.
         -6    1    1    2    0  502  0.61350635187E+02 -0.49569195246E+02 -0.34992322542E+02  0.19332477387E+03  0.17300000000E+03 0.  1.
</event>
<event>
 4    1  0.6164307E+000  0.1000000E+03  0.7546771E-02  0.1280296E+00
         21   -1    0    0  501  502  0.00000000000E+00  0.00000000000E+00  0.86660224948E+03  0.86660224948E+03  0.00000000000E+00 0.  1.
         21   -1    0    0  502  503 -0.00000000000E+00 -0.00000000000E+00 -0.11508736823E+03  0.11508736823E+03  0.00000000000E+00 0.  1.
          6    1    1    2  501    0  0.21490016368E+03  0.13587590377E+03  0.48742163267E+03  0.57632732850E+03  0.17300000000E+03 0.  1.
         -6    1    1    2    0  503 -0.21490016368E+03 -0.13587590377E+03  0.26409324858E+03  0.40536228921E+03  0.17300000000E+03 0.  1.
</event>
<event>
 4    1  0.6164307E+000  0.1000000E+03  0.7546771E-02  0.1280296E+00
         21   -1    0    0  503  502  0.00000000000E+00  0.00000000000E+00  0.39543093317E+03  0.39543093317E+03  0.00000000000E+00 0.  1.
         21   -1    0    0  501  503 -0.00000000000E+00 -0.00000000000E+00 -0.48416706405E+03  0.48416706405E+03  0.00000000000E+00 0.  1.
          6    1    1    2  501    0  0.99321844314E+02 -0.11967388671E+03 -0.41686112197E+03  0.47737706577E+03  0.17300000000E+03 0.  1.
         -6    1    1    2    0  502 -0.99321844314E+02  0.11967388671E+03  0.32812499109E+03  0.40222093145E+03  0.17300000000E+03 0.  1.
</event>
<event>
 4    1  0.6164307E+000  0.1000000E+03  0.7546771E-02  0.1280296E+00
         21   -1    0    0  503  502  0.00000000000E+00  0.00000000000E+00  0.13556161298E+04  0.13556161298E+04  0.00000000000E+00 0.  1.
         21   -1    0    0  501  503 -0.00000000000E+00 -0.00000000000E+00 -0.29839450899E+02  0.29839450899E+02  0.00000000000E+00 0.  1.
          6    1    1    2  501    0 -0.72464883368E+02 -0.14712063227E+02  0.41802338821E+03  0.45841046804E+03  0.17300000000E+03 0.  1.
         -6    1    1    2    0  502  0.72464883368E+02  0.14712063227E+02  0.90775329067E+03  0.92704511263E+03  0.17300000000E+03 0.  1.
</event>
<event>
 4    1  0.6164307E+000  0.1000000E+03  0.7546771E-02  0.1280296E+00
         21   -1    0    0  503  502  0.00000000000E+00  0.00000000000E+00  0.56640807131E+03  0.56640807131E+03  0.00000000000E+00 0.  1.
         21   -1    0    0  501  503 -0.00000000000E+00 -0.00000000000E+00 -0.67677557274E+02  0.67677557274E+02  0.00000000000E+00 0.  1.
          6    1    1    2  501    0 -0.83623094375E+02 -0.35437880480E+02  0.26955474875E+03  0.33292255535E+03  0.17300000000E+03 0.  1.
         -6    1    1    2    0  502  0.83623094375E+02  0.35437880480E+02  0.22917576528E+03  0.30116307323E+03  0.17300000000E+03 0.  1.
</event>
<event>
 4    1  0.6164307E+000  0.1000000E+03  0.7546771E-02  0.1280296E+00
         21   -1    0    0  503  502  0.00000000000E+00  0.00000000000E+00  0.44795665131E+03  0.44795665131E+03  0.00000000000E+00 0.  1.
         21   -1    0    0  501  503 -0.00000000000E+00 -0.00000000000E+00 -0.85203438245E+02  0.85203438245E+02  0.00000000000E+00 0.  1.
          6    1    1    2  501    0 -0.67770388178E+02 -0.36046138847E+02  0.11528099940E+03  0.22160969848E+03  0.17300000000E+03 0.  1.
         -6    1    1    2    0  502  0.67770388178E+02  0.36046138847E+02  0.24747221367E+03  0.31155039107E+03  0.17300000000E+03 0.  1.
</event>
<event>
 4    1  0.6164307E+000  0.1000000E+03  0.7546771E-02  0.1280296E+00
         21   -1    0    0  503  502  0.00000000000E+00  0.00000000000E+00  0.13956904817E+04  0.13956904817E+04  0.00000000000E+00 0.  1.
         21   -1    0    0  501  503 -0.00000000000E+00 -0.00000000000E+00 -0.63902654943E+02  0.63902654943E+02  0.00000000000E+00 0.  1.
          6    1    1    2  501    0  0.47162220073E+02  0.70425066015E+02  0.10824102279E+03  0.22097303894E+03  0.17300000000E+03 0.  1.
         -6    1    1    2    0  502 -0.47162220073E+02 -0.70425066015E+02  0.12235468040E+04  0.12386200977E+04  0.17300000000E+03 0.  1.
</event>
<event>
 4    1  0.6164307E+000  0.1000000E+03  0.7546771E-02  0.1280296E+00
         21   -1    0    0  503  502  0.00000000000E+00  0.00000000000E+00  0.10283942501E+03  0.10283942501E+03  0.00000000000E+00 0.  1.
         21   -1    0    0  501  503 -0.00000000000E+00 -0.00000000000E+00 -0.39470553168E+03  0.39470553168E+03  0.00000000000E+00 0.  1.
          6    1    1    2  501    0  0.29267799307E+02  0.19485950625E+02 -0.26052360062E+02  0.17844896137E+03  0.17300000000E+03 0.  1.
         -6    1    1    2    0  502 -0.29267799307E+02 -0.19485950625E+02 -0.26581374661E+03  0.31909599533E+03  0.17300000000E+03 0.  1.
</event>
<event>
 4    1  0.6164307E+000  0.1000000E+03  0.7546771E-02  0.1280296E+00
         21   -1    0    0  503  502  0.00000000000E+00  0.00000000000E+00  0.65348801715E+03  0.65348801715E+03  0.00000000000E+00 0.  1.
         21   -1    0    0  501  503 -0.00000000000E+00 -0.00000000000E+00 -0.80551625766E+02  0.80551625766E+02  0.00000000000E+00 0.  1.
          6    1    1    2  501    0 -0.69860713693E+02 -0.98950317932E+02  0.14304144019E+03  0.25507163376E+03  0.17300000000E+03 0.  1.
         -6    1    1    2    0  502  0.69860713693E+02  0.98950317932E+02  0.42989495119E+03  0.47896800916E+03  0.17300000000E+03 0.  1.
</event>
<event>
 4    1  0.6164307E+000  0.1000000E+03  0.7546771E-02  0.1280296E+00
         21   -1    0    0  503  502  0.00000000000E+00  0.00000000000E+00  0.15412171474E+03  0.15412171474E+03  0.00000000000E+00 0.  1.
         21   -1    0    0  501  503 -0.00000000000E+00 -0.00000000000E+00 -0.33909118474E+03  0.33909118474E+03  0.00000000000E+00 0.  1.
          6    1    1    2  501    0 -0.29378230290E+02 -0.42874597962E+02 -0.24362685611E+03  0.30328922926E+03  0.17300000000E+03 0.  1.
         -6    1    1    2    0  502  0.29378230290E+02  0.42874597962E+02  0.58657386105E+02  0.18992367022E+03  0.17300000000E+03 0.  1.
</event>
<event>
 4    1  0.6164307E+000  0.1000000E+03  0.7546771E-02  0.1280296E+00
         21   -1    0    0  503  502  0.00000000000E+00  0.00000000000E+00  0.48549626956E+03  0.48549626956E+03  0.00000000000E+00 0.  1.
         21   -1    0    0  501  503 -0.00000000000E+00 -0.00000000000E+00 -0.67132038263E+02  0.67132038263E+02  0.00000000000E+00 0.  1.
          6    1    1    2  501    0  0.16100301276E+02  0.71698509504E+00  0.28421958948E+03  0.33312086217E+03  0.17300000000E+03 0.  1.
         -6    1    1    2    0  502 -0.16100301276E+02 -0.71698509504E+00  0.13414464182E+03  0.21950744565E+03  0.17300000000E+03 0.  1.
</event>
<event>
 4    1  0.6164307E+000  0.1000000E+03  0.7546771E-02  0.1280296E+00
         21   -1    0    0  503  502  0.00000000000E+00  0.00000000000E+00  0.58994628756E+03  0.58994628756E+03  0.00000000000E+00 0. -1.
         21   -1    0    0  501  503 -0.00000000000E+00 -0.00000000000E+00 -0.19966602178E+03  0.19966602178E+03  0.00000000000E+00 0. -1.
          6    1    1    2  501    0 -0.26876467340E+03  0.51314102255E+02  0.64003370429E+02  0.32998942132E+03  0.17300000000E+03 0. -1.
         -6    1    1    2    0  502  0.26876467340E+03 -0.51314102255E+02  0.32627689535E+03  0.45962288803E+03  0.17300000000E+03 0. -1.
</event>
<event>
 4    1  0.6164307E+000  0.1000000E+03  0.7546771E-02  0.1280296E+00
         21   -1    0    0  503  502  0.00000000000E+00  0.00000000000E+00  0.74421701558E+03  0.74421701558E+03  0.00000000000E+00 0. -1.
         21   -1    0    0  501  503 -0.00000000000E+00 -0.00000000000E+00 -0.91020009526E+02  0.91020009526E+02  0.00000000000E+00 0. -1.
          6    1    1    2  501    0  0.13190372665E+03 -0.12431169104E+03  0.21361905540E+03  0.32926295034E+03  0.17300000000E+03 0. -1.
         -6    1    1    2    0  502 -0.13190372665E+03  0.12431169104E+03  0.43957795066E+03  0.50597407477E+03  0.17300000000E+03 0. -1.
</event>
<event>
 4    1  0.6164307E+000  0.1000000E+03  0.7546771E-02  0.1280296E+00
         21   -1    0    0  503  502  0.00000000000E+00  0.00000000000E+00  0.24736696285E+03  0.24736696285E+03  0.00000000000E+00 0. -1.
         21   -1    0    0  501  503 -0.00000000000E+00 -0.00000000000E+00 -0.15693032839E+03  0.15693032839E+03  0.00000000000E+00 0. -1.
          6    1    1    2  501    0  0.64011553682E+02 -0.25520708380E+02 -0.20810005100E+02  0.18737887254E+03  0.17300000000E+03 0. -1.
         -6    1    1    2    0  502 -0.64011553682E+02  0.25520708380E+02  0.11124663956E+03  0.21691841871E+03  0.17300000000E+03 0. -1.
</event>
<event>
 4    1  0.6164307E+000  0.1000000E+03  0.7546771E-02  0.1280296E+00
         21   -1    0    0  503  502  0.00000000000E+00  0.00000000000E+00  0.61715189813E+03  0.61715189813E+03  0.00000000000E+00 0. -1.
         21   -1    0    0  501  503 -0.00000000000E+00 -0.00000000000E+00 -0.10530275225E+03  0.10530275225E+03  0.00000000000E+00 0. -1.
          6    1    1    2  501    0  0.13327116292E+02 -0.88020422508E+02  0.22515194710E+02  0.19586000306E+03  0.17300000000E+03 0. -1.
         -6    1    1    2    0  502 -0.13327116292E+02  0.88020422508E+02  0.48933395117E+03  0.52659464731E+03  0.17300000000E+03 0. -1.
</event>
<event>
 4    1  0.6164307E+000  0.1000000E+03  0.7546771E-02  0.1280296E+00
         21   -1    0    0  503  502  0.00000000000E+00  0.00000000000E+00  0.12108708811E+04  0.12108708811E+04  0.00000000000E+00 0. -1.
         21   -1    0    0  501  503 -0.00000000000E+00 -0.00000000000E+00 -0.79791667663E+02  0.79791667663E+02  0.00000000000E+00 0. -1.
          6    1    1    2  501    0 -0.74692665043E+02  0.16847350517E+03  0.18995992531E+03  0.31618995775E+03  0.17300000000E+03 0. -1.
         -6    1    1    2    0  502  0.74692665043E+02 -0.16847350517E+03  0.94111928812E+03  0.97447259101E+03  0.17300000000E+03 0. -1.
</event>
<event>
 4    1  0.6164307E+000  0.1000000E+03  0.7546771E-02  0.1280296E+00
         21   -1    0    0  501  502  0.00000000000E+00  0.00000000000E+00  0.12901035648E+03  0.12901035648E+03  0.00000000000E+00 0. -1.
         21   -1    0    0  502  503 -0.00000000000E+00 -0.00000000000E+00 -0.13117436712E+04  0.13117436712E+04  0.00000000000E+00 0. -1.
          6    1    1    2  501    0 -0.29698664003E+03  0.14887894631E+01 -0.19552861295E+03  0.39542852620E+03  0.17300000000E+03 0. -1.
         -6    1    1    2    0  503  0.29698664003E+03 -0.14887894631E+01 -0.98720470174E+03  0.10453255015E+04  0.17300000000E+03 0. -1.
</event>
<event>
 4    1  0.6164307E+000  0.1000000E+03  0.7546771E-02  0.1280296E+00
         21   -1    0    0  503  502  0.00000000000E+00  0.00000000000E+00  0.54858850830E+02  0.54858850830E+02  0.00000000000E+00 0.  1.
         21   -1    0    0  501  503 -0.00000000000E+00 -0.00000000000E+00 -0.11191989601E+04  0.11191989601E+04  0.00000000000E+00 0.  1.
          6    1    1    2  501    0 -0.12067344029E+03 -0.87006248074E+02 -0.76108891151E+03  0.79455490535E+03  0.17300000000E+03 0.  1.
         -6    1    1    2    0  502  0.12067344029E+03  0.87006248074E+02 -0.30325119772E+03  0.37950290554E+03  0.17300000000E+03 0.  1.
</event>
<event>
 4    1  0.6164307E+000  0.1000000E+03  0.7546771E-02  0.1280296E+00
         21   -1    0    0  503  502  0.00000000000E+00  0.00000000000E+00  0.38733385950E+03  0.38733385950E+03  0.00000000000E+00 0.  1.
         21   -1    0    0  501  503 -0.00000000000E+00 -0.00000000000E+00 -0.34983142511E+03  0.34983142511E+03  0.00000000000E+00 0.  1.
          6    1    1    2  501    0 -0.19430479019E+03  0.71382265181E+02  0.26952109952E+03  0.38134027109E+03  0.17300000000E+03 0.  1.
         -6    1    1    2    0  502  0.19430479019E+03 -0.71382265181E+02 -0.23201866513E+03  0.35582501351E+03  0.17300000000E+03 0.  1.
</event>
<event>
 4    1  0.6164307E+000  0.1000000E+03  0.7546771E-02  0.1280296E+00
         21   -1    0    0  501  502  0.00000000000E+00  0.00000000000E+00  0.69921743913E+02  0.69921743913E+02  0.00000000000E+00 0.  1.
         21   -1    0    0  502  503 -0.00000000000E+00 -0.00000000000E+00 -0.52077989060E+03  0.52077989060E+03  0.00000000000E+00 0.  1.
          6    1    1    2  501    0 -0.13367968487E+02 -0.42876664751E+01 -0.10269853697E+03  0.20167567072E+03  0.17300000000E+03 0.  1.
         -6    1    1    2    0  503  0.13367968487E+02  0.42876664751E+01 -0.34815960972E+03  0.38902596379E+03  0.17300000000E+03 0.  1.
</event>
<event>
 4    1  0.6164307E+000  0.1000000E+03  0.7546771E-02  0.1280296E+00
         21   -1    0    0  501  502  0.00000000000E+00  0.00000000000E+00  0.34657885243E+03  0.34657885243E+03  0.00000000000E+00 0.  1.
         21   -1    0    0  502  503 -0.00000000000E+00 -0.00000000000E+00 -0.24103675548E+03  0.24103675548E+03  0.00000000000E+00 0.  1.
          6    1    1    2  501    0  0.18691057590E+03  0.30719893546E+02  0.18812614814E+03  0.31811903882E+03  0.17300000000E+03 0.  1.
         -6    1    1    2    0  503 -0.18691057590E+03 -0.30719893546E+02 -0.82584051201E+02  0.26949656910E+03  0.17300000000E+03 0.  1.
</event>
<event>
 4    1  0.6164307E+000  0.1000000E+03  0.7546771E-02  0.1280296E+00
         21   -1    0    0  501  502  0.00000000000E+00  0.00000000000E+00  0.25501247569E+03  0.25501247569E+03  0.00000000000E+00 0.  1.
         21   -1    0    0  502  503 -0.00000000000E+00 -0.00000000000E+00 -0.94203469209E+03  0.94203469209E+03  0.00000000000E+00 0.  1.
          6    1    1    2  501    0 -0.95618818436E+02  0.33706587813E+03  0.17801702820E+02  0.39115503993E+03  0.17300000000E+03 0.  1.
         -6    1    1    2    0  503  0.95618818436E+02 -0.33706587813E+03 -0.70482391922E+03  0.80589212785E+03  0.17300000000E+03 0.  1.
</event>
<event>
 4    1  0.6164307E+000  0.1000000E+03  0.7546771E-02  0.1280296E+00
         21   -1    0    0  501  502  0.00000000000E+00  0.00000000000E+00  0.95793873629E+02  0.95793873629E+02  0.00000000000E+00 0.  1.
         21   -1    0    0  502  503 -0.00000000000E+00 -0.00000000000E+00 -0.86309881311E+03  0.86309881311E+03  0.00000000000E+00 0.  1.
          6    1    1    2  501    0 -0.10218957762E+03  0.19574882849E+03 -0.27832497535E+03  0.39516339093E+03  0.17300000000E+03 0.  1.
         -6    1    1    2    0  503  0.10218957762E+03 -0.19574882849E+03 -0.48897996413E+03  0.56372929581E+03  0.17300000000E+03 0.  1.
</event>
<event>
 4    1  0.6164307E+000  0.1000000E+03  0.7546771E-02  0.1280296E+00
         21   -1    0    0  501  502  0.00000000000E+00  0.00000000000E+00  0.16854604605E+03  0.16854604605E+03  0.00000000000E+00 0.  1.
         21   -1    0    0  502  503 -0.00000000000E+00 -0.00000000000E+00 -0.42048589091E+03  0.42048589091E+03  0.00000000000E+00 0.  1.
          6    1    1    2  501    0  0.16800518185E+03 -0.57279267636E+02 -0.18507130547E+02  0.24855214646E+03  0.17300000000E+03 0.  1.
         -6    1    1    2    0  503 -0.16800518185E+03  0.57279267636E+02 -0.23343271432E+03  0.34047979051E+03  0.17300000000E+03 0.  1.
</event>
<event>
 4    1  0.6164307E+000  0.1000000E+03  0.7546771E-02  0.1280296E+00
         21   -1    0    0  501  502  0.00000000000E+00  0.00000000000E+00  0.53173458977E+03  0.53173458977E+03  0.00000000000E+00 0. -1.
         21   -1    0    0  502  503 -0.00000000000E+00 -0.00000000000E+00 -0.78248327879E+02  0.78248327879E+02  0.00000000000E+00 0. -1.
          6    1    1    2  501    0  0.66190636543E+02  0.64892198058E+02  0.14367951423E+03  0.24323856714E+03  0.17300000000E+03 0. -1.
         -6    1    1    2    0  503 -0.66190636543E+02 -0.64892198058E+02  0.30980674766E+03  0.36674435051E+03  0.17300000000E+03 0. -1.
</event>
<event>
 4    1  0.6164307E+000  0.1000000E+03  0.7546771E-02  0.1280296E+00
         21   -1    0    0  501  502  0.00000000000E+00  0.00000000000E+00  0.37720482796E+03  0.37720482796E+03  0.00000000000E+00 0. -1.
         21   -1    0    0  502  503 -0.00000000000E+00 -0.00000000000E+00 -0.93582531152E+02  0.93582531152E+02  0.00000000000E+00 0. -1.
          6    1    1    2  501    0 -0.72340583939E+02 -0.10261738137E+02  0.14893375805E+03  0.23968464207E+03  0.17300000000E+03 0. -1.
         -6    1    1    2    0  503  0.72340583939E+02  0.10261738137E+02  0.13468853875E+03  0.23110271704E+03  0.17300000000E+03 0. -1.
</event>
<event>
 4    1  0.6164307E+000  0.1000000E+03  0.7546771E-02  0.1280296E+00
         21   -1    0    0  501  502  0.00000000000E+00  0.00000000000E+00  0.81301501207E+02  0.81301501207E+02  0.00000000000E+00 0. -1.
         21   -1    0    0  502  503 -0.00000000000E+00 -0.00000000000E+00 -0.55900581957E+03  0.55900581957E+03  0.00000000000E+00 0. -1.
          6    1    1    2  501    0 -0.10526810207E+01  0.12384026906E+03 -0.21862058431E+03  0.30505979785E+03  0.17300000000E+03 0. -1.
         -6    1    1    2    0  503  0.10526810207E+01 -0.12384026906E+03 -0.25908373405E+03  0.33524752293E+03  0.17300000000E+03 0. -1.
</event>
<event>
 4    1  0.6164307E+000  0.1000000E+03  0.7546771E-02  0.1280296E+00
         21   -1    0    0  501  502  0.00000000000E+00  0.00000000000E+00  0.38275439662E+03  0.38275439662E+03  0.00000000000E+00 0.  1.
         21   -1    0    0  502  503 -0.00000000000E+00 -0.00000000000E+00 -0.17200595400E+03  0.17200595400E+03  0.00000000000E+00 0.  1.
          6    1    1    2  501    0 -0.53136612571E+02  0.12309848132E+03  0.25013048178E+03  0.33237177019E+03  0.17300000000E+03 0.  1.
         -6    1    1    2    0  503  0.53136612571E+02 -0.12309848132E+03 -0.39382039163E+02  0.22238858043E+03  0.17300000000E+03 0.  1.
</event>
<event>
 4    1  0.6164307E+000  0.1000000E+03  0.7546771E-02  0.1280296E+00
         21   -1    0    0  503  502  0.00000000000E+00  0.00000000000E+00  0.31153849202E+03  0.31153849202E+03  0.00000000000E+00 0. -1.
         21   -1    0    0  501  503 -0.00000000000E+00 -0.00000000000E+00 -0.14512521997E+03  0.14512521997E+03  0.00000000000E+00 0. -1.
          6    1    1    2  501    0  0.73940219298E+02 -0.14174863749E+01 -0.23173517741E+02  0.18956575962E+03  0.17300000000E+03 0. -1.
         -6    1    1    2    0  502 -0.73940219298E+02  0.14174863749E+01  0.18958678979E+03  0.26709795237E+03  0.17300000000E+03 0. -1.
</event>
<event>
 4    1  0.6164307E+000  0.1000000E+03  0.7546771E-02  0.1280296E+00
         21   -1    0    0  503  502  0.00000000000E+00  0.00000000000E+00  0.23886124310E+04  0.23886124310E+04  0.00000000000E+00 0. -1.
         21   -1    0    0  501  503 -0.00000000000E+00 -0.00000000000E+00 -0.42335052624E+02  0.42335052624E+02  0.00000000000E+00 0. -1.
          6    1    1    2  501    0 -0.25920073594E+03 -0.25574829978E+02  0.95177810173E+03  0.10018231622E+04  0.17300000000E+03 0. -1.
         -6    1    1    2    0  502  0.25920073594E+03  0.25574829978E+02  0.13944992766E+04  0.14291243214E+04  0.17300000000E+03 0. -1.
</event>
<event>
 4    1  0.6164307E+000  0.1000000E+03  0.7546771E-02  0.1280296E+00
         21   -1    0    0  503  502  0.00000000000E+00  0.00000000000E+00  0.71192702751E+03  0.71192702751E+03  0.00000000000E+00 0. -1.
         21   -1    0    0  501  503 -0.00000000000E+00 -0.00000000000E+00 -0.92927674127E+02  0.92927674127E+02  0.00000000000E+00 0. -1.
          6    1    1    2  501    0  0.98657865308E+01  0.13257197212E+03  0.96371870469E+02  0.23851456759E+03  0.17300000000E+03 0. -1.
         -6    1    1    2    0  502 -0.98657865308E+01 -0.13257197212E+03  0.52262748292E+03  0.56634013405E+03  0.17300000000E+03 0. -1.
</event>
<event>
 4    1  0.6164307E+000  0.1000000E+03  0.7546771E-02  0.1280296E+00
         21   -1    0    0  503  502  0.00000000000E+00  0.00000000000E+00  0.62520286139E+02  0.62520286139E+02  0.00000000000E+00 0. -1.
         21   -1    0    0  501  503 -0.00000000000E+00 -0.00000000000E+00 -0.58067450613E+03  0.58067450613E+03  0.00000000000E+00 0. -1.
          6    1    1    2  501    0 -0.26552952021E+02 -0.19120647553E+02 -0.38200453896E+03  0.42062706310E+03  0.17300000000E+03 0. -1.
         -6    1    1    2    0  502  0.26552952021E+02  0.19120647553E+02 -0.13614968103E+03  0.22256772917E+03  0.17300000000E+03 0. -1.
</event>
<event>
 4    1  0.6164307E+000  0.1000000E+03  0.7546771E-02  0.1280296E+00
         21   -1    0    0  503  502  0.00000000000E+00  0.00000000000E+00  0.30631316595E+03  0.30631316595E+03  0.00000000000E+00 0. -1.
         21   -1    0    0  501  503 -0.00000000000E+00 -0.00000000000E+00 -0.32826746793E+03  0.32826746793E+03  0.00000000000E+00 0. -1.
          6    1    1    2  501    0 -0.14784498491E+02 -0.21451562971E+02 -0.27560654335E+03  0.32644558151E+03  0.17300000000E+03 0. -1.
         -6    1    1    2    0  502  0.14784498491E+02  0.21451562971E+02  0.25365224137E+03  0.30813505237E+03  0.17300000000E+03 0. -1.
</event>
<event>
 4    1  0.6164307E+000  0.1000000E+03  0.7546771E-02  0.1280296E+00
         21   -1    0    0  503  502  0.00000000000E+00  0.00000000000E+00  0.21880327170E+03  0.21880327170E+03  0.00000000000E+00 0.  1.
         21   -1    0    0  501  503 -0.00000000000E+00 -0.00000000000E+00 -0.16076548571E+03  0.16076548571E+03  0.00000000000E+00 0.  1.
          6    1    1    2  501    0 -0.28089201806E+02 -0.11148238038E+02 -0.37595482727E+02  0.17959873828E+03  0.17300000000E+03 0.  1.
         -6    1    1    2    0  502  0.28089201806E+02  0.11148238038E+02  0.95633268713E+02  0.19997001914E+03  0.17300000000E+03 0.  1.
</event>
<event>
 4    1  0.6164307E+000  0.1000000E+03  0.7546771E-02  0.1280296E+00
         21   -1    0    0  501  502  0.00000000000E+00  0.00000000000E+00  0.38080065298E+03  0.38080065298E+03  0.00000000000E+00 0.  1.
         21   -1    0    0  502  503 -0.00000000000E+00 -0.00000000000E+00 -0.17919903079E+03  0.17919903079E+03  0.00000000000E+00 0. -1.
          6    1    1    2  501    0  0.36202224696E+02  0.19222090216E+03  0.10842778219E+03  0.28274557512E+03  0.17300000000E+03 0. -1.
         -6    1    1    2    0  503 -0.36202224696E+02 -0.19222090216E+03  0.93173840006E+02  0.27725410865E+03  0.17300000000E+03 0.  1.
</event>
<event>
 4    1  0.6164307E+000  0.1000000E+03  0.7546771E-02  0.1280296E+00
         21   -1    0    0  503  502  0.00000000000E+00  0.00000000000E+00  0.57798774597E+03  0.57798774597E+03  0.00000000000E+00 0. -1.
         21   -1    0    0  501  503 -0.00000000000E+00 -0.00000000000E+00 -0.61484575868E+03  0.61484575868E+03  0.00000000000E+00 0.  1.
          6    1    1    2  501    0  0.19573396328E+03 -0.21537946443E+03 -0.50932033241E+03  0.61158507101E+03  0.17300000000E+03 0.  1.
         -6    1    1    2    0  502 -0.19573396328E+03  0.21537946443E+03  0.47246231969E+03  0.58124843364E+03  0.17300000000E+03 0.  1.
</event>
<event>
 4    1  0.6164307E+000  0.1000000E+03  0.7546771E-02  0.1280296E+00
         21   -1    0    0  501  502  0.00000000000E+00  0.00000000000E+00  0.23174810295E+03  0.23174810295E+03  0.00000000000E+00 0. -1.
         21   -1    0    0  502  503 -0.00000000000E+00 -0.00000000000E+00 -0.15527943871E+03  0.15527943871E+03  0.00000000000E+00 0.  1.
          6    1    1    2  501    0 -0.14662023767E+02 -0.29155178187E+02 -0.33838525123E+02  0.17927365991E+03  0.17300000000E+03 0. -1.
         -6    1    1    2    0  503  0.14662023767E+02  0.29155178187E+02  0.11030718936E+03  0.20775388175E+03  0.17300000000E+03 0.  1.
</event>
<event>
 4    1  0.6164307E+000  0.1000000E+03  0.7546771E-02  0.1280296E+00
         21   -1    0    0  501  502  0.00000000000E+00  0.00000000000E+00  0.34683557167E+03  0.34683557167E+03  0.00000000000E+00 0. -1.
         21   -1    0    0  502  503 -0.00000000000E+00 -0.00000000000E+00 -0.11197372996E+03  0.11197372996E+03  0.00000000000E+00 0. -1.
          6    1    1    2  501    0  0.16176929657E+01 -0.87570794468E+02  0.15835969607E+03  0.25035585536E+03  0.17300000000E+03 0. -1.
         -6    1    1    2    0  503 -0.16176929657E+01  0.87570794468E+02  0.76502145641E+02  0.20845344627E+03  0.17300000000E+03 0. -1.
</event>
<event>
 4    1  0.6164307E+000  0.1000000E+03  0.7546771E-02  0.1280296E+00
         21   -1    0    0  501  502  0.00000000000E+00  0.00000000000E+00  0.11613421008E+03  0.11613421008E+03  0.00000000000E+00 0. -1.
         21   -1    0    0  502  503 -0.00000000000E+00 -0.00000000000E+00 -0.19363289461E+04  0.19363289461E+04  0.00000000000E+00 0. -1.
          6    1    1    2  501    0 -0.66520851016E+02 -0.17427000751E+02  0.33745274759E+02  0.18919954425E+03  0.17300000000E+03 0. -1.
         -6    1    1    2    0  503  0.66520851016E+02  0.17427000751E+02 -0.18539400108E+04  0.18632636120E+04  0.17300000000E+03 0. -1.
</event>
<event>
 4    1  0.6164307E+000  0.1000000E+03  0.7546771E-02  0.1280296E+00
         21   -1    0    0  501  502  0.00000000000E+00  0.00000000000E+00  0.12306235355E+04  0.12306235355E+04  0.00000000000E+00 0. -1.
         21   -1    0    0  502  503 -0.00000000000E+00 -0.00000000000E+00 -0.26051958993E+03  0.26051958993E+03  0.00000000000E+00 0. -1.
          6    1    1    2  501    0 -0.41802522207E+03 -0.88446474050E+02  0.52110919928E+02  0.46390991909E+03  0.17300000000E+03 0. -1.
         -6    1    1    2    0  503  0.41802522207E+03  0.88446474050E+02  0.91799302560E+03  0.10272332063E+04  0.17300000000E+03 0. -1.
</event>
<event>
 4    1  0.6164307E+000  0.1000000E+03  0.7546771E-02  0.1280296E+00
         21   -1    0    0  501  502  0.00000000000E+00  0.00000000000E+00  0.23041086278E+03  0.23041086278E+03  0.00000000000E+00 0. -1.
         21   -1    0    0  502  503 -0.00000000000E+00 -0.00000000000E+00 -0.31173415241E+03  0.31173415241E+03  0.00000000000E+00 0. -1.
          6    1    1    2  501    0  0.18424055698E+03 -0.61721513189E+02  0.24447436150E+02  0.26130596082E+03  0.17300000000E+03 0. -1.
         -6    1    1    2    0  503 -0.18424055698E+03  0.61721513189E+02 -0.10577072578E+03  0.28083905437E+03  0.17300000000E+03 0. -1.
</event>
<event>
 4    1  0.6164307E+000  0.1000000E+03  0.7546771E-02  0.1280296E+00
         21   -1    0    0  501  502  0.00000000000E+00  0.00000000000E+00  0.47532633164E+03  0.47532633164E+03  0.00000000000E+00 0. -1.
         21   -1    0    0  502  503 -0.00000000000E+00 -0.00000000000E+00 -0.11559458708E+03  0.11559458708E+03  0.00000000000E+00 0. -1.
          6    1    1    2  501    0  0.14611737649E+03 -0.13768956856E+02  0.25418352853E+03  0.34070241863E+03  0.17300000000E+03 0. -1.
         -6    1    1    2    0  503 -0.14611737649E+03  0.13768956856E+02  0.10554821603E+03  0.25021850010E+03  0.17300000000E+03 0. -1.
</event>
<event>
 4    1  0.6164307E+000  0.1000000E+03  0.7546771E-02  0.1280296E+00
         21   -1    0    0  501  502  0.00000000000E+00  0.00000000000E+00  0.44349438532E+03  0.44349438532E+03  0.00000000000E+00 0. -1.
         21   -1    0    0  502  503 -0.00000000000E+00 -0.00000000000E+00 -0.23045659134E+03  0.23045659134E+03  0.00000000000E+00 0.  1.
          6    1    1    2  501    0  0.16331843985E+03  0.59200608434E+02  0.32279003241E+03  0.40533940082E+03  0.17300000000E+03 0. -1.
         -6    1    1    2    0  503 -0.16331843985E+03 -0.59200608434E+02 -0.10975223843E+03  0.26861157584E+03  0.17300000000E+03 0.  1.
</event>
<event>
 4    1  0.6164307E+000  0.1000000E+03  0.7546771E-02  0.1280296E+00
         21   -1    0    0  501  502  0.00000000000E+00  0.00000000000E+00  0.25949815919E+03  0.25949815919E+03  0.00000000000E+00 0. -1.
         21   -1    0    0  502  503 -0.00000000000E+00 -0.00000000000E+00 -0.31097993220E+03  0.31097993220E+03  0.00000000000E+00 0.  1.
          6    1    1    2  501    0  0.88454378610E+00 -0.99020658734E+02  0.17748359200E+03  0.26689941683E+03  0.17300000000E+03 0. -1.
         -6    1    1    2    0  503 -0.88454378610E+00  0.99020658734E+02 -0.22896536501E+03  0.30357867456E+03  0.17300000000E+03 0.  1.
</event>
<event>
 4    1  0.6164307E+000  0.1000000E+03  0.7546771E-02  0.1280296E+00
         21   -1    0    0  501  502  0.00000000000E+00  0.00000000000E+00  0.12536421432E+03  0.12536421432E+03  0.00000000000E+00 0. -1.
         21   -1    0    0  502  503 -0.00000000000E+00 -0.00000000000E+00 -0.42949875487E+03  0.42949875487E+03  0.00000000000E+00 0.  1.
          6    1    1    2  501    0 -0.82093302408E+02  0.12883534136E+03 -0.18078467718E+03  0.29317222751E+03  0.17300000000E+03 0. -1.
         -6    1    1    2    0  503  0.82093302408E+02 -0.12883534136E+03 -0.12334986338E+03  0.26169074167E+03  0.17300000000E+03 0.  1.
</event>
<event>
 4    1  0.6164307E+000  0.1000000E+03  0.7546771E-02  0.1280296E+00
         21   -1    0    0  501  502  0.00000000000E+00  0.00000000000E+00  0.17675925903E+03  0.17675925903E+03  0.00000000000E+00 0.  1.
         21   -1    0    0  502  503 -0.00000000000E+00 -0.00000000000E+00 -0.10027284169E+04  0.10027284169E+04  0.00000000000E+00 0. -1.
          6    1    1    2  501    0 -0.42984432223E+02  0.18089810099E+03  0.57365389719E+02  0.26036814762E+03  0.17300000000E+03 0.  1.
         -6    1    1    2    0  503  0.42984432223E+02 -0.18089810099E+03 -0.88333454756E+03  0.91911952828E+03  0.17300000000E+03 0. -1.
</event>
<event>
 4    1  0.6164307E+000  0.1000000E+03  0.7546771E-02  0.1280296E+00
         21   -1    0    0  501  502  0.00000000000E+00  0.00000000000E+00  0.15549956303E+03  0.15549956303E+03  0.00000000000E+00 0.  1.
         21   -1    0    0  502  503 -0.00000000000E+00 -0.00000000000E+00 -0.10498993020E+04  0.10498993020E+04  0.00000000000E+00 0. -1.
          6    1    1    2  501    0 -0.25922215934E+03  0.14931537549E+03 -0.13488614142E+03  0.37096425758E+03  0.17300000000E+03 0.  1.
         -6    1    1    2    0  503  0.25922215934E+03 -0.14931537549E+03 -0.75951359759E+03  0.83443460749E+03  0.17300000000E+03 0. -1.
</event>
<event>
 4    1  0.6164307E+000  0.1000000E+03  0.7546771E-02  0.1280296E+00
         21   -1    0    0  501  502  0.00000000000E+00  0.00000000000E+00  0.21337415159E+03  0.21337415159E+03  0.00000000000E+00 0.  1.
         21   -1    0    0  502  503 -0.00000000000E+00 -0.00000000000E+00 -0.33301892943E+03  0.33301892943E+03  0.00000000000E+00 0.  1.
          6    1    1    2  501    0  0.19778315507E+03  0.31400254602E+02 -0.92625979727E+02  0.28037960792E+03  0.17300000000E+03 0.  1.
         -6    1    1    2    0  503 -0.19778315507E+03 -0.31400254602E+02 -0.27018798110E+02  0.26601347310E+03  0.17300000000E+03 0.  1.
</event>
<event>
 4    1  0.6164307E+000  0.1000000E+03  0.7546771E-02  0.1280296E+00
         21   -1    0    0  501  502  0.00000000000E+00  0.00000000000E+00  0.30298018059E+03  0.30298018059E+03  0.00000000000E+00 0.  1.
         21   -1    0    0  502  503 -0.00000000000E+00 -0.00000000000E+00 -0.19530599939E+03  0.19530599939E+03  0.00000000000E+00 0.  1.
          6    1    1    2  501    0 -0.12284314087E+03  0.11871536332E+03  0.61841066796E+02  0.25087266150E+03  0.17300000000E+03 0.  1.
         -6    1    1    2    0  503  0.12284314087E+03 -0.11871536332E+03  0.45833114401E+02  0.24741351847E+03  0.17300000000E+03 0.  1.
</event>
<event>
 4    1  0.6164307E+000  0.1000000E+03  0.7546771E-02  0.1280296E+00
         21   -1    0    0  503  502  0.00000000000E+00  0.00000000000E+00  0.37031089647E+02  0.37031089647E+02  0.00000000000E+00 0. -1.
         21   -1    0    0  501  503 -0.00000000000E+00 -0.00000000000E+00 -0.90363421054E+03  0.90363421054E+03  0.00000000000E+00 0.  1.
          6    1    1    2  501    0  0.21820573933E+02 -0.17986754098E+02 -0.56773792464E+03  0.59418432481E+03  0.17300000000E+03 0. -1.
         -6    1    1    2    0  502 -0.21820573933E+02  0.17986754098E+02 -0.29886519625E+03  0.34648097538E+03  0.17300000000E+03 0.  1.
</event>
<event>
 4    1  0.6164307E+000  0.1000000E+03  0.7546771E-02  0.1280296E+00
         21   -1    0    0  503  502  0.00000000000E+00  0.00000000000E+00  0.13191817942E+04  0.13191817942E+04  0.00000000000E+00 0.  1.
         21   -1    0    0  501  503 -0.00000000000E+00 -0.00000000000E+00 -0.15857223954E+03  0.15857223954E+03  0.00000000000E+00 0.  1.
          6    1    1    2  501    0  0.19834585924E+03  0.29343305450E+03  0.20554917249E+03  0.44454864713E+03  0.17300000000E+03 0.  1.
         -6    1    1    2    0  502 -0.19834585924E+03 -0.29343305450E+03  0.95506038219E+03  0.10332053866E+04  0.17300000000E+03 0.  1.
</event>
<event>
 4    1  0.6164307E+000  0.1000000E+03  0.7546771E-02  0.1280296E+00
         21   -1    0    0  503  502  0.00000000000E+00  0.00000000000E+00  0.67091210022E+03  0.67091210022E+03  0.00000000000E+00 0.  1.
         21   -1    0    0  501  503 -0.00000000000E+00 -0.00000000000E+00 -0.14948037574E+03  0.14948037574E+03  0.00000000000E+00 0.  1.
          6    1    1    2  501    0 -0.23320447858E+03  0.76956735017E+02  0.13084720511E+03  0.32765326029E+03  0.17300000000E+03 0.  1.
         -6    1    1    2    0  502  0.23320447858E+03 -0.76956735017E+02  0.39058451937E+03  0.49273921568E+03  0.17300000000E+03 0.  1.
</event>
<event>
 4    1  0.6164307E+000  0.1000000E+03  0.7546771E-02  0.1280296E+00
         21   -1    0    0  501  502  0.00000000000E+00  0.00000000000E+00  0.11445171850E+04  0.11445171850E+04  0.00000000000E+00 0.  1.
         21   -1    0    0  502  503 -0.00000000000E+00 -0.00000000000E+00 -0.15039200022E+03  0.15039200022E+03  0.00000000000E+00 0.  1.
          6    1    1    2  501    0  0.73824521227E+02 -0.14881546274E+03  0.10253621330E+04  0.10530396981E+04  0.17300000000E+03 0.  1.
         -6    1    1    2    0  503 -0.73824521227E+02  0.14881546274E+03 -0.31236948222E+02  0.24186948716E+03  0.17300000000E+03 0.  1.
</event>
<event>
 4    1  0.6164307E+000  0.1000000E+03  0.7546771E-02  0.1280296E+00
         21   -1    0    0  501  502  0.00000000000E+00  0.00000000000E+00  0.13673526828E+03  0.13673526828E+03  0.00000000000E+00 0.  1.
         21   -1    0    0  502  503 -0.00000000000E+00 -0.00000000000E+00 -0.33972140297E+03  0.33972140297E+03  0.00000000000E+00 0.  1.
          6    1    1    2  501    0 -0.83734394360E+02  0.94855656794E+02 -0.76437108255E+02  0.22755367706E+03  0.17300000000E+03 0.  1.
         -6    1    1    2    0  503  0.83734394360E+02 -0.94855656794E+02 -0.12654902643E+03  0.24890299419E+03  0.17300000000E+03 0.  1.
</event>
<event>
 4    1  0.6164307E+000  0.1000000E+03  0.7546771E-02  0.1280296E+00
         21   -1    0    0  501  502  0.00000000000E+00  0.00000000000E+00  0.47011297782E+03  0.47011297782E+03  0.00000000000E+00 0. -1.
         21   -1    0    0  502  503 -0.00000000000E+00 -0.00000000000E+00 -0.20383627276E+03  0.20383627276E+03  0.00000000000E+00 0. -1.
          6    1    1    2  501    0  0.16533936664E+03  0.14942557782E+02  0.34627722119E+03  0.42118558868E+03  0.17300000000E+03 0. -1.
         -6    1    1    2    0  503 -0.16533936664E+03 -0.14942557782E+02 -0.80000516133E+02  0.25276366190E+03  0.17300000000E+03 0. -1.
</event>
<event>
 4    1  0.6164307E+000  0.1000000E+03  0.7546771E-02  0.1280296E+00
         21   -1    0    0  501  502  0.00000000000E+00  0.00000000000E+00  0.10490242396E+03  0.10490242396E+03  0.00000000000E+00 0. -1.
         21   -1    0    0  502  503 -0.00000000000E+00 -0.00000000000E+00 -0.65413874597E+03  0.65413874597E+03  0.00000000000E+00 0. -1.
          6    1    1    2  501    0  0.72499064603E+02  0.18271773152E+03 -0.28484797100E+03  0.38692279639E+03  0.17300000000E+03 0. -1.
         -6    1    1    2    0  503 -0.72499064603E+02 -0.18271773152E+03 -0.26438835101E+03  0.37211837354E+03  0.17300000000E+03 0. -1.
</event>
<event>
 4    1  0.6164307E+000  0.1000000E+03  0.7546771E-02  0.1280296E+00
         21   -1    0    0  503  502  0.00000000000E+00  0.00000000000E+00  0.51165385709E+03  0.51165385709E+03  0.00000000000E+00 0. -1.
         21   -1    0    0  501  503 -0.00000000000E+00 -0.00000000000E+00 -0.66413533023E+03  0.66413533023E+03  0.00000000000E+00 0. -1.
          6    1    1    2  501    0  0.15577170254E+03  0.35948353418E+02 -0.61399980537E+03  0.65763353657E+03  0.17300000000E+03 0. -1.
         -6    1    1    2    0  502 -0.15577170254E+03 -0.35948353418E+02  0.46151833222E+03  0.51815565075E+03  0.17300000000E+03 0. -1.
</event>
<event>
 4    1  0.6164307E+000  0.1000000E+03  0.7546771E-02  0.1280296E+00
         21   -1    0    0  503  502  0.00000000000E+00  0.00000000000E+00  0.73207048221E+03  0.73207048221E+03  0.00000000000E+00 0. -1.
         21   -1    0    0  501  503 -0.00000000000E+00 -0.00000000000E+00 -0.23601675975E+03  0.23601675975E+03  0.00000000000E+00 0. -1.
          6    1    1    2  501    0 -0.87612854508E+02  0.73503468099E+02 -0.17147029656E+03  0.26909075551E+03  0.17300000000E+03 0. -1.
         -6    1    1    2    0  502  0.87612854508E+02 -0.73503468099E+02  0.66752401902E+03  0.69899648645E+03  0.17300000000E+03 0. -1.
</event>
<event>
 4    1  0.6164307E+000  0.1000000E+03  0.7546771E-02  0.1280296E+00
         21   -1    0    0  503  502  0.00000000000E+00  0.00000000000E+00  0.43448199178E+03  0.43448199178E+03  0.00000000000E+00 0. -1.
         21   -1    0    0  501  503 -0.00000000000E+00 -0.00000000000E+00 -0.14568584109E+03  0.14568584109E+03  0.00000000000E+00 0. -1.
          6    1    1    2  501    0  0.13015725955E+03 -0.11101455306E+03  0.21825964634E+03  0.32685075558E+03  0.17300000000E+03 0. -1.
         -6    1    1    2    0  502 -0.13015725955E+03  0.11101455306E+03  0.70536504353E+02  0.25331707730E+03  0.17300000000E+03 0. -1.
</event>
<event>
 4    1  0.6164307E+000  0.1000000E+03  0.7546771E-02  0.1280296E+00
         21   -1    0    0  503  502  0.00000000000E+00  0.00000000000E+00  0.50753594412E+02  0.50753594412E+02  0.00000000000E+00 0. -1.
         21   -1    0    0  501  503 -0.00000000000E+00 -0.00000000000E+00 -0.18876215992E+04  0.18876215992E+04  0.00000000000E+00 0.  1.
          6    1    1    2  501    0 -0.20620924982E+03 -0.15281465308E+03 -0.91871651938E+03  0.96945531918E+03  0.17300000000E+03 0.  1.
         -6    1    1    2    0  502  0.20620924982E+03  0.15281465308E+03 -0.91815148540E+03  0.96891987443E+03  0.17300000000E+03 0. -1.
</event>
<event>
 4    1  0.6164307E+000  0.1000000E+03  0.7546771E-02  0.1280296E+00
         21   -1    0    0  503  502  0.00000000000E+00  0.00000000000E+00  0.24122510350E+04  0.24122510350E+04  0.00000000000E+00 0.  1.
         21   -1    0    0  501  503 -0.00000000000E+00 -0.00000000000E+00 -0.12983954967E+03  0.12983954967E+03  0.00000000000E+00 0. -1.
          6    1    1    2  501    0 -0.48672686506E+03  0.13191566917E+03  0.75463049912E+03  0.92395940124E+03  0.17300000000E+03 0.  1.
         -6    1    1    2    0  502  0.48672686506E+03 -0.13191566917E+03  0.15277809862E+04  0.16181311834E+04  0.17300000000E+03 0. -1.
</event>
<event>
 4    1  0.6164307E+000  0.1000000E+03  0.7546771E-02  0.1280296E+00
         21   -1    0    0  503  502  0.00000000000E+00  0.00000000000E+00  0.22418620554E+03  0.22418620554E+03  0.00000000000E+00 0.  1.
         21   -1    0    0  501  503 -0.00000000000E+00 -0.00000000000E+00 -0.63867038673E+03  0.63867038673E+03  0.00000000000E+00 0. -1.
          6    1    1    2  501    0  0.12280607731E+03 -0.35625641171E+02 -0.56216268753E+03  0.60191893655E+03  0.17300000000E+03 0.  1.
         -6    1    1    2    0  502 -0.12280607731E+03  0.35625641171E+02  0.14767850634E+03  0.26093765571E+03  0.17300000000E+03 0. -1.
</event>
<event>
 4    1  0.6164307E+000  0.1000000E+03  0.7546771E-02  0.1280296E+00
         21   -1    0    0  503  502  0.00000000000E+00  0.00000000000E+00  0.50954174097E+03  0.50954174097E+03  0.00000000000E+00 0.  1.
         21   -1    0    0  501  503 -0.00000000000E+00 -0.00000000000E+00 -0.20295978557E+03  0.20295978557E+03  0.00000000000E+00 0.  1.
          6    1    1    2  501    0 -0.23512942590E+03 -0.13461514180E+03  0.14335783476E+03  0.35197663575E+03  0.17300000000E+03 0.  1.
         -6    1    1    2    0  502  0.23512942590E+03  0.13461514180E+03  0.16322412064E+03  0.36052489080E+03  0.17300000000E+03 0.  1.
</event>
<event>
 4    1  0.6164307E+000  0.1000000E+03  0.7546771E-02  0.1280296E+00
         21   -1    0    0  503  502  0.00000000000E+00  0.00000000000E+00  0.58091804293E+03  0.58091804293E+03  0.00000000000E+00 0.  1.
         21   -1    0    0  501  503 -0.00000000000E+00 -0.00000000000E+00 -0.87966482243E+02  0.87966482243E+02  0.00000000000E+00 0.  1.
          6    1    1    2  501    0  0.44366860481E+02  0.12748765879E+03  0.16610935605E+03  0.27521417046E+03  0.17300000000E+03 0.  1.
         -6    1    1    2    0  502 -0.44366860481E+02 -0.12748765879E+03  0.32684220463E+03  0.39367035471E+03  0.17300000000E+03 0.  1.
</event>
<event>
 4    1  0.6164307E+000  0.1000000E+03  0.7546771E-02  0.1280296E+00
         21   -1    0    0  503  502  0.00000000000E+00  0.00000000000E+00  0.21353719297E+03  0.21353719297E+03  0.00000000000E+00 0.  1.
         21   -1    0    0  501  503 -0.00000000000E+00 -0.00000000000E+00 -0.43746458592E+03  0.43746458592E+03  0.00000000000E+00 0.  1.
          6    1    1    2  501    0  0.44186382895E+02 -0.12659135201E+03 -0.33915336000E+03  0.40364812453E+03  0.17300000000E+03 0.  1.
         -6    1    1    2    0  502 -0.44186382895E+02  0.12659135201E+03  0.11522596705E+03  0.24735365435E+03  0.17300000000E+03 0.  1.
</event>
<event>
 4    1  0.6164307E+000  0.1000000E+03  0.7546771E-02  0.1280296E+00
         21   -1    0    0  501  502  0.00000000000E+00  0.00000000000E+00  0.17645980092E+04  0.17645980092E+04  0.00000000000E+00 0. -1.
         21   -1    0    0  502  503 -0.00000000000E+00 -0.00000000000E+00 -0.45131509216E+03  0.45131509216E+03  0.00000000000E+00 0.  1.
          6    1    1    2  501    0  0.75271335211E+02  0.62594691316E+03  0.14108032063E+04  0.15549180039E+04  0.17300000000E+03 0.  1.
         -6    1    1    2    0  503 -0.75271335211E+02 -0.62594691316E+03 -0.97520289287E+02  0.66099509743E+03  0.17300000000E+03 0. -1.
</event>
<event>
 4    1  0.6164307E+000  0.1000000E+03  0.7546771E-02  0.1280296E+00
         21   -1    0    0  501  502  0.00000000000E+00  0.00000000000E+00  0.55488569558E+03  0.55488569558E+03  0.00000000000E+00 0. -1.
         21   -1    0    0  502  503 -0.00000000000E+00 -0.00000000000E+00 -0.30838645067E+03  0.30838645067E+03  0.00000000000E+00 0.  1.
          6    1    1    2  501    0  0.24266299030E+02  0.13866559550E+02  0.51423988776E+03  0.54327966731E+03  0.17300000000E+03 0.  1.
         -6    1    1    2    0  503 -0.24266299030E+02 -0.13866559550E+02 -0.26774064286E+03  0.31999247895E+03  0.17300000000E+03 0. -1.
</event>
<event>
 4    1  0.6164307E+000  0.1000000E+03  0.7546771E-02  0.1280296E+00
         21   -1    0    0  501  502  0.00000000000E+00  0.00000000000E+00  0.42200688580E+03  0.42200688580E+03  0.00000000000E+00 0.  1.
         21   -1    0    0  502  503 -0.00000000000E+00 -0.00000000000E+00 -0.17857383933E+03  0.17857383933E+03  0.00000000000E+00 0.  1.
          6    1    1    2  501    0 -0.43499595300E+02 -0.92614245448E+02  0.32624945477E+03  0.38319358031E+03  0.17300000000E+03 0.  1.
         -6    1    1    2    0  503  0.43499595300E+02  0.92614245448E+02 -0.82816408297E+02  0.21738714482E+03  0.17300000000E+03 0.  1.
</event>
<event>
 4    1  0.6164307E+000  0.1000000E+03  0.7546771E-02  0.1280296E+00
         21   -1    0    0  501  502  0.00000000000E+00  0.00000000000E+00  0.13136976145E+03  0.13136976145E+03  0.00000000000E+00 0.  1.
         21   -1    0    0  502  503 -0.00000000000E+00 -0.00000000000E+00 -0.31663670868E+03  0.31663670868E+03  0.00000000000E+00 0.  1.
          6    1    1    2  501    0 -0.46740228834E+02  0.97322366750E+02 -0.88958337818E+02  0.22248343293E+03  0.17300000000E+03 0.  1.
         -6    1    1    2    0  503  0.46740228834E+02 -0.97322366750E+02 -0.96308609416E+02  0.22552303720E+03  0.17300000000E+03 0.  1.
</event>
<event>
 4    1  0.6164307E+000  0.1000000E+03  0.7546771E-02  0.1280296E+00
         21   -1    0    0  501  502  0.00000000000E+00  0.00000000000E+00  0.17397487916E+03  0.17397487916E+03  0.00000000000E+00 0. -1.
         21   -1    0    0  502  503 -0.00000000000E+00 -0.00000000000E+00 -0.25760370270E+03  0.25760370270E+03  0.00000000000E+00 0. -1.
          6    1    1    2  501    0 -0.10978190309E+03  0.32816177490E+02 -0.84560340178E+02  0.22407235189E+03  0.17300000000E+03 0. -1.
         -6    1    1    2    0  503  0.10978190309E+03 -0.32816177490E+02  0.93151663542E+00  0.20750622996E+03  0.17300000000E+03 0. -1.
</event>
<event>
 4    1  0.6164307E+000  0.1000000E+03  0.7546771E-02  0.1280296E+00
         21   -1    0    0  501  502  0.00000000000E+00  0.00000000000E+00  0.46010355470E+03  0.46010355470E+03  0.00000000000E+00 0. -1.
         21   -1    0    0  502  503 -0.00000000000E+00 -0.00000000000E+00 -0.11505214565E+03  0.11505214565E+03  0.00000000000E+00 0. -1.
          6    1    1    2  501    0 -0.49151351659E+02  0.80766329911E+02  0.32077549099E+03  0.37651689343E+03  0.17300000000E+03 0. -1.
         -6    1    1    2    0  503  0.49151351659E+02 -0.80766329911E+02  0.24275918051E+02  0.19863880692E+03  0.17300000000E+03 0. -1.
</event>
<event>
 4    1  0.6164307E+000  0.1000000E+03  0.7546771E-02  0.1280296E+00
         21   -1    0    0  503  502  0.00000000000E+00  0.00000000000E+00  0.55025373012E+02  0.55025373012E+02  0.00000000000E+00 0. -1.
         21   -1    0    0  501  503 -0.00000000000E+00 -0.00000000000E+00 -0.62333944551E+03  0.62333944551E+03  0.00000000000E+00 0. -1.
          6    1    1    2  501    0 -0.65325754663E+01 -0.46156201736E+02 -0.19830597674E+03  0.26725891924E+03  0.17300000000E+03 0. -1.
         -6    1    1    2    0  502  0.65325754663E+01  0.46156201736E+02 -0.37000809576E+03  0.41110589929E+03  0.17300000000E+03 0. -1.
</event>
<event>
 4    1  0.6164307E+000  0.1000000E+03  0.7546771E-02  0.1280296E+00
         21   -1    0    0  501  502  0.00000000000E+00  0.00000000000E+00  0.93609489421E+02  0.93609489421E+02  0.00000000000E+00 0. -1.
         21   -1    0    0  502  503 -0.00000000000E+00 -0.00000000000E+00 -0.45656372979E+03  0.45656372979E+03  0.00000000000E+00 0. -1.
          6    1    1    2  501    0  0.26139776562E+02 -0.10905869792E+03 -0.16118286514E+03  0.26169830631E+03  0.17300000000E+03 0. -1.
         -6    1    1    2    0  503 -0.26139776562E+02  0.10905869792E+03 -0.20177137523E+03  0.28847491291E+03  0.17300000000E+03 0. -1.
</event>
<event>
 4    1  0.6164307E+000  0.1000000E+03  0.7546771E-02  0.1280296E+00
         21   -1    0    0  501  502  0.00000000000E+00  0.00000000000E+00  0.65463563873E+03  0.65463563873E+03  0.00000000000E+00 0. -1.
         21   -1    0    0  502  503 -0.00000000000E+00 -0.00000000000E+00 -0.19311971149E+03  0.19311971149E+03  0.00000000000E+00 0. -1.
          6    1    1    2  501    0  0.18842836464E+03 -0.21749188542E+03  0.37022350162E+03  0.49980237092E+03  0.17300000000E+03 0. -1.
         -6    1    1    2    0  503 -0.18842836464E+03  0.21749188542E+03  0.91292425620E+02  0.34795297929E+03  0.17300000000E+03 0. -1.
</event>
<event>
 4    1  0.6164307E+000  0.1000000E+03  0.7546771E-02  0.1280296E+00
         21   -1    0    0  503  502  0.00000000000E+00  0.00000000000E+00  0.13998760095E+03  0.13998760095E+03  0.00000000000E+00 0. -1.
         21   -1    0    0  501  503 -0.00000000000E+00 -0.00000000000E+00 -0.48581375938E+03  0.48581375938E+03  0.00000000000E+00 0.  1.
          6    1    1    2  501    0 -0.98920914682E+02 -0.33982296398E+02 -0.37057445203E+03  0.42213098480E+03  0.17300000000E+03 0.  1.
         -6    1    1    2    0  502  0.98920914682E+02  0.33982296398E+02  0.24748293602E+02  0.20367037552E+03  0.17300000000E+03 0.  1.
</event>
<event>
 4    1  0.6164307E+000  0.1000000E+03  0.7546771E-02  0.1280296E+00
         21   -1    0    0  503  502  0.00000000000E+00  0.00000000000E+00  0.21020280132E+03  0.21020280132E+03  0.00000000000E+00 0. -1.
         21   -1    0    0  501  503 -0.00000000000E+00 -0.00000000000E+00 -0.52863638729E+03  0.52863638729E+03  0.00000000000E+00 0.  1.
          6    1    1    2  501    0 -0.42580167093E+02 -0.11675329531E+02 -0.47117839396E+03  0.50387246688E+03  0.17300000000E+03 0.  1.
         -6    1    1    2    0  502  0.42580167093E+02  0.11675329531E+02  0.15274480800E+03  0.23496672173E+03  0.17300000000E+03 0.  1.
</event>
<event>
 4    1  0.6164307E+000  0.1000000E+03  0.7546771E-02  0.1280296E+00
         21   -1    0    0  501  502  0.00000000000E+00  0.00000000000E+00  0.10734900121E+03  0.10734900121E+03  0.00000000000E+00 0.  1.
         21   -1    0    0  502  503 -0.00000000000E+00 -0.00000000000E+00 -0.66643007900E+03  0.66643007900E+03  0.00000000000E+00 0.  1.
          6    1    1    2  501    0  0.15657837102E+03 -0.73909569337E+01 -0.90720572394E+02  0.25046084479E+03  0.17300000000E+03 0.  1.
         -6    1    1    2    0  503 -0.15657837102E+03  0.73909569337E+01 -0.46836050540E+03  0.52331823543E+03  0.17300000000E+03 0.  1.
</event>
<event>
 4    1  0.6164307E+000  0.1000000E+03  0.7546771E-02  0.1280296E+00
         21   -1    0    0  501  502  0.00000000000E+00  0.00000000000E+00  0.15125560415E+04  0.15125560415E+04  0.00000000000E+00 0.  1.
         21   -1    0    0  502  503 -0.00000000000E+00 -0.00000000000E+00 -0.79015214396E+02  0.79015214396E+02  0.00000000000E+00 0.  1.
          6    1    1    2  501    0  0.28247476572E+03 -0.19490863338E+02  0.94011390943E+03  0.99695288240E+03  0.17300000000E+03 0.  1.
         -6    1    1    2    0  503 -0.28247476572E+03  0.19490863338E+02  0.49342691772E+03  0.59461837354E+03  0.17300000000E+03 0.  1.
</event>
<event>
 4    1  0.6164307E+000  0.1000000E+03  0.7546771E-02  0.1280296E+00
         21   -1    0    0  501  502  0.00000000000E+00  0.00000000000E+00  0.75102109297E+02  0.75102109297E+02  0.00000000000E+00 0.  1.
         21   -1    0    0  502  503 -0.00000000000E+00 -0.00000000000E+00 -0.43965111622E+03  0.43965111622E+03  0.00000000000E+00 0.  1.
          6    1    1    2  501    0 -0.28878193877E+01  0.50472599464E+02 -0.14954644360E+03  0.23419855164E+03  0.17300000000E+03 0.  1.
         -6    1    1    2    0  503  0.28878193877E+01 -0.50472599464E+02 -0.21500256332E+03  0.28055467387E+03  0.17300000000E+03 0.  1.
</event>
<event>
 4    1  0.6164307E+000  0.1000000E+03  0.7546771E-02  0.1280296E+00
         21   -1    0    0  503  502  0.00000000000E+00  0.00000000000E+00  0.14452828460E+04  0.14452828460E+04  0.00000000000E+00 0.  1.
         21   -1    0    0  501  503 -0.00000000000E+00 -0.00000000000E+00 -0.28083030765E+03  0.28083030765E+03  0.00000000000E+00 0.  1.
          6    1    1    2  501    0 -0.54938264711E+01 -0.60761984003E+03  0.69326295315E+03  0.93796299199E+03  0.17300000000E+03 0.  1.
         -6    1    1    2    0  502  0.54938264711E+01  0.60761984003E+03  0.47118958519E+03  0.78815016166E+03  0.17300000000E+03 0.  1.
</event>
<event>
 4    1  0.6164307E+000  0.1000000E+03  0.7546771E-02  0.1280296E+00
         21   -1    0    0  503  502  0.00000000000E+00  0.00000000000E+00  0.44214037340E+02  0.44214037340E+02  0.00000000000E+00 0.  1.
         21   -1    0    0  501  503 -0.00000000000E+00 -0.00000000000E+00 -0.80782104775E+03  0.80782104775E+03  0.00000000000E+00 0.  1.
          6    1    1    2  501    0 -0.21436937368E+02  0.22350666965E+02 -0.53844813486E+03  0.56640488039E+03  0.17300000000E+03 0.  1.
         -6    1    1    2    0  502  0.21436937368E+02 -0.22350666965E+02 -0.22515887556E+03  0.28563020471E+03  0.17300000000E+03 0.  1.
</event>
<event>
 4    1  0.6164307E+000  0.1000000E+03  0.7546771E-02  0.1280296E+00
         21   -1    0    0  503  502  0.00000000000E+00  0.00000000000E+00  0.14003253424E+03  0.14003253424E+03  0.00000000000E+00 0.  1.
         21   -1    0    0  501  503 -0.00000000000E+00 -0.00000000000E+00 -0.38577008196E+03  0.38577008196E+03  0.00000000000E+00 0. -1.
          6    1    1    2  501    0 -0.10129254496E+03 -0.89230103366E+01 -0.25551351102E+03  0.32489375816E+03  0.17300000000E+03 0. -1.
         -6    1    1    2    0  502  0.10129254496E+03  0.89230103366E+01  0.97759633079E+01  0.20090885803E+03  0.17300000000E+03 0.  1.
</event>
<event>
 4    1  0.6164307E+000  0.1000000E+03  0.7546771E-02  0.1280296E+00
         21   -1    0    0  503  502  0.00000000000E+00  0.00000000000E+00  0.82931913255E+03  0.82931913255E+03  0.00000000000E+00 0.  1.
         21   -1    0    0  501  503 -0.00000000000E+00 -0.00000000000E+00 -0.44908326738E+02  0.44908326738E+02  0.00000000000E+00 0.  1.
          6    1    1    2  501    0 -0.40526573161E+02  0.45924744737E+02  0.25700783070E+03  0.31580612780E+03  0.17300000000E+03 0.  1.
         -6    1    1    2    0  502  0.40526573161E+02 -0.45924744737E+02  0.52740297511E+03  0.55842133149E+03  0.17300000000E+03 0.  1.
</event>
<event>
 4    1  0.6164307E+000  0.1000000E+03  0.7546771E-02  0.1280296E+00
         21   -1    0    0  503  502  0.00000000000E+00  0.00000000000E+00  0.77320881441E+02  0.77320881441E+02  0.00000000000E+00 0.  1.
         21   -1    0    0  501  503 -0.00000000000E+00 -0.00000000000E+00 -0.49244246555E+03  0.49244246555E+03  0.00000000000E+00 0.  1.
          6    1    1    2  501    0 -0.11383015227E+02 -0.41484404500E+02 -0.32340916070E+03  0.36928717020E+03  0.17300000000E+03 0.  1.
         -6    1    1    2    0  502  0.11383015227E+02  0.41484404500E+02 -0.91712423413E+02  0.20047617679E+03  0.17300000000E+03 0.  1.
</event>
<event>
 4    1  0.6164307E+000  0.1000000E+03  0.7546771E-02  0.1280296E+00
         21   -1    0    0  503  502  0.00000000000E+00  0.00000000000E+00  0.32179380709E+03  0.32179380709E+03  0.00000000000E+00 0.  1.
         21   -1    0    0  501  503 -0.00000000000E+00 -0.00000000000E+00 -0.18688127758E+03  0.18688127758E+03  0.00000000000E+00 0.  1.
          6    1    1    2  501    0  0.15133298902E+03 -0.10283853582E+02 -0.20553184825E+02  0.23099537791E+03  0.17300000000E+03 0.  1.
         -6    1    1    2    0  502 -0.15133298902E+03  0.10283853582E+02  0.15546571434E+03  0.27767970676E+03  0.17300000000E+03 0.  1.
</event>
<event>
 4    1  0.6164307E+000  0.1000000E+03  0.7546771E-02  0.1280296E+00
         21   -1    0    0  503  502  0.00000000000E+00  0.00000000000E+00  0.77410541714E+03  0.77410541714E+03  0.00000000000E+00 0.  1.
         21   -1    0    0  501  503 -0.00000000000E+00 -0.00000000000E+00 -0.63064631150E+02  0.63064631150E+02  0.00000000000E+00 0.  1.
          6    1    1    2  501    0 -0.67537749629E+02 -0.34010530375E+02  0.13809507451E+03  0.23391732173E+03  0.17300000000E+03 0.  1.
         -6    1    1    2    0  502  0.67537749629E+02  0.34010530375E+02  0.57294571148E+03  0.60325272656E+03  0.17300000000E+03 0.  1.
</event>
<event>
 4    1  0.6164307E+000  0.1000000E+03  0.7546771E-02  0.1280296E+00
         21   -1    0    0  501  502  0.00000000000E+00  0.00000000000E+00  0.23475516750E+03  0.23475516750E+03  0.00000000000E+00 0.  1.
         21   -1    0    0  502  503 -0.00000000000E+00 -0.00000000000E+00 -0.40074119535E+03  0.40074119535E+03  0.00000000000E+00 0. -1.
          6    1    1    2  501    0 -0.96690396463E+02 -0.22030130520E+03 -0.99245518478E+00  0.29633036093E+03  0.17300000000E+03 0.  1.
         -6    1    1    2    0  503  0.96690396463E+02  0.22030130520E+03 -0.16499357266E+03  0.33916600192E+03  0.17300000000E+03 0. -1.
</event>
<event>
 4    1  0.6164307E+000  0.1000000E+03  0.7546771E-02  0.1280296E+00
         21   -1    0    0  501  502  0.00000000000E+00  0.00000000000E+00  0.20531807802E+04  0.20531807802E+04  0.00000000000E+00 0.  1.
         21   -1    0    0  502  503 -0.00000000000E+00 -0.00000000000E+00 -0.21603654911E+02  0.21603654911E+02  0.00000000000E+00 0. -1.
          6    1    1    2  501    0  0.73304030124E+02 -0.60761265479E+02  0.13764676413E+04  0.13905601677E+04  0.17300000000E+03 0.  1.
         -6    1    1    2    0  503 -0.73304030124E+02  0.60761265479E+02  0.65510948393E+03  0.68422426744E+03  0.17300000000E+03 0. -1.
</event>
<event>
 4    1  0.6164307E+000  0.1000000E+03  0.7546771E-02  0.1280296E+00
         21   -1    0    0  501  502  0.00000000000E+00  0.00000000000E+00  0.46106367782E+03  0.46106367782E+03  0.00000000000E+00 0.  1.
         21   -1    0    0  502  503 -0.00000000000E+00 -0.00000000000E+00 -0.35652953037E+03  0.35652953037E+03  0.00000000000E+00 0.  1.
          6    1    1    2  501    0 -0.31539318070E+03  0.16773600617E+03  0.13568982781E+03  0.41946269866E+03  0.17300000000E+03 0.  1.
         -6    1    1    2    0  503  0.31539318070E+03 -0.16773600617E+03 -0.31155680356E+02  0.39813050953E+03  0.17300000000E+03 0.  1.
</event>
<event>
 4    1  0.6164307E+000  0.1000000E+03  0.7546771E-02  0.1280296E+00
         21   -1    0    0  503  502  0.00000000000E+00  0.00000000000E+00  0.16889344085E+03  0.16889344085E+03  0.00000000000E+00 0.  1.
         21   -1    0    0  501  503 -0.00000000000E+00 -0.00000000000E+00 -0.26912315799E+03  0.26912315799E+03  0.00000000000E+00 0. -1.
          6    1    1    2  501    0 -0.98098112025E+02  0.14688480547E+02 -0.12756985238E+03  0.23673203898E+03  0.17300000000E+03 0. -1.
         -6    1    1    2    0  502  0.98098112025E+02 -0.14688480547E+02  0.27340135229E+02  0.20128455986E+03  0.17300000000E+03 0.  1.
</event>
<event>
 4    1  0.6164307E+000  0.1000000E+03  0.7546771E-02  0.1280296E+00
         21   -1    0    0  503  502  0.00000000000E+00  0.00000000000E+00  0.10832525472E+03  0.10832525472E+03  0.00000000000E+00 0. -1.
         21   -1    0    0  501  503 -0.00000000000E+00 -0.00000000000E+00 -0.65299356142E+03  0.65299356142E+03  0.00000000000E+00 0.  1.
          6    1    1    2  501    0  0.58529493478E+02 -0.12772566572E+03 -0.48007414862E+03  0.52928228335E+03  0.17300000000E+03 0.  1.
         -6    1    1    2    0  502 -0.58529493478E+02  0.12772566572E+03 -0.64594158076E+02  0.23203653279E+03  0.17300000000E+03 0. -1.
</event>
<event>
 4    1  0.6164307E+000  0.1000000E+03  0.7546771E-02  0.1280296E+00
         21   -1    0    0  503  502  0.00000000000E+00  0.00000000000E+00  0.14681038554E+03  0.14681038554E+03  0.00000000000E+00 0. -1.
         21   -1    0    0  501  503 -0.00000000000E+00 -0.00000000000E+00 -0.28864031055E+03  0.28864031055E+03  0.00000000000E+00 0.  1.
          6    1    1    2  501    0 -0.97755225292E+00 -0.13668549955E+02 -0.18801923321E+03  0.25586718610E+03  0.17300000000E+03 0.  1.
         -6    1    1    2    0  502  0.97755225292E+00  0.13668549955E+02  0.46189308201E+02  0.17958350998E+03  0.17300000000E+03 0. -1.
</event>
<event>
 4    1  0.6164307E+000  0.1000000E+03  0.7546771E-02  0.1280296E+00
         21   -1    0    0  503  502  0.00000000000E+00  0.00000000000E+00  0.11200103560E+03  0.11200103560E+03  0.00000000000E+00 0. -1.
         21   -1    0    0  501  503 -0.00000000000E+00 -0.00000000000E+00 -0.11892798689E+04  0.11892798689E+04  0.00000000000E+00 0.  1.
          6    1    1    2  501    0  0.20422748880E+03 -0.22567938954E+03 -0.72245644790E+03  0.80281527960E+03  0.17300000000E+03 0.  1.
         -6    1    1    2    0  502 -0.20422748880E+03  0.22567938954E+03 -0.35482238545E+03  0.49846562495E+03  0.17300000000E+03 0. -1.
</event>
<event>
 4    1  0.6164307E+000  0.1000000E+03  0.7546771E-02  0.1280296E+00
         21   -1    0    0  501  502  0.00000000000E+00  0.00000000000E+00  0.36435678494E+03  0.36435678494E+03  0.00000000000E+00 0. -1.
         21   -1    0    0  502  503 -0.00000000000E+00 -0.00000000000E+00 -0.14738242999E+03  0.14738242999E+03  0.00000000000E+00 0. -1.
          6    1    1    2  501    0 -0.58736536817E+02  0.13787473013E+03  0.14847193244E+03  0.27282290353E+03  0.17300000000E+03 0. -1.
         -6    1    1    2    0  503  0.58736536817E+02 -0.13787473013E+03  0.68502422505E+02  0.23891631140E+03  0.17300000000E+03 0. -1.
</event>
<event>
 4    1  0.6164307E+000  0.1000000E+03  0.7546771E-02  0.1280296E+00
         21   -1    0    0  501  502  0.00000000000E+00  0.00000000000E+00  0.71439892151E+03  0.71439892151E+03  0.00000000000E+00 0.  1.
         21   -1    0    0  502  503 -0.00000000000E+00 -0.00000000000E+00 -0.37540236524E+03  0.37540236524E+03  0.00000000000E+00 0.  1.
          6    1    1    2  501    0  0.44145938832E+03 -0.17548429251E+03  0.28749922994E+03  0.58160634081E+03  0.17300000000E+03 0.  1.
         -6    1    1    2    0  503 -0.44145938832E+03  0.17548429251E+03  0.51497326330E+02  0.50819494594E+03  0.17300000000E+03 0.  1.
</event>
<event>
 4    1  0.6164307E+000  0.1000000E+03  0.7546771E-02  0.1280296E+00
         21   -1    0    0  501  502  0.00000000000E+00  0.00000000000E+00  0.70188036003E+03  0.70188036003E+03  0.00000000000E+00 0.  1.
         21   -1    0    0  502  503 -0.00000000000E+00 -0.00000000000E+00 -0.56094547360E+02  0.56094547360E+02  0.00000000000E+00 0.  1.
          6    1    1    2  501    0 -0.10253192340E+01  0.52759617755E+01  0.50820973046E+03  0.53687523428E+03  0.17300000000E+03 0.  1.
         -6    1    1    2    0  503  0.10253192340E+01 -0.52759617755E+01  0.13757608221E+03  0.22109967311E+03  0.17300000000E+03 0.  1.
</event>
<event>
 4    1  0.6164307E+000  0.1000000E+03  0.7546771E-02  0.1280296E+00
         21   -1    0    0  503  502  0.00000000000E+00  0.00000000000E+00  0.10170893292E+03  0.10170893292E+03  0.00000000000E+00 0.  1.
         21   -1    0    0  501  503 -0.00000000000E+00 -0.00000000000E+00 -0.10188955128E+04  0.10188955128E+04  0.00000000000E+00 0.  1.
          6    1    1    2  501    0  0.13074459903E+03 -0.46616492540E+02 -0.86467665730E+03  0.89267125485E+03  0.17300000000E+03 0.  1.
         -6    1    1    2    0  502 -0.13074459903E+03  0.46616492540E+02 -0.52509922628E+02  0.22793319093E+03  0.17300000000E+03 0.  1.
</event>
<event>
 4    1  0.6164307E+000  0.1000000E+03  0.7546771E-02  0.1280296E+00
         21   -1    0    0  503  502  0.00000000000E+00  0.00000000000E+00  0.44269990665E+03  0.44269990665E+03  0.00000000000E+00 0.  1.
         21   -1    0    0  501  503 -0.00000000000E+00 -0.00000000000E+00 -0.38454838497E+03  0.38454838497E+03  0.00000000000E+00 0.  1.
          6    1    1    2  501    0  0.10131173254E+03 -0.26128767557E+03  0.27823833790E+03  0.43113906020E+03  0.17300000000E+03 0.  1.
         -6    1    1    2    0  502 -0.10131173254E+03  0.26128767557E+03 -0.22008681621E+03  0.39610923143E+03  0.17300000000E+03 0.  1.
</event>
<event>
 4    1  0.6164307E+000  0.1000000E+03  0.7546771E-02  0.1280296E+00
         21   -1    0    0  503  502  0.00000000000E+00  0.00000000000E+00  0.37195328128E+03  0.37195328128E+03  0.00000000000E+00 0.  1.
         21   -1    0    0  501  503 -0.00000000000E+00 -0.00000000000E+00 -0.13710363060E+03  0.13710363060E+03  0.00000000000E+00 0.  1.
          6    1    1    2  501    0  0.38002889738E+02  0.35959079849E+02 -0.35172655178E+02  0.18412873411E+03  0.17300000000E+03 0.  1.
         -6    1    1    2    0  502 -0.38002889738E+02 -0.35959079849E+02  0.27002230586E+03  0.32492817777E+03  0.17300000000E+03 0.  1.
</event>
<event>
 4    1  0.6164307E+000  0.1000000E+03  0.7546771E-02  0.1280296E+00
         21   -1    0    0  503  502  0.00000000000E+00  0.00000000000E+00  0.83132573167E+02  0.83132573167E+02  0.00000000000E+00 0.  1.
         21   -1    0    0  501  503 -0.00000000000E+00 -0.00000000000E+00 -0.59403167591E+03  0.59403167591E+03  0.00000000000E+00 0.  1.
          6    1    1    2  501    0  0.13494075556E+03  0.33613435949E+02 -0.23907438911E+03  0.32622758025E+03  0.17300000000E+03 0.  1.
         -6    1    1    2    0  502 -0.13494075556E+03 -0.33613435949E+02 -0.27182471364E+03  0.35093666883E+03  0.17300000000E+03 0.  1.
</event>
<event>
 4    1  0.6164307E+000  0.1000000E+03  0.7546771E-02  0.1280296E+00
         21   -1    0    0  503  502  0.00000000000E+00  0.00000000000E+00  0.12521676336E+03  0.12521676336E+03  0.00000000000E+00 0. -1.
         21   -1    0    0  501  503 -0.00000000000E+00 -0.00000000000E+00 -0.49769744603E+03  0.49769744603E+03  0.00000000000E+00 0.  1.
          6    1    1    2  501    0 -0.16176720248E+03 -0.66783721455E+02 -0.23861640478E+03  0.34277613960E+03  0.17300000000E+03 0.  1.
         -6    1    1    2    0  502  0.16176720248E+03  0.66783721455E+02 -0.13386427789E+03  0.28013806979E+03  0.17300000000E+03 0. -1.
</event>
<event>
 4    1  0.6164307E+000  0.1000000E+03  0.7546771E-02  0.1280296E+00
         21   -1    0    0  501  502  0.00000000000E+00  0.00000000000E+00  0.17243607181E+03  0.17243607181E+03  0.00000000000E+00 0.  1.
         21   -1    0    0  502  503 -0.00000000000E+00 -0.00000000000E+00 -0.21681011490E+03  0.21681011490E+03  0.00000000000E+00 0.  1.
          6    1    1    2  501    0 -0.17481116568E+02  0.70975538258E+02  0.24090405834E+02  0.18934746927E+03  0.17300000000E+03 0.  1.
         -6    1    1    2    0  503  0.17481116568E+02 -0.70975538258E+02 -0.68464448923E+02  0.19989871744E+03  0.17300000000E+03 0.  1.
</event>
<event>
 4    1  0.6164307E+000  0.1000000E+03  0.7546771E-02  0.1280296E+00
         21   -1    0    0  501  502  0.00000000000E+00  0.00000000000E+00  0.87564251968E+02  0.87564251968E+02  0.00000000000E+00 0.  1.
         21   -1    0    0  502  503 -0.00000000000E+00 -0.00000000000E+00 -0.10686983337E+04  0.10686983337E+04  0.00000000000E+00 0.  1.
          6    1    1    2  501    0 -0.44525184010E+02  0.13099528628E+03 -0.91857128023E+02  0.23981031881E+03  0.17300000000E+03 0.  1.
         -6    1    1    2    0  503  0.44525184010E+02 -0.13099528628E+03 -0.88927695376E+03  0.91645226691E+03  0.17300000000E+03 0.  1.
</event>
<event>
 4    1  0.6164307E+000  0.1000000E+03  0.7546771E-02  0.1280296E+00
         21   -1    0    0  501  502  0.00000000000E+00  0.00000000000E+00  0.22325771337E+03  0.22325771337E+03  0.00000000000E+00 0.  1.
         21   -1    0    0  502  503 -0.00000000000E+00 -0.00000000000E+00 -0.60354814705E+03  0.60354814705E+03  0.00000000000E+00 0.  1.
          6    1    1    2  501    0  0.26367218792E+03  0.15627212012E+02 -0.40098946240E+03  0.51038101591E+03  0.17300000000E+03 0.  1.
         -6    1    1    2    0  503 -0.26367218792E+03 -0.15627212012E+02  0.20699028722E+02  0.31642484452E+03  0.17300000000E+03 0.  1.
</event>
<event>
 4    1  0.6164307E+000  0.1000000E+03  0.7546771E-02  0.1280296E+00
         21   -1    0    0  501  502  0.00000000000E+00  0.00000000000E+00  0.80532600509E+03  0.80532600509E+03  0.00000000000E+00 0.  1.
         21   -1    0    0  502  503 -0.00000000000E+00 -0.00000000000E+00 -0.27636699164E+03  0.27636699164E+03  0.00000000000E+00 0.  1.
          6    1    1    2  501    0  0.53765826515E+02 -0.20294150658E+03  0.70635178920E+03  0.75692659440E+03  0.17300000000E+03 0.  1.
         -6    1    1    2    0  503 -0.53765826515E+02  0.20294150658E+03 -0.17739277575E+03  0.32476640233E+03  0.17300000000E+03 0.  1.
</event>
<event>
 4    1  0.6164307E+000  0.1000000E+03  0.7546771E-02  0.1280296E+00
         21   -1    0    0  501  502  0.00000000000E+00  0.00000000000E+00  0.29059424332E+03  0.29059424332E+03  0.00000000000E+00 0.  1.
         21   -1    0    0  502  503 -0.00000000000E+00 -0.00000000000E+00 -0.14353690168E+03  0.14353690168E+03  0.00000000000E+00 0.  1.
          6    1    1    2  501    0 -0.26914260561E+02  0.47044606012E+02  0.17348273596E+03  0.25092395671E+03  0.17300000000E+03 0.  1.
         -6    1    1    2    0  503  0.26914260561E+02 -0.47044606012E+02 -0.26425394325E+02  0.18320718829E+03  0.17300000000E+03 0.  1.
</event>
<event>
 4    1  0.6164307E+000  0.1000000E+03  0.7546771E-02  0.1280296E+00
         21   -1    0    0  501  502  0.00000000000E+00  0.00000000000E+00  0.67387849190E+02  0.67387849190E+02  0.00000000000E+00 0.  1.
         21   -1    0    0  502  503 -0.00000000000E+00 -0.00000000000E+00 -0.79079152038E+03  0.79079152038E+03  0.00000000000E+00 0. -1.
          6    1    1    2  501    0  0.13887964258E+03 -0.16523377582E+02 -0.24711694254E+03  0.33250016604E+03  0.17300000000E+03 0.  1.
         -6    1    1    2    0  503 -0.13887964258E+03  0.16523377582E+02 -0.47628672865E+03  0.52567920353E+03  0.17300000000E+03 0. -1.
</event>
<event>
 4    1  0.6164307E+000  0.1000000E+03  0.7546771E-02  0.1280296E+00
         21   -1    0    0  501  502  0.00000000000E+00  0.00000000000E+00  0.79771220707E+03  0.79771220707E+03  0.00000000000E+00 0.  1.
         21   -1    0    0  502  503 -0.00000000000E+00 -0.00000000000E+00 -0.60492161566E+02  0.60492161566E+02  0.00000000000E+00 0. -1.
          6    1    1    2  501    0 -0.14429481995E+02  0.26963237163E+02  0.11100655757E+03  0.20781405615E+03  0.17300000000E+03 0.  1.
         -6    1    1    2    0  503  0.14429481995E+02 -0.26963237163E+02  0.62621348794E+03  0.65039031249E+03  0.17300000000E+03 0. -1.
</event>
<event>
 4    1  0.6164307E+000  0.1000000E+03  0.7546771E-02  0.1280296E+00
         21   -1    0    0  503  502  0.00000000000E+00  0.00000000000E+00  0.33264618001E+03  0.33264618001E+03  0.00000000000E+00 0. -1.
         21   -1    0    0  501  503 -0.00000000000E+00 -0.00000000000E+00 -0.25530419445E+03  0.25530419445E+03  0.00000000000E+00 0. -1.
          6    1    1    2  501    0  0.32987305143E+02  0.13779282522E+03 -0.14984127221E+03  0.26917732416E+03  0.17300000000E+03 0. -1.
         -6    1    1    2    0  502 -0.32987305143E+02 -0.13779282522E+03  0.22718325777E+03  0.31877305030E+03  0.17300000000E+03 0. -1.
</event>
<event>
 4    1  0.6164307E+000  0.1000000E+03  0.7546771E-02  0.1280296E+00
         21   -1    0    0  503  502  0.00000000000E+00  0.00000000000E+00  0.31396294322E+03  0.31396294322E+03  0.00000000000E+00 0.  1.
         21   -1    0    0  501  503 -0.00000000000E+00 -0.00000000000E+00 -0.19240021575E+03  0.19240021575E+03  0.00000000000E+00 0.  1.
          6    1    1    2  501    0 -0.11557746129E+03 -0.10272260905E+03 -0.22699830455E+02  0.23314022877E+03  0.17300000000E+03 0.  1.
         -6    1    1    2    0  502  0.11557746129E+03  0.10272260905E+03  0.14426255793E+03  0.27322293020E+03  0.17300000000E+03 0.  1.
</event>
<event>
 4    1  0.6164307E+000  0.1000000E+03  0.7546771E-02  0.1280296E+00
         21   -1    0    0  503  502  0.00000000000E+00  0.00000000000E+00  0.69101632813E+02  0.69101632813E+02  0.00000000000E+00 0.  1.
         21   -1    0    0  501  503 -0.00000000000E+00 -0.00000000000E+00 -0.14344975109E+04  0.14344975109E+04  0.00000000000E+00 0.  1.
          6    1    1    2  501    0  0.18692497183E+02  0.47279858345E+02 -0.12989882196E+04  0.13114435516E+04  0.17300000000E+03 0.  1.
         -6    1    1    2    0  502 -0.18692497183E+02 -0.47279858345E+02 -0.66407658460E+02  0.19215559206E+03  0.17300000000E+03 0.  1.
</event>
<event>
 4    1  0.6164307E+000  0.1000000E+03  0.7546771E-02  0.1280296E+00
         21   -1    0    0  503  502  0.00000000000E+00  0.00000000000E+00  0.86660083293E+03  0.86660083293E+03  0.00000000000E+00 0.  1.
         21   -1    0    0  501  503 -0.00000000000E+00 -0.00000000000E+00 -0.79162668363E+02  0.79162668363E+02  0.00000000000E+00 0.  1.
          6    1    1    2  501    0  0.13962005954E+03 -0.13511059037E+03  0.33881468900E+03  0.42716861558E+03  0.17300000000E+03 0.  1.
         -6    1    1    2    0  502 -0.13962005954E+03  0.13511059037E+03  0.44862347557E+03  0.51859488571E+03  0.17300000000E+03 0.  1.
</event>
<event>
 4    1  0.6164307E+000  0.1000000E+03  0.7546771E-02  0.1280296E+00
         21   -1    0    0  501  502  0.00000000000E+00  0.00000000000E+00  0.16478845894E+04  0.16478845894E+04  0.00000000000E+00 0.  1.
         21   -1    0    0  502  503 -0.00000000000E+00 -0.00000000000E+00 -0.24204245027E+03  0.24204245027E+03  0.00000000000E+00 0.  1.
          6    1    1    2  501    0  0.10733821950E+02 -0.47868771217E+02  0.16087707409E+04  0.16187893411E+04  0.17300000000E+03 0.  1.
         -6    1    1    2    0  503 -0.10733821950E+02  0.47868771217E+02 -0.20292860172E+03  0.27113769857E+03  0.17300000000E+03 0.  1.
</event>
<event>
 4    1  0.6164307E+000  0.1000000E+03  0.7546771E-02  0.1280296E+00
         21   -1    0    0  503  502  0.00000000000E+00  0.00000000000E+00  0.32044737850E+03  0.32044737850E+03  0.00000000000E+00 0.  1.
         21   -1    0    0  501  503 -0.00000000000E+00 -0.00000000000E+00 -0.57880169079E+03  0.57880169079E+03  0.00000000000E+00 0. -1.
          6    1    1    2  501    0 -0.72166061251E+02  0.38422774735E+03 -0.18350188586E+03  0.46523203280E+03  0.17300000000E+03 0.  1.
         -6    1    1    2    0  502  0.72166061251E+02 -0.38422774735E+03 -0.74852426438E+02  0.43401703650E+03  0.17300000000E+03 0.  1.
</event>
<event>
 4    1  0.6164307E+000  0.1000000E+03  0.7546771E-02  0.1280296E+00
         21   -1    0    0  503  502  0.00000000000E+00  0.00000000000E+00  0.28536731434E+02  0.28536731434E+02  0.00000000000E+00 0.  1.
         21   -1    0    0  501  503 -0.00000000000E+00 -0.00000000000E+00 -0.13160142686E+04  0.13160142686E+04  0.00000000000E+00 0. -1.
          6    1    1    2  501    0  0.50665002114E+02  0.13679833297E+02 -0.88587155533E+03  0.90413024107E+03  0.17300000000E+03 0.  1.
         -6    1    1    2    0  502 -0.50665002114E+02 -0.13679833297E+02 -0.40160598183E+03  0.44042075896E+03  0.17300000000E+03 0.  1.
</event>
<event>
 4    1  0.6164307E+000  0.1000000E+03  0.7546771E-02  0.1280296E+00
         21   -1    0    0  503  502  0.00000000000E+00  0.00000000000E+00  0.48379692695E+03  0.48379692695E+03  0.00000000000E+00 0.  1.
         21   -1    0    0  501  503 -0.00000000000E+00 -0.00000000000E+00 -0.21732056005E+03  0.21732056005E+03  0.00000000000E+00 0. -1.
          6    1    1    2  501    0 -0.18179202033E+03 -0.20200799580E+03  0.93449428824E+02  0.33543608150E+03  0.17300000000E+03 0.  1.
         -6    1    1    2    0  502  0.18179202033E+03  0.20200799580E+03  0.17302693808E+03  0.36568140550E+03  0.17300000000E+03 0.  1.
</event>
<event>
 4    1  0.6164307E+000  0.1000000E+03  0.7546771E-02  0.1280296E+00
         21   -1    0    0  501  502  0.00000000000E+00  0.00000000000E+00  0.14301145813E+03  0.14301145813E+03  0.00000000000E+00 0.  1.
         21   -1    0    0  502  503 -0.00000000000E+00 -0.00000000000E+00 -0.57064331124E+03  0.57064331124E+03  0.00000000000E+00 0.  1.
          6    1    1    2  501    0 -0.26426627667E+02  0.18351332744E+02  0.67280990946E+02  0.18839020624E+03  0.17300000000E+03 0. -1.
         -6    1    1    2    0  503  0.26426627667E+02 -0.18351332744E+02 -0.49491284406E+03  0.52526456313E+03  0.17300000000E+03 0. -1.
</event>
<event>
 4    1  0.6164307E+000  0.1000000E+03  0.7546771E-02  0.1280296E+00
         21   -1    0    0  501  502  0.00000000000E+00  0.00000000000E+00  0.82415694402E+02  0.82415694402E+02  0.00000000000E+00 0. -1.
         21   -1    0    0  502  503 -0.00000000000E+00 -0.00000000000E+00 -0.48199399498E+03  0.48199399498E+03  0.00000000000E+00 0. -1.
          6    1    1    2  501    0 -0.72598346781E+02  0.47386878880E+02 -0.26738110288E+03  0.33005710176E+03  0.17300000000E+03 0.  1.
         -6    1    1    2    0  503  0.72598346781E+02 -0.47386878880E+02 -0.13219719770E+03  0.23435258762E+03  0.17300000000E+03 0.  1.
</event>
<event>
 4    1  0.6164307E+000  0.1000000E+03  0.7546771E-02  0.1280296E+00
         21   -1    0    0  501  502  0.00000000000E+00  0.00000000000E+00  0.55109513631E+02  0.55109513631E+02  0.00000000000E+00 0. -1.
         21   -1    0    0  502  503 -0.00000000000E+00 -0.00000000000E+00 -0.79292607638E+03  0.79292607638E+03  0.00000000000E+00 0. -1.
          6    1    1    2  501    0 -0.52520947766E+02 -0.98461072558E+02 -0.44248477637E+03  0.48803156669E+03  0.17300000000E+03 0.  1.
         -6    1    1    2    0  503  0.52520947766E+02  0.98461072558E+02 -0.29533178637E+03  0.36000402332E+03  0.17300000000E+03 0.  1.
</event>
<event>
 4    1  0.6164307E+000  0.1000000E+03  0.7546771E-02  0.1280296E+00
         21   -1    0    0  503  502  0.00000000000E+00  0.00000000000E+00  0.10612340205E+03  0.10612340205E+03  0.00000000000E+00 0. -1.
         21   -1    0    0  501  503 -0.00000000000E+00 -0.00000000000E+00 -0.81513312524E+03  0.81513312524E+03  0.00000000000E+00 0. -1.
          6    1    1    2  501    0  0.17297459698E+03 -0.51216057511E+01 -0.61007509204E+03  0.65731808128E+03  0.17300000000E+03 0. -1.
         -6    1    1    2    0  502 -0.17297459698E+03  0.51216057511E+01 -0.98934631146E+02  0.26393844601E+03  0.17300000000E+03 0. -1.
</event>
<event>
 4    1  0.6164307E+000  0.1000000E+03  0.7546771E-02  0.1280296E+00
         21   -1    0    0  501  502  0.00000000000E+00  0.00000000000E+00  0.30051979437E+03  0.30051979437E+03  0.00000000000E+00 0. -1.
         21   -1    0    0  502  503 -0.00000000000E+00 -0.00000000000E+00 -0.34217965026E+03  0.34217965026E+03  0.00000000000E+00 0.  1.
          6    1    1    2  501    0  0.94759498676E+02 -0.67751752040E+02 -0.26492713053E+03  0.33717213257E+03  0.17300000000E+03 0.  1.
         -6    1    1    2    0  503 -0.94759498676E+02  0.67751752040E+02  0.22326727464E+03  0.30552731207E+03  0.17300000000E+03 0. -1.
</event>
<event>
 4    1  0.6164307E+000  0.1000000E+03  0.7546771E-02  0.1280296E+00
         21   -1    0    0  503  502  0.00000000000E+00  0.00000000000E+00  0.75326677624E+02  0.75326677624E+02  0.00000000000E+00 0. -1.
         21   -1    0    0  501  503 -0.00000000000E+00 -0.00000000000E+00 -0.17244427308E+04  0.17244427308E+04  0.00000000000E+00 0. -1.
          6    1    1    2  501    0 -0.74140057566E+02  0.43350895487E+02 -0.15843131196E+04  0.15960429534E+04  0.17300000000E+03 0. -1.
         -6    1    1    2    0  502  0.74140057566E+02 -0.43350895487E+02 -0.64802933625E+02  0.20372645504E+03  0.17300000000E+03 0. -1.
</event>
<event>
 4    1  0.6164307E+000  0.1000000E+03  0.7546771E-02  0.1280296E+00
         21   -1    0    0  503  502  0.00000000000E+00  0.00000000000E+00  0.18772359951E+03  0.18772359951E+03  0.00000000000E+00 0. -1.
         21   -1    0    0  501  503 -0.00000000000E+00 -0.00000000000E+00 -0.42922075259E+03  0.42922075259E+03  0.00000000000E+00 0. -1.
          6    1    1    2  501    0 -0.20566984866E+03 -0.34374410008E+02 -0.28767309639E+02  0.27246696096E+03  0.17300000000E+03 0. -1.
         -6    1    1    2    0  502  0.20566984866E+03  0.34374410008E+02 -0.21272984344E+03  0.34447739113E+03  0.17300000000E+03 0. -1.
</event>
<event>
 4    1  0.6164307E+000  0.1000000E+03  0.7546771E-02  0.1280296E+00
         21   -1    0    0  501  502  0.00000000000E+00  0.00000000000E+00  0.27414075494E+03  0.27414075494E+03  0.00000000000E+00 0.  1.
         21   -1    0    0  502  503 -0.00000000000E+00 -0.00000000000E+00 -0.26503012820E+03  0.26503012820E+03  0.00000000000E+00 0. -1.
          6    1    1    2  501    0  0.15468200172E+03  0.13699353331E+03 -0.11734711558E+01  0.26948863957E+03  0.17300000000E+03 0. -1.
         -6    1    1    2    0  503 -0.15468200172E+03 -0.13699353331E+03  0.10284097898E+02  0.26968224357E+03  0.17300000000E+03 0.  1.
</event>
<event>
 4    1  0.6164307E+000  0.1000000E+03  0.7546771E-02  0.1280296E+00
         21   -1    0    0  501  502  0.00000000000E+00  0.00000000000E+00  0.16729313442E+02  0.16729313442E+02  0.00000000000E+00 0.  1.
         21   -1    0    0  502  503 -0.00000000000E+00 -0.00000000000E+00 -0.20812944062E+04  0.20812944062E+04  0.00000000000E+00 0. -1.
          6    1    1    2  501    0 -0.48191460563E+02 -0.14289553683E+02 -0.75900237564E+03  0.78008987588E+03  0.17300000000E+03 0. -1.
         -6    1    1    2    0  503  0.48191460563E+02  0.14289553683E+02 -0.13055627171E+04  0.13179338438E+04  0.17300000000E+03 0.  1.
</event>
<event>
 4    1  0.6164307E+000  0.1000000E+03  0.7546771E-02  0.1280296E+00
         21   -1    0    0  503  502  0.00000000000E+00  0.00000000000E+00  0.63516912515E+02  0.63516912515E+02  0.00000000000E+00 0.  1.
         21   -1    0    0  501  503 -0.00000000000E+00 -0.00000000000E+00 -0.56850796579E+03  0.56850796579E+03  0.00000000000E+00 0. -1.
          6    1    1    2  501    0  0.56208483735E+02 -0.25418027027E+02 -0.33354676923E+03  0.38077278921E+03  0.17300000000E+03 0. -1.
         -6    1    1    2    0  502 -0.56208483735E+02  0.25418027027E+02 -0.17144428405E+03  0.25125208909E+03  0.17300000000E+03 0.  1.
</event>
<event>
 4    1  0.6164307E+000  0.1000000E+03  0.7546771E-02  0.1280296E+00
         21   -1    0    0  503  502  0.00000000000E+00  0.00000000000E+00  0.59000570813E+03  0.59000570813E+03  0.00000000000E+00 0.  1.
         21   -1    0    0  501  503 -0.00000000000E+00 -0.00000000000E+00 -0.70135114066E+02  0.70135114066E+02  0.00000000000E+00 0. -1.
          6    1    1    2  501    0  0.12950199388E+02 -0.28184219923E+02  0.42611539578E+03  0.46093967982E+03  0.17300000000E+03 0. -1.
         -6    1    1    2    0  502 -0.12950199388E+02  0.28184219923E+02  0.93755198286E+02  0.19920114237E+03  0.17300000000E+03 0.  1.
</event>
<event>
 4    1  0.6164307E+000  0.1000000E+03  0.7546771E-02  0.1280296E+00
         21   -1    0    0  501  502  0.00000000000E+00  0.00000000000E+00  0.41069019892E+03  0.41069019892E+03  0.00000000000E+00 0. -1.
         21   -1    0    0  502  503 -0.00000000000E+00 -0.00000000000E+00 -0.73236099332E+03  0.73236099332E+03  0.00000000000E+00 0.  1.
          6    1    1    2  501    0  0.19874122750E+03 -0.11062983622E+03  0.32696761935E+03  0.43425091856E+03  0.17300000000E+03 0.  1.
         -6    1    1    2    0  503 -0.19874122750E+03  0.11062983622E+03 -0.64863841375E+03  0.70880027368E+03  0.17300000000E+03 0. -1.
</event>
<event>
 4    1  0.6164307E+000  0.1000000E+03  0.7546771E-02  0.1280296E+00
         21   -1    0    0  501  502  0.00000000000E+00  0.00000000000E+00  0.81304155964E+03  0.81304155964E+03  0.00000000000E+00 0.  1.
         21   -1    0    0  502  503 -0.00000000000E+00 -0.00000000000E+00 -0.43516332059E+02  0.43516332059E+02  0.00000000000E+00 0.  1.
          6    1    1    2  501    0 -0.34305937711E+02 -0.34432365027E+02  0.25821315541E+03  0.31458785538E+03  0.17300000000E+03 0.  1.
         -6    1    1    2    0  503  0.34305937711E+02  0.34432365027E+02  0.51131207217E+03  0.54197003632E+03  0.17300000000E+03 0.  1.
</event>
<event>
 4    1  0.6164307E+000  0.1000000E+03  0.7546771E-02  0.1280296E+00
         21   -1    0    0  501  502  0.00000000000E+00  0.00000000000E+00  0.19898850012E+03  0.19898850012E+03  0.00000000000E+00 0.  1.
         21   -1    0    0  502  503 -0.00000000000E+00 -0.00000000000E+00 -0.23008965470E+03  0.23008965470E+03  0.00000000000E+00 0.  1.
          6    1    1    2  501    0 -0.12165825043E+03  0.25455856981E+02  0.46884149743E+01  0.21307208120E+03  0.17300000000E+03 0.  1.
         -6    1    1    2    0  503  0.12165825043E+03 -0.25455856981E+02 -0.35789569556E+02  0.21600607362E+03  0.17300000000E+03 0.  1.
</event>
<event>
 4    1  0.6164307E+000  0.1000000E+03  0.7546771E-02  0.1280296E+00
         21   -1    0    0  501  502  0.00000000000E+00  0.00000000000E+00  0.10728758197E+03  0.10728758197E+03  0.00000000000E+00 0.  1.
         21   -1    0    0  502  503 -0.00000000000E+00 -0.00000000000E+00 -0.35346469171E+03  0.35346469171E+03  0.00000000000E+00 0.  1.
          6    1    1    2  501    0 -0.83060195049E+02 -0.29938603238E+02 -0.13973739091E+03  0.23927150767E+03  0.17300000000E+03 0.  1.
         -6    1    1    2    0  503  0.83060195049E+02  0.29938603238E+02 -0.10643971884E+03  0.22148076601E+03  0.17300000000E+03 0.  1.
</event>
<event>
 4    1  0.6164307E+000  0.1000000E+03  0.7546771E-02  0.1280296E+00
         21   -1    0    0  501  502  0.00000000000E+00  0.00000000000E+00  0.10590720593E+03  0.10590720593E+03  0.00000000000E+00 0. -1.
         21   -1    0    0  502  503 -0.00000000000E+00 -0.00000000000E+00 -0.59861475182E+03  0.59861475182E+03  0.00000000000E+00 0. -1.
          6    1    1    2  501    0  0.13555808759E+03 -0.90754229082E+02 -0.13051000298E+03  0.27124561948E+03  0.17300000000E+03 0.  1.
         -6    1    1    2    0  503 -0.13555808759E+03  0.90754229082E+02 -0.36219754292E+03  0.43327633827E+03  0.17300000000E+03 0.  1.
</event>
<event>
 4    1  0.6164307E+000  0.1000000E+03  0.7546771E-02  0.1280296E+00
         21   -1    0    0  501  502  0.00000000000E+00  0.00000000000E+00  0.18748750718E+03  0.18748750718E+03  0.00000000000E+00 0. -1.
         21   -1    0    0  502  503 -0.00000000000E+00 -0.00000000000E+00 -0.18218520271E+03  0.18218520271E+03  0.00000000000E+00 0. -1.
          6    1    1    2  501    0 -0.30948809073E+02  0.26937620777E+02  0.53104189690E+02  0.18556001498E+03  0.17300000000E+03 0.  1.
         -6    1    1    2    0  503  0.30948809073E+02 -0.26937620777E+02 -0.47801885220E+02  0.18411269491E+03  0.17300000000E+03 0.  1.
</event>
<event>
 4    1  0.6164307E+000  0.1000000E+03  0.7546771E-02  0.1280296E+00
         21   -1    0    0  501  502  0.00000000000E+00  0.00000000000E+00  0.82242213368E+03  0.82242213368E+03  0.00000000000E+00 0.  1.
         21   -1    0    0  502  503 -0.00000000000E+00 -0.00000000000E+00 -0.84171084665E+02  0.84171084665E+02  0.00000000000E+00 0. -1.
          6    1    1    2  501    0 -0.18297709552E+03 -0.49285410386E+01  0.23802559437E+03  0.34654017311E+03  0.17300000000E+03 0.  1.
         -6    1    1    2    0  503  0.18297709552E+03  0.49285410386E+01  0.50022545464E+03  0.56005304523E+03  0.17300000000E+03 0. -1.
</event>
<event>
 4    1  0.6164307E+000  0.1000000E+03  0.7546771E-02  0.1280296E+00
         21   -1    0    0  501  502  0.00000000000E+00  0.00000000000E+00  0.23247944745E+03  0.23247944745E+03  0.00000000000E+00 0.  1.
         21   -1    0    0  502  503 -0.00000000000E+00 -0.00000000000E+00 -0.19091278177E+03  0.19091278177E+03  0.00000000000E+00 0. -1.
          6    1    1    2  501    0  0.75780847439E+02  0.46157156782E+02  0.10230097752E+03  0.21969913510E+03  0.17300000000E+03 0.  1.
         -6    1    1    2    0  503 -0.75780847439E+02 -0.46157156782E+02 -0.60734311831E+02  0.20369309413E+03  0.17300000000E+03 0. -1.
</event>
<event>
 4    1  0.6164307E+000  0.1000000E+03  0.7546771E-02  0.1280296E+00
         21   -1    0    0  501  502  0.00000000000E+00  0.00000000000E+00  0.33867121253E+03  0.33867121253E+03  0.00000000000E+00 0.  1.
         21   -1    0    0  502  503 -0.00000000000E+00 -0.00000000000E+00 -0.60852723145E+03  0.60852723145E+03  0.00000000000E+00 0. -1.
          6    1    1    2  501    0 -0.17118960096E+03 -0.33038638531E+03  0.67633083541E+02  0.41588974148E+03  0.17300000000E+03 0.  1.
         -6    1    1    2    0  503  0.17118960096E+03  0.33038638531E+03 -0.33748910246E+03  0.53130870250E+03  0.17300000000E+03 0. -1.
</event>
<event>
 4    1  0.6164307E+000  0.1000000E+03  0.7546771E-02  0.1280296E+00
         21   -1    0    0  503  502  0.00000000000E+00  0.00000000000E+00  0.24735190218E+03  0.24735190218E+03  0.00000000000E+00 0. -1.
         21   -1    0    0  501  503 -0.00000000000E+00 -0.00000000000E+00 -0.21086052175E+03  0.21086052175E+03  0.00000000000E+00 0. -1.
          6    1    1    2  501    0 -0.81085072855E+01  0.14775632704E+03  0.19943278082E-01  0.22765473961E+03  0.17300000000E+03 0. -1.
         -6    1    1    2    0  502  0.81085072855E+01 -0.14775632704E+03  0.36471437160E+02  0.23055768432E+03  0.17300000000E+03 0. -1.
</event>
<event>
 4    1  0.6164307E+000  0.1000000E+03  0.7546771E-02  0.1280296E+00
         21   -1    0    0  503  502  0.00000000000E+00  0.00000000000E+00  0.55780492747E+03  0.55780492747E+03  0.00000000000E+00 0. -1.
         21   -1    0    0  501  503 -0.00000000000E+00 -0.00000000000E+00 -0.75915564165E+02  0.75915564165E+02  0.00000000000E+00 0. -1.
          6    1    1    2  501    0 -0.71145973355E+02 -0.39842649501E+02  0.12400291883E+03  0.22793619748E+03  0.17300000000E+03 0. -1.
         -6    1    1    2    0  502  0.71145973355E+02  0.39842649501E+02  0.35788644447E+03  0.40578429415E+03  0.17300000000E+03 0. -1.
</event>
<event>
 4    1  0.6164307E+000  0.1000000E+03  0.7546771E-02  0.1280296E+00
         21   -1    0    0  503  502  0.00000000000E+00  0.00000000000E+00  0.45738775591E+03  0.45738775591E+03  0.00000000000E+00 0.  1.
         21   -1    0    0  501  503 -0.00000000000E+00 -0.00000000000E+00 -0.87785664391E+02  0.87785664391E+02  0.00000000000E+00 0. -1.
          6    1    1    2  501    0 -0.81046351440E+01  0.86712768614E+02  0.11492753073E+03  0.22521573362E+03  0.17300000000E+03 0. -1.
         -6    1    1    2    0  502  0.81046351440E+01 -0.86712768614E+02  0.25467456079E+03  0.31995768668E+03  0.17300000000E+03 0.  1.
</event>
<event>
 4    1  0.6164307E+000  0.1000000E+03  0.7546771E-02  0.1280296E+00
         21   -1    0    0  501  502  0.00000000000E+00  0.00000000000E+00  0.32247042918E+03  0.32247042918E+03  0.00000000000E+00 0.  1.
         21   -1    0    0  502  503 -0.00000000000E+00 -0.00000000000E+00 -0.10994649999E+03  0.10994649999E+03  0.00000000000E+00 0.  1.
          6    1    1    2  501    0  0.37458961034E+02  0.59572413052E+02  0.78765022757E+02  0.20269428943E+03  0.17300000000E+03 0.  1.
         -6    1    1    2    0  503 -0.37458961034E+02 -0.59572413052E+02  0.13375890643E+03  0.22972263974E+03  0.17300000000E+03 0.  1.
</event>
<event>
 4    1  0.6164307E+000  0.1000000E+03  0.7546771E-02  0.1280296E+00
         21   -1    0    0  501  502  0.00000000000E+00  0.00000000000E+00  0.48040864464E+02  0.48040864464E+02  0.00000000000E+00 0.  1.
         21   -1    0    0  502  503 -0.00000000000E+00 -0.00000000000E+00 -0.74839014505E+03  0.74839014505E+03  0.00000000000E+00 0.  1.
          6    1    1    2  501    0 -0.71578621993E+02 -0.70212942184E+01 -0.28889106833E+03  0.34432520538E+03  0.17300000000E+03 0.  1.
         -6    1    1    2    0  503  0.71578621993E+02  0.70212942184E+01 -0.41145821225E+03  0.45210580413E+03  0.17300000000E+03 0.  1.
</event>
<event>
 4    1  0.6164307E+000  0.1000000E+03  0.7546771E-02  0.1280296E+00
         21   -1    0    0  501  502  0.00000000000E+00  0.00000000000E+00  0.37800627386E+03  0.37800627386E+03  0.00000000000E+00 0.  1.
         21   -1    0    0  502  503 -0.00000000000E+00 -0.00000000000E+00 -0.16050434626E+03  0.16050434626E+03  0.00000000000E+00 0.  1.
          6    1    1    2  501    0  0.16817541623E+03 -0.49216687154E+02  0.11543577986E+03  0.27195527609E+03  0.17300000000E+03 0.  1.
         -6    1    1    2    0  503 -0.16817541623E+03  0.49216687154E+02  0.10206614773E+03  0.26655534403E+03  0.17300000000E+03 0.  1.
</event>
<event>
 4    1  0.6164307E+000  0.1000000E+03  0.7546771E-02  0.1280296E+00
         21   -1    0    0  501  502  0.00000000000E+00  0.00000000000E+00  0.80966480663E+02  0.80966480663E+02  0.00000000000E+00 0.  1.
         21   -1    0    0  502  503 -0.00000000000E+00 -0.00000000000E+00 -0.51856844602E+03  0.51856844602E+03  0.00000000000E+00 0.  1.
          6    1    1    2  501    0 -0.77470170638E+01 -0.10286477626E+03 -0.27386077785E+03  0.33995573846E+03  0.17300000000E+03 0.  1.
         -6    1    1    2    0  503  0.77470170638E+01  0.10286477626E+03 -0.16374118750E+03  0.25957918821E+03  0.17300000000E+03 0.  1.
</event>
<event>
 4    1  0.6164307E+000  0.1000000E+03  0.7546771E-02  0.1280296E+00
         21   -1    0    0  501  502  0.00000000000E+00  0.00000000000E+00  0.57363822998E+03  0.57363822998E+03  0.00000000000E+00 0.  1.
         21   -1    0    0  502  503 -0.00000000000E+00 -0.00000000000E+00 -0.78791743781E+02  0.78791743781E+02  0.00000000000E+00 0.  1.
          6    1    1    2  501    0  0.11810195609E+03 -0.18362201384E+02  0.29554915025E+03  0.36271689054E+03  0.17300000000E+03 0.  1.
         -6    1    1    2    0  503 -0.11810195609E+03  0.18362201384E+02  0.19929733595E+03  0.28971308322E+03  0.17300000000E+03 0.  1.
</event>
<event>
 4    1  0.6164307E+000  0.1000000E+03  0.7546771E-02  0.1280296E+00
         21   -1    0    0  503  502  0.00000000000E+00  0.00000000000E+00  0.12149627716E+03  0.12149627716E+03  0.00000000000E+00 0. -1.
         21   -1    0    0  501  503 -0.00000000000E+00 -0.00000000000E+00 -0.30529404373E+03  0.30529404373E+03  0.00000000000E+00 0.  1.
          6    1    1    2  501    0 -0.63627948896E+02  0.51017621697E+02 -0.11696481982E+03  0.22418983625E+03  0.17300000000E+03 0. -1.
         -6    1    1    2    0  502  0.63627948896E+02 -0.51017621697E+02 -0.66832946747E+02  0.20260048464E+03  0.17300000000E+03 0. -1.
</event>
<event>
 4    1  0.6164307E+000  0.1000000E+03  0.7546771E-02  0.1280296E+00
         21   -1    0    0  503  502  0.00000000000E+00  0.00000000000E+00  0.32523809505E+03  0.32523809505E+03  0.00000000000E+00 0.  1.
         21   -1    0    0  501  503 -0.00000000000E+00 -0.00000000000E+00 -0.56434975389E+03  0.56434975389E+03  0.00000000000E+00 0.  1.
          6    1    1    2  501    0 -0.25630447890E+03 -0.10424387785E+02 -0.42721983893E+03  0.52749070565E+03  0.17300000000E+03 0.  1.
         -6    1    1    2    0  502  0.25630447890E+03  0.10424387785E+02  0.18810818009E+03  0.36209714330E+03  0.17300000000E+03 0.  1.
</event>
<event>
 4    1  0.6164307E+000  0.1000000E+03  0.7546771E-02  0.1280296E+00
         21   -1    0    0  503  502  0.00000000000E+00  0.00000000000E+00  0.56111854072E+02  0.56111854072E+02  0.00000000000E+00 0.  1.
         21   -1    0    0  501  503 -0.00000000000E+00 -0.00000000000E+00 -0.66472625030E+03  0.66472625030E+03  0.00000000000E+00 0.  1.
          6    1    1    2  501    0  0.39443138051E+02 -0.22204295715E+02 -0.44044071066E+03  0.47535861357E+03  0.17300000000E+03 0.  1.
         -6    1    1    2    0  502 -0.39443138051E+02  0.22204295715E+02 -0.16817368557E+03  0.24547949080E+03  0.17300000000E+03 0.  1.
</event>
<event>
 4    1  0.6164307E+000  0.1000000E+03  0.7546771E-02  0.1280296E+00
         21   -1    0    0  503  502  0.00000000000E+00  0.00000000000E+00  0.26537774257E+04  0.26537774257E+04  0.00000000000E+00 0.  1.
         21   -1    0    0  501  503 -0.00000000000E+00 -0.00000000000E+00 -0.21212286825E+02  0.21212286825E+02  0.00000000000E+00 0.  1.
          6    1    1    2  501    0 -0.10046084066E+02  0.25482330941E+01  0.40283705528E+03  0.43853632735E+03  0.17300000000E+03 0.  1.
         -6    1    1    2    0  502  0.10046084066E+02 -0.25482330941E+01  0.22297280836E+04  0.22364533851E+04  0.17300000000E+03 0.  1.
</event>
<event>
 4    1  0.6164307E+000  0.1000000E+03  0.7546771E-02  0.1280296E+00
         21   -1    0    0  501  502  0.00000000000E+00  0.00000000000E+00  0.56254859559E+02  0.56254859559E+02  0.00000000000E+00 0.  1.
         21   -1    0    0  502  503 -0.00000000000E+00 -0.00000000000E+00 -0.66650251181E+03  0.66650251181E+03  0.00000000000E+00 0. -1.
          6    1    1    2  501    0  0.49186175535E+02 -0.47573452806E+02 -0.20492430040E+03  0.27677695383E+03  0.17300000000E+03 0.  1.
         -6    1    1    2    0  503 -0.49186175535E+02  0.47573452806E+02 -0.40532335185E+03  0.44598041754E+03  0.17300000000E+03 0. -1.
</event>
<event>
 4    1  0.6164307E+000  0.1000000E+03  0.7546771E-02  0.1280296E+00
         21   -1    0    0  501  502  0.00000000000E+00  0.00000000000E+00  0.97971834905E+03  0.97971834905E+03  0.00000000000E+00 0.  1.
         21   -1    0    0  502  503 -0.00000000000E+00 -0.00000000000E+00 -0.93253303541E+02  0.93253303541E+02  0.00000000000E+00 0. -1.
          6    1    1    2  501    0  0.20136797704E+03  0.33746085612E+02  0.19382742806E+03  0.33043294681E+03  0.17300000000E+03 0.  1.
         -6    1    1    2    0  503 -0.20136797704E+03 -0.33746085612E+02  0.69263761745E+03  0.74253870578E+03  0.17300000000E+03 0. -1.
</event>
<event>
 4    1  0.6164307E+000  0.1000000E+03  0.7546771E-02  0.1280296E+00
         21   -1    0    0  501  502  0.00000000000E+00  0.00000000000E+00  0.31514733540E+03  0.31514733540E+03  0.00000000000E+00 0.  1.
         21   -1    0    0  502  503 -0.00000000000E+00 -0.00000000000E+00 -0.22612773918E+03  0.22612773918E+03  0.00000000000E+00 0. -1.
          6    1    1    2  501    0 -0.15994526918E+03 -0.60403281743E+02  0.15604448167E+03  0.28898083991E+03  0.17300000000E+03 0.  1.
         -6    1    1    2    0  503  0.15994526918E+03  0.60403281743E+02 -0.67024885445E+02  0.25229423467E+03  0.17300000000E+03 0. -1.
</event>
<event>
 4    1  0.6164307E+000  0.1000000E+03  0.7546771E-02  0.1280296E+00
         21   -1    0    0  501  502  0.00000000000E+00  0.00000000000E+00  0.28413433230E+03  0.28413433230E+03  0.00000000000E+00 0.  1.
         21   -1    0    0  502  503 -0.00000000000E+00 -0.00000000000E+00 -0.28816023378E+03  0.28816023378E+03  0.00000000000E+00 0. -1.
          6    1    1    2  501    0  0.34284866689E+02  0.20356735121E+03  0.94592219367E+02  0.28546769787E+03  0.17300000000E+03 0.  1.
         -6    1    1    2    0  503 -0.34284866689E+02 -0.20356735121E+03 -0.98618120846E+02  0.28682686820E+03  0.17300000000E+03 0. -1.
</event>
<event>
 4    1  0.6164307E+000  0.1000000E+03  0.7546771E-02  0.1280296E+00
         21   -1    0    0  503  502  0.00000000000E+00  0.00000000000E+00  0.34753317392E+04  0.34753317392E+04  0.00000000000E+00 0. -1.
         21   -1    0    0  501  503 -0.00000000000E+00 -0.00000000000E+00 -0.25903790088E+02  0.25903790088E+02  0.00000000000E+00 0.  1.
          6    1    1    2  501    0 -0.18266627424E+03 -0.15789990457E+03  0.14774535662E+04  0.15070160543E+04  0.17300000000E+03 0. -1.
         -6    1    1    2    0  502  0.18266627424E+03  0.15789990457E+03  0.19719743829E+04  0.19942194750E+04  0.17300000000E+03 0.  1.
</event>
<event>
 4    1  0.6164307E+000  0.1000000E+03  0.7546771E-02  0.1280296E+00
         21   -1    0    0  503  502  0.00000000000E+00  0.00000000000E+00  0.33142565940E+03  0.33142565940E+03  0.00000000000E+00 0.  1.
         21   -1    0    0  501  503 -0.00000000000E+00 -0.00000000000E+00 -0.27551961848E+03  0.27551961848E+03  0.00000000000E+00 0. -1.
          6    1    1    2  501    0  0.79771453830E+02  0.10298670152E+03 -0.18369665939E+03  0.28397747835E+03  0.17300000000E+03 0.  1.
         -6    1    1    2    0  502 -0.79771453830E+02 -0.10298670152E+03  0.23960270031E+03  0.32296779953E+03  0.17300000000E+03 0.  1.
</event>
<event>
 4    1  0.6164307E+000  0.1000000E+03  0.7546771E-02  0.1280296E+00
         21   -1    0    0  503  502  0.00000000000E+00  0.00000000000E+00  0.51721191326E+03  0.51721191326E+03  0.00000000000E+00 0.  1.
         21   -1    0    0  501  503 -0.00000000000E+00 -0.00000000000E+00 -0.15251288234E+03  0.15251288234E+03  0.00000000000E+00 0. -1.
          6    1    1    2  501    0 -0.94113399189E+02  0.15738999040E+03  0.34759019226E+02  0.25449190636E+03  0.17300000000E+03 0.  1.
         -6    1    1    2    0  502  0.94113399189E+02 -0.15738999040E+03  0.32994001169E+03  0.41523288923E+03  0.17300000000E+03 0.  1.
</event>
<event>
 4    1  0.6164307E+000  0.1000000E+03  0.7546771E-02  0.1280296E+00
         21   -1    0    0  503  502  0.00000000000E+00  0.00000000000E+00  0.30976218471E+02  0.30976218471E+02  0.00000000000E+00 0.  1.
         21   -1    0    0  501  503 -0.00000000000E+00 -0.00000000000E+00 -0.18833193224E+04  0.18833193224E+04  0.00000000000E+00 0. -1.
          6    1    1    2  501    0 -0.12975112493E+03 -0.82304019079E+02 -0.65162588131E+03  0.69148723428E+03  0.17300000000E+03 0.  1.
         -6    1    1    2    0  502  0.12975112493E+03  0.82304019079E+02 -0.12007172227E+04  0.12228083066E+04  0.17300000000E+03 0.  1.
</event>
<event>
 4    1  0.6164307E+000  0.1000000E+03  0.7546771E-02  0.1280296E+00
         21   -1    0    0  501  502  0.00000000000E+00  0.00000000000E+00  0.83053875737E+02  0.83053875737E+02  0.00000000000E+00 0.  1.
         21   -1    0    0  502  503 -0.00000000000E+00 -0.00000000000E+00 -0.55680505235E+03  0.55680505235E+03  0.00000000000E+00 0.  1.
          6    1    1    2  501    0 -0.82526592697E+02 -0.94963580113E+02 -0.26971010951E+03  0.34424012437E+03  0.17300000000E+03 0.  1.
         -6    1    1    2    0  503  0.82526592697E+02  0.94963580113E+02 -0.20404106710E+03  0.29561880372E+03  0.17300000000E+03 0.  1.
</event>
<event>
 4    1  0.6164307E+000  0.1000000E+03  0.7546771E-02  0.1280296E+00
         21   -1    0    0  501  502  0.00000000000E+00  0.00000000000E+00  0.76166020103E+03  0.76166020103E+03  0.00000000000E+00 0.  1.
         21   -1    0    0  502  503 -0.00000000000E+00 -0.00000000000E+00 -0.57042059284E+02  0.57042059284E+02  0.00000000000E+00 0.  1.
          6    1    1    2  501    0  0.74640820893E+02  0.70588587301E+02  0.45922252472E+03  0.50136646079E+03  0.17300000000E+03 0.  1.
         -6    1    1    2    0  503 -0.74640820893E+02 -0.70588587301E+02  0.24539561703E+03  0.31733579952E+03  0.17300000000E+03 0.  1.
</event>
<event>
 4    1  0.6164307E+000  0.1000000E+03  0.7546771E-02  0.1280296E+00
         21   -1    0    0  503  502  0.00000000000E+00  0.00000000000E+00  0.60411739174E+03  0.60411739174E+03  0.00000000000E+00 0. -1.
         21   -1    0    0  501  503 -0.00000000000E+00 -0.00000000000E+00 -0.85908959143E+02  0.85908959143E+02  0.00000000000E+00 0. -1.
          6    1    1    2  501    0 -0.11693741065E+03 -0.87287158207E+02  0.21970833983E+03  0.31542694968E+03  0.17300000000E+03 0. -1.
         -6    1    1    2    0  502  0.11693741065E+03  0.87287158207E+02  0.29850009277E+03  0.37459940120E+03  0.17300000000E+03 0. -1.
</event>
<event>
 4    1  0.6164307E+000  0.1000000E+03  0.7546771E-02  0.1280296E+00
         21   -1    0    0  503  502  0.00000000000E+00  0.00000000000E+00  0.10302671738E+03  0.10302671738E+03  0.00000000000E+00 0. -1.
         21   -1    0    0  501  503 -0.00000000000E+00 -0.00000000000E+00 -0.41488326027E+03  0.41488326027E+03  0.00000000000E+00 0. -1.
          6    1    1    2  501    0  0.73805730412E+02 -0.16747475615E+01 -0.26341921605E+03  0.32368004882E+03  0.17300000000E+03 0. -1.
         -6    1    1    2    0  502 -0.73805730412E+02  0.16747475615E+01 -0.48437326844E+02  0.19422992883E+03  0.17300000000E+03 0. -1.
</event>
<event>
 4    1  0.6164307E+000  0.1000000E+03  0.7546771E-02  0.1280296E+00
         21   -1    0    0  503  502  0.00000000000E+00  0.00000000000E+00  0.73559946394E+03  0.73559946394E+03  0.00000000000E+00 0. -1.
         21   -1    0    0  501  503 -0.00000000000E+00 -0.00000000000E+00 -0.14058843373E+03  0.14058843373E+03  0.00000000000E+00 0. -1.
          6    1    1    2  501    0 -0.42297191340E+02 -0.28790374629E+02 -0.65156840012E+02  0.19181332557E+03  0.17300000000E+03 0. -1.
         -6    1    1    2    0  502  0.42297191340E+02  0.28790374629E+02  0.66016787022E+03  0.68437457210E+03  0.17300000000E+03 0. -1.
</event>
<event>
 4    1  0.6164307E+000  0.1000000E+03  0.7546771E-02  0.1280296E+00
         21   -1    0    0  503  502  0.00000000000E+00  0.00000000000E+00  0.54326074877E+02  0.54326074877E+02  0.00000000000E+00 0. -1.
         21   -1    0    0  501  503 -0.00000000000E+00 -0.00000000000E+00 -0.11569195433E+04  0.11569195433E+04  0.00000000000E+00 0. -1.
          6    1    1    2  501    0  0.34922280697E+02  0.89572381182E+02 -0.17956531899E+03  0.26723675073E+03  0.17300000000E+03 0. -1.
         -6    1    1    2    0  502 -0.34922280697E+02 -0.89572381182E+02 -0.92302814947E+03  0.94400886747E+03  0.17300000000E+03 0. -1.
</event>
<event>
 4    1  0.6164307E+000  0.1000000E+03  0.7546771E-02  0.1280296E+00
         21   -1    0    0  503  502  0.00000000000E+00  0.00000000000E+00  0.19165964396E+04  0.19165964396E+04  0.00000000000E+00 0. -1.
         21   -1    0    0  501  503 -0.00000000000E+00 -0.00000000000E+00 -0.72260409029E+02  0.72260409029E+02  0.00000000000E+00 0. -1.
          6    1    1    2  501    0  0.11988094303E+03  0.94797515699E+02  0.14216603524E+03  0.27110549803E+03  0.17300000000E+03 0. -1.
         -6    1    1    2    0  502 -0.11988094303E+03 -0.94797515699E+02  0.17021699953E+04  0.17177513506E+04  0.17300000000E+03 0. -1.
</event>
<event>
 4    1  0.6164307E+000  0.1000000E+03  0.7546771E-02  0.1280296E+00
         21   -1    0    0  503  502  0.00000000000E+00  0.00000000000E+00  0.79750616983E+03  0.79750616983E+03  0.00000000000E+00 0. -1.
         21   -1    0    0  501  503 -0.00000000000E+00 -0.00000000000E+00 -0.69078281901E+02  0.69078281901E+02  0.00000000000E+00 0. -1.
          6    1    1    2  501    0 -0.49992442792E+02  0.14956068317E+02  0.87685812895E+02  0.20085001892E+03  0.17300000000E+03 0. -1.
         -6    1    1    2    0  502  0.49992442792E+02 -0.14956068317E+02  0.64074207504E+03  0.66573443282E+03  0.17300000000E+03 0. -1.
</event>
<event>
 4    1  0.6164307E+000  0.1000000E+03  0.7546771E-02  0.1280296E+00
         21   -1    0    0  503  502  0.00000000000E+00  0.00000000000E+00  0.18826171651E+03  0.18826171651E+03  0.00000000000E+00 0. -1.
         21   -1    0    0  501  503 -0.00000000000E+00 -0.00000000000E+00 -0.27090065959E+03  0.27090065959E+03  0.00000000000E+00 0. -1.
          6    1    1    2  501    0  0.22374351123E+02 -0.16336998867E+02 -0.18617597731E+03  0.25565211450E+03  0.17300000000E+03 0. -1.
         -6    1    1    2    0  502 -0.22374351123E+02  0.16336998867E+02  0.10353703422E+03  0.20351026160E+03  0.17300000000E+03 0. -1.
</event>
<event>
 4    1  0.6164307E+000  0.1000000E+03  0.7546771E-02  0.1280296E+00
         21   -1    0    0  503  502  0.00000000000E+00  0.00000000000E+00  0.24019402685E+04  0.24019402685E+04  0.00000000000E+00 0. -1.
         21   -1    0    0  501  503 -0.00000000000E+00 -0.00000000000E+00 -0.36510278130E+02  0.36510278130E+02  0.00000000000E+00 0. -1.
          6    1    1    2  501    0 -0.10378450570E+03 -0.14070600239E+03  0.50373556180E+03  0.56057820057E+03  0.17300000000E+03 0. -1.
         -6    1    1    2    0  502  0.10378450570E+03  0.14070600239E+03  0.18616944285E+04  0.18778723460E+04  0.17300000000E+03 0. -1.
</event>
<event>
 4    1  0.6164307E+000  0.1000000E+03  0.7546771E-02  0.1280296E+00
         21   -1    0    0  503  502  0.00000000000E+00  0.00000000000E+00  0.25015921302E+03  0.25015921302E+03  0.00000000000E+00 0.  1.
         21   -1    0    0  501  503 -0.00000000000E+00 -0.00000000000E+00 -0.23247682445E+03  0.23247682445E+03  0.00000000000E+00 0.  1.
          6    1    1    2  501    0 -0.26040215861E+02  0.12758281864E+03 -0.97398634178E+02  0.23742569868E+03  0.17300000000E+03 0.  1.
         -6    1    1    2    0  502  0.26040215861E+02 -0.12758281864E+03  0.11508102274E+03  0.24521033879E+03  0.17300000000E+03 0.  1.
</event>
<event>
 4    1  0.6164307E+000  0.1000000E+03  0.7546771E-02  0.1280296E+00
         21   -1    0    0  503  502  0.00000000000E+00  0.00000000000E+00  0.26106044756E+03  0.26106044756E+03  0.00000000000E+00 0.  1.
         21   -1    0    0  501  503 -0.00000000000E+00 -0.00000000000E+00 -0.18108458312E+03  0.18108458312E+03  0.00000000000E+00 0.  1.
          6    1    1    2  501    0 -0.74390126377E+02 -0.10858805706E+03  0.35467552401E+02  0.22025486217E+03  0.17300000000E+03 0.  1.
         -6    1    1    2    0  502  0.74390126377E+02  0.10858805706E+03  0.44508312041E+02  0.22189016850E+03  0.17300000000E+03 0.  1.
</event>
<event>
 4    1  0.6164307E+000  0.1000000E+03  0.7546771E-02  0.1280296E+00
         21   -1    0    0  503  502  0.00000000000E+00  0.00000000000E+00  0.56906431633E+03  0.56906431633E+03  0.00000000000E+00 0. -1.
         21   -1    0    0  501  503 -0.00000000000E+00 -0.00000000000E+00 -0.32332777000E+03  0.32332777000E+03  0.00000000000E+00 0. -1.
          6    1    1    2  501    0  0.19744497628E+03 -0.43353498629E+02 -0.22711649950E+03  0.34982130988E+03  0.17300000000E+03 0. -1.
         -6    1    1    2    0  502 -0.19744497628E+03  0.43353498629E+02  0.47285304583E+03  0.54257077645E+03  0.17300000000E+03 0. -1.
</event>
<event>
 4    1  0.6164307E+000  0.1000000E+03  0.7546771E-02  0.1280296E+00
         21   -1    0    0  503  502  0.00000000000E+00  0.00000000000E+00  0.14228809486E+03  0.14228809486E+03  0.00000000000E+00 0. -1.
         21   -1    0    0  501  503 -0.00000000000E+00 -0.00000000000E+00 -0.36620408434E+03  0.36620408434E+03  0.00000000000E+00 0. -1.
          6    1    1    2  501    0  0.11665441263E+03  0.40913230290E+02 -0.20444615891E+03  0.29497351795E+03  0.17300000000E+03 0. -1.
         -6    1    1    2    0  502 -0.11665441263E+03 -0.40913230290E+02 -0.19469830563E+02  0.21351866125E+03  0.17300000000E+03 0. -1.
</event>
<event>
 4    1  0.6164307E+000  0.1000000E+03  0.7546771E-02  0.1280296E+00
         21   -1    0    0  503  502  0.00000000000E+00  0.00000000000E+00  0.62575818995E+03  0.62575818995E+03  0.00000000000E+00 0.  1.
         21   -1    0    0  501  503 -0.00000000000E+00 -0.00000000000E+00 -0.12873606639E+03  0.12873606639E+03  0.00000000000E+00 0.  1.
          6    1    1    2  501    0  0.19224391928E+03  0.11690013383E+03  0.24545631150E+03  0.37523481534E+03  0.17300000000E+03 0.  1.
         -6    1    1    2    0  502 -0.19224391928E+03 -0.11690013383E+03  0.25156581206E+03  0.37925944100E+03  0.17300000000E+03 0.  1.
</event>
<event>
 4    1  0.6164307E+000  0.1000000E+03  0.7546771E-02  0.1280296E+00
         21   -1    0    0  503  502  0.00000000000E+00  0.00000000000E+00  0.17452532547E+03  0.17452532547E+03  0.00000000000E+00 0.  1.
         21   -1    0    0  501  503 -0.00000000000E+00 -0.00000000000E+00 -0.34209408123E+03  0.34209408123E+03  0.00000000000E+00 0.  1.
          6    1    1    2  501    0 -0.42104162194E+02 -0.99791040193E+02 -0.22579013384E+03  0.30437016397E+03  0.17300000000E+03 0.  1.
         -6    1    1    2    0  502  0.42104162194E+02  0.99791040193E+02  0.58221378078E+02  0.21224924274E+03  0.17300000000E+03 0.  1.
</event>
<event>
 4    1  0.6164307E+000  0.1000000E+03  0.7546771E-02  0.1280296E+00
         21   -1    0    0  503  502  0.00000000000E+00  0.00000000000E+00  0.22187043651E+03  0.22187043651E+03  0.00000000000E+00 0.  1.
         21   -1    0    0  501  503 -0.00000000000E+00 -0.00000000000E+00 -0.72259092947E+03  0.72259092947E+03  0.00000000000E+00 0.  1.
          6    1    1    2  501    0  0.12791214757E+03 -0.25060855813E+03 -0.51729501200E+03  0.61375019051E+03  0.17300000000E+03 0.  1.
         -6    1    1    2    0  502 -0.12791214757E+03  0.25060855813E+03  0.16574519045E+02  0.33071117548E+03  0.17300000000E+03 0.  1.
</event>
<event>
 4    1  0.6164307E+000  0.1000000E+03  0.7546771E-02  0.1280296E+00
         21   -1    0    0  503  502  0.00000000000E+00  0.00000000000E+00  0.13093951533E+03  0.13093951533E+03  0.00000000000E+00 0.  1.
         21   -1    0    0  501  503 -0.00000000000E+00 -0.00000000000E+00 -0.10178116866E+04  0.10178116866E+04  0.00000000000E+00 0.  1.
          6    1    1    2  501    0  0.11225583155E+03 -0.19316364550E+03 -0.80711343337E+03  0.85514598753E+03  0.17300000000E+03 0.  1.
         -6    1    1    2    0  502 -0.11225583155E+03  0.19316364550E+03 -0.79758737918E+02  0.29360521442E+03  0.17300000000E+03 0.  1.
</event>
<event>
 4    1  0.6164307E+000  0.1000000E+03  0.7546771E-02  0.1280296E+00
         21   -1    0    0  503  502  0.00000000000E+00  0.00000000000E+00  0.31353275111E+03  0.31353275111E+03  0.00000000000E+00 0.  1.
         21   -1    0    0  501  503 -0.00000000000E+00 -0.00000000000E+00 -0.11558909454E+03  0.11558909454E+03  0.00000000000E+00 0.  1.
          6    1    1    2  501    0  0.52886676059E+02  0.29367352883E+02  0.40924735321E+02  0.18778518547E+03  0.17300000000E+03 0.  1.
         -6    1    1    2    0  502 -0.52886676059E+02 -0.29367352883E+02  0.15701892125E+03  0.24133666018E+03  0.17300000000E+03 0.  1.
</event>
<event>
 4    1  0.6164307E+000  0.1000000E+03  0.7546771E-02  0.1280296E+00
         21   -1    0    0  503  502  0.00000000000E+00  0.00000000000E+00  0.19986026881E+03  0.19986026881E+03  0.00000000000E+00 0.  1.
         21   -1    0    0  501  503 -0.00000000000E+00 -0.00000000000E+00 -0.18297760278E+03  0.18297760278E+03  0.00000000000E+00 0. -1.
          6    1    1    2  501    0  0.38624077305E+02  0.46154236681E+02 -0.46556869649E+02  0.18899358461E+03  0.17300000000E+03 0. -1.
         -6    1    1    2    0  502 -0.38624077305E+02 -0.46154236681E+02  0.63439535680E+02  0.19384428699E+03  0.17300000000E+03 0.  1.
</event>
<event>
 4    1  0.6164307E+000  0.1000000E+03  0.7546771E-02  0.1280296E+00
         21   -1    0    0  503  502  0.00000000000E+00  0.00000000000E+00  0.98207225919E+02  0.98207225919E+02  0.00000000000E+00 0.  1.
         21   -1    0    0  501  503 -0.00000000000E+00 -0.00000000000E+00 -0.21736129241E+04  0.21736129241E+04  0.00000000000E+00 0. -1.
          6    1    1    2  501    0  0.41578005593E+02  0.10250489922E+03 -0.20552608817E+04  0.20654932285E+04  0.17300000000E+03 0. -1.
         -6    1    1    2    0  502 -0.41578005593E+02 -0.10250489922E+03 -0.20144816423E+02  0.20632692151E+03  0.17300000000E+03 0.  1.
</event>
<event>
 4    1  0.6164307E+000  0.1000000E+03  0.7546771E-02  0.1280296E+00
         21   -1    0    0  503  502  0.00000000000E+00  0.00000000000E+00  0.21130923224E+03  0.21130923224E+03  0.00000000000E+00 0.  1.
         21   -1    0    0  501  503 -0.00000000000E+00 -0.00000000000E+00 -0.21875205806E+03  0.21875205806E+03  0.00000000000E+00 0. -1.
          6    1    1    2  501    0 -0.11261731914E+03  0.48038310873E+02  0.32408637430E+02  0.21440536295E+03  0.17300000000E+03 0. -1.
         -6    1    1    2    0  502  0.11261731914E+03 -0.48038310873E+02 -0.39851463252E+02  0.21565592736E+03  0.17300000000E+03 0.  1.
</event>
<event>
 4    1  0.6164307E+000  0.1000000E+03  0.7546771E-02  0.1280296E+00
         21   -1    0    0  503  502  0.00000000000E+00  0.00000000000E+00  0.41355481200E+03  0.41355481200E+03  0.00000000000E+00 0. -1.
         21   -1    0    0  501  503 -0.00000000000E+00 -0.00000000000E+00 -0.40125379092E+03  0.40125379092E+03  0.00000000000E+00 0.  1.
          6    1    1    2  501    0 -0.13161737375E+03 -0.17463156966E+03 -0.29085491480E+03  0.40292046319E+03  0.17300000000E+03 0. -1.
         -6    1    1    2    0  502  0.13161737375E+03  0.17463156966E+03  0.30315593588E+03  0.41188813973E+03  0.17300000000E+03 0.  1.
</event>
<event>
 4    1  0.6164307E+000  0.1000000E+03  0.7546771E-02  0.1280296E+00
         21   -1    0    0  503  502  0.00000000000E+00  0.00000000000E+00  0.18061405022E+04  0.18061405022E+04  0.00000000000E+00 0. -1.
         21   -1    0    0  501  503 -0.00000000000E+00 -0.00000000000E+00 -0.11532956207E+03  0.11532956207E+03  0.00000000000E+00 0.  1.
          6    1    1    2  501    0 -0.12078638203E+03  0.58295147477E+02  0.23832274821E+01  0.21891174951E+03  0.17300000000E+03 0. -1.
         -6    1    1    2    0  502  0.12078638203E+03 -0.58295147477E+02  0.16884277126E+04  0.17025583147E+04  0.17300000000E+03 0.  1.
</event>
<event>
 4    1  0.6164307E+000  0.1000000E+03  0.7546771E-02  0.1280296E+00
         21   -1    0    0  503  502  0.00000000000E+00  0.00000000000E+00  0.14217847333E+03  0.14217847333E+03  0.00000000000E+00 0. -1.
         21   -1    0    0  501  503 -0.00000000000E+00 -0.00000000000E+00 -0.21783174724E+03  0.21783174724E+03  0.00000000000E+00 0.  1.
          6    1    1    2  501    0 -0.24513445464E+02  0.48482816483E+01 -0.58727883492E+02  0.18439734039E+03  0.17300000000E+03 0. -1.
         -6    1    1    2    0  502  0.24513445464E+02 -0.48482816483E+01 -0.16925390418E+02  0.17561288018E+03  0.17300000000E+03 0.  1.
</event>
<event>
 4    1  0.6164307E+000  0.1000000E+03  0.7546771E-02  0.1280296E+00
         21   -1    0    0  503  502  0.00000000000E+00  0.00000000000E+00  0.12884952338E+04  0.12884952338E+04  0.00000000000E+00 0. -1.
         21   -1    0    0  501  503 -0.00000000000E+00 -0.00000000000E+00 -0.35133443900E+02  0.35133443900E+02  0.00000000000E+00 0.  1.
          6    1    1    2  501    0  0.74112312256E+01 -0.12072958118E+03  0.54381478087E+03  0.58334730137E+03  0.17300000000E+03 0. -1.
         -6    1    1    2    0  502 -0.74112312256E+01  0.12072958118E+03  0.70954700902E+03  0.74028137632E+03  0.17300000000E+03 0.  1.
</event>
<event>
 4    1  0.6164307E+000  0.1000000E+03  0.7546771E-02  0.1280296E+00
         21   -1    0    0  503  502  0.00000000000E+00  0.00000000000E+00  0.20751957149E+03  0.20751957149E+03  0.00000000000E+00 0. -1.
         21   -1    0    0  501  503 -0.00000000000E+00 -0.00000000000E+00 -0.28244922397E+03  0.28244922397E+03  0.00000000000E+00 0. -1.
          6    1    1    2  501    0  0.15425881060E+03  0.51704815984E+02  0.10165303268E+02  0.23770044601E+03  0.17300000000E+03 0. -1.
         -6    1    1    2    0  502 -0.15425881060E+03 -0.51704815984E+02 -0.85094955749E+02  0.25226834946E+03  0.17300000000E+03 0. -1.
</event>
<event>
 4    1  0.6164307E+000  0.1000000E+03  0.7546771E-02  0.1280296E+00
         21   -1    0    0  501  502  0.00000000000E+00  0.00000000000E+00  0.30761195939E+02  0.30761195939E+02  0.00000000000E+00 0. -1.
         21   -1    0    0  502  503 -0.00000000000E+00 -0.00000000000E+00 -0.20073425697E+04  0.20073425697E+04  0.00000000000E+00 0. -1.
          6    1    1    2  501    0 -0.11111512811E+03 -0.13840101646E+03 -0.10614031924E+04  0.10899574074E+04  0.17300000000E+03 0. -1.
         -6    1    1    2    0  503  0.11111512811E+03  0.13840101646E+03 -0.91517818131E+03  0.94814635822E+03  0.17300000000E+03 0. -1.
</event>
<event>
 4    1  0.6164307E+000  0.1000000E+03  0.7546771E-02  0.1280296E+00
         21   -1    0    0  501  502  0.00000000000E+00  0.00000000000E+00  0.50235273530E+03  0.50235273530E+03  0.00000000000E+00 0. -1.
         21   -1    0    0  502  503 -0.00000000000E+00 -0.00000000000E+00 -0.89026605747E+02  0.89026605747E+02  0.00000000000E+00 0. -1.
          6    1    1    2  501    0  0.35025348567E+02 -0.47524143973E+02  0.35535013410E+03  0.39960985612E+03  0.17300000000E+03 0. -1.
         -6    1    1    2    0  503 -0.35025348567E+02  0.47524143973E+02  0.57975995460E+02  0.19176948493E+03  0.17300000000E+03 0. -1.
</event>
<event>
 4    1  0.6164307E+000  0.1000000E+03  0.7546771E-02  0.1280296E+00
         21   -1    0    0  501  502  0.00000000000E+00  0.00000000000E+00  0.66397465334E+03  0.66397465334E+03  0.00000000000E+00 0. -1.
         21   -1    0    0  502  503 -0.00000000000E+00 -0.00000000000E+00 -0.53182119320E+02  0.53182119320E+02  0.00000000000E+00 0. -1.
          6    1    1    2  501    0  0.71858899097E+02  0.14781206778E+02  0.30659371314E+03  0.35959823469E+03  0.17300000000E+03 0. -1.
         -6    1    1    2    0  503 -0.71858899097E+02 -0.14781206778E+02  0.30419882088E+03  0.35755853797E+03  0.17300000000E+03 0. -1.
</event>
<event>
 4    1  0.6164307E+000  0.1000000E+03  0.7546771E-02  0.1280296E+00
         21   -1    0    0  501  502  0.00000000000E+00  0.00000000000E+00  0.15293366882E+03  0.15293366882E+03  0.00000000000E+00 0.  1.
         21   -1    0    0  502  503 -0.00000000000E+00 -0.00000000000E+00 -0.68353802002E+03  0.68353802002E+03  0.00000000000E+00 0.  1.
          6    1    1    2  501    0  0.63362243620E+02  0.25063616374E+02  0.76855062627E+02  0.20119308993E+03  0.17300000000E+03 0.  1.
         -6    1    1    2    0  503 -0.63362243620E+02 -0.25063616374E+02 -0.60745941383E+03  0.63527859891E+03  0.17300000000E+03 0.  1.
</event>
<event>
 4    1  0.6164307E+000  0.1000000E+03  0.7546771E-02  0.1280296E+00
         21   -1    0    0  503  502  0.00000000000E+00  0.00000000000E+00  0.22985650062E+03  0.22985650062E+03  0.00000000000E+00 0. -1.
         21   -1    0    0  501  503 -0.00000000000E+00 -0.00000000000E+00 -0.44066125170E+03  0.44066125170E+03  0.00000000000E+00 0. -1.
          6    1    1    2  501    0 -0.76595302498E+02 -0.52935924066E+02 -0.36915777958E+03  0.41818120312E+03  0.17300000000E+03 0. -1.
         -6    1    1    2    0  502  0.76595302498E+02  0.52935924066E+02  0.15835302850E+03  0.25233654919E+03  0.17300000000E+03 0. -1.
</event>
<event>
 4    1  0.6164307E+000  0.1000000E+03  0.7546771E-02  0.1280296E+00
         21   -1    0    0  503  502  0.00000000000E+00  0.00000000000E+00  0.19523284614E+03  0.19523284614E+03  0.00000000000E+00 0. -1.
         21   -1    0    0  501  503 -0.00000000000E+00 -0.00000000000E+00 -0.37055335245E+03  0.37055335245E+03  0.00000000000E+00 0.  1.
          6    1    1    2  501    0  0.13750964788E+03  0.93338035930E+02 -0.21558885450E+03  0.32253441119E+03  0.17300000000E+03 0.  1.
         -6    1    1    2    0  502 -0.13750964788E+03 -0.93338035930E+02  0.40268348194E+02  0.24325178741E+03  0.17300000000E+03 0. -1.
</event>
<event>
 4    1  0.6164307E+000  0.1000000E+03  0.7546771E-02  0.1280296E+00
         21   -1    0    0  501  502  0.00000000000E+00  0.00000000000E+00  0.12452691980E+03  0.12452691980E+03  0.00000000000E+00 0.  1.
         21   -1    0    0  502  503 -0.00000000000E+00 -0.00000000000E+00 -0.43979571473E+03  0.43979571473E+03  0.00000000000E+00 0.  1.
          6    1    1    2  501    0  0.10781140343E+03  0.80533747786E+02 -0.58734240613E+02  0.22690899996E+03  0.17300000000E+03 0.  1.
         -6    1    1    2    0  503 -0.10781140343E+03 -0.80533747786E+02 -0.25653455431E+03  0.33741363458E+03  0.17300000000E+03 0.  1.
</event>
<event>
 4    1  0.6164307E+000  0.1000000E+03  0.7546771E-02  0.1280296E+00
         21   -1    0    0  503  502  0.00000000000E+00  0.00000000000E+00  0.84623349107E+02  0.84623349107E+02  0.00000000000E+00 0.  1.
         21   -1    0    0  501  503 -0.00000000000E+00 -0.00000000000E+00 -0.47884676307E+03  0.47884676307E+03  0.00000000000E+00 0. -1.
          6    1    1    2  501    0  0.55171264241E+02 -0.15078806452E+02 -0.31686678047E+03  0.36551989736E+03  0.17300000000E+03 0. -1.
         -6    1    1    2    0  502 -0.55171264241E+02  0.15078806452E+02 -0.77356633501E+02  0.19795021482E+03  0.17300000000E+03 0.  1.
</event>
<event>
 4    1  0.6164307E+000  0.1000000E+03  0.7546771E-02  0.1280296E+00
         21   -1    0    0  503  502  0.00000000000E+00  0.00000000000E+00  0.12033940747E+03  0.12033940747E+03  0.00000000000E+00 0.  1.
         21   -1    0    0  501  503 -0.00000000000E+00 -0.00000000000E+00 -0.33603882528E+03  0.33603882528E+03  0.00000000000E+00 0. -1.
          6    1    1    2  501    0  0.80877468750E+01 -0.97369829448E+02 -0.14307086384E+03  0.24483579684E+03  0.17300000000E+03 0. -1.
         -6    1    1    2    0  502 -0.80877468750E+01  0.97369829448E+02 -0.72628553975E+02  0.21154243591E+03  0.17300000000E+03 0.  1.
</event>
<event>
 4    1  0.6164307E+000  0.1000000E+03  0.7546771E-02  0.1280296E+00
         21   -1    0    0  503  502  0.00000000000E+00  0.00000000000E+00  0.99129943174E+02  0.99129943174E+02  0.00000000000E+00 0.  1.
         21   -1    0    0  501  503 -0.00000000000E+00 -0.00000000000E+00 -0.79175325775E+03  0.79175325775E+03  0.00000000000E+00 0. -1.
          6    1    1    2  501    0 -0.13272936438E+03  0.36876435577E+02 -0.61977314338E+03  0.65804612674E+03  0.17300000000E+03 0. -1.
         -6    1    1    2    0  502  0.13272936438E+03 -0.36876435577E+02 -0.72850171194E+02  0.23283707418E+03  0.17300000000E+03 0.  1.
</event>
<event>
 4    1  0.6164307E+000  0.1000000E+03  0.7546771E-02  0.1280296E+00
         21   -1    0    0  503  502  0.00000000000E+00  0.00000000000E+00  0.27466327578E+03  0.27466327578E+03  0.00000000000E+00 0. -1.
         21   -1    0    0  501  503 -0.00000000000E+00 -0.00000000000E+00 -0.11728916383E+03  0.11728916383E+03  0.00000000000E+00 0.  1.
          6    1    1    2  501    0  0.77198356903E+01 -0.96469918225E+01  0.28254987499E+02  0.17572707427E+03  0.17300000000E+03 0.  1.
         -6    1    1    2    0  502 -0.77198356903E+01  0.96469918225E+01  0.12911912446E+03  0.21622536534E+03  0.17300000000E+03 0. -1.
</event>
<event>
 4    1  0.6164307E+000  0.1000000E+03  0.7546771E-02  0.1280296E+00
         21   -1    0    0  503  502  0.00000000000E+00  0.00000000000E+00  0.23937284602E+03  0.23937284602E+03  0.00000000000E+00 0. -1.
         21   -1    0    0  501  503 -0.00000000000E+00 -0.00000000000E+00 -0.21618203005E+03  0.21618203005E+03  0.00000000000E+00 0.  1.
          6    1    1    2  501    0 -0.10789822724E+03  0.99932983845E+02  0.25414742190E+02  0.22848093536E+03  0.17300000000E+03 0.  1.
         -6    1    1    2    0  502  0.10789822724E+03 -0.99932983845E+02 -0.22239262227E+01  0.22707394071E+03  0.17300000000E+03 0. -1.
</event>
<event>
 4    1  0.6164307E+000  0.1000000E+03  0.7546771E-02  0.1280296E+00
         21   -1    0    0  503  502  0.00000000000E+00  0.00000000000E+00  0.67729895624E+02  0.67729895624E+02  0.00000000000E+00 0. -1.
         21   -1    0    0  501  503 -0.00000000000E+00 -0.00000000000E+00 -0.15282049734E+04  0.15282049734E+04  0.00000000000E+00 0.  1.
          6    1    1    2  501    0 -0.10596420451E+03 -0.87013907906E+02 -0.13107354057E+04  0.13291937920E+04  0.17300000000E+03 0.  1.
         -6    1    1    2    0  502  0.10596420451E+03  0.87013907906E+02 -0.14973967209E+03  0.26674107708E+03  0.17300000000E+03 0. -1.
</event>
<event>
 4    1  0.6164307E+000  0.1000000E+03  0.7546771E-02  0.1280296E+00
         21   -1    0    0  501  502  0.00000000000E+00  0.00000000000E+00  0.39555314893E+03  0.39555314893E+03  0.00000000000E+00 0. -1.
         21   -1    0    0  502  503 -0.00000000000E+00 -0.00000000000E+00 -0.10384870625E+03  0.10384870625E+03  0.00000000000E+00 0. -1.
          6    1    1    2  501    0  0.30287637654E+02  0.10082611280E+03  0.13588605654E+03  0.24387961452E+03  0.17300000000E+03 0. -1.
         -6    1    1    2    0  503 -0.30287637654E+02 -0.10082611280E+03  0.15581838614E+03  0.25552224067E+03  0.17300000000E+03 0. -1.
</event>
<event>
 4    1  0.6164307E+000  0.1000000E+03  0.7546771E-02  0.1280296E+00
         21   -1    0    0  501  502  0.00000000000E+00  0.00000000000E+00  0.13957926536E+04  0.13957926536E+04  0.00000000000E+00 0. -1.
         21   -1    0    0  502  503 -0.00000000000E+00 -0.00000000000E+00 -0.69616362460E+02  0.69616362460E+02  0.00000000000E+00 0. -1.
          6    1    1    2  501    0 -0.15409185732E+03  0.74458170038E+02  0.11210022434E+04  0.11471108705E+04  0.17300000000E+03 0. -1.
         -6    1    1    2    0  503  0.15409185732E+03 -0.74458170038E+02  0.20517404772E+03  0.31829814551E+03  0.17300000000E+03 0. -1.
</event>
<event>
 4    1  0.6164307E+000  0.1000000E+03  0.7546771E-02  0.1280296E+00
         21   -1    0    0  501  502  0.00000000000E+00  0.00000000000E+00  0.26475702064E+03  0.26475702064E+03  0.00000000000E+00 0. -1.
         21   -1    0    0  502  503 -0.00000000000E+00 -0.00000000000E+00 -0.38173666015E+03  0.38173666015E+03  0.00000000000E+00 0.  1.
          6    1    1    2  501    0  0.11984901542E+02 -0.24685552810E+03  0.43478798065E+02  0.30479615401E+03  0.17300000000E+03 0. -1.
         -6    1    1    2    0  503 -0.11984901542E+02  0.24685552810E+03 -0.16045843757E+03  0.34169752678E+03  0.17300000000E+03 0. -1.
</event>
<event>
 4    1  0.6164307E+000  0.1000000E+03  0.7546771E-02  0.1280296E+00
         21   -1    0    0  501  502  0.00000000000E+00  0.00000000000E+00  0.55252733736E+02  0.55252733736E+02  0.00000000000E+00 0. -1.
         21   -1    0    0  502  503 -0.00000000000E+00 -0.00000000000E+00 -0.11555430167E+04  0.11555430167E+04  0.00000000000E+00 0.  1.
          6    1    1    2  501    0  0.57966585543E+02  0.90609064081E+02 -0.19197599486E+03  0.27991768457E+03  0.17300000000E+03 0. -1.
         -6    1    1    2    0  503 -0.57966585543E+02 -0.90609064081E+02 -0.90831428806E+03  0.93087806582E+03  0.17300000000E+03 0. -1.
</event>
<event>
 4    1  0.6164307E+000  0.1000000E+03  0.7546771E-02  0.1280296E+00
         21   -1    0    0  501  502  0.00000000000E+00  0.00000000000E+00  0.17556269281E+03  0.17556269281E+03  0.00000000000E+00 0.  1.
         21   -1    0    0  502  503 -0.00000000000E+00 -0.00000000000E+00 -0.39859273932E+03  0.39859273932E+03  0.00000000000E+00 0.  1.
          6    1    1    2  501    0  0.79653311396E+02 -0.87321507532E+02  0.63738515827E+02  0.21900067145E+03  0.17300000000E+03 0.  1.
         -6    1    1    2    0  503 -0.79653311396E+02  0.87321507532E+02 -0.28676856233E+03  0.35515476068E+03  0.17300000000E+03 0.  1.
</event>
<event>
 4    1  0.6164307E+000  0.1000000E+03  0.7546771E-02  0.1280296E+00
         21   -1    0    0  501  502  0.00000000000E+00  0.00000000000E+00  0.29938432372E+03  0.29938432372E+03  0.00000000000E+00 0.  1.
         21   -1    0    0  502  503 -0.00000000000E+00 -0.00000000000E+00 -0.18207456163E+03  0.18207456163E+03  0.00000000000E+00 0.  1.
          6    1    1    2  501    0  0.10840696221E+03 -0.97463503834E+02 -0.84504574634E+00  0.22623200069E+03  0.17300000000E+03 0.  1.
         -6    1    1    2    0  503 -0.10840696221E+03  0.97463503834E+02  0.11815480784E+03  0.25522688465E+03  0.17300000000E+03 0.  1.
</event>
<event>
 4    1  0.6164307E+000  0.1000000E+03  0.7546771E-02  0.1280296E+00
         21   -1    0    0  501  502  0.00000000000E+00  0.00000000000E+00  0.20156312794E+04  0.20156312794E+04  0.00000000000E+00 0.  1.
         21   -1    0    0  502  503 -0.00000000000E+00 -0.00000000000E+00 -0.21525460038E+02  0.21525460038E+02  0.00000000000E+00 0.  1.
          6    1    1    2  501    0 -0.84708965637E+02 -0.77767729956E+02  0.10720097693E+04  0.10919511776E+04  0.17300000000E+03 0.  1.
         -6    1    1    2    0  503  0.84708965637E+02  0.77767729956E+02  0.92209605003E+03  0.94520556185E+03  0.17300000000E+03 0.  1.
</event>
<event>
 4    1  0.6164307E+000  0.1000000E+03  0.7546771E-02  0.1280296E+00
         21   -1    0    0  503  502  0.00000000000E+00  0.00000000000E+00  0.22388749627E+03  0.22388749627E+03  0.00000000000E+00 0.  1.
         21   -1    0    0  501  503 -0.00000000000E+00 -0.00000000000E+00 -0.31022958797E+03  0.31022958797E+03  0.00000000000E+00 0. -1.
          6    1    1    2  501    0 -0.17704636731E+03  0.17848869476E+02 -0.13302943899E+03  0.28158449879E+03  0.17300000000E+03 0.  1.
         -6    1    1    2    0  502  0.17704636731E+03 -0.17848869476E+02  0.46687347292E+02  0.25253258545E+03  0.17300000000E+03 0. -1.
</event>
<event>
 4    1  0.6164307E+000  0.1000000E+03  0.7546771E-02  0.1280296E+00
         21   -1    0    0  503  502  0.00000000000E+00  0.00000000000E+00  0.16398383241E+04  0.16398383241E+04  0.00000000000E+00 0.  1.
         21   -1    0    0  501  503 -0.00000000000E+00 -0.00000000000E+00 -0.29384432935E+02  0.29384432935E+02  0.00000000000E+00 0. -1.
          6    1    1    2  501    0 -0.94227758762E+02  0.34870522271E+02  0.46173177058E+03  0.50320974932E+03  0.17300000000E+03 0.  1.
         -6    1    1    2    0  502  0.94227758762E+02 -0.34870522271E+02  0.11487221206E+04  0.11660130077E+04  0.17300000000E+03 0. -1.
</event>
<event>
 4    1  0.6164307E+000  0.1000000E+03  0.7546771E-02  0.1280296E+00
         21   -1    0    0  503  502  0.00000000000E+00  0.00000000000E+00  0.95767056839E+03  0.95767056839E+03  0.00000000000E+00 0.  1.
         21   -1    0    0  501  503 -0.00000000000E+00 -0.00000000000E+00 -0.37285454519E+02  0.37285454519E+02  0.00000000000E+00 0. -1.
          6    1    1    2  501    0  0.25052430835E+02  0.63240115374E+02  0.37086609060E+03  0.41484646996E+03  0.17300000000E+03 0.  1.
         -6    1    1    2    0  502 -0.25052430835E+02 -0.63240115374E+02  0.54951902328E+03  0.58010955295E+03  0.17300000000E+03 0. -1.
</event>
<event>
 4    1  0.6164307E+000  0.1000000E+03  0.7546771E-02  0.1280296E+00
         21   -1    0    0  503  502  0.00000000000E+00  0.00000000000E+00  0.21756422638E+03  0.21756422638E+03  0.00000000000E+00 0.  1.
         21   -1    0    0  501  503 -0.00000000000E+00 -0.00000000000E+00 -0.16432174470E+04  0.16432174470E+04  0.00000000000E+00 0. -1.
          6    1    1    2  501    0  0.15995342093E+03  0.71769296705E+02 -0.15606114949E+04  0.15799282158E+04  0.17300000000E+03 0. -1.
         -6    1    1    2    0  502 -0.15995342093E+03 -0.71769296705E+02  0.13495827436E+03  0.28085345758E+03  0.17300000000E+03 0.  1.
</event>
<event>
 4    1  0.6164307E+000  0.1000000E+03  0.7546771E-02  0.1280296E+00
         21   -1    0    0  503  502  0.00000000000E+00  0.00000000000E+00  0.12878238715E+04  0.12878238715E+04  0.00000000000E+00 0.  1.
         21   -1    0    0  501  503 -0.00000000000E+00 -0.00000000000E+00 -0.36192092181E+02  0.36192092181E+02  0.00000000000E+00 0. -1.
          6    1    1    2  501    0  0.35367906700E+02  0.10040226737E+02  0.24617255187E+03  0.30311981174E+03  0.17300000000E+03 0. -1.
         -6    1    1    2    0  502 -0.35367906700E+02 -0.10040226737E+02  0.10054592275E+04  0.10208961520E+04  0.17300000000E+03 0.  1.
</event>
<event>
 4    1  0.6164307E+000  0.1000000E+03  0.7546771E-02  0.1280296E+00
         21   -1    0    0  503  502  0.00000000000E+00  0.00000000000E+00  0.13825211794E+03  0.13825211794E+03  0.00000000000E+00 0.  1.
         21   -1    0    0  501  503 -0.00000000000E+00 -0.00000000000E+00 -0.72165140606E+03  0.72165140606E+03  0.00000000000E+00 0. -1.
          6    1    1    2  501    0 -0.34761199978E+02  0.15830089193E+03 -0.57583837777E+03  0.62272493986E+03  0.17300000000E+03 0. -1.
         -6    1    1    2    0  502  0.34761199978E+02 -0.15830089193E+03 -0.75609103549E+01  0.23717858414E+03  0.17300000000E+03 0.  1.
</event>
<event>
 4    1  0.6164307E+000  0.1000000E+03  0.7546771E-02  0.1280296E+00
         21   -1    0    0  501  502  0.00000000000E+00  0.00000000000E+00  0.23621984222E+03  0.23621984222E+03  0.00000000000E+00 0. -1.
         21   -1    0    0  502  503 -0.00000000000E+00 -0.00000000000E+00 -0.19188513342E+03  0.19188513342E+03  0.00000000000E+00 0. -1.
          6    1    1    2  501    0  0.28265260676E+02 -0.92526597937E+02  0.10029185437E+03  0.22214308979E+03  0.17300000000E+03 0. -1.
         -6    1    1    2    0  503 -0.28265260676E+02  0.92526597937E+02 -0.55957145572E+02  0.20596188586E+03  0.17300000000E+03 0. -1.
</event>
<event>
 4    1  0.6164307E+000  0.1000000E+03  0.7546771E-02  0.1280296E+00
         21   -1    0    0  501  502  0.00000000000E+00  0.00000000000E+00  0.77228066005E+03  0.77228066005E+03  0.00000000000E+00 0. -1.
         21   -1    0    0  502  503 -0.00000000000E+00 -0.00000000000E+00 -0.14280305803E+03  0.14280305803E+03  0.00000000000E+00 0. -1.
          6    1    1    2  501    0 -0.26175296795E+03 -0.10092512533E+03  0.25869681769E+03  0.41899109852E+03  0.17300000000E+03 0. -1.
         -6    1    1    2    0  503  0.26175296795E+03  0.10092512533E+03  0.37078078433E+03  0.49609261956E+03  0.17300000000E+03 0. -1.
</event>
<event>
 4    1  0.6164307E+000  0.1000000E+03  0.7546771E-02  0.1280296E+00
         21   -1    0    0  501  502  0.00000000000E+00  0.00000000000E+00  0.10188968719E+03  0.10188968719E+03  0.00000000000E+00 0.  1.
         21   -1    0    0  502  503 -0.00000000000E+00 -0.00000000000E+00 -0.10846183401E+04  0.10846183401E+04  0.00000000000E+00 0. -1.
          6    1    1    2  501    0 -0.15959505506E+03 -0.18971335118E+03 -0.24459632971E+03  0.38886771751E+03  0.17300000000E+03 0.  1.
         -6    1    1    2    0  503  0.15959505506E+03  0.18971335118E+03 -0.73813232325E+03  0.79764030981E+03  0.17300000000E+03 0.  1.
</event>
<event>
 4    1  0.6164307E+000  0.1000000E+03  0.7546771E-02  0.1280296E+00
         21   -1    0    0  501  502  0.00000000000E+00  0.00000000000E+00  0.44911399368E+03  0.44911399368E+03  0.00000000000E+00 0.  1.
         21   -1    0    0  502  503 -0.00000000000E+00 -0.00000000000E+00 -0.17241948466E+03  0.17241948466E+03  0.00000000000E+00 0. -1.
          6    1    1    2  501    0  0.20540482418E+02 -0.29302775747E+02  0.37845617034E+03  0.41765851715E+03  0.17300000000E+03 0.  1.
         -6    1    1    2    0  503 -0.20540482418E+02  0.29302775747E+02 -0.10176166131E+03  0.20387496118E+03  0.17300000000E+03 0.  1.
</event>
<event>
 4    1  0.6164307E+000  0.1000000E+03  0.7546771E-02  0.1280296E+00
         21   -1    0    0  501  502  0.00000000000E+00  0.00000000000E+00  0.23589739767E+03  0.23589739767E+03  0.00000000000E+00 0. -1.
         21   -1    0    0  502  503 -0.00000000000E+00 -0.00000000000E+00 -0.14151302381E+03  0.14151302381E+03  0.00000000000E+00 0.  1.
          6    1    1    2  501    0 -0.38579978802E+02 -0.44145842868E+02  0.51359946112E+02  0.18974750136E+03  0.17300000000E+03 0. -1.
         -6    1    1    2    0  503  0.38579978802E+02  0.44145842868E+02  0.43024427753E+02  0.18766292013E+03  0.17300000000E+03 0.  1.
</event>
<event>
 4    1  0.6164307E+000  0.1000000E+03  0.7546771E-02  0.1280296E+00
         21   -1    0    0  501  502  0.00000000000E+00  0.00000000000E+00  0.75767165469E+02  0.75767165469E+02  0.00000000000E+00 0. -1.
         21   -1    0    0  502  503 -0.00000000000E+00 -0.00000000000E+00 -0.56739363581E+03  0.56739363581E+03  0.00000000000E+00 0.  1.
          6    1    1    2  501    0 -0.57301109821E+02  0.70990918927E+02 -0.13905787961E+03  0.23997754403E+03  0.17300000000E+03 0. -1.
         -6    1    1    2    0  503  0.57301109821E+02 -0.70990918927E+02 -0.35256859073E+03  0.40318325725E+03  0.17300000000E+03 0.  1.
</event>
<event>
 4    1  0.6164307E+000  0.1000000E+03  0.7546771E-02  0.1280296E+00
         21   -1    0    0  501  502  0.00000000000E+00  0.00000000000E+00  0.18576716933E+03  0.18576716933E+03  0.00000000000E+00 0. -1.
         21   -1    0    0  502  503 -0.00000000000E+00 -0.00000000000E+00 -0.30942773389E+03  0.30942773389E+03  0.00000000000E+00 0.  1.
          6    1    1    2  501    0  0.37889699103E+02  0.13915185023E+03  0.23039143833E+02  0.22640377397E+03  0.17300000000E+03 0. -1.
         -6    1    1    2    0  503 -0.37889699103E+02 -0.13915185023E+03 -0.14669970839E+03  0.26879112925E+03  0.17300000000E+03 0.  1.
</event>
<event>
 4    1  0.6164307E+000  0.1000000E+03  0.7546771E-02  0.1280296E+00
         21   -1    0    0  501  502  0.00000000000E+00  0.00000000000E+00  0.10981286831E+03  0.10981286831E+03  0.00000000000E+00 0.  1.
         21   -1    0    0  502  503 -0.00000000000E+00 -0.00000000000E+00 -0.43739352604E+03  0.43739352604E+03  0.00000000000E+00 0. -1.
          6    1    1    2  501    0  0.98609460224E+02  0.53575331611E+00 -0.49519079322E+02  0.20519564297E+03  0.17300000000E+03 0. -1.
         -6    1    1    2    0  503 -0.98609460224E+02 -0.53575331611E+00 -0.27806157841E+03  0.34201075139E+03  0.17300000000E+03 0.  1.
</event>
<event>
 4    1  0.6164307E+000  0.1000000E+03  0.7546771E-02  0.1280296E+00
         21   -1    0    0  501  502  0.00000000000E+00  0.00000000000E+00  0.15602176701E+03  0.15602176701E+03  0.00000000000E+00 0.  1.
         21   -1    0    0  502  503 -0.00000000000E+00 -0.00000000000E+00 -0.22748728452E+03  0.22748728452E+03  0.00000000000E+00 0. -1.
          6    1    1    2  501    0  0.15467400291E+01  0.21419821043E+02  0.36974426377E+02  0.17820580615E+03  0.17300000000E+03 0. -1.
         -6    1    1    2    0  503 -0.15467400291E+01 -0.21419821043E+02 -0.10843994388E+03  0.20530324539E+03  0.17300000000E+03 0.  1.
</event>
<event>
 4    1  0.6164307E+000  0.1000000E+03  0.7546771E-02  0.1280296E+00
         21   -1    0    0  501  502  0.00000000000E+00  0.00000000000E+00  0.20516530686E+03  0.20516530686E+03  0.00000000000E+00 0.  1.
         21   -1    0    0  502  503 -0.00000000000E+00 -0.00000000000E+00 -0.19331291176E+03  0.19331291176E+03  0.00000000000E+00 0. -1.
          6    1    1    2  501    0 -0.21292477190E+01  0.98194261264E+02  0.15174542852E+02  0.19951419346E+03  0.17300000000E+03 0. -1.
         -6    1    1    2    0  503  0.21292477190E+01 -0.98194261264E+02 -0.33221477535E+01  0.19896402516E+03  0.17300000000E+03 0.  1.
</event>
<event>
 4    1  0.6164307E+000  0.1000000E+03  0.7546771E-02  0.1280296E+00
         21   -1    0    0  501  502  0.00000000000E+00  0.00000000000E+00  0.97579129285E+03  0.97579129285E+03  0.00000000000E+00 0. -1.
         21   -1    0    0  502  503 -0.00000000000E+00 -0.00000000000E+00 -0.47748219613E+02  0.47748219613E+02  0.00000000000E+00 0. -1.
          6    1    1    2  501    0  0.34199911381E+02 -0.15350545932E+02  0.75688601536E+03  0.77730992111E+03  0.17300000000E+03 0.  1.
         -6    1    1    2    0  503 -0.34199911381E+02  0.15350545932E+02  0.17115705787E+03  0.24622959135E+03  0.17300000000E+03 0.  1.
</event>
<event>
 4    1  0.6164307E+000  0.1000000E+03  0.7546771E-02  0.1280296E+00
         21   -1    0    0  501  502  0.00000000000E+00  0.00000000000E+00  0.13360373353E+03  0.13360373353E+03  0.00000000000E+00 0. -1.
         21   -1    0    0  502  503 -0.00000000000E+00 -0.00000000000E+00 -0.28661610429E+03  0.28661610429E+03  0.00000000000E+00 0. -1.
          6    1    1    2  501    0 -0.48846509680E+02  0.69776370061E+02 -0.40745708136E+02  0.19708865025E+03  0.17300000000E+03 0.  1.
         -6    1    1    2    0  503  0.48846509680E+02 -0.69776370061E+02 -0.11226666263E+03  0.22313118756E+03  0.17300000000E+03 0.  1.
</event>
<event>
 4    1  0.6164307E+000  0.1000000E+03  0.7546771E-02  0.1280296E+00
         21   -1    0    0  501  502  0.00000000000E+00  0.00000000000E+00  0.20101043304E+03  0.20101043304E+03  0.00000000000E+00 0. -1.
         21   -1    0    0  502  503 -0.00000000000E+00 -0.00000000000E+00 -0.64251448403E+03  0.64251448403E+03  0.00000000000E+00 0. -1.
          6    1    1    2  501    0 -0.20754248267E+03 -0.14558601399E+03 -0.13375584667E+01  0.30692011769E+03  0.17300000000E+03 0.  1.
         -6    1    1    2    0  503  0.20754248267E+03  0.14558601399E+03 -0.44016649252E+03  0.53660479938E+03  0.17300000000E+03 0.  1.
</event>
<event>
 4    1  0.6164307E+000  0.1000000E+03  0.7546771E-02  0.1280296E+00
         21   -1    0    0  503  502  0.00000000000E+00  0.00000000000E+00  0.60554386342E+03  0.60554386342E+03  0.00000000000E+00 0.  1.
         21   -1    0    0  501  503 -0.00000000000E+00 -0.00000000000E+00 -0.39090661227E+03  0.39090661227E+03  0.00000000000E+00 0.  1.
          6    1    1    2  501    0 -0.37379953181E+03  0.25350746104E+03  0.53228653527E+02  0.48657415914E+03  0.17300000000E+03 0.  1.
         -6    1    1    2    0  502  0.37379953181E+03 -0.25350746104E+03  0.16140859763E+03  0.50987631654E+03  0.17300000000E+03 0.  1.
</event>
<event>
 4    1  0.6164307E+000  0.1000000E+03  0.7546771E-02  0.1280296E+00
         21   -1    0    0  503  502  0.00000000000E+00  0.00000000000E+00  0.26605880307E+02  0.26605880307E+02  0.00000000000E+00 0. -1.
         21   -1    0    0  501  503 -0.00000000000E+00 -0.00000000000E+00 -0.13607593246E+04  0.13607593246E+04  0.00000000000E+00 0.  1.
          6    1    1    2  501    0  0.47990757853E+02 -0.18139904578E+02 -0.88712235028E+03  0.90528848073E+03  0.17300000000E+03 0.  1.
         -6    1    1    2    0  502 -0.47990757853E+02  0.18139904578E+02 -0.44703109399E+03  0.48207672415E+03  0.17300000000E+03 0. -1.
</event>
<event>
 4    1  0.6164307E+000  0.1000000E+03  0.7546771E-02  0.1280296E+00
         21   -1    0    0  503  502  0.00000000000E+00  0.00000000000E+00  0.20026150138E+04  0.20026150138E+04  0.00000000000E+00 0. -1.
         21   -1    0    0  501  503 -0.00000000000E+00 -0.00000000000E+00 -0.39365161550E+02  0.39365161550E+02  0.00000000000E+00 0.  1.
          6    1    1    2  501    0 -0.71430323438E+02 -0.15563097016E+03  0.47278179856E+03  0.53176584981E+03  0.17300000000E+03 0.  1.
         -6    1    1    2    0  502  0.71430323438E+02  0.15563097016E+03  0.14904680537E+04  0.15102143255E+04  0.17300000000E+03 0. -1.
</event>
<event>
 4    1  0.6164307E+000  0.1000000E+03  0.7546771E-02  0.1280296E+00
         21   -1    0    0  501  502  0.00000000000E+00  0.00000000000E+00  0.11507759229E+04  0.11507759229E+04  0.00000000000E+00 0. -1.
         21   -1    0    0  502  503 -0.00000000000E+00 -0.00000000000E+00 -0.19846221248E+03  0.19846221248E+03  0.00000000000E+00 0. -1.
          6    1    1    2  501    0 -0.26650149210E+03 -0.35415898487E+03  0.41294899436E+03  0.63000595537E+03  0.17300000000E+03 0. -1.
         -6    1    1    2    0  503  0.26650149210E+03  0.35415898487E+03  0.53936471611E+03  0.71923218006E+03  0.17300000000E+03 0. -1.
</event>
<event>
 4    1  0.6164307E+000  0.1000000E+03  0.7546771E-02  0.1280296E+00
         21   -1    0    0  501  502  0.00000000000E+00  0.00000000000E+00  0.14402507212E+02  0.14402507212E+02  0.00000000000E+00 0. -1.
         21   -1    0    0  502  503 -0.00000000000E+00 -0.00000000000E+00 -0.25090597537E+04  0.25090597537E+04  0.00000000000E+00 0. -1.
          6    1    1    2  501    0 -0.56351123740E+02  0.54618325272E+02 -0.12938564184E+04  0.13077278165E+04  0.17300000000E+03 0. -1.
         -6    1    1    2    0  503  0.56351123740E+02 -0.54618325272E+02 -0.12008008281E+04  0.12157344444E+04  0.17300000000E+03 0. -1.
</event>
<event>
 4    1  0.6164307E+000  0.1000000E+03  0.7546771E-02  0.1280296E+00
         21   -1    0    0  503  502  0.00000000000E+00  0.00000000000E+00  0.73142116651E+02  0.73142116651E+02  0.00000000000E+00 0.  1.
         21   -1    0    0  501  503 -0.00000000000E+00 -0.00000000000E+00 -0.49510227662E+03  0.49510227662E+03  0.00000000000E+00 0.  1.
          6    1    1    2  501    0 -0.40874720359E+02 -0.62962986386E+02 -0.24900882322E+03  0.31236112828E+03  0.17300000000E+03 0.  1.
         -6    1    1    2    0  502  0.40874720359E+02  0.62962986386E+02 -0.17295133675E+03  0.25588326499E+03  0.17300000000E+03 0.  1.
</event>
<event>
 4    1  0.6164307E+000  0.1000000E+03  0.7546771E-02  0.1280296E+00
         21   -1    0    0  503  502  0.00000000000E+00  0.00000000000E+00  0.31507070055E+02  0.31507070055E+02  0.00000000000E+00 0.  1.
         21   -1    0    0  501  503 -0.00000000000E+00 -0.00000000000E+00 -0.11016429626E+04  0.11016429626E+04  0.00000000000E+00 0.  1.
          6    1    1    2  501    0  0.36842141691E+02  0.41275837297E+02 -0.40896229351E+03  0.44748206184E+03  0.17300000000E+03 0.  1.
         -6    1    1    2    0  502 -0.36842141691E+02 -0.41275837297E+02 -0.66117359899E+03  0.68566797078E+03  0.17300000000E+03 0.  1.
</event>
<event>
 4    1  0.6164307E+000  0.1000000E+03  0.7546771E-02  0.1280296E+00
         21   -1    0    0  501  502  0.00000000000E+00  0.00000000000E+00  0.31888595954E+03  0.31888595954E+03  0.00000000000E+00 0. -1.
         21   -1    0    0  502  503 -0.00000000000E+00 -0.00000000000E+00 -0.15828486612E+03  0.15828486612E+03  0.00000000000E+00 0.  1.
          6    1    1    2  501    0  0.13693686781E+03 -0.40348328763E+02  0.93988166314E+02  0.24319224660E+03  0.17300000000E+03 0. -1.
         -6    1    1    2    0  503 -0.13693686781E+03  0.40348328763E+02  0.66612927097E+02  0.23397857906E+03  0.17300000000E+03 0.  1.
</event>
<event>
 4    1  0.6164307E+000  0.1000000E+03  0.7546771E-02  0.1280296E+00
         21   -1    0    0  501  502  0.00000000000E+00  0.00000000000E+00  0.60547825633E+03  0.60547825633E+03  0.00000000000E+00 0. -1.
         21   -1    0    0  502  503 -0.00000000000E+00 -0.00000000000E+00 -0.25108024504E+03  0.25108024504E+03  0.00000000000E+00 0.  1.
          6    1    1    2  501    0 -0.36064693881E+01 -0.31890602700E+03  0.33401112746E+03  0.49315970430E+03  0.17300000000E+03 0. -1.
         -6    1    1    2    0  503  0.36064693881E+01  0.31890602700E+03  0.20386883838E+02  0.36339879707E+03  0.17300000000E+03 0.  1.
</event>
<event>
 4    1  0.6164307E+000  0.1000000E+03  0.7546771E-02  0.1280296E+00
         21   -1    0    0  501  502  0.00000000000E+00  0.00000000000E+00  0.11355257985E+03  0.11355257985E+03  0.00000000000E+00 0. -1.
         21   -1    0    0  502  503 -0.00000000000E+00 -0.00000000000E+00 -0.37267847682E+03  0.37267847682E+03  0.00000000000E+00 0.  1.
          6    1    1    2  501    0  0.85477431821E+02 -0.39503457896E+02 -0.59419982187E+02  0.20573441331E+03  0.17300000000E+03 0. -1.
         -6    1    1    2    0  503 -0.85477431821E+02  0.39503457896E+02 -0.19970591479E+03  0.28049664336E+03  0.17300000000E+03 0.  1.
</event>
<event>
 4    1  0.6164307E+000  0.1000000E+03  0.7546771E-02  0.1280296E+00
         21   -1    0    0  501  502  0.00000000000E+00  0.00000000000E+00  0.11477484523E+03  0.11477484523E+03  0.00000000000E+00 0.  1.
         21   -1    0    0  502  503 -0.00000000000E+00 -0.00000000000E+00 -0.46859569667E+03  0.46859569667E+03  0.00000000000E+00 0.  1.
          6    1    1    2  501    0  0.65489344439E+02 -0.11122865064E+03 -0.70236805505E+02  0.22698651018E+03  0.17300000000E+03 0.  1.
         -6    1    1    2    0  503 -0.65489344439E+02  0.11122865064E+03 -0.28358404593E+03  0.35638403172E+03  0.17300000000E+03 0.  1.
</event>
<event>
 4    1  0.6164307E+000  0.1000000E+03  0.7546771E-02  0.1280296E+00
         21   -1    0    0  501  502  0.00000000000E+00  0.00000000000E+00  0.64932076994E+02  0.64932076994E+02  0.00000000000E+00 0.  1.
         21   -1    0    0  502  503 -0.00000000000E+00 -0.00000000000E+00 -0.48835256129E+03  0.48835256129E+03  0.00000000000E+00 0.  1.
          6    1    1    2  501    0 -0.20742500260E+02  0.36472592443E+02 -0.21870026995E+03  0.28199168320E+03  0.17300000000E+03 0.  1.
         -6    1    1    2    0  503  0.20742500260E+02 -0.36472592443E+02 -0.20472021434E+03  0.27129295508E+03  0.17300000000E+03 0.  1.
</event>
<event>
 4    1  0.6164307E+000  0.1000000E+03  0.7546771E-02  0.1280296E+00
         21   -1    0    0  503  502  0.00000000000E+00  0.00000000000E+00  0.40330387564E+03  0.40330387564E+03  0.00000000000E+00 0. -1.
         21   -1    0    0  501  503 -0.00000000000E+00 -0.00000000000E+00 -0.10726887015E+03  0.10726887015E+03  0.00000000000E+00 0. -1.
          6    1    1    2  501    0 -0.10501044970E+03  0.37746064595E+02  0.11158740391E+03  0.23416385001E+03  0.17300000000E+03 0. -1.
         -6    1    1    2    0  502  0.10501044970E+03 -0.37746064595E+02  0.18444760159E+03  0.27640889579E+03  0.17300000000E+03 0. -1.
</event>
<event>
 4    1  0.6164307E+000  0.1000000E+03  0.7546771E-02  0.1280296E+00
         21   -1    0    0  503  502  0.00000000000E+00  0.00000000000E+00  0.19037724969E+04  0.19037724969E+04  0.00000000000E+00 0.  1.
         21   -1    0    0  501  503 -0.00000000000E+00 -0.00000000000E+00 -0.22443586861E+02  0.22443586861E+02  0.00000000000E+00 0. -1.
          6    1    1    2  501    0 -0.61437015975E+02 -0.57128820289E+02  0.58703947439E+03  0.61772368704E+03  0.17300000000E+03 0.  1.
         -6    1    1    2    0  502  0.61437015975E+02  0.57128820289E+02  0.12942894357E+04  0.13084923967E+04  0.17300000000E+03 0. -1.
</event>
<event>
 4    1  0.6164307E+000  0.1000000E+03  0.7546771E-02  0.1280296E+00
         21   -1    0    0  503  502  0.00000000000E+00  0.00000000000E+00  0.46157512234E+02  0.46157512234E+02  0.00000000000E+00 0. -1.
         21   -1    0    0  501  503 -0.00000000000E+00 -0.00000000000E+00 -0.15727002309E+04  0.15727002309E+04  0.00000000000E+00 0.  1.
          6    1    1    2  501    0  0.67359362259E+02 -0.63713921950E+02 -0.13177645973E+04  0.13323022485E+04  0.17300000000E+03 0. -1.
         -6    1    1    2    0  502 -0.67359362259E+02  0.63713921950E+02 -0.20877812140E+03  0.28655549464E+03  0.17300000000E+03 0.  1.
</event>
<event>
 4    1  0.6164307E+000  0.1000000E+03  0.7546771E-02  0.1280296E+00
         21   -1    0    0  503  502  0.00000000000E+00  0.00000000000E+00  0.19067156567E+03  0.19067156567E+03  0.00000000000E+00 0. -1.
         21   -1    0    0  501  503 -0.00000000000E+00 -0.00000000000E+00 -0.24825493114E+03  0.24825493114E+03  0.00000000000E+00 0.  1.
          6    1    1    2  501    0 -0.12757661996E+03 -0.75469227289E+00  0.51137516495E+01  0.21501514825E+03  0.17300000000E+03 0. -1.
         -6    1    1    2    0  502  0.12757661996E+03  0.75469227289E+00 -0.62697117122E+02  0.22391134856E+03  0.17300000000E+03 0.  1.
</event>
<event>
 4    1  0.6164307E+000  0.1000000E+03  0.7546771E-02  0.1280296E+00
         21   -1    0    0  503  502  0.00000000000E+00  0.00000000000E+00  0.43924036951E+02  0.43924036951E+02  0.00000000000E+00 0. -1.
         21   -1    0    0  501  503 -0.00000000000E+00 -0.00000000000E+00 -0.21675512723E+04  0.21675512723E+04  0.00000000000E+00 0.  1.
          6    1    1    2  501    0 -0.83980604370E+01  0.14257268191E+03 -0.18209993832E+04  0.18347657209E+04  0.17300000000E+03 0. -1.
         -6    1    1    2    0  502  0.83980604370E+01 -0.14257268191E+03 -0.30262785217E+03  0.37670958835E+03  0.17300000000E+03 0.  1.
</event>
<event>
 4    1  0.6164307E+000  0.1000000E+03  0.7546771E-02  0.1280296E+00
         21   -1    0    0  503  502  0.00000000000E+00  0.00000000000E+00  0.21469332038E+03  0.21469332038E+03  0.00000000000E+00 0. -1.
         21   -1    0    0  501  503 -0.00000000000E+00 -0.00000000000E+00 -0.14992098439E+03  0.14992098439E+03  0.00000000000E+00 0. -1.
          6    1    1    2  501    0  0.42263815184E+02  0.97161766622E+01  0.12645399983E+02  0.17880028049E+03  0.17300000000E+03 0. -1.
         -6    1    1    2    0  502 -0.42263815184E+02 -0.97161766622E+01  0.52126936001E+02  0.18581402428E+03  0.17300000000E+03 0. -1.
</event>
<event>
 4    1  0.6164307E+000  0.1000000E+03  0.7546771E-02  0.1280296E+00
         21   -1    0    0  503  502  0.00000000000E+00  0.00000000000E+00  0.62377157615E+03  0.62377157615E+03  0.00000000000E+00 0. -1.
         21   -1    0    0  501  503 -0.00000000000E+00 -0.00000000000E+00 -0.18161462042E+03  0.18161462042E+03  0.00000000000E+00 0. -1.
          6    1    1    2  501    0  0.41535708422E+02 -0.18016183734E+03 -0.44230354715E+02  0.25703857101E+03  0.17300000000E+03 0. -1.
         -6    1    1    2    0  502 -0.41535708422E+02  0.18016183734E+03  0.48638731044E+03  0.54834762557E+03  0.17300000000E+03 0. -1.
</event>
<event>
 4    1  0.6164307E+000  0.1000000E+03  0.7546771E-02  0.1280296E+00
         21   -1    0    0  503  502  0.00000000000E+00  0.00000000000E+00  0.15823935453E+03  0.15823935453E+03  0.00000000000E+00 0. -1.
         21   -1    0    0  501  503 -0.00000000000E+00 -0.00000000000E+00 -0.28980381203E+03  0.28980381203E+03  0.00000000000E+00 0. -1.
          6    1    1    2  501    0  0.74400314608E+01 -0.32695149823E-01 -0.19758481438E+03  0.26272440696E+03  0.17300000000E+03 0. -1.
         -6    1    1    2    0  502 -0.74400314608E+01  0.32695149823E-01  0.66020356878E+02  0.18531875960E+03  0.17300000000E+03 0. -1.
</event>
<event>
 4    1  0.6164307E+000  0.1000000E+03  0.7546771E-02  0.1280296E+00
         21   -1    0    0  503  502  0.00000000000E+00  0.00000000000E+00  0.44608082420E+03  0.44608082420E+03  0.00000000000E+00 0. -1.
         21   -1    0    0  501  503 -0.00000000000E+00 -0.00000000000E+00 -0.12790934521E+03  0.12790934521E+03  0.00000000000E+00 0. -1.
          6    1    1    2  501    0 -0.10887324664E+03 -0.10977523413E+02  0.11176689639E+02  0.20500684927E+03  0.17300000000E+03 0. -1.
         -6    1    1    2    0  502  0.10887324664E+03  0.10977523413E+02  0.30699478936E+03  0.36898332015E+03  0.17300000000E+03 0. -1.
</event>
<event>
 4    1  0.6164307E+000  0.1000000E+03  0.7546771E-02  0.1280296E+00
         21   -1    0    0  501  502  0.00000000000E+00  0.00000000000E+00  0.24790608803E+03  0.24790608803E+03  0.00000000000E+00 0.  1.
         21   -1    0    0  502  503 -0.00000000000E+00 -0.00000000000E+00 -0.24925651459E+03  0.24925651459E+03  0.00000000000E+00 0.  1.
          6    1    1    2  501    0  0.75927506700E+02 -0.48983389550E+02  0.15326965860E+03  0.24816314588E+03  0.17300000000E+03 0.  1.
         -6    1    1    2    0  503 -0.75927506700E+02  0.48983389550E+02 -0.15462008515E+03  0.24899945674E+03  0.17300000000E+03 0.  1.
</event>
<event>
 4    1  0.6164307E+000  0.1000000E+03  0.7546771E-02  0.1280296E+00
         21   -1    0    0  501  502  0.00000000000E+00  0.00000000000E+00  0.39748951477E+03  0.39748951477E+03  0.00000000000E+00 0.  1.
         21   -1    0    0  502  503 -0.00000000000E+00 -0.00000000000E+00 -0.14370992321E+03  0.14370992321E+03  0.00000000000E+00 0.  1.
          6    1    1    2  501    0 -0.84138079106E+01 -0.16466782596E+03  0.13007256731E+03  0.27209218628E+03  0.17300000000E+03 0.  1.
         -6    1    1    2    0  503  0.84138079106E+01  0.16466782596E+03  0.12370702425E+03  0.26910725170E+03  0.17300000000E+03 0.  1.
</event>
<event>
 4    1  0.6164307E+000  0.1000000E+03  0.7546771E-02  0.1280296E+00
         21   -1    0    0  503  502  0.00000000000E+00  0.00000000000E+00  0.65592426217E+02  0.65592426217E+02  0.00000000000E+00 0. -1.
         21   -1    0    0  501  503 -0.00000000000E+00 -0.00000000000E+00 -0.71448764703E+03  0.71448764703E+03  0.00000000000E+00 0. -1.
          6    1    1    2  501    0 -0.36264367129E+02 -0.52648875404E+02 -0.52867742066E+03  0.55992483738E+03  0.17300000000E+03 0. -1.
         -6    1    1    2    0  502  0.36264367129E+02  0.52648875404E+02 -0.12021780016E+03  0.22015523587E+03  0.17300000000E+03 0. -1.
</event>
<event>
 4    1  0.6164307E+000  0.1000000E+03  0.7546771E-02  0.1280296E+00
         21   -1    0    0  503  502  0.00000000000E+00  0.00000000000E+00  0.86853769340E+02  0.86853769340E+02  0.00000000000E+00 0.  1.
         21   -1    0    0  501  503 -0.00000000000E+00 -0.00000000000E+00 -0.59827654818E+03  0.59827654818E+03  0.00000000000E+00 0.  1.
          6    1    1    2  501    0  0.99403544776E+02  0.57916267220E+02 -0.39667114572E+03  0.44778606116E+03  0.17300000000E+03 0.  1.
         -6    1    1    2    0  502 -0.99403544776E+02 -0.57916267220E+02 -0.11475163312E+03  0.23734425636E+03  0.17300000000E+03 0.  1.
</event>
<event>
 4    1  0.6164307E+000  0.1000000E+03  0.7546771E-02  0.1280296E+00
         21   -1    0    0  503  502  0.00000000000E+00  0.00000000000E+00  0.69928833709E+03  0.69928833709E+03  0.00000000000E+00 0.  1.
         21   -1    0    0  501  503 -0.00000000000E+00 -0.00000000000E+00 -0.16224689437E+03  0.16224689437E+03  0.00000000000E+00 0.  1.
          6    1    1    2  501    0  0.14091367109E+03  0.10989787596E+03 -0.21966451721E+02  0.24969127106E+03  0.17300000000E+03 0.  1.
         -6    1    1    2    0  502 -0.14091367109E+03 -0.10989787596E+03  0.55900789443E+03  0.61184396040E+03  0.17300000000E+03 0.  1.
</event>
<event>
 4    1  0.6164307E+000  0.1000000E+03  0.7546771E-02  0.1280296E+00
         21   -1    0    0  503  502  0.00000000000E+00  0.00000000000E+00  0.19361591259E+03  0.19361591259E+03  0.00000000000E+00 0.  1.
         21   -1    0    0  501  503 -0.00000000000E+00 -0.00000000000E+00 -0.22549901121E+03  0.22549901121E+03  0.00000000000E+00 0.  1.
          6    1    1    2  501    0  0.92898796114E+02 -0.55303888423E+02 -0.61266809125E+02  0.21300546541E+03  0.17300000000E+03 0.  1.
         -6    1    1    2    0  502 -0.92898796114E+02  0.55303888423E+02  0.29383710508E+02  0.20610945839E+03  0.17300000000E+03 0.  1.
</event>
<event>
 4    1  0.6164307E+000  0.1000000E+03  0.7546771E-02  0.1280296E+00
         21   -1    0    0  503  502  0.00000000000E+00  0.00000000000E+00  0.44147925376E+03  0.44147925376E+03  0.00000000000E+00 0. -1.
         21   -1    0    0  501  503 -0.00000000000E+00 -0.00000000000E+00 -0.13914621957E+03  0.13914621957E+03  0.00000000000E+00 0. -1.
          6    1    1    2  501    0  0.12251812707E+03 -0.85991808150E+01  0.10888948785E+01  0.21216696978E+03  0.17300000000E+03 0. -1.
         -6    1    1    2    0  502 -0.12251812707E+03  0.85991808150E+01  0.30124413932E+03  0.36845850356E+03  0.17300000000E+03 0. -1.
</event>
<event>
 4    1  0.6164307E+000  0.1000000E+03  0.7546771E-02  0.1280296E+00
         21   -1    0    0  501  502  0.00000000000E+00  0.00000000000E+00  0.39475069844E+02  0.39475069844E+02  0.00000000000E+00 0. -1.
         21   -1    0    0  502  503 -0.00000000000E+00 -0.00000000000E+00 -0.10579148506E+04  0.10579148506E+04  0.00000000000E+00 0. -1.
          6    1    1    2  501    0  0.79780328630E+02 -0.14102649189E+02 -0.31433116831E+03  0.36782722700E+03  0.17300000000E+03 0. -1.
         -6    1    1    2    0  503 -0.79780328630E+02  0.14102649189E+02 -0.70410861249E+03  0.72956269349E+03  0.17300000000E+03 0. -1.
</event>
<event>
 4    1  0.6164307E+000  0.1000000E+03  0.7546771E-02  0.1280296E+00
         21   -1    0    0  501  502  0.00000000000E+00  0.00000000000E+00  0.29077641125E+02  0.29077641125E+02  0.00000000000E+00 0. -1.
         21   -1    0    0  502  503 -0.00000000000E+00 -0.00000000000E+00 -0.23304347705E+04  0.23304347705E+04  0.00000000000E+00 0. -1.
          6    1    1    2  501    0 -0.39204338070E+02 -0.14500924150E+03 -0.59064752098E+03  0.63352833740E+03  0.17300000000E+03 0. -1.
         -6    1    1    2    0  503  0.39204338070E+02  0.14500924150E+03 -0.17107096084E+04  0.17259840743E+04  0.17300000000E+03 0. -1.
</event>
<event>
 4    1  0.6164307E+000  0.1000000E+03  0.7546771E-02  0.1280296E+00
         21   -1    0    0  501  502  0.00000000000E+00  0.00000000000E+00  0.58471206103E+02  0.58471206103E+02  0.00000000000E+00 0. -1.
         21   -1    0    0  502  503 -0.00000000000E+00 -0.00000000000E+00 -0.57689012235E+03  0.57689012235E+03  0.00000000000E+00 0. -1.
          6    1    1    2  501    0  0.52261396314E+02 -0.44694219992E+01 -0.20312758849E+03  0.27192102986E+03  0.17300000000E+03 0. -1.
         -6    1    1    2    0  503 -0.52261396314E+02  0.44694219992E+01 -0.31529132776E+03  0.36344029859E+03  0.17300000000E+03 0. -1.
</event>
<event>
 4    1  0.6164307E+000  0.1000000E+03  0.7546771E-02  0.1280296E+00
         21   -1    0    0  503  502  0.00000000000E+00  0.00000000000E+00  0.18310704203E+03  0.18310704203E+03  0.00000000000E+00 0. -1.
         21   -1    0    0  501  503 -0.00000000000E+00 -0.00000000000E+00 -0.31075742004E+03  0.31075742004E+03  0.00000000000E+00 0. -1.
          6    1    1    2  501    0  0.92833655348E+02  0.10754120402E+03 -0.14912321086E+03  0.26897942327E+03  0.17300000000E+03 0. -1.
         -6    1    1    2    0  502 -0.92833655348E+02 -0.10754120402E+03  0.21472832846E+02  0.22488503880E+03  0.17300000000E+03 0. -1.
</event>
<event>
 4    1  0.6164307E+000  0.1000000E+03  0.7546771E-02  0.1280296E+00
         21   -1    0    0  503  502  0.00000000000E+00  0.00000000000E+00  0.43179960542E+03  0.43179960542E+03  0.00000000000E+00 0. -1.
         21   -1    0    0  501  503 -0.00000000000E+00 -0.00000000000E+00 -0.74322546220E+02  0.74322546220E+02  0.00000000000E+00 0. -1.
          6    1    1    2  501    0 -0.23039002578E+02 -0.19092554654E+02  0.12843424862E+03  0.21753086563E+03  0.17300000000E+03 0. -1.
         -6    1    1    2    0  502  0.23039002578E+02  0.19092554654E+02  0.22904281057E+03  0.28859128601E+03  0.17300000000E+03 0. -1.
</event>
<event>
 4    1  0.6164307E+000  0.1000000E+03  0.7546771E-02  0.1280296E+00
         21   -1    0    0  503  502  0.00000000000E+00  0.00000000000E+00  0.57924138506E+02  0.57924138506E+02  0.00000000000E+00 0. -1.
         21   -1    0    0  501  503 -0.00000000000E+00 -0.00000000000E+00 -0.70158585024E+03  0.70158585024E+03  0.00000000000E+00 0. -1.
          6    1    1    2  501    0 -0.10026784682E+03  0.21665378266E+02 -0.29608923022E+03  0.35793974629E+03  0.17300000000E+03 0. -1.
         -6    1    1    2    0  502  0.10026784682E+03 -0.21665378266E+02 -0.34757248152E+03  0.40157024246E+03  0.17300000000E+03 0. -1.
</event>
<event>
 4    1  0.6164307E+000  0.1000000E+03  0.7546771E-02  0.1280296E+00
         21   -1    0    0  501  502  0.00000000000E+00  0.00000000000E+00  0.95421574734E+03  0.95421574734E+03  0.00000000000E+00 0. -1.
         21   -1    0    0  502  503 -0.00000000000E+00 -0.00000000000E+00 -0.12780612483E+03  0.12780612483E+03  0.00000000000E+00 0.  1.
          6    1    1    2  501    0  0.13847455158E+03  0.13800006612E+02  0.83079909375E+03  0.85995451960E+03  0.17300000000E+03 0. -1.
         -6    1    1    2    0  503 -0.13847455158E+03 -0.13800006612E+02 -0.43894712345E+01  0.22206735257E+03  0.17300000000E+03 0.  1.
</event>
<event>
 4    1  0.6164307E+000  0.1000000E+03  0.7546771E-02  0.1280296E+00
         21   -1    0    0  501  502  0.00000000000E+00  0.00000000000E+00  0.44380682269E+03  0.44380682269E+03  0.00000000000E+00 0. -1.
         21   -1    0    0  502  503 -0.00000000000E+00 -0.00000000000E+00 -0.42772668769E+03  0.42772668769E+03  0.00000000000E+00 0.  1.
          6    1    1    2  501    0 -0.36909777020E+02  0.96979682761E+02  0.39428146347E+03  0.44289306040E+03  0.17300000000E+03 0. -1.
         -6    1    1    2    0  503  0.36909777020E+02 -0.96979682761E+02 -0.37820132847E+03  0.42864044999E+03  0.17300000000E+03 0.  1.
</event>
<event>
 4    1  0.6164307E+000  0.1000000E+03  0.7546771E-02  0.1280296E+00
         21   -1    0    0  501  502  0.00000000000E+00  0.00000000000E+00  0.14472598568E+03  0.14472598568E+03  0.00000000000E+00 0. -1.
         21   -1    0    0  502  503 -0.00000000000E+00 -0.00000000000E+00 -0.63412868013E+03  0.63412868013E+03  0.00000000000E+00 0. -1.
          6    1    1    2  501    0  0.56487122602E+02  0.82955398253E+02  0.47793526220E+02  0.20563466213E+03  0.17300000000E+03 0. -1.
         -6    1    1    2    0  503 -0.56487122602E+02 -0.82955398253E+02 -0.53719622067E+03  0.57322000369E+03  0.17300000000E+03 0. -1.
</event>
<event>
 4    1  0.6164307E+000  0.1000000E+03  0.7546771E-02  0.1280296E+00
         21   -1    0    0  501  502  0.00000000000E+00  0.00000000000E+00  0.21632084156E+03  0.21632084156E+03  0.00000000000E+00 0. -1.
         21   -1    0    0  502  503 -0.00000000000E+00 -0.00000000000E+00 -0.22423819097E+03  0.22423819097E+03  0.00000000000E+00 0. -1.
          6    1    1    2  501    0 -0.55686647277E+00  0.70530418223E+02  0.11269439655E+03  0.21818312723E+03  0.17300000000E+03 0. -1.
         -6    1    1    2    0  503  0.55686647277E+00 -0.70530418223E+02 -0.12061174595E+03  0.22237590530E+03  0.17300000000E+03 0. -1.
</event>
<event>
 4    1  0.6164307E+000  0.1000000E+03  0.7546771E-02  0.1280296E+00
         21   -1    0    0  503  502  0.00000000000E+00  0.00000000000E+00  0.81324164535E+03  0.81324164535E+03  0.00000000000E+00 0. -1.
         21   -1    0    0  501  503 -0.00000000000E+00 -0.00000000000E+00 -0.10899952702E+03  0.10899952702E+03  0.00000000000E+00 0. -1.
          6    1    1    2  501    0  0.31897447200E+02  0.20119131818E+03  0.14888965083E+03  0.30592894890E+03  0.17300000000E+03 0. -1.
         -6    1    1    2    0  502 -0.31897447200E+02 -0.20119131818E+03  0.55535246750E+03  0.61631222347E+03  0.17300000000E+03 0. -1.
</event>
<event>
 4    1  0.6164307E+000  0.1000000E+03  0.7546771E-02  0.1280296E+00
         21   -1    0    0  503  502  0.00000000000E+00  0.00000000000E+00  0.40133497144E+03  0.40133497144E+03  0.00000000000E+00 0. -1.
         21   -1    0    0  501  503 -0.00000000000E+00 -0.00000000000E+00 -0.61880993582E+03  0.61880993582E+03  0.00000000000E+00 0. -1.
          6    1    1    2  501    0 -0.22339483850E+03  0.25146335880E+03 -0.44084352504E+03  0.58087097385E+03  0.17300000000E+03 0. -1.
         -6    1    1    2    0  502  0.22339483850E+03 -0.25146335880E+03  0.22336856066E+03  0.43927393341E+03  0.17300000000E+03 0. -1.
</event>
<event>
 4    1  0.6164307E+000  0.1000000E+03  0.7546771E-02  0.1280296E+00
         21   -1    0    0  501  502  0.00000000000E+00  0.00000000000E+00  0.26497215845E+02  0.26497215845E+02  0.00000000000E+00 0. -1.
         21   -1    0    0  502  503 -0.00000000000E+00 -0.00000000000E+00 -0.20560080632E+04  0.20560080632E+04  0.00000000000E+00 0. -1.
          6    1    1    2  501    0 -0.11899234065E+03 -0.46421156286E+02 -0.60991335645E+03  0.64671276720E+03  0.17300000000E+03 0. -1.
         -6    1    1    2    0  503  0.11899234065E+03  0.46421156286E+02 -0.14195974909E+04  0.14357925118E+04  0.17300000000E+03 0. -1.
</event>
<event>
 4    1  0.6164307E+000  0.1000000E+03  0.7546771E-02  0.1280296E+00
         21   -1    0    0  501  502  0.00000000000E+00  0.00000000000E+00  0.27203379907E+03  0.27203379907E+03  0.00000000000E+00 0. -1.
         21   -1    0    0  502  503 -0.00000000000E+00 -0.00000000000E+00 -0.40205366763E+03  0.40205366763E+03  0.00000000000E+00 0. -1.
          6    1    1    2  501    0  0.11142208218E+03 -0.89492984210E+02  0.18257823045E+03  0.28928823836E+03  0.17300000000E+03 0. -1.
         -6    1    1    2    0  503 -0.11142208218E+03  0.89492984210E+02 -0.31259809901E+03  0.38479922833E+03  0.17300000000E+03 0. -1.
</event>
<event>
 4    1  0.6164307E+000  0.1000000E+03  0.7546771E-02  0.1280296E+00
         21   -1    0    0  501  502  0.00000000000E+00  0.00000000000E+00  0.11657916378E+03  0.11657916378E+03  0.00000000000E+00 0. -1.
         21   -1    0    0  502  503 -0.00000000000E+00 -0.00000000000E+00 -0.43983807607E+03  0.43983807607E+03  0.00000000000E+00 0. -1.
          6    1    1    2  501    0 -0.17434553126E+02  0.36879109592E+01  0.16537453971E+02  0.17469989042E+03  0.17300000000E+03 0. -1.
         -6    1    1    2    0  503  0.17434553126E+02 -0.36879109592E+01 -0.33979636626E+03  0.38171734943E+03  0.17300000000E+03 0. -1.
</event>
<event>
 4    1  0.6164307E+000  0.1000000E+03  0.7546771E-02  0.1280296E+00
         21   -1    0    0  503  502  0.00000000000E+00  0.00000000000E+00  0.28013818623E+03  0.28013818623E+03  0.00000000000E+00 0.  1.
         21   -1    0    0  501  503 -0.00000000000E+00 -0.00000000000E+00 -0.11014996901E+03  0.11014996901E+03  0.00000000000E+00 0.  1.
          6    1    1    2  501    0  0.25847751707E+02 -0.10693124854E+02  0.98406344719E+02  0.20098571558E+03  0.17300000000E+03 0.  1.
         -6    1    1    2    0  502 -0.25847751707E+02  0.10693124854E+02  0.71581872508E+02  0.18930243965E+03  0.17300000000E+03 0.  1.
</event>
<event>
 4    1  0.6164307E+000  0.1000000E+03  0.7546771E-02  0.1280296E+00
         21   -1    0    0  503  502  0.00000000000E+00  0.00000000000E+00  0.16854264419E+03  0.16854264419E+03  0.00000000000E+00 0.  1.
         21   -1    0    0  501  503 -0.00000000000E+00 -0.00000000000E+00 -0.74707122627E+03  0.74707122627E+03  0.00000000000E+00 0.  1.
          6    1    1    2  501    0  0.63507499991E+02  0.44421699430E+02 -0.67626727617E+03  0.70233390830E+03  0.17300000000E+03 0.  1.
         -6    1    1    2    0  502 -0.63507499991E+02 -0.44421699430E+02  0.97738694093E+02  0.21327996216E+03  0.17300000000E+03 0.  1.
</event>
<event>
 4    1  0.6164307E+000  0.1000000E+03  0.7546771E-02  0.1280296E+00
         21   -1    0    0  501  502  0.00000000000E+00  0.00000000000E+00  0.23086920211E+03  0.23086920211E+03  0.00000000000E+00 0. -1.
         21   -1    0    0  502  503 -0.00000000000E+00 -0.00000000000E+00 -0.15494718533E+03  0.15494718533E+03  0.00000000000E+00 0. -1.
          6    1    1    2  501    0 -0.24044200803E+02  0.65143163946E+02  0.70563742817E+02  0.19932385006E+03  0.17300000000E+03 0. -1.
         -6    1    1    2    0  503  0.24044200803E+02 -0.65143163946E+02  0.53582739643E+01  0.18649253739E+03  0.17300000000E+03 0. -1.
</event>
<event>
 4    1  0.6164307E+000  0.1000000E+03  0.7546771E-02  0.1280296E+00
         21   -1    0    0  503  502  0.00000000000E+00  0.00000000000E+00  0.40424234133E+03  0.40424234133E+03  0.00000000000E+00 0.  1.
         21   -1    0    0  501  503 -0.00000000000E+00 -0.00000000000E+00 -0.10559056287E+03  0.10559056287E+03  0.00000000000E+00 0. -1.
          6    1    1    2  501    0  0.13105569777E+01 -0.48558475157E+02  0.23523815732E+02  0.18122365457E+03  0.17300000000E+03 0.  1.
         -6    1    1    2    0  502 -0.13105569777E+01  0.48558475157E+02  0.27512796273E+03  0.32860924963E+03  0.17300000000E+03 0. -1.
</event>
<event>
 4    1  0.6164307E+000  0.1000000E+03  0.7546771E-02  0.1280296E+00
         21   -1    0    0  503  502  0.00000000000E+00  0.00000000000E+00  0.16604155930E+03  0.16604155930E+03  0.00000000000E+00 0.  1.
         21   -1    0    0  501  503 -0.00000000000E+00 -0.00000000000E+00 -0.41582552636E+03  0.41582552636E+03  0.00000000000E+00 0. -1.
          6    1    1    2  501    0 -0.10507925160E+03 -0.13152717366E+03 -0.23981943971E+03  0.34026961397E+03  0.17300000000E+03 0.  1.
         -6    1    1    2    0  502  0.10507925160E+03  0.13152717366E+03 -0.99645273541E+01  0.24159747170E+03  0.17300000000E+03 0. -1.
</event>
<event>
 4    1  0.6164307E+000  0.1000000E+03  0.7546771E-02  0.1280296E+00
         21   -1    0    0  503  502  0.00000000000E+00  0.00000000000E+00  0.14515791460E+04  0.14515791460E+04  0.00000000000E+00 0. -1.
         21   -1    0    0  501  503 -0.00000000000E+00 -0.00000000000E+00 -0.67435990669E+02  0.67435990669E+02  0.00000000000E+00 0. -1.
          6    1    1    2  501    0 -0.13256073879E+03 -0.18501648258E+02  0.14901347670E+03  0.26466710543E+03  0.17300000000E+03 0. -1.
         -6    1    1    2    0  502  0.13256073879E+03  0.18501648258E+02  0.12351296787E+04  0.12543480313E+04  0.17300000000E+03 0. -1.
</event>
<event>
 4    1  0.6164307E+000  0.1000000E+03  0.7546771E-02  0.1280296E+00
         21   -1    0    0  503  502  0.00000000000E+00  0.00000000000E+00  0.50599603971E+03  0.50599603971E+03  0.00000000000E+00 0.  1.
         21   -1    0    0  501  503 -0.00000000000E+00 -0.00000000000E+00 -0.93353964200E+02  0.93353964200E+02  0.00000000000E+00 0.  1.
          6    1    1    2  501    0 -0.48347588452E+02  0.28630263102E+01  0.37663356310E+02  0.18355711546E+03  0.17300000000E+03 0. -1.
         -6    1    1    2    0  502  0.48347588452E+02 -0.28630263102E+01  0.37497871920E+03  0.41579288845E+03  0.17300000000E+03 0. -1.
</event>
<event>
 4    1  0.6164307E+000  0.1000000E+03  0.7546771E-02  0.1280296E+00
         21   -1    0    0  503  502  0.00000000000E+00  0.00000000000E+00  0.95058364401E+02  0.95058364401E+02  0.00000000000E+00 0.  1.
         21   -1    0    0  501  503 -0.00000000000E+00 -0.00000000000E+00 -0.67362931474E+03  0.67362931474E+03  0.00000000000E+00 0.  1.
          6    1    1    2  501    0 -0.17943081490E+03  0.23240584972E+02 -0.23307663817E+03  0.34203692985E+03  0.17300000000E+03 0. -1.
         -6    1    1    2    0  502  0.17943081490E+03 -0.23240584972E+02 -0.34549431217E+03  0.42665074929E+03  0.17300000000E+03 0. -1.
</event>
<event>
 4    1  0.6164307E+000  0.1000000E+03  0.7546771E-02  0.1280296E+00
         21   -1    0    0  503  502  0.00000000000E+00  0.00000000000E+00  0.22913015596E+03  0.22913015596E+03  0.00000000000E+00 0.  1.
         21   -1    0    0  501  503 -0.00000000000E+00 -0.00000000000E+00 -0.43280723450E+03  0.43280723450E+03  0.00000000000E+00 0.  1.
          6    1    1    2  501    0  0.29859071717E+02  0.12605006458E+03 -0.34255883347E+03  0.40503794555E+03  0.17300000000E+03 0. -1.
         -6    1    1    2    0  502 -0.29859071717E+02 -0.12605006458E+03  0.13888175493E+03  0.25689944491E+03  0.17300000000E+03 0. -1.
</event>
<event>
 4    1  0.6164307E+000  0.1000000E+03  0.7546771E-02  0.1280296E+00
         21   -1    0    0  503  502  0.00000000000E+00  0.00000000000E+00  0.31928192013E+03  0.31928192013E+03  0.00000000000E+00 0. -1.
         21   -1    0    0  501  503 -0.00000000000E+00 -0.00000000000E+00 -0.20821551919E+03  0.20821551919E+03  0.00000000000E+00 0.  1.
          6    1    1    2  501    0  0.12901880655E+03 -0.12181040868E+03 -0.17280734362E+02  0.24841749513E+03  0.17300000000E+03 0.  1.
         -6    1    1    2    0  502 -0.12901880655E+03  0.12181040868E+03  0.12834713530E+03  0.27907994419E+03  0.17300000000E+03 0. -1.
</event>
<event>
 4    1  0.6164307E+000  0.1000000E+03  0.7546771E-02  0.1280296E+00
         21   -1    0    0  501  502  0.00000000000E+00  0.00000000000E+00  0.46173937674E+02  0.46173937674E+02  0.00000000000E+00 0.  1.
         21   -1    0    0  502  503 -0.00000000000E+00 -0.00000000000E+00 -0.11464481627E+04  0.11464481627E+04  0.00000000000E+00 0.  1.
          6    1    1    2  501    0 -0.65284957671E+02  0.57314454299E+02 -0.22788091120E+03  0.29900799665E+03  0.17300000000E+03 0.  1.
         -6    1    1    2    0  503  0.65284957671E+02 -0.57314454299E+02 -0.87239331381E+03  0.89361410371E+03  0.17300000000E+03 0.  1.
</event>
<event>
 4    1  0.6164307E+000  0.1000000E+03  0.7546771E-02  0.1280296E+00
         21   -1    0    0  501  502  0.00000000000E+00  0.00000000000E+00  0.37866188455E+02  0.37866188455E+02  0.00000000000E+00 0.  1.
         21   -1    0    0  502  503 -0.00000000000E+00 -0.00000000000E+00 -0.19741276071E+04  0.19741276071E+04  0.00000000000E+00 0.  1.
          6    1    1    2  501    0 -0.11298988002E+03  0.14011619514E+02 -0.31136488254E+03  0.37395204044E+03  0.17300000000E+03 0.  1.
         -6    1    1    2    0  503  0.11298988002E+03 -0.14011619514E+02 -0.16248965361E+04  0.16380417551E+04  0.17300000000E+03 0.  1.
</event>
<event>
 4    1  0.6164307E+000  0.1000000E+03  0.7546771E-02  0.1280296E+00
         21   -1    0    0  503  502  0.00000000000E+00  0.00000000000E+00  0.19161982982E+04  0.19161982982E+04  0.00000000000E+00 0. -1.
         21   -1    0    0  501  503 -0.00000000000E+00 -0.00000000000E+00 -0.25855892955E+02  0.25855892955E+02  0.00000000000E+00 0. -1.
          6    1    1    2  501    0 -0.99092183757E+02 -0.42860667398E+02  0.55596454639E+03  0.59218398706E+03  0.17300000000E+03 0. -1.
         -6    1    1    2    0  502  0.99092183757E+02  0.42860667398E+02  0.13343778589E+04  0.13498702041E+04  0.17300000000E+03 0. -1.
</event>
<event>
 4    1  0.6164307E+000  0.1000000E+03  0.7546771E-02  0.1280296E+00
         21   -1    0    0  503  502  0.00000000000E+00  0.00000000000E+00  0.38294777497E+02  0.38294777497E+02  0.00000000000E+00 0.  1.
         21   -1    0    0  501  503 -0.00000000000E+00 -0.00000000000E+00 -0.95100280714E+03  0.95100280714E+03  0.00000000000E+00 0. -1.
          6    1    1    2  501    0  0.41956834807E+02  0.16439480493E+02 -0.62943353532E+03  0.65432882245E+03  0.17300000000E+03 0. -1.
         -6    1    1    2    0  502 -0.41956834807E+02 -0.16439480493E+02 -0.28327449432E+03  0.33496876218E+03  0.17300000000E+03 0.  1.
</event>
<event>
 4    1  0.6164307E+000  0.1000000E+03  0.7546771E-02  0.1280296E+00
         21   -1    0    0  501  502  0.00000000000E+00  0.00000000000E+00  0.16209253824E+03  0.16209253824E+03  0.00000000000E+00 0. -1.
         21   -1    0    0  502  503 -0.00000000000E+00 -0.00000000000E+00 -0.47917377117E+03  0.47917377117E+03  0.00000000000E+00 0. -1.
          6    1    1    2  501    0 -0.19496017226E+03  0.60989302793E+02 -0.69333034720E+02  0.27652347735E+03  0.17300000000E+03 0. -1.
         -6    1    1    2    0  503  0.19496017226E+03 -0.60989302793E+02 -0.24774819821E+03  0.36474283206E+03  0.17300000000E+03 0. -1.
</event>
<event>
 4    1  0.6164307E+000  0.1000000E+03  0.7546771E-02  0.1280296E+00
         21   -1    0    0  501  502  0.00000000000E+00  0.00000000000E+00  0.89084790494E+02  0.89084790494E+02  0.00000000000E+00 0. -1.
         21   -1    0    0  502  503 -0.00000000000E+00 -0.00000000000E+00 -0.45693934487E+03  0.45693934487E+03  0.00000000000E+00 0. -1.
          6    1    1    2  501    0 -0.79520443561E+02 -0.41205288912E+02 -0.11288973097E+03  0.22515432072E+03  0.17300000000E+03 0. -1.
         -6    1    1    2    0  503  0.79520443561E+02  0.41205288912E+02 -0.25496482341E+03  0.32086981465E+03  0.17300000000E+03 0. -1.
</event>
<event>
 4    1  0.6164307E+000  0.1000000E+03  0.7546771E-02  0.1280296E+00
         21   -1    0    0  501  502  0.00000000000E+00  0.00000000000E+00  0.25724692476E+03  0.25724692476E+03  0.00000000000E+00 0. -1.
         21   -1    0    0  502  503 -0.00000000000E+00 -0.00000000000E+00 -0.25153035692E+03  0.25153035692E+03  0.00000000000E+00 0. -1.
          6    1    1    2  501    0 -0.16266791107E+03  0.77913735472E+02  0.50242825628E+02  0.25492104855E+03  0.17300000000E+03 0. -1.
         -6    1    1    2    0  503  0.16266791107E+03 -0.77913735472E+02 -0.44526257792E+02  0.25385623313E+03  0.17300000000E+03 0. -1.
</event>
<event>
 4    1  0.6164307E+000  0.1000000E+03  0.7546771E-02  0.1280296E+00
         21   -1    0    0  503  502  0.00000000000E+00  0.00000000000E+00  0.47629645608E+02  0.47629645608E+02  0.00000000000E+00 0. -1.
         21   -1    0    0  501  503 -0.00000000000E+00 -0.00000000000E+00 -0.13337729243E+04  0.13337729243E+04  0.00000000000E+00 0.  1.
          6    1    1    2  501    0 -0.66415379194E+02  0.72075379973E+02 -0.10675409528E+04  0.10858998798E+04  0.17300000000E+03 0.  1.
         -6    1    1    2    0  502  0.66415379194E+02 -0.72075379973E+02 -0.21860232591E+03  0.29550269015E+03  0.17300000000E+03 0. -1.
</event>
<event>
 4    1  0.6164307E+000  0.1000000E+03  0.7546771E-02  0.1280296E+00
         21   -1    0    0  503  502  0.00000000000E+00  0.00000000000E+00  0.99355412773E+03  0.99355412773E+03  0.00000000000E+00 0. -1.
         21   -1    0    0  501  503 -0.00000000000E+00 -0.00000000000E+00 -0.64035061593E+02  0.64035061593E+02  0.00000000000E+00 0.  1.
          6    1    1    2  501    0  0.15517198114E+03  0.36069796036E+01  0.25933043997E+03  0.34824220182E+03  0.17300000000E+03 0.  1.
         -6    1    1    2    0  502 -0.15517198114E+03 -0.36069796036E+01  0.67018862617E+03  0.70934698751E+03  0.17300000000E+03 0. -1.
</event>
<event>
 4    1  0.6164307E+000  0.1000000E+03  0.7546771E-02  0.1280296E+00
         21   -1    0    0  503  502  0.00000000000E+00  0.00000000000E+00  0.22824206725E+02  0.22824206725E+02  0.00000000000E+00 0. -1.
         21   -1    0    0  501  503 -0.00000000000E+00 -0.00000000000E+00 -0.17603549177E+04  0.17603549177E+04  0.00000000000E+00 0.  1.
          6    1    1    2  501    0  0.20447100151E+01 -0.88004351545E+02 -0.10912002040E+04  0.11083301999E+04  0.17300000000E+03 0.  1.
         -6    1    1    2    0  502 -0.20447100151E+01  0.88004351545E+02 -0.64633050697E+03  0.67484892455E+03  0.17300000000E+03 0. -1.
</event>
<event>
 4    1  0.6164307E+000  0.1000000E+03  0.7546771E-02  0.1280296E+00
         21   -1    0    0  503  502  0.00000000000E+00  0.00000000000E+00  0.62398811149E+03  0.62398811149E+03  0.00000000000E+00 0. -1.
         21   -1    0    0  501  503 -0.00000000000E+00 -0.00000000000E+00 -0.20257888923E+03  0.20257888923E+03  0.00000000000E+00 0.  1.
          6    1    1    2  501    0  0.97595407960E+02 -0.68468061615E+02 -0.12269921335E+03  0.24330399930E+03  0.17300000000E+03 0.  1.
         -6    1    1    2    0  502 -0.97595407960E+02  0.68468061615E+02  0.54410843561E+03  0.58326300142E+03  0.17300000000E+03 0. -1.
</event>
<event>
 4    1  0.6164307E+000  0.1000000E+03  0.7546771E-02  0.1280296E+00
         21   -1    0    0  501  502  0.00000000000E+00  0.00000000000E+00  0.21898967640E+03  0.21898967640E+03  0.00000000000E+00 0.  1.
         21   -1    0    0  502  503 -0.00000000000E+00 -0.00000000000E+00 -0.30764105586E+03  0.30764105586E+03  0.00000000000E+00 0.  1.
          6    1    1    2  501    0  0.17072182197E+02 -0.53367544307E+01  0.15113241257E+03  0.23041255713E+03  0.17300000000E+03 0.  1.
         -6    1    1    2    0  503 -0.17072182197E+02  0.53367544307E+01 -0.23978379204E+03  0.29621817513E+03  0.17300000000E+03 0.  1.
</event>
<event>
 4    1  0.6164307E+000  0.1000000E+03  0.7546771E-02  0.1280296E+00
         21   -1    0    0  501  502  0.00000000000E+00  0.00000000000E+00  0.39729466099E+03  0.39729466099E+03  0.00000000000E+00 0.  1.
         21   -1    0    0  502  503 -0.00000000000E+00 -0.00000000000E+00 -0.13539835424E+03  0.13539835424E+03  0.00000000000E+00 0.  1.
          6    1    1    2  501    0  0.96516345027E+01  0.13095098147E+03  0.22440313638E+03  0.31229326155E+03  0.17300000000E+03 0.  1.
         -6    1    1    2    0  503 -0.96516345027E+01 -0.13095098147E+03  0.37493170380E+02  0.22039975368E+03  0.17300000000E+03 0.  1.
</event>
<event>
 4    1  0.6164307E+000  0.1000000E+03  0.7546771E-02  0.1280296E+00
         21   -1    0    0  501  502  0.00000000000E+00  0.00000000000E+00  0.65778313526E+03  0.65778313526E+03  0.00000000000E+00 0.  1.
         21   -1    0    0  502  503 -0.00000000000E+00 -0.00000000000E+00 -0.13115146112E+03  0.13115146112E+03  0.00000000000E+00 0.  1.
          6    1    1    2  501    0 -0.21605736711E+03  0.71067189464E+02  0.35449196576E+03  0.45532942480E+03  0.17300000000E+03 0.  1.
         -6    1    1    2    0  503  0.21605736711E+03 -0.71067189464E+02  0.17213970838E+03  0.33360517158E+03  0.17300000000E+03 0.  1.
</event>
<event>
 4    1  0.6164307E+000  0.1000000E+03  0.7546771E-02  0.1280296E+00
         21   -1    0    0  501  502  0.00000000000E+00  0.00000000000E+00  0.11861564815E+04  0.11861564815E+04  0.00000000000E+00 0.  1.
         21   -1    0    0  502  503 -0.00000000000E+00 -0.00000000000E+00 -0.41866406770E+02  0.41866406770E+02  0.00000000000E+00 0.  1.
          6    1    1    2  501    0 -0.10997955890E+03 -0.49924745989E+01  0.81251732896E+03  0.83799393676E+03  0.17300000000E+03 0.  1.
         -6    1    1    2    0  503  0.10997955890E+03  0.49924745989E+01  0.33177274573E+03  0.39002895147E+03  0.17300000000E+03 0.  1.
</event>
<event>
 4    1  0.6164307E+000  0.1000000E+03  0.7546771E-02  0.1280296E+00
         21   -1    0    0  501  502  0.00000000000E+00  0.00000000000E+00  0.15387929129E+04  0.15387929129E+04  0.00000000000E+00 0.  1.
         21   -1    0    0  502  503 -0.00000000000E+00 -0.00000000000E+00 -0.23316398532E+03  0.23316398532E+03  0.00000000000E+00 0.  1.
          6    1    1    2  501    0  0.65916742115E+02 -0.11193005683E+02  0.14952511286E+04  0.15067100709E+04  0.17300000000E+03 0.  1.
         -6    1    1    2    0  503 -0.65916742115E+02  0.11193005683E+02 -0.18962220102E+03  0.26524682729E+03  0.17300000000E+03 0.  1.
</event>
<event>
 4    1  0.6164307E+000  0.1000000E+03  0.7546771E-02  0.1280296E+00
         21   -1    0    0  503  502  0.00000000000E+00  0.00000000000E+00  0.90649840744E+03  0.90649840744E+03  0.00000000000E+00 0.  1.
         21   -1    0    0  501  503 -0.00000000000E+00 -0.00000000000E+00 -0.16483292206E+03  0.16483292206E+03  0.00000000000E+00 0.  1.
          6    1    1    2  501    0 -0.15849391902E+03  0.19235707172E+03  0.38914172929E+02  0.30588376594E+03  0.17300000000E+03 0.  1.
         -6    1    1    2    0  502  0.15849391902E+03 -0.19235707172E+03  0.70275131245E+03  0.76544756356E+03  0.17300000000E+03 0.  1.
</event>
<event>
 4    1  0.6164307E+000  0.1000000E+03  0.7546771E-02  0.1280296E+00
         21   -1    0    0  503  502  0.00000000000E+00  0.00000000000E+00  0.37538799198E+03  0.37538799198E+03  0.00000000000E+00 0.  1.
         21   -1    0    0  501  503 -0.00000000000E+00 -0.00000000000E+00 -0.13439534696E+03  0.13439534696E+03  0.00000000000E+00 0.  1.
          6    1    1    2  501    0  0.82038830062E+02  0.13546150644E+02 -0.11880823283E+02  0.19231230277E+03  0.17300000000E+03 0.  1.
         -6    1    1    2    0  502 -0.82038830062E+02 -0.13546150644E+02  0.25287346830E+03  0.31747103617E+03  0.17300000000E+03 0.  1.
</event>
<event>
 4    1  0.6164307E+000  0.1000000E+03  0.7546771E-02  0.1280296E+00
         21   -1    0    0  503  502  0.00000000000E+00  0.00000000000E+00  0.16485087208E+04  0.16485087208E+04  0.00000000000E+00 0.  1.
         21   -1    0    0  501  503 -0.00000000000E+00 -0.00000000000E+00 -0.28468052321E+02  0.28468052321E+02  0.00000000000E+00 0. -1.
          6    1    1    2  501    0  0.11275036302E+03 -0.61470072444E+02  0.72264374693E+03  0.75407837732E+03  0.17300000000E+03 0.  1.
         -6    1    1    2    0  502 -0.11275036302E+03  0.61470072444E+02  0.89739692158E+03  0.92289839583E+03  0.17300000000E+03 0.  1.
</event>
<event>
 4    1  0.6164307E+000  0.1000000E+03  0.7546771E-02  0.1280296E+00
         21   -1    0    0  501  502  0.00000000000E+00  0.00000000000E+00  0.16479298666E+03  0.16479298666E+03  0.00000000000E+00 0.  1.
         21   -1    0    0  502  503 -0.00000000000E+00 -0.00000000000E+00 -0.42969211068E+03  0.42969211068E+03  0.00000000000E+00 0. -1.
          6    1    1    2  501    0  0.43500261048E+02 -0.16937216975E+03 -0.19072662813E+02  0.24672245756E+03  0.17300000000E+03 0.  1.
         -6    1    1    2    0  503 -0.43500261048E+02  0.16937216975E+03 -0.24582646121E+03  0.34776263978E+03  0.17300000000E+03 0. -1.
</event>
<event>
 4    1  0.6164307E+000  0.1000000E+03  0.7546771E-02  0.1280296E+00
         21   -1    0    0  501  502  0.00000000000E+00  0.00000000000E+00  0.41710712209E+03  0.41710712209E+03  0.00000000000E+00 0. -1.
         21   -1    0    0  502  503 -0.00000000000E+00 -0.00000000000E+00 -0.22087687809E+03  0.22087687809E+03  0.00000000000E+00 0. -1.
          6    1    1    2  501    0 -0.23863132778E+03  0.51248901031E+02  0.15200072248E+03  0.33556605920E+03  0.17300000000E+03 0. -1.
         -6    1    1    2    0  503  0.23863132778E+03 -0.51248901031E+02  0.44229521513E+02  0.30241794098E+03  0.17300000000E+03 0. -1.
</event>
<event>
 4    1  0.6164307E+000  0.1000000E+03  0.7546771E-02  0.1280296E+00
         21   -1    0    0  503  502  0.00000000000E+00  0.00000000000E+00  0.28188584182E+03  0.28188584182E+03  0.00000000000E+00 0.  1.
         21   -1    0    0  501  503 -0.00000000000E+00 -0.00000000000E+00 -0.17483164668E+03  0.17483164668E+03  0.00000000000E+00 0.  1.
          6    1    1    2  501    0 -0.47071182677E+02 -0.11587732170E+01 -0.81130975053E+02  0.19679500529E+03  0.17300000000E+03 0.  1.
         -6    1    1    2    0  502  0.47071182677E+02  0.11587732170E+01  0.18818517019E+03  0.25992248320E+03  0.17300000000E+03 0.  1.
</event>
<event>
 4    1  0.6164307E+000  0.1000000E+03  0.7546771E-02  0.1280296E+00
         21   -1    0    0  503  502  0.00000000000E+00  0.00000000000E+00  0.12903753578E+04  0.12903753578E+04  0.00000000000E+00 0.  1.
         21   -1    0    0  501  503 -0.00000000000E+00 -0.00000000000E+00 -0.13546149956E+03  0.13546149956E+03  0.00000000000E+00 0.  1.
          6    1    1    2  501    0 -0.54240790982E+02 -0.17414422384E+03  0.78125168753E+01  0.25151204648E+03  0.17300000000E+03 0.  1.
         -6    1    1    2    0  502  0.54240790982E+02  0.17414422384E+03  0.11471013413E+04  0.11743248108E+04  0.17300000000E+03 0.  1.
</event>
<event>
 4    1  0.6164307E+000  0.1000000E+03  0.7546771E-02  0.1280296E+00
         21   -1    0    0  503  502  0.00000000000E+00  0.00000000000E+00  0.93887605096E+02  0.93887605096E+02  0.00000000000E+00 0.  1.
         21   -1    0    0  501  503 -0.00000000000E+00 -0.00000000000E+00 -0.56140876792E+03  0.56140876792E+03  0.00000000000E+00 0. -1.
          6    1    1    2  501    0 -0.81371978297E+02  0.62827260310E+02 -0.39146774322E+03  0.44016435280E+03  0.17300000000E+03 0.  1.
         -6    1    1    2    0  502  0.81371978297E+02 -0.62827260310E+02 -0.76053419600E+02  0.21513202022E+03  0.17300000000E+03 0.  1.
</event>
<event>
 4    1  0.6164307E+000  0.1000000E+03  0.7546771E-02  0.1280296E+00
         21   -1    0    0  503  502  0.00000000000E+00  0.00000000000E+00  0.12624472057E+03  0.12624472057E+03  0.00000000000E+00 0. -1.
         21   -1    0    0  501  503 -0.00000000000E+00 -0.00000000000E+00 -0.80346938189E+03  0.80346938189E+03  0.00000000000E+00 0. -1.
          6    1    1    2  501    0 -0.13541059086E+02 -0.87409882571E+02 -0.70693869664E+03  0.73315425980E+03  0.17300000000E+03 0. -1.
         -6    1    1    2    0  502  0.13541059086E+02  0.87409882571E+02  0.29714035328E+02  0.19655984266E+03  0.17300000000E+03 0. -1.
</event>
<event>
 4    1  0.6164307E+000  0.1000000E+03  0.7546771E-02  0.1280296E+00
         21   -1    0    0  503  502  0.00000000000E+00  0.00000000000E+00  0.93689487382E+03  0.93689487382E+03  0.00000000000E+00 0. -1.
         21   -1    0    0  501  503 -0.00000000000E+00 -0.00000000000E+00 -0.51634791118E+03  0.51634791118E+03  0.00000000000E+00 0. -1.
          6    1    1    2  501    0 -0.83044947032E+02  0.23457861050E+03 -0.44373793772E+03  0.53736016330E+03  0.17300000000E+03 0. -1.
         -6    1    1    2    0  502  0.83044947032E+02 -0.23457861050E+03  0.86428490036E+03  0.91588262170E+03  0.17300000000E+03 0. -1.
</event>
<event>
 4    1  0.6164307E+000  0.1000000E+03  0.7546771E-02  0.1280296E+00
         21   -1    0    0  501  502  0.00000000000E+00  0.00000000000E+00  0.41994778892E+03  0.41994778892E+03  0.00000000000E+00 0. -1.
         21   -1    0    0  502  503 -0.00000000000E+00 -0.00000000000E+00 -0.10737785955E+03  0.10737785955E+03  0.00000000000E+00 0.  1.
          6    1    1    2  501    0 -0.37131736179E+02  0.37015850442E+02  0.29463203406E+03  0.34566743339E+03  0.17300000000E+03 0. -1.
         -6    1    1    2    0  503  0.37131736179E+02 -0.37015850442E+02  0.17937895309E+02  0.18165821507E+03  0.17300000000E+03 0.  1.
</event>
<event>
 4    1  0.6164307E+000  0.1000000E+03  0.7546771E-02  0.1280296E+00
         21   -1    0    0  501  502  0.00000000000E+00  0.00000000000E+00  0.44804190380E+03  0.44804190380E+03  0.00000000000E+00 0. -1.
         21   -1    0    0  502  503 -0.00000000000E+00 -0.00000000000E+00 -0.10081555095E+03  0.10081555095E+03  0.00000000000E+00 0.  1.
          6    1    1    2  501    0  0.40992441435E+02 -0.10809905886E+03  0.22952253318E+03  0.30979893483E+03  0.17300000000E+03 0. -1.
         -6    1    1    2    0  503 -0.40992441435E+02  0.10809905886E+03  0.11770381967E+03  0.23905851992E+03  0.17300000000E+03 0.  1.
</event>
<event>
 4    1  0.6164307E+000  0.1000000E+03  0.7546771E-02  0.1280296E+00
         21   -1    0    0  501  502  0.00000000000E+00  0.00000000000E+00  0.43838841761E+03  0.43838841761E+03  0.00000000000E+00 0. -1.
         21   -1    0    0  502  503 -0.00000000000E+00 -0.00000000000E+00 -0.44466944262E+03  0.44466944262E+03  0.00000000000E+00 0.  1.
          6    1    1    2  501    0 -0.28178104757E+03 -0.26415361446E+03 -0.12896596098E+03  0.44242390294E+03  0.17300000000E+03 0. -1.
         -6    1    1    2    0  503  0.28178104757E+03  0.26415361446E+03  0.12268493597E+03  0.44063395729E+03  0.17300000000E+03 0.  1.
</event>
<event>
 4    1  0.6164307E+000  0.1000000E+03  0.7546771E-02  0.1280296E+00
         21   -1    0    0  503  502  0.00000000000E+00  0.00000000000E+00  0.39517387602E+02  0.39517387602E+02  0.00000000000E+00 0. -1.
         21   -1    0    0  501  503 -0.00000000000E+00 -0.00000000000E+00 -0.11478499779E+04  0.11478499779E+04  0.00000000000E+00 0. -1.
          6    1    1    2  501    0  0.84487541891E+02 -0.83811893650E+02 -0.65344493882E+03  0.68635403861E+03  0.17300000000E+03 0. -1.
         -6    1    1    2    0  502 -0.84487541891E+02  0.83811893650E+02 -0.45488765147E+03  0.50101332688E+03  0.17300000000E+03 0. -1.
</event>
<event>
 4    1  0.6164307E+000  0.1000000E+03  0.7546771E-02  0.1280296E+00
         21   -1    0    0  503  502  0.00000000000E+00  0.00000000000E+00  0.96355372557E+02  0.96355372557E+02  0.00000000000E+00 0.  1.
         21   -1    0    0  501  503 -0.00000000000E+00 -0.00000000000E+00 -0.54974721675E+03  0.54974721675E+03  0.00000000000E+00 0.  1.
          6    1    1    2  501    0 -0.11633318451E+03 -0.82401960654E+02 -0.29988142304E+03  0.37440801383E+03  0.17300000000E+03 0.  1.
         -6    1    1    2    0  502  0.11633318451E+03  0.82401960654E+02 -0.15351042115E+03  0.27169457547E+03  0.17300000000E+03 0.  1.
</event>
<event>
 4    1  0.6164307E+000  0.1000000E+03  0.7546771E-02  0.1280296E+00
         21   -1    0    0  503  502  0.00000000000E+00  0.00000000000E+00  0.53325552759E+02  0.53325552759E+02  0.00000000000E+00 0.  1.
         21   -1    0    0  501  503 -0.00000000000E+00 -0.00000000000E+00 -0.83458046995E+03  0.83458046995E+03  0.00000000000E+00 0.  1.
          6    1    1    2  501    0  0.11237849934E+02  0.23814946308E+01 -0.64354065994E+03  0.66648746559E+03  0.17300000000E+03 0.  1.
         -6    1    1    2    0  502 -0.11237849934E+02 -0.23814946308E+01 -0.13771425725E+03  0.22141855712E+03  0.17300000000E+03 0.  1.
</event>
<event>
 4    1  0.6164307E+000  0.1000000E+03  0.7546771E-02  0.1280296E+00
         21   -1    0    0  503  502  0.00000000000E+00  0.00000000000E+00  0.19533359328E+03  0.19533359328E+03  0.00000000000E+00 0. -1.
         21   -1    0    0  501  503 -0.00000000000E+00 -0.00000000000E+00 -0.65092518988E+03  0.65092518988E+03  0.00000000000E+00 0.  1.
          6    1    1    2  501    0 -0.42986440933E+02  0.76226351872E+02 -0.58291722008E+03  0.61431244191E+03  0.17300000000E+03 0.  1.
         -6    1    1    2    0  502  0.42986440933E+02 -0.76226351872E+02  0.12732562349E+03  0.23194634125E+03  0.17300000000E+03 0. -1.
</event>
<event>
 4    1  0.6164307E+000  0.1000000E+03  0.7546771E-02  0.1280296E+00
         21   -1    0    0  503  502  0.00000000000E+00  0.00000000000E+00  0.31656788170E+04  0.31656788170E+04  0.00000000000E+00 0. -1.
         21   -1    0    0  501  503 -0.00000000000E+00 -0.00000000000E+00 -0.15880145105E+02  0.15880145105E+02  0.00000000000E+00 0.  1.
          6    1    1    2  501    0  0.12467167087E+03  0.86284669973E+01  0.10872040826E+04  0.11079527035E+04  0.17300000000E+03 0.  1.
         -6    1    1    2    0  502 -0.12467167087E+03 -0.86284669973E+01  0.20625945894E+04  0.20736062587E+04  0.17300000000E+03 0. -1.
</event>
<event>
 4    1  0.6164307E+000  0.1000000E+03  0.7546771E-02  0.1280296E+00
         21   -1    0    0  501  502  0.00000000000E+00  0.00000000000E+00  0.17207707441E+04  0.17207707441E+04  0.00000000000E+00 0. -1.
         21   -1    0    0  502  503 -0.00000000000E+00 -0.00000000000E+00 -0.23586679982E+02  0.23586679982E+02  0.00000000000E+00 0.  1.
          6    1    1    2  501    0  0.29199807718E+02  0.61242809847E+02  0.51171907591E+03  0.54441594685E+03  0.17300000000E+03 0. -1.
         -6    1    1    2    0  503 -0.29199807718E+02 -0.61242809847E+02  0.11854649882E+04  0.11999414772E+04  0.17300000000E+03 0.  1.
</event>
<event>
 4    1  0.6164307E+000  0.1000000E+03  0.7546771E-02  0.1280296E+00
         21   -1    0    0  501  502  0.00000000000E+00  0.00000000000E+00  0.61240156060E+03  0.61240156060E+03  0.00000000000E+00 0. -1.
         21   -1    0    0  502  503 -0.00000000000E+00 -0.00000000000E+00 -0.75027707686E+02  0.75027707686E+02  0.00000000000E+00 0.  1.
          6    1    1    2  501    0 -0.40157076902E+02 -0.28243106019E+02  0.45573935044E+03  0.48993634219E+03  0.17300000000E+03 0. -1.
         -6    1    1    2    0  503  0.40157076902E+02  0.28243106019E+02  0.81634502478E+02  0.19749292610E+03  0.17300000000E+03 0.  1.
</event>
<event>
 4    1  0.6164307E+000  0.1000000E+03  0.7546771E-02  0.1280296E+00
         21   -1    0    0  501  502  0.00000000000E+00  0.00000000000E+00  0.25114134343E+03  0.25114134343E+03  0.00000000000E+00 0. -1.
         21   -1    0    0  502  503 -0.00000000000E+00 -0.00000000000E+00 -0.24611526481E+03  0.24611526481E+03  0.00000000000E+00 0.  1.
          6    1    1    2  501    0  0.19245769101E+02 -0.57650856855E+02  0.17041055947E+03  0.25032534770E+03  0.17300000000E+03 0. -1.
         -6    1    1    2    0  503 -0.19245769101E+02  0.57650856855E+02 -0.16538448084E+03  0.24693126053E+03  0.17300000000E+03 0.  1.
</event>
<event>
 4    1  0.6164307E+000  0.1000000E+03  0.7546771E-02  0.1280296E+00
         21   -1    0    0  501  502  0.00000000000E+00  0.00000000000E+00  0.59930214668E+02  0.59930214668E+02  0.00000000000E+00 0. -1.
         21   -1    0    0  502  503 -0.00000000000E+00 -0.00000000000E+00 -0.69810439738E+03  0.69810439738E+03  0.00000000000E+00 0.  1.
          6    1    1    2  501    0  0.10484921576E+03  0.30080299028E+02 -0.31312170174E+03  0.37399516378E+03  0.17300000000E+03 0. -1.
         -6    1    1    2    0  503 -0.10484921576E+03 -0.30080299028E+02 -0.32505248097E+03  0.38403944826E+03  0.17300000000E+03 0.  1.
</event>
<event>
 4    1  0.6164307E+000  0.1000000E+03  0.7546771E-02  0.1280296E+00
         21   -1    0    0  501  502  0.00000000000E+00  0.00000000000E+00  0.20026167517E+03  0.20026167517E+03  0.00000000000E+00 0.  1.
         21   -1    0    0  502  503 -0.00000000000E+00 -0.00000000000E+00 -0.78235785291E+03  0.78235785291E+03  0.00000000000E+00 0.  1.
          6    1    1    2  501    0  0.14211085885E+03 -0.19176895532E+02  0.11341917937E+03  0.25170649530E+03  0.17300000000E+03 0.  1.
         -6    1    1    2    0  503 -0.14211085885E+03  0.19176895532E+02 -0.69551535711E+03  0.73091303279E+03  0.17300000000E+03 0.  1.
</event>
<event>
 4    1  0.6164307E+000  0.1000000E+03  0.7546771E-02  0.1280296E+00
         21   -1    0    0  501  502  0.00000000000E+00  0.00000000000E+00  0.42764340112E+02  0.42764340112E+02  0.00000000000E+00 0.  1.
         21   -1    0    0  502  503 -0.00000000000E+00 -0.00000000000E+00 -0.14616911637E+04  0.14616911637E+04  0.00000000000E+00 0.  1.
          6    1    1    2  501    0 -0.49261188712E+02  0.17360791763E+02 -0.18963319166E+03  0.26195001275E+03  0.17300000000E+03 0.  1.
         -6    1    1    2    0  503  0.49261188712E+02 -0.17360791763E+02 -0.12292936319E+04  0.12425054911E+04  0.17300000000E+03 0.  1.
</event>
<event>
 4    1  0.6164307E+000  0.1000000E+03  0.7546771E-02  0.1280296E+00
         21   -1    0    0  501  502  0.00000000000E+00  0.00000000000E+00  0.41885596334E+02  0.41885596334E+02  0.00000000000E+00 0.  1.
         21   -1    0    0  502  503 -0.00000000000E+00 -0.00000000000E+00 -0.15899813802E+04  0.15899813802E+04  0.00000000000E+00 0.  1.
          6    1    1    2  501    0  0.55637194602E+01  0.89096600510E+02 -0.23842272674E+03  0.30780441163E+03  0.17300000000E+03 0.  1.
         -6    1    1    2    0  503 -0.55637194602E+01 -0.89096600510E+02 -0.13096730571E+04  0.13240625649E+04  0.17300000000E+03 0.  1.
</event>
<event>
 4    1  0.6164307E+000  0.1000000E+03  0.7546771E-02  0.1280296E+00
         21   -1    0    0  501  502  0.00000000000E+00  0.00000000000E+00  0.59511617795E+02  0.59511617795E+02  0.00000000000E+00 0.  1.
         21   -1    0    0  502  503 -0.00000000000E+00 -0.00000000000E+00 -0.98894966065E+03  0.98894966065E+03  0.00000000000E+00 0.  1.
          6    1    1    2  501    0  0.95734610878E+02 -0.57507967116E+02 -0.18754458081E+03  0.27852154637E+03  0.17300000000E+03 0.  1.
         -6    1    1    2    0  503 -0.95734610878E+02  0.57507967116E+02 -0.74189346205E+03  0.76993973208E+03  0.17300000000E+03 0.  1.
</event>
<event>
 4    1  0.6164307E+000  0.1000000E+03  0.7546771E-02  0.1280296E+00
         21   -1    0    0  501  502  0.00000000000E+00  0.00000000000E+00  0.98188038046E+02  0.98188038046E+02  0.00000000000E+00 0.  1.
         21   -1    0    0  502  503 -0.00000000000E+00 -0.00000000000E+00 -0.41139819985E+03  0.41139819985E+03  0.00000000000E+00 0.  1.
          6    1    1    2  501    0  0.40618769592E+02 -0.83163745825E+02 -0.10135629471E+03  0.22083521354E+03  0.17300000000E+03 0.  1.
         -6    1    1    2    0  503 -0.40618769592E+02  0.83163745825E+02 -0.21185386710E+03  0.28875102436E+03  0.17300000000E+03 0.  1.
</event>
<event>
 4    1  0.6164307E+000  0.1000000E+03  0.7546771E-02  0.1280296E+00
         21   -1    0    0  503  502  0.00000000000E+00  0.00000000000E+00  0.16679485278E+04  0.16679485278E+04  0.00000000000E+00 0.  1.
         21   -1    0    0  501  503 -0.00000000000E+00 -0.00000000000E+00 -0.30334116510E+02  0.30334116510E+02  0.00000000000E+00 0.  1.
          6    1    1    2  501    0  0.10267091744E+02  0.24443021455E+02  0.28541661485E+03  0.33480519486E+03  0.17300000000E+03 0.  1.
         -6    1    1    2    0  502 -0.10267091744E+02 -0.24443021455E+02  0.13521977964E+04  0.13634774495E+04  0.17300000000E+03 0.  1.
</event>
<event>
 4    1  0.6164307E+000  0.1000000E+03  0.7546771E-02  0.1280296E+00
         21   -1    0    0  503  502  0.00000000000E+00  0.00000000000E+00  0.37551543703E+02  0.37551543703E+02  0.00000000000E+00 0.  1.
         21   -1    0    0  501  503 -0.00000000000E+00 -0.00000000000E+00 -0.12534264942E+04  0.12534264942E+04  0.00000000000E+00 0.  1.
          6    1    1    2  501    0 -0.81494761142E+02  0.92274295800E+02 -0.74043390795E+03  0.77027742651E+03  0.17300000000E+03 0.  1.
         -6    1    1    2    0  502  0.81494761142E+02 -0.92274295800E+02 -0.47544104255E+03  0.52070061138E+03  0.17300000000E+03 0.  1.
</event>
<event>
 4    1  0.6164307E+000  0.1000000E+03  0.7546771E-02  0.1280296E+00
         21   -1    0    0  503  502  0.00000000000E+00  0.00000000000E+00  0.10556611118E+03  0.10556611118E+03  0.00000000000E+00 0.  1.
         21   -1    0    0  501  503 -0.00000000000E+00 -0.00000000000E+00 -0.22361805044E+04  0.22361805044E+04  0.00000000000E+00 0.  1.
          6    1    1    2  501    0  0.22570656814E+03 -0.22675815310E+03 -0.18416199956E+04  0.18771936296E+04  0.17300000000E+03 0.  1.
         -6    1    1    2    0  502 -0.22570656814E+03  0.22675815310E+03 -0.28899439760E+03  0.46455298594E+03  0.17300000000E+03 0.  1.
</event>
<event>
 4    1  0.6164307E+000  0.1000000E+03  0.7546771E-02  0.1280296E+00
         21   -1    0    0  503  502  0.00000000000E+00  0.00000000000E+00  0.44859180869E+03  0.44859180869E+03  0.00000000000E+00 0.  1.
         21   -1    0    0  501  503 -0.00000000000E+00 -0.00000000000E+00 -0.97287598444E+02  0.97287598444E+02  0.00000000000E+00 0. -1.
          6    1    1    2  501    0  0.10669068253E+03  0.28194478194E+02  0.12445447497E+03  0.23999113875E+03  0.17300000000E+03 0. -1.
         -6    1    1    2    0  502 -0.10669068253E+03 -0.28194478194E+02  0.22684973528E+03  0.30588826839E+03  0.17300000000E+03 0.  1.
</event>
<event>
 4    1  0.6164307E+000  0.1000000E+03  0.7546771E-02  0.1280296E+00
         21   -1    0    0  503  502  0.00000000000E+00  0.00000000000E+00  0.19711559613E+03  0.19711559613E+03  0.00000000000E+00 0.  1.
         21   -1    0    0  501  503 -0.00000000000E+00 -0.00000000000E+00 -0.57129673986E+03  0.57129673986E+03  0.00000000000E+00 0. -1.
          6    1    1    2  501    0  0.24138577742E+03 -0.87468792053E+02 -0.33533205429E+03  0.45639288969E+03  0.17300000000E+03 0. -1.
         -6    1    1    2    0  502 -0.24138577742E+03  0.87468792053E+02 -0.38849089438E+02  0.31201944631E+03  0.17300000000E+03 0.  1.
</event>
<event>
 4    1  0.6164307E+000  0.1000000E+03  0.7546771E-02  0.1280296E+00
         21   -1    0    0  501  502  0.00000000000E+00  0.00000000000E+00  0.15837468420E+03  0.15837468420E+03  0.00000000000E+00 0. -1.
         21   -1    0    0  502  503 -0.00000000000E+00 -0.00000000000E+00 -0.30620567571E+03  0.30620567571E+03  0.00000000000E+00 0.  1.
          6    1    1    2  501    0 -0.38499935736E+02 -0.58230430886E+02  0.49518222622E+02  0.19301316666E+03  0.17300000000E+03 0. -1.
         -6    1    1    2    0  503  0.38499935736E+02  0.58230430886E+02 -0.19734921413E+03  0.27156719325E+03  0.17300000000E+03 0. -1.
</event>
<event>
 4    1  0.6164307E+000  0.1000000E+03  0.7546771E-02  0.1280296E+00
         21   -1    0    0  501  502  0.00000000000E+00  0.00000000000E+00  0.99249705306E+02  0.99249705306E+02  0.00000000000E+00 0.  1.
         21   -1    0    0  502  503 -0.00000000000E+00 -0.00000000000E+00 -0.40690169565E+03  0.40690169565E+03  0.00000000000E+00 0.  1.
          6    1    1    2  501    0  0.49239235447E+02 -0.43999374225E+02 -0.55505711824E+02  0.19331407420E+03  0.17300000000E+03 0.  1.
         -6    1    1    2    0  503 -0.49239235447E+02  0.43999374225E+02 -0.25214627852E+03  0.31283732676E+03  0.17300000000E+03 0.  1.
</event>
<event>
 4    1  0.6164307E+000  0.1000000E+03  0.7546771E-02  0.1280296E+00
         21   -1    0    0  503  502  0.00000000000E+00  0.00000000000E+00  0.15758635682E+03  0.15758635682E+03  0.00000000000E+00 0.  1.
         21   -1    0    0  501  503 -0.00000000000E+00 -0.00000000000E+00 -0.22601024561E+03  0.22601024561E+03  0.00000000000E+00 0.  1.
          6    1    1    2  501    0 -0.70771096451E+02  0.25982306802E+02 -0.32309849536E+02  0.19145901581E+03  0.17300000000E+03 0. -1.
         -6    1    1    2    0  502  0.70771096451E+02 -0.25982306802E+02 -0.36114039253E+02  0.19213758662E+03  0.17300000000E+03 0. -1.
</event>
<event>
 4    1  0.6164307E+000  0.1000000E+03  0.7546771E-02  0.1280296E+00
         21   -1    0    0  503  502  0.00000000000E+00  0.00000000000E+00  0.57200203274E+02  0.57200203274E+02  0.00000000000E+00 0.  1.
         21   -1    0    0  501  503 -0.00000000000E+00 -0.00000000000E+00 -0.71801122687E+03  0.71801122687E+03  0.00000000000E+00 0.  1.
          6    1    1    2  501    0 -0.56568037494E+02 -0.10435729924E+02 -0.49967438430E+03  0.53189504383E+03  0.17300000000E+03 0. -1.
         -6    1    1    2    0  502  0.56568037494E+02  0.10435729924E+02 -0.16113663930E+03  0.24331638631E+03  0.17300000000E+03 0. -1.
</event>
<event>
 4    1  0.6164307E+000  0.1000000E+03  0.7546771E-02  0.1280296E+00
         21   -1    0    0  501  502  0.00000000000E+00  0.00000000000E+00  0.32659058991E+03  0.32659058991E+03  0.00000000000E+00 0. -1.
         21   -1    0    0  502  503 -0.00000000000E+00 -0.00000000000E+00 -0.10198173057E+03  0.10198173057E+03  0.00000000000E+00 0.  1.
          6    1    1    2  501    0  0.52223631115E+02 -0.21794381848E+02  0.96772911296E+02  0.20614630505E+03  0.17300000000E+03 0. -1.
         -6    1    1    2    0  503 -0.52223631115E+02  0.21794381848E+02  0.12783594804E+03  0.22242601543E+03  0.17300000000E+03 0.  1.
</event>
<event>
 4    1  0.6164307E+000  0.1000000E+03  0.7546771E-02  0.1280296E+00
         21   -1    0    0  501  502  0.00000000000E+00  0.00000000000E+00  0.33624005842E+03  0.33624005842E+03  0.00000000000E+00 0. -1.
         21   -1    0    0  502  503 -0.00000000000E+00 -0.00000000000E+00 -0.11084682221E+03  0.11084682221E+03  0.00000000000E+00 0.  1.
          6    1    1    2  501    0  0.23220878995E+02  0.69580868164E+02  0.16397834018E+03  0.24939647649E+03  0.17300000000E+03 0. -1.
         -6    1    1    2    0  503 -0.23220878995E+02 -0.69580868164E+02  0.61414896031E+02  0.19769040414E+03  0.17300000000E+03 0.  1.
</event>
<event>
 4    1  0.6164307E+000  0.1000000E+03  0.7546771E-02  0.1280296E+00
         21   -1    0    0  501  502  0.00000000000E+00  0.00000000000E+00  0.27430376701E+03  0.27430376701E+03  0.00000000000E+00 0. -1.
         21   -1    0    0  502  503 -0.00000000000E+00 -0.00000000000E+00 -0.12181015899E+03  0.12181015899E+03  0.00000000000E+00 0.  1.
          6    1    1    2  501    0  0.57682695307E+02 -0.12251156913E+02  0.79030660104E+02  0.19912867553E+03  0.17300000000E+03 0. -1.
         -6    1    1    2    0  503 -0.57682695307E+02  0.12251156913E+02  0.73462947919E+02  0.19698525046E+03  0.17300000000E+03 0.  1.
</event>
<event>
 4    1  0.6164307E+000  0.1000000E+03  0.7546771E-02  0.1280296E+00
         21   -1    0    0  503  502  0.00000000000E+00  0.00000000000E+00  0.30399990334E+03  0.30399990334E+03  0.00000000000E+00 0.  1.
         21   -1    0    0  501  503 -0.00000000000E+00 -0.00000000000E+00 -0.15417511896E+03  0.15417511896E+03  0.00000000000E+00 0.  1.
          6    1    1    2  501    0 -0.12474021760E+03 -0.24404537461E+02  0.45273703771E+02  0.21939555964E+03  0.17300000000E+03 0.  1.
         -6    1    1    2    0  502  0.12474021760E+03  0.24404537461E+02  0.10455108061E+03  0.23877946267E+03  0.17300000000E+03 0.  1.
</event>
<event>
 4    1  0.6164307E+000  0.1000000E+03  0.7546771E-02  0.1280296E+00
         21   -1    0    0  503  502  0.00000000000E+00  0.00000000000E+00  0.24804040281E+03  0.24804040281E+03  0.00000000000E+00 0. -1.
         21   -1    0    0  501  503 -0.00000000000E+00 -0.00000000000E+00 -0.25165898883E+03  0.25165898883E+03  0.00000000000E+00 0.  1.
          6    1    1    2  501    0  0.17126538332E+03  0.31533865431E+02 -0.48354909098E+02  0.25018675710E+03  0.17300000000E+03 0.  1.
         -6    1    1    2    0  502 -0.17126538332E+03 -0.31533865431E+02  0.44736323072E+02  0.24951263454E+03  0.17300000000E+03 0. -1.
</event>
<event>
 4    1  0.6164307E+000  0.1000000E+03  0.7546771E-02  0.1280296E+00
         21   -1    0    0  503  502  0.00000000000E+00  0.00000000000E+00  0.20796969360E+03  0.20796969360E+03  0.00000000000E+00 0. -1.
         21   -1    0    0  501  503 -0.00000000000E+00 -0.00000000000E+00 -0.11403639262E+04  0.11403639262E+04  0.00000000000E+00 0.  1.
          6    1    1    2  501    0  0.11372549587E+03 -0.14312777865E+02 -0.10760869994E+04  0.10959154048E+04  0.17300000000E+03 0.  1.
         -6    1    1    2    0  502 -0.11372549587E+03  0.14312777865E+02  0.14369276687E+03  0.25241821501E+03  0.17300000000E+03 0. -1.
</event>
<event>
 4    1  0.6164307E+000  0.1000000E+03  0.7546771E-02  0.1280296E+00
         21   -1    0    0  503  502  0.00000000000E+00  0.00000000000E+00  0.17737929416E+03  0.17737929416E+03  0.00000000000E+00 0. -1.
         21   -1    0    0  501  503 -0.00000000000E+00 -0.00000000000E+00 -0.31585929791E+03  0.31585929791E+03  0.00000000000E+00 0. -1.
          6    1    1    2  501    0 -0.74560973891E+02  0.12142646706E+03 -0.14854937384E+03  0.26888592785E+03  0.17300000000E+03 0. -1.
         -6    1    1    2    0  502  0.74560973891E+02 -0.12142646706E+03  0.10069370084E+02  0.22435266422E+03  0.17300000000E+03 0. -1.
</event>
<event>
 4    1  0.6164307E+000  0.1000000E+03  0.7546771E-02  0.1280296E+00
         21   -1    0    0  503  502  0.00000000000E+00  0.00000000000E+00  0.42526403662E+03  0.42526403662E+03  0.00000000000E+00 0. -1.
         21   -1    0    0  501  503 -0.00000000000E+00 -0.00000000000E+00 -0.34226501255E+03  0.34226501255E+03  0.00000000000E+00 0. -1.
          6    1    1    2  501    0 -0.18349865843E+03 -0.11873467439E+03 -0.22052564880E+03  0.35542965876E+03  0.17300000000E+03 0. -1.
         -6    1    1    2    0  502  0.18349865843E+03  0.11873467439E+03  0.30352467286E+03  0.41209939042E+03  0.17300000000E+03 0. -1.
</event>
<event>
 4    1  0.6164307E+000  0.1000000E+03  0.7546771E-02  0.1280296E+00
         21   -1    0    0  503  502  0.00000000000E+00  0.00000000000E+00  0.13481007716E+04  0.13481007716E+04  0.00000000000E+00 0. -1.
         21   -1    0    0  501  503 -0.00000000000E+00 -0.00000000000E+00 -0.34051874745E+02  0.34051874745E+02  0.00000000000E+00 0. -1.
          6    1    1    2  501    0 -0.27927274348E+02 -0.55162901415E+02  0.30143844995E+03  0.35301135599E+03  0.17300000000E+03 0. -1.
         -6    1    1    2    0  502  0.27927274348E+02  0.55162901415E+02  0.10126104469E+04  0.10291412903E+04  0.17300000000E+03 0. -1.
</event>
<event>
 4    1  0.6164307E+000  0.1000000E+03  0.7546771E-02  0.1280296E+00
         21   -1    0    0  501  502  0.00000000000E+00  0.00000000000E+00  0.34820689012E+02  0.34820689012E+02  0.00000000000E+00 0.  1.
         21   -1    0    0  502  503 -0.00000000000E+00 -0.00000000000E+00 -0.10559392860E+04  0.10559392860E+04  0.00000000000E+00 0.  1.
          6    1    1    2  501    0 -0.26150914362E+02  0.29784624817E+02 -0.71700514757E+03  0.73864495926E+03  0.17300000000E+03 0.  1.
         -6    1    1    2    0  503  0.26150914362E+02 -0.29784624817E+02 -0.30411344938E+03  0.35211501571E+03  0.17300000000E+03 0.  1.
</event>
<event>
 4    1  0.6164307E+000  0.1000000E+03  0.7546771E-02  0.1280296E+00
         21   -1    0    0  501  502  0.00000000000E+00  0.00000000000E+00  0.52618149399E+03  0.52618149399E+03  0.00000000000E+00 0.  1.
         21   -1    0    0  502  503 -0.00000000000E+00 -0.00000000000E+00 -0.88788365566E+02  0.88788365566E+02  0.00000000000E+00 0. -1.
          6    1    1    2  501    0 -0.10539214379E+03  0.40011210137E+02  0.30957948523E+03  0.37212478899E+03  0.17300000000E+03 0.  1.
         -6    1    1    2    0  503  0.10539214379E+03 -0.40011210137E+02  0.12781364320E+03  0.24284507056E+03  0.17300000000E+03 0. -1.
</event>
<event>
 4    1  0.6164307E+000  0.1000000E+03  0.7546771E-02  0.1280296E+00
         21   -1    0    0  501  502  0.00000000000E+00  0.00000000000E+00  0.63169928371E+03  0.63169928371E+03  0.00000000000E+00 0.  1.
         21   -1    0    0  502  503 -0.00000000000E+00 -0.00000000000E+00 -0.42628878948E+03  0.42628878948E+03  0.00000000000E+00 0. -1.
          6    1    1    2  501    0 -0.15260945339E+03  0.39274224430E+02  0.57485829665E+03  0.62066349272E+03  0.17300000000E+03 0.  1.
         -6    1    1    2    0  503  0.15260945339E+03 -0.39274224430E+02 -0.36944780242E+03  0.43732458047E+03  0.17300000000E+03 0. -1.
</event>
<event>
 4    1  0.6164307E+000  0.1000000E+03  0.7546771E-02  0.1280296E+00
         21   -1    0    0  501  502  0.00000000000E+00  0.00000000000E+00  0.25703433619E+03  0.25703433619E+03  0.00000000000E+00 0.  1.
         21   -1    0    0  502  503 -0.00000000000E+00 -0.00000000000E+00 -0.17952814253E+03  0.17952814253E+03  0.00000000000E+00 0. -1.
          6    1    1    2  501    0 -0.88949493344E+02  0.41970474209E+02  0.12094365280E+03  0.23287314191E+03  0.17300000000E+03 0.  1.
         -6    1    1    2    0  503  0.88949493344E+02 -0.41970474209E+02 -0.43437459135E+02  0.20368933680E+03  0.17300000000E+03 0.  1.
</event>
<event>
 4    1  0.6164307E+000  0.1000000E+03  0.7546771E-02  0.1280296E+00
         21   -1    0    0  501  502  0.00000000000E+00  0.00000000000E+00  0.30269366596E+03  0.30269366596E+03  0.00000000000E+00 0.  1.
         21   -1    0    0  502  503 -0.00000000000E+00 -0.00000000000E+00 -0.23274419825E+03  0.23274419825E+03  0.00000000000E+00 0. -1.
          6    1    1    2  501    0 -0.24765687681E+01 -0.68316443603E+02  0.22594686518E+03  0.29266748323E+03  0.17300000000E+03 0.  1.
         -6    1    1    2    0  503  0.24765687681E+01  0.68316443603E+02 -0.15599739747E+03  0.24277038097E+03  0.17300000000E+03 0.  1.
</event>
<event>
 4    1  0.6164307E+000  0.1000000E+03  0.7546771E-02  0.1280296E+00
         21   -1    0    0  501  502  0.00000000000E+00  0.00000000000E+00  0.23730420792E+02  0.23730420792E+02  0.00000000000E+00 0.  1.
         21   -1    0    0  502  503 -0.00000000000E+00 -0.00000000000E+00 -0.17633395244E+04  0.17633395244E+04  0.00000000000E+00 0. -1.
          6    1    1    2  501    0  0.23077942438E+01 -0.81813495702E+02 -0.55430270631E+03  0.58641219651E+03  0.17300000000E+03 0.  1.
         -6    1    1    2    0  503 -0.23077942438E+01  0.81813495702E+02 -0.11853063972E+04  0.12006577486E+04  0.17300000000E+03 0. -1.
</event>
<event>
 4    1  0.6164307E+000  0.1000000E+03  0.7546771E-02  0.1280296E+00
         21   -1    0    0  501  502  0.00000000000E+00  0.00000000000E+00  0.10681300106E+03  0.10681300106E+03  0.00000000000E+00 0.  1.
         21   -1    0    0  502  503 -0.00000000000E+00 -0.00000000000E+00 -0.39738236594E+03  0.39738236594E+03  0.00000000000E+00 0. -1.
          6    1    1    2  501    0  0.45736307111E+02 -0.65858825139E+02 -0.49814286943E+02  0.19707779637E+03  0.17300000000E+03 0.  1.
         -6    1    1    2    0  503 -0.45736307111E+02  0.65858825139E+02 -0.24075507794E+03  0.30711757063E+03  0.17300000000E+03 0. -1.
</event>
<event>
 4    1  0.6164307E+000  0.1000000E+03  0.7546771E-02  0.1280296E+00
         21   -1    0    0  501  502  0.00000000000E+00  0.00000000000E+00  0.21549608612E+03  0.21549608612E+03  0.00000000000E+00 0. -1.
         21   -1    0    0  502  503 -0.00000000000E+00 -0.00000000000E+00 -0.20907599900E+03  0.20907599900E+03  0.00000000000E+00 0. -1.
          6    1    1    2  501    0 -0.29668451057E+02  0.68474109507E+02  0.10098184217E+03  0.21376448047E+03  0.17300000000E+03 0. -1.
         -6    1    1    2    0  503  0.29668451057E+02 -0.68474109507E+02 -0.94561755053E+02  0.21080760465E+03  0.17300000000E+03 0. -1.
</event>
<event>
 4    1  0.6164307E+000  0.1000000E+03  0.7546771E-02  0.1280296E+00
         21   -1    0    0  501  502  0.00000000000E+00  0.00000000000E+00  0.51718850588E+03  0.51718850588E+03  0.00000000000E+00 0. -1.
         21   -1    0    0  502  503 -0.00000000000E+00 -0.00000000000E+00 -0.39971455518E+03  0.39971455518E+03  0.00000000000E+00 0. -1.
          6    1    1    2  501    0  0.15869573091E+03  0.99490484780E+02  0.43831720284E+03  0.50708348610E+03  0.17300000000E+03 0. -1.
         -6    1    1    2    0  503 -0.15869573091E+03 -0.99490484780E+02 -0.32084325214E+03  0.40981957495E+03  0.17300000000E+03 0. -1.
</event>
<event>
 4    1  0.6164307E+000  0.1000000E+03  0.7546771E-02  0.1280296E+00
         21   -1    0    0  501  502  0.00000000000E+00  0.00000000000E+00  0.47168109161E+03  0.47168109161E+03  0.00000000000E+00 0. -1.
         21   -1    0    0  502  503 -0.00000000000E+00 -0.00000000000E+00 -0.21120573248E+03  0.21120573248E+03  0.00000000000E+00 0. -1.
          6    1    1    2  501    0 -0.65820285644E+02  0.12924721621E+02  0.40645025193E+03  0.44679991688E+03  0.17300000000E+03 0. -1.
         -6    1    1    2    0  503  0.65820285644E+02 -0.12924721621E+02 -0.14597489279E+03  0.23608690721E+03  0.17300000000E+03 0. -1.
</event>
<event>
 4    1  0.6164307E+000  0.1000000E+03  0.7546771E-02  0.1280296E+00
         21   -1    0    0  501  502  0.00000000000E+00  0.00000000000E+00  0.16322780715E+04  0.16322780715E+04  0.00000000000E+00 0. -1.
         21   -1    0    0  502  503 -0.00000000000E+00 -0.00000000000E+00 -0.51703738216E+02  0.51703738216E+02  0.00000000000E+00 0. -1.
          6    1    1    2  501    0  0.20725310523E+03 -0.75276642938E+02  0.10118814409E+04  0.10499778441E+04  0.17300000000E+03 0. -1.
         -6    1    1    2    0  503 -0.20725310523E+03  0.75276642938E+02  0.56869289234E+03  0.63400396560E+03  0.17300000000E+03 0. -1.
</event>
<event>
 4    1  0.6164307E+000  0.1000000E+03  0.7546771E-02  0.1280296E+00
         21   -1    0    0  503  502  0.00000000000E+00  0.00000000000E+00  0.20155913047E+03  0.20155913047E+03  0.00000000000E+00 0. -1.
         21   -1    0    0  501  503 -0.00000000000E+00 -0.00000000000E+00 -0.16576273186E+03  0.16576273186E+03  0.00000000000E+00 0. -1.
          6    1    1    2  501    0 -0.49979032668E+01 -0.72632454332E+01 -0.40726867439E+02  0.17794777746E+03  0.17300000000E+03 0. -1.
         -6    1    1    2    0  502  0.49979032668E+01  0.72632454332E+01  0.76523266047E+02  0.18937408486E+03  0.17300000000E+03 0. -1.
</event>
<event>
 4    1  0.6164307E+000  0.1000000E+03  0.7546771E-02  0.1280296E+00
         21   -1    0    0  503  502  0.00000000000E+00  0.00000000000E+00  0.42121103357E+02  0.42121103357E+02  0.00000000000E+00 0. -1.
         21   -1    0    0  501  503 -0.00000000000E+00 -0.00000000000E+00 -0.14596196689E+04  0.14596196689E+04  0.00000000000E+00 0. -1.
          6    1    1    2  501    0 -0.28578937905E+02 -0.11750083306E+03 -0.11027578272E+04  0.11227764813E+04  0.17300000000E+03 0. -1.
         -6    1    1    2    0  502  0.28578937905E+02  0.11750083306E+03 -0.31474073832E+03  0.37896429096E+03  0.17300000000E+03 0. -1.
</event>
<event>
 4    1  0.6164307E+000  0.1000000E+03  0.7546771E-02  0.1280296E+00
         21   -1    0    0  503  502  0.00000000000E+00  0.00000000000E+00  0.21285744356E+03  0.21285744356E+03  0.00000000000E+00 0. -1.
         21   -1    0    0  501  503 -0.00000000000E+00 -0.00000000000E+00 -0.15683169009E+03  0.15683169009E+03  0.00000000000E+00 0. -1.
          6    1    1    2  501    0 -0.51505839364E+01 -0.10761093256E+02  0.86230612360E+02  0.19366736470E+03  0.17300000000E+03 0. -1.
         -6    1    1    2    0  502  0.51505839364E+01  0.10761093256E+02 -0.30204858895E+02  0.17602176895E+03  0.17300000000E+03 0. -1.
</event>
<event>
 4    1  0.6164307E+000  0.1000000E+03  0.7546771E-02  0.1280296E+00
         21   -1    0    0  501  502  0.00000000000E+00  0.00000000000E+00  0.12539945806E+04  0.12539945806E+04  0.00000000000E+00 0.  1.
         21   -1    0    0  502  503 -0.00000000000E+00 -0.00000000000E+00 -0.38904788873E+02  0.38904788873E+02  0.00000000000E+00 0.  1.
          6    1    1    2  501    0 -0.90413673008E+01 -0.44019808814E+02  0.98732253290E+03  0.10033714536E+04  0.17300000000E+03 0.  1.
         -6    1    1    2    0  503  0.90413673008E+01  0.44019808814E+02  0.22776725885E+03  0.28952791592E+03  0.17300000000E+03 0.  1.
</event>
<event>
 4    1  0.6164307E+000  0.1000000E+03  0.7546771E-02  0.1280296E+00
         21   -1    0    0  501  502  0.00000000000E+00  0.00000000000E+00  0.16997815905E+03  0.16997815905E+03  0.00000000000E+00 0.  1.
         21   -1    0    0  502  503 -0.00000000000E+00 -0.00000000000E+00 -0.37139864929E+03  0.37139864929E+03  0.00000000000E+00 0.  1.
          6    1    1    2  501    0 -0.84243475355E+02 -0.36945191119E+02  0.68739840612E+02  0.20764410893E+03  0.17300000000E+03 0.  1.
         -6    1    1    2    0  503  0.84243475355E+02  0.36945191119E+02 -0.27016033085E+03  0.33373269940E+03  0.17300000000E+03 0.  1.
</event>
<event>
 4    1  0.6164307E+000  0.1000000E+03  0.7546771E-02  0.1280296E+00
         21   -1    0    0  501  502  0.00000000000E+00  0.00000000000E+00  0.22446966913E+03  0.22446966913E+03  0.00000000000E+00 0.  1.
         21   -1    0    0  502  503 -0.00000000000E+00 -0.00000000000E+00 -0.38085404743E+03  0.38085404743E+03  0.00000000000E+00 0.  1.
          6    1    1    2  501    0  0.64229756243E+02  0.20829649647E+03  0.14672665081E+02  0.27867037720E+03  0.17300000000E+03 0.  1.
         -6    1    1    2    0  503 -0.64229756243E+02 -0.20829649647E+03 -0.17105704338E+03  0.32665333937E+03  0.17300000000E+03 0.  1.
</event>
<event>
 4    1  0.6164307E+000  0.1000000E+03  0.7546771E-02  0.1280296E+00
         21   -1    0    0  501  502  0.00000000000E+00  0.00000000000E+00  0.40270835454E+03  0.40270835454E+03  0.00000000000E+00 0.  1.
         21   -1    0    0  502  503 -0.00000000000E+00 -0.00000000000E+00 -0.15316324168E+03  0.15316324168E+03  0.00000000000E+00 0.  1.
          6    1    1    2  501    0 -0.12268359073E+03 -0.45580462717E+02  0.26009797121E+03  0.33868687108E+03  0.17300000000E+03 0.  1.
         -6    1    1    2    0  503  0.12268359073E+03  0.45580462717E+02 -0.10552858353E+02  0.21718472514E+03  0.17300000000E+03 0.  1.
</event>
<event>
 4    1  0.6164307E+000  0.1000000E+03  0.7546771E-02  0.1280296E+00
         21   -1    0    0  501  502  0.00000000000E+00  0.00000000000E+00  0.14909353251E+03  0.14909353251E+03  0.00000000000E+00 0.  1.
         21   -1    0    0  502  503 -0.00000000000E+00 -0.00000000000E+00 -0.30298399188E+03  0.30298399188E+03  0.00000000000E+00 0. -1.
          6    1    1    2  501    0  0.44040030839E+02  0.64866747283E+02  0.24489443510E+02  0.19150966572E+03  0.17300000000E+03 0.  1.
         -6    1    1    2    0  503 -0.44040030839E+02 -0.64866747283E+02 -0.17837990289E+03  0.26056785867E+03  0.17300000000E+03 0. -1.
</event>
<event>
 4    1  0.6164307E+000  0.1000000E+03  0.7546771E-02  0.1280296E+00
         21   -1    0    0  503  502  0.00000000000E+00  0.00000000000E+00  0.35198733630E+02  0.35198733630E+02  0.00000000000E+00 0.  1.
         21   -1    0    0  501  503 -0.00000000000E+00 -0.00000000000E+00 -0.16842983658E+04  0.16842983658E+04  0.00000000000E+00 0. -1.
          6    1    1    2  501    0  0.31014724086E+02  0.70425841428E+02 -0.13650873661E+04  0.13781560976E+04  0.17300000000E+03 0.  1.
         -6    1    1    2    0  502 -0.31014724086E+02 -0.70425841428E+02 -0.28401226603E+03  0.34134100179E+03  0.17300000000E+03 0. -1.
</event>
<event>
 4    1  0.6164307E+000  0.1000000E+03  0.7546771E-02  0.1280296E+00
         21   -1    0    0  503  502  0.00000000000E+00  0.00000000000E+00  0.99834598135E+02  0.99834598135E+02  0.00000000000E+00 0.  1.
         21   -1    0    0  501  503 -0.00000000000E+00 -0.00000000000E+00 -0.91356551764E+03  0.91356551764E+03  0.00000000000E+00 0. -1.
          6    1    1    2  501    0 -0.16039802206E+03 -0.26620747649E+02 -0.72003624418E+03  0.75816712051E+03  0.17300000000E+03 0.  1.
         -6    1    1    2    0  502  0.16039802206E+03  0.26620747649E+02 -0.93694675321E+02  0.25523299526E+03  0.17300000000E+03 0. -1.
</event>
<event>
 4    1  0.6164307E+000  0.1000000E+03  0.7546771E-02  0.1280296E+00
         21   -1    0    0  501  502  0.00000000000E+00  0.00000000000E+00  0.21992262083E+03  0.21992262083E+03  0.00000000000E+00 0.  1.
         21   -1    0    0  502  503 -0.00000000000E+00 -0.00000000000E+00 -0.21018890321E+03  0.21018890321E+03  0.00000000000E+00 0.  1.
          6    1    1    2  501    0 -0.88815202582E+02 -0.88012456996E+02  0.30602065510E+02  0.21563816733E+03  0.17300000000E+03 0.  1.
         -6    1    1    2    0  503  0.88815202582E+02  0.88012456996E+02 -0.20868347893E+02  0.21447335671E+03  0.17300000000E+03 0.  1.
</event>
<event>
 4    1  0.6164307E+000  0.1000000E+03  0.7546771E-02  0.1280296E+00
         21   -1    0    0  501  502  0.00000000000E+00  0.00000000000E+00  0.74144093026E+02  0.74144093026E+02  0.00000000000E+00 0.  1.
         21   -1    0    0  502  503 -0.00000000000E+00 -0.00000000000E+00 -0.85960343944E+03  0.85960343944E+03  0.00000000000E+00 0.  1.
          6    1    1    2  501    0  0.10356633074E+03  0.35765523843E+02 -0.11967855990E+03  0.23718582432E+03  0.17300000000E+03 0.  1.
         -6    1    1    2    0  503 -0.10356633074E+03 -0.35765523843E+02 -0.66578078652E+03  0.69656170815E+03  0.17300000000E+03 0.  1.
</event>
<event>
 4    1  0.6164307E+000  0.1000000E+03  0.7546771E-02  0.1280296E+00
         21   -1    0    0  501  502  0.00000000000E+00  0.00000000000E+00  0.28031836349E+02  0.28031836349E+02  0.00000000000E+00 0. -1.
         21   -1    0    0  502  503 -0.00000000000E+00 -0.00000000000E+00 -0.16113236128E+04  0.16113236128E+04  0.00000000000E+00 0. -1.
          6    1    1    2  501    0 -0.61424127966E+02  0.10520837322E+03 -0.71473850836E+03  0.74540046997E+03  0.17300000000E+03 0. -1.
         -6    1    1    2    0  503  0.61424127966E+02 -0.10520837322E+03 -0.86855326808E+03  0.89395497917E+03  0.17300000000E+03 0. -1.
</event>
<event>
 4    1  0.6164307E+000  0.1000000E+03  0.7546771E-02  0.1280296E+00
         21   -1    0    0  503  502  0.00000000000E+00  0.00000000000E+00  0.88036474789E+02  0.88036474789E+02  0.00000000000E+00 0.  1.
         21   -1    0    0  501  503 -0.00000000000E+00 -0.00000000000E+00 -0.50531106150E+03  0.50531106150E+03  0.00000000000E+00 0.  1.
          6    1    1    2  501    0  0.10956680653E+03 -0.14651271167E+02 -0.27663932803E+03  0.34449653504E+03  0.17300000000E+03 0.  1.
         -6    1    1    2    0  502 -0.10956680653E+03  0.14651271167E+02 -0.14063525868E+03  0.24885100125E+03  0.17300000000E+03 0.  1.
</event>
<event>
 4    1  0.6164307E+000  0.1000000E+03  0.7546771E-02  0.1280296E+00
         21   -1    0    0  503  502  0.00000000000E+00  0.00000000000E+00  0.14566280901E+04  0.14566280901E+04  0.00000000000E+00 0.  1.
         21   -1    0    0  501  503 -0.00000000000E+00 -0.00000000000E+00 -0.61561943332E+02  0.61561943332E+02  0.00000000000E+00 0.  1.
          6    1    1    2  501    0 -0.58957900384E+02 -0.18384724793E+02  0.98035588742E+02  0.20821625485E+03  0.17300000000E+03 0.  1.
         -6    1    1    2    0  502  0.58957900384E+02  0.18384724793E+02  0.12970305581E+04  0.13099737786E+04  0.17300000000E+03 0.  1.
</event>
<event>
 4    1  0.6164307E+000  0.1000000E+03  0.7546771E-02  0.1280296E+00
         21   -1    0    0  503  502  0.00000000000E+00  0.00000000000E+00  0.18946063068E+03  0.18946063068E+03  0.00000000000E+00 0.  1.
         21   -1    0    0  501  503 -0.00000000000E+00 -0.00000000000E+00 -0.23000071957E+03  0.23000071957E+03  0.00000000000E+00 0.  1.
          6    1    1    2  501    0  0.34595437593E+02  0.25373440621E+02  0.88898390794E+02  0.19917976724E+03  0.17300000000E+03 0.  1.
         -6    1    1    2    0  502 -0.34595437593E+02 -0.25373440621E+02 -0.12943847968E+03  0.22028158301E+03  0.17300000000E+03 0.  1.
</event>
<event>
 4    1  0.6164307E+000  0.1000000E+03  0.7546771E-02  0.1280296E+00
         21   -1    0    0  501  502  0.00000000000E+00  0.00000000000E+00  0.61443186975E+02  0.61443186975E+02  0.00000000000E+00 0. -1.
         21   -1    0    0  502  503 -0.00000000000E+00 -0.00000000000E+00 -0.16941632940E+04  0.16941632940E+04  0.00000000000E+00 0.  1.
          6    1    1    2  501    0  0.22737751651E+02 -0.56439491898E+02 -0.94148577410E+02  0.20614406667E+03  0.17300000000E+03 0.  1.
         -6    1    1    2    0  503 -0.22737751651E+02  0.56439491898E+02 -0.15385715296E+04  0.15494624143E+04  0.17300000000E+03 0. -1.
</event>
<event>
 4    1  0.6164307E+000  0.1000000E+03  0.7546771E-02  0.1280296E+00
         21   -1    0    0  501  502  0.00000000000E+00  0.00000000000E+00  0.30672207773E+03  0.30672207773E+03  0.00000000000E+00 0.  1.
         21   -1    0    0  502  503 -0.00000000000E+00 -0.00000000000E+00 -0.11100185764E+04  0.11100185764E+04  0.00000000000E+00 0. -1.
          6    1    1    2  501    0  0.18187196589E+03  0.11868652794E+03  0.22138240581E+03  0.35510994564E+03  0.17300000000E+03 0.  1.
         -6    1    1    2    0  503 -0.18187196589E+03 -0.11868652794E+03 -0.10246789045E+04  0.10616307085E+04  0.17300000000E+03 0. -1.
</event>
<event>
 4    1  0.6164307E+000  0.1000000E+03  0.7546771E-02  0.1280296E+00
         21   -1    0    0  501  502  0.00000000000E+00  0.00000000000E+00  0.36349630813E+03  0.36349630813E+03  0.00000000000E+00 0.  1.
         21   -1    0    0  502  503 -0.00000000000E+00 -0.00000000000E+00 -0.30651612469E+03  0.30651612469E+03  0.00000000000E+00 0. -1.
          6    1    1    2  501    0 -0.82896049909E+02  0.13854648582E+03  0.26476397237E+03  0.35509976752E+03  0.17300000000E+03 0.  1.
         -6    1    1    2    0  503  0.82896049909E+02 -0.13854648582E+03 -0.20778378893E+03  0.31491266530E+03  0.17300000000E+03 0. -1.
</event>
<event>
 4    1  0.6164307E+000  0.1000000E+03  0.7546771E-02  0.1280296E+00
         21   -1    0    0  503  502  0.00000000000E+00  0.00000000000E+00  0.10458195822E+04  0.10458195822E+04  0.00000000000E+00 0. -1.
         21   -1    0    0  501  503 -0.00000000000E+00 -0.00000000000E+00 -0.68462595716E+02  0.68462595716E+02  0.00000000000E+00 0. -1.
          6    1    1    2  501    0  0.73334573705E+02  0.18749858290E+03  0.55888231311E+03  0.61871812499E+03  0.17300000000E+03 0. -1.
         -6    1    1    2    0  502 -0.73334573705E+02 -0.18749858290E+03  0.41847467338E+03  0.49556405293E+03  0.17300000000E+03 0. -1.
</event>
<event>
 4    1  0.6164307E+000  0.1000000E+03  0.7546771E-02  0.1280296E+00
         21   -1    0    0  503  502  0.00000000000E+00  0.00000000000E+00  0.10514758845E+03  0.10514758845E+03  0.00000000000E+00 0. -1.
         21   -1    0    0  501  503 -0.00000000000E+00 -0.00000000000E+00 -0.40767415020E+03  0.40767415020E+03  0.00000000000E+00 0. -1.
          6    1    1    2  501    0 -0.75940498218E+02 -0.27669521495E+02 -0.25037366087E+03  0.31487859843E+03  0.17300000000E+03 0. -1.
         -6    1    1    2    0  502  0.75940498218E+02  0.27669521495E+02 -0.52152900879E+02  0.19794314022E+03  0.17300000000E+03 0. -1.
</event>
<event>
 4    1  0.6164307E+000  0.1000000E+03  0.7546771E-02  0.1280296E+00
         21   -1    0    0  501  502  0.00000000000E+00  0.00000000000E+00  0.39026082205E+03  0.39026082205E+03  0.00000000000E+00 0. -1.
         21   -1    0    0  502  503 -0.00000000000E+00 -0.00000000000E+00 -0.55659192220E+03  0.55659192220E+03  0.00000000000E+00 0. -1.
          6    1    1    2  501    0  0.12156943135E+03  0.20052461024E+02  0.33824389397E+03  0.39939849729E+03  0.17300000000E+03 0. -1.
         -6    1    1    2    0  503 -0.12156943135E+03 -0.20052461024E+02 -0.50457499411E+03  0.54745424696E+03  0.17300000000E+03 0. -1.
</event>
<event>
 4    1  0.6164307E+000  0.1000000E+03  0.7546771E-02  0.1280296E+00
         21   -1    0    0  501  502  0.00000000000E+00  0.00000000000E+00  0.27668345553E+03  0.27668345553E+03  0.00000000000E+00 0. -1.
         21   -1    0    0  502  503 -0.00000000000E+00 -0.00000000000E+00 -0.15831078308E+03  0.15831078308E+03  0.00000000000E+00 0. -1.
          6    1    1    2  501    0  0.26352605202E+02 -0.67641566670E+02  0.15557700375E+03  0.24372739985E+03  0.17300000000E+03 0. -1.
         -6    1    1    2    0  503 -0.26352605202E+02  0.67641566670E+02 -0.37204331299E+02  0.19126683876E+03  0.17300000000E+03 0. -1.
</event>
<event>
 4    1  0.6164307E+000  0.1000000E+03  0.7546771E-02  0.1280296E+00
         21   -1    0    0  503  502  0.00000000000E+00  0.00000000000E+00  0.67096672226E+03  0.67096672226E+03  0.00000000000E+00 0.  1.
         21   -1    0    0  501  503 -0.00000000000E+00 -0.00000000000E+00 -0.10128126364E+03  0.10128126364E+03  0.00000000000E+00 0. -1.
          6    1    1    2  501    0 -0.16552550919E+03 -0.12189500887E+02  0.13320962426E+03  0.27426462061E+03  0.17300000000E+03 0. -1.
         -6    1    1    2    0  502  0.16552550919E+03  0.12189500887E+02  0.43647583436E+03  0.49798336529E+03  0.17300000000E+03 0.  1.
</event>
<event>
 4    1  0.6164307E+000  0.1000000E+03  0.7546771E-02  0.1280296E+00
         21   -1    0    0  503  502  0.00000000000E+00  0.00000000000E+00  0.23485953480E+03  0.23485953480E+03  0.00000000000E+00 0.  1.
         21   -1    0    0  501  503 -0.00000000000E+00 -0.00000000000E+00 -0.19362893276E+03  0.19362893276E+03  0.00000000000E+00 0. -1.
          6    1    1    2  501    0  0.88496758713E+01  0.79576173593E+02 -0.75412279893E+02  0.20500413685E+03  0.17300000000E+03 0. -1.
         -6    1    1    2    0  502 -0.88496758713E+01 -0.79576173593E+02  0.11664288193E+03  0.22348433071E+03  0.17300000000E+03 0.  1.
</event>
<event>
 4    1  0.6164307E+000  0.1000000E+03  0.7546771E-02  0.1280296E+00
         21   -1    0    0  503  502  0.00000000000E+00  0.00000000000E+00  0.10839435618E+03  0.10839435618E+03  0.00000000000E+00 0.  1.
         21   -1    0    0  501  503 -0.00000000000E+00 -0.00000000000E+00 -0.11381704656E+04  0.11381704656E+04  0.00000000000E+00 0. -1.
          6    1    1    2  501    0 -0.25741220021E+03 -0.10486478365E+02 -0.80685387808E+03  0.86447278014E+03  0.17300000000E+03 0. -1.
         -6    1    1    2    0  502  0.25741220021E+03  0.10486478365E+02 -0.22292223129E+03  0.38209204159E+03  0.17300000000E+03 0.  1.
</event>
<event>
 4    1  0.6164307E+000  0.1000000E+03  0.7546771E-02  0.1280296E+00
         21   -1    0    0  503  502  0.00000000000E+00  0.00000000000E+00  0.42355119663E+03  0.42355119663E+03  0.00000000000E+00 0.  1.
         21   -1    0    0  501  503 -0.00000000000E+00 -0.00000000000E+00 -0.27497206295E+03  0.27497206295E+03  0.00000000000E+00 0.  1.
          6    1    1    2  501    0  0.38694010882E+02 -0.18331483812E+01 -0.22414759339E+03  0.28578266311E+03  0.17300000000E+03 0.  1.
         -6    1    1    2    0  502 -0.38694010882E+02  0.18331483812E+01  0.37272672706E+03  0.41274059647E+03  0.17300000000E+03 0.  1.
</event>
<event>
 4    1  0.6164307E+000  0.1000000E+03  0.7546771E-02  0.1280296E+00
         21   -1    0    0  501  502  0.00000000000E+00  0.00000000000E+00  0.31762680818E+03  0.31762680818E+03  0.00000000000E+00 0. -1.
         21   -1    0    0  502  503 -0.00000000000E+00 -0.00000000000E+00 -0.17091825936E+03  0.17091825936E+03  0.00000000000E+00 0. -1.
          6    1    1    2  501    0 -0.10443027654E+03 -0.80464447542E+02  0.16093706510E+03  0.27057337064E+03  0.17300000000E+03 0. -1.
         -6    1    1    2    0  503  0.10443027654E+03  0.80464447542E+02 -0.14228516274E+02  0.21797169690E+03  0.17300000000E+03 0. -1.
</event>
<event>
 4    1  0.6164307E+000  0.1000000E+03  0.7546771E-02  0.1280296E+00
         21   -1    0    0  501  502  0.00000000000E+00  0.00000000000E+00  0.16531150415E+03  0.16531150415E+03  0.00000000000E+00 0.  1.
         21   -1    0    0  502  503 -0.00000000000E+00 -0.00000000000E+00 -0.38221080399E+03  0.38221080399E+03  0.00000000000E+00 0. -1.
          6    1    1    2  501    0  0.18729317075E+02  0.12637496586E+03  0.33273628785E+02  0.21761790755E+03  0.17300000000E+03 0.  1.
         -6    1    1    2    0  503 -0.18729317075E+02 -0.12637496586E+03 -0.25017292863E+03  0.32990440059E+03  0.17300000000E+03 0. -1.
</event>
<event>
 4    1  0.6164307E+000  0.1000000E+03  0.7546771E-02  0.1280296E+00
         21   -1    0    0  501  502  0.00000000000E+00  0.00000000000E+00  0.96132420379E+03  0.96132420379E+03  0.00000000000E+00 0.  1.
         21   -1    0    0  502  503 -0.00000000000E+00 -0.00000000000E+00 -0.39754615616E+03  0.39754615616E+03  0.00000000000E+00 0. -1.
          6    1    1    2  501    0 -0.45895324472E+03 -0.21533404683E+03  0.62105899851E+03  0.82015249325E+03  0.17300000000E+03 0.  1.
         -6    1    1    2    0  503  0.45895324472E+03  0.21533404683E+03 -0.57280950872E+02  0.53871786669E+03  0.17300000000E+03 0. -1.
</event>
<event>
 4    1  0.6164307E+000  0.1000000E+03  0.7546771E-02  0.1280296E+00
         21   -1    0    0  503  502  0.00000000000E+00  0.00000000000E+00  0.17382440481E+04  0.17382440481E+04  0.00000000000E+00 0. -1.
         21   -1    0    0  501  503 -0.00000000000E+00 -0.00000000000E+00 -0.98391455704E+02  0.98391455704E+02  0.00000000000E+00 0. -1.
          6    1    1    2  501    0  0.97267402070E+01 -0.99553724115E+02  0.15937490310E+02  0.20047083842E+03  0.17300000000E+03 0. -1.
         -6    1    1    2    0  502 -0.97267402070E+01  0.99553724115E+02  0.16239151021E+04  0.16361646654E+04  0.17300000000E+03 0. -1.
</event>
<event>
 4    1  0.6164307E+000  0.1000000E+03  0.7546771E-02  0.1280296E+00
         21   -1    0    0  503  502  0.00000000000E+00  0.00000000000E+00  0.14637438992E+03  0.14637438992E+03  0.00000000000E+00 0. -1.
         21   -1    0    0  501  503 -0.00000000000E+00 -0.00000000000E+00 -0.61536462832E+03  0.61536462832E+03  0.00000000000E+00 0. -1.
          6    1    1    2  501    0  0.71925429630E+02  0.17071474311E+03 -0.43844401653E+03  0.50643750510E+03  0.17300000000E+03 0. -1.
         -6    1    1    2    0  502 -0.71925429630E+02 -0.17071474311E+03 -0.30546221873E+02  0.25530151315E+03  0.17300000000E+03 0. -1.
</event>
<event>
 4    1  0.6164307E+000  0.1000000E+03  0.7546771E-02  0.1280296E+00
         21   -1    0    0  501  502  0.00000000000E+00  0.00000000000E+00  0.92441724125E+03  0.92441724125E+03  0.00000000000E+00 0. -1.
         21   -1    0    0  502  503 -0.00000000000E+00 -0.00000000000E+00 -0.10616391805E+03  0.10616391805E+03  0.00000000000E+00 0. -1.
          6    1    1    2  501    0  0.13020730109E+02  0.10244189093E+03  0.14541644092E+02  0.20200084119E+03  0.17300000000E+03 0. -1.
         -6    1    1    2    0  503 -0.13020730109E+02 -0.10244189093E+03  0.80371167910E+03  0.82858031811E+03  0.17300000000E+03 0. -1.
</event>
<event>
 4    1  0.6164307E+000  0.1000000E+03  0.7546771E-02  0.1280296E+00
         21   -1    0    0  501  502  0.00000000000E+00  0.00000000000E+00  0.38467258787E+02  0.38467258787E+02  0.00000000000E+00 0. -1.
         21   -1    0    0  502  503 -0.00000000000E+00 -0.00000000000E+00 -0.14206293496E+04  0.14206293496E+04  0.00000000000E+00 0. -1.
          6    1    1    2  501    0  0.11309281415E+03  0.80271896823E+02 -0.45994776372E+03  0.51060210280E+03  0.17300000000E+03 0. -1.
         -6    1    1    2    0  503 -0.11309281415E+03 -0.80271896823E+02 -0.92221432707E+03  0.94849450557E+03  0.17300000000E+03 0. -1.
</event>
<event>
 4    1  0.6164307E+000  0.1000000E+03  0.7546771E-02  0.1280296E+00
         21   -1    0    0  501  502  0.00000000000E+00  0.00000000000E+00  0.95700836219E+03  0.95700836219E+03  0.00000000000E+00 0. -1.
         21   -1    0    0  502  503 -0.00000000000E+00 -0.00000000000E+00 -0.11649331554E+03  0.11649331554E+03  0.00000000000E+00 0. -1.
          6    1    1    2  501    0 -0.31432389566E+02 -0.53712581677E+02  0.86830854345E+03  0.88755944205E+03  0.17300000000E+03 0. -1.
         -6    1    1    2    0  503  0.31432389566E+02  0.53712581677E+02 -0.27793496799E+02  0.18594223568E+03  0.17300000000E+03 0. -1.
</event>
<event>
 4    1  0.6164307E+000  0.1000000E+03  0.7546771E-02  0.1280296E+00
         21   -1    0    0  503  502  0.00000000000E+00  0.00000000000E+00  0.83102681724E+02  0.83102681724E+02  0.00000000000E+00 0. -1.
         21   -1    0    0  501  503 -0.00000000000E+00 -0.00000000000E+00 -0.57286578385E+03  0.57286578385E+03  0.00000000000E+00 0. -1.
          6    1    1    2  501    0  0.48973171894E+02  0.81757271223E+00 -0.43068826200E+03  0.46671235147E+03  0.17300000000E+03 0. -1.
         -6    1    1    2    0  502 -0.48973171894E+02 -0.81757271223E+00 -0.59074840129E+02  0.18925611411E+03  0.17300000000E+03 0. -1.
</event>
<event>
 4    1  0.6164307E+000  0.1000000E+03  0.7546771E-02  0.1280296E+00
         21   -1    0    0  503  502  0.00000000000E+00  0.00000000000E+00  0.17266801204E+03  0.17266801204E+03  0.00000000000E+00 0.  1.
         21   -1    0    0  501  503 -0.00000000000E+00 -0.00000000000E+00 -0.12447541264E+04  0.12447541264E+04  0.00000000000E+00 0.  1.
          6    1    1    2  501    0 -0.27747867415E+03 -0.29083514302E+03 -0.76999230636E+03  0.88566170002E+03  0.17300000000E+03 0. -1.
         -6    1    1    2    0  502  0.27747867415E+03  0.29083514302E+03 -0.30209380796E+03  0.53176043838E+03  0.17300000000E+03 0. -1.
</event>
<event>
 4    1  0.6164307E+000  0.1000000E+03  0.7546771E-02  0.1280296E+00
         21   -1    0    0  501  502  0.00000000000E+00  0.00000000000E+00  0.35487147297E+03  0.35487147297E+03  0.00000000000E+00 0.  1.
         21   -1    0    0  502  503 -0.00000000000E+00 -0.00000000000E+00 -0.12207108665E+03  0.12207108665E+03  0.00000000000E+00 0. -1.
          6    1    1    2  501    0 -0.10708198293E+03 -0.43322337713E+02  0.12426935572E+03  0.24231229598E+03  0.17300000000E+03 0. -1.
         -6    1    1    2    0  503  0.10708198293E+03  0.43322337713E+02  0.10853103060E+03  0.23463026364E+03  0.17300000000E+03 0. -1.
</event>
<event>
 4    1  0.6164307E+000  0.1000000E+03  0.7546771E-02  0.1280296E+00
         21   -1    0    0  501  502  0.00000000000E+00  0.00000000000E+00  0.37481423770E+02  0.37481423770E+02  0.00000000000E+00 0. -1.
         21   -1    0    0  502  503 -0.00000000000E+00 -0.00000000000E+00 -0.18442233583E+04  0.18442233583E+04  0.00000000000E+00 0.  1.
          6    1    1    2  501    0  0.16936981968E+03 -0.40150627894E+02 -0.56583018270E+03  0.61675846519E+03  0.17300000000E+03 0. -1.
         -6    1    1    2    0  503 -0.16936981968E+03  0.40150627894E+02 -0.12409117518E+04  0.12649463168E+04  0.17300000000E+03 0.  1.
</event>
<event>
 4    1  0.6164307E+000  0.1000000E+03  0.7546771E-02  0.1280296E+00
         21   -1    0    0  501  502  0.00000000000E+00  0.00000000000E+00  0.21188347792E+03  0.21188347792E+03  0.00000000000E+00 0. -1.
         21   -1    0    0  502  503 -0.00000000000E+00 -0.00000000000E+00 -0.23341047543E+03  0.23341047543E+03  0.00000000000E+00 0.  1.
          6    1    1    2  501    0  0.78251165663E+02  0.25593222061E+01  0.10511752434E+03  0.21704490084E+03  0.17300000000E+03 0. -1.
         -6    1    1    2    0  503 -0.78251165663E+02 -0.25593222061E+01 -0.12664452184E+03  0.22824905251E+03  0.17300000000E+03 0.  1.
</event>
<event>
 4    1  0.6164307E+000  0.1000000E+03  0.7546771E-02  0.1280296E+00
         21   -1    0    0  501  502  0.00000000000E+00  0.00000000000E+00  0.20789308578E+02  0.20789308578E+02  0.00000000000E+00 0. -1.
         21   -1    0    0  502  503 -0.00000000000E+00 -0.00000000000E+00 -0.20695140326E+04  0.20695140326E+04  0.00000000000E+00 0.  1.
          6    1    1    2  501    0  0.10180274030E+03  0.53127154595E+01 -0.76240688672E+03  0.78840680096E+03  0.17300000000E+03 0. -1.
         -6    1    1    2    0  503 -0.10180274030E+03 -0.53127154595E+01 -0.12863178373E+04  0.13018965402E+04  0.17300000000E+03 0.  1.
</event>
<event>
 4    1  0.6164307E+000  0.1000000E+03  0.7546771E-02  0.1280296E+00
         21   -1    0    0  503  502  0.00000000000E+00  0.00000000000E+00  0.73361966568E+03  0.73361966568E+03  0.00000000000E+00 0. -1.
         21   -1    0    0  501  503 -0.00000000000E+00 -0.00000000000E+00 -0.93296269601E+02  0.93296269601E+02  0.00000000000E+00 0.  1.
          6    1    1    2  501    0  0.12441455280E+03 -0.13466961842E+03  0.20953350520E+03  0.32779288716E+03  0.17300000000E+03 0. -1.
         -6    1    1    2    0  502 -0.12441455280E+03  0.13466961842E+03  0.43078989088E+03  0.49912304811E+03  0.17300000000E+03 0. -1.
</event>
<event>
 4    1  0.6164307E+000  0.1000000E+03  0.7546771E-02  0.1280296E+00
         21   -1    0    0  503  502  0.00000000000E+00  0.00000000000E+00  0.49984969832E+03  0.49984969832E+03  0.00000000000E+00 0. -1.
         21   -1    0    0  501  503 -0.00000000000E+00 -0.00000000000E+00 -0.27558676560E+03  0.27558676560E+03  0.00000000000E+00 0.  1.
          6    1    1    2  501    0  0.76608381265E+02 -0.94244788964E+02 -0.20656477233E+03  0.29554852308E+03  0.17300000000E+03 0. -1.
         -6    1    1    2    0  502 -0.76608381265E+02  0.94244788964E+02  0.43082770505E+03  0.47988794084E+03  0.17300000000E+03 0. -1.
</event>
<event>
 4    1  0.6164307E+000  0.1000000E+03  0.7546771E-02  0.1280296E+00
         21   -1    0    0  501  502  0.00000000000E+00  0.00000000000E+00  0.42760798097E+03  0.42760798097E+03  0.00000000000E+00 0. -1.
         21   -1    0    0  502  503 -0.00000000000E+00 -0.00000000000E+00 -0.12614812692E+03  0.12614812692E+03  0.00000000000E+00 0. -1.
          6    1    1    2  501    0  0.46851251165E+02  0.47451854516E+02  0.31748489458E+03  0.36765796132E+03  0.17300000000E+03 0. -1.
         -6    1    1    2    0  503 -0.46851251165E+02 -0.47451854516E+02 -0.16025040533E+02  0.18609814657E+03  0.17300000000E+03 0. -1.
</event>
<event>
 4    1  0.6164307E+000  0.1000000E+03  0.7546771E-02  0.1280296E+00
         21   -1    0    0  501  502  0.00000000000E+00  0.00000000000E+00  0.56022905739E+03  0.56022905739E+03  0.00000000000E+00 0. -1.
         21   -1    0    0  502  503 -0.00000000000E+00 -0.00000000000E+00 -0.67988045843E+02  0.67988045843E+02  0.00000000000E+00 0. -1.
          6    1    1    2  501    0 -0.56349811358E+02  0.21468101289E+02  0.13787061213E+03  0.22928908893E+03  0.17300000000E+03 0. -1.
         -6    1    1    2    0  503  0.56349811358E+02 -0.21468101289E+02  0.35437039942E+03  0.39892801430E+03  0.17300000000E+03 0. -1.
</event>
<event>
 4    1  0.6164307E+000  0.1000000E+03  0.7546771E-02  0.1280296E+00
         21   -1    0    0  503  502  0.00000000000E+00  0.00000000000E+00  0.28259453007E+03  0.28259453007E+03  0.00000000000E+00 0. -1.
         21   -1    0    0  501  503 -0.00000000000E+00 -0.00000000000E+00 -0.21268036647E+03  0.21268036647E+03  0.00000000000E+00 0. -1.
          6    1    1    2  501    0 -0.33904918032E+02  0.14698082601E+02 -0.13648809509E+03  0.22343584583E+03  0.17300000000E+03 0. -1.
         -6    1    1    2    0  502  0.33904918032E+02 -0.14698082601E+02  0.20640225869E+03  0.27183905071E+03  0.17300000000E+03 0. -1.
</event>
<event>
 4    1  0.6164307E+000  0.1000000E+03  0.7546771E-02  0.1280296E+00
         21   -1    0    0  503  502  0.00000000000E+00  0.00000000000E+00  0.99945724623E+03  0.99945724623E+03  0.00000000000E+00 0. -1.
         21   -1    0    0  501  503 -0.00000000000E+00 -0.00000000000E+00 -0.49108797788E+02  0.49108797788E+02  0.00000000000E+00 0. -1.
          6    1    1    2  501    0  0.28004638950E+01  0.13834784739E+03  0.46979114279E+03  0.51940416568E+03  0.17300000000E+03 0. -1.
         -6    1    1    2    0  502 -0.28004638950E+01 -0.13834784739E+03  0.48055730565E+03  0.52916187834E+03  0.17300000000E+03 0. -1.
</event>
<event>
 4    1  0.6164307E+000  0.1000000E+03  0.7546771E-02  0.1280296E+00
         21   -1    0    0  503  502  0.00000000000E+00  0.00000000000E+00  0.35055391041E+03  0.35055391041E+03  0.00000000000E+00 0. -1.
         21   -1    0    0  501  503 -0.00000000000E+00 -0.00000000000E+00 -0.21916559730E+03  0.21916559730E+03  0.00000000000E+00 0. -1.
          6    1    1    2  501    0 -0.12328062199E+03 -0.16675962453E+03  0.15678716411E+01  0.27007099502E+03  0.17300000000E+03 0. -1.
         -6    1    1    2    0  502  0.12328062199E+03  0.16675962453E+03  0.12982044147E+03  0.29964851269E+03  0.17300000000E+03 0. -1.
</event>
<event>
 4    1  0.6164307E+000  0.1000000E+03  0.7546771E-02  0.1280296E+00
         21   -1    0    0  503  502  0.00000000000E+00  0.00000000000E+00  0.14696435199E+03  0.14696435199E+03  0.00000000000E+00 0.  1.
         21   -1    0    0  501  503 -0.00000000000E+00 -0.00000000000E+00 -0.96322534057E+03  0.96322534057E+03  0.00000000000E+00 0.  1.
          6    1    1    2  501    0  0.10099556624E+03 -0.13664139218E+03 -0.83256139497E+03  0.86715537872E+03  0.17300000000E+03 0.  1.
         -6    1    1    2    0  502 -0.10099556624E+03  0.13664139218E+03  0.16300406387E+02  0.24303431385E+03  0.17300000000E+03 0.  1.
</event>
<event>
 4    1  0.6164307E+000  0.1000000E+03  0.7546771E-02  0.1280296E+00
         21   -1    0    0  501  502  0.00000000000E+00  0.00000000000E+00  0.29653992669E+02  0.29653992669E+02  0.00000000000E+00 0. -1.
         21   -1    0    0  502  503 -0.00000000000E+00 -0.00000000000E+00 -0.24782106736E+04  0.24782106736E+04  0.00000000000E+00 0. -1.
          6    1    1    2  501    0  0.85291738814E+02 -0.78671664221E+02 -0.42182963041E+03  0.47046057067E+03  0.17300000000E+03 0. -1.
         -6    1    1    2    0  503 -0.85291738814E+02  0.78671664221E+02 -0.20267270505E+04  0.20374040956E+04  0.17300000000E+03 0. -1.
</event>
<event>
 4    1  0.6164307E+000  0.1000000E+03  0.7546771E-02  0.1280296E+00
         21   -1    0    0  501  502  0.00000000000E+00  0.00000000000E+00  0.15416664981E+03  0.15416664981E+03  0.00000000000E+00 0. -1.
         21   -1    0    0  502  503 -0.00000000000E+00 -0.00000000000E+00 -0.13868059586E+04  0.13868059586E+04  0.00000000000E+00 0. -1.
          6    1    1    2  501    0  0.11619863475E+03  0.13817740036E+02  0.71085069821E+02  0.22062443158E+03  0.17300000000E+03 0. -1.
         -6    1    1    2    0  503 -0.11619863475E+03 -0.13817740036E+02 -0.13037243786E+04  0.13203481768E+04  0.17300000000E+03 0. -1.
</event>
<event>
 4    1  0.6164307E+000  0.1000000E+03  0.7546771E-02  0.1280296E+00
         21   -1    0    0  501  502  0.00000000000E+00  0.00000000000E+00  0.40955186417E+03  0.40955186417E+03  0.00000000000E+00 0. -1.
         21   -1    0    0  502  503 -0.00000000000E+00 -0.00000000000E+00 -0.12383793717E+03  0.12383793717E+03  0.00000000000E+00 0. -1.
          6    1    1    2  501    0  0.39773128901E+02  0.11690452295E+03  0.23100394452E+03  0.31391143919E+03  0.17300000000E+03 0. -1.
         -6    1    1    2    0  503 -0.39773128901E+02 -0.11690452295E+03  0.54709982472E+02  0.21947836215E+03  0.17300000000E+03 0. -1.
</event>
<event>
 4    1  0.6164307E+000  0.1000000E+03  0.7546771E-02  0.1280296E+00
         21   -1    0    0  503  502  0.00000000000E+00  0.00000000000E+00  0.26759794282E+03  0.26759794282E+03  0.00000000000E+00 0. -1.
         21   -1    0    0  501  503 -0.00000000000E+00 -0.00000000000E+00 -0.75232254919E+03  0.75232254919E+03  0.00000000000E+00 0.  1.
          6    1    1    2  501    0  0.20862004510E+03  0.18443783805E+03 -0.59054974759E+03  0.67543885267E+03  0.17300000000E+03 0.  1.
         -6    1    1    2    0  502 -0.20862004510E+03 -0.18443783805E+03  0.10582514121E+03  0.34448163933E+03  0.17300000000E+03 0. -1.
</event>
<event>
 4    1  0.6164307E+000  0.1000000E+03  0.7546771E-02  0.1280296E+00
         21   -1    0    0  501  502  0.00000000000E+00  0.00000000000E+00  0.26411918353E+03  0.26411918353E+03  0.00000000000E+00 0. -1.
         21   -1    0    0  502  503 -0.00000000000E+00 -0.00000000000E+00 -0.13777807139E+03  0.13777807139E+03  0.00000000000E+00 0. -1.
          6    1    1    2  501    0  0.21677062903E+02  0.40329187627E+02  0.13276297556E+03  0.22282582012E+03  0.17300000000E+03 0.  1.
         -6    1    1    2    0  503 -0.21677062903E+02 -0.40329187627E+02 -0.64218634213E+01  0.17907143480E+03  0.17300000000E+03 0.  1.
</event>
<event>
 4    1  0.6164307E+000  0.1000000E+03  0.7546771E-02  0.1280296E+00
         21   -1    0    0  501  502  0.00000000000E+00  0.00000000000E+00  0.34754596082E+03  0.34754596082E+03  0.00000000000E+00 0. -1.
         21   -1    0    0  502  503 -0.00000000000E+00 -0.00000000000E+00 -0.21753377088E+03  0.21753377088E+03  0.00000000000E+00 0. -1.
          6    1    1    2  501    0 -0.10590999011E+03  0.20618114676E+02  0.25456914587E+03  0.32615407814E+03  0.17300000000E+03 0. -1.
         -6    1    1    2    0  503  0.10590999011E+03 -0.20618114676E+02 -0.12455695594E+03  0.23892565356E+03  0.17300000000E+03 0. -1.
</event>
<event>
 4    1  0.6164307E+000  0.1000000E+03  0.7546771E-02  0.1280296E+00
         21   -1    0    0  501  502  0.00000000000E+00  0.00000000000E+00  0.80033595292E+03  0.80033595292E+03  0.00000000000E+00 0. -1.
         21   -1    0    0  502  503 -0.00000000000E+00 -0.00000000000E+00 -0.46133918183E+02  0.46133918183E+02  0.00000000000E+00 0. -1.
          6    1    1    2  501    0  0.49622835919E+02 -0.46335867110E+02  0.48464993808E+03  0.51906069097E+03  0.17300000000E+03 0. -1.
         -6    1    1    2    0  503 -0.49622835919E+02  0.46335867110E+02  0.26955209665E+03  0.32740918013E+03  0.17300000000E+03 0. -1.
</event>
<event>
 4    1  0.6164307E+000  0.1000000E+03  0.7546771E-02  0.1280296E+00
         21   -1    0    0  501  502  0.00000000000E+00  0.00000000000E+00  0.23607672297E+03  0.23607672297E+03  0.00000000000E+00 0. -1.
         21   -1    0    0  502  503 -0.00000000000E+00 -0.00000000000E+00 -0.14034000051E+03  0.14034000051E+03  0.00000000000E+00 0. -1.
          6    1    1    2  501    0 -0.48533476812E+02  0.15052907050E+02  0.73613135078E+02  0.19475621181E+03  0.17300000000E+03 0. -1.
         -6    1    1    2    0  503  0.48533476812E+02 -0.15052907050E+02  0.22123587388E+02  0.18166051167E+03  0.17300000000E+03 0. -1.
</event>
<event>
 4    1  0.6164307E+000  0.1000000E+03  0.7546771E-02  0.1280296E+00
         21   -1    0    0  501  502  0.00000000000E+00  0.00000000000E+00  0.68960213719E+02  0.68960213719E+02  0.00000000000E+00 0. -1.
         21   -1    0    0  502  503 -0.00000000000E+00 -0.00000000000E+00 -0.24269247487E+04  0.24269247487E+04  0.00000000000E+00 0. -1.
          6    1    1    2  501    0  0.37928739235E+02  0.98853166426E+02 -0.95219700015E+02  0.22406768853E+03  0.17300000000E+03 0. -1.
         -6    1    1    2    0  503 -0.37928739235E+02 -0.98853166426E+02 -0.22627448350E+04  0.22718172739E+04  0.17300000000E+03 0. -1.
</event>
<event>
 4    1  0.6164307E+000  0.1000000E+03  0.7546771E-02  0.1280296E+00
         21   -1    0    0  503  502  0.00000000000E+00  0.00000000000E+00  0.19587092632E+03  0.19587092632E+03  0.00000000000E+00 0.  1.
         21   -1    0    0  501  503 -0.00000000000E+00 -0.00000000000E+00 -0.57209772981E+03  0.57209772981E+03  0.00000000000E+00 0. -1.
          6    1    1    2  501    0 -0.19661569314E+03  0.79045689672E+01 -0.42710288130E+03  0.50106495010E+03  0.17300000000E+03 0. -1.
         -6    1    1    2    0  502  0.19661569314E+03 -0.79045689672E+01  0.50876077821E+02  0.26690370603E+03  0.17300000000E+03 0.  1.
</event>
<event>
 4    1  0.6164307E+000  0.1000000E+03  0.7546771E-02  0.1280296E+00
         21   -1    0    0  503  502  0.00000000000E+00  0.00000000000E+00  0.15968948424E+03  0.15968948424E+03  0.00000000000E+00 0.  1.
         21   -1    0    0  501  503 -0.00000000000E+00 -0.00000000000E+00 -0.52250918789E+03  0.52250918789E+03  0.00000000000E+00 0.  1.
          6    1    1    2  501    0 -0.19547721431E+03  0.24449529737E+02 -0.32458600617E+03  0.41724596609E+03  0.17300000000E+03 0.  1.
         -6    1    1    2    0  502  0.19547721431E+03 -0.24449529737E+02 -0.38233697487E+02  0.26495270605E+03  0.17300000000E+03 0.  1.
</event>
<event>
 4    1  0.6164307E+000  0.1000000E+03  0.7546771E-02  0.1280296E+00
         21   -1    0    0  503  502  0.00000000000E+00  0.00000000000E+00  0.66181873879E+03  0.66181873879E+03  0.00000000000E+00 0.  1.
         21   -1    0    0  501  503 -0.00000000000E+00 -0.00000000000E+00 -0.14240545468E+03  0.14240545468E+03  0.00000000000E+00 0.  1.
          6    1    1    2  501    0 -0.10682035035E+03  0.10328530193E+03 -0.94914143100E+01  0.22824882867E+03  0.17300000000E+03 0.  1.
         -6    1    1    2    0  502  0.10682035035E+03 -0.10328530193E+03  0.52890469842E+03  0.57597536480E+03  0.17300000000E+03 0.  1.
</event>
<event>
 4    1  0.6164307E+000  0.1000000E+03  0.7546771E-02  0.1280296E+00
         21   -1    0    0  503  502  0.00000000000E+00  0.00000000000E+00  0.71699940407E+03  0.71699940407E+03  0.00000000000E+00 0.  1.
         21   -1    0    0  501  503 -0.00000000000E+00 -0.00000000000E+00 -0.69666480162E+02  0.69666480162E+02  0.00000000000E+00 0.  1.
          6    1    1    2  501    0  0.39237927147E+02  0.13084506688E+03  0.38861093457E+03  0.44677455715E+03  0.17300000000E+03 0.  1.
         -6    1    1    2    0  502 -0.39237927147E+02 -0.13084506688E+03  0.25872198934E+03  0.33989132708E+03  0.17300000000E+03 0.  1.
</event>
<event>
 4    1  0.6164307E+000  0.1000000E+03  0.7546771E-02  0.1280296E+00
         21   -1    0    0  503  502  0.00000000000E+00  0.00000000000E+00  0.76555206612E+03  0.76555206612E+03  0.00000000000E+00 0.  1.
         21   -1    0    0  501  503 -0.00000000000E+00 -0.00000000000E+00 -0.75716928535E+02  0.75716928535E+02  0.00000000000E+00 0.  1.
          6    1    1    2  501    0 -0.46694699189E+02  0.15814483867E+03  0.29409891146E+03  0.37896352681E+03  0.17300000000E+03 0.  1.
         -6    1    1    2    0  502  0.46694699189E+02 -0.15814483867E+03  0.39573622612E+03  0.46230546784E+03  0.17300000000E+03 0.  1.
</event>
<event>
 4    1  0.6164307E+000  0.1000000E+03  0.7546771E-02  0.1280296E+00
         21   -1    0    0  503  502  0.00000000000E+00  0.00000000000E+00  0.17975071894E+04  0.17975071894E+04  0.00000000000E+00 0. -1.
         21   -1    0    0  501  503 -0.00000000000E+00 -0.00000000000E+00 -0.38917149480E+02  0.38917149480E+02  0.00000000000E+00 0. -1.
          6    1    1    2  501    0  0.87711526987E+02  0.19962661105E+02  0.25891568691E+03  0.32412675411E+03  0.17300000000E+03 0. -1.
         -6    1    1    2    0  502 -0.87711526987E+02 -0.19962661105E+02  0.14996743530E+04  0.15122975847E+04  0.17300000000E+03 0. -1.
</event>
<event>
 4    1  0.6164307E+000  0.1000000E+03  0.7546771E-02  0.1280296E+00
         21   -1    0    0  503  502  0.00000000000E+00  0.00000000000E+00  0.23900355228E+03  0.23900355228E+03  0.00000000000E+00 0. -1.
         21   -1    0    0  501  503 -0.00000000000E+00 -0.00000000000E+00 -0.45766352844E+03  0.45766352844E+03  0.00000000000E+00 0. -1.
          6    1    1    2  501    0  0.75538285679E+02 -0.19490666255E+03 -0.30849640190E+03  0.41084506775E+03  0.17300000000E+03 0. -1.
         -6    1    1    2    0  502 -0.75538285679E+02  0.19490666255E+03  0.89836425736E+02  0.28582201297E+03  0.17300000000E+03 0. -1.
</event>
<event>
 4    1  0.6164307E+000  0.1000000E+03  0.7546771E-02  0.1280296E+00
         21   -1    0    0  501  502  0.00000000000E+00  0.00000000000E+00  0.23921470507E+03  0.23921470507E+03  0.00000000000E+00 0. -1.
         21   -1    0    0  502  503 -0.00000000000E+00 -0.00000000000E+00 -0.16166571580E+03  0.16166571580E+03  0.00000000000E+00 0. -1.
          6    1    1    2  501    0 -0.19791374972E+02 -0.79886883174E+02  0.84016050892E+02  0.20919203961E+03  0.17300000000E+03 0. -1.
         -6    1    1    2    0  503  0.19791374972E+02  0.79886883174E+02 -0.64670616210E+01  0.19168838127E+03  0.17300000000E+03 0. -1.
</event>
<event>
 4    1  0.6164307E+000  0.1000000E+03  0.7546771E-02  0.1280296E+00
         21   -1    0    0  501  502  0.00000000000E+00  0.00000000000E+00  0.67849261176E+03  0.67849261176E+03  0.00000000000E+00 0. -1.
         21   -1    0    0  502  503 -0.00000000000E+00 -0.00000000000E+00 -0.87466113313E+02  0.87466113313E+02  0.00000000000E+00 0. -1.
          6    1    1    2  501    0  0.13866795252E+03 -0.16859732514E+02  0.45196037977E+03  0.50369657187E+03  0.17300000000E+03 0. -1.
         -6    1    1    2    0  503 -0.13866795252E+03  0.16859732514E+02  0.13906611868E+03  0.26226215320E+03  0.17300000000E+03 0. -1.
</event>
<event>
 4    1  0.6164307E+000  0.1000000E+03  0.7546771E-02  0.1280296E+00
         21   -1    0    0  503  502  0.00000000000E+00  0.00000000000E+00  0.12525447155E+04  0.12525447155E+04  0.00000000000E+00 0. -1.
         21   -1    0    0  501  503 -0.00000000000E+00 -0.00000000000E+00 -0.96860795537E+02  0.96860795537E+02  0.00000000000E+00 0. -1.
          6    1    1    2  501    0 -0.57015397869E+02 -0.95596621790E+02  0.33381418972E+02  0.20840534740E+03  0.17300000000E+03 0. -1.
         -6    1    1    2    0  502  0.57015397869E+02  0.95596621790E+02  0.11223025010E+04  0.11410001636E+04  0.17300000000E+03 0. -1.
</event>
<event>
 4    1  0.6164307E+000  0.1000000E+03  0.7546771E-02  0.1280296E+00
         21   -1    0    0  503  502  0.00000000000E+00  0.00000000000E+00  0.20406874030E+03  0.20406874030E+03  0.00000000000E+00 0.  1.
         21   -1    0    0  501  503 -0.00000000000E+00 -0.00000000000E+00 -0.19724343868E+03  0.19724343868E+03  0.00000000000E+00 0.  1.
          6    1    1    2  501    0  0.47145176482E+02 -0.76574895807E+02  0.50704136749E+02  0.20146039764E+03  0.17300000000E+03 0.  1.
         -6    1    1    2    0  502 -0.47145176482E+02  0.76574895807E+02 -0.43878835121E+02  0.19985178134E+03  0.17300000000E+03 0.  1.
</event>
<event>
 4    1  0.6164307E+000  0.1000000E+03  0.7546771E-02  0.1280296E+00
         21   -1    0    0  503  502  0.00000000000E+00  0.00000000000E+00  0.78739457737E+02  0.78739457737E+02  0.00000000000E+00 0.  1.
         21   -1    0    0  501  503 -0.00000000000E+00 -0.00000000000E+00 -0.49766385238E+03  0.49766385238E+03  0.00000000000E+00 0.  1.
          6    1    1    2  501    0 -0.50876668784E+01 -0.35085076623E+02 -0.33968152210E+03  0.38284381073E+03  0.17300000000E+03 0.  1.
         -6    1    1    2    0  502  0.50876668784E+01  0.35085076623E+02 -0.79242872546E+02  0.19355949939E+03  0.17300000000E+03 0.  1.
</event>
<event>
 4    1  0.6164307E+000  0.1000000E+03  0.7546771E-02  0.1280296E+00
         21   -1    0    0  503  502  0.00000000000E+00  0.00000000000E+00  0.41454118303E+02  0.41454118303E+02  0.00000000000E+00 0.  1.
         21   -1    0    0  501  503 -0.00000000000E+00 -0.00000000000E+00 -0.19047890192E+04  0.19047890192E+04  0.00000000000E+00 0.  1.
          6    1    1    2  501    0  0.11165331210E+03 -0.13916059040E+03 -0.13858461737E+04  0.14079526800E+04  0.17300000000E+03 0.  1.
         -6    1    1    2    0  502 -0.11165331210E+03  0.13916059040E+03 -0.47748872727E+03  0.53829045755E+03  0.17300000000E+03 0.  1.
</event>
<event>
 4    1  0.6164307E+000  0.1000000E+03  0.7546771E-02  0.1280296E+00
         21   -1    0    0  503  502  0.00000000000E+00  0.00000000000E+00  0.58058804330E+03  0.58058804330E+03  0.00000000000E+00 0. -1.
         21   -1    0    0  501  503 -0.00000000000E+00 -0.00000000000E+00 -0.84309756076E+02  0.84309756076E+02  0.00000000000E+00 0.  1.
          6    1    1    2  501    0 -0.44097953434E+02 -0.10592762351E+03  0.13316151053E+03  0.24662984168E+03  0.17300000000E+03 0.  1.
         -6    1    1    2    0  502  0.44097953434E+02  0.10592762351E+03  0.36311677670E+03  0.41826795770E+03  0.17300000000E+03 0.  1.
</event>
<event>
 4    1  0.6164307E+000  0.1000000E+03  0.7546771E-02  0.1280296E+00
         21   -1    0    0  501  502  0.00000000000E+00  0.00000000000E+00  0.26870449876E+02  0.26870449876E+02  0.00000000000E+00 0. -1.
         21   -1    0    0  502  503 -0.00000000000E+00 -0.00000000000E+00 -0.12650191717E+04  0.12650191717E+04  0.00000000000E+00 0. -1.
          6    1    1    2  501    0 -0.15444156398E+02  0.86653776298E+01 -0.40455402267E+03  0.44034823492E+03  0.17300000000E+03 0.  1.
         -6    1    1    2    0  503  0.15444156398E+02 -0.86653776298E+01 -0.83359469914E+03  0.85154138665E+03  0.17300000000E+03 0.  1.
</event>
<event>
 4    1  0.6164307E+000  0.1000000E+03  0.7546771E-02  0.1280296E+00
         21   -1    0    0  501  502  0.00000000000E+00  0.00000000000E+00  0.19415946950E+03  0.19415946950E+03  0.00000000000E+00 0. -1.
         21   -1    0    0  502  503 -0.00000000000E+00 -0.00000000000E+00 -0.98694810344E+03  0.98694810344E+03  0.00000000000E+00 0. -1.
          6    1    1    2  501    0  0.21680991452E+03  0.46497575722E+02  0.56151799169E+02  0.28679363336E+03  0.17300000000E+03 0.  1.
         -6    1    1    2    0  503 -0.21680991452E+03 -0.46497575722E+02 -0.84894043311E+03  0.89431393959E+03  0.17300000000E+03 0.  1.
</event>
<event>
 4    1  0.6164307E+000  0.1000000E+03  0.7546771E-02  0.1280296E+00
         21   -1    0    0  501  502  0.00000000000E+00  0.00000000000E+00  0.15164662281E+04  0.15164662281E+04  0.00000000000E+00 0. -1.
         21   -1    0    0  502  503 -0.00000000000E+00 -0.00000000000E+00 -0.44334245004E+02  0.44334245004E+02  0.00000000000E+00 0. -1.
          6    1    1    2  501    0  0.14094499987E+03 -0.92220670948E+02  0.10205196725E+04  0.10486942105E+04  0.17300000000E+03 0. -1.
         -6    1    1    2    0  503 -0.14094499987E+03  0.92220670948E+02  0.45161231060E+03  0.51210626262E+03  0.17300000000E+03 0. -1.
</event>
<event>
 4    1  0.6164307E+000  0.1000000E+03  0.7546771E-02  0.1280296E+00
         21   -1    0    0  501  502  0.00000000000E+00  0.00000000000E+00  0.10039482235E+03  0.10039482235E+03  0.00000000000E+00 0. -1.
         21   -1    0    0  502  503 -0.00000000000E+00 -0.00000000000E+00 -0.41661104471E+03  0.41661104471E+03  0.00000000000E+00 0. -1.
          6    1    1    2  501    0  0.67286843105E+02 -0.50264045507E+02 -0.24606779326E+03  0.31230170093E+03  0.17300000000E+03 0. -1.
         -6    1    1    2    0  503 -0.67286843105E+02  0.50264045507E+02 -0.70148429101E+02  0.20470416613E+03  0.17300000000E+03 0. -1.
</event>
<event>
 4    1  0.6164307E+000  0.1000000E+03  0.7546771E-02  0.1280296E+00
         21   -1    0    0  501  502  0.00000000000E+00  0.00000000000E+00  0.83790698581E+02  0.83790698581E+02  0.00000000000E+00 0. -1.
         21   -1    0    0  502  503 -0.00000000000E+00 -0.00000000000E+00 -0.54891433714E+03  0.54891433714E+03  0.00000000000E+00 0. -1.
          6    1    1    2  501    0  0.37602982060E+02 -0.63020867069E+02 -0.80124068168E+02  0.20429018637E+03  0.17300000000E+03 0. -1.
         -6    1    1    2    0  503 -0.37602982060E+02  0.63020867069E+02 -0.38499957039E+03  0.42841484935E+03  0.17300000000E+03 0. -1.
</event>
<event>
 4    1  0.6164307E+000  0.1000000E+03  0.7546771E-02  0.1280296E+00
         21   -1    0    0  503  502  0.00000000000E+00  0.00000000000E+00  0.81288283382E+02  0.81288283382E+02  0.00000000000E+00 0.  1.
         21   -1    0    0  501  503 -0.00000000000E+00 -0.00000000000E+00 -0.60289204599E+03  0.60289204599E+03  0.00000000000E+00 0.  1.
          6    1    1    2  501    0  0.10123596836E+03 -0.92924275214E+02 -0.28240359990E+03  0.35855883123E+03  0.17300000000E+03 0.  1.
         -6    1    1    2    0  502 -0.10123596836E+03  0.92924275214E+02 -0.23920016271E+03  0.32562149815E+03  0.17300000000E+03 0.  1.
</event>
<event>
 4    1  0.6164307E+000  0.1000000E+03  0.7546771E-02  0.1280296E+00
         21   -1    0    0  503  502  0.00000000000E+00  0.00000000000E+00  0.10537409170E+04  0.10537409170E+04  0.00000000000E+00 0.  1.
         21   -1    0    0  501  503 -0.00000000000E+00 -0.00000000000E+00 -0.81929450912E+02  0.81929450912E+02  0.00000000000E+00 0.  1.
          6    1    1    2  501    0  0.17704581249E+03 -0.66938639851E+01  0.18025769856E+03  0.30628722700E+03  0.17300000000E+03 0.  1.
         -6    1    1    2    0  502 -0.17704581249E+03  0.66938639851E+01  0.79155376752E+03  0.82938314090E+03  0.17300000000E+03 0.  1.
</event>
<event>
 4    1  0.6164307E+000  0.1000000E+03  0.7546771E-02  0.1280296E+00
         21   -1    0    0  503  502  0.00000000000E+00  0.00000000000E+00  0.30847852004E+03  0.30847852004E+03  0.00000000000E+00 0.  1.
         21   -1    0    0  501  503 -0.00000000000E+00 -0.00000000000E+00 -0.43507316556E+03  0.43507316556E+03  0.00000000000E+00 0.  1.
          6    1    1    2  501    0 -0.40096349892E+02 -0.80012657356E+02 -0.37817183935E+03  0.42538533436E+03  0.17300000000E+03 0.  1.
         -6    1    1    2    0  502  0.40096349892E+02  0.80012657356E+02  0.25157719382E+03  0.31816635124E+03  0.17300000000E+03 0.  1.
</event>
<event>
 4    1  0.6164307E+000  0.1000000E+03  0.7546771E-02  0.1280296E+00
         21   -1    0    0  503  502  0.00000000000E+00  0.00000000000E+00  0.89150513472E+03  0.89150513472E+03  0.00000000000E+00 0.  1.
         21   -1    0    0  501  503 -0.00000000000E+00 -0.00000000000E+00 -0.11691865373E+03  0.11691865373E+03  0.00000000000E+00 0.  1.
          6    1    1    2  501    0 -0.24867045102E+03  0.11155864541E+03  0.37992559618E+03  0.49855268850E+03  0.17300000000E+03 0.  1.
         -6    1    1    2    0  502  0.24867045102E+03 -0.11155864541E+03  0.39466088481E+03  0.50987109996E+03  0.17300000000E+03 0.  1.
</event>
<event>
 4    1  0.6164307E+000  0.1000000E+03  0.7546771E-02  0.1280296E+00
         21   -1    0    0  503  502  0.00000000000E+00  0.00000000000E+00  0.22972853982E+03  0.22972853982E+03  0.00000000000E+00 0.  1.
         21   -1    0    0  501  503 -0.00000000000E+00 -0.00000000000E+00 -0.54894665570E+03  0.54894665570E+03  0.00000000000E+00 0.  1.
          6    1    1    2  501    0  0.15064873657E+03 -0.80708902079E+02 -0.44333324606E+03  0.50565040865E+03  0.17300000000E+03 0.  1.
         -6    1    1    2    0  502 -0.15064873657E+03  0.80708902079E+02  0.12411513018E+03  0.27302478687E+03  0.17300000000E+03 0.  1.
</event>
<event>
 4    1  0.6164307E+000  0.1000000E+03  0.7546771E-02  0.1280296E+00
         21   -1    0    0  503  502  0.00000000000E+00  0.00000000000E+00  0.11744114237E+03  0.11744114237E+03  0.00000000000E+00 0.  1.
         21   -1    0    0  501  503 -0.00000000000E+00 -0.00000000000E+00 -0.28238952976E+03  0.28238952976E+03  0.00000000000E+00 0.  1.
          6    1    1    2  501    0 -0.78704251029E+01 -0.13841245695E+02 -0.22531229537E+02  0.17518612953E+03  0.17300000000E+03 0.  1.
         -6    1    1    2    0  502  0.78704251029E+01  0.13841245695E+02 -0.14241715786E+03  0.22464454261E+03  0.17300000000E+03 0.  1.
</event>
<event>
 4    1  0.6164307E+000  0.1000000E+03  0.7546771E-02  0.1280296E+00
         21   -1    0    0  503  502  0.00000000000E+00  0.00000000000E+00  0.27588150705E+02  0.27588150705E+02  0.00000000000E+00 0.  1.
         21   -1    0    0  501  503 -0.00000000000E+00 -0.00000000000E+00 -0.13132394051E+04  0.13132394051E+04  0.00000000000E+00 0.  1.
          6    1    1    2  501    0  0.14821654307E+02  0.77962400306E+02 -0.64895593795E+03  0.67629182067E+03  0.17300000000E+03 0.  1.
         -6    1    1    2    0  502 -0.14821654307E+02 -0.77962400306E+02 -0.63669531648E+03  0.66453573518E+03  0.17300000000E+03 0.  1.
</event>
<event>
 4    1  0.6164307E+000  0.1000000E+03  0.7546771E-02  0.1280296E+00
         21   -1    0    0  503  502  0.00000000000E+00  0.00000000000E+00  0.70419247294E+03  0.70419247294E+03  0.00000000000E+00 0.  1.
         21   -1    0    0  501  503 -0.00000000000E+00 -0.00000000000E+00 -0.17734423844E+03  0.17734423844E+03  0.00000000000E+00 0.  1.
          6    1    1    2  501    0  0.30435243875E+03  0.33618043618E+02  0.22030979204E+03  0.41500118590E+03  0.17300000000E+03 0.  1.
         -6    1    1    2    0  502 -0.30435243875E+03 -0.33618043618E+02  0.30653844246E+03  0.46653552548E+03  0.17300000000E+03 0.  1.
</event>
<event>
 4    1  0.6164307E+000  0.1000000E+03  0.7546771E-02  0.1280296E+00
         21   -1    0    0  503  502  0.00000000000E+00  0.00000000000E+00  0.53587953514E+03  0.53587953514E+03  0.00000000000E+00 0.  1.
         21   -1    0    0  501  503 -0.00000000000E+00 -0.00000000000E+00 -0.37295126913E+03  0.37295126913E+03  0.00000000000E+00 0.  1.
          6    1    1    2  501    0  0.10629847323E+03  0.21951722122E+02 -0.32276116708E+03  0.38194896844E+03  0.17300000000E+03 0.  1.
         -6    1    1    2    0  502 -0.10629847323E+03 -0.21951722122E+02  0.48568943309E+03  0.52688183584E+03  0.17300000000E+03 0.  1.
</event>
<event>
 4    1  0.6164307E+000  0.1000000E+03  0.7546771E-02  0.1280296E+00
         21   -1    0    0  501  502  0.00000000000E+00  0.00000000000E+00  0.29865160259E+03  0.29865160259E+03  0.00000000000E+00 0.  1.
         21   -1    0    0  502  503 -0.00000000000E+00 -0.00000000000E+00 -0.16031876854E+03  0.16031876854E+03  0.00000000000E+00 0. -1.
          6    1    1    2  501    0  0.53004959568E+02 -0.41083617637E+02  0.19081042219E+03  0.26614846720E+03  0.17300000000E+03 0.  1.
         -6    1    1    2    0  503 -0.53004959568E+02  0.41083617637E+02 -0.52477588144E+02  0.19282190393E+03  0.17300000000E+03 0. -1.
</event>
<event>
 4    1  0.6164307E+000  0.1000000E+03  0.7546771E-02  0.1280296E+00
         21   -1    0    0  501  502  0.00000000000E+00  0.00000000000E+00  0.40822762957E+02  0.40822762957E+02  0.00000000000E+00 0.  1.
         21   -1    0    0  502  503 -0.00000000000E+00 -0.00000000000E+00 -0.13520901360E+04  0.13520901360E+04  0.00000000000E+00 0. -1.
          6    1    1    2  501    0 -0.30436909977E+02  0.15601248838E+03 -0.65306112480E+03  0.69403467835E+03  0.17300000000E+03 0.  1.
         -6    1    1    2    0  503  0.30436909977E+02 -0.15601248838E+03 -0.65820624822E+03  0.69887822059E+03  0.17300000000E+03 0. -1.
</event>
<event>
 4    1  0.6164307E+000  0.1000000E+03  0.7546771E-02  0.1280296E+00
         21   -1    0    0  501  502  0.00000000000E+00  0.00000000000E+00  0.51714213260E+02  0.51714213260E+02  0.00000000000E+00 0.  1.
         21   -1    0    0  502  503 -0.00000000000E+00 -0.00000000000E+00 -0.13401604592E+04  0.13401604592E+04  0.00000000000E+00 0. -1.
          6    1    1    2  501    0  0.48606033300E+01  0.10938941714E+03 -0.20674492004E+03  0.29096757897E+03  0.17300000000E+03 0.  1.
         -6    1    1    2    0  503 -0.48606033300E+01 -0.10938941714E+03 -0.10817013259E+04  0.11009070935E+04  0.17300000000E+03 0. -1.
</event>
<event>
 4    1  0.6164307E+000  0.1000000E+03  0.7546771E-02  0.1280296E+00
         21   -1    0    0  501  502  0.00000000000E+00  0.00000000000E+00  0.33709634336E+03  0.33709634336E+03  0.00000000000E+00 0.  1.
         21   -1    0    0  502  503 -0.00000000000E+00 -0.00000000000E+00 -0.17076674874E+03  0.17076674874E+03  0.00000000000E+00 0. -1.
          6    1    1    2  501    0  0.56920639743E+02 -0.14696126122E+03  0.27178315124E+02  0.23559548455E+03  0.17300000000E+03 0.  1.
         -6    1    1    2    0  503 -0.56920639743E+02  0.14696126122E+03  0.13915127950E+03  0.27226760754E+03  0.17300000000E+03 0. -1.
</event>
<event>
 4    1  0.6164307E+000  0.1000000E+03  0.7546771E-02  0.1280296E+00
         21   -1    0    0  503  502  0.00000000000E+00  0.00000000000E+00  0.11730562412E+03  0.11730562412E+03  0.00000000000E+00 0.  1.
         21   -1    0    0  501  503 -0.00000000000E+00 -0.00000000000E+00 -0.15820847047E+04  0.15820847047E+04  0.00000000000E+00 0. -1.
          6    1    1    2  501    0 -0.33561948207E-01 -0.43072767992E+02 -0.15059094664E+04  0.15164259249E+04  0.17300000000E+03 0.  1.
         -6    1    1    2    0  502  0.33561948207E-01  0.43072767992E+02  0.41130385883E+02  0.18296440395E+03  0.17300000000E+03 0.  1.
</event>
<event>
 4    1  0.6164307E+000  0.1000000E+03  0.7546771E-02  0.1280296E+00
         21   -1    0    0  503  502  0.00000000000E+00  0.00000000000E+00  0.74904518580E+03  0.74904518580E+03  0.00000000000E+00 0.  1.
         21   -1    0    0  501  503 -0.00000000000E+00 -0.00000000000E+00 -0.32015608634E+03  0.32015608634E+03  0.00000000000E+00 0. -1.
          6    1    1    2  501    0  0.13469045797E+03 -0.17040882127E+03 -0.22589795916E+03  0.35796588355E+03  0.17300000000E+03 0.  1.
         -6    1    1    2    0  502 -0.13469045797E+03  0.17040882127E+03  0.65478705862E+03  0.71123538858E+03  0.17300000000E+03 0.  1.
</event>
<event>
 4    1  0.6164307E+000  0.1000000E+03  0.7546771E-02  0.1280296E+00
         21   -1    0    0  503  502  0.00000000000E+00  0.00000000000E+00  0.43050753057E+02  0.43050753057E+02  0.00000000000E+00 0.  1.
         21   -1    0    0  501  503 -0.00000000000E+00 -0.00000000000E+00 -0.97238956693E+03  0.97238956693E+03  0.00000000000E+00 0. -1.
          6    1    1    2  501    0  0.95164012046E+02 -0.21233085472E+02 -0.58689595643E+03  0.61958284094E+03  0.17300000000E+03 0.  1.
         -6    1    1    2    0  502 -0.95164012046E+02  0.21233085472E+02 -0.34244285745E+03  0.39585747905E+03  0.17300000000E+03 0.  1.
</event>
<event>
 4    1  0.6164307E+000  0.1000000E+03  0.7546771E-02  0.1280296E+00
         21   -1    0    0  503  502  0.00000000000E+00  0.00000000000E+00  0.24058929685E+03  0.24058929685E+03  0.00000000000E+00 0.  1.
         21   -1    0    0  501  503 -0.00000000000E+00 -0.00000000000E+00 -0.32584426172E+03  0.32584426172E+03  0.00000000000E+00 0. -1.
          6    1    1    2  501    0  0.16099022179E+03  0.79172458789E+02 -0.17168891507E+03  0.30264205475E+03  0.17300000000E+03 0.  1.
         -6    1    1    2    0  502 -0.16099022179E+03 -0.79172458789E+02  0.86433950203E+02  0.26379150383E+03  0.17300000000E+03 0.  1.
</event>
<event>
 4    1  0.6164307E+000  0.1000000E+03  0.7546771E-02  0.1280296E+00
         21   -1    0    0  501  502  0.00000000000E+00  0.00000000000E+00  0.71881253593E+03  0.71881253593E+03  0.00000000000E+00 0. -1.
         21   -1    0    0  502  503 -0.00000000000E+00 -0.00000000000E+00 -0.83247911943E+02  0.83247911943E+02  0.00000000000E+00 0. -1.
          6    1    1    2  501    0 -0.92919346672E+02  0.47284702897E+02  0.54399926207E+03  0.58028789859E+03  0.17300000000E+03 0. -1.
         -6    1    1    2    0  503  0.92919346672E+02 -0.47284702897E+02  0.91565361917E+02  0.22177254929E+03  0.17300000000E+03 0. -1.
</event>
<event>
 4    1  0.6164307E+000  0.1000000E+03  0.7546771E-02  0.1280296E+00
         21   -1    0    0  501  502  0.00000000000E+00  0.00000000000E+00  0.11115288184E+03  0.11115288184E+03  0.00000000000E+00 0. -1.
         21   -1    0    0  502  503 -0.00000000000E+00 -0.00000000000E+00 -0.56956419468E+03  0.56956419468E+03  0.00000000000E+00 0. -1.
          6    1    1    2  501    0 -0.85055705673E+02  0.13050523258E+03 -0.10006879296E+03  0.25339465685E+03  0.17300000000E+03 0. -1.
         -6    1    1    2    0  503  0.85055705673E+02 -0.13050523258E+03 -0.35834251988E+03  0.42732241967E+03  0.17300000000E+03 0. -1.
</event>
<event>
 4    1  0.6164307E+000  0.1000000E+03  0.7546771E-02  0.1280296E+00
         21   -1    0    0  503  502  0.00000000000E+00  0.00000000000E+00  0.44781339379E+03  0.44781339379E+03  0.00000000000E+00 0.  1.
         21   -1    0    0  501  503 -0.00000000000E+00 -0.00000000000E+00 -0.82829369627E+02  0.82829369627E+02  0.00000000000E+00 0.  1.
          6    1    1    2  501    0 -0.39977965801E+02  0.63956352169E+02  0.12959315121E+03  0.22893675453E+03  0.17300000000E+03 0.  1.
         -6    1    1    2    0  502  0.39977965801E+02 -0.63956352169E+02  0.23539087295E+03  0.30170600889E+03  0.17300000000E+03 0.  1.
</event>
<event>
 4    1  0.6164307E+000  0.1000000E+03  0.7546771E-02  0.1280296E+00
         21   -1    0    0  503  502  0.00000000000E+00  0.00000000000E+00  0.76202217462E+02  0.76202217462E+02  0.00000000000E+00 0.  1.
         21   -1    0    0  501  503 -0.00000000000E+00 -0.00000000000E+00 -0.45700665054E+03  0.45700665054E+03  0.00000000000E+00 0.  1.
          6    1    1    2  501    0  0.49559596371E+02 -0.47332221430E+02 -0.21057727046E+03  0.28101295274E+03  0.17300000000E+03 0.  1.
         -6    1    1    2    0  502 -0.49559596371E+02  0.47332221430E+02 -0.17022716263E+03  0.25219591526E+03  0.17300000000E+03 0.  1.
</event>
<event>
 4    1  0.6164307E+000  0.1000000E+03  0.7546771E-02  0.1280296E+00
         21   -1    0    0  501  502  0.00000000000E+00  0.00000000000E+00  0.67729191610E+03  0.67729191610E+03  0.00000000000E+00 0.  1.
         21   -1    0    0  502  503 -0.00000000000E+00 -0.00000000000E+00 -0.77388658489E+03  0.77388658489E+03  0.00000000000E+00 0. -1.
          6    1    1    2  501    0 -0.95297962459E+02 -0.22621984220E+02  0.64939988954E+03  0.67914849065E+03  0.17300000000E+03 0.  1.
         -6    1    1    2    0  503  0.95297962459E+02  0.22621984220E+02 -0.74599455833E+03  0.77203001035E+03  0.17300000000E+03 0. -1.
</event>
<event>
 4    1  0.6164307E+000  0.1000000E+03  0.7546771E-02  0.1280296E+00
         21   -1    0    0  501  502  0.00000000000E+00  0.00000000000E+00  0.12144526779E+04  0.12144526779E+04  0.00000000000E+00 0.  1.
         21   -1    0    0  502  503 -0.00000000000E+00 -0.00000000000E+00 -0.15525177054E+03  0.15525177054E+03  0.00000000000E+00 0. -1.
          6    1    1    2  501    0 -0.91405669455E+02 -0.16801993457E+03  0.10805651757E+04  0.11109166458E+04  0.17300000000E+03 0.  1.
         -6    1    1    2    0  503  0.91405669455E+02  0.16801993457E+03 -0.21364268429E+02  0.25878780263E+03  0.17300000000E+03 0. -1.
</event>
<event>
 4    1  0.6164307E+000  0.1000000E+03  0.7546771E-02  0.1280296E+00
         21   -1    0    0  501  502  0.00000000000E+00  0.00000000000E+00  0.28171658751E+03  0.28171658751E+03  0.00000000000E+00 0.  1.
         21   -1    0    0  502  503 -0.00000000000E+00 -0.00000000000E+00 -0.19932163489E+03  0.19932163489E+03  0.00000000000E+00 0. -1.
          6    1    1    2  501    0  0.31928070038E+02 -0.14956570063E+02  0.20161925783E+03  0.26799706300E+03  0.17300000000E+03 0.  1.
         -6    1    1    2    0  503 -0.31928070038E+02  0.14956570063E+02 -0.11922430521E+03  0.21304115940E+03  0.17300000000E+03 0. -1.
</event>
<event>
 4    1  0.6164307E+000  0.1000000E+03  0.7546771E-02  0.1280296E+00
         21   -1    0    0  503  502  0.00000000000E+00  0.00000000000E+00  0.20610781915E+03  0.20610781915E+03  0.00000000000E+00 0.  1.
         21   -1    0    0  501  503 -0.00000000000E+00 -0.00000000000E+00 -0.16437330854E+03  0.16437330854E+03  0.00000000000E+00 0.  1.
          6    1    1    2  501    0 -0.25892144521E+02  0.98597038688E+01 -0.35903385151E+02  0.17884538007E+03  0.17300000000E+03 0.  1.
         -6    1    1    2    0  502  0.25892144521E+02 -0.98597038688E+01  0.77637895753E+02  0.19163574762E+03  0.17300000000E+03 0.  1.
</event>
<event>
 4    1  0.6164307E+000  0.1000000E+03  0.7546771E-02  0.1280296E+00
         21   -1    0    0  503  502  0.00000000000E+00  0.00000000000E+00  0.34987313982E+03  0.34987313982E+03  0.00000000000E+00 0.  1.
         21   -1    0    0  501  503 -0.00000000000E+00 -0.00000000000E+00 -0.12310540618E+03  0.12310540618E+03  0.00000000000E+00 0.  1.
          6    1    1    2  501    0 -0.49531116494E+02  0.73681506281E+02  0.19602753634E+03  0.27611246055E+03  0.17300000000E+03 0.  1.
         -6    1    1    2    0  502  0.49531116494E+02 -0.73681506281E+02  0.30740197298E+02  0.19686608545E+03  0.17300000000E+03 0.  1.
</event>
<event>
 4    1  0.6164307E+000  0.1000000E+03  0.7546771E-02  0.1280296E+00
         21   -1    0    0  503  502  0.00000000000E+00  0.00000000000E+00  0.23679841407E+03  0.23679841407E+03  0.00000000000E+00 0.  1.
         21   -1    0    0  501  503 -0.00000000000E+00 -0.00000000000E+00 -0.53132229584E+03  0.53132229584E+03  0.00000000000E+00 0.  1.
          6    1    1    2  501    0 -0.20824131855E+03  0.13126011462E+03  0.56151253960E+02  0.30606474440E+03  0.17300000000E+03 0.  1.
         -6    1    1    2    0  502  0.20824131855E+03 -0.13126011462E+03 -0.35067513573E+03  0.46205596551E+03  0.17300000000E+03 0.  1.
</event>
<event>
 4    1  0.6164307E+000  0.1000000E+03  0.7546771E-02  0.1280296E+00
         21   -1    0    0  501  502  0.00000000000E+00  0.00000000000E+00  0.72758518154E+03  0.72758518154E+03  0.00000000000E+00 0. -1.
         21   -1    0    0  502  503 -0.00000000000E+00 -0.00000000000E+00 -0.80111905000E+02  0.80111905000E+02  0.00000000000E+00 0. -1.
          6    1    1    2  501    0 -0.28680464233E+02 -0.72804264110E+02  0.57317221900E+03  0.60380329789E+03  0.17300000000E+03 0. -1.
         -6    1    1    2    0  503  0.28680464233E+02  0.72804264110E+02  0.74301057539E+02  0.20389378866E+03  0.17300000000E+03 0. -1.
</event>
<event>
 4    1  0.6164307E+000  0.1000000E+03  0.7546771E-02  0.1280296E+00
         21   -1    0    0  501  502  0.00000000000E+00  0.00000000000E+00  0.85709459345E+03  0.85709459345E+03  0.00000000000E+00 0. -1.
         21   -1    0    0  502  503 -0.00000000000E+00 -0.00000000000E+00 -0.49422810032E+02  0.49422810032E+02  0.00000000000E+00 0. -1.
          6    1    1    2  501    0  0.20373414514E+02 -0.92693327056E+02  0.27497289266E+03  0.33844677661E+03  0.17300000000E+03 0. -1.
         -6    1    1    2    0  503 -0.20373414514E+02  0.92693327056E+02  0.53269889077E+03  0.56807062688E+03  0.17300000000E+03 0. -1.
</event>
<event>
 4    1  0.6164307E+000  0.1000000E+03  0.7546771E-02  0.1280296E+00
         21   -1    0    0  501  502  0.00000000000E+00  0.00000000000E+00  0.28121573656E+03  0.28121573656E+03  0.00000000000E+00 0. -1.
         21   -1    0    0  502  503 -0.00000000000E+00 -0.00000000000E+00 -0.33301476738E+03  0.33301476738E+03  0.00000000000E+00 0. -1.
          6    1    1    2  501    0 -0.17150431193E+03  0.76243407352E+02  0.14350324966E+03  0.29282924860E+03  0.17300000000E+03 0. -1.
         -6    1    1    2    0  503  0.17150431193E+03 -0.76243407352E+02 -0.19530228048E+03  0.32140125534E+03  0.17300000000E+03 0. -1.
</event>
<event>
 4    1  0.6164307E+000  0.1000000E+03  0.7546771E-02  0.1280296E+00
         21   -1    0    0  501  502  0.00000000000E+00  0.00000000000E+00  0.22958732748E+03  0.22958732748E+03  0.00000000000E+00 0. -1.
         21   -1    0    0  502  503 -0.00000000000E+00 -0.00000000000E+00 -0.37424906704E+03  0.37424906704E+03  0.00000000000E+00 0. -1.
          6    1    1    2  501    0  0.69430524173E+02 -0.15475213416E+03  0.97618317879E+02  0.26120328616E+03  0.17300000000E+03 0. -1.
         -6    1    1    2    0  503 -0.69430524173E+02  0.15475213416E+03 -0.24228005744E+03  0.34263310836E+03  0.17300000000E+03 0. -1.
</event>
<event>
 4    1  0.6164307E+000  0.1000000E+03  0.7546771E-02  0.1280296E+00
         21   -1    0    0  503  502  0.00000000000E+00  0.00000000000E+00  0.28578594492E+03  0.28578594492E+03  0.00000000000E+00 0.  1.
         21   -1    0    0  501  503 -0.00000000000E+00 -0.00000000000E+00 -0.43437653357E+03  0.43437653357E+03  0.00000000000E+00 0.  1.
          6    1    1    2  501    0  0.11406911796E+03  0.25714629790E+03 -0.19977029039E+03  0.38597040187E+03  0.17300000000E+03 0.  1.
         -6    1    1    2    0  502 -0.11406911796E+03 -0.25714629790E+03  0.51179701743E+02  0.33419207661E+03  0.17300000000E+03 0.  1.
</event>
<event>
 4    1  0.6164307E+000  0.1000000E+03  0.7546771E-02  0.1280296E+00
         21   -1    0    0  503  502  0.00000000000E+00  0.00000000000E+00  0.71689961641E+02  0.71689961641E+02  0.00000000000E+00 0.  1.
         21   -1    0    0  501  503 -0.00000000000E+00 -0.00000000000E+00 -0.54325933888E+03  0.54325933888E+03  0.00000000000E+00 0.  1.
          6    1    1    2  501    0 -0.92627772672E+02  0.12639894453E+02 -0.26174218345E+03  0.32737996548E+03  0.17300000000E+03 0.  1.
         -6    1    1    2    0  502  0.92627772672E+02 -0.12639894453E+02 -0.20982719379E+03  0.28756933504E+03  0.17300000000E+03 0.  1.
</event>
<event>
 4    1  0.6164307E+000  0.1000000E+03  0.7546771E-02  0.1280296E+00
         21   -1    0    0  503  502  0.00000000000E+00  0.00000000000E+00  0.93638295303E+02  0.93638295303E+02  0.00000000000E+00 0.  1.
         21   -1    0    0  501  503 -0.00000000000E+00 -0.00000000000E+00 -0.63473858039E+03  0.63473858039E+03  0.00000000000E+00 0.  1.
          6    1    1    2  501    0 -0.12136910198E+03 -0.87235943189E+02 -0.39700879151E+03  0.45813267645E+03  0.17300000000E+03 0.  1.
         -6    1    1    2    0  502  0.12136910198E+03  0.87235943189E+02 -0.14409149358E+03  0.27024419924E+03  0.17300000000E+03 0.  1.
</event>
<event>
 4    1  0.6164307E+000  0.1000000E+03  0.7546771E-02  0.1280296E+00
         21   -1    0    0  503  502  0.00000000000E+00  0.00000000000E+00  0.30114843999E+03  0.30114843999E+03  0.00000000000E+00 0.  1.
         21   -1    0    0  501  503 -0.00000000000E+00 -0.00000000000E+00 -0.54124965594E+03  0.54124965594E+03  0.00000000000E+00 0.  1.
          6    1    1    2  501    0  0.26946720003E+02 -0.33259500021E+03 -0.27381205476E+03  0.46502430175E+03  0.17300000000E+03 0.  1.
         -6    1    1    2    0  502 -0.26946720003E+02  0.33259500021E+03  0.33710838805E+02  0.37737379419E+03  0.17300000000E+03 0.  1.
</event>
<event>
 4    1  0.6164307E+000  0.1000000E+03  0.7546771E-02  0.1280296E+00
         21   -1    0    0  503  502  0.00000000000E+00  0.00000000000E+00  0.44188691059E+02  0.44188691059E+02  0.00000000000E+00 0.  1.
         21   -1    0    0  501  503 -0.00000000000E+00 -0.00000000000E+00 -0.17990772608E+04  0.17990772608E+04  0.00000000000E+00 0.  1.
          6    1    1    2  501    0 -0.14094940830E+03  0.69707665697E+02 -0.13926587771E+04  0.14121449514E+04  0.17300000000E+03 0.  1.
         -6    1    1    2    0  502  0.14094940830E+03 -0.69707665697E+02 -0.36222979270E+03  0.43112100050E+03  0.17300000000E+03 0.  1.
</event>
<event>
 4    1  0.6164307E+000  0.1000000E+03  0.7546771E-02  0.1280296E+00
         21   -1    0    0  503  502  0.00000000000E+00  0.00000000000E+00  0.26662661585E+02  0.26662661585E+02  0.00000000000E+00 0. -1.
         21   -1    0    0  501  503 -0.00000000000E+00 -0.00000000000E+00 -0.13881906568E+04  0.13881906568E+04  0.00000000000E+00 0.  1.
          6    1    1    2  501    0  0.22492958312E+02 -0.80584160153E+02 -0.71448874405E+03  0.73988033182E+03  0.17300000000E+03 0.  1.
         -6    1    1    2    0  502 -0.22492958312E+02  0.80584160153E+02 -0.64703925112E+03  0.67497298652E+03  0.17300000000E+03 0. -1.
</event>
<event>
 4    1  0.6164307E+000  0.1000000E+03  0.7546771E-02  0.1280296E+00
         21   -1    0    0  503  502  0.00000000000E+00  0.00000000000E+00  0.78326578623E+03  0.78326578623E+03  0.00000000000E+00 0. -1.
         21   -1    0    0  501  503 -0.00000000000E+00 -0.00000000000E+00 -0.28283178904E+03  0.28283178904E+03  0.00000000000E+00 0.  1.
          6    1    1    2  501    0 -0.16847090283E+03  0.44688715187E+02 -0.20452287083E+03  0.31959056785E+03  0.17300000000E+03 0.  1.
         -6    1    1    2    0  502  0.16847090283E+03 -0.44688715187E+02  0.70495686801E+03  0.74650700742E+03  0.17300000000E+03 0. -1.
</event>
<event>
 4    1  0.6164307E+000  0.1000000E+03  0.7546771E-02  0.1280296E+00
         21   -1    0    0  503  502  0.00000000000E+00  0.00000000000E+00  0.77745815706E+02  0.77745815706E+02  0.00000000000E+00 0.  1.
         21   -1    0    0  501  503 -0.00000000000E+00 -0.00000000000E+00 -0.98185950401E+03  0.98185950401E+03  0.00000000000E+00 0.  1.
          6    1    1    2  501    0 -0.15059160912E+03  0.13272998189E+03 -0.60196347679E+03  0.65771126509E+03  0.17300000000E+03 0.  1.
         -6    1    1    2    0  502  0.15059160912E+03 -0.13272998189E+03 -0.30215021151E+03  0.40189405463E+03  0.17300000000E+03 0.  1.
</event>
<event>
 4    1  0.6164307E+000  0.1000000E+03  0.7546771E-02  0.1280296E+00
         21   -1    0    0  503  502  0.00000000000E+00  0.00000000000E+00  0.28884874721E+03  0.28884874721E+03  0.00000000000E+00 0.  1.
         21   -1    0    0  501  503 -0.00000000000E+00 -0.00000000000E+00 -0.16061413617E+03  0.16061413617E+03  0.00000000000E+00 0.  1.
          6    1    1    2  501    0 -0.72292585443E+02 -0.22182461169E+02 -0.44040623041E+02  0.19387329876E+03  0.17300000000E+03 0.  1.
         -6    1    1    2    0  502  0.72292585443E+02  0.22182461169E+02  0.17227523408E+03  0.25558958463E+03  0.17300000000E+03 0.  1.
</event>
<event>
 4    1  0.6164307E+000  0.1000000E+03  0.7546771E-02  0.1280296E+00
         21   -1    0    0  503  502  0.00000000000E+00  0.00000000000E+00  0.23067864741E+03  0.23067864741E+03  0.00000000000E+00 0.  1.
         21   -1    0    0  501  503 -0.00000000000E+00 -0.00000000000E+00 -0.54961082268E+03  0.54961082268E+03  0.00000000000E+00 0.  1.
          6    1    1    2  501    0 -0.14525550934E+03  0.15072239674E+03 -0.41180736688E+03  0.49328562850E+03  0.17300000000E+03 0.  1.
         -6    1    1    2    0  502  0.14525550934E+03 -0.15072239674E+03  0.92875191602E+02  0.28700384159E+03  0.17300000000E+03 0.  1.
</event>
<event>
 4    1  0.6164307E+000  0.1000000E+03  0.7546771E-02  0.1280296E+00
         21   -1    0    0  501  502  0.00000000000E+00  0.00000000000E+00  0.13357495937E+04  0.13357495937E+04  0.00000000000E+00 0. -1.
         21   -1    0    0  502  503 -0.00000000000E+00 -0.00000000000E+00 -0.42366926891E+02  0.42366926891E+02  0.00000000000E+00 0.  1.
          6    1    1    2  501    0 -0.90947372742E+02 -0.26292809912E+02  0.10320498498E+04  0.10507229078E+04  0.17300000000E+03 0. -1.
         -6    1    1    2    0  503  0.90947372742E+02  0.26292809912E+02  0.26133281700E+03  0.32739361280E+03  0.17300000000E+03 0.  1.
</event>
<event>
 4    1  0.6164307E+000  0.1000000E+03  0.7546771E-02  0.1280296E+00
         21   -1    0    0  501  502  0.00000000000E+00  0.00000000000E+00  0.18849542650E+03  0.18849542650E+03  0.00000000000E+00 0. -1.
         21   -1    0    0  502  503 -0.00000000000E+00 -0.00000000000E+00 -0.33506095072E+03  0.33506095072E+03  0.00000000000E+00 0. -1.
          6    1    1    2  501    0 -0.10751129129E+03  0.49168668411E+02  0.71248422320E+02  0.22131781083E+03  0.17300000000E+03 0. -1.
         -6    1    1    2    0  503  0.10751129129E+03 -0.49168668411E+02 -0.21781394654E+03  0.30223856640E+03  0.17300000000E+03 0. -1.
</event>
<event>
 4    1  0.6164307E+000  0.1000000E+03  0.7546771E-02  0.1280296E+00
         21   -1    0    0  501  502  0.00000000000E+00  0.00000000000E+00  0.41101229468E+03  0.41101229468E+03  0.00000000000E+00 0. -1.
         21   -1    0    0  502  503 -0.00000000000E+00 -0.00000000000E+00 -0.12041745909E+03  0.12041745909E+03  0.00000000000E+00 0. -1.
          6    1    1    2  501    0 -0.11708969740E+03  0.72378706506E+02  0.11566848195E+03  0.24951327041E+03  0.17300000000E+03 0. -1.
         -6    1    1    2    0  503  0.11708969740E+03 -0.72378706506E+02  0.17492635364E+03  0.28191648336E+03  0.17300000000E+03 0. -1.
</event>
<event>
 4    1  0.6164307E+000  0.1000000E+03  0.7546771E-02  0.1280296E+00
         21   -1    0    0  501  502  0.00000000000E+00  0.00000000000E+00  0.18526574678E+04  0.18526574678E+04  0.00000000000E+00 0. -1.
         21   -1    0    0  502  503 -0.00000000000E+00 -0.00000000000E+00 -0.27747485601E+02  0.27747485601E+02  0.00000000000E+00 0. -1.
          6    1    1    2  501    0  0.12357947080E+03  0.73049747463E+02  0.10347280053E+04  0.10588669398E+04  0.17300000000E+03 0. -1.
         -6    1    1    2    0  503 -0.12357947080E+03 -0.73049747463E+02  0.79018197696E+03  0.82153801368E+03  0.17300000000E+03 0. -1.
</event>
<event>
 4    1  0.6164307E+000  0.1000000E+03  0.7546771E-02  0.1280296E+00
         21   -1    0    0  503  502  0.00000000000E+00  0.00000000000E+00  0.19579217638E+03  0.19579217638E+03  0.00000000000E+00 0. -1.
         21   -1    0    0  501  503 -0.00000000000E+00 -0.00000000000E+00 -0.59817114342E+03  0.59817114342E+03  0.00000000000E+00 0. -1.
          6    1    1    2  501    0 -0.12854630110E+03  0.20225765153E+03 -0.40128932517E+03  0.49839184546E+03  0.17300000000E+03 0. -1.
         -6    1    1    2    0  502  0.12854630110E+03 -0.20225765153E+03 -0.10896418746E+01  0.29557147435E+03  0.17300000000E+03 0. -1.
</event>
<event>
 4    1  0.6164307E+000  0.1000000E+03  0.7546771E-02  0.1280296E+00
         21   -1    0    0  503  502  0.00000000000E+00  0.00000000000E+00  0.75782633236E+02  0.75782633236E+02  0.00000000000E+00 0. -1.
         21   -1    0    0  501  503 -0.00000000000E+00 -0.00000000000E+00 -0.20065665709E+04  0.20065665709E+04  0.00000000000E+00 0. -1.
          6    1    1    2  501    0 -0.71161652409E+02  0.64136068916E+02 -0.18627536347E+04  0.18732211615E+04  0.17300000000E+03 0. -1.
         -6    1    1    2    0  502  0.71161652409E+02 -0.64136068916E+02 -0.68030302938E+02  0.20912804266E+03  0.17300000000E+03 0. -1.
</event>
<event>
 4    1  0.6164307E+000  0.1000000E+03  0.7546771E-02  0.1280296E+00
         21   -1    0    0  501  502  0.00000000000E+00  0.00000000000E+00  0.72422086885E+02  0.72422086885E+02  0.00000000000E+00 0.  1.
         21   -1    0    0  502  503 -0.00000000000E+00 -0.00000000000E+00 -0.50444570076E+03  0.50444570076E+03  0.00000000000E+00 0.  1.
          6    1    1    2  501    0 -0.35673941190E+01  0.81103174248E+02 -0.21045506125E+03  0.28427237639E+03  0.17300000000E+03 0. -1.
         -6    1    1    2    0  503  0.35673941190E+01 -0.81103174248E+02 -0.22156855262E+03  0.29259541125E+03  0.17300000000E+03 0. -1.
</event>
<event>
 4    1  0.6164307E+000  0.1000000E+03  0.7546771E-02  0.1280296E+00
         21   -1    0    0  501  502  0.00000000000E+00  0.00000000000E+00  0.12147350918E+03  0.12147350918E+03  0.00000000000E+00 0.  1.
         21   -1    0    0  502  503 -0.00000000000E+00 -0.00000000000E+00 -0.30439294664E+03  0.30439294664E+03  0.00000000000E+00 0.  1.
          6    1    1    2  501    0  0.42823284047E+02 -0.71786706165E+02 -0.82916983056E+02  0.20926392646E+03  0.17300000000E+03 0. -1.
         -6    1    1    2    0  503 -0.42823284047E+02  0.71786706165E+02 -0.10000245440E+03  0.21660252936E+03  0.17300000000E+03 0. -1.
</event>
<event>
 4    1  0.6164307E+000  0.1000000E+03  0.7546771E-02  0.1280296E+00
         21   -1    0    0  501  502  0.00000000000E+00  0.00000000000E+00  0.23744633506E+02  0.23744633506E+02  0.00000000000E+00 0.  1.
         21   -1    0    0  502  503 -0.00000000000E+00 -0.00000000000E+00 -0.14075829017E+04  0.14075829017E+04  0.00000000000E+00 0.  1.
          6    1    1    2  501    0 -0.92610325121E+01  0.50730732160E+02 -0.57885741014E+03  0.60635325940E+03  0.17300000000E+03 0. -1.
         -6    1    1    2    0  503  0.92610325121E+01 -0.50730732160E+02 -0.80498085802E+03  0.82497427578E+03  0.17300000000E+03 0. -1.
</event>
<event>
 4    1  0.6164307E+000  0.1000000E+03  0.7546771E-02  0.1280296E+00
         21   -1    0    0  501  502  0.00000000000E+00  0.00000000000E+00  0.37929404840E+02  0.37929404840E+02  0.00000000000E+00 0.  1.
         21   -1    0    0  502  503 -0.00000000000E+00 -0.00000000000E+00 -0.12891394135E+04  0.12891394135E+04  0.00000000000E+00 0.  1.
          6    1    1    2  501    0 -0.56416089354E+02 -0.10806096534E+03 -0.43329317643E+03  0.48221564067E+03  0.17300000000E+03 0.  1.
         -6    1    1    2    0  503  0.56416089354E+02  0.10806096534E+03 -0.81791683220E+03  0.84485317764E+03  0.17300000000E+03 0.  1.
</event>
<event>
 4    1  0.6164307E+000  0.1000000E+03  0.7546771E-02  0.1280296E+00
         21   -1    0    0  501  502  0.00000000000E+00  0.00000000000E+00  0.20762239704E+03  0.20762239704E+03  0.00000000000E+00 0.  1.
         21   -1    0    0  502  503 -0.00000000000E+00 -0.00000000000E+00 -0.28152943717E+03  0.28152943717E+03  0.00000000000E+00 0.  1.
          6    1    1    2  501    0 -0.69049132597E+02 -0.37333513656E+02  0.11431990888E+03  0.22171967779E+03  0.17300000000E+03 0.  1.
         -6    1    1    2    0  503  0.69049132597E+02  0.37333513656E+02 -0.18822694900E+03  0.26743215642E+03  0.17300000000E+03 0.  1.
</event>
<event>
 4    1  0.6164307E+000  0.1000000E+03  0.7546771E-02  0.1280296E+00
         21   -1    0    0  501  502  0.00000000000E+00  0.00000000000E+00  0.13977257055E+04  0.13977257055E+04  0.00000000000E+00 0.  1.
         21   -1    0    0  502  503 -0.00000000000E+00 -0.00000000000E+00 -0.17091123070E+03  0.17091123070E+03  0.00000000000E+00 0.  1.
          6    1    1    2  501    0  0.35097699409E+02 -0.35347153682E+02  0.13425821917E+04  0.13545985424E+04  0.17300000000E+03 0.  1.
         -6    1    1    2    0  503 -0.35097699409E+02  0.35347153682E+02 -0.11576771681E+03  0.21403839383E+03  0.17300000000E+03 0.  1.
</event>
<event>
 4    1  0.6164307E+000  0.1000000E+03  0.7546771E-02  0.1280296E+00
         21   -1    0    0  503  502  0.00000000000E+00  0.00000000000E+00  0.48906942793E+03  0.48906942793E+03  0.00000000000E+00 0.  1.
         21   -1    0    0  501  503 -0.00000000000E+00 -0.00000000000E+00 -0.74854981613E+02  0.74854981613E+02  0.00000000000E+00 0.  1.
          6    1    1    2  501    0  0.11879910394E+02 -0.59416564667E+02  0.12627331477E+03  0.22258798362E+03  0.17300000000E+03 0. -1.
         -6    1    1    2    0  502 -0.11879910394E+02  0.59416564667E+02  0.28794113154E+03  0.34133642592E+03  0.17300000000E+03 0. -1.
</event>
<event>
 4    1  0.6164307E+000  0.1000000E+03  0.7546771E-02  0.1280296E+00
         21   -1    0    0  503  502  0.00000000000E+00  0.00000000000E+00  0.34216232253E+03  0.34216232253E+03  0.00000000000E+00 0.  1.
         21   -1    0    0  501  503 -0.00000000000E+00 -0.00000000000E+00 -0.74277591560E+03  0.74277591560E+03  0.00000000000E+00 0.  1.
          6    1    1    2  501    0  0.11213353720E+03  0.18857596260E+03 -0.65184299153E+03  0.70919892093E+03  0.17300000000E+03 0. -1.
         -6    1    1    2    0  502 -0.11213353720E+03 -0.18857596260E+03  0.25122939847E+03  0.37573931720E+03  0.17300000000E+03 0. -1.
</event>
<event>
 4    1  0.6164307E+000  0.1000000E+03  0.7546771E-02  0.1280296E+00
         21   -1    0    0  503  502  0.00000000000E+00  0.00000000000E+00  0.80430720002E+03  0.80430720002E+03  0.00000000000E+00 0.  1.
         21   -1    0    0  501  503 -0.00000000000E+00 -0.00000000000E+00 -0.87000277223E+02  0.87000277223E+02  0.00000000000E+00 0.  1.
          6    1    1    2  501    0  0.11279594761E+03 -0.13677514468E+03  0.20227800058E+03  0.31980580908E+03  0.17300000000E+03 0. -1.
         -6    1    1    2    0  502 -0.11279594761E+03  0.13677514468E+03  0.51502892221E+03  0.57150166816E+03  0.17300000000E+03 0. -1.
</event>
<event>
 4    1  0.6164307E+000  0.1000000E+03  0.7546771E-02  0.1280296E+00
         21   -1    0    0  501  502  0.00000000000E+00  0.00000000000E+00  0.15725254496E+03  0.15725254496E+03  0.00000000000E+00 0. -1.
         21   -1    0    0  502  503 -0.00000000000E+00 -0.00000000000E+00 -0.27857653229E+03  0.27857653229E+03  0.00000000000E+00 0. -1.
          6    1    1    2  501    0  0.59970158082E+02 -0.86104860562E+02 -0.49101315847E+01  0.20239460533E+03  0.17300000000E+03 0. -1.
         -6    1    1    2    0  503 -0.59970158082E+02  0.86104860562E+02 -0.11641385574E+03  0.23343447192E+03  0.17300000000E+03 0. -1.
</event>
<event>
 4    1  0.6164307E+000  0.1000000E+03  0.7546771E-02  0.1280296E+00
         21   -1    0    0  501  502  0.00000000000E+00  0.00000000000E+00  0.29787243884E+03  0.29787243884E+03  0.00000000000E+00 0.  1.
         21   -1    0    0  502  503 -0.00000000000E+00 -0.00000000000E+00 -0.20353986238E+03  0.20353986238E+03  0.00000000000E+00 0. -1.
          6    1    1    2  501    0 -0.23001464353E+02 -0.95522762591E+02  0.19487715578E+03  0.27849555002E+03  0.17300000000E+03 0.  1.
         -6    1    1    2    0  503  0.23001464353E+02  0.95522762591E+02 -0.10054457932E+03  0.22291675120E+03  0.17300000000E+03 0.  1.
</event>
<event>
 4    1  0.6164307E+000  0.1000000E+03  0.7546771E-02  0.1280296E+00
         21   -1    0    0  501  502  0.00000000000E+00  0.00000000000E+00  0.16988647527E+03  0.16988647527E+03  0.00000000000E+00 0.  1.
         21   -1    0    0  502  503 -0.00000000000E+00 -0.00000000000E+00 -0.34010636961E+03  0.34010636961E+03  0.00000000000E+00 0. -1.
          6    1    1    2  501    0  0.89767019506E+02 -0.93222190175E+02  0.26665773665E+02  0.21768913160E+03  0.17300000000E+03 0.  1.
         -6    1    1    2    0  503 -0.89767019506E+02  0.93222190175E+02 -0.19688566800E+03  0.29230371328E+03  0.17300000000E+03 0. -1.
</event>
<event>
 4    1  0.6164307E+000  0.1000000E+03  0.7546771E-02  0.1280296E+00
         21   -1    0    0  501  502  0.00000000000E+00  0.00000000000E+00  0.23138600087E+03  0.23138600087E+03  0.00000000000E+00 0.  1.
         21   -1    0    0  502  503 -0.00000000000E+00 -0.00000000000E+00 -0.55195242552E+03  0.55195242552E+03  0.00000000000E+00 0. -1.
          6    1    1    2  501    0  0.86062544890E+02 -0.29872956504E+02  0.16756845756E+03  0.25750212258E+03  0.17300000000E+03 0.  1.
         -6    1    1    2    0  503 -0.86062544890E+02  0.29872956504E+02 -0.48813488222E+03  0.52583630381E+03  0.17300000000E+03 0. -1.
</event>
<event>
 4    1  0.6164307E+000  0.1000000E+03  0.7546771E-02  0.1280296E+00
         21   -1    0    0  501  502  0.00000000000E+00  0.00000000000E+00  0.14178381344E+03  0.14178381344E+03  0.00000000000E+00 0. -1.
         21   -1    0    0  502  503 -0.00000000000E+00 -0.00000000000E+00 -0.53724902256E+03  0.53724902256E+03  0.00000000000E+00 0. -1.
          6    1    1    2  501    0  0.38850670638E+02  0.20475526185E+03 -0.26294382473E+03  0.37749509510E+03  0.17300000000E+03 0. -1.
         -6    1    1    2    0  503 -0.38850670638E+02 -0.20475526185E+03 -0.13252138439E+03  0.30153774090E+03  0.17300000000E+03 0. -1.
</event>
<event>
 4    1  0.6164307E+000  0.1000000E+03  0.7546771E-02  0.1280296E+00
         21   -1    0    0  501  502  0.00000000000E+00  0.00000000000E+00  0.15245187518E+04  0.15245187518E+04  0.00000000000E+00 0. -1.
         21   -1    0    0  502  503 -0.00000000000E+00 -0.00000000000E+00 -0.75498453831E+02  0.75498453831E+02  0.00000000000E+00 0. -1.
          6    1    1    2  501    0 -0.12062148668E+03 -0.20894165709E+03  0.11117219452E+04  0.11506784271E+04  0.17300000000E+03 0. -1.
         -6    1    1    2    0  503  0.12062148668E+03  0.20894165709E+03  0.33729835273E+03  0.44933877851E+03  0.17300000000E+03 0. -1.
</event>
<event>
 4    1  0.6164307E+000  0.1000000E+03  0.7546771E-02  0.1280296E+00
         21   -1    0    0  501  502  0.00000000000E+00  0.00000000000E+00  0.33631222968E+03  0.33631222968E+03  0.00000000000E+00 0. -1.
         21   -1    0    0  502  503 -0.00000000000E+00 -0.00000000000E+00 -0.10573798015E+03  0.10573798015E+03  0.00000000000E+00 0. -1.
          6    1    1    2  501    0  0.70725958684E+01 -0.32549225490E+02  0.36465721510E+02  0.17991170762E+03  0.17300000000E+03 0. -1.
         -6    1    1    2    0  503 -0.70725958684E+01  0.32549225490E+02  0.19410852802E+03  0.26213850221E+03  0.17300000000E+03 0. -1.
</event>
<event>
 4    1  0.6164307E+000  0.1000000E+03  0.7546771E-02  0.1280296E+00
         21   -1    0    0  503  502  0.00000000000E+00  0.00000000000E+00  0.18079335080E+03  0.18079335080E+03  0.00000000000E+00 0. -1.
         21   -1    0    0  501  503 -0.00000000000E+00 -0.00000000000E+00 -0.40782639731E+03  0.40782639731E+03  0.00000000000E+00 0. -1.
          6    1    1    2  501    0  0.18733571904E+03 -0.91678207775E+02 -0.13240616494E+03  0.30159568618E+03  0.17300000000E+03 0. -1.
         -6    1    1    2    0  502 -0.18733571904E+03  0.91678207775E+02 -0.94626881575E+02  0.28702406193E+03  0.17300000000E+03 0. -1.
</event>
<event>
 4    1  0.6164307E+000  0.1000000E+03  0.7546771E-02  0.1280296E+00
         21   -1    0    0  503  502  0.00000000000E+00  0.00000000000E+00  0.26752101173E+03  0.26752101173E+03  0.00000000000E+00 0. -1.
         21   -1    0    0  501  503 -0.00000000000E+00 -0.00000000000E+00 -0.26352924006E+03  0.26352924006E+03  0.00000000000E+00 0. -1.
          6    1    1    2  501    0 -0.11994488308E+03 -0.29404240485E+02 -0.15712876731E+03  0.26432902575E+03  0.17300000000E+03 0. -1.
         -6    1    1    2    0  502  0.11994488308E+03  0.29404240485E+02  0.16112053899E+03  0.26672122604E+03  0.17300000000E+03 0. -1.
</event>
<event>
 4    1  0.6164307E+000  0.1000000E+03  0.7546771E-02  0.1280296E+00
         21   -1    0    0  503  502  0.00000000000E+00  0.00000000000E+00  0.11690378627E+03  0.11690378627E+03  0.00000000000E+00 0.  1.
         21   -1    0    0  501  503 -0.00000000000E+00 -0.00000000000E+00 -0.57979459338E+03  0.57979459338E+03  0.00000000000E+00 0. -1.
          6    1    1    2  501    0 -0.39722826071E+02  0.14642704712E+03 -0.39440095219E+03  0.45661788634E+03  0.17300000000E+03 0. -1.
         -6    1    1    2    0  502  0.39722826071E+02 -0.14642704712E+03 -0.68489854923E+02  0.24008049331E+03  0.17300000000E+03 0. -1.
</event>
<event>
 4    1  0.6164307E+000  0.1000000E+03  0.7546771E-02  0.1280296E+00
         21   -1    0    0  503  502  0.00000000000E+00  0.00000000000E+00  0.12963711623E+04  0.12963711623E+04  0.00000000000E+00 0. -1.
         21   -1    0    0  501  503 -0.00000000000E+00 -0.00000000000E+00 -0.47367829756E+02  0.47367829756E+02  0.00000000000E+00 0. -1.
          6    1    1    2  501    0  0.20832982813E+02  0.88352401603E+02  0.21119755151E+03  0.28770395515E+03  0.17300000000E+03 0. -1.
         -6    1    1    2    0  502 -0.20832982813E+02 -0.88352401603E+02  0.10378057810E+04  0.10560350369E+04  0.17300000000E+03 0. -1.
</event>
<event>
 4    1  0.6164307E+000  0.1000000E+03  0.7546771E-02  0.1280296E+00
         21   -1    0    0  503  502  0.00000000000E+00  0.00000000000E+00  0.18244876604E+03  0.18244876604E+03  0.00000000000E+00 0. -1.
         21   -1    0    0  501  503 -0.00000000000E+00 -0.00000000000E+00 -0.23906075311E+03  0.23906075311E+03  0.00000000000E+00 0. -1.
          6    1    1    2  501    0  0.81400827404E+02 -0.81537872019E+02 -0.78022471491E+01  0.20800094792E+03  0.17300000000E+03 0. -1.
         -6    1    1    2    0  502 -0.81400827404E+02  0.81537872019E+02 -0.48809739921E+02  0.21350857123E+03  0.17300000000E+03 0. -1.
</event>
<event>
 4    1  0.6164307E+000  0.1000000E+03  0.7546771E-02  0.1280296E+00
         21   -1    0    0  503  502  0.00000000000E+00  0.00000000000E+00  0.33397715466E+03  0.33397715466E+03  0.00000000000E+00 0. -1.
         21   -1    0    0  501  503 -0.00000000000E+00 -0.00000000000E+00 -0.41048352453E+03  0.41048352453E+03  0.00000000000E+00 0. -1.
          6    1    1    2  501    0 -0.81805327047E+01  0.10228586886E+03 -0.35076759738E+03  0.40434666742E+03  0.17300000000E+03 0. -1.
         -6    1    1    2    0  502  0.81805327047E+01 -0.10228586886E+03  0.27426122751E+03  0.34011401177E+03  0.17300000000E+03 0. -1.
</event>
<event>
 4    1  0.6164307E+000  0.1000000E+03  0.7546771E-02  0.1280296E+00
         21   -1    0    0  503  502  0.00000000000E+00  0.00000000000E+00  0.50529801585E+03  0.50529801585E+03  0.00000000000E+00 0.  1.
         21   -1    0    0  501  503 -0.00000000000E+00 -0.00000000000E+00 -0.24193764289E+03  0.24193764289E+03  0.00000000000E+00 0. -1.
          6    1    1    2  501    0  0.10989830841E+03  0.15152152514E+03 -0.12407431790E+03  0.28347812462E+03  0.17300000000E+03 0.  1.
         -6    1    1    2    0  502 -0.10989830841E+03 -0.15152152514E+03  0.38743469086E+03  0.46375753412E+03  0.17300000000E+03 0. -1.
</event>
<event>
 4    1  0.6164307E+000  0.1000000E+03  0.7546771E-02  0.1280296E+00
         21   -1    0    0  503  502  0.00000000000E+00  0.00000000000E+00  0.20409497962E+03  0.20409497962E+03  0.00000000000E+00 0. -1.
         21   -1    0    0  501  503 -0.00000000000E+00 -0.00000000000E+00 -0.17292488119E+03  0.17292488119E+03  0.00000000000E+00 0. -1.
          6    1    1    2  501    0 -0.64226044263E+02 -0.17770595920E+02 -0.14905535126E+02  0.18598912285E+03  0.17300000000E+03 0. -1.
         -6    1    1    2    0  502  0.64226044263E+02  0.17770595920E+02  0.46075633555E+02  0.19103073797E+03  0.17300000000E+03 0. -1.
</event>
<event>
 4    1  0.6164307E+000  0.1000000E+03  0.7546771E-02  0.1280296E+00
         21   -1    0    0  503  502  0.00000000000E+00  0.00000000000E+00  0.16044572620E+04  0.16044572620E+04  0.00000000000E+00 0. -1.
         21   -1    0    0  501  503 -0.00000000000E+00 -0.00000000000E+00 -0.11046837826E+03  0.11046837826E+03  0.00000000000E+00 0. -1.
          6    1    1    2  501    0 -0.98844201885E+02 -0.11370673817E+03  0.28018111501E+02  0.23111342047E+03  0.17300000000E+03 0. -1.
         -6    1    1    2    0  502  0.98844201885E+02  0.11370673817E+03  0.14659707723E+04  0.14838122198E+04  0.17300000000E+03 0. -1.
</event>
<event>
 4    1  0.6164307E+000  0.1000000E+03  0.7546771E-02  0.1280296E+00
         21   -1    0    0  503  502  0.00000000000E+00  0.00000000000E+00  0.11128945296E+03  0.11128945296E+03  0.00000000000E+00 0. -1.
         21   -1    0    0  501  503 -0.00000000000E+00 -0.00000000000E+00 -0.45067545977E+03  0.45067545977E+03  0.00000000000E+00 0. -1.
          6    1    1    2  501    0 -0.53222002164E+02 -0.11296633868E+03 -0.25508666280E+03  0.33255402678E+03  0.17300000000E+03 0. -1.
         -6    1    1    2    0  502  0.53222002164E+02  0.11296633868E+03 -0.84299344014E+02  0.22941088595E+03  0.17300000000E+03 0. -1.
</event>
<event>
 4    1  0.6164307E+000  0.1000000E+03  0.7546771E-02  0.1280296E+00
         21   -1    0    0  503  502  0.00000000000E+00  0.00000000000E+00  0.21410086188E+04  0.21410086188E+04  0.00000000000E+00 0. -1.
         21   -1    0    0  501  503 -0.00000000000E+00 -0.00000000000E+00 -0.18724976404E+02  0.18724976404E+02  0.00000000000E+00 0. -1.
          6    1    1    2  501    0  0.46912973519E+02  0.37083389868E+02  0.62347951484E+03  0.64979359054E+03  0.17300000000E+03 0. -1.
         -6    1    1    2    0  502 -0.46912973519E+02 -0.37083389868E+02  0.14988041276E+04  0.15099400047E+04  0.17300000000E+03 0. -1.
</event>
<event>
 4    1  0.6164307E+000  0.1000000E+03  0.7546771E-02  0.1280296E+00
         21   -1    0    0  503  502  0.00000000000E+00  0.00000000000E+00  0.31468236491E+02  0.31468236491E+02  0.00000000000E+00 0. -1.
         21   -1    0    0  501  503 -0.00000000000E+00 -0.00000000000E+00 -0.18098650184E+04  0.18098650184E+04  0.00000000000E+00 0. -1.
          6    1    1    2  501    0  0.41857248003E+01  0.79478419986E+02 -0.14441083514E+04  0.14566098552E+04  0.17300000000E+03 0. -1.
         -6    1    1    2    0  502 -0.41857248003E+01 -0.79478419986E+02 -0.33428843050E+03  0.38472339973E+03  0.17300000000E+03 0. -1.
</event>
<event>
 4    1  0.6164307E+000  0.1000000E+03  0.7546771E-02  0.1280296E+00
         21   -1    0    0  501  502  0.00000000000E+00  0.00000000000E+00  0.57597917780E+02  0.57597917780E+02  0.00000000000E+00 0.  1.
         21   -1    0    0  502  503 -0.00000000000E+00 -0.00000000000E+00 -0.63874064455E+03  0.63874064455E+03  0.00000000000E+00 0. -1.
          6    1    1    2  501    0  0.42311317464E+02 -0.70965055279E+02 -0.30128635219E+03  0.35711168095E+03  0.17300000000E+03 0.  1.
         -6    1    1    2    0  503 -0.42311317464E+02  0.70965055279E+02 -0.27985637458E+03  0.33922688138E+03  0.17300000000E+03 0. -1.
</event>
<event>
 4    1  0.6164307E+000  0.1000000E+03  0.7546771E-02  0.1280296E+00
         21   -1    0    0  501  502  0.00000000000E+00  0.00000000000E+00  0.13366929501E+03  0.13366929501E+03  0.00000000000E+00 0.  1.
         21   -1    0    0  502  503 -0.00000000000E+00 -0.00000000000E+00 -0.12298122612E+04  0.12298122612E+04  0.00000000000E+00 0.  1.
          6    1    1    2  501    0  0.28916521237E+03  0.67393079722E+02 -0.18626342277E+03  0.39087262619E+03  0.17300000000E+03 0.  1.
         -6    1    1    2    0  503 -0.28916521237E+03 -0.67393079722E+02 -0.90987954336E+03  0.97260892998E+03  0.17300000000E+03 0.  1.
</event>
<event>
 4    1  0.6164307E+000  0.1000000E+03  0.7546771E-02  0.1280296E+00
         21   -1    0    0  501  502  0.00000000000E+00  0.00000000000E+00  0.35533141193E+03  0.35533141193E+03  0.00000000000E+00 0.  1.
         21   -1    0    0  502  503 -0.00000000000E+00 -0.00000000000E+00 -0.11565502367E+04  0.11565502367E+04  0.00000000000E+00 0. -1.
          6    1    1    2  501    0 -0.50536997252E+03 -0.22891696641E+03 -0.81509367024E+02  0.58683435785E+03  0.17300000000E+03 0.  1.
         -6    1    1    2    0  503  0.50536997252E+03  0.22891696641E+03 -0.71970945777E+03  0.92504729081E+03  0.17300000000E+03 0. -1.
</event>
<event>
 4    1  0.6164307E+000  0.1000000E+03  0.7546771E-02  0.1280296E+00
         21   -1    0    0  501  502  0.00000000000E+00  0.00000000000E+00  0.71537170170E+03  0.71537170170E+03  0.00000000000E+00 0.  1.
         21   -1    0    0  502  503 -0.00000000000E+00 -0.00000000000E+00 -0.12567257461E+03  0.12567257461E+03  0.00000000000E+00 0. -1.
          6    1    1    2  501    0 -0.80446321309E+02  0.67742144643E+02  0.60503032407E+03  0.63800572240E+03  0.17300000000E+03 0.  1.
         -6    1    1    2    0  503  0.80446321309E+02 -0.67742144643E+02 -0.15331196976E+02  0.20303855391E+03  0.17300000000E+03 0. -1.
</event>
<event>
 4    1  0.6164307E+000  0.1000000E+03  0.7546771E-02  0.1280296E+00
         21   -1    0    0  501  502  0.00000000000E+00  0.00000000000E+00  0.49368965995E+02  0.49368965995E+02  0.00000000000E+00 0. -1.
         21   -1    0    0  502  503 -0.00000000000E+00 -0.00000000000E+00 -0.81828655052E+03  0.81828655052E+03  0.00000000000E+00 0.  1.
          6    1    1    2  501    0  0.97027241726E+02 -0.25558377863E+02 -0.34121234766E+03  0.39550269596E+03  0.17300000000E+03 0. -1.
         -6    1    1    2    0  503 -0.97027241726E+02  0.25558377863E+02 -0.42770523687E+03  0.47215282056E+03  0.17300000000E+03 0.  1.
</event>
<event>
 4    1  0.6164307E+000  0.1000000E+03  0.7546771E-02  0.1280296E+00
         21   -1    0    0  501  502  0.00000000000E+00  0.00000000000E+00  0.18576285291E+03  0.18576285291E+03  0.00000000000E+00 0. -1.
         21   -1    0    0  502  503 -0.00000000000E+00 -0.00000000000E+00 -0.11357991397E+04  0.11357991397E+04  0.00000000000E+00 0.  1.
          6    1    1    2  501    0 -0.25386733318E+03  0.86733672207E+02  0.11758953282E+00  0.31921836817E+03  0.17300000000E+03 0. -1.
         -6    1    1    2    0  503  0.25386733318E+03 -0.86733672207E+02 -0.95015387632E+03  0.10023436244E+04  0.17300000000E+03 0.  1.
</event>
<event>
 4    1  0.6164307E+000  0.1000000E+03  0.7546771E-02  0.1280296E+00
         21   -1    0    0  503  502  0.00000000000E+00  0.00000000000E+00  0.10515835941E+03  0.10515835941E+03  0.00000000000E+00 0. -1.
         21   -1    0    0  501  503 -0.00000000000E+00 -0.00000000000E+00 -0.95646605382E+03  0.95646605382E+03  0.00000000000E+00 0. -1.
          6    1    1    2  501    0  0.10973325078E+03  0.21216501941E+03 -0.62081353090E+03  0.68730911673E+03  0.17300000000E+03 0. -1.
         -6    1    1    2    0  502 -0.10973325078E+03 -0.21216501941E+03 -0.23049416350E+03  0.37431529650E+03  0.17300000000E+03 0. -1.
</event>
<event>
 4    1  0.6164307E+000  0.1000000E+03  0.7546771E-02  0.1280296E+00
         21   -1    0    0  501  502  0.00000000000E+00  0.00000000000E+00  0.10285144519E+03  0.10285144519E+03  0.00000000000E+00 0.  1.
         21   -1    0    0  502  503 -0.00000000000E+00 -0.00000000000E+00 -0.38133651212E+03  0.38133651212E+03  0.00000000000E+00 0. -1.
          6    1    1    2  501    0 -0.64853417955E+02  0.19294468566E+02 -0.55314172208E+02  0.19382182536E+03  0.17300000000E+03 0.  1.
         -6    1    1    2    0  503  0.64853417955E+02 -0.19294468566E+02 -0.22317089472E+03  0.29036613196E+03  0.17300000000E+03 0. -1.
</event>
<event>
 4    1  0.6164307E+000  0.1000000E+03  0.7546771E-02  0.1280296E+00
         21   -1    0    0  501  502  0.00000000000E+00  0.00000000000E+00  0.10975138374E+04  0.10975138374E+04  0.00000000000E+00 0.  1.
         21   -1    0    0  502  503 -0.00000000000E+00 -0.00000000000E+00 -0.14535987444E+03  0.14535987444E+03  0.00000000000E+00 0. -1.
          6    1    1    2  501    0 -0.12517897397E+03  0.54594513668E+02  0.99433191144E+03  0.10184671259E+04  0.17300000000E+03 0.  1.
         -6    1    1    2    0  503  0.12517897397E+03 -0.54594513668E+02 -0.42177948520E+02  0.22440658588E+03  0.17300000000E+03 0. -1.
</event>
<event>
 4    1  0.6164307E+000  0.1000000E+03  0.7546771E-02  0.1280296E+00
         21   -1    0    0  501  502  0.00000000000E+00  0.00000000000E+00  0.40781973778E+03  0.40781973778E+03  0.00000000000E+00 0.  1.
         21   -1    0    0  502  503 -0.00000000000E+00 -0.00000000000E+00 -0.25440192638E+03  0.25440192638E+03  0.00000000000E+00 0. -1.
          6    1    1    2  501    0  0.11543237561E+03  0.83774370396E+02  0.31443018766E+03  0.38618405118E+03  0.17300000000E+03 0.  1.
         -6    1    1    2    0  503 -0.11543237561E+03 -0.83774370396E+02 -0.16101237626E+03  0.27603761299E+03  0.17300000000E+03 0. -1.
</event>
<event>
 4    1  0.6164307E+000  0.1000000E+03  0.7546771E-02  0.1280296E+00
         21   -1    0    0  501  502  0.00000000000E+00  0.00000000000E+00  0.36515806685E+03  0.36515806685E+03  0.00000000000E+00 0. -1.
         21   -1    0    0  502  503 -0.00000000000E+00 -0.00000000000E+00 -0.72227939767E+03  0.72227939767E+03  0.00000000000E+00 0. -1.
          6    1    1    2  501    0  0.15275050641E+02  0.19769931645E+02  0.33269597328E+03  0.37581882338E+03  0.17300000000E+03 0. -1.
         -6    1    1    2    0  503 -0.15275050641E+02 -0.19769931645E+02 -0.68981730410E+03  0.71161864113E+03  0.17300000000E+03 0. -1.
</event>
<event>
 4    1  0.6164307E+000  0.1000000E+03  0.7546771E-02  0.1280296E+00
         21   -1    0    0  501  502  0.00000000000E+00  0.00000000000E+00  0.67333543012E+02  0.67333543012E+02  0.00000000000E+00 0. -1.
         21   -1    0    0  502  503 -0.00000000000E+00 -0.00000000000E+00 -0.66969688373E+03  0.66969688373E+03  0.00000000000E+00 0. -1.
          6    1    1    2  501    0  0.11577983597E+03  0.29245592447E+02 -0.24901008502E+03  0.32587619971E+03  0.17300000000E+03 0. -1.
         -6    1    1    2    0  503 -0.11577983597E+03 -0.29245592447E+02 -0.35335325570E+03  0.41115422703E+03  0.17300000000E+03 0. -1.
</event>
<event>
 4    1  0.6164307E+000  0.1000000E+03  0.7546771E-02  0.1280296E+00
         21   -1    0    0  503  502  0.00000000000E+00  0.00000000000E+00  0.56077516535E+03  0.56077516535E+03  0.00000000000E+00 0.  1.
         21   -1    0    0  501  503 -0.00000000000E+00 -0.00000000000E+00 -0.97970769301E+02  0.97970769301E+02  0.00000000000E+00 0. -1.
          6    1    1    2  501    0 -0.14453215203E+03 -0.58192828671E+02  0.26948934808E+03  0.35613123565E+03  0.17300000000E+03 0. -1.
         -6    1    1    2    0  502  0.14453215203E+03  0.58192828671E+02  0.19331504797E+03  0.30261469900E+03  0.17300000000E+03 0.  1.
</event>
<event>
 4    1  0.6164307E+000  0.1000000E+03  0.7546771E-02  0.1280296E+00
         21   -1    0    0  503  502  0.00000000000E+00  0.00000000000E+00  0.52510658553E+02  0.52510658553E+02  0.00000000000E+00 0.  1.
         21   -1    0    0  501  503 -0.00000000000E+00 -0.00000000000E+00 -0.83539181781E+03  0.83539181781E+03  0.00000000000E+00 0. -1.
          6    1    1    2  501    0  0.42232219452E+02 -0.56187195167E+01 -0.62482329644E+03  0.64972939147E+03  0.17300000000E+03 0. -1.
         -6    1    1    2    0  502 -0.42232219452E+02  0.56187195167E+01 -0.15805786282E+03  0.23817308489E+03  0.17300000000E+03 0.  1.
</event>
<event>
 4    1  0.6164307E+000  0.1000000E+03  0.7546771E-02  0.1280296E+00
         21   -1    0    0  503  502  0.00000000000E+00  0.00000000000E+00  0.16245767500E+03  0.16245767500E+03  0.00000000000E+00 0.  1.
         21   -1    0    0  501  503 -0.00000000000E+00 -0.00000000000E+00 -0.27367034057E+03  0.27367034057E+03  0.00000000000E+00 0. -1.
          6    1    1    2  501    0  0.60596119221E+02 -0.10325442781E+03 -0.41073095824E+02  0.21435803164E+03  0.17300000000E+03 0.  1.
         -6    1    1    2    0  502 -0.60596119221E+02  0.10325442781E+03 -0.70139569751E+02  0.22176998393E+03  0.17300000000E+03 0. -1.
</event>
<event>
 4    1  0.6164307E+000  0.1000000E+03  0.7546771E-02  0.1280296E+00
         21   -1    0    0  503  502  0.00000000000E+00  0.00000000000E+00  0.64979033882E+03  0.64979033882E+03  0.00000000000E+00 0.  1.
         21   -1    0    0  501  503 -0.00000000000E+00 -0.00000000000E+00 -0.10053968546E+03  0.10053968546E+03  0.00000000000E+00 0. -1.
          6    1    1    2  501    0  0.83254352912E+02  0.26933442151E+02  0.30140659558E+02  0.19619927865E+03  0.17300000000E+03 0.  1.
         -6    1    1    2    0  502 -0.83254352912E+02 -0.26933442151E+02  0.51910999381E+03  0.55413074563E+03  0.17300000000E+03 0. -1.
</event>
<event>
 4    1  0.6164307E+000  0.1000000E+03  0.7546771E-02  0.1280296E+00
         21   -1    0    0  503  502  0.00000000000E+00  0.00000000000E+00  0.83753411601E+03  0.83753411601E+03  0.00000000000E+00 0.  1.
         21   -1    0    0  501  503 -0.00000000000E+00 -0.00000000000E+00 -0.62633285349E+02  0.62633285349E+02  0.00000000000E+00 0. -1.
          6    1    1    2  501    0  0.82823967128E+02 -0.10797639664E+03  0.26301303094E+03  0.34296292250E+03  0.17300000000E+03 0.  1.
         -6    1    1    2    0  502 -0.82823967128E+02  0.10797639664E+03  0.51188779972E+03  0.55720447886E+03  0.17300000000E+03 0. -1.
</event>
<event>
 4    1  0.6164307E+000  0.1000000E+03  0.7546771E-02  0.1280296E+00
         21   -1    0    0  501  502  0.00000000000E+00  0.00000000000E+00  0.30385624103E+02  0.30385624103E+02  0.00000000000E+00 0.  1.
         21   -1    0    0  502  503 -0.00000000000E+00 -0.00000000000E+00 -0.16408600208E+04  0.16408600208E+04  0.00000000000E+00 0.  1.
          6    1    1    2  501    0  0.62183980445E+02  0.79661852418E+02 -0.43634472859E+03  0.48014433280E+03  0.17300000000E+03 0.  1.
         -6    1    1    2    0  503 -0.62183980445E+02 -0.79661852418E+02 -0.11741296681E+04  0.11911013121E+04  0.17300000000E+03 0.  1.
</event>
<event>
 4    1  0.6164307E+000  0.1000000E+03  0.7546771E-02  0.1280296E+00
         21   -1    0    0  503  502  0.00000000000E+00  0.00000000000E+00  0.10079131150E+04  0.10079131150E+04  0.00000000000E+00 0.  1.
         21   -1    0    0  501  503 -0.00000000000E+00 -0.00000000000E+00 -0.54084627817E+02  0.54084627817E+02  0.00000000000E+00 0.  1.
          6    1    1    2  501    0 -0.70026665427E+01 -0.12672132463E+03  0.26752825015E+03  0.34293978492E+03  0.17300000000E+03 0.  1.
         -6    1    1    2    0  502  0.70026665427E+01  0.12672132463E+03  0.68630023701E+03  0.71905795787E+03  0.17300000000E+03 0.  1.
</event>
<event>
 4    1  0.6164307E+000  0.1000000E+03  0.7546771E-02  0.1280296E+00
         21   -1    0    0  503  502  0.00000000000E+00  0.00000000000E+00  0.48962111198E+03  0.48962111198E+03  0.00000000000E+00 0. -1.
         21   -1    0    0  501  503 -0.00000000000E+00 -0.00000000000E+00 -0.15125661597E+03  0.15125661597E+03  0.00000000000E+00 0. -1.
          6    1    1    2  501    0 -0.14133281805E+03 -0.52683942939E+02 -0.29849021367E+01  0.22953969797E+03  0.17300000000E+03 0. -1.
         -6    1    1    2    0  502  0.14133281805E+03  0.52683942939E+02  0.34134939814E+03  0.41133802998E+03  0.17300000000E+03 0. -1.
</event>
<event>
 4    1  0.6164307E+000  0.1000000E+03  0.7546771E-02  0.1280296E+00
         21   -1    0    0  503  502  0.00000000000E+00  0.00000000000E+00  0.10903259550E+03  0.10903259550E+03  0.00000000000E+00 0. -1.
         21   -1    0    0  501  503 -0.00000000000E+00 -0.00000000000E+00 -0.37070334752E+03  0.37070334752E+03  0.00000000000E+00 0. -1.
          6    1    1    2  501    0  0.48690673472E+02 -0.29465110366E+02 -0.23243053389E+03  0.29528279242E+03  0.17300000000E+03 0. -1.
         -6    1    1    2    0  502 -0.48690673472E+02  0.29465110366E+02 -0.29240218126E+02  0.18445315060E+03  0.17300000000E+03 0. -1.
</event>
<event>
 4    1  0.6164307E+000  0.1000000E+03  0.7546771E-02  0.1280296E+00
         21   -1    0    0  503  502  0.00000000000E+00  0.00000000000E+00  0.14140000105E+04  0.14140000105E+04  0.00000000000E+00 0.  1.
         21   -1    0    0  501  503 -0.00000000000E+00 -0.00000000000E+00 -0.86797479377E+02  0.86797479377E+02  0.00000000000E+00 0.  1.
          6    1    1    2  501    0  0.20744773894E+02 -0.18582315824E+03  0.14844895108E+03  0.29483331369E+03  0.17300000000E+03 0.  1.
         -6    1    1    2    0  502 -0.20744773894E+02  0.18582315824E+03  0.11787535801E+04  0.12059641762E+04  0.17300000000E+03 0.  1.
</event>
<event>
 4    1  0.6164307E+000  0.1000000E+03  0.7546771E-02  0.1280296E+00
         21   -1    0    0  503  502  0.00000000000E+00  0.00000000000E+00  0.89967605969E+02  0.89967605969E+02  0.00000000000E+00 0.  1.
         21   -1    0    0  501  503 -0.00000000000E+00 -0.00000000000E+00 -0.45624830787E+03  0.45624830787E+03  0.00000000000E+00 0.  1.
          6    1    1    2  501    0 -0.50321399471E+02  0.91384180732E+02 -0.16246460313E+03  0.25924324293E+03  0.17300000000E+03 0.  1.
         -6    1    1    2    0  502  0.50321399471E+02 -0.91384180732E+02 -0.20381609877E+03  0.28697267091E+03  0.17300000000E+03 0.  1.
</event>
<event>
 4    1  0.6164307E+000  0.1000000E+03  0.7546771E-02  0.1280296E+00
         21   -1    0    0  503  502  0.00000000000E+00  0.00000000000E+00  0.38456712796E+03  0.38456712796E+03  0.00000000000E+00 0.  1.
         21   -1    0    0  501  503 -0.00000000000E+00 -0.00000000000E+00 -0.23830776617E+03  0.23830776617E+03  0.00000000000E+00 0.  1.
          6    1    1    2  501    0  0.73011592493E+02 -0.52567364885E+02 -0.16509591608E+03  0.25549888845E+03  0.17300000000E+03 0.  1.
         -6    1    1    2    0  502 -0.73011592493E+02  0.52567364885E+02  0.31135527788E+03  0.36737600568E+03  0.17300000000E+03 0.  1.
</event>
<event>
 4    1  0.6164307E+000  0.1000000E+03  0.7546771E-02  0.1280296E+00
         21   -1    0    0  503  502  0.00000000000E+00  0.00000000000E+00  0.46078269198E+02  0.46078269198E+02  0.00000000000E+00 0.  1.
         21   -1    0    0  501  503 -0.00000000000E+00 -0.00000000000E+00 -0.77559214370E+03  0.77559214370E+03  0.00000000000E+00 0.  1.
          6    1    1    2  501    0 -0.73195305117E+02  0.15057850673E+02 -0.39732995865E+03  0.43975491765E+03  0.17300000000E+03 0.  1.
         -6    1    1    2    0  502  0.73195305117E+02 -0.15057850673E+02 -0.33218391586E+03  0.38191549525E+03  0.17300000000E+03 0.  1.
</event>
<event>
 4    1  0.6164307E+000  0.1000000E+03  0.7546771E-02  0.1280296E+00
         21   -1    0    0  503  502  0.00000000000E+00  0.00000000000E+00  0.24097277050E+03  0.24097277050E+03  0.00000000000E+00 0.  1.
         21   -1    0    0  501  503 -0.00000000000E+00 -0.00000000000E+00 -0.36160388741E+03  0.36160388741E+03  0.00000000000E+00 0.  1.
          6    1    1    2  501    0 -0.81645153491E+02 -0.18816540402E+03 -0.18588406850E+03  0.32642615900E+03  0.17300000000E+03 0.  1.
         -6    1    1    2    0  502  0.81645153491E+02  0.18816540402E+03  0.65252951588E+02  0.27615049891E+03  0.17300000000E+03 0.  1.
</event>
<event>
 4    1  0.6164307E+000  0.1000000E+03  0.7546771E-02  0.1280296E+00
         21   -1    0    0  503  502  0.00000000000E+00  0.00000000000E+00  0.19705490234E+04  0.19705490234E+04  0.00000000000E+00 0.  1.
         21   -1    0    0  501  503 -0.00000000000E+00 -0.00000000000E+00 -0.40709860511E+02  0.40709860511E+02  0.00000000000E+00 0.  1.
          6    1    1    2  501    0  0.67168107801E+01 -0.10339619997E+03  0.25876446540E+03  0.32806087586E+03  0.17300000000E+03 0.  1.
         -6    1    1    2    0  502 -0.67168107801E+01  0.10339619997E+03  0.16710746975E+04  0.16831980081E+04  0.17300000000E+03 0.  1.
</event>
<event>
 4    1  0.6164307E+000  0.1000000E+03  0.7546771E-02  0.1280296E+00
         21   -1    0    0  503  502  0.00000000000E+00  0.00000000000E+00  0.72900913674E+02  0.72900913674E+02  0.00000000000E+00 0.  1.
         21   -1    0    0  501  503 -0.00000000000E+00 -0.00000000000E+00 -0.95336677038E+03  0.95336677038E+03  0.00000000000E+00 0.  1.
          6    1    1    2  501    0  0.55749271808E+02  0.15040414527E+02 -0.81075745066E+03  0.83101795358E+03  0.17300000000E+03 0.  1.
         -6    1    1    2    0  502 -0.55749271808E+02 -0.15040414527E+02 -0.69708406049E+02  0.19524973047E+03  0.17300000000E+03 0.  1.
</event>
<event>
 4    1  0.6164307E+000  0.1000000E+03  0.7546771E-02  0.1280296E+00
         21   -1    0    0  503  502  0.00000000000E+00  0.00000000000E+00  0.19314389621E+04  0.19314389621E+04  0.00000000000E+00 0.  1.
         21   -1    0    0  501  503 -0.00000000000E+00 -0.00000000000E+00 -0.48477935077E+02  0.48477935077E+02  0.00000000000E+00 0.  1.
          6    1    1    2  501    0 -0.48373128411E+02  0.79533271306E+02  0.18249332859E+03  0.26813861299E+03  0.17300000000E+03 0.  1.
         -6    1    1    2    0  502  0.48373128411E+02 -0.79533271306E+02  0.17004676984E+04  0.17117782842E+04  0.17300000000E+03 0.  1.
</event>
<event>
 4    1  0.6164307E+000  0.1000000E+03  0.7546771E-02  0.1280296E+00
         21   -1    0    0  503  502  0.00000000000E+00  0.00000000000E+00  0.14517269330E+03  0.14517269330E+03  0.00000000000E+00 0.  1.
         21   -1    0    0  501  503 -0.00000000000E+00 -0.00000000000E+00 -0.44822951749E+03  0.44822951749E+03  0.00000000000E+00 0.  1.
          6    1    1    2  501    0 -0.10843375287E+03 -0.85944830383E+01 -0.32910964657E+03  0.38739373171E+03  0.17300000000E+03 0.  1.
         -6    1    1    2    0  502  0.10843375287E+03  0.85944830383E+01  0.26052822374E+02  0.20600847908E+03  0.17300000000E+03 0.  1.
</event>
<event>
 4    1  0.6164307E+000  0.1000000E+03  0.7546771E-02  0.1280296E+00
         21   -1    0    0  501  502  0.00000000000E+00  0.00000000000E+00  0.13302579867E+03  0.13302579867E+03  0.00000000000E+00 0. -1.
         21   -1    0    0  502  503 -0.00000000000E+00 -0.00000000000E+00 -0.51450789515E+03  0.51450789515E+03  0.00000000000E+00 0.  1.
          6    1    1    2  501    0 -0.15004332130E+03 -0.12629908800E+03 -0.18204581166E+03  0.31864421451E+03  0.17300000000E+03 0. -1.
         -6    1    1    2    0  503  0.15004332130E+03  0.12629908800E+03 -0.19943628483E+03  0.32888947931E+03  0.17300000000E+03 0.  1.
</event>
<event>
 4    1  0.6164307E+000  0.1000000E+03  0.7546771E-02  0.1280296E+00
         21   -1    0    0  501  502  0.00000000000E+00  0.00000000000E+00  0.15112623756E+04  0.15112623756E+04  0.00000000000E+00 0. -1.
         21   -1    0    0  502  503 -0.00000000000E+00 -0.00000000000E+00 -0.14915155829E+03  0.14915155829E+03  0.00000000000E+00 0.  1.
          6    1    1    2  501    0 -0.62646664650E+02  0.41296774132E+02  0.14429689286E+04  0.14552382475E+04  0.17300000000E+03 0. -1.
         -6    1    1    2    0  503  0.62646664650E+02 -0.41296774132E+02 -0.80858111230E+02  0.20517568642E+03  0.17300000000E+03 0.  1.
</event>
<event>
 4    1  0.6164307E+000  0.1000000E+03  0.7546771E-02  0.1280296E+00
         21   -1    0    0  501  502  0.00000000000E+00  0.00000000000E+00  0.64607252890E+02  0.64607252890E+02  0.00000000000E+00 0. -1.
         21   -1    0    0  502  503 -0.00000000000E+00 -0.00000000000E+00 -0.10904241206E+04  0.10904241206E+04  0.00000000000E+00 0.  1.
          6    1    1    2  501    0 -0.16030854772E+03  0.11894367370E+03 -0.45642561507E+03  0.52735165694E+03  0.17300000000E+03 0. -1.
         -6    1    1    2    0  503  0.16030854772E+03 -0.11894367370E+03 -0.56939125265E+03  0.62767971656E+03  0.17300000000E+03 0.  1.
</event>
<event>
 4    1  0.6164307E+000  0.1000000E+03  0.7546771E-02  0.1280296E+00
         21   -1    0    0  503  502  0.00000000000E+00  0.00000000000E+00  0.17657735542E+03  0.17657735542E+03  0.00000000000E+00 0. -1.
         21   -1    0    0  501  503 -0.00000000000E+00 -0.00000000000E+00 -0.29609022785E+03  0.29609022785E+03  0.00000000000E+00 0.  1.
          6    1    1    2  501    0 -0.12268376128E+03  0.20081604134E+02 -0.14560782525E+03  0.25804111083E+03  0.17300000000E+03 0. -1.
         -6    1    1    2    0  502  0.12268376128E+03 -0.20081604134E+02  0.26094952821E+02  0.21462647243E+03  0.17300000000E+03 0.  1.
</event>
<event>
 4    1  0.6164307E+000  0.1000000E+03  0.7546771E-02  0.1280296E+00
         21   -1    0    0  503  502  0.00000000000E+00  0.00000000000E+00  0.30601674792E+02  0.30601674792E+02  0.00000000000E+00 0. -1.
         21   -1    0    0  501  503 -0.00000000000E+00 -0.00000000000E+00 -0.12907934114E+04  0.12907934114E+04  0.00000000000E+00 0.  1.
          6    1    1    2  501    0 -0.31331995887E+02  0.84987256745E+02 -0.75300158100E+03  0.77791060461E+03  0.17300000000E+03 0. -1.
         -6    1    1    2    0  502  0.31331995887E+02 -0.84987256745E+02 -0.50719015562E+03  0.54348448159E+03  0.17300000000E+03 0.  1.
</event>
<event>
 4    1  0.6164307E+000  0.1000000E+03  0.7546771E-02  0.1280296E+00
         21   -1    0    0  503  502  0.00000000000E+00  0.00000000000E+00  0.13044057526E+03  0.13044057526E+03  0.00000000000E+00 0.  1.
         21   -1    0    0  501  503 -0.00000000000E+00 -0.00000000000E+00 -0.29340019845E+03  0.29340019845E+03  0.00000000000E+00 0. -1.
          6    1    1    2  501    0 -0.15217780404E+02  0.73015299757E+02 -0.24369091710E+02  0.18996227907E+03  0.17300000000E+03 0. -1.
         -6    1    1    2    0  502  0.15217780404E+02 -0.73015299757E+02 -0.13859053148E+03  0.23387849464E+03  0.17300000000E+03 0.  1.
</event>
<event>
 4    1  0.6164307E+000  0.1000000E+03  0.7546771E-02  0.1280296E+00
         21   -1    0    0  503  502  0.00000000000E+00  0.00000000000E+00  0.14290728007E+03  0.14290728007E+03  0.00000000000E+00 0.  1.
         21   -1    0    0  501  503 -0.00000000000E+00 -0.00000000000E+00 -0.29490494269E+03  0.29490494269E+03  0.00000000000E+00 0. -1.
          6    1    1    2  501    0 -0.56025325801E+02  0.52680886580E+02 -0.16064215544E+03  0.24829219691E+03  0.17300000000E+03 0. -1.
         -6    1    1    2    0  502  0.56025325801E+02 -0.52680886580E+02  0.86444928188E+01  0.18952002585E+03  0.17300000000E+03 0.  1.
</event>
<event>
 4    1  0.6164307E+000  0.1000000E+03  0.7546771E-02  0.1280296E+00
         21   -1    0    0  501  502  0.00000000000E+00  0.00000000000E+00  0.10377833338E+04  0.10377833338E+04  0.00000000000E+00 0.  1.
         21   -1    0    0  502  503 -0.00000000000E+00 -0.00000000000E+00 -0.11641927493E+03  0.11641927493E+03  0.00000000000E+00 0. -1.
          6    1    1    2  501    0  0.25051057478E+03  0.14550386948E+03  0.59921562910E+03  0.68768837002E+03  0.17300000000E+03 0.  1.
         -6    1    1    2    0  503 -0.25051057478E+03 -0.14550386948E+03  0.32214842976E+03  0.46651423870E+03  0.17300000000E+03 0. -1.
</event>
<event>
 4    1  0.6164307E+000  0.1000000E+03  0.7546771E-02  0.1280296E+00
         21   -1    0    0  501  502  0.00000000000E+00  0.00000000000E+00  0.12097831643E+03  0.12097831643E+03  0.00000000000E+00 0.  1.
         21   -1    0    0  502  503 -0.00000000000E+00 -0.00000000000E+00 -0.14006452144E+04  0.14006452144E+04  0.00000000000E+00 0. -1.
          6    1    1    2  501    0 -0.19156647111E+03 -0.77860220075E+02 -0.64917234027E+02  0.27731421528E+03  0.17300000000E+03 0.  1.
         -6    1    1    2    0  503  0.19156647111E+03  0.77860220075E+02 -0.12147496639E+04  0.12443093155E+04  0.17300000000E+03 0. -1.
</event>
<event>
 4    1  0.6164307E+000  0.1000000E+03  0.7546771E-02  0.1280296E+00
         21   -1    0    0  501  502  0.00000000000E+00  0.00000000000E+00  0.11654548072E+04  0.11654548072E+04  0.00000000000E+00 0.  1.
         21   -1    0    0  502  503 -0.00000000000E+00 -0.00000000000E+00 -0.30468035831E+03  0.30468035831E+03  0.00000000000E+00 0. -1.
          6    1    1    2  501    0 -0.11326664044E+03  0.24065261962E+02  0.11191396553E+04  0.11383369610E+04  0.17300000000E+03 0.  1.
         -6    1    1    2    0  503  0.11326664044E+03 -0.24065261962E+02 -0.25836520639E+03  0.33179820455E+03  0.17300000000E+03 0. -1.
</event>
<event>
 4    1  0.6164307E+000  0.1000000E+03  0.7546771E-02  0.1280296E+00
         21   -1    0    0  501  502  0.00000000000E+00  0.00000000000E+00  0.41023115431E+02  0.41023115431E+02  0.00000000000E+00 0.  1.
         21   -1    0    0  502  503 -0.00000000000E+00 -0.00000000000E+00 -0.19711388915E+04  0.19711388915E+04  0.00000000000E+00 0.  1.
          6    1    1    2  501    0 -0.12638414442E+03 -0.14827905009E+03 -0.56207114122E+03  0.61952610635E+03  0.17300000000E+03 0.  1.
         -6    1    1    2    0  503  0.12638414442E+03  0.14827905009E+03 -0.13680446349E+04  0.13926359006E+04  0.17300000000E+03 0.  1.
</event>
<event>
 4    1  0.6164307E+000  0.1000000E+03  0.7546771E-02  0.1280296E+00
         21   -1    0    0  501  502  0.00000000000E+00  0.00000000000E+00  0.64026743417E+03  0.64026743417E+03  0.00000000000E+00 0. -1.
         21   -1    0    0  502  503 -0.00000000000E+00 -0.00000000000E+00 -0.98554353860E+02  0.98554353860E+02  0.00000000000E+00 0.  1.
          6    1    1    2  501    0  0.11086984697E+03  0.74527695131E+02  0.45291062868E+03  0.50289515595E+03  0.17300000000E+03 0. -1.
         -6    1    1    2    0  503 -0.11086984697E+03 -0.74527695131E+02  0.88802451639E+02  0.23592663208E+03  0.17300000000E+03 0.  1.
</event>
<event>
 4    1  0.6164307E+000  0.1000000E+03  0.7546771E-02  0.1280296E+00
         21   -1    0    0  501  502  0.00000000000E+00  0.00000000000E+00  0.63727318384E+03  0.63727318384E+03  0.00000000000E+00 0.  1.
         21   -1    0    0  502  503 -0.00000000000E+00 -0.00000000000E+00 -0.13514431365E+03  0.13514431365E+03  0.00000000000E+00 0.  1.
          6    1    1    2  501    0  0.86703272562E+01  0.87819766031E+01  0.56260839704E+03  0.58873551456E+03  0.17300000000E+03 0.  1.
         -6    1    1    2    0  503 -0.86703272562E+01 -0.87819766031E+01 -0.60479526846E+02  0.18368198294E+03  0.17300000000E+03 0.  1.
</event>
<event>
 4    1  0.6164307E+000  0.1000000E+03  0.7546771E-02  0.1280296E+00
         21   -1    0    0  501  502  0.00000000000E+00  0.00000000000E+00  0.46935450327E+02  0.46935450327E+02  0.00000000000E+00 0.  1.
         21   -1    0    0  502  503 -0.00000000000E+00 -0.00000000000E+00 -0.11000089564E+04  0.11000089564E+04  0.00000000000E+00 0.  1.
          6    1    1    2  501    0 -0.14196934021E+02  0.32322494415E+02 -0.16558084241E+03  0.24205848871E+03  0.17300000000E+03 0.  1.
         -6    1    1    2    0  503  0.14196934021E+02 -0.32322494415E+02 -0.88749266370E+03  0.90488591806E+03  0.17300000000E+03 0.  1.
</event>
<event>
 4    1  0.6164307E+000  0.1000000E+03  0.7546771E-02  0.1280296E+00
         21   -1    0    0  501  502  0.00000000000E+00  0.00000000000E+00  0.17257567778E+03  0.17257567778E+03  0.00000000000E+00 0.  1.
         21   -1    0    0  502  503 -0.00000000000E+00 -0.00000000000E+00 -0.22338613870E+03  0.22338613870E+03  0.00000000000E+00 0.  1.
          6    1    1    2  501    0 -0.10760674158E+02  0.13854127598E+02 -0.11734806108E+03  0.20977916102E+03  0.17300000000E+03 0.  1.
         -6    1    1    2    0  503  0.10760674158E+02 -0.13854127598E+02  0.66537600150E+02  0.18618265546E+03  0.17300000000E+03 0.  1.
</event>
<event>
 4    1  0.6164307E+000  0.1000000E+03  0.7546771E-02  0.1280296E+00
         21   -1    0    0  501  502  0.00000000000E+00  0.00000000000E+00  0.92985819717E+02  0.92985819717E+02  0.00000000000E+00 0. -1.
         21   -1    0    0  502  503 -0.00000000000E+00 -0.00000000000E+00 -0.10090211213E+04  0.10090211213E+04  0.00000000000E+00 0.  1.
          6    1    1    2  501    0 -0.14014394124E+03  0.20750060074E+03 -0.39573385133E+03  0.49923051255E+03  0.17300000000E+03 0.  1.
         -6    1    1    2    0  503  0.14014394124E+03 -0.20750060074E+03 -0.52030145024E+03  0.60277642845E+03  0.17300000000E+03 0. -1.
</event>
<event>
 4    1  0.6164307E+000  0.1000000E+03  0.7546771E-02  0.1280296E+00
         21   -1    0    0  501  502  0.00000000000E+00  0.00000000000E+00  0.79842282119E+03  0.79842282119E+03  0.00000000000E+00 0. -1.
         21   -1    0    0  502  503 -0.00000000000E+00 -0.00000000000E+00 -0.60810500072E+02  0.60810500072E+02  0.00000000000E+00 0.  1.
          6    1    1    2  501    0  0.36727699580E+02  0.12892599468E+03  0.41861623521E+03  0.47237632075E+03  0.17300000000E+03 0.  1.
         -6    1    1    2    0  503 -0.36727699580E+02 -0.12892599468E+03  0.31899608590E+03  0.38685700051E+03  0.17300000000E+03 0. -1.
</event>
<event>
 4    1  0.6164307E+000  0.1000000E+03  0.7546771E-02  0.1280296E+00
         21   -1    0    0  501  502  0.00000000000E+00  0.00000000000E+00  0.10974236672E+03  0.10974236672E+03  0.00000000000E+00 0. -1.
         21   -1    0    0  502  503 -0.00000000000E+00 -0.00000000000E+00 -0.79327603439E+03  0.79327603439E+03  0.00000000000E+00 0. -1.
          6    1    1    2  501    0  0.19074896284E+03  0.62573147727E+02 -0.14326561010E+03  0.30125504258E+03  0.17300000000E+03 0. -1.
         -6    1    1    2    0  503 -0.19074896284E+03 -0.62573147727E+02 -0.54026805757E+03  0.60176335853E+03  0.17300000000E+03 0. -1.
</event>
<event>
 4    1  0.6164307E+000  0.1000000E+03  0.7546771E-02  0.1280296E+00
         21   -1    0    0  501  502  0.00000000000E+00  0.00000000000E+00  0.44141473226E+02  0.44141473226E+02  0.00000000000E+00 0. -1.
         21   -1    0    0  502  503 -0.00000000000E+00 -0.00000000000E+00 -0.10361173093E+04  0.10361173093E+04  0.00000000000E+00 0. -1.
          6    1    1    2  501    0  0.43465930297E+02 -0.90536511475E+02 -0.30496273332E+03  0.36471552712E+03  0.17300000000E+03 0. -1.
         -6    1    1    2    0  503 -0.43465930297E+02  0.90536511475E+02 -0.68701310279E+03  0.71554325544E+03  0.17300000000E+03 0. -1.
</event>
<event>
 4    1  0.6164307E+000  0.1000000E+03  0.7546771E-02  0.1280296E+00
         21   -1    0    0  501  502  0.00000000000E+00  0.00000000000E+00  0.50662631343E+03  0.50662631343E+03  0.00000000000E+00 0. -1.
         21   -1    0    0  502  503 -0.00000000000E+00 -0.00000000000E+00 -0.33714842374E+03  0.33714842374E+03  0.00000000000E+00 0. -1.
          6    1    1    2  501    0 -0.94340690542E+02  0.19474621245E+03  0.39779955956E+03  0.48476772040E+03  0.17300000000E+03 0. -1.
         -6    1    1    2    0  503  0.94340690542E+02 -0.19474621245E+03 -0.22832166988E+03  0.35900701677E+03  0.17300000000E+03 0. -1.
</event>
<event>
 4    1  0.6164307E+000  0.1000000E+03  0.7546771E-02  0.1280296E+00
         21   -1    0    0  501  502  0.00000000000E+00  0.00000000000E+00  0.10925720367E+03  0.10925720367E+03  0.00000000000E+00 0. -1.
         21   -1    0    0  502  503 -0.00000000000E+00 -0.00000000000E+00 -0.98273027826E+03  0.98273027826E+03  0.00000000000E+00 0. -1.
          6    1    1    2  501    0  0.57207471451E+02 -0.12268696708E+03 -0.31601233779E+02  0.22192887297E+03  0.17300000000E+03 0. -1.
         -6    1    1    2    0  503 -0.57207471451E+02  0.12268696708E+03 -0.84187184081E+03  0.87005860896E+03  0.17300000000E+03 0. -1.
</event>
<event>
 4    1  0.6164307E+000  0.1000000E+03  0.7546771E-02  0.1280296E+00
         21   -1    0    0  501  502  0.00000000000E+00  0.00000000000E+00  0.13714444089E+04  0.13714444089E+04  0.00000000000E+00 0. -1.
         21   -1    0    0  502  503 -0.00000000000E+00 -0.00000000000E+00 -0.59869080401E+02  0.59869080401E+02  0.00000000000E+00 0. -1.
          6    1    1    2  501    0  0.38094483598E+02 -0.70141977474E+02  0.11903279391E+04  0.12054794438E+04  0.17300000000E+03 0. -1.
         -6    1    1    2    0  503 -0.38094483598E+02  0.70141977474E+02  0.12124738934E+03  0.22583404550E+03  0.17300000000E+03 0. -1.
</event>
<event>
 4    1  0.6164307E+000  0.1000000E+03  0.7546771E-02  0.1280296E+00
         21   -1    0    0  501  502  0.00000000000E+00  0.00000000000E+00  0.17140276222E+04  0.17140276222E+04  0.00000000000E+00 0.  1.
         21   -1    0    0  502  503 -0.00000000000E+00 -0.00000000000E+00 -0.19686170005E+02  0.19686170005E+02  0.00000000000E+00 0.  1.
          6    1    1    2  501    0  0.51736588966E+02  0.44994228311E+00  0.68806248561E+03  0.71136197621E+03  0.17300000000E+03 0.  1.
         -6    1    1    2    0  503 -0.51736588966E+02 -0.44994228311E+00  0.10062789666E+04  0.10223518160E+04  0.17300000000E+03 0.  1.
</event>
<event>
 4    1  0.6164307E+000  0.1000000E+03  0.7546771E-02  0.1280296E+00
         21   -1    0    0  501  502  0.00000000000E+00  0.00000000000E+00  0.39281069327E+03  0.39281069327E+03  0.00000000000E+00 0.  1.
         21   -1    0    0  502  503 -0.00000000000E+00 -0.00000000000E+00 -0.13755800263E+03  0.13755800263E+03  0.00000000000E+00 0.  1.
          6    1    1    2  501    0 -0.96288084756E+02  0.58255995329E+02  0.24964554726E+03  0.32390902353E+03  0.17300000000E+03 0.  1.
         -6    1    1    2    0  503  0.96288084756E+02 -0.58255995329E+02  0.56071433711E+01  0.20645967237E+03  0.17300000000E+03 0.  1.
</event>
<event>
 4    1  0.6164307E+000  0.1000000E+03  0.7546771E-02  0.1280296E+00
         21   -1    0    0  501  502  0.00000000000E+00  0.00000000000E+00  0.13954118879E+03  0.13954118879E+03  0.00000000000E+00 0. -1.
         21   -1    0    0  502  503 -0.00000000000E+00 -0.00000000000E+00 -0.23953835713E+03  0.23953835713E+03  0.00000000000E+00 0.  1.
          6    1    1    2  501    0 -0.13117668855E+02  0.32646207777E+02 -0.72852296281E+00  0.17654285277E+03  0.17300000000E+03 0. -1.
         -6    1    1    2    0  503  0.13117668855E+02 -0.32646207777E+02 -0.99268645374E+02  0.20253669315E+03  0.17300000000E+03 0.  1.
</event>
<event>
 4    1  0.6164307E+000  0.1000000E+03  0.7546771E-02  0.1280296E+00
         21   -1    0    0  501  502  0.00000000000E+00  0.00000000000E+00  0.23109589038E+03  0.23109589038E+03  0.00000000000E+00 0. -1.
         21   -1    0    0  502  503 -0.00000000000E+00 -0.00000000000E+00 -0.36713886836E+03  0.36713886836E+03  0.00000000000E+00 0.  1.
          6    1    1    2  501    0 -0.73177211726E+02 -0.14827439465E+03  0.10250379038E+03  0.26033867839E+03  0.17300000000E+03 0. -1.
         -6    1    1    2    0  503  0.73177211726E+02  0.14827439465E+03 -0.23854676836E+03  0.33789608035E+03  0.17300000000E+03 0.  1.
</event>
<event>
 4    1  0.6164307E+000  0.1000000E+03  0.7546771E-02  0.1280296E+00
         21   -1    0    0  501  502  0.00000000000E+00  0.00000000000E+00  0.58065648964E+03  0.58065648964E+03  0.00000000000E+00 0.  1.
         21   -1    0    0  502  503 -0.00000000000E+00 -0.00000000000E+00 -0.10043181451E+03  0.10043181451E+03  0.00000000000E+00 0. -1.
          6    1    1    2  501    0  0.94989903791E+02  0.10141597702E+03  0.37448149476E+03  0.43528573619E+03  0.17300000000E+03 0.  1.
         -6    1    1    2    0  503 -0.94989903791E+02 -0.10141597702E+03  0.10574318038E+03  0.24580256796E+03  0.17300000000E+03 0. -1.
</event>
<event>
 4    1  0.6164307E+000  0.1000000E+03  0.7546771E-02  0.1280296E+00
         21   -1    0    0  501  502  0.00000000000E+00  0.00000000000E+00  0.64335316327E+02  0.64335316327E+02  0.00000000000E+00 0.  1.
         21   -1    0    0  502  503 -0.00000000000E+00 -0.00000000000E+00 -0.93907928027E+03  0.93907928027E+03  0.00000000000E+00 0. -1.
          6    1    1    2  501    0 -0.13453582794E+03 -0.10891881720E+03 -0.39065844750E+03  0.46098396972E+03  0.17300000000E+03 0.  1.
         -6    1    1    2    0  503  0.13453582794E+03  0.10891881720E+03 -0.48408551645E+03  0.54243062688E+03  0.17300000000E+03 0. -1.
</event>
<event>
 4    1  0.6164307E+000  0.1000000E+03  0.7546771E-02  0.1280296E+00
         21   -1    0    0  503  502  0.00000000000E+00  0.00000000000E+00  0.20009028163E+02  0.20009028163E+02  0.00000000000E+00 0.  1.
         21   -1    0    0  501  503 -0.00000000000E+00 -0.00000000000E+00 -0.21391733678E+04  0.21391733678E+04  0.00000000000E+00 0.  1.
          6    1    1    2  501    0 -0.91472616955E+02  0.65362181699E+02 -0.11394612987E+04  0.11579898556E+04  0.17300000000E+03 0.  1.
         -6    1    1    2    0  502  0.91472616955E+02 -0.65362181699E+02 -0.97970304093E+03  0.10011925404E+04  0.17300000000E+03 0.  1.
</event>
<event>
 4    1  0.6164307E+000  0.1000000E+03  0.7546771E-02  0.1280296E+00
         21   -1    0    0  501  502  0.00000000000E+00  0.00000000000E+00  0.16251284532E+04  0.16251284532E+04  0.00000000000E+00 0. -1.
         21   -1    0    0  502  503 -0.00000000000E+00 -0.00000000000E+00 -0.63998650345E+02  0.63998650345E+02  0.00000000000E+00 0.  1.
          6    1    1    2  501    0 -0.78689109132E+02  0.25959040031E+03  0.83899862927E+03  0.89856933608E+03  0.17300000000E+03 0. -1.
         -6    1    1    2    0  503  0.78689109132E+02 -0.25959040031E+03  0.72213117354E+03  0.79055776742E+03  0.17300000000E+03 0.  1.
</event>
<event>
 4    1  0.6164307E+000  0.1000000E+03  0.7546771E-02  0.1280296E+00
         21   -1    0    0  503  502  0.00000000000E+00  0.00000000000E+00  0.82028743321E+02  0.82028743321E+02  0.00000000000E+00 0. -1.
         21   -1    0    0  501  503 -0.00000000000E+00 -0.00000000000E+00 -0.67221319598E+03  0.67221319598E+03  0.00000000000E+00 0.  1.
          6    1    1    2  501    0  0.11570211042E+03 -0.10783323958E+03 -0.27256144170E+03  0.35949092536E+03  0.17300000000E+03 0. -1.
         -6    1    1    2    0  502 -0.11570211042E+03  0.10783323958E+03 -0.31762301096E+03  0.39475101394E+03  0.17300000000E+03 0.  1.
</event>
<event>
 4    1  0.6164307E+000  0.1000000E+03  0.7546771E-02  0.1280296E+00
         21   -1    0    0  503  502  0.00000000000E+00  0.00000000000E+00  0.16562864259E+04  0.16562864259E+04  0.00000000000E+00 0. -1.
         21   -1    0    0  501  503 -0.00000000000E+00 -0.00000000000E+00 -0.14038713035E+03  0.14038713035E+03  0.00000000000E+00 0.  1.
          6    1    1    2  501    0  0.75160356441E+01 -0.18992956307E+02 -0.79717758152E+02  0.19157542678E+03  0.17300000000E+03 0. -1.
         -6    1    1    2    0  502 -0.75160356441E+01  0.18992956307E+02  0.15956170537E+04  0.16050981295E+04  0.17300000000E+03 0.  1.
</event>
<event>
 4    1  0.6164307E+000  0.1000000E+03  0.7546771E-02  0.1280296E+00
         21   -1    0    0  503  502  0.00000000000E+00  0.00000000000E+00  0.16120513519E+04  0.16120513519E+04  0.00000000000E+00 0. -1.
         21   -1    0    0  501  503 -0.00000000000E+00 -0.00000000000E+00 -0.10620848231E+03  0.10620848231E+03  0.00000000000E+00 0.  1.
          6    1    1    2  501    0  0.20950817150E+03  0.16266519507E+03  0.19994388089E+03  0.37451327763E+03  0.17300000000E+03 0. -1.
         -6    1    1    2    0  502 -0.20950817150E+03 -0.16266519507E+03  0.13058989887E+04  0.13437465566E+04  0.17300000000E+03 0.  1.
</event>
<event>
 4    1  0.6164307E+000  0.1000000E+03  0.7546771E-02  0.1280296E+00
         21   -1    0    0  503  502  0.00000000000E+00  0.00000000000E+00  0.15362243071E+03  0.15362243071E+03  0.00000000000E+00 0. -1.
         21   -1    0    0  501  503 -0.00000000000E+00 -0.00000000000E+00 -0.24848700641E+03  0.24848700641E+03  0.00000000000E+00 0. -1.
          6    1    1    2  501    0  0.93428007473E+01  0.36641077352E+02 -0.13237896984E+03  0.22109511105E+03  0.17300000000E+03 0. -1.
         -6    1    1    2    0  502 -0.93428007473E+01 -0.36641077352E+02  0.37514394143E+02  0.18101432607E+03  0.17300000000E+03 0. -1.
</event>
<event>
 4    1  0.6164307E+000  0.1000000E+03  0.7546771E-02  0.1280296E+00
         21   -1    0    0  503  502  0.00000000000E+00  0.00000000000E+00  0.86004494001E+03  0.86004494001E+03  0.00000000000E+00 0. -1.
         21   -1    0    0  501  503 -0.00000000000E+00 -0.00000000000E+00 -0.75067728773E+02  0.75067728773E+02  0.00000000000E+00 0. -1.
          6    1    1    2  501    0 -0.11689740363E+03 -0.14403510003E+03  0.36510184099E+03  0.44456660616E+03  0.17300000000E+03 0. -1.
         -6    1    1    2    0  502  0.11689740363E+03  0.14403510003E+03  0.41987537025E+03  0.49054606262E+03  0.17300000000E+03 0. -1.
</event>
<event>
 4    1  0.6164307E+000  0.1000000E+03  0.7546771E-02  0.1280296E+00
         21   -1    0    0  503  502  0.00000000000E+00  0.00000000000E+00  0.10609592363E+03  0.10609592363E+03  0.00000000000E+00 0. -1.
         21   -1    0    0  501  503 -0.00000000000E+00 -0.00000000000E+00 -0.58096538309E+03  0.58096538309E+03  0.00000000000E+00 0. -1.
          6    1    1    2  501    0  0.11091870185E+03  0.40860225930E+02 -0.42171358242E+03  0.47089686990E+03  0.17300000000E+03 0. -1.
         -6    1    1    2    0  502 -0.11091870185E+03 -0.40860225930E+02 -0.53155877031E+02  0.21616443682E+03  0.17300000000E+03 0. -1.
</event>
<event>
 4    1  0.6164307E+000  0.1000000E+03  0.7546771E-02  0.1280296E+00
         21   -1    0    0  501  502  0.00000000000E+00  0.00000000000E+00  0.29997717564E+03  0.29997717564E+03  0.00000000000E+00 0. -1.
         21   -1    0    0  502  503 -0.00000000000E+00 -0.00000000000E+00 -0.12190470113E+03  0.12190470113E+03  0.00000000000E+00 0. -1.
          6    1    1    2  501    0 -0.69591170225E+02 -0.39758114604E+02  0.72824757711E+02  0.20409822142E+03  0.17300000000E+03 0. -1.
         -6    1    1    2    0  503  0.69591170225E+02  0.39758114604E+02  0.10524771679E+03  0.21778365536E+03  0.17300000000E+03 0. -1.
</event>
<event>
 4    1  0.6164307E+000  0.1000000E+03  0.7546771E-02  0.1280296E+00
         21   -1    0    0  503  502  0.00000000000E+00  0.00000000000E+00  0.99265002342E+03  0.99265002342E+03  0.00000000000E+00 0. -1.
         21   -1    0    0  501  503 -0.00000000000E+00 -0.00000000000E+00 -0.17356109809E+03  0.17356109809E+03  0.00000000000E+00 0. -1.
          6    1    1    2  501    0  0.76150065780E+02 -0.42037213141E+02 -0.10622128970E+03  0.22085724392E+03  0.17300000000E+03 0. -1.
         -6    1    1    2    0  502 -0.76150065780E+02  0.42037213141E+02  0.92531021504E+03  0.94535387759E+03  0.17300000000E+03 0. -1.
</event>
<event>
 4    1  0.6164307E+000  0.1000000E+03  0.7546771E-02  0.1280296E+00
         21   -1    0    0  503  502  0.00000000000E+00  0.00000000000E+00  0.14700312423E+03  0.14700312423E+03  0.00000000000E+00 0. -1.
         21   -1    0    0  501  503 -0.00000000000E+00 -0.00000000000E+00 -0.60758457033E+03  0.60758457033E+03  0.00000000000E+00 0. -1.
          6    1    1    2  501    0 -0.33684736744E+02 -0.12223915328E+03 -0.49302150877E+03  0.53765814436E+03  0.17300000000E+03 0. -1.
         -6    1    1    2    0  502  0.33684736744E+02  0.12223915328E+03  0.32440062676E+02  0.21692955020E+03  0.17300000000E+03 0. -1.
</event>
<event>
 4    1  0.6164307E+000  0.1000000E+03  0.7546771E-02  0.1280296E+00
         21   -1    0    0  503  502  0.00000000000E+00  0.00000000000E+00  0.10180056848E+03  0.10180056848E+03  0.00000000000E+00 0. -1.
         21   -1    0    0  501  503 -0.00000000000E+00 -0.00000000000E+00 -0.74196580543E+03  0.74196580543E+03  0.00000000000E+00 0. -1.
          6    1    1    2  501    0  0.30124587786E+02 -0.10264262238E+03 -0.60380104844E+03  0.63714025522E+03  0.17300000000E+03 0. -1.
         -6    1    1    2    0  502 -0.30124587786E+02  0.10264262238E+03 -0.36364188511E+02  0.20662611869E+03  0.17300000000E+03 0. -1.
</event>
<event>
 4    1  0.6164307E+000  0.1000000E+03  0.7546771E-02  0.1280296E+00
         21   -1    0    0  503  502  0.00000000000E+00  0.00000000000E+00  0.48801304734E+03  0.48801304734E+03  0.00000000000E+00 0.  1.
         21   -1    0    0  501  503 -0.00000000000E+00 -0.00000000000E+00 -0.12510029801E+03  0.12510029801E+03  0.00000000000E+00 0.  1.
          6    1    1    2  501    0 -0.10791810582E+03  0.12194991704E+03  0.97276376356E+02  0.25672902685E+03  0.17300000000E+03 0.  1.
         -6    1    1    2    0  502  0.10791810582E+03 -0.12194991704E+03  0.26563637297E+03  0.35638431850E+03  0.17300000000E+03 0.  1.
</event>
<event>
 4    1  0.6164307E+000  0.1000000E+03  0.7546771E-02  0.1280296E+00
         21   -1    0    0  503  502  0.00000000000E+00  0.00000000000E+00  0.12610820808E+04  0.12610820808E+04  0.00000000000E+00 0.  1.
         21   -1    0    0  501  503 -0.00000000000E+00 -0.00000000000E+00 -0.95265434237E+02  0.95265434237E+02  0.00000000000E+00 0.  1.
          6    1    1    2  501    0 -0.50338257080E+02  0.31050555284E+02  0.67559439381E+01  0.18295551341E+03  0.17300000000E+03 0.  1.
         -6    1    1    2    0  502  0.50338257080E+02 -0.31050555284E+02  0.11590607026E+04  0.11733920016E+04  0.17300000000E+03 0.  1.
</event>
<event>
 4    1  0.6164307E+000  0.1000000E+03  0.7546771E-02  0.1280296E+00
         21   -1    0    0  503  502  0.00000000000E+00  0.00000000000E+00  0.45662681170E+03  0.45662681170E+03  0.00000000000E+00 0. -1.
         21   -1    0    0  501  503 -0.00000000000E+00 -0.00000000000E+00 -0.78375280507E+02  0.78375280507E+02  0.00000000000E+00 0. -1.
          6    1    1    2  501    0  0.72592585267E+02  0.24209629947E+02  0.19175783053E+03  0.26936194087E+03  0.17300000000E+03 0. -1.
         -6    1    1    2    0  502 -0.72592585267E+02 -0.24209629947E+02  0.18649370067E+03  0.26564015135E+03  0.17300000000E+03 0. -1.
</event>
<event>
 4    1  0.6164307E+000  0.1000000E+03  0.7546771E-02  0.1280296E+00
         21   -1    0    0  503  502  0.00000000000E+00  0.00000000000E+00  0.15868212636E+02  0.15868212636E+02  0.00000000000E+00 0. -1.
         21   -1    0    0  501  503 -0.00000000000E+00 -0.00000000000E+00 -0.20516148773E+04  0.20516148773E+04  0.00000000000E+00 0. -1.
          6    1    1    2  501    0  0.10864377849E+02 -0.23201915703E+02 -0.12721718960E+04  0.12841365568E+04  0.17300000000E+03 0. -1.
         -6    1    1    2    0  502 -0.10864377849E+02  0.23201915703E+02 -0.76357476867E+03  0.78334653312E+03  0.17300000000E+03 0. -1.
</event>
<event>
 4    1  0.6164307E+000  0.1000000E+03  0.7546771E-02  0.1280296E+00
         21   -1    0    0  503  502  0.00000000000E+00  0.00000000000E+00  0.31142005235E+02  0.31142005235E+02  0.00000000000E+00 0. -1.
         21   -1    0    0  501  503 -0.00000000000E+00 -0.00000000000E+00 -0.14265239253E+04  0.14265239253E+04  0.00000000000E+00 0. -1.
          6    1    1    2  501    0 -0.96969528347E+02  0.65806148583E+02 -0.79316198357E+03  0.82022464654E+03  0.17300000000E+03 0. -1.
         -6    1    1    2    0  502  0.96969528347E+02 -0.65806148583E+02 -0.60221993645E+03  0.63744128394E+03  0.17300000000E+03 0. -1.
</event>
<event>
 4    1  0.6164307E+000  0.1000000E+03  0.7546771E-02  0.1280296E+00
         21   -1    0    0  503  502  0.00000000000E+00  0.00000000000E+00  0.17074462374E+04  0.17074462374E+04  0.00000000000E+00 0. -1.
         21   -1    0    0  501  503 -0.00000000000E+00 -0.00000000000E+00 -0.30868129808E+02  0.30868129808E+02  0.00000000000E+00 0. -1.
          6    1    1    2  501    0 -0.30329973223E+02  0.37906842892E+02  0.29729091395E+03  0.34737260043E+03  0.17300000000E+03 0. -1.
         -6    1    1    2    0  502  0.30329973223E+02 -0.37906842892E+02  0.13792871936E+04  0.13909417667E+04  0.17300000000E+03 0. -1.
</event>
<event>
 4    1  0.6164307E+000  0.1000000E+03  0.7546771E-02  0.1280296E+00
         21   -1    0    0  501  502  0.00000000000E+00  0.00000000000E+00  0.17345837188E+03  0.17345837188E+03  0.00000000000E+00 0. -1.
         21   -1    0    0  502  503 -0.00000000000E+00 -0.00000000000E+00 -0.80040345337E+03  0.80040345337E+03  0.00000000000E+00 0. -1.
          6    1    1    2  501    0 -0.12608344877E+03  0.39673989277E+02  0.81689586610E+02  0.23253655635E+03  0.17300000000E+03 0. -1.
         -6    1    1    2    0  503  0.12608344877E+03 -0.39673989277E+02 -0.70863466810E+03  0.74132526890E+03  0.17300000000E+03 0. -1.
</event>
<event>
 4    1  0.6164307E+000  0.1000000E+03  0.7546771E-02  0.1280296E+00
         21   -1    0    0  503  502  0.00000000000E+00  0.00000000000E+00  0.73601294231E+03  0.73601294231E+03  0.00000000000E+00 0.  1.
         21   -1    0    0  501  503 -0.00000000000E+00 -0.00000000000E+00 -0.11584545528E+03  0.11584545528E+03  0.00000000000E+00 0. -1.
          6    1    1    2  501    0 -0.12413662588E+02  0.10994541314E+03  0.72830633184E+01  0.20548512331E+03  0.17300000000E+03 0.  1.
         -6    1    1    2    0  502  0.12413662588E+02 -0.10994541314E+03  0.61288442371E+03  0.64637327429E+03  0.17300000000E+03 0.  1.
</event>
<event>
 4    1  0.6164307E+000  0.1000000E+03  0.7546771E-02  0.1280296E+00
         21   -1    0    0  503  502  0.00000000000E+00  0.00000000000E+00  0.12578550986E+03  0.12578550986E+03  0.00000000000E+00 0.  1.
         21   -1    0    0  501  503 -0.00000000000E+00 -0.00000000000E+00 -0.33307196804E+03  0.33307196804E+03  0.00000000000E+00 0. -1.
          6    1    1    2  501    0  0.18505138270E+02  0.71811449135E+02 -0.19378478952E+03  0.27014971593E+03  0.17300000000E+03 0.  1.
         -6    1    1    2    0  502 -0.18505138270E+02 -0.71811449135E+02 -0.13501668665E+02  0.18870776197E+03  0.17300000000E+03 0.  1.
</event>
<event>
 4    1  0.6164307E+000  0.1000000E+03  0.7546771E-02  0.1280296E+00
         21   -1    0    0  503  502  0.00000000000E+00  0.00000000000E+00  0.47167866369E+02  0.47167866369E+02  0.00000000000E+00 0.  1.
         21   -1    0    0  501  503 -0.00000000000E+00 -0.00000000000E+00 -0.18763673414E+04  0.18763673414E+04  0.00000000000E+00 0. -1.
          6    1    1    2  501    0 -0.13147708965E+03 -0.53286598543E+02 -0.15485187362E+04  0.15645973805E+04  0.17300000000E+03 0.  1.
         -6    1    1    2    0  502  0.13147708965E+03  0.53286598543E+02 -0.28068073876E+03  0.35893782720E+03  0.17300000000E+03 0.  1.
</event>
<event>
 4    1  0.6164307E+000  0.1000000E+03  0.7546771E-02  0.1280296E+00
         21   -1    0    0  503  502  0.00000000000E+00  0.00000000000E+00  0.98406466690E+02  0.98406466690E+02  0.00000000000E+00 0.  1.
         21   -1    0    0  501  503 -0.00000000000E+00 -0.00000000000E+00 -0.32593508395E+03  0.32593508395E+03  0.00000000000E+00 0. -1.
          6    1    1    2  501    0  0.37303418873E+01  0.21135450125E+02 -0.16238748716E+03  0.23824214297E+03  0.17300000000E+03 0.  1.
         -6    1    1    2    0  502 -0.37303418873E+01 -0.21135450125E+02 -0.65141130098E+02  0.18609940766E+03  0.17300000000E+03 0.  1.
</event>
<event>
 4    1  0.6164307E+000  0.1000000E+03  0.7546771E-02  0.1280296E+00
         21   -1    0    0  503  502  0.00000000000E+00  0.00000000000E+00  0.17720220236E+03  0.17720220236E+03  0.00000000000E+00 0.  1.
         21   -1    0    0  501  503 -0.00000000000E+00 -0.00000000000E+00 -0.72090522219E+03  0.72090522219E+03  0.00000000000E+00 0.  1.
          6    1    1    2  501    0 -0.29582955289E+02 -0.29116842402E+02 -0.66132051344E+03  0.68483338357E+03  0.17300000000E+03 0.  1.
         -6    1    1    2    0  502  0.29582955289E+02  0.29116842402E+02  0.11761749361E+03  0.21327404098E+03  0.17300000000E+03 0.  1.
</event>
<event>
 4    1  0.6164307E+000  0.1000000E+03  0.7546771E-02  0.1280296E+00
         21   -1    0    0  503  502  0.00000000000E+00  0.00000000000E+00  0.84888240982E+03  0.84888240982E+03  0.00000000000E+00 0.  1.
         21   -1    0    0  501  503 -0.00000000000E+00 -0.00000000000E+00 -0.66302129274E+02  0.66302129274E+02  0.00000000000E+00 0.  1.
          6    1    1    2  501    0 -0.25496109426E+02 -0.11365719796E+03  0.17319125475E+03  0.27109448716E+03  0.17300000000E+03 0.  1.
         -6    1    1    2    0  502  0.25496109426E+02  0.11365719796E+03  0.60938902580E+03  0.64409005194E+03  0.17300000000E+03 0.  1.
</event>
<event>
 4    1  0.6164307E+000  0.1000000E+03  0.7546771E-02  0.1280296E+00
         21   -1    0    0  503  502  0.00000000000E+00  0.00000000000E+00  0.10871184234E+04  0.10871184234E+04  0.00000000000E+00 0.  1.
         21   -1    0    0  501  503 -0.00000000000E+00 -0.00000000000E+00 -0.24201682445E+03  0.24201682445E+03  0.00000000000E+00 0.  1.
          6    1    1    2  501    0 -0.31091854035E+03 -0.35653604825E+03  0.29704493589E+03  0.58476746350E+03  0.17300000000E+03 0.  1.
         -6    1    1    2    0  502  0.31091854035E+03  0.35653604825E+03  0.54805666307E+03  0.74436778434E+03  0.17300000000E+03 0.  1.
</event>
<event>
 4    1  0.6164307E+000  0.1000000E+03  0.7546771E-02  0.1280296E+00
         21   -1    0    0  503  502  0.00000000000E+00  0.00000000000E+00  0.84067037143E+02  0.84067037143E+02  0.00000000000E+00 0.  1.
         21   -1    0    0  501  503 -0.00000000000E+00 -0.00000000000E+00 -0.41535205963E+03  0.41535205963E+03  0.00000000000E+00 0.  1.
          6    1    1    2  501    0  0.13183811942E+02  0.24707311506E+02 -0.25228947416E+03  0.30718600702E+03  0.17300000000E+03 0.  1.
         -6    1    1    2    0  502 -0.13183811942E+02 -0.24707311506E+02 -0.78995548328E+02  0.19223308975E+03  0.17300000000E+03 0.  1.
</event>
<event>
 4    1  0.6164307E+000  0.1000000E+03  0.7546771E-02  0.1280296E+00
         21   -1    0    0  501  502  0.00000000000E+00  0.00000000000E+00  0.22766774419E+03  0.22766774419E+03  0.00000000000E+00 0. -1.
         21   -1    0    0  502  503 -0.00000000000E+00 -0.00000000000E+00 -0.74374895815E+03  0.74374895815E+03  0.00000000000E+00 0. -1.
          6    1    1    2  501    0 -0.25247320300E+03  0.20270006594E+03 -0.47749920880E+03  0.60229936857E+03  0.17300000000E+03 0. -1.
         -6    1    1    2    0  503  0.25247320300E+03 -0.20270006594E+03 -0.38582005157E+02  0.36911733377E+03  0.17300000000E+03 0. -1.
</event>
<event>
 4    1  0.6164307E+000  0.1000000E+03  0.7546771E-02  0.1280296E+00
         21   -1    0    0  503  502  0.00000000000E+00  0.00000000000E+00  0.10746698429E+04  0.10746698429E+04  0.00000000000E+00 0.  1.
         21   -1    0    0  501  503 -0.00000000000E+00 -0.00000000000E+00 -0.11214506936E+03  0.11214506936E+03  0.00000000000E+00 0. -1.
          6    1    1    2  501    0  0.42969583694E+02  0.10402793533E+02 -0.27633319389E+02  0.18068537178E+03  0.17300000000E+03 0. -1.
         -6    1    1    2    0  502 -0.42969583694E+02 -0.10402793533E+02  0.99015809289E+03  0.10061295404E+04  0.17300000000E+03 0.  1.
</event>
<event>
 4    1  0.6164307E+000  0.1000000E+03  0.7546771E-02  0.1280296E+00
         21   -1    0    0  503  502  0.00000000000E+00  0.00000000000E+00  0.28566174171E+03  0.28566174171E+03  0.00000000000E+00 0. -1.
         21   -1    0    0  501  503 -0.00000000000E+00 -0.00000000000E+00 -0.23613710569E+03  0.23613710569E+03  0.00000000000E+00 0.  1.
          6    1    1    2  501    0 -0.13253634406E+03  0.13253889694E+03 -0.24387003647E+02  0.25623459495E+03  0.17300000000E+03 0.  1.
         -6    1    1    2    0  502  0.13253634406E+03 -0.13253889694E+03  0.73911639675E+02  0.26556425245E+03  0.17300000000E+03 0. -1.
</event>
<event>
 4    1  0.6164307E+000  0.1000000E+03  0.7546771E-02  0.1280296E+00
         21   -1    0    0  503  502  0.00000000000E+00  0.00000000000E+00  0.23555519689E+03  0.23555519689E+03  0.00000000000E+00 0. -1.
         21   -1    0    0  501  503 -0.00000000000E+00 -0.00000000000E+00 -0.29171518604E+03  0.29171518604E+03  0.00000000000E+00 0.  1.
          6    1    1    2  501    0  0.12452075465E+03 -0.51684995274E+02 -0.17246059140E+03  0.27901328402E+03  0.17300000000E+03 0.  1.
         -6    1    1    2    0  502 -0.12452075465E+03  0.51684995274E+02  0.11630060225E+03  0.24825709891E+03  0.17300000000E+03 0. -1.
</event>
<event>
 4    1  0.6164307E+000  0.1000000E+03  0.7546771E-02  0.1280296E+00
         21   -1    0    0  501  502  0.00000000000E+00  0.00000000000E+00  0.24160560772E+03  0.24160560772E+03  0.00000000000E+00 0. -1.
         21   -1    0    0  502  503 -0.00000000000E+00 -0.00000000000E+00 -0.30286330657E+03  0.30286330657E+03  0.00000000000E+00 0. -1.
          6    1    1    2  501    0  0.10075343800E+03  0.14869338429E+03  0.74842996241E+02  0.26036791639E+03  0.17300000000E+03 0. -1.
         -6    1    1    2    0  503 -0.10075343800E+03 -0.14869338429E+03 -0.13610069510E+03  0.28410099790E+03  0.17300000000E+03 0. -1.
</event>
<event>
 4    1  0.6164307E+000  0.1000000E+03  0.7546771E-02  0.1280296E+00
         21   -1    0    0  501  502  0.00000000000E+00  0.00000000000E+00  0.11836955883E+03  0.11836955883E+03  0.00000000000E+00 0.  1.
         21   -1    0    0  502  503 -0.00000000000E+00 -0.00000000000E+00 -0.35501617999E+03  0.35501617999E+03  0.00000000000E+00 0.  1.
          6    1    1    2  501    0 -0.28525701355E+02  0.42198390770E+02 -0.57861960273E+01  0.18043530665E+03  0.17300000000E+03 0.  1.
         -6    1    1    2    0  503  0.28525701355E+02 -0.42198390770E+02 -0.23086042513E+03  0.29295043218E+03  0.17300000000E+03 0.  1.
</event>
<event>
 4    1  0.6164307E+000  0.1000000E+03  0.7546771E-02  0.1280296E+00
         21   -1    0    0  503  502  0.00000000000E+00  0.00000000000E+00  0.13938232540E+03  0.13938232540E+03  0.00000000000E+00 0.  1.
         21   -1    0    0  501  503 -0.00000000000E+00 -0.00000000000E+00 -0.32787140753E+03  0.32787140753E+03  0.00000000000E+00 0.  1.
          6    1    1    2  501    0  0.15292160135E+02  0.45513568481E+02 -0.22106013554E+03  0.28478398586E+03  0.17300000000E+03 0.  1.
         -6    1    1    2    0  502 -0.15292160135E+02 -0.45513568481E+02  0.32571053406E+02  0.18246974707E+03  0.17300000000E+03 0.  1.
</event>
<event>
 4    1  0.6164307E+000  0.1000000E+03  0.7546771E-02  0.1280296E+00
         21   -1    0    0  501  502  0.00000000000E+00  0.00000000000E+00  0.95871547840E+03  0.95871547840E+03  0.00000000000E+00 0. -1.
         21   -1    0    0  502  503 -0.00000000000E+00 -0.00000000000E+00 -0.25565057952E+03  0.25565057952E+03  0.00000000000E+00 0. -1.
          6    1    1    2  501    0  0.72310808597E+02 -0.26169423886E+03  0.81280717147E+03  0.87424094258E+03  0.17300000000E+03 0. -1.
         -6    1    1    2    0  503 -0.72310808597E+02  0.26169423886E+03 -0.10974227259E+03  0.34012511534E+03  0.17300000000E+03 0. -1.
</event>
<event>
 4    1  0.6164307E+000  0.1000000E+03  0.7546771E-02  0.1280296E+00
         21   -1    0    0  503  502  0.00000000000E+00  0.00000000000E+00  0.16622407255E+04  0.16622407255E+04  0.00000000000E+00 0. -1.
         21   -1    0    0  501  503 -0.00000000000E+00 -0.00000000000E+00 -0.49456751279E+02  0.49456751279E+02  0.00000000000E+00 0. -1.
          6    1    1    2  501    0  0.15609759970E+03  0.13985180035E+03  0.53354980449E+03  0.59877322967E+03  0.17300000000E+03 0. -1.
         -6    1    1    2    0  502 -0.15609759970E+03 -0.13985180035E+03  0.10792341698E+04  0.11129242471E+04  0.17300000000E+03 0. -1.
</event>
<event>
 4    1  0.6164307E+000  0.1000000E+03  0.7546771E-02  0.1280296E+00
         21   -1    0    0  503  502  0.00000000000E+00  0.00000000000E+00  0.11868144485E+04  0.11868144485E+04  0.00000000000E+00 0. -1.
         21   -1    0    0  501  503 -0.00000000000E+00 -0.00000000000E+00 -0.51101188980E+02  0.51101188980E+02  0.00000000000E+00 0. -1.
          6    1    1    2  501    0  0.83534038845E+02 -0.11705149241E+03  0.31602327580E+03  0.38791583929E+03  0.17300000000E+03 0. -1.
         -6    1    1    2    0  502 -0.83534038845E+02  0.11705149241E+03  0.81968998374E+03  0.84999979821E+03  0.17300000000E+03 0. -1.
</event>
<event>
 4    1  0.6164307E+000  0.1000000E+03  0.7546771E-02  0.1280296E+00
         21   -1    0    0  503  502  0.00000000000E+00  0.00000000000E+00  0.79707899934E+02  0.79707899934E+02  0.00000000000E+00 0. -1.
         21   -1    0    0  501  503 -0.00000000000E+00 -0.00000000000E+00 -0.49888386658E+03  0.49888386658E+03  0.00000000000E+00 0. -1.
          6    1    1    2  501    0  0.78221289925E+02  0.40367380696E+02 -0.14329835016E+03  0.24127062146E+03  0.17300000000E+03 0. -1.
         -6    1    1    2    0  502 -0.78221289925E+02 -0.40367380696E+02 -0.27587761648E+03  0.33732114505E+03  0.17300000000E+03 0. -1.
</event>
<event>
 4    1  0.6164307E+000  0.1000000E+03  0.7546771E-02  0.1280296E+00
         21   -1    0    0  503  502  0.00000000000E+00  0.00000000000E+00  0.51146606386E+03  0.51146606386E+03  0.00000000000E+00 0. -1.
         21   -1    0    0  501  503 -0.00000000000E+00 -0.00000000000E+00 -0.30281857999E+03  0.30281857999E+03  0.00000000000E+00 0.  1.
          6    1    1    2  501    0  0.89463047864E+02 -0.34065536318E+03  0.13540664782E+03  0.41510682200E+03  0.17300000000E+03 0.  1.
         -6    1    1    2    0  502 -0.89463047864E+02  0.34065536318E+03  0.73240836057E+02  0.39917782186E+03  0.17300000000E+03 0. -1.
</event>
<event>
 4    1  0.6164307E+000  0.1000000E+03  0.7546771E-02  0.1280296E+00
         21   -1    0    0  503  502  0.00000000000E+00  0.00000000000E+00  0.68913604823E+02  0.68913604823E+02  0.00000000000E+00 0. -1.
         21   -1    0    0  501  503 -0.00000000000E+00 -0.00000000000E+00 -0.92671611858E+03  0.92671611858E+03  0.00000000000E+00 0.  1.
          6    1    1    2  501    0  0.15559033677E+03  0.11446458452E+01 -0.62315965028E+03  0.66518163899E+03  0.17300000000E+03 0.  1.
         -6    1    1    2    0  502 -0.15559033677E+03 -0.11446458452E+01 -0.23464286348E+03  0.33044808441E+03  0.17300000000E+03 0. -1.
</event>
<event>
 4    1  0.6164307E+000  0.1000000E+03  0.7546771E-02  0.1280296E+00
         21   -1    0    0  503  502  0.00000000000E+00  0.00000000000E+00  0.54866228743E+03  0.54866228743E+03  0.00000000000E+00 0. -1.
         21   -1    0    0  501  503 -0.00000000000E+00 -0.00000000000E+00 -0.10745880759E+03  0.10745880759E+03  0.00000000000E+00 0.  1.
          6    1    1    2  501    0 -0.16392182606E+03 -0.18399085652E+02  0.16295163697E+03  0.28929418833E+03  0.17300000000E+03 0.  1.
         -6    1    1    2    0  502  0.16392182606E+03  0.18399085652E+02  0.27825184287E+03  0.36682690669E+03  0.17300000000E+03 0. -1.
</event>
<event>
 4    1  0.6164307E+000  0.1000000E+03  0.7546771E-02  0.1280296E+00
         21   -1    0    0  503  502  0.00000000000E+00  0.00000000000E+00  0.30272141490E+03  0.30272141490E+03  0.00000000000E+00 0. -1.
         21   -1    0    0  501  503 -0.00000000000E+00 -0.00000000000E+00 -0.11548991189E+03  0.11548991189E+03  0.00000000000E+00 0.  1.
          6    1    1    2  501    0 -0.92762474534E+00  0.81577823143E+01  0.14815848057E+02  0.17382726844E+03  0.17300000000E+03 0.  1.
         -6    1    1    2    0  502  0.92762474534E+00 -0.81577823143E+01  0.17241565496E+03  0.24438405835E+03  0.17300000000E+03 0. -1.
</event>
<event>
 4    1  0.6164307E+000  0.1000000E+03  0.7546771E-02  0.1280296E+00
         21   -1    0    0  503  502  0.00000000000E+00  0.00000000000E+00  0.62230516772E+03  0.62230516772E+03  0.00000000000E+00 0. -1.
         21   -1    0    0  501  503 -0.00000000000E+00 -0.00000000000E+00 -0.19583664819E+03  0.19583664819E+03  0.00000000000E+00 0.  1.
          6    1    1    2  501    0  0.29519438104E+03  0.47805024324E+02  0.27201230948E+03  0.43970983553E+03  0.17300000000E+03 0.  1.
         -6    1    1    2    0  502 -0.29519438104E+03 -0.47805024324E+02  0.15445621006E+03  0.37843198038E+03  0.17300000000E+03 0. -1.
</event>
<event>
 4    1  0.6164307E+000  0.1000000E+03  0.7546771E-02  0.1280296E+00
         21   -1    0    0  503  502  0.00000000000E+00  0.00000000000E+00  0.10673969343E+03  0.10673969343E+03  0.00000000000E+00 0. -1.
         21   -1    0    0  501  503 -0.00000000000E+00 -0.00000000000E+00 -0.10441663282E+04  0.10441663282E+04  0.00000000000E+00 0.  1.
          6    1    1    2  501    0  0.10410622933E+02  0.17612563646E+02 -0.95960948220E+03  0.97529377205E+03  0.17300000000E+03 0.  1.
         -6    1    1    2    0  502 -0.10410622933E+02 -0.17612563646E+02  0.22182847462E+02  0.17561224954E+03  0.17300000000E+03 0. -1.
</event>
<event>
 4    1  0.6164307E+000  0.1000000E+03  0.7546771E-02  0.1280296E+00
         21   -1    0    0  503  502  0.00000000000E+00  0.00000000000E+00  0.41981447923E+02  0.41981447923E+02  0.00000000000E+00 0.  1.
         21   -1    0    0  501  503 -0.00000000000E+00 -0.00000000000E+00 -0.12155474983E+04  0.12155474983E+04  0.00000000000E+00 0. -1.
          6    1    1    2  501    0  0.37769836217E+02  0.11151483342E+03 -0.82360520296E+03  0.84977446946E+03  0.17300000000E+03 0. -1.
         -6    1    1    2    0  502 -0.37769836217E+02 -0.11151483342E+03 -0.34996084745E+03  0.40775447680E+03  0.17300000000E+03 0.  1.
</event>
<event>
 4    1  0.6164307E+000  0.1000000E+03  0.7546771E-02  0.1280296E+00
         21   -1    0    0  503  502  0.00000000000E+00  0.00000000000E+00  0.52339118474E+03  0.52339118474E+03  0.00000000000E+00 0.  1.
         21   -1    0    0  501  503 -0.00000000000E+00 -0.00000000000E+00 -0.11437330695E+03  0.11437330695E+03  0.00000000000E+00 0. -1.
          6    1    1    2  501    0 -0.12262471461E+03  0.56209879545E+02  0.63311725637E+02  0.22832815375E+03  0.17300000000E+03 0. -1.
         -6    1    1    2    0  502  0.12262471461E+03 -0.56209879545E+02  0.34570615215E+03  0.40943633794E+03  0.17300000000E+03 0.  1.
</event>
<event>
 4    1  0.6164307E+000  0.1000000E+03  0.7546771E-02  0.1280296E+00
         21   -1    0    0  503  502  0.00000000000E+00  0.00000000000E+00  0.63083001607E+03  0.63083001607E+03  0.00000000000E+00 0.  1.
         21   -1    0    0  501  503 -0.00000000000E+00 -0.00000000000E+00 -0.50818817433E+02  0.50818817433E+02  0.00000000000E+00 0. -1.
          6    1    1    2  501    0 -0.42238136075E+02  0.18009061250E+02  0.28135568764E+03  0.33346425504E+03  0.17300000000E+03 0. -1.
         -6    1    1    2    0  502  0.42238136075E+02 -0.18009061250E+02  0.29865551101E+03  0.34818457846E+03  0.17300000000E+03 0.  1.
</event>
<event>
 4    1  0.6164307E+000  0.1000000E+03  0.7546771E-02  0.1280296E+00
         21   -1    0    0  503  502  0.00000000000E+00  0.00000000000E+00  0.12691144446E+04  0.12691144446E+04  0.00000000000E+00 0.  1.
         21   -1    0    0  501  503 -0.00000000000E+00 -0.00000000000E+00 -0.49903863064E+02  0.49903863064E+02  0.00000000000E+00 0. -1.
          6    1    1    2  501    0  0.13196734679E+02  0.12055476868E+03  0.25126919069E+03  0.32828769738E+03  0.17300000000E+03 0. -1.
         -6    1    1    2    0  502 -0.13196734679E+02 -0.12055476868E+03  0.96794139086E+03  0.99073061031E+03  0.17300000000E+03 0.  1.
</event>
<event>
 4    1  0.6164307E+000  0.1000000E+03  0.7546771E-02  0.1280296E+00
         21   -1    0    0  501  502  0.00000000000E+00  0.00000000000E+00  0.35607301302E+03  0.35607301302E+03  0.00000000000E+00 0.  1.
         21   -1    0    0  502  503 -0.00000000000E+00 -0.00000000000E+00 -0.31064389170E+03  0.31064389170E+03  0.00000000000E+00 0. -1.
          6    1    1    2  501    0  0.19733769657E+02  0.25321127964E+03  0.15020178782E+03  0.34204524681E+03  0.17300000000E+03 0.  1.
         -6    1    1    2    0  503 -0.19733769657E+02 -0.25321127964E+03 -0.10477266650E+03  0.32467165790E+03  0.17300000000E+03 0.  1.
</event>
<event>
 4    1  0.6164307E+000  0.1000000E+03  0.7546771E-02  0.1280296E+00
         21   -1    0    0  503  502  0.00000000000E+00  0.00000000000E+00  0.12018770858E+04  0.12018770858E+04  0.00000000000E+00 0. -1.
         21   -1    0    0  501  503 -0.00000000000E+00 -0.00000000000E+00 -0.23589016810E+03  0.23589016810E+03  0.00000000000E+00 0.  1.
          6    1    1    2  501    0  0.27432242521E+03  0.27970504592E+03  0.55845555102E+02  0.43189747824E+03  0.17300000000E+03 0.  1.
         -6    1    1    2    0  502 -0.27432242521E+03 -0.27970504592E+03  0.91014136262E+03  0.10058697757E+04  0.17300000000E+03 0. -1.
</event>
<event>
 4    1  0.6164307E+000  0.1000000E+03  0.7546771E-02  0.1280296E+00
         21   -1    0    0  503  502  0.00000000000E+00  0.00000000000E+00  0.25467606658E+03  0.25467606658E+03  0.00000000000E+00 0. -1.
         21   -1    0    0  501  503 -0.00000000000E+00 -0.00000000000E+00 -0.31851986616E+03  0.31851986616E+03  0.00000000000E+00 0.  1.
          6    1    1    2  501    0 -0.34640012751E+02  0.81538087225E+02 -0.24141283311E+03  0.30993151847E+03  0.17300000000E+03 0.  1.
         -6    1    1    2    0  502  0.34640012751E+02 -0.81538087225E+02  0.17756903353E+03  0.26326441427E+03  0.17300000000E+03 0. -1.
</event>
<event>
 4    1  0.6164307E+000  0.1000000E+03  0.7546771E-02  0.1280296E+00
         21   -1    0    0  503  502  0.00000000000E+00  0.00000000000E+00  0.16448560579E+04  0.16448560579E+04  0.00000000000E+00 0.  1.
         21   -1    0    0  501  503 -0.00000000000E+00 -0.00000000000E+00 -0.58497547300E+02  0.58497547300E+02  0.00000000000E+00 0. -1.
          6    1    1    2  501    0  0.11934456414E+03 -0.10168409603E+03  0.23245014792E+03  0.32946145699E+03  0.17300000000E+03 0. -1.
         -6    1    1    2    0  502 -0.11934456414E+03  0.10168409603E+03  0.13539083627E+04  0.13738921483E+04  0.17300000000E+03 0.  1.
</event>
<event>
 4    1  0.6164307E+000  0.1000000E+03  0.7546771E-02  0.1280296E+00
         21   -1    0    0  503  502  0.00000000000E+00  0.00000000000E+00  0.30888840549E+03  0.30888840549E+03  0.00000000000E+00 0.  1.
         21   -1    0    0  501  503 -0.00000000000E+00 -0.00000000000E+00 -0.37245290329E+03  0.37245290329E+03  0.00000000000E+00 0. -1.
          6    1    1    2  501    0  0.14926806527E+03 -0.52183304791E+02 -0.27803644277E+03  0.36364449139E+03  0.17300000000E+03 0. -1.
         -6    1    1    2    0  502 -0.14926806527E+03  0.52183304791E+02  0.21447194496E+03  0.31769681739E+03  0.17300000000E+03 0.  1.
</event>
<event>
 4    1  0.6164307E+000  0.1000000E+03  0.7546771E-02  0.1280296E+00
         21   -1    0    0  503  502  0.00000000000E+00  0.00000000000E+00  0.42437946843E+03  0.42437946843E+03  0.00000000000E+00 0.  1.
         21   -1    0    0  501  503 -0.00000000000E+00 -0.00000000000E+00 -0.41036681125E+03  0.41036681125E+03  0.00000000000E+00 0. -1.
          6    1    1    2  501    0 -0.24583576963E+03  0.28267998205E+02 -0.28111055043E+03  0.41253660070E+03  0.17300000000E+03 0. -1.
         -6    1    1    2    0  502  0.24583576963E+03 -0.28267998205E+02  0.29512320762E+03  0.42220967898E+03  0.17300000000E+03 0.  1.
</event>
<event>
 4    1  0.6164307E+000  0.1000000E+03  0.7546771E-02  0.1280296E+00
         21   -1    0    0  501  502  0.00000000000E+00  0.00000000000E+00  0.55582444334E+03  0.55582444334E+03  0.00000000000E+00 0.  1.
         21   -1    0    0  502  503 -0.00000000000E+00 -0.00000000000E+00 -0.25489425203E+03  0.25489425203E+03  0.00000000000E+00 0.  1.
          6    1    1    2  501    0 -0.77565980798E+02 -0.24362397627E+03  0.38239081682E+03  0.49144771846E+03  0.17300000000E+03 0.  1.
         -6    1    1    2    0  503  0.77565980798E+02  0.24362397627E+03 -0.81460625513E+02  0.31927097691E+03  0.17300000000E+03 0.  1.
</event>
<event>
 4    1  0.6164307E+000  0.1000000E+03  0.7546771E-02  0.1280296E+00
         21   -1    0    0  501  502  0.00000000000E+00  0.00000000000E+00  0.22310035373E+04  0.22310035373E+04  0.00000000000E+00 0.  1.
         21   -1    0    0  502  503 -0.00000000000E+00 -0.00000000000E+00 -0.29102441401E+02  0.29102441401E+02  0.00000000000E+00 0.  1.
          6    1    1    2  501    0 -0.45191696895E+02  0.10800393743E+03  0.17480740848E+04  0.17605110468E+04  0.17300000000E+03 0.  1.
         -6    1    1    2    0  503  0.45191696895E+02 -0.10800393743E+03  0.45382701105E+03  0.49959493185E+03  0.17300000000E+03 0.  1.
</event>
