<event>
 4    1  0.5900714E+000  0.1000000E+03  0.7546771E-02  0.1280296E+00
         21   -1    0    0  503  502  0.00000000000E+00  0.00000000000E+00  0.16506106381E+04  0.16506106381E+04  0.00000000000E+00 0.  1.
         21   -1    0    0  501  503 -0.00000000000E+00 -0.00000000000E+00 -0.44835412575E+02  0.44835412575E+02  0.00000000000E+00 0.  1.
          6    1    1    2  501    0  0.13763077811E+03 -0.15829443237E+03  0.77546345233E+03  0.82174930746E+03  0.17300000000E+03 0.  1.
         -6    1    1    2    0  502 -0.13763077811E+03  0.15829443237E+03  0.83031177317E+03  0.87369674320E+03  0.17300000000E+03 0.  1.
</event>
<event>
 4    1  0.5900714E+000  0.1000000E+03  0.7546771E-02  0.1280296E+00
         21   -1    0    0  501  502  0.00000000000E+00  0.00000000000E+00  0.10981071987E+04  0.10981071987E+04  0.00000000000E+00 0. -1.
         21   -1    0    0  502  503 -0.00000000000E+00 -0.00000000000E+00 -0.36327711227E+02  0.36327711227E+02  0.00000000000E+00 0. -1.
          6    1    1    2  501    0 -0.23142839673E+02 -0.25490111307E+02  0.79695658807E+03  0.81624392192E+03  0.17300000000E+03 0. -1.
         -6    1    1    2    0  503  0.23142839673E+02  0.25490111307E+02  0.26482289942E+03  0.31819098802E+03  0.17300000000E+03 0. -1.
</event>
<event>
 4    1  0.5900714E+000  0.1000000E+03  0.7546771E-02  0.1280296E+00
         21   -1    0    0  503  502  0.00000000000E+00  0.00000000000E+00  0.51538111454E+02  0.51538111454E+02  0.00000000000E+00 0. -1.
         21   -1    0    0  501  503 -0.00000000000E+00 -0.00000000000E+00 -0.14301255482E+04  0.14301255482E+04  0.00000000000E+00 0. -1.
          6    1    1    2  501    0 -0.82562493448E+02  0.74693415965E+02 -0.11726904988E+04  0.11905997135E+04  0.17300000000E+03 0. -1.
         -6    1    1    2    0  502  0.82562493448E+02 -0.74693415965E+02 -0.20589693790E+03  0.29106394615E+03  0.17300000000E+03 0. -1.
</event>
<event>
 4    1  0.5900714E+000  0.1000000E+03  0.7546771E-02  0.1280296E+00
         21   -1    0    0  501  502  0.00000000000E+00  0.00000000000E+00  0.27220811687E+03  0.27220811687E+03  0.00000000000E+00 0.  1.
         21   -1    0    0  502  503 -0.00000000000E+00 -0.00000000000E+00 -0.34126024531E+03  0.34126024531E+03  0.00000000000E+00 0.  1.
          6    1    1    2  501    0  0.22263621549E+03 -0.76402352778E+02 -0.12203392313E+03  0.31658408418E+03  0.17300000000E+03 0.  1.
         -6    1    1    2    0  503 -0.22263621549E+03  0.76402352778E+02  0.52981794685E+02  0.29688427801E+03  0.17300000000E+03 0.  1.
</event>
<event>
 4    1  0.5900714E+000  0.1000000E+03  0.7546771E-02  0.1280296E+00
         21   -1    0    0  501  502  0.00000000000E+00  0.00000000000E+00  0.21295082463E+03  0.21295082463E+03  0.00000000000E+00 0.  1.
         21   -1    0    0  502  503 -0.00000000000E+00 -0.00000000000E+00 -0.33965831801E+03  0.33965831801E+03  0.00000000000E+00 0.  1.
          6    1    1    2  501    0 -0.46883005426E+02  0.15652420571E+03  0.65390532282E+02  0.24678485546E+03  0.17300000000E+03 0.  1.
         -6    1    1    2    0  503  0.46883005426E+02 -0.15652420571E+03 -0.19209802566E+03  0.30582428719E+03  0.17300000000E+03 0.  1.
</event>
<event>
 4    1  0.5900714E+000  0.1000000E+03  0.7546771E-02  0.1280296E+00
         21   -1    0    0  501  502  0.00000000000E+00  0.00000000000E+00  0.39590685000E+03  0.39590685000E+03  0.00000000000E+00 0.  1.
         21   -1    0    0  502  503 -0.00000000000E+00 -0.00000000000E+00 -0.59181551289E+03  0.59181551289E+03  0.00000000000E+00 0.  1.
          6    1    1    2  501    0 -0.48934787750E+02  0.73380330410E+01  0.36051650357E+03  0.40292630781E+03  0.17300000000E+03 0.  1.
         -6    1    1    2    0  503  0.48934787750E+02 -0.73380330410E+01 -0.55642516646E+03  0.58479605509E+03  0.17300000000E+03 0.  1.
</event>
<event>
 4    1  0.5900714E+000  0.1000000E+03  0.7546771E-02  0.1280296E+00
         21   -1    0    0  503  502  0.00000000000E+00  0.00000000000E+00  0.21677416376E+03  0.21677416376E+03  0.00000000000E+00 0. -1.
         21   -1    0    0  501  503 -0.00000000000E+00 -0.00000000000E+00 -0.35995512261E+03  0.35995512261E+03  0.00000000000E+00 0. -1.
          6    1    1    2  501    0 -0.20706827776E+03 -0.24946149708E+02 -0.14160874245E+03  0.30574763773E+03  0.17300000000E+03 0. -1.
         -6    1    1    2    0  502  0.20706827776E+03  0.24946149708E+02 -0.15722164015E+01  0.27098164865E+03  0.17300000000E+03 0. -1.
</event>
<event>
 4    1  0.5900714E+000  0.1000000E+03  0.7546771E-02  0.1280296E+00
         21   -1    0    0  503  502  0.00000000000E+00  0.00000000000E+00  0.14485131915E+03  0.14485131915E+03  0.00000000000E+00 0. -1.
         21   -1    0    0  501  503 -0.00000000000E+00 -0.00000000000E+00 -0.21060408994E+03  0.21060408994E+03  0.00000000000E+00 0.  1.
          6    1    1    2  501    0  0.14708456465E+02  0.16095019689E+02 -0.22604969236E+02  0.17582767980E+03  0.17300000000E+03 0.  1.
         -6    1    1    2    0  502 -0.14708456465E+02 -0.16095019689E+02 -0.43147801547E+02  0.17962772929E+03  0.17300000000E+03 0. -1.
</event>
<event>
 4    1  0.5900714E+000  0.1000000E+03  0.7546771E-02  0.1280296E+00
         21   -1    0    0  503  502  0.00000000000E+00  0.00000000000E+00  0.68018984927E+03  0.68018984927E+03  0.00000000000E+00 0. -1.
         21   -1    0    0  501  503 -0.00000000000E+00 -0.00000000000E+00 -0.18260408577E+03  0.18260408577E+03  0.00000000000E+00 0.  1.
          6    1    1    2  501    0  0.68134466047E+01 -0.45152461166E+02 -0.12287213653E+03  0.21705236636E+03  0.17300000000E+03 0.  1.
         -6    1    1    2    0  502 -0.68134466047E+01  0.45152461166E+02  0.62045790004E+03  0.64574156868E+03  0.17300000000E+03 0. -1.
</event>
<event>
 4    1  0.5900714E+000  0.1000000E+03  0.7546771E-02  0.1280296E+00
         21   -1    0    0  503  502  0.00000000000E+00  0.00000000000E+00  0.23630558133E+03  0.23630558133E+03  0.00000000000E+00 0. -1.
         21   -1    0    0  501  503 -0.00000000000E+00 -0.00000000000E+00 -0.14156370376E+03  0.14156370376E+03  0.00000000000E+00 0.  1.
          6    1    1    2  501    0  0.87369152685E+01 -0.58554262432E+02  0.51796934881E+02  0.19004435745E+03  0.17300000000E+03 0.  1.
         -6    1    1    2    0  502 -0.87369152685E+01  0.58554262432E+02  0.42944942686E+02  0.18782492763E+03  0.17300000000E+03 0. -1.
</event>
<event>
 4    1  0.5900714E+000  0.1000000E+03  0.7546771E-02  0.1280296E+00
         21   -1    0    0  501  502  0.00000000000E+00  0.00000000000E+00  0.14653139113E+03  0.14653139113E+03  0.00000000000E+00 0.  1.
         21   -1    0    0  502  503 -0.00000000000E+00 -0.00000000000E+00 -0.35836043909E+03  0.35836043909E+03  0.00000000000E+00 0. -1.
          6    1    1    2  501    0  0.36042430698E+02  0.18479810677E+02  0.53506944960E+02  0.18556010717E+03  0.17300000000E+03 0.  1.
         -6    1    1    2    0  503 -0.36042430698E+02 -0.18479810677E+02 -0.26533599291E+03  0.31933172305E+03  0.17300000000E+03 0. -1.
</event>
<event>
 4    1  0.5900714E+000  0.1000000E+03  0.7546771E-02  0.1280296E+00
         21   -1    0    0  501  502  0.00000000000E+00  0.00000000000E+00  0.26264940012E+03  0.26264940012E+03  0.00000000000E+00 0.  1.
         21   -1    0    0  502  503 -0.00000000000E+00 -0.00000000000E+00 -0.19455870049E+03  0.19455870049E+03  0.00000000000E+00 0. -1.
          6    1    1    2  501    0  0.67864102974E+02 -0.32938172671E+01  0.16416396765E+03  0.24798224529E+03  0.17300000000E+03 0.  1.
         -6    1    1    2    0  503 -0.67864102974E+02  0.32938172671E+01 -0.96073268018E+02  0.20922585531E+03  0.17300000000E+03 0. -1.
</event>
<event>
 4    1  0.5900714E+000  0.1000000E+03  0.7546771E-02  0.1280296E+00
         21   -1    0    0  503  502  0.00000000000E+00  0.00000000000E+00  0.15401323538E+03  0.15401323538E+03  0.00000000000E+00 0. -1.
         21   -1    0    0  501  503 -0.00000000000E+00 -0.00000000000E+00 -0.47624189675E+03  0.47624189675E+03  0.00000000000E+00 0. -1.
          6    1    1    2  501    0 -0.77495097602E+02 -0.21526792526E+02 -0.38477973313E+03  0.42948030919E+03  0.17300000000E+03 0. -1.
         -6    1    1    2    0  502  0.77495097602E+02  0.21526792526E+02  0.62551071765E+02  0.20077482294E+03  0.17300000000E+03 0. -1.
</event>
<event>
 4    1  0.5900714E+000  0.1000000E+03  0.7546771E-02  0.1280296E+00
         21   -1    0    0  501  502  0.00000000000E+00  0.00000000000E+00  0.12999769697E+04  0.12999769697E+04  0.00000000000E+00 0. -1.
         21   -1    0    0  502  503 -0.00000000000E+00 -0.00000000000E+00 -0.21992066272E+03  0.21992066272E+03  0.00000000000E+00 0.  1.
          6    1    1    2  501    0 -0.31191706770E+03 -0.27444713604E+03  0.95035931346E+03  0.10515347414E+04  0.17300000000E+03 0.  1.
         -6    1    1    2    0  503  0.31191706770E+03  0.27444713604E+03  0.12969699353E+03  0.46836289108E+03  0.17300000000E+03 0. -1.
</event>
<event>
 4    1  0.5900714E+000  0.1000000E+03  0.7546771E-02  0.1280296E+00
         21   -1    0    0  501  502  0.00000000000E+00  0.00000000000E+00  0.35384164987E+03  0.35384164987E+03  0.00000000000E+00 0. -1.
         21   -1    0    0  502  503 -0.00000000000E+00 -0.00000000000E+00 -0.10850965847E+03  0.10850965847E+03  0.00000000000E+00 0.  1.
          6    1    1    2  501    0 -0.39130327086E+02  0.49635718798E+02  0.43775855079E+02  0.18931511447E+03  0.17300000000E+03 0.  1.
         -6    1    1    2    0  503  0.39130327086E+02 -0.49635718798E+02  0.20155613632E+03  0.27303619387E+03  0.17300000000E+03 0. -1.
</event>
<event>
 4    1  0.5900714E+000  0.1000000E+03  0.7546771E-02  0.1280296E+00
         21   -1    0    0  501  502  0.00000000000E+00  0.00000000000E+00  0.12352485251E+04  0.12352485251E+04  0.00000000000E+00 0. -1.
         21   -1    0    0  502  503 -0.00000000000E+00 -0.00000000000E+00 -0.87419091303E+02  0.87419091303E+02  0.00000000000E+00 0.  1.
          6    1    1    2  501    0  0.46993546403E+02 -0.78723248921E+02  0.11050432077E+04  0.11222545318E+04  0.17300000000E+03 0.  1.
         -6    1    1    2    0  503 -0.46993546403E+02  0.78723248921E+02  0.42786226094E+02  0.20041308457E+03  0.17300000000E+03 0. -1.
</event>
<event>
 4    1  0.5900714E+000  0.1000000E+03  0.7546771E-02  0.1280296E+00
         21   -1    0    0  501  502  0.00000000000E+00  0.00000000000E+00  0.69016359411E+03  0.69016359411E+03  0.00000000000E+00 0. -1.
         21   -1    0    0  502  503 -0.00000000000E+00 -0.00000000000E+00 -0.72298520958E+02  0.72298520958E+02  0.00000000000E+00 0.  1.
          6    1    1    2  501    0  0.29741486435E+02 -0.63042659743E+02  0.51871924412E+03  0.55123278856E+03  0.17300000000E+03 0. -1.
         -6    1    1    2    0  503 -0.29741486435E+02  0.63042659743E+02  0.99145829035E+02  0.21122932651E+03  0.17300000000E+03 0.  1.
</event>
<event>
 4    1  0.5900714E+000  0.1000000E+03  0.7546771E-02  0.1280296E+00
         21   -1    0    0  503  502  0.00000000000E+00  0.00000000000E+00  0.18762967105E+03  0.18762967105E+03  0.00000000000E+00 0.  1.
         21   -1    0    0  501  503 -0.00000000000E+00 -0.00000000000E+00 -0.20075088150E+03  0.20075088150E+03  0.00000000000E+00 0.  1.
          6    1    1    2  501    0 -0.21929621139E+02 -0.78034681651E+02 -0.40748850691E+02  0.19534530621E+03  0.17300000000E+03 0.  1.
         -6    1    1    2    0  502  0.21929621139E+02  0.78034681651E+02  0.27627640245E+02  0.19303524634E+03  0.17300000000E+03 0.  1.
</event>
<event>
 4    1  0.5900714E+000  0.1000000E+03  0.7546771E-02  0.1280296E+00
         21   -1    0    0  503  502  0.00000000000E+00  0.00000000000E+00  0.95858772662E+03  0.95858772662E+03  0.00000000000E+00 0.  1.
         21   -1    0    0  501  503 -0.00000000000E+00 -0.00000000000E+00 -0.36016629117E+02  0.36016629117E+02  0.00000000000E+00 0.  1.
          6    1    1    2  501    0 -0.58632098695E+02 -0.24610942303E+02  0.39836555786E+03  0.43893910645E+03  0.17300000000E+03 0.  1.
         -6    1    1    2    0  502  0.58632098695E+02  0.24610942303E+02  0.52420553964E+03  0.55566524929E+03  0.17300000000E+03 0.  1.
</event>
<event>
 4    1  0.5900714E+000  0.1000000E+03  0.7546771E-02  0.1280296E+00
         21   -1    0    0  503  502  0.00000000000E+00  0.00000000000E+00  0.37268465148E+03  0.37268465148E+03  0.00000000000E+00 0.  1.
         21   -1    0    0  501  503 -0.00000000000E+00 -0.00000000000E+00 -0.11123289699E+03  0.11123289699E+03  0.00000000000E+00 0.  1.
          6    1    1    2  501    0 -0.33955933639E+02 -0.82085494733E+02  0.59079894799E+02  0.20324976714E+03  0.17300000000E+03 0.  1.
         -6    1    1    2    0  502  0.33955933639E+02  0.82085494733E+02  0.20237185969E+03  0.28066778132E+03  0.17300000000E+03 0.  1.
</event>
<event>
 4    1  0.5900714E+000  0.1000000E+03  0.7546771E-02  0.1280296E+00
         21   -1    0    0  503  502  0.00000000000E+00  0.00000000000E+00  0.10369711939E+04  0.10369711939E+04  0.00000000000E+00 0. -1.
         21   -1    0    0  501  503 -0.00000000000E+00 -0.00000000000E+00 -0.66813830203E+02  0.66813830203E+02  0.00000000000E+00 0. -1.
          6    1    1    2  501    0 -0.13777789129E+03  0.77829190470E+02  0.23421838379E+03  0.33140214472E+03  0.17300000000E+03 0. -1.
         -6    1    1    2    0  502  0.13777789129E+03 -0.77829190470E+02  0.73593897987E+03  0.77238287935E+03  0.17300000000E+03 0. -1.
</event>
<event>
 4    1  0.5900714E+000  0.1000000E+03  0.7546771E-02  0.1280296E+00
         21   -1    0    0  503  502  0.00000000000E+00  0.00000000000E+00  0.40060498385E+02  0.40060498385E+02  0.00000000000E+00 0. -1.
         21   -1    0    0  501  503 -0.00000000000E+00 -0.00000000000E+00 -0.17067074277E+04  0.17067074277E+04  0.00000000000E+00 0. -1.
          6    1    1    2  501    0 -0.66768436221E+02  0.10685108543E+02 -0.14480435044E+04  0.14599079376E+04  0.17300000000E+03 0. -1.
         -6    1    1    2    0  502  0.66768436221E+02 -0.10685108543E+02 -0.21860342498E+03  0.28685998855E+03  0.17300000000E+03 0. -1.
</event>
<event>
 4    1  0.5900714E+000  0.1000000E+03  0.7546771E-02  0.1280296E+00
         21   -1    0    0  503  502  0.00000000000E+00  0.00000000000E+00  0.65299117696E+03  0.65299117696E+03  0.00000000000E+00 0.  1.
         21   -1    0    0  501  503 -0.00000000000E+00 -0.00000000000E+00 -0.50598777312E+02  0.50598777312E+02  0.00000000000E+00 0. -1.
          6    1    1    2  501    0  0.32469951765E+01 -0.96862455529E+01  0.19506420785E+03  0.26092798147E+03  0.17300000000E+03 0.  1.
         -6    1    1    2    0  502 -0.32469951765E+01  0.96862455529E+01  0.40732819179E+03  0.44266197279E+03  0.17300000000E+03 0. -1.
</event>
<event>
 4    1  0.5900714E+000  0.1000000E+03  0.7546771E-02  0.1280296E+00
         21   -1    0    0  503  502  0.00000000000E+00  0.00000000000E+00  0.10903086889E+04  0.10903086889E+04  0.00000000000E+00 0.  1.
         21   -1    0    0  501  503 -0.00000000000E+00 -0.00000000000E+00 -0.48409828191E+02  0.48409828191E+02  0.00000000000E+00 0.  1.
          6    1    1    2  501    0  0.57210127911E+02  0.55347155225E+02  0.20245494393E+03  0.27794479784E+03  0.17300000000E+03 0.  1.
         -6    1    1    2    0  502 -0.57210127911E+02 -0.55347155225E+02  0.83944391675E+03  0.86077371922E+03  0.17300000000E+03 0.  1.
</event>
<event>
 4    1  0.5900714E+000  0.1000000E+03  0.7546771E-02  0.1280296E+00
         21   -1    0    0  501  502  0.00000000000E+00  0.00000000000E+00  0.19580154378E+03  0.19580154378E+03  0.00000000000E+00 0.  1.
         21   -1    0    0  502  503 -0.00000000000E+00 -0.00000000000E+00 -0.33029335648E+03  0.33029335648E+03  0.00000000000E+00 0.  1.
          6    1    1    2  501    0 -0.47895330973E+02 -0.17842920661E+03 -0.41656897574E+02  0.25650583155E+03  0.17300000000E+03 0.  1.
         -6    1    1    2    0  503  0.47895330973E+02  0.17842920661E+03 -0.92834915128E+02  0.26958906871E+03  0.17300000000E+03 0.  1.
</event>
<event>
 4    1  0.5900714E+000  0.1000000E+03  0.7546771E-02  0.1280296E+00
         21   -1    0    0  501  502  0.00000000000E+00  0.00000000000E+00  0.75450502642E+02  0.75450502642E+02  0.00000000000E+00 0.  1.
         21   -1    0    0  502  503 -0.00000000000E+00 -0.00000000000E+00 -0.69219140998E+03  0.69219140998E+03  0.00000000000E+00 0.  1.
          6    1    1    2  501    0  0.13789243077E+03 -0.28509433570E+02 -0.22489861482E+03  0.31675778951E+03  0.17300000000E+03 0.  1.
         -6    1    1    2    0  503 -0.13789243077E+03  0.28509433570E+02 -0.39184229252E+03  0.45088412311E+03  0.17300000000E+03 0.  1.
</event>
<event>
 4    1  0.5900714E+000  0.1000000E+03  0.7546771E-02  0.1280296E+00
         21   -1    0    0  501  502  0.00000000000E+00  0.00000000000E+00  0.71067534131E+02  0.71067534131E+02  0.00000000000E+00 0.  1.
         21   -1    0    0  502  503 -0.00000000000E+00 -0.00000000000E+00 -0.10617595700E+04  0.10617595700E+04  0.00000000000E+00 0.  1.
          6    1    1    2  501    0  0.16028458433E+03 -0.14047403856E+03 -0.47436531048E+03  0.54806528012E+03  0.17300000000E+03 0.  1.
         -6    1    1    2    0  503 -0.16028458433E+03  0.14047403856E+03 -0.51632672542E+03  0.58476182405E+03  0.17300000000E+03 0.  1.
</event>
<event>
 4    1  0.5900714E+000  0.1000000E+03  0.7546771E-02  0.1280296E+00
         21   -1    0    0  503  502  0.00000000000E+00  0.00000000000E+00  0.45466415537E+02  0.45466415537E+02  0.00000000000E+00 0. -1.
         21   -1    0    0  501  503 -0.00000000000E+00 -0.00000000000E+00 -0.92498397565E+03  0.92498397565E+03  0.00000000000E+00 0. -1.
          6    1    1    2  501    0  0.71459976122E+02 -0.72277629403E+02 -0.54003519187E+03  0.57610553926E+03  0.17300000000E+03 0. -1.
         -6    1    1    2    0  502 -0.71459976122E+02  0.72277629403E+02 -0.33948236824E+03  0.39434485193E+03  0.17300000000E+03 0. -1.
</event>
<event>
 4    1  0.5900714E+000  0.1000000E+03  0.7546771E-02  0.1280296E+00
         21   -1    0    0  503  502  0.00000000000E+00  0.00000000000E+00  0.72862006330E+03  0.72862006330E+03  0.00000000000E+00 0. -1.
         21   -1    0    0  501  503 -0.00000000000E+00 -0.00000000000E+00 -0.85771906819E+02  0.85771906819E+02  0.00000000000E+00 0. -1.
          6    1    1    2  501    0  0.78496812728E+02  0.81048596580E+02  0.92019515952E+02  0.22611328119E+03  0.17300000000E+03 0. -1.
         -6    1    1    2    0  502 -0.78496812728E+02 -0.81048596580E+02  0.55082864053E+03  0.58827868893E+03  0.17300000000E+03 0. -1.
</event>
<event>
 4    1  0.5900714E+000  0.1000000E+03  0.7546771E-02  0.1280296E+00
         21   -1    0    0  503  502  0.00000000000E+00  0.00000000000E+00  0.78362612548E+03  0.78362612548E+03  0.00000000000E+00 0. -1.
         21   -1    0    0  501  503 -0.00000000000E+00 -0.00000000000E+00 -0.14320759778E+03  0.14320759778E+03  0.00000000000E+00 0. -1.
          6    1    1    2  501    0 -0.19339387378E+03 -0.20878187355E+03  0.37010904890E+03  0.49789634385E+03  0.17300000000E+03 0. -1.
         -6    1    1    2    0  502  0.19339387378E+03  0.20878187355E+03  0.27030947880E+03  0.42893737942E+03  0.17300000000E+03 0. -1.
</event>
<event>
 4    1  0.5900714E+000  0.1000000E+03  0.7546771E-02  0.1280296E+00
         21   -1    0    0  501  502  0.00000000000E+00  0.00000000000E+00  0.98316218107E+02  0.98316218107E+02  0.00000000000E+00 0. -1.
         21   -1    0    0  502  503 -0.00000000000E+00 -0.00000000000E+00 -0.66674928406E+03  0.66674928406E+03  0.00000000000E+00 0.  1.
          6    1    1    2  501    0  0.57825665090E+02  0.24575406414E+02 -0.18305369704E+02  0.18496444173E+03  0.17300000000E+03 0. -1.
         -6    1    1    2    0  503 -0.57825665090E+02 -0.24575406414E+02 -0.55012769625E+03  0.58010106044E+03  0.17300000000E+03 0.  1.
</event>
<event>
 4    1  0.5900714E+000  0.1000000E+03  0.7546771E-02  0.1280296E+00
         21   -1    0    0  501  502  0.00000000000E+00  0.00000000000E+00  0.19128862913E+04  0.19128862913E+04  0.00000000000E+00 0. -1.
         21   -1    0    0  502  503 -0.00000000000E+00 -0.00000000000E+00 -0.28446037903E+02  0.28446037903E+02  0.00000000000E+00 0. -1.
          6    1    1    2  501    0 -0.27816463606E+02 -0.11216461903E+03  0.13812250483E+04  0.13968057458E+04  0.17300000000E+03 0. -1.
         -6    1    1    2    0  503  0.27816463606E+02  0.11216461903E+03  0.50321520514E+03  0.54452658346E+03  0.17300000000E+03 0. -1.
</event>
<event>
 4    1  0.5900714E+000  0.1000000E+03  0.7546771E-02  0.1280296E+00
         21   -1    0    0  501  502  0.00000000000E+00  0.00000000000E+00  0.22014097344E+03  0.22014097344E+03  0.00000000000E+00 0.  1.
         21   -1    0    0  502  503 -0.00000000000E+00 -0.00000000000E+00 -0.29257705208E+03  0.29257705208E+03  0.00000000000E+00 0.  1.
          6    1    1    2  501    0  0.40268686054E+02  0.18093253343E+03 -0.25104371767E+02  0.25478888950E+03  0.17300000000E+03 0.  1.
         -6    1    1    2    0  503 -0.40268686054E+02 -0.18093253343E+03 -0.47331706876E+02  0.25792913602E+03  0.17300000000E+03 0.  1.
</event>
<event>
 4    1  0.5900714E+000  0.1000000E+03  0.7546771E-02  0.1280296E+00
         21   -1    0    0  501  502  0.00000000000E+00  0.00000000000E+00  0.22128503163E+03  0.22128503163E+03  0.00000000000E+00 0.  1.
         21   -1    0    0  502  503 -0.00000000000E+00 -0.00000000000E+00 -0.32045085786E+03  0.32045085786E+03  0.00000000000E+00 0.  1.
          6    1    1    2  501    0 -0.28646313631E+02  0.12068860015E+03  0.11315313869E+03  0.24107878854E+03  0.17300000000E+03 0.  1.
         -6    1    1    2    0  503  0.28646313631E+02 -0.12068860015E+03 -0.21231896491E+03  0.30065710095E+03  0.17300000000E+03 0.  1.
</event>
<event>
 4    1  0.5900714E+000  0.1000000E+03  0.7546771E-02  0.1280296E+00
         21   -1    0    0  501  502  0.00000000000E+00  0.00000000000E+00  0.17638683541E+04  0.17638683541E+04  0.00000000000E+00 0.  1.
         21   -1    0    0  502  503 -0.00000000000E+00 -0.00000000000E+00 -0.52290067648E+02  0.52290067648E+02  0.00000000000E+00 0.  1.
          6    1    1    2  501    0 -0.83872479253E+02  0.11278085008E+03  0.14725676195E+04  0.14893416354E+04  0.17300000000E+03 0.  1.
         -6    1    1    2    0  503  0.83872479253E+02 -0.11278085008E+03  0.23901066693E+03  0.32681678633E+03  0.17300000000E+03 0.  1.
</event>
<event>
 4    1  0.5900714E+000  0.1000000E+03  0.7546771E-02  0.1280296E+00
         21   -1    0    0  501  502  0.00000000000E+00  0.00000000000E+00  0.75096055597E+02  0.75096055597E+02  0.00000000000E+00 0.  1.
         21   -1    0    0  502  503 -0.00000000000E+00 -0.00000000000E+00 -0.45627226942E+03  0.45627226942E+03  0.00000000000E+00 0.  1.
          6    1    1    2  501    0 -0.44295129131E+02  0.26088763659E+02 -0.13153838882E+03  0.22332494215E+03  0.17300000000E+03 0.  1.
         -6    1    1    2    0  503  0.44295129131E+02 -0.26088763659E+02 -0.24963782501E+03  0.30804338287E+03  0.17300000000E+03 0.  1.
</event>
<event>
 4    1  0.5900714E+000  0.1000000E+03  0.7546771E-02  0.1280296E+00
         21   -1    0    0  501  502  0.00000000000E+00  0.00000000000E+00  0.39020605426E+03  0.39020605426E+03  0.00000000000E+00 0.  1.
         21   -1    0    0  502  503 -0.00000000000E+00 -0.00000000000E+00 -0.16930808648E+03  0.16930808648E+03  0.00000000000E+00 0.  1.
          6    1    1    2  501    0  0.17636022884E+02  0.18475878887E+03  0.15518279353E+03  0.29741812113E+03  0.17300000000E+03 0.  1.
         -6    1    1    2    0  503 -0.17636022884E+02 -0.18475878887E+03  0.65715174245E+02  0.26209601961E+03  0.17300000000E+03 0.  1.
</event>
<event>
 4    1  0.5900714E+000  0.1000000E+03  0.7546771E-02  0.1280296E+00
         21   -1    0    0  503  502  0.00000000000E+00  0.00000000000E+00  0.26417906984E+03  0.26417906984E+03  0.00000000000E+00 0.  1.
         21   -1    0    0  501  503 -0.00000000000E+00 -0.00000000000E+00 -0.19510978176E+03  0.19510978176E+03  0.00000000000E+00 0. -1.
          6    1    1    2  501    0 -0.76693743434E+01  0.38788594054E+02 -0.10869770624E+03  0.20810469883E+03  0.17300000000E+03 0.  1.
         -6    1    1    2    0  502  0.76693743434E+01 -0.38788594054E+02  0.17776699432E+03  0.25118415277E+03  0.17300000000E+03 0. -1.
</event>
<event>
 4    1  0.5900714E+000  0.1000000E+03  0.7546771E-02  0.1280296E+00
         21   -1    0    0  503  502  0.00000000000E+00  0.00000000000E+00  0.12638063700E+03  0.12638063700E+03  0.00000000000E+00 0.  1.
         21   -1    0    0  501  503 -0.00000000000E+00 -0.00000000000E+00 -0.46756306602E+03  0.46756306602E+03  0.00000000000E+00 0. -1.
          6    1    1    2  501    0  0.16594460188E+02  0.16782411100E+03 -0.13777366697E+03  0.27812028271E+03  0.17300000000E+03 0.  1.
         -6    1    1    2    0  502 -0.16594460188E+02 -0.16782411100E+03 -0.20340876205E+03  0.31582342032E+03  0.17300000000E+03 0. -1.
</event>
<event>
 4    1  0.5900714E+000  0.1000000E+03  0.7546771E-02  0.1280296E+00
         21   -1    0    0  503  502  0.00000000000E+00  0.00000000000E+00  0.65964527759E+03  0.65964527759E+03  0.00000000000E+00 0. -1.
         21   -1    0    0  501  503 -0.00000000000E+00 -0.00000000000E+00 -0.58863551578E+02  0.58863551578E+02  0.00000000000E+00 0. -1.
          6    1    1    2  501    0 -0.50811585666E+02 -0.22477343185E+02  0.16138779085E+03  0.24302688581E+03  0.17300000000E+03 0. -1.
         -6    1    1    2    0  502  0.50811585666E+02  0.22477343185E+02  0.43939393517E+03  0.47548194335E+03  0.17300000000E+03 0. -1.
</event>
<event>
 4    1  0.5900714E+000  0.1000000E+03  0.7546771E-02  0.1280296E+00
         21   -1    0    0  501  502  0.00000000000E+00  0.00000000000E+00  0.21522700868E+03  0.21522700868E+03  0.00000000000E+00 0. -1.
         21   -1    0    0  502  503 -0.00000000000E+00 -0.00000000000E+00 -0.19669912926E+03  0.19669912926E+03  0.00000000000E+00 0.  1.
          6    1    1    2  501    0 -0.31841540255E+02 -0.74448846254E+02  0.85823123962E+02  0.20940659732E+03  0.17300000000E+03 0. -1.
         -6    1    1    2    0  503  0.31841540255E+02  0.74448846254E+02 -0.67295244539E+02  0.20251954062E+03  0.17300000000E+03 0.  1.
</event>
<event>
 4    1  0.5900714E+000  0.1000000E+03  0.7546771E-02  0.1280296E+00
         21   -1    0    0  501  502  0.00000000000E+00  0.00000000000E+00  0.71677594340E+02  0.71677594340E+02  0.00000000000E+00 0. -1.
         21   -1    0    0  502  503 -0.00000000000E+00 -0.00000000000E+00 -0.70707393085E+03  0.70707393085E+03  0.00000000000E+00 0.  1.
          6    1    1    2  501    0 -0.48462855037E+02 -0.43875051151E+02 -0.95670993544E+02  0.20822009374E+03  0.17300000000E+03 0. -1.
         -6    1    1    2    0  503  0.48462855037E+02  0.43875051151E+02 -0.53972534297E+03  0.57053143145E+03  0.17300000000E+03 0.  1.
</event>
<event>
 4    1  0.5900714E+000  0.1000000E+03  0.7546771E-02  0.1280296E+00
         21   -1    0    0  501  502  0.00000000000E+00  0.00000000000E+00  0.17409267733E+04  0.17409267733E+04  0.00000000000E+00 0.  1.
         21   -1    0    0  502  503 -0.00000000000E+00 -0.00000000000E+00 -0.42458820028E+02  0.42458820028E+02  0.00000000000E+00 0. -1.
          6    1    1    2  501    0  0.16788314568E+03 -0.71185145594E+02  0.11890742600E+04  0.12153512543E+04  0.17300000000E+03 0. -1.
         -6    1    1    2    0  503 -0.16788314568E+03  0.71185145594E+02  0.50939369324E+03  0.56803433898E+03  0.17300000000E+03 0. -1.
</event>
<event>
 4    1  0.5900714E+000  0.1000000E+03  0.7546771E-02  0.1280296E+00
         21   -1    0    0  501  502  0.00000000000E+00  0.00000000000E+00  0.65490344136E+02  0.65490344136E+02  0.00000000000E+00 0.  1.
         21   -1    0    0  502  503 -0.00000000000E+00 -0.00000000000E+00 -0.72123291688E+03  0.72123291688E+03  0.00000000000E+00 0. -1.
          6    1    1    2  501    0  0.26370033447E+02  0.21991822585E+02 -0.98031155403E+02  0.20178732952E+03  0.17300000000E+03 0. -1.
         -6    1    1    2    0  503 -0.26370033447E+02 -0.21991822585E+02 -0.55771141734E+03  0.58493593150E+03  0.17300000000E+03 0. -1.
</event>
<event>
 4    1  0.5900714E+000  0.1000000E+03  0.7546771E-02  0.1280296E+00
         21   -1    0    0  501  502  0.00000000000E+00  0.00000000000E+00  0.48545155042E+03  0.48545155042E+03  0.00000000000E+00 0.  1.
         21   -1    0    0  502  503 -0.00000000000E+00 -0.00000000000E+00 -0.82942294703E+02  0.82942294703E+02  0.00000000000E+00 0. -1.
          6    1    1    2  501    0 -0.96098842595E+02 -0.33167880395E+02  0.20211581070E+03  0.28480677094E+03  0.17300000000E+03 0. -1.
         -6    1    1    2    0  503  0.96098842595E+02  0.33167880395E+02  0.20039344502E+03  0.28358707418E+03  0.17300000000E+03 0. -1.
</event>
<event>
 4    1  0.5900714E+000  0.1000000E+03  0.7546771E-02  0.1280296E+00
         21   -1    0    0  503  502  0.00000000000E+00  0.00000000000E+00  0.34255922897E+03  0.34255922897E+03  0.00000000000E+00 0. -1.
         21   -1    0    0  501  503 -0.00000000000E+00 -0.00000000000E+00 -0.12481349669E+03  0.12481349669E+03  0.00000000000E+00 0.  1.
          6    1    1    2  501    0 -0.24608816199E+02  0.10648006695E+03  0.75282281718E+02  0.21803674102E+03  0.17300000000E+03 0.  1.
         -6    1    1    2    0  502  0.24608816199E+02 -0.10648006695E+03  0.14246345056E+03  0.24933598464E+03  0.17300000000E+03 0. -1.
</event>
<event>
 4    1  0.5900714E+000  0.1000000E+03  0.7546771E-02  0.1280296E+00
         21   -1    0    0  503  502  0.00000000000E+00  0.00000000000E+00  0.10479042608E+03  0.10479042608E+03  0.00000000000E+00 0. -1.
         21   -1    0    0  501  503 -0.00000000000E+00 -0.00000000000E+00 -0.10393846200E+04  0.10393846200E+04  0.00000000000E+00 0.  1.
          6    1    1    2  501    0 -0.12847509806E+03 -0.10082999485E+03 -0.86378584980E+03  0.89595063089E+03  0.17300000000E+03 0.  1.
         -6    1    1    2    0  502  0.12847509806E+03  0.10082999485E+03 -0.70808344084E+02  0.24822441515E+03  0.17300000000E+03 0. -1.
</event>
<event>
 4    1  0.5900714E+000  0.1000000E+03  0.7546771E-02  0.1280296E+00
         21   -1    0    0  503  502  0.00000000000E+00  0.00000000000E+00  0.18082248922E+02  0.18082248922E+02  0.00000000000E+00 0. -1.
         21   -1    0    0  501  503 -0.00000000000E+00 -0.00000000000E+00 -0.29203314599E+04  0.29203314599E+04  0.00000000000E+00 0.  1.
          6    1    1    2  501    0  0.90721369520E+02  0.43371280951E+02 -0.72874845148E+03  0.75572133782E+03  0.17300000000E+03 0.  1.
         -6    1    1    2    0  502 -0.90721369520E+02 -0.43371280951E+02 -0.21735007595E+04  0.21826923710E+04  0.17300000000E+03 0. -1.
</event>
<event>
 4    1  0.5900714E+000  0.1000000E+03  0.7546771E-02  0.1280296E+00
         21   -1    0    0  503  502  0.00000000000E+00  0.00000000000E+00  0.11220103424E+03  0.11220103424E+03  0.00000000000E+00 0. -1.
         21   -1    0    0  501  503 -0.00000000000E+00 -0.00000000000E+00 -0.38635883449E+03  0.38635883449E+03  0.00000000000E+00 0.  1.
          6    1    1    2  501    0  0.85004134651E+02  0.52998279605E+02 -0.20675097842E+03  0.28759257227E+03  0.17300000000E+03 0.  1.
         -6    1    1    2    0  502 -0.85004134651E+02 -0.52998279605E+02 -0.67406821828E+02  0.21096729647E+03  0.17300000000E+03 0. -1.
</event>
<event>
 4    1  0.5900714E+000  0.1000000E+03  0.7546771E-02  0.1280296E+00
         21   -1    0    0  503  502  0.00000000000E+00  0.00000000000E+00  0.10100812229E+04  0.10100812229E+04  0.00000000000E+00 0.  1.
         21   -1    0    0  501  503 -0.00000000000E+00 -0.00000000000E+00 -0.12197985080E+03  0.12197985080E+03  0.00000000000E+00 0.  1.
          6    1    1    2  501    0 -0.24878199244E+03  0.15386620109E+03  0.30242666854E+03  0.45492656269E+03  0.17300000000E+03 0.  1.
         -6    1    1    2    0  502  0.24878199244E+03 -0.15386620109E+03  0.58567470352E+03  0.67713451097E+03  0.17300000000E+03 0.  1.
</event>
<event>
 4    1  0.5900714E+000  0.1000000E+03  0.7546771E-02  0.1280296E+00
         21   -1    0    0  503  502  0.00000000000E+00  0.00000000000E+00  0.10884144888E+04  0.10884144888E+04  0.00000000000E+00 0.  1.
         21   -1    0    0  501  503 -0.00000000000E+00 -0.00000000000E+00 -0.33053034738E+02  0.33053034738E+02  0.00000000000E+00 0.  1.
          6    1    1    2  501    0 -0.32533426555E+02 -0.65884175730E+00  0.31889671050E+03  0.36425673622E+03  0.17300000000E+03 0.  1.
         -6    1    1    2    0  502  0.32533426555E+02  0.65884175730E+00  0.73646474356E+03  0.75721078731E+03  0.17300000000E+03 0.  1.
</event>
<event>
 4    1  0.5900714E+000  0.1000000E+03  0.7546771E-02  0.1280296E+00
         21   -1    0    0  501  502  0.00000000000E+00  0.00000000000E+00  0.19251644014E+04  0.19251644014E+04  0.00000000000E+00 0. -1.
         21   -1    0    0  502  503 -0.00000000000E+00 -0.00000000000E+00 -0.23774712662E+02  0.23774712662E+02  0.00000000000E+00 0. -1.
          6    1    1    2  501    0  0.40831019472E+02 -0.56960058195E+02  0.14268835175E+04  0.14390403723E+04  0.17300000000E+03 0. -1.
         -6    1    1    2    0  503 -0.40831019472E+02  0.56960058195E+02  0.47450617118E+03  0.50989874178E+03  0.17300000000E+03 0. -1.
</event>
<event>
 4    1  0.5900714E+000  0.1000000E+03  0.7546771E-02  0.1280296E+00
         21   -1    0    0  503  502  0.00000000000E+00  0.00000000000E+00  0.66088588993E+03  0.66088588993E+03  0.00000000000E+00 0.  1.
         21   -1    0    0  501  503 -0.00000000000E+00 -0.00000000000E+00 -0.37814275257E+03  0.37814275257E+03  0.00000000000E+00 0. -1.
          6    1    1    2  501    0  0.31359857103E+03 -0.13744018739E+02 -0.22078822350E+03  0.42096247034E+03  0.17300000000E+03 0. -1.
         -6    1    1    2    0  502 -0.31359857103E+03  0.13744018739E+02  0.50353136086E+03  0.61806617216E+03  0.17300000000E+03 0.  1.
</event>
<event>
 4    1  0.5900714E+000  0.1000000E+03  0.7546771E-02  0.1280296E+00
         21   -1    0    0  503  502  0.00000000000E+00  0.00000000000E+00  0.15159290739E+04  0.15159290739E+04  0.00000000000E+00 0.  1.
         21   -1    0    0  501  503 -0.00000000000E+00 -0.00000000000E+00 -0.46403552050E+02  0.46403552050E+02  0.00000000000E+00 0. -1.
          6    1    1    2  501    0  0.14728743553E+02 -0.22068375666E+02  0.14783203950E+03  0.22910098427E+03  0.17300000000E+03 0. -1.
         -6    1    1    2    0  502 -0.14728743553E+02  0.22068375666E+02  0.13216934824E+04  0.13332316417E+04  0.17300000000E+03 0.  1.
</event>
<event>
 4    1  0.5900714E+000  0.1000000E+03  0.7546771E-02  0.1280296E+00
         21   -1    0    0  503  502  0.00000000000E+00  0.00000000000E+00  0.16367570938E+03  0.16367570938E+03  0.00000000000E+00 0.  1.
         21   -1    0    0  501  503 -0.00000000000E+00 -0.00000000000E+00 -0.22029904703E+03  0.22029904703E+03  0.00000000000E+00 0. -1.
          6    1    1    2  501    0  0.40410534143E+02 -0.41011346745E+02 -0.81941957613E+02  0.19989603860E+03  0.17300000000E+03 0. -1.
         -6    1    1    2    0  502 -0.40410534143E+02  0.41011346745E+02  0.25318619970E+02  0.18407871780E+03  0.17300000000E+03 0.  1.
</event>
<event>
 4    1  0.5900714E+000  0.1000000E+03  0.7546771E-02  0.1280296E+00
         21   -1    0    0  503  502  0.00000000000E+00  0.00000000000E+00  0.72525186420E+03  0.72525186420E+03  0.00000000000E+00 0.  1.
         21   -1    0    0  501  503 -0.00000000000E+00 -0.00000000000E+00 -0.14201850578E+03  0.14201850578E+03  0.00000000000E+00 0. -1.
          6    1    1    2  501    0  0.23650662172E+03 -0.96659354879E+02  0.17234817720E+03  0.35342793776E+03  0.17300000000E+03 0. -1.
         -6    1    1    2    0  502 -0.23650662172E+03  0.96659354879E+02  0.41088518122E+03  0.51384243222E+03  0.17300000000E+03 0.  1.
</event>
<event>
 4    1  0.5900714E+000  0.1000000E+03  0.7546771E-02  0.1280296E+00
         21   -1    0    0  501  502  0.00000000000E+00  0.00000000000E+00  0.55305355418E+03  0.55305355418E+03  0.00000000000E+00 0. -1.
         21   -1    0    0  502  503 -0.00000000000E+00 -0.00000000000E+00 -0.76149005713E+02  0.76149005713E+02  0.00000000000E+00 0.  1.
          6    1    1    2  501    0  0.10113272669E+03  0.37244927277E+02  0.27506730193E+03  0.34235366744E+03  0.17300000000E+03 0.  1.
         -6    1    1    2    0  503 -0.10113272669E+03 -0.37244927277E+02  0.20183724653E+03  0.28684889245E+03  0.17300000000E+03 0. -1.
</event>
<event>
 4    1  0.5900714E+000  0.1000000E+03  0.7546771E-02  0.1280296E+00
         21   -1    0    0  501  502  0.00000000000E+00  0.00000000000E+00  0.18131284886E+03  0.18131284886E+03  0.00000000000E+00 0. -1.
         21   -1    0    0  502  503 -0.00000000000E+00 -0.00000000000E+00 -0.93065842877E+03  0.93065842877E+03  0.00000000000E+00 0.  1.
          6    1    1    2  501    0  0.95760194891E+01 -0.19272284955E+03  0.56700209676E+02  0.26528797686E+03  0.17300000000E+03 0.  1.
         -6    1    1    2    0  503 -0.95760194891E+01  0.19272284955E+03 -0.80604578959E+03  0.84668330077E+03  0.17300000000E+03 0. -1.
</event>
<event>
 4    1  0.5900714E+000  0.1000000E+03  0.7546771E-02  0.1280296E+00
         21   -1    0    0  501  502  0.00000000000E+00  0.00000000000E+00  0.49281358494E+03  0.49281358494E+03  0.00000000000E+00 0. -1.
         21   -1    0    0  502  503 -0.00000000000E+00 -0.00000000000E+00 -0.12489896493E+03  0.12489896493E+03  0.00000000000E+00 0.  1.
          6    1    1    2  501    0  0.87869251792E+02 -0.29451105513E+01  0.37638744468E+03  0.42346922863E+03  0.17300000000E+03 0. -1.
         -6    1    1    2    0  503 -0.87869251792E+02  0.29451105513E+01 -0.84728246682E+01  0.19424332124E+03  0.17300000000E+03 0.  1.
</event>
<event>
 4    1  0.5900714E+000  0.1000000E+03  0.7546771E-02  0.1280296E+00
         21   -1    0    0  501  502  0.00000000000E+00  0.00000000000E+00  0.92292718447E+03  0.92292718447E+03  0.00000000000E+00 0. -1.
         21   -1    0    0  502  503 -0.00000000000E+00 -0.00000000000E+00 -0.56543989656E+02  0.56543989656E+02  0.00000000000E+00 0.  1.
          6    1    1    2  501    0  0.53250740664E+02  0.13582617589E+03  0.36633404796E+03  0.43059728997E+03  0.17300000000E+03 0. -1.
         -6    1    1    2    0  503 -0.53250740664E+02 -0.13582617589E+03  0.50004914686E+03  0.54887388416E+03  0.17300000000E+03 0.  1.
</event>
<event>
 4    1  0.5900714E+000  0.1000000E+03  0.7546771E-02  0.1280296E+00
         21   -1    0    0  501  502  0.00000000000E+00  0.00000000000E+00  0.81438670803E+03  0.81438670803E+03  0.00000000000E+00 0. -1.
         21   -1    0    0  502  503 -0.00000000000E+00 -0.00000000000E+00 -0.52463011411E+02  0.52463011411E+02  0.00000000000E+00 0.  1.
          6    1    1    2  501    0  0.12211863259E+02 -0.14623536191E+02  0.61477199876E+03  0.63893394641E+03  0.17300000000E+03 0. -1.
         -6    1    1    2    0  503 -0.12211863259E+02  0.14623536191E+02  0.14715169787E+03  0.22791577304E+03  0.17300000000E+03 0.  1.
</event>
<event>
 4    1  0.5900714E+000  0.1000000E+03  0.7546771E-02  0.1280296E+00
         21   -1    0    0  501  502  0.00000000000E+00  0.00000000000E+00  0.16055778503E+04  0.16055778503E+04  0.00000000000E+00 0. -1.
         21   -1    0    0  502  503 -0.00000000000E+00 -0.00000000000E+00 -0.98352294927E+02  0.98352294927E+02  0.00000000000E+00 0.  1.
          6    1    1    2  501    0 -0.24980513900E+03 -0.11902963237E+03  0.12397385700E+04  0.12819716778E+04  0.17300000000E+03 0. -1.
         -6    1    1    2    0  503  0.24980513900E+03  0.11902963237E+03  0.26748698538E+03  0.42195846739E+03  0.17300000000E+03 0.  1.
</event>
<event>
 4    1  0.5900714E+000  0.1000000E+03  0.7546771E-02  0.1280296E+00
         21   -1    0    0  501  502  0.00000000000E+00  0.00000000000E+00  0.59302359948E+02  0.59302359948E+02  0.00000000000E+00 0. -1.
         21   -1    0    0  502  503 -0.00000000000E+00 -0.00000000000E+00 -0.64604667675E+03  0.64604667675E+03  0.00000000000E+00 0.  1.
          6    1    1    2  501    0  0.23709567931E+02 -0.61977764604E+02 -0.17970588515E+03  0.25812127397E+03  0.17300000000E+03 0. -1.
         -6    1    1    2    0  503 -0.23709567931E+02  0.61977764604E+02 -0.40703843165E+03  0.44722776273E+03  0.17300000000E+03 0.  1.
</event>
<event>
 4    1  0.5900714E+000  0.1000000E+03  0.7546771E-02  0.1280296E+00
         21   -1    0    0  501  502  0.00000000000E+00  0.00000000000E+00  0.83919138986E+02  0.83919138986E+02  0.00000000000E+00 0. -1.
         21   -1    0    0  502  503 -0.00000000000E+00 -0.00000000000E+00 -0.46040556054E+03  0.46040556054E+03  0.00000000000E+00 0.  1.
          6    1    1    2  501    0 -0.46624435730E+02  0.64037575461E+02 -0.25654234389E+03  0.31940197758E+03  0.17300000000E+03 0. -1.
         -6    1    1    2    0  503  0.46624435730E+02 -0.64037575461E+02 -0.11994407767E+03  0.22492272194E+03  0.17300000000E+03 0.  1.
</event>
<event>
 4    1  0.5900714E+000  0.1000000E+03  0.7546771E-02  0.1280296E+00
         21   -1    0    0  501  502  0.00000000000E+00  0.00000000000E+00  0.19364978660E+03  0.19364978660E+03  0.00000000000E+00 0. -1.
         21   -1    0    0  502  503 -0.00000000000E+00 -0.00000000000E+00 -0.27890328308E+03  0.27890328308E+03  0.00000000000E+00 0.  1.
          6    1    1    2  501    0  0.10960520318E+02 -0.84237351726E+02  0.89403050795E+02  0.21245698370E+03  0.17300000000E+03 0. -1.
         -6    1    1    2    0  503 -0.10960520318E+02  0.84237351726E+02 -0.17465654728E+03  0.26009608597E+03  0.17300000000E+03 0.  1.
</event>
<event>
 4    1  0.5900714E+000  0.1000000E+03  0.7546771E-02  0.1280296E+00
         21   -1    0    0  501  502  0.00000000000E+00  0.00000000000E+00  0.33209607737E+03  0.33209607737E+03  0.00000000000E+00 0. -1.
         21   -1    0    0  502  503 -0.00000000000E+00 -0.00000000000E+00 -0.27889909850E+03  0.27889909850E+03  0.00000000000E+00 0.  1.
          6    1    1    2  501    0 -0.12010213496E+03 -0.81924768606E+02  0.23122871381E+03  0.32331394746E+03  0.17300000000E+03 0. -1.
         -6    1    1    2    0  503  0.12010213496E+03  0.81924768606E+02 -0.17803173494E+03  0.28768122841E+03  0.17300000000E+03 0.  1.
</event>
<event>
 4    1  0.5900714E+000  0.1000000E+03  0.7546771E-02  0.1280296E+00
         21   -1    0    0  501  502  0.00000000000E+00  0.00000000000E+00  0.20209241987E+03  0.20209241987E+03  0.00000000000E+00 0. -1.
         21   -1    0    0  502  503 -0.00000000000E+00 -0.00000000000E+00 -0.22661144751E+03  0.22661144751E+03  0.00000000000E+00 0.  1.
          6    1    1    2  501    0  0.99271193265E+02 -0.60931646099E+02  0.35777646157E+02  0.21160452564E+03  0.17300000000E+03 0. -1.
         -6    1    1    2    0  503 -0.99271193265E+02  0.60931646099E+02 -0.60296673795E+02  0.21709934173E+03  0.17300000000E+03 0.  1.
</event>
<event>
 4    1  0.5900714E+000  0.1000000E+03  0.7546771E-02  0.1280296E+00
         21   -1    0    0  501  502  0.00000000000E+00  0.00000000000E+00  0.30471805792E+03  0.30471805792E+03  0.00000000000E+00 0.  1.
         21   -1    0    0  502  503 -0.00000000000E+00 -0.00000000000E+00 -0.13913536721E+03  0.13913536721E+03  0.00000000000E+00 0.  1.
          6    1    1    2  501    0 -0.54836441318E+02  0.30470893017E+02  0.18235047507E+03  0.25906795706E+03  0.17300000000E+03 0.  1.
         -6    1    1    2    0  503  0.54836441318E+02 -0.30470893017E+02 -0.16767784360E+02  0.18478546807E+03  0.17300000000E+03 0.  1.
</event>
<event>
 4    1  0.5900714E+000  0.1000000E+03  0.7546771E-02  0.1280296E+00
         21   -1    0    0  501  502  0.00000000000E+00  0.00000000000E+00  0.15638051756E+02  0.15638051756E+02  0.00000000000E+00 0.  1.
         21   -1    0    0  502  503 -0.00000000000E+00 -0.00000000000E+00 -0.24790822892E+04  0.24790822892E+04  0.00000000000E+00 0. -1.
          6    1    1    2  501    0 -0.74696421527E+02  0.56357798362E+02 -0.11739159591E+04  0.11902787220E+04  0.17300000000E+03 0.  1.
         -6    1    1    2    0  503  0.74696421527E+02 -0.56357798362E+02 -0.12895282783E+04  0.13044416190E+04  0.17300000000E+03 0. -1.
</event>
<event>
 4    1  0.5900714E+000  0.1000000E+03  0.7546771E-02  0.1280296E+00
         21   -1    0    0  501  502  0.00000000000E+00  0.00000000000E+00  0.33440599798E+04  0.33440599798E+04  0.00000000000E+00 0.  1.
         21   -1    0    0  502  503 -0.00000000000E+00 -0.00000000000E+00 -0.13151411078E+02  0.13151411078E+02  0.00000000000E+00 0. -1.
          6    1    1    2  501    0 -0.22146197330E+02  0.39332838866E+02  0.78816332332E+03  0.80818806630E+03  0.17300000000E+03 0.  1.
         -6    1    1    2    0  503  0.22146197330E+02 -0.39332838866E+02  0.25427452454E+04  0.25490233246E+04  0.17300000000E+03 0. -1.
</event>
<event>
 4    1  0.5900714E+000  0.1000000E+03  0.7546771E-02  0.1280296E+00
         21   -1    0    0  501  502  0.00000000000E+00  0.00000000000E+00  0.30061489229E+03  0.30061489229E+03  0.00000000000E+00 0.  1.
         21   -1    0    0  502  503 -0.00000000000E+00 -0.00000000000E+00 -0.44480410315E+03  0.44480410315E+03  0.00000000000E+00 0.  1.
          6    1    1    2  501    0 -0.69711963457E+02  0.13896628866E+03  0.21549719495E+03  0.31707952988E+03  0.17300000000E+03 0.  1.
         -6    1    1    2    0  503  0.69711963457E+02 -0.13896628866E+03 -0.35968640581E+03  0.42833946556E+03  0.17300000000E+03 0.  1.
</event>
<event>
 4    1  0.5900714E+000  0.1000000E+03  0.7546771E-02  0.1280296E+00
         21   -1    0    0  501  502  0.00000000000E+00  0.00000000000E+00  0.25109532125E+03  0.25109532125E+03  0.00000000000E+00 0.  1.
         21   -1    0    0  502  503 -0.00000000000E+00 -0.00000000000E+00 -0.81216038906E+03  0.81216038906E+03  0.00000000000E+00 0.  1.
          6    1    1    2  501    0  0.14648989036E+03 -0.50567830983E+02  0.17538929655E+03  0.29104432455E+03  0.17300000000E+03 0.  1.
         -6    1    1    2    0  503 -0.14648989036E+03  0.50567830983E+02 -0.73645436436E+03  0.77221138576E+03  0.17300000000E+03 0.  1.
</event>
<event>
 4    1  0.5900714E+000  0.1000000E+03  0.7546771E-02  0.1280296E+00
         21   -1    0    0  503  502  0.00000000000E+00  0.00000000000E+00  0.16077425236E+04  0.16077425236E+04  0.00000000000E+00 0. -1.
         21   -1    0    0  501  503 -0.00000000000E+00 -0.00000000000E+00 -0.42374774270E+02  0.42374774270E+02  0.00000000000E+00 0. -1.
          6    1    1    2  501    0  0.22248163050E+02  0.35632427667E+01  0.16900385198E+03  0.24289705524E+03  0.17300000000E+03 0. -1.
         -6    1    1    2    0  502 -0.22248163050E+02 -0.35632427667E+01  0.13963638973E+04  0.14072202426E+04  0.17300000000E+03 0. -1.
</event>
<event>
 4    1  0.5900714E+000  0.1000000E+03  0.7546771E-02  0.1280296E+00
         21   -1    0    0  503  502  0.00000000000E+00  0.00000000000E+00  0.12243510200E+04  0.12243510200E+04  0.00000000000E+00 0. -1.
         21   -1    0    0  501  503 -0.00000000000E+00 -0.00000000000E+00 -0.31608944251E+03  0.31608944251E+03  0.00000000000E+00 0. -1.
          6    1    1    2  501    0 -0.25728172865E+03 -0.43982105835E+02 -0.21139691195E+03  0.37781737376E+03  0.17300000000E+03 0. -1.
         -6    1    1    2    0  502  0.25728172865E+03  0.43982105835E+02  0.11196584894E+04  0.11626230887E+04  0.17300000000E+03 0. -1.
</event>
<event>
 4    1  0.5900714E+000  0.1000000E+03  0.7546771E-02  0.1280296E+00
         21   -1    0    0  503  502  0.00000000000E+00  0.00000000000E+00  0.71558681324E+02  0.71558681324E+02  0.00000000000E+00 0.  1.
         21   -1    0    0  501  503 -0.00000000000E+00 -0.00000000000E+00 -0.80759585502E+03  0.80759585502E+03  0.00000000000E+00 0. -1.
          6    1    1    2  501    0 -0.96001941379E+02 -0.88054123377E+02 -0.55885125541E+03  0.59934433097E+03  0.17300000000E+03 0.  1.
         -6    1    1    2    0  502  0.96001941379E+02  0.88054123377E+02 -0.17718591828E+03  0.27981020537E+03  0.17300000000E+03 0.  1.
</event>
<event>
 4    1  0.5900714E+000  0.1000000E+03  0.7546771E-02  0.1280296E+00
         21   -1    0    0  503  502  0.00000000000E+00  0.00000000000E+00  0.16331874161E+03  0.16331874161E+03  0.00000000000E+00 0. -1.
         21   -1    0    0  501  503 -0.00000000000E+00 -0.00000000000E+00 -0.41966066712E+03  0.41966066712E+03  0.00000000000E+00 0. -1.
          6    1    1    2  501    0  0.37963027666E+02  0.17468707684E+02 -0.34194355797E+03  0.38548767043E+03  0.17300000000E+03 0. -1.
         -6    1    1    2    0  502 -0.37963027666E+02 -0.17468707684E+02  0.85601632460E+02  0.19749173830E+03  0.17300000000E+03 0. -1.
</event>
<event>
 4    1  0.5900714E+000  0.1000000E+03  0.7546771E-02  0.1280296E+00
         21   -1    0    0  503  502  0.00000000000E+00  0.00000000000E+00  0.16688542911E+04  0.16688542911E+04  0.00000000000E+00 0. -1.
         21   -1    0    0  501  503 -0.00000000000E+00 -0.00000000000E+00 -0.33464993902E+03  0.33464993902E+03  0.00000000000E+00 0. -1.
          6    1    1    2  501    0  0.68550139803E+02 -0.12446058484E+02 -0.30295322731E+03  0.35575790079E+03  0.17300000000E+03 0. -1.
         -6    1    1    2    0  502 -0.68550139803E+02  0.12446058484E+02  0.16371575794E+04  0.16477463294E+04  0.17300000000E+03 0. -1.
</event>
<event>
 4    1  0.5900714E+000  0.1000000E+03  0.7546771E-02  0.1280296E+00
         21   -1    0    0  503  502  0.00000000000E+00  0.00000000000E+00  0.43532734093E+03  0.43532734093E+03  0.00000000000E+00 0. -1.
         21   -1    0    0  501  503 -0.00000000000E+00 -0.00000000000E+00 -0.14644589006E+03  0.14644589006E+03  0.00000000000E+00 0. -1.
          6    1    1    2  501    0  0.49169109957E+02 -0.11567113474E+03 -0.10234471480E+02  0.21408212722E+03  0.17300000000E+03 0.  1.
         -6    1    1    2    0  502 -0.49169109957E+02  0.11567113474E+03  0.29911592236E+03  0.36769110377E+03  0.17300000000E+03 0.  1.
</event>
<event>
 4    1  0.5900714E+000  0.1000000E+03  0.7546771E-02  0.1280296E+00
         21   -1    0    0  503  502  0.00000000000E+00  0.00000000000E+00  0.19843932413E+03  0.19843932413E+03  0.00000000000E+00 0. -1.
         21   -1    0    0  501  503 -0.00000000000E+00 -0.00000000000E+00 -0.17332446754E+03  0.17332446754E+03  0.00000000000E+00 0. -1.
          6    1    1    2  501    0  0.65767947420E+02  0.10938496475E+02  0.17075140958E+02  0.18618709421E+03  0.17300000000E+03 0.  1.
         -6    1    1    2    0  502 -0.65767947420E+02 -0.10938496475E+02  0.80397156308E+01  0.18557669746E+03  0.17300000000E+03 0.  1.
</event>
<event>
 4    1  0.5900714E+000  0.1000000E+03  0.7546771E-02  0.1280296E+00
         21   -1    0    0  503  502  0.00000000000E+00  0.00000000000E+00  0.68454397976E+02  0.68454397976E+02  0.00000000000E+00 0. -1.
         21   -1    0    0  501  503 -0.00000000000E+00 -0.00000000000E+00 -0.14784617750E+04  0.14784617750E+04  0.00000000000E+00 0. -1.
          6    1    1    2  501    0  0.24266764412E+03 -0.64409675453E+02 -0.92572682583E+03  0.97464626807E+03  0.17300000000E+03 0.  1.
         -6    1    1    2    0  502 -0.24266764412E+03  0.64409675453E+02 -0.48428055115E+03  0.57226990487E+03  0.17300000000E+03 0.  1.
</event>
<event>
 4    1  0.5900714E+000  0.1000000E+03  0.7546771E-02  0.1280296E+00
         21   -1    0    0  503  502  0.00000000000E+00  0.00000000000E+00  0.46917313167E+02  0.46917313167E+02  0.00000000000E+00 0.  1.
         21   -1    0    0  501  503 -0.00000000000E+00 -0.00000000000E+00 -0.10335748766E+04  0.10335748766E+04  0.00000000000E+00 0.  1.
          6    1    1    2  501    0  0.10874433228E+03 -0.66766909428E+02 -0.61048361254E+03  0.64722669227E+03  0.17300000000E+03 0.  1.
         -6    1    1    2    0  502 -0.10874433228E+03  0.66766909428E+02 -0.37617395090E+03  0.43326549751E+03  0.17300000000E+03 0.  1.
</event>
<event>
 4    1  0.5900714E+000  0.1000000E+03  0.7546771E-02  0.1280296E+00
         21   -1    0    0  503  502  0.00000000000E+00  0.00000000000E+00  0.92025799284E+03  0.92025799284E+03  0.00000000000E+00 0.  1.
         21   -1    0    0  501  503 -0.00000000000E+00 -0.00000000000E+00 -0.92890997844E+02  0.92890997844E+02  0.00000000000E+00 0.  1.
          6    1    1    2  501    0 -0.11181633475E+03 -0.11556654276E+03  0.11510956450E+03  0.26275031943E+03  0.17300000000E+03 0.  1.
         -6    1    1    2    0  502  0.11181633475E+03  0.11556654276E+03  0.71225743050E+03  0.75039867125E+03  0.17300000000E+03 0.  1.
</event>
<event>
 4    1  0.5900714E+000  0.1000000E+03  0.7546771E-02  0.1280296E+00
         21   -1    0    0  503  502  0.00000000000E+00  0.00000000000E+00  0.13588813820E+03  0.13588813820E+03  0.00000000000E+00 0.  1.
         21   -1    0    0  501  503 -0.00000000000E+00 -0.00000000000E+00 -0.38662441269E+03  0.38662441269E+03  0.00000000000E+00 0.  1.
          6    1    1    2  501    0  0.64541666708E+02  0.10808871826E+03 -0.21908130456E+03  0.30622608603E+03  0.17300000000E+03 0.  1.
         -6    1    1    2    0  502 -0.64541666708E+02 -0.10808871826E+03 -0.31654969929E+02  0.21628646485E+03  0.17300000000E+03 0.  1.
</event>
<event>
 4    1  0.5900714E+000  0.1000000E+03  0.7546771E-02  0.1280296E+00
         21   -1    0    0  503  502  0.00000000000E+00  0.00000000000E+00  0.13494827825E+04  0.13494827825E+04  0.00000000000E+00 0. -1.
         21   -1    0    0  501  503 -0.00000000000E+00 -0.00000000000E+00 -0.44426674520E+02  0.44426674520E+02  0.00000000000E+00 0. -1.
          6    1    1    2  501    0  0.11859237934E+03 -0.72420361625E+02  0.94717269572E+03  0.97281754545E+03  0.17300000000E+03 0. -1.
         -6    1    1    2    0  502 -0.11859237934E+03  0.72420361625E+02  0.35788341223E+03  0.42109191154E+03  0.17300000000E+03 0. -1.
</event>
<event>
 4    1  0.5900714E+000  0.1000000E+03  0.7546771E-02  0.1280296E+00
         21   -1    0    0  503  502  0.00000000000E+00  0.00000000000E+00  0.25589657076E+03  0.25589657076E+03  0.00000000000E+00 0. -1.
         21   -1    0    0  501  503 -0.00000000000E+00 -0.00000000000E+00 -0.45719397145E+03  0.45719397145E+03  0.00000000000E+00 0. -1.
          6    1    1    2  501    0  0.20360681759E+03 -0.20567520303E+03 -0.16059631332E+03  0.37346780472E+03  0.17300000000E+03 0. -1.
         -6    1    1    2    0  502 -0.20360681759E+03  0.20567520303E+03 -0.40701087366E+02  0.33962273749E+03  0.17300000000E+03 0. -1.
</event>
<event>
 4    1  0.5900714E+000  0.1000000E+03  0.7546771E-02  0.1280296E+00
         21   -1    0    0  503  502  0.00000000000E+00  0.00000000000E+00  0.54868227118E+03  0.54868227118E+03  0.00000000000E+00 0.  1.
         21   -1    0    0  501  503 -0.00000000000E+00 -0.00000000000E+00 -0.66177790966E+02  0.66177790966E+02  0.00000000000E+00 0. -1.
          6    1    1    2  501    0 -0.25494261797E+01 -0.78254159641E+02  0.26683128471E+03  0.32750289705E+03  0.17300000000E+03 0.  1.
         -6    1    1    2    0  502  0.25494261797E+01  0.78254159641E+02  0.21567319551E+03  0.28735716510E+03  0.17300000000E+03 0.  1.
</event>
<event>
 4    1  0.5900714E+000  0.1000000E+03  0.7546771E-02  0.1280296E+00
         21   -1    0    0  503  502  0.00000000000E+00  0.00000000000E+00  0.16970282689E+03  0.16970282689E+03  0.00000000000E+00 0.  1.
         21   -1    0    0  501  503 -0.00000000000E+00 -0.00000000000E+00 -0.36578942843E+03  0.36578942843E+03  0.00000000000E+00 0.  1.
          6    1    1    2  501    0 -0.13662783158E+03 -0.92094752708E+02 -0.17401582002E+03  0.29556575149E+03  0.17300000000E+03 0.  1.
         -6    1    1    2    0  502  0.13662783158E+03  0.92094752708E+02 -0.22070781524E+02  0.23992650382E+03  0.17300000000E+03 0.  1.
</event>
<event>
 4    1  0.5900714E+000  0.1000000E+03  0.7546771E-02  0.1280296E+00
         21   -1    0    0  503  502  0.00000000000E+00  0.00000000000E+00  0.37301207344E+03  0.37301207344E+03  0.00000000000E+00 0.  1.
         21   -1    0    0  501  503 -0.00000000000E+00 -0.00000000000E+00 -0.13879453248E+03  0.13879453248E+03  0.00000000000E+00 0.  1.
          6    1    1    2  501    0  0.61530944749E+02 -0.42935239922E+02 -0.26099219670E+02  0.19036717484E+03  0.17300000000E+03 0.  1.
         -6    1    1    2    0  502 -0.61530944749E+02  0.42935239922E+02  0.26031676063E+03  0.32143943108E+03  0.17300000000E+03 0.  1.
</event>
<event>
 4    1  0.5900714E+000  0.1000000E+03  0.7546771E-02  0.1280296E+00
         21   -1    0    0  503  502  0.00000000000E+00  0.00000000000E+00  0.54989044226E+03  0.54989044226E+03  0.00000000000E+00 0.  1.
         21   -1    0    0  501  503 -0.00000000000E+00 -0.00000000000E+00 -0.14448978056E+03  0.14448978056E+03  0.00000000000E+00 0. -1.
          6    1    1    2  501    0 -0.99783159676E+02  0.13148231246E+03  0.18847238469E+02  0.23985098674E+03  0.17300000000E+03 0.  1.
         -6    1    1    2    0  502  0.99783159676E+02 -0.13148231246E+03  0.38655342323E+03  0.45452923608E+03  0.17300000000E+03 0. -1.
</event>
<event>
 4    1  0.5900714E+000  0.1000000E+03  0.7546771E-02  0.1280296E+00
         21   -1    0    0  503  502  0.00000000000E+00  0.00000000000E+00  0.10416455125E+04  0.10416455125E+04  0.00000000000E+00 0.  1.
         21   -1    0    0  501  503 -0.00000000000E+00 -0.00000000000E+00 -0.10458727874E+03  0.10458727874E+03  0.00000000000E+00 0. -1.
          6    1    1    2  501    0  0.12157593784E+03  0.24187701608E+03  0.33710643363E+03  0.46567686990E+03  0.17300000000E+03 0.  1.
         -6    1    1    2    0  502 -0.12157593784E+03 -0.24187701608E+03  0.59995180010E+03  0.68055592130E+03  0.17300000000E+03 0. -1.
</event>
<event>
 4    1  0.5900714E+000  0.1000000E+03  0.7546771E-02  0.1280296E+00
         21   -1    0    0  503  502  0.00000000000E+00  0.00000000000E+00  0.81835935583E+02  0.81835935583E+02  0.00000000000E+00 0.  1.
         21   -1    0    0  501  503 -0.00000000000E+00 -0.00000000000E+00 -0.42772367260E+03  0.42772367260E+03  0.00000000000E+00 0. -1.
          6    1    1    2  501    0  0.32815368736E+02 -0.54862248885E+02 -0.21573653584E+03  0.28382735540E+03  0.17300000000E+03 0.  1.
         -6    1    1    2    0  502 -0.32815368736E+02  0.54862248885E+02 -0.13015120118E+03  0.22573225278E+03  0.17300000000E+03 0. -1.
</event>
<event>
 4    1  0.5900714E+000  0.1000000E+03  0.7546771E-02  0.1280296E+00
         21   -1    0    0  503  502  0.00000000000E+00  0.00000000000E+00  0.17521090889E+03  0.17521090889E+03  0.00000000000E+00 0.  1.
         21   -1    0    0  501  503 -0.00000000000E+00 -0.00000000000E+00 -0.58056599548E+03  0.58056599548E+03  0.00000000000E+00 0.  1.
          6    1    1    2  501    0 -0.12487337817E+03  0.19045147096E+03 -0.36993376042E+03  0.46759502827E+03  0.17300000000E+03 0. -1.
         -6    1    1    2    0  502  0.12487337817E+03 -0.19045147096E+03 -0.35421326174E+02  0.28818187610E+03  0.17300000000E+03 0. -1.
</event>
<event>
 4    1  0.5900714E+000  0.1000000E+03  0.7546771E-02  0.1280296E+00
         21   -1    0    0  503  502  0.00000000000E+00  0.00000000000E+00  0.71338320467E+02  0.71338320467E+02  0.00000000000E+00 0.  1.
         21   -1    0    0  501  503 -0.00000000000E+00 -0.00000000000E+00 -0.86117609191E+03  0.86117609191E+03  0.00000000000E+00 0.  1.
          6    1    1    2  501    0  0.13490983712E+03  0.24982873669E+02 -0.60675290480E+03  0.64568018059E+03  0.17300000000E+03 0. -1.
         -6    1    1    2    0  502 -0.13490983712E+03 -0.24982873669E+02 -0.18308486664E+03  0.28683423178E+03  0.17300000000E+03 0. -1.
</event>
<event>
 4    1  0.5900714E+000  0.1000000E+03  0.7546771E-02  0.1280296E+00
         21   -1    0    0  503  502  0.00000000000E+00  0.00000000000E+00  0.98170366657E+03  0.98170366657E+03  0.00000000000E+00 0.  1.
         21   -1    0    0  501  503 -0.00000000000E+00 -0.00000000000E+00 -0.33741605532E+03  0.33741605532E+03  0.00000000000E+00 0.  1.
          6    1    1    2  501    0  0.28746847672E+03 -0.26911263374E+02 -0.21286485075E+03  0.39824965272E+03  0.17300000000E+03 0. -1.
         -6    1    1    2    0  502 -0.28746847672E+03  0.26911263374E+02  0.85715246199E+03  0.92087006918E+03  0.17300000000E+03 0. -1.
</event>
<event>
 4    1  0.5900714E+000  0.1000000E+03  0.7546771E-02  0.1280296E+00
         21   -1    0    0  501  502  0.00000000000E+00  0.00000000000E+00  0.18993106243E+03  0.18993106243E+03  0.00000000000E+00 0. -1.
         21   -1    0    0  502  503 -0.00000000000E+00 -0.00000000000E+00 -0.18698638042E+03  0.18698638042E+03  0.00000000000E+00 0.  1.
          6    1    1    2  501    0 -0.23488687085E+02 -0.28411074986E+02  0.66486741572E+02  0.18896664893E+03  0.17300000000E+03 0. -1.
         -6    1    1    2    0  503  0.23488687085E+02  0.28411074986E+02 -0.63542059563E+02  0.18795079392E+03  0.17300000000E+03 0.  1.
</event>
<event>
 4    1  0.5900714E+000  0.1000000E+03  0.7546771E-02  0.1280296E+00
         21   -1    0    0  501  502  0.00000000000E+00  0.00000000000E+00  0.24746077282E+03  0.24746077282E+03  0.00000000000E+00 0. -1.
         21   -1    0    0  502  503 -0.00000000000E+00 -0.00000000000E+00 -0.17101176873E+03  0.17101176873E+03  0.00000000000E+00 0.  1.
          6    1    1    2  501    0  0.43717014249E+02 -0.91124310132E+02  0.85658437658E+02  0.21790177873E+03  0.17300000000E+03 0. -1.
         -6    1    1    2    0  503 -0.43717014249E+02  0.91124310132E+02 -0.92094335690E+01  0.20057076282E+03  0.17300000000E+03 0.  1.
</event>
<event>
 4    1  0.5900714E+000  0.1000000E+03  0.7546771E-02  0.1280296E+00
         21   -1    0    0  501  502  0.00000000000E+00  0.00000000000E+00  0.27320387081E+04  0.27320387081E+04  0.00000000000E+00 0. -1.
         21   -1    0    0  502  503 -0.00000000000E+00 -0.00000000000E+00 -0.20316771247E+02  0.20316771247E+02  0.00000000000E+00 0.  1.
          6    1    1    2  501    0  0.11779929210E+03 -0.62989341272E+00  0.19876894580E+04  0.19986784262E+04  0.17300000000E+03 0. -1.
         -6    1    1    2    0  503 -0.11779929210E+03  0.62989341272E+00  0.72403247894E+03  0.75367705321E+03  0.17300000000E+03 0.  1.
</event>
<event>
 4    1  0.5900714E+000  0.1000000E+03  0.7546771E-02  0.1280296E+00
         21   -1    0    0  503  502  0.00000000000E+00  0.00000000000E+00  0.58502796880E+03  0.58502796880E+03  0.00000000000E+00 0.  1.
         21   -1    0    0  501  503 -0.00000000000E+00 -0.00000000000E+00 -0.65649034457E+02  0.65649034457E+02  0.00000000000E+00 0. -1.
          6    1    1    2  501    0  0.27109629133E+01 -0.29116845116E+02  0.11475278652E+03  0.20964813856E+03  0.17300000000E+03 0. -1.
         -6    1    1    2    0  502 -0.27109629133E+01  0.29116845116E+02  0.40462614782E+03  0.44102886469E+03  0.17300000000E+03 0.  1.
</event>
<event>
 4    1  0.5900714E+000  0.1000000E+03  0.7546771E-02  0.1280296E+00
         21   -1    0    0  503  502  0.00000000000E+00  0.00000000000E+00  0.34718467470E+03  0.34718467470E+03  0.00000000000E+00 0. -1.
         21   -1    0    0  501  503 -0.00000000000E+00 -0.00000000000E+00 -0.15012889527E+03  0.15012889527E+03  0.00000000000E+00 0. -1.
          6    1    1    2  501    0 -0.52089937699E+02 -0.13825499425E+03  0.11935450427E+03  0.25690913322E+03  0.17300000000E+03 0. -1.
         -6    1    1    2    0  502  0.52089937699E+02  0.13825499425E+03  0.77701275156E+02  0.24040443674E+03  0.17300000000E+03 0. -1.
</event>
<event>
 4    1  0.5900714E+000  0.1000000E+03  0.7546771E-02  0.1280296E+00
         21   -1    0    0  501  502  0.00000000000E+00  0.00000000000E+00  0.15949512090E+03  0.15949512090E+03  0.00000000000E+00 0.  1.
         21   -1    0    0  502  503 -0.00000000000E+00 -0.00000000000E+00 -0.52829769824E+03  0.52829769824E+03  0.00000000000E+00 0.  1.
          6    1    1    2  501    0 -0.58561835095E+02 -0.33502098851E+02  0.79926085238E+02  0.20216097116E+03  0.17300000000E+03 0.  1.
         -6    1    1    2    0  503  0.58561835095E+02  0.33502098851E+02 -0.44872866258E+03  0.48563184798E+03  0.17300000000E+03 0.  1.
</event>
<event>
 4    1  0.5900714E+000  0.1000000E+03  0.7546771E-02  0.1280296E+00
         21   -1    0    0  501  502  0.00000000000E+00  0.00000000000E+00  0.62761656256E+02  0.62761656256E+02  0.00000000000E+00 0.  1.
         21   -1    0    0  502  503 -0.00000000000E+00 -0.00000000000E+00 -0.50876961272E+03  0.50876961272E+03  0.00000000000E+00 0.  1.
          6    1    1    2  501    0  0.10924438069E+01 -0.34139999155E-01 -0.15146727761E+03  0.22994027656E+03  0.17300000000E+03 0.  1.
         -6    1    1    2    0  503 -0.10924438069E+01  0.34139999155E-01 -0.29454067886E+03  0.34159099242E+03  0.17300000000E+03 0.  1.
</event>
<event>
 4    1  0.5900714E+000  0.1000000E+03  0.7546771E-02  0.1280296E+00
         21   -1    0    0  501  502  0.00000000000E+00  0.00000000000E+00  0.12878243831E+03  0.12878243831E+03  0.00000000000E+00 0. -1.
         21   -1    0    0  502  503 -0.00000000000E+00 -0.00000000000E+00 -0.29040926939E+03  0.29040926939E+03  0.00000000000E+00 0. -1.
          6    1    1    2  501    0  0.51133071040E+02 -0.63295916158E+02 -0.49221997188E+02  0.19741521969E+03  0.17300000000E+03 0. -1.
         -6    1    1    2    0  503 -0.51133071040E+02  0.63295916158E+02 -0.11240483389E+03  0.22177648802E+03  0.17300000000E+03 0. -1.
</event>
<event>
 4    1  0.5900714E+000  0.1000000E+03  0.7546771E-02  0.1280296E+00
         21   -1    0    0  501  502  0.00000000000E+00  0.00000000000E+00  0.29809476188E+03  0.29809476188E+03  0.00000000000E+00 0. -1.
         21   -1    0    0  502  503 -0.00000000000E+00 -0.00000000000E+00 -0.38856535312E+03  0.38856535312E+03  0.00000000000E+00 0. -1.
          6    1    1    2  501    0 -0.10001297894E+03 -0.11018848489E+03  0.20948516025E+03  0.30976947965E+03  0.17300000000E+03 0. -1.
         -6    1    1    2    0  503  0.10001297894E+03  0.11018848489E+03 -0.29995575149E+03  0.37689063535E+03  0.17300000000E+03 0. -1.
</event>
<event>
 4    1  0.5900714E+000  0.1000000E+03  0.7546771E-02  0.1280296E+00
         21   -1    0    0  501  502  0.00000000000E+00  0.00000000000E+00  0.60990316970E+02  0.60990316970E+02  0.00000000000E+00 0. -1.
         21   -1    0    0  502  503 -0.00000000000E+00 -0.00000000000E+00 -0.67424446539E+03  0.67424446539E+03  0.00000000000E+00 0. -1.
          6    1    1    2  501    0 -0.21885693444E+02 -0.62922551620E+02 -0.15763111519E+03  0.24334091221E+03  0.17300000000E+03 0. -1.
         -6    1    1    2    0  503  0.21885693444E+02  0.62922551620E+02 -0.45562303323E+03  0.49189387015E+03  0.17300000000E+03 0. -1.
</event>
<event>
 4    1  0.5900714E+000  0.1000000E+03  0.7546771E-02  0.1280296E+00
         21   -1    0    0  501  502  0.00000000000E+00  0.00000000000E+00  0.61619697251E+03  0.61619697251E+03  0.00000000000E+00 0. -1.
         21   -1    0    0  502  503 -0.00000000000E+00 -0.00000000000E+00 -0.12121242311E+03  0.12121242311E+03  0.00000000000E+00 0. -1.
          6    1    1    2  501    0  0.72696786423E+01  0.18919508083E+03  0.37486724841E+03  0.45420488853E+03  0.17300000000E+03 0. -1.
         -6    1    1    2    0  503 -0.72696786423E+01 -0.18919508083E+03  0.12011730100E+03  0.28320450709E+03  0.17300000000E+03 0. -1.
</event>
<event>
 4    1  0.5900714E+000  0.1000000E+03  0.7546771E-02  0.1280296E+00
         21   -1    0    0  503  502  0.00000000000E+00  0.00000000000E+00  0.78799436850E+03  0.78799436850E+03  0.00000000000E+00 0.  1.
         21   -1    0    0  501  503 -0.00000000000E+00 -0.00000000000E+00 -0.13681892053E+03  0.13681892053E+03  0.00000000000E+00 0.  1.
          6    1    1    2  501    0 -0.11192161035E+03 -0.15495798612E+03  0.39234861311E+02  0.26078113173E+03  0.17300000000E+03 0.  1.
         -6    1    1    2    0  502  0.11192161035E+03  0.15495798612E+03  0.61194058665E+03  0.66403215729E+03  0.17300000000E+03 0.  1.
</event>
<event>
 4    1  0.5900714E+000  0.1000000E+03  0.7546771E-02  0.1280296E+00
         21   -1    0    0  501  502  0.00000000000E+00  0.00000000000E+00  0.20016584385E+04  0.20016584385E+04  0.00000000000E+00 0.  1.
         21   -1    0    0  502  503 -0.00000000000E+00 -0.00000000000E+00 -0.25047061231E+02  0.25047061231E+02  0.00000000000E+00 0. -1.
          6    1    1    2  501    0 -0.46111282709E+02  0.44639453948E+02  0.15623357854E+04  0.15731945326E+04  0.17300000000E+03 0. -1.
         -6    1    1    2    0  503  0.46111282709E+02 -0.44639453948E+02  0.41427559193E+03  0.45351096713E+03  0.17300000000E+03 0.  1.
</event>
<event>
 4    1  0.5900714E+000  0.1000000E+03  0.7546771E-02  0.1280296E+00
         21   -1    0    0  501  502  0.00000000000E+00  0.00000000000E+00  0.29815237009E+03  0.29815237009E+03  0.00000000000E+00 0.  1.
         21   -1    0    0  502  503 -0.00000000000E+00 -0.00000000000E+00 -0.21325097312E+03  0.21325097312E+03  0.00000000000E+00 0. -1.
          6    1    1    2  501    0 -0.14384556211E+03 -0.71925526594E+02 -0.47037697712E+02  0.24084512061E+03  0.17300000000E+03 0. -1.
         -6    1    1    2    0  503  0.14384556211E+03  0.71925526594E+02  0.13193909468E+03  0.27055822261E+03  0.17300000000E+03 0.  1.
</event>
<event>
 4    1  0.5900714E+000  0.1000000E+03  0.7546771E-02  0.1280296E+00
         21   -1    0    0  501  502  0.00000000000E+00  0.00000000000E+00  0.26195584389E+03  0.26195584389E+03  0.00000000000E+00 0.  1.
         21   -1    0    0  502  503 -0.00000000000E+00 -0.00000000000E+00 -0.76589569645E+03  0.76589569645E+03  0.00000000000E+00 0. -1.
          6    1    1    2  501    0  0.23064791309E+03 -0.11907232117E+03  0.11684170748E+03  0.33310308027E+03  0.17300000000E+03 0. -1.
         -6    1    1    2    0  503 -0.23064791309E+03  0.11907232117E+03 -0.62078156004E+03  0.69474846006E+03  0.17300000000E+03 0.  1.
</event>
<event>
 4    1  0.5900714E+000  0.1000000E+03  0.7546771E-02  0.1280296E+00
         21   -1    0    0  503  502  0.00000000000E+00  0.00000000000E+00  0.32838493605E+03  0.32838493605E+03  0.00000000000E+00 0. -1.
         21   -1    0    0  501  503 -0.00000000000E+00 -0.00000000000E+00 -0.10858991026E+04  0.10858991026E+04  0.00000000000E+00 0. -1.
          6    1    1    2  501    0 -0.16102792932E+03 -0.47479168470E+03 -0.70372261784E+03  0.88119899043E+03  0.17300000000E+03 0. -1.
         -6    1    1    2    0  502  0.16102792932E+03  0.47479168470E+03 -0.53791548656E+02  0.53308504817E+03  0.17300000000E+03 0. -1.
</event>
<event>
 4    1  0.5900714E+000  0.1000000E+03  0.7546771E-02  0.1280296E+00
         21   -1    0    0  503  502  0.00000000000E+00  0.00000000000E+00  0.23323318133E+03  0.23323318133E+03  0.00000000000E+00 0. -1.
         21   -1    0    0  501  503 -0.00000000000E+00 -0.00000000000E+00 -0.27805993015E+03  0.27805993015E+03  0.00000000000E+00 0. -1.
          6    1    1    2  501    0 -0.15558757382E+03  0.10054820948E+03 -0.47133074213E+02  0.25781381313E+03  0.17300000000E+03 0. -1.
         -6    1    1    2    0  502  0.15558757382E+03 -0.10054820948E+03  0.23063254025E+01  0.25347929835E+03  0.17300000000E+03 0. -1.
</event>
<event>
 4    1  0.5900714E+000  0.1000000E+03  0.7546771E-02  0.1280296E+00
         21   -1    0    0  503  502  0.00000000000E+00  0.00000000000E+00  0.56499399923E+02  0.56499399923E+02  0.00000000000E+00 0. -1.
         21   -1    0    0  501  503 -0.00000000000E+00 -0.00000000000E+00 -0.80066240491E+03  0.80066240491E+03  0.00000000000E+00 0. -1.
          6    1    1    2  501    0  0.85916934165E+02  0.28865605818E+01 -0.55138592851E+03  0.58424780185E+03  0.17300000000E+03 0. -1.
         -6    1    1    2    0  502 -0.85916934165E+02 -0.28865605818E+01 -0.19277707647E+03  0.27291400298E+03  0.17300000000E+03 0. -1.
</event>
<event>
 4    1  0.5900714E+000  0.1000000E+03  0.7546771E-02  0.1280296E+00
         21   -1    0    0  501  502  0.00000000000E+00  0.00000000000E+00  0.20503143939E+03  0.20503143939E+03  0.00000000000E+00 0. -1.
         21   -1    0    0  502  503 -0.00000000000E+00 -0.00000000000E+00 -0.37404017924E+03  0.37404017924E+03  0.00000000000E+00 0.  1.
          6    1    1    2  501    0 -0.89989595802E+01  0.21563063504E+03 -0.98665080047E+02  0.29366877611E+03  0.17300000000E+03 0. -1.
         -6    1    1    2    0  503  0.89989595802E+01 -0.21563063504E+03 -0.70343659806E+02  0.28540284252E+03  0.17300000000E+03 0.  1.
</event>
<event>
 4    1  0.5900714E+000  0.1000000E+03  0.7546771E-02  0.1280296E+00
         21   -1    0    0  501  502  0.00000000000E+00  0.00000000000E+00  0.61432052360E+02  0.61432052360E+02  0.00000000000E+00 0. -1.
         21   -1    0    0  502  503 -0.00000000000E+00 -0.00000000000E+00 -0.56412321756E+03  0.56412321756E+03  0.00000000000E+00 0.  1.
          6    1    1    2  501    0  0.78605001745E+01  0.59091549386E+02 -0.19381018834E+03  0.26654265658E+03  0.17300000000E+03 0. -1.
         -6    1    1    2    0  503 -0.78605001745E+01 -0.59091549386E+02 -0.30888097686E+03  0.35901261334E+03  0.17300000000E+03 0.  1.
</event>
<event>
 4    1  0.5900714E+000  0.1000000E+03  0.7546771E-02  0.1280296E+00
         21   -1    0    0  501  502  0.00000000000E+00  0.00000000000E+00  0.11416703318E+03  0.11416703318E+03  0.00000000000E+00 0. -1.
         21   -1    0    0  502  503 -0.00000000000E+00 -0.00000000000E+00 -0.59103170902E+03  0.59103170902E+03  0.00000000000E+00 0.  1.
          6    1    1    2  501    0 -0.17088422398E+01 -0.19376370322E+03 -0.23814792279E+03  0.35240704584E+03  0.17300000000E+03 0. -1.
         -6    1    1    2    0  503  0.17088422398E+01  0.19376370322E+03 -0.23871675305E+03  0.35279169635E+03  0.17300000000E+03 0.  1.
</event>
<event>
 4    1  0.5900714E+000  0.1000000E+03  0.7546771E-02  0.1280296E+00
         21   -1    0    0  501  502  0.00000000000E+00  0.00000000000E+00  0.11618566041E+03  0.11618566041E+03  0.00000000000E+00 0. -1.
         21   -1    0    0  502  503 -0.00000000000E+00 -0.00000000000E+00 -0.41105661988E+03  0.41105661988E+03  0.00000000000E+00 0.  1.
          6    1    1    2  501    0  0.10583754515E+03 -0.24425254232E+02 -0.53749797905E+02  0.21122551878E+03  0.17300000000E+03 0. -1.
         -6    1    1    2    0  503 -0.10583754515E+03  0.24425254232E+02 -0.24112116156E+03  0.31601676151E+03  0.17300000000E+03 0.  1.
</event>
<event>
 4    1  0.5900714E+000  0.1000000E+03  0.7546771E-02  0.1280296E+00
         21   -1    0    0  501  502  0.00000000000E+00  0.00000000000E+00  0.13971427745E+03  0.13971427745E+03  0.00000000000E+00 0.  1.
         21   -1    0    0  502  503 -0.00000000000E+00 -0.00000000000E+00 -0.11472961446E+04  0.11472961446E+04  0.00000000000E+00 0. -1.
          6    1    1    2  501    0 -0.84838839345E+02  0.20991461309E+02  0.59279692226E+02  0.20268535226E+03  0.17300000000E+03 0.  1.
         -6    1    1    2    0  503  0.84838839345E+02 -0.20991461309E+02 -0.10668615594E+04  0.10843250698E+04  0.17300000000E+03 0. -1.
</event>
<event>
 4    1  0.5900714E+000  0.1000000E+03  0.7546771E-02  0.1280296E+00
         21   -1    0    0  501  502  0.00000000000E+00  0.00000000000E+00  0.14997985677E+04  0.14997985677E+04  0.00000000000E+00 0.  1.
         21   -1    0    0  502  503 -0.00000000000E+00 -0.00000000000E+00 -0.18944410536E+03  0.18944410536E+03  0.00000000000E+00 0. -1.
          6    1    1    2  501    0  0.78856941496E+02  0.60022896418E+02  0.14384913184E+04  0.14522422107E+04  0.17300000000E+03 0.  1.
         -6    1    1    2    0  503 -0.78856941496E+02 -0.60022896418E+02 -0.12813685603E+03  0.23700046243E+03  0.17300000000E+03 0. -1.
</event>
<event>
 4    1  0.5900714E+000  0.1000000E+03  0.7546771E-02  0.1280296E+00
         21   -1    0    0  501  502  0.00000000000E+00  0.00000000000E+00  0.49520661053E+03  0.49520661053E+03  0.00000000000E+00 0.  1.
         21   -1    0    0  502  503 -0.00000000000E+00 -0.00000000000E+00 -0.34801954797E+03  0.34801954797E+03  0.00000000000E+00 0.  1.
          6    1    1    2  501    0  0.99840999749E+02  0.21291026437E+03  0.37334543989E+03  0.47393546332E+03  0.17300000000E+03 0.  1.
         -6    1    1    2    0  503 -0.99840999749E+02 -0.21291026437E+03 -0.22615837734E+03  0.36929069518E+03  0.17300000000E+03 0.  1.
</event>
<event>
 4    1  0.5900714E+000  0.1000000E+03  0.7546771E-02  0.1280296E+00
         21   -1    0    0  501  502  0.00000000000E+00  0.00000000000E+00  0.13811358268E+04  0.13811358268E+04  0.00000000000E+00 0.  1.
         21   -1    0    0  502  503 -0.00000000000E+00 -0.00000000000E+00 -0.34856802371E+02  0.34856802371E+02  0.00000000000E+00 0.  1.
          6    1    1    2  501    0 -0.11836766866E+03 -0.46766135467E+02  0.81798560563E+03  0.84571119623E+03  0.17300000000E+03 0.  1.
         -6    1    1    2    0  503  0.11836766866E+03  0.46766135467E+02  0.52829341877E+03  0.57028143292E+03  0.17300000000E+03 0.  1.
</event>
<event>
 4    1  0.5900714E+000  0.1000000E+03  0.7546771E-02  0.1280296E+00
         21   -1    0    0  501  502  0.00000000000E+00  0.00000000000E+00  0.14330703353E+03  0.14330703353E+03  0.00000000000E+00 0.  1.
         21   -1    0    0  502  503 -0.00000000000E+00 -0.00000000000E+00 -0.39856427863E+03  0.39856427863E+03  0.00000000000E+00 0.  1.
          6    1    1    2  501    0  0.12455360139E+03 -0.10535538885E+03 -0.15480592928E+03  0.28373796595E+03  0.17300000000E+03 0.  1.
         -6    1    1    2    0  503 -0.12455360139E+03  0.10535538885E+03 -0.10045131582E+03  0.25813334622E+03  0.17300000000E+03 0.  1.
</event>
<event>
 4    1  0.5900714E+000  0.1000000E+03  0.7546771E-02  0.1280296E+00
         21   -1    0    0  501  502  0.00000000000E+00  0.00000000000E+00  0.22050061652E+03  0.22050061652E+03  0.00000000000E+00 0.  1.
         21   -1    0    0  502  503 -0.00000000000E+00 -0.00000000000E+00 -0.15457027741E+03  0.15457027741E+03  0.00000000000E+00 0.  1.
          6    1    1    2  501    0 -0.36028982743E+02 -0.49829590571E+02  0.52577693355E+02  0.19098295613E+03  0.17300000000E+03 0.  1.
         -6    1    1    2    0  503  0.36028982743E+02  0.49829590571E+02  0.13352645751E+02  0.18408793780E+03  0.17300000000E+03 0.  1.
</event>
<event>
 4    1  0.5900714E+000  0.1000000E+03  0.7546771E-02  0.1280296E+00
         21   -1    0    0  503  502  0.00000000000E+00  0.00000000000E+00  0.67408423281E+03  0.67408423281E+03  0.00000000000E+00 0.  1.
         21   -1    0    0  501  503 -0.00000000000E+00 -0.00000000000E+00 -0.11153520679E+03  0.11153520679E+03  0.00000000000E+00 0.  1.
          6    1    1    2  501    0 -0.85670513993E+02  0.95780257105E+01  0.26607371746E+01  0.19330611751E+03  0.17300000000E+03 0.  1.
         -6    1    1    2    0  502  0.85670513993E+02 -0.95780257105E+01  0.55988828884E+03  0.59231332209E+03  0.17300000000E+03 0.  1.
</event>
<event>
 4    1  0.5900714E+000  0.1000000E+03  0.7546771E-02  0.1280296E+00
         21   -1    0    0  503  502  0.00000000000E+00  0.00000000000E+00  0.23909419197E+03  0.23909419197E+03  0.00000000000E+00 0.  1.
         21   -1    0    0  501  503 -0.00000000000E+00 -0.00000000000E+00 -0.22426066433E+03  0.22426066433E+03  0.00000000000E+00 0.  1.
          6    1    1    2  501    0  0.42905580045E+02  0.96038212048E+02 -0.10500720435E+03  0.22807836359E+03  0.17300000000E+03 0.  1.
         -6    1    1    2    0  502 -0.42905580045E+02 -0.96038212048E+02  0.11984073199E+03  0.23527649270E+03  0.17300000000E+03 0.  1.
</event>
<event>
 4    1  0.5900714E+000  0.1000000E+03  0.7546771E-02  0.1280296E+00
         21   -1    0    0  501  502  0.00000000000E+00  0.00000000000E+00  0.40064832160E+02  0.40064832160E+02  0.00000000000E+00 0. -1.
         21   -1    0    0  502  503 -0.00000000000E+00 -0.00000000000E+00 -0.18922076898E+04  0.18922076898E+04  0.00000000000E+00 0. -1.
          6    1    1    2  501    0  0.43067567452E+02  0.20820204511E+03 -0.83463238343E+03  0.87848911344E+03  0.17300000000E+03 0. -1.
         -6    1    1    2    0  503 -0.43067567452E+02 -0.20820204511E+03 -0.10175104742E+04  0.10537834085E+04  0.17300000000E+03 0. -1.
</event>
<event>
 4    1  0.5900714E+000  0.1000000E+03  0.7546771E-02  0.1280296E+00
         21   -1    0    0  501  502  0.00000000000E+00  0.00000000000E+00  0.29274438957E+03  0.29274438957E+03  0.00000000000E+00 0. -1.
         21   -1    0    0  502  503 -0.00000000000E+00 -0.00000000000E+00 -0.39128693099E+03  0.39128693099E+03  0.00000000000E+00 0. -1.
          6    1    1    2  501    0  0.17739631632E+03 -0.72660790350E+02  0.17182491712E+03  0.31016422366E+03  0.17300000000E+03 0. -1.
         -6    1    1    2    0  503 -0.17739631632E+03  0.72660790350E+02 -0.27036745855E+03  0.37386709689E+03  0.17300000000E+03 0. -1.
</event>
<event>
 4    1  0.5900714E+000  0.1000000E+03  0.7546771E-02  0.1280296E+00
         21   -1    0    0  501  502  0.00000000000E+00  0.00000000000E+00  0.24536698269E+03  0.24536698269E+03  0.00000000000E+00 0. -1.
         21   -1    0    0  502  503 -0.00000000000E+00 -0.00000000000E+00 -0.44502684090E+03  0.44502684090E+03  0.00000000000E+00 0. -1.
          6    1    1    2  501    0 -0.69557372993E+02 -0.17769258087E+03  0.11642021862E+03  0.28265800667E+03  0.17300000000E+03 0. -1.
         -6    1    1    2    0  503  0.69557372993E+02  0.17769258087E+03 -0.31608007682E+03  0.40773581692E+03  0.17300000000E+03 0. -1.
</event>
<event>
 4    1  0.5900714E+000  0.1000000E+03  0.7546771E-02  0.1280296E+00
         21   -1    0    0  503  502  0.00000000000E+00  0.00000000000E+00  0.13754068198E+03  0.13754068198E+03  0.00000000000E+00 0.  1.
         21   -1    0    0  501  503 -0.00000000000E+00 -0.00000000000E+00 -0.27198393534E+03  0.27198393534E+03  0.00000000000E+00 0.  1.
          6    1    1    2  501    0  0.50906745270E+02 -0.47217365230E+02 -0.12631745991E+02  0.18684094118E+03  0.17300000000E+03 0.  1.
         -6    1    1    2    0  502 -0.50906745270E+02  0.47217365230E+02 -0.12181150737E+03  0.22268367614E+03  0.17300000000E+03 0.  1.
</event>
<event>
 4    1  0.5900714E+000  0.1000000E+03  0.7546771E-02  0.1280296E+00
         21   -1    0    0  501  502  0.00000000000E+00  0.00000000000E+00  0.61102305046E+02  0.61102305046E+02  0.00000000000E+00 0. -1.
         21   -1    0    0  502  503 -0.00000000000E+00 -0.00000000000E+00 -0.13552794658E+04  0.13552794658E+04  0.00000000000E+00 0. -1.
          6    1    1    2  501    0  0.19631807779E+03 -0.28895869663E+02 -0.36108628336E+03  0.44686470322E+03  0.17300000000E+03 0. -1.
         -6    1    1    2    0  503 -0.19631807779E+03  0.28895869663E+02 -0.93309087738E+03  0.96951706762E+03  0.17300000000E+03 0. -1.
</event>
<event>
 4    1  0.5900714E+000  0.1000000E+03  0.7546771E-02  0.1280296E+00
         21   -1    0    0  501  502  0.00000000000E+00  0.00000000000E+00  0.18563600500E+03  0.18563600500E+03  0.00000000000E+00 0. -1.
         21   -1    0    0  502  503 -0.00000000000E+00 -0.00000000000E+00 -0.19896410865E+03  0.19896410865E+03  0.00000000000E+00 0. -1.
          6    1    1    2  501    0  0.37614677492E+02 -0.73525037764E+02 -0.20277636824E+02  0.19277182807E+03  0.17300000000E+03 0. -1.
         -6    1    1    2    0  503 -0.37614677492E+02  0.73525037764E+02  0.69495331777E+01  0.19182828559E+03  0.17300000000E+03 0. -1.
</event>
<event>
 4    1  0.5900714E+000  0.1000000E+03  0.7546771E-02  0.1280296E+00
         21   -1    0    0  501  502  0.00000000000E+00  0.00000000000E+00  0.54475262852E+02  0.54475262852E+02  0.00000000000E+00 0. -1.
         21   -1    0    0  502  503 -0.00000000000E+00 -0.00000000000E+00 -0.57682683288E+03  0.57682683288E+03  0.00000000000E+00 0. -1.
          6    1    1    2  501    0 -0.30139289316E+02 -0.10550309285E+01 -0.21813263158E+03  0.28003630981E+03  0.17300000000E+03 0. -1.
         -6    1    1    2    0  503  0.30139289316E+02  0.10550309285E+01 -0.30421893845E+03  0.35126578592E+03  0.17300000000E+03 0. -1.
</event>
<event>
 4    1  0.5900714E+000  0.1000000E+03  0.7546771E-02  0.1280296E+00
         21   -1    0    0  501  502  0.00000000000E+00  0.00000000000E+00  0.70436528175E+02  0.70436528175E+02  0.00000000000E+00 0. -1.
         21   -1    0    0  502  503 -0.00000000000E+00 -0.00000000000E+00 -0.55079497176E+03  0.55079497176E+03  0.00000000000E+00 0. -1.
          6    1    1    2  501    0 -0.51089278967E+02 -0.50024355724E+02 -0.14355019734E+03  0.23589872773E+03  0.17300000000E+03 0. -1.
         -6    1    1    2    0  503  0.51089278967E+02  0.50024355724E+02 -0.33680824625E+03  0.38533277220E+03  0.17300000000E+03 0. -1.
</event>
<event>
 4    1  0.5900714E+000  0.1000000E+03  0.7546771E-02  0.1280296E+00
         21   -1    0    0  501  502  0.00000000000E+00  0.00000000000E+00  0.16895385878E+03  0.16895385878E+03  0.00000000000E+00 0. -1.
         21   -1    0    0  502  503 -0.00000000000E+00 -0.00000000000E+00 -0.33325885323E+03  0.33325885323E+03  0.00000000000E+00 0. -1.
          6    1    1    2  501    0  0.16878965373E+01 -0.61003794593E+02  0.77118473096E+02  0.19899892171E+03  0.17300000000E+03 0. -1.
         -6    1    1    2    0  503 -0.16878965373E+01  0.61003794593E+02 -0.24142346754E+03  0.30321379030E+03  0.17300000000E+03 0. -1.
</event>
<event>
 4    1  0.5900714E+000  0.1000000E+03  0.7546771E-02  0.1280296E+00
         21   -1    0    0  501  502  0.00000000000E+00  0.00000000000E+00  0.93157287075E+02  0.93157287075E+02  0.00000000000E+00 0. -1.
         21   -1    0    0  502  503 -0.00000000000E+00 -0.00000000000E+00 -0.91219336550E+03  0.91219336550E+03  0.00000000000E+00 0. -1.
          6    1    1    2  501    0 -0.85468090868E+02 -0.16082301594E+03 -0.66458582199E+03  0.71047318866E+03  0.17300000000E+03 0. -1.
         -6    1    1    2    0  503  0.85468090868E+02  0.16082301594E+03 -0.15445025643E+03  0.29487746392E+03  0.17300000000E+03 0. -1.
</event>
<event>
 4    1  0.5900714E+000  0.1000000E+03  0.7546771E-02  0.1280296E+00
         21   -1    0    0  501  502  0.00000000000E+00  0.00000000000E+00  0.87339611371E+03  0.87339611371E+03  0.00000000000E+00 0. -1.
         21   -1    0    0  502  503 -0.00000000000E+00 -0.00000000000E+00 -0.10170230434E+03  0.10170230434E+03  0.00000000000E+00 0. -1.
          6    1    1    2  501    0  0.51523271271E+01  0.10257914966E+03  0.74554517202E+03  0.77221475766E+03  0.17300000000E+03 0. -1.
         -6    1    1    2    0  503 -0.51523271271E+01 -0.10257914966E+03  0.26148637338E+02  0.20288366039E+03  0.17300000000E+03 0. -1.
</event>
<event>
 4    1  0.5900714E+000  0.1000000E+03  0.7546771E-02  0.1280296E+00
         21   -1    0    0  501  502  0.00000000000E+00  0.00000000000E+00  0.55608869385E+03  0.55608869385E+03  0.00000000000E+00 0. -1.
         21   -1    0    0  502  503 -0.00000000000E+00 -0.00000000000E+00 -0.20474357569E+03  0.20474357569E+03  0.00000000000E+00 0. -1.
          6    1    1    2  501    0 -0.14295202676E+03  0.31775019240E+02  0.45748360522E+03  0.51055380015E+03  0.17300000000E+03 0. -1.
         -6    1    1    2    0  503  0.14295202676E+03 -0.31775019240E+02 -0.10613848707E+03  0.25027846939E+03  0.17300000000E+03 0. -1.
</event>
<event>
 4    1  0.5900714E+000  0.1000000E+03  0.7546771E-02  0.1280296E+00
         21   -1    0    0  501  502  0.00000000000E+00  0.00000000000E+00  0.16368516310E+03  0.16368516310E+03  0.00000000000E+00 0. -1.
         21   -1    0    0  502  503 -0.00000000000E+00 -0.00000000000E+00 -0.52710689967E+03  0.52710689967E+03  0.00000000000E+00 0. -1.
          6    1    1    2  501    0  0.18763332495E+01 -0.19463058021E+03 -0.21920831323E+02  0.26133141072E+03  0.17300000000E+03 0. -1.
         -6    1    1    2    0  503 -0.18763332495E+01  0.19463058021E+03 -0.34150090525E+03  0.42946065206E+03  0.17300000000E+03 0. -1.
</event>
<event>
 4    1  0.5900714E+000  0.1000000E+03  0.7546771E-02  0.1280296E+00
         21   -1    0    0  501  502  0.00000000000E+00  0.00000000000E+00  0.36571575505E+03  0.36571575505E+03  0.00000000000E+00 0. -1.
         21   -1    0    0  502  503 -0.00000000000E+00 -0.00000000000E+00 -0.26927488312E+03  0.26927488312E+03  0.00000000000E+00 0. -1.
          6    1    1    2  501    0 -0.37117609618E+02  0.59673959281E+02  0.30339155932E+03  0.35625010404E+03  0.17300000000E+03 0. -1.
         -6    1    1    2    0  503  0.37117609618E+02 -0.59673959281E+02 -0.20695068739E+03  0.27874053414E+03  0.17300000000E+03 0. -1.
</event>
<event>
 4    1  0.5900714E+000  0.1000000E+03  0.7546771E-02  0.1280296E+00
         21   -1    0    0  501  502  0.00000000000E+00  0.00000000000E+00  0.15545942625E+03  0.15545942625E+03  0.00000000000E+00 0. -1.
         21   -1    0    0  502  503 -0.00000000000E+00 -0.00000000000E+00 -0.28472418227E+03  0.28472418227E+03  0.00000000000E+00 0. -1.
          6    1    1    2  501    0  0.64478527316E+02  0.73111860179E+02  0.80806405707E+01  0.19873882695E+03  0.17300000000E+03 0. -1.
         -6    1    1    2    0  503 -0.64478527316E+02 -0.73111860179E+02 -0.13734539660E+03  0.24144478158E+03  0.17300000000E+03 0. -1.
</event>
<event>
 4    1  0.5900714E+000  0.1000000E+03  0.7546771E-02  0.1280296E+00
         21   -1    0    0  501  502  0.00000000000E+00  0.00000000000E+00  0.64914940036E+02  0.64914940036E+02  0.00000000000E+00 0. -1.
         21   -1    0    0  502  503 -0.00000000000E+00 -0.00000000000E+00 -0.97675267114E+03  0.97675267114E+03  0.00000000000E+00 0. -1.
          6    1    1    2  501    0 -0.11225794689E+03 -0.23720557410E+02 -0.16112774454E+03  0.26278443931E+03  0.17300000000E+03 0. -1.
         -6    1    1    2    0  503  0.11225794689E+03  0.23720557410E+02 -0.75070998657E+03  0.77888317187E+03  0.17300000000E+03 0. -1.
</event>
<event>
 4    1  0.5900714E+000  0.1000000E+03  0.7546771E-02  0.1280296E+00
         21   -1    0    0  501  502  0.00000000000E+00  0.00000000000E+00  0.37121703852E+03  0.37121703852E+03  0.00000000000E+00 0. -1.
         21   -1    0    0  502  503 -0.00000000000E+00 -0.00000000000E+00 -0.15729567792E+03  0.15729567792E+03  0.00000000000E+00 0. -1.
          6    1    1    2  501    0  0.93571846035E+02  0.87328040816E+02  0.22715552031E+03  0.31290654754E+03  0.17300000000E+03 0. -1.
         -6    1    1    2    0  503 -0.93571846035E+02 -0.87328040816E+02 -0.13234159712E+02  0.21560616890E+03  0.17300000000E+03 0. -1.
</event>
<event>
 4    1  0.5900714E+000  0.1000000E+03  0.7546771E-02  0.1280296E+00
         21   -1    0    0  501  502  0.00000000000E+00  0.00000000000E+00  0.71126743032E+03  0.71126743032E+03  0.00000000000E+00 0. -1.
         21   -1    0    0  502  503 -0.00000000000E+00 -0.00000000000E+00 -0.55721719791E+02  0.55721719791E+02  0.00000000000E+00 0. -1.
          6    1    1    2  501    0  0.81457013414E+02  0.51591942673E+02  0.28890724260E+03  0.35027613166E+03  0.17300000000E+03 0. -1.
         -6    1    1    2    0  503 -0.81457013414E+02 -0.51591942673E+02  0.36663846792E+03  0.41671301845E+03  0.17300000000E+03 0. -1.
</event>
<event>
 4    1  0.5900714E+000  0.1000000E+03  0.7546771E-02  0.1280296E+00
         21   -1    0    0  501  502  0.00000000000E+00  0.00000000000E+00  0.59454296310E+03  0.59454296310E+03  0.00000000000E+00 0. -1.
         21   -1    0    0  502  503 -0.00000000000E+00 -0.00000000000E+00 -0.94899043612E+02  0.94899043612E+02  0.00000000000E+00 0. -1.
          6    1    1    2  501    0 -0.13071264834E+03 -0.67931478958E+02  0.35028517388E+03  0.41752746654E+03  0.17300000000E+03 0. -1.
         -6    1    1    2    0  503  0.13071264834E+03  0.67931478958E+02  0.14935874561E+03  0.27191454018E+03  0.17300000000E+03 0. -1.
</event>
<event>
 4    1  0.5900714E+000  0.1000000E+03  0.7546771E-02  0.1280296E+00
         21   -1    0    0  501  502  0.00000000000E+00  0.00000000000E+00  0.21262559330E+03  0.21262559330E+03  0.00000000000E+00 0.  1.
         21   -1    0    0  502  503 -0.00000000000E+00 -0.00000000000E+00 -0.18921131775E+03  0.18921131775E+03  0.00000000000E+00 0.  1.
          6    1    1    2  501    0  0.41471219975E+02  0.80486904611E+02  0.57656382993E+02  0.20359583100E+03  0.17300000000E+03 0.  1.
         -6    1    1    2    0  503 -0.41471219975E+02 -0.80486904611E+02 -0.34242107439E+02  0.19824108006E+03  0.17300000000E+03 0.  1.
</event>
<event>
 4    1  0.5900714E+000  0.1000000E+03  0.7546771E-02  0.1280296E+00
         21   -1    0    0  501  502  0.00000000000E+00  0.00000000000E+00  0.89090992545E+03  0.89090992545E+03  0.00000000000E+00 0.  1.
         21   -1    0    0  502  503 -0.00000000000E+00 -0.00000000000E+00 -0.13133379630E+03  0.13133379630E+03  0.00000000000E+00 0.  1.
          6    1    1    2  501    0  0.49679370530E+02 -0.12869953897E+03  0.76956893222E+03  0.80074774594E+03  0.17300000000E+03 0.  1.
         -6    1    1    2    0  503 -0.49679370530E+02  0.12869953897E+03 -0.99928030701E+01  0.22149597581E+03  0.17300000000E+03 0.  1.
</event>
<event>
 4    1  0.5900714E+000  0.1000000E+03  0.7546771E-02  0.1280296E+00
         21   -1    0    0  501  502  0.00000000000E+00  0.00000000000E+00  0.23305691077E+04  0.23305691077E+04  0.00000000000E+00 0. -1.
         21   -1    0    0  502  503 -0.00000000000E+00 -0.00000000000E+00 -0.23059115666E+02  0.23059115666E+02  0.00000000000E+00 0.  1.
          6    1    1    2  501    0  0.58712565533E+02 -0.11117811507E+02  0.18759799925E+04  0.18848874511E+04  0.17300000000E+03 0. -1.
         -6    1    1    2    0  503 -0.58712565533E+02  0.11117811507E+02  0.43152999960E+03  0.46874077232E+03  0.17300000000E+03 0.  1.
</event>
<event>
 4    1  0.5900714E+000  0.1000000E+03  0.7546771E-02  0.1280296E+00
         21   -1    0    0  501  502  0.00000000000E+00  0.00000000000E+00  0.23225901106E+04  0.23225901106E+04  0.00000000000E+00 0. -1.
         21   -1    0    0  502  503 -0.00000000000E+00 -0.00000000000E+00 -0.33583640053E+02  0.33583640053E+02  0.00000000000E+00 0.  1.
          6    1    1    2  501    0  0.11490994833E+03  0.88343231816E+02  0.18384350216E+04  0.18522367968E+04  0.17300000000E+03 0. -1.
         -6    1    1    2    0  503 -0.11490994833E+03 -0.88343231816E+02  0.45057144893E+03  0.50393695381E+03  0.17300000000E+03 0.  1.
</event>
<event>
 4    1  0.5900714E+000  0.1000000E+03  0.7546771E-02  0.1280296E+00
         21   -1    0    0  501  502  0.00000000000E+00  0.00000000000E+00  0.91477781788E+02  0.91477781788E+02  0.00000000000E+00 0.  1.
         21   -1    0    0  502  503 -0.00000000000E+00 -0.00000000000E+00 -0.36535308712E+03  0.36535308712E+03  0.00000000000E+00 0.  1.
          6    1    1    2  501    0  0.29553515314E+02  0.49406955839E+02 -0.15361798132E+03  0.23841548133E+03  0.17300000000E+03 0.  1.
         -6    1    1    2    0  503 -0.29553515314E+02 -0.49406955839E+02 -0.12025732401E+03  0.21841538758E+03  0.17300000000E+03 0.  1.
</event>
<event>
 4    1  0.5900714E+000  0.1000000E+03  0.7546771E-02  0.1280296E+00
         21   -1    0    0  503  502  0.00000000000E+00  0.00000000000E+00  0.43381494806E+02  0.43381494806E+02  0.00000000000E+00 0. -1.
         21   -1    0    0  501  503 -0.00000000000E+00 -0.00000000000E+00 -0.10090050682E+04  0.10090050682E+04  0.00000000000E+00 0. -1.
          6    1    1    2  501    0 -0.10380779404E+03  0.44543086121E+02 -0.56557956512E+03  0.60213735070E+03  0.17300000000E+03 0. -1.
         -6    1    1    2    0  502  0.10380779404E+03 -0.44543086121E+02 -0.40004400824E+03  0.45024921228E+03  0.17300000000E+03 0. -1.
</event>
<event>
 4    1  0.5900714E+000  0.1000000E+03  0.7546771E-02  0.1280296E+00
         21   -1    0    0  503  502  0.00000000000E+00  0.00000000000E+00  0.16303361444E+03  0.16303361444E+03  0.00000000000E+00 0. -1.
         21   -1    0    0  501  503 -0.00000000000E+00 -0.00000000000E+00 -0.40404701689E+03  0.40404701689E+03  0.00000000000E+00 0. -1.
          6    1    1    2  501    0 -0.14653388132E+03 -0.11784624273E+03 -0.93801892056E+02  0.27219057709E+03  0.17300000000E+03 0. -1.
         -6    1    1    2    0  502  0.14653388132E+03  0.11784624273E+03 -0.14721151039E+03  0.29489005424E+03  0.17300000000E+03 0. -1.
</event>
<event>
 4    1  0.5900714E+000  0.1000000E+03  0.7546771E-02  0.1280296E+00
         21   -1    0    0  501  502  0.00000000000E+00  0.00000000000E+00  0.14611270711E+03  0.14611270711E+03  0.00000000000E+00 0. -1.
         21   -1    0    0  502  503 -0.00000000000E+00 -0.00000000000E+00 -0.42430983124E+03  0.42430983124E+03  0.00000000000E+00 0. -1.
          6    1    1    2  501    0  0.62369330907E+02 -0.53592831159E+02  0.43119875401E+02  0.19634268167E+03  0.17300000000E+03 0. -1.
         -6    1    1    2    0  503 -0.62369330907E+02  0.53592831159E+02 -0.32131699954E+03  0.37407985669E+03  0.17300000000E+03 0. -1.
</event>
<event>
 4    1  0.5900714E+000  0.1000000E+03  0.7546771E-02  0.1280296E+00
         21   -1    0    0  503  502  0.00000000000E+00  0.00000000000E+00  0.10015947820E+03  0.10015947820E+03  0.00000000000E+00 0. -1.
         21   -1    0    0  501  503 -0.00000000000E+00 -0.00000000000E+00 -0.46188159419E+03  0.46188159419E+03  0.00000000000E+00 0. -1.
          6    1    1    2  501    0 -0.12115768823E+02  0.66142388096E+02 -0.32285634756E+03  0.37240680515E+03  0.17300000000E+03 0. -1.
         -6    1    1    2    0  502  0.12115768823E+02 -0.66142388096E+02 -0.38865768422E+02  0.18963426724E+03  0.17300000000E+03 0. -1.
</event>
<event>
 4    1  0.5900714E+000  0.1000000E+03  0.7546771E-02  0.1280296E+00
         21   -1    0    0  503  502  0.00000000000E+00  0.00000000000E+00  0.14042104424E+03  0.14042104424E+03  0.00000000000E+00 0. -1.
         21   -1    0    0  501  503 -0.00000000000E+00 -0.00000000000E+00 -0.23623507737E+03  0.23623507737E+03  0.00000000000E+00 0. -1.
          6    1    1    2  501    0 -0.53967200731E+02 -0.17914060512E+02 -0.44636531798E+02  0.18749611273E+03  0.17300000000E+03 0. -1.
         -6    1    1    2    0  502  0.53967200731E+02  0.17914060512E+02 -0.51177501329E+02  0.18916000888E+03  0.17300000000E+03 0. -1.
</event>
<event>
 4    1  0.5900714E+000  0.1000000E+03  0.7546771E-02  0.1280296E+00
         21   -1    0    0  503  502  0.00000000000E+00  0.00000000000E+00  0.51652842964E+03  0.51652842964E+03  0.00000000000E+00 0. -1.
         21   -1    0    0  501  503 -0.00000000000E+00 -0.00000000000E+00 -0.32356910428E+03  0.32356910428E+03  0.00000000000E+00 0. -1.
          6    1    1    2  501    0  0.36412280105E+03  0.44366037510E+02  0.43588596003E+02  0.40790038640E+03  0.17300000000E+03 0. -1.
         -6    1    1    2    0  502 -0.36412280105E+03 -0.44366037510E+02  0.14937072936E+03  0.43219714751E+03  0.17300000000E+03 0. -1.
</event>
<event>
 4    1  0.5900714E+000  0.1000000E+03  0.7546771E-02  0.1280296E+00
         21   -1    0    0  501  502  0.00000000000E+00  0.00000000000E+00  0.23938975026E+02  0.23938975026E+02  0.00000000000E+00 0. -1.
         21   -1    0    0  502  503 -0.00000000000E+00 -0.00000000000E+00 -0.16405955101E+04  0.16405955101E+04  0.00000000000E+00 0.  1.
          6    1    1    2  501    0 -0.44417463929E+02  0.66101604116E+01 -0.44881172765E+03  0.48309168095E+03  0.17300000000E+03 0. -1.
         -6    1    1    2    0  503  0.44417463929E+02 -0.66101604116E+01 -0.11678448074E+04  0.11814428042E+04  0.17300000000E+03 0.  1.
</event>
<event>
 4    1  0.5900714E+000  0.1000000E+03  0.7546771E-02  0.1280296E+00
         21   -1    0    0  501  502  0.00000000000E+00  0.00000000000E+00  0.47939053196E+03  0.47939053196E+03  0.00000000000E+00 0.  1.
         21   -1    0    0  502  503 -0.00000000000E+00 -0.00000000000E+00 -0.13158216996E+03  0.13158216996E+03  0.00000000000E+00 0. -1.
          6    1    1    2  501    0 -0.16104216063E+03  0.62695433441E+02  0.24361706483E+03  0.34517179658E+03  0.17300000000E+03 0.  1.
         -6    1    1    2    0  503  0.16104216063E+03 -0.62695433441E+02  0.10419129717E+03  0.26580090534E+03  0.17300000000E+03 0. -1.
</event>
<event>
 4    1  0.5900714E+000  0.1000000E+03  0.7546771E-02  0.1280296E+00
         21   -1    0    0  503  502  0.00000000000E+00  0.00000000000E+00  0.67191677128E+03  0.67191677128E+03  0.00000000000E+00 0. -1.
         21   -1    0    0  501  503 -0.00000000000E+00 -0.00000000000E+00 -0.12870113258E+03  0.12870113258E+03  0.00000000000E+00 0. -1.
          6    1    1    2  501    0 -0.13406773579E+03 -0.14217392836E+03  0.87156770943E+02  0.27515974707E+03  0.17300000000E+03 0. -1.
         -6    1    1    2    0  502  0.13406773579E+03  0.14217392836E+03  0.45605886776E+03  0.52545815680E+03  0.17300000000E+03 0. -1.
</event>
<event>
 4    1  0.5900714E+000  0.1000000E+03  0.7546771E-02  0.1280296E+00
         21   -1    0    0  503  502  0.00000000000E+00  0.00000000000E+00  0.82872461247E+03  0.82872461247E+03  0.00000000000E+00 0. -1.
         21   -1    0    0  501  503 -0.00000000000E+00 -0.00000000000E+00 -0.18288306678E+03  0.18288306678E+03  0.00000000000E+00 0. -1.
          6    1    1    2  501    0 -0.60005362815E+02  0.11216173668E+03 -0.98982734022E+02  0.23644762713E+03  0.17300000000E+03 0. -1.
         -6    1    1    2    0  502  0.60005362815E+02 -0.11216173668E+03  0.74482427971E+03  0.77516005211E+03  0.17300000000E+03 0. -1.
</event>
<event>
 4    1  0.5900714E+000  0.1000000E+03  0.7546771E-02  0.1280296E+00
         21   -1    0    0  503  502  0.00000000000E+00  0.00000000000E+00  0.76906210624E+03  0.76906210624E+03  0.00000000000E+00 0. -1.
         21   -1    0    0  501  503 -0.00000000000E+00 -0.00000000000E+00 -0.97582840554E+02  0.97582840554E+02  0.00000000000E+00 0.  1.
          6    1    1    2  501    0 -0.40591647240E+02  0.18822670639E+03  0.19389704598E+03  0.32342238522E+03  0.17300000000E+03 0.  1.
         -6    1    1    2    0  502  0.40591647240E+02 -0.18822670639E+03  0.47758221971E+03  0.54322256157E+03  0.17300000000E+03 0. -1.
</event>
<event>
 4    1  0.5900714E+000  0.1000000E+03  0.7546771E-02  0.1280296E+00
         21   -1    0    0  501  502  0.00000000000E+00  0.00000000000E+00  0.36327602457E+03  0.36327602457E+03  0.00000000000E+00 0. -1.
         21   -1    0    0  502  503 -0.00000000000E+00 -0.00000000000E+00 -0.16790963788E+03  0.16790963788E+03  0.00000000000E+00 0. -1.
          6    1    1    2  501    0  0.26814071412E+02 -0.15603163404E+03  0.18100697142E+03  0.29623873641E+03  0.17300000000E+03 0. -1.
         -6    1    1    2    0  503 -0.26814071412E+02  0.15603163404E+03  0.14359415276E+02  0.23494692604E+03  0.17300000000E+03 0. -1.
</event>
<event>
 4    1  0.5900714E+000  0.1000000E+03  0.7546771E-02  0.1280296E+00
         21   -1    0    0  501  502  0.00000000000E+00  0.00000000000E+00  0.42663202525E+03  0.42663202525E+03  0.00000000000E+00 0. -1.
         21   -1    0    0  502  503 -0.00000000000E+00 -0.00000000000E+00 -0.11973308249E+03  0.11973308249E+03  0.00000000000E+00 0. -1.
          6    1    1    2  501    0  0.44479230369E+02 -0.59232185434E+02  0.30473583718E+03  0.35816167325E+03  0.17300000000E+03 0. -1.
         -6    1    1    2    0  503 -0.44479230369E+02  0.59232185434E+02  0.21631055729E+01  0.18820343448E+03  0.17300000000E+03 0. -1.
</event>
<event>
 4    1  0.5900714E+000  0.1000000E+03  0.7546771E-02  0.1280296E+00
         21   -1    0    0  501  502  0.00000000000E+00  0.00000000000E+00  0.21891892232E+03  0.21891892232E+03  0.00000000000E+00 0. -1.
         21   -1    0    0  502  503 -0.00000000000E+00 -0.00000000000E+00 -0.27503682920E+03  0.27503682920E+03  0.00000000000E+00 0. -1.
          6    1    1    2  501    0 -0.42539067651E+02 -0.15461321343E+03  0.39960637660E+02  0.23925022593E+03  0.17300000000E+03 0. -1.
         -6    1    1    2    0  503  0.42539067651E+02  0.15461321343E+03 -0.96078544539E+02  0.25470552559E+03  0.17300000000E+03 0. -1.
</event>
<event>
 4    1  0.5900714E+000  0.1000000E+03  0.7546771E-02  0.1280296E+00
         21   -1    0    0  503  502  0.00000000000E+00  0.00000000000E+00  0.57798336288E+03  0.57798336288E+03  0.00000000000E+00 0.  1.
         21   -1    0    0  501  503 -0.00000000000E+00 -0.00000000000E+00 -0.16180849553E+03  0.16180849553E+03  0.00000000000E+00 0. -1.
          6    1    1    2  501    0  0.24185009533E+03  0.75883913334E+00  0.29447939146E+03  0.41849630398E+03  0.17300000000E+03 0.  1.
         -6    1    1    2    0  502 -0.24185009533E+03 -0.75883913334E+00  0.12169547589E+03  0.32129555443E+03  0.17300000000E+03 0.  1.
</event>
<event>
 4    1  0.5900714E+000  0.1000000E+03  0.7546771E-02  0.1280296E+00
         21   -1    0    0  503  502  0.00000000000E+00  0.00000000000E+00  0.23266013135E+04  0.23266013135E+04  0.00000000000E+00 0. -1.
         21   -1    0    0  501  503 -0.00000000000E+00 -0.00000000000E+00 -0.25338589222E+02  0.25338589222E+02  0.00000000000E+00 0. -1.
          6    1    1    2  501    0  0.10837190840E+03  0.65704655178E+02  0.59920977430E+03  0.63642982792E+03  0.17300000000E+03 0. -1.
         -6    1    1    2    0  502 -0.10837190840E+03 -0.65704655178E+02  0.17020529499E+04  0.17155100748E+04  0.17300000000E+03 0. -1.
</event>
<event>
 4    1  0.5900714E+000  0.1000000E+03  0.7546771E-02  0.1280296E+00
         21   -1    0    0  501  502  0.00000000000E+00  0.00000000000E+00  0.38195551996E+03  0.38195551996E+03  0.00000000000E+00 0.  1.
         21   -1    0    0  502  503 -0.00000000000E+00 -0.00000000000E+00 -0.11396457889E+03  0.11396457889E+03  0.00000000000E+00 0. -1.
          6    1    1    2  501    0  0.26101212460E+02  0.83414465524E+02  0.22575591982E+03  0.29754660422E+03  0.17300000000E+03 0.  1.
         -6    1    1    2    0  503 -0.26101212460E+02 -0.83414465524E+02  0.42235021242E+02  0.19837349463E+03  0.17300000000E+03 0.  1.
</event>
<event>
 4    1  0.5900714E+000  0.1000000E+03  0.7546771E-02  0.1280296E+00
         21   -1    0    0  501  502  0.00000000000E+00  0.00000000000E+00  0.50346083500E+03  0.50346083500E+03  0.00000000000E+00 0.  1.
         21   -1    0    0  502  503 -0.00000000000E+00 -0.00000000000E+00 -0.68692264825E+03  0.68692264825E+03  0.00000000000E+00 0. -1.
          6    1    1    2  501    0 -0.18379977034E+02  0.30014376968E+02  0.47600775300E+03  0.50769190194E+03  0.17300000000E+03 0.  1.
         -6    1    1    2    0  503  0.18379977034E+02 -0.30014376968E+02 -0.65946956625E+03  0.68269158131E+03  0.17300000000E+03 0.  1.
</event>
<event>
 4    1  0.5900714E+000  0.1000000E+03  0.7546771E-02  0.1280296E+00
         21   -1    0    0  501  502  0.00000000000E+00  0.00000000000E+00  0.13450745985E+04  0.13450745985E+04  0.00000000000E+00 0.  1.
         21   -1    0    0  502  503 -0.00000000000E+00 -0.00000000000E+00 -0.54740639357E+02  0.54740639357E+02  0.00000000000E+00 0. -1.
          6    1    1    2  501    0 -0.14830529420E+03  0.14375711530E+02  0.10233770307E+04  0.10485373948E+04  0.17300000000E+03 0.  1.
         -6    1    1    2    0  503  0.14830529420E+03 -0.14375711530E+02  0.26695692848E+03  0.35127784308E+03  0.17300000000E+03 0.  1.
</event>
<event>
 4    1  0.5900714E+000  0.1000000E+03  0.7546771E-02  0.1280296E+00
         21   -1    0    0  501  502  0.00000000000E+00  0.00000000000E+00  0.64919712820E+03  0.64919712820E+03  0.00000000000E+00 0.  1.
         21   -1    0    0  502  503 -0.00000000000E+00 -0.00000000000E+00 -0.94174034463E+02  0.94174034463E+02  0.00000000000E+00 0. -1.
          6    1    1    2  501    0  0.15198634359E+03  0.29317321721E+02  0.40549848095E+03  0.46724444571E+03  0.17300000000E+03 0.  1.
         -6    1    1    2    0  503 -0.15198634359E+03 -0.29317321721E+02  0.14952461279E+03  0.27612671696E+03  0.17300000000E+03 0.  1.
</event>
<event>
 4    1  0.5900714E+000  0.1000000E+03  0.7546771E-02  0.1280296E+00
         21   -1    0    0  501  502  0.00000000000E+00  0.00000000000E+00  0.52643279685E+02  0.52643279685E+02  0.00000000000E+00 0.  1.
         21   -1    0    0  502  503 -0.00000000000E+00 -0.00000000000E+00 -0.99186246665E+03  0.99186246665E+03  0.00000000000E+00 0. -1.
          6    1    1    2  501    0 -0.12402935842E+02  0.70372325146E+02 -0.17004350724E+03  0.25288315744E+03  0.17300000000E+03 0.  1.
         -6    1    1    2    0  503  0.12402935842E+02 -0.70372325146E+02 -0.76917567972E+03  0.79162258889E+03  0.17300000000E+03 0. -1.
</event>
<event>
 4    1  0.5900714E+000  0.1000000E+03  0.7546771E-02  0.1280296E+00
         21   -1    0    0  501  502  0.00000000000E+00  0.00000000000E+00  0.25701463816E+03  0.25701463816E+03  0.00000000000E+00 0. -1.
         21   -1    0    0  502  503 -0.00000000000E+00 -0.00000000000E+00 -0.14102815966E+03  0.14102815966E+03  0.00000000000E+00 0. -1.
          6    1    1    2  501    0 -0.63033091637E+01  0.27801191172E+02  0.13555243786E+03  0.22162152727E+03  0.17300000000E+03 0. -1.
         -6    1    1    2    0  503  0.63033091637E+01 -0.27801191172E+02 -0.19565959366E+02  0.17642127055E+03  0.17300000000E+03 0. -1.
</event>
<event>
 4    1  0.5900714E+000  0.1000000E+03  0.7546771E-02  0.1280296E+00
         21   -1    0    0  501  502  0.00000000000E+00  0.00000000000E+00  0.16720789341E+03  0.16720789341E+03  0.00000000000E+00 0.  1.
         21   -1    0    0  502  503 -0.00000000000E+00 -0.00000000000E+00 -0.21629547697E+03  0.21629547697E+03  0.00000000000E+00 0. -1.
          6    1    1    2  501    0  0.67274361939E+02  0.22054608740E+02  0.10747433821E+02  0.18723448634E+03  0.17300000000E+03 0.  1.
         -6    1    1    2    0  503 -0.67274361939E+02 -0.22054608740E+02 -0.59835017382E+02  0.19626888405E+03  0.17300000000E+03 0. -1.
</event>
<event>
 4    1  0.5900714E+000  0.1000000E+03  0.7546771E-02  0.1280296E+00
         21   -1    0    0  501  502  0.00000000000E+00  0.00000000000E+00  0.24379705554E+03  0.24379705554E+03  0.00000000000E+00 0.  1.
         21   -1    0    0  502  503 -0.00000000000E+00 -0.00000000000E+00 -0.15388057308E+03  0.15388057308E+03  0.00000000000E+00 0. -1.
          6    1    1    2  501    0 -0.23543897269E+02  0.72006374212E+02  0.83420561718E+00  0.18886219559E+03  0.17300000000E+03 0.  1.
         -6    1    1    2    0  503  0.23543897269E+02 -0.72006374212E+02  0.89082276843E+02  0.20881543303E+03  0.17300000000E+03 0. -1.
</event>
<event>
 4    1  0.5900714E+000  0.1000000E+03  0.7546771E-02  0.1280296E+00
         21   -1    0    0  501  502  0.00000000000E+00  0.00000000000E+00  0.58970268196E+03  0.58970268196E+03  0.00000000000E+00 0.  1.
         21   -1    0    0  502  503 -0.00000000000E+00 -0.00000000000E+00 -0.67448851065E+02  0.67448851065E+02  0.00000000000E+00 0. -1.
          6    1    1    2  501    0  0.64251286374E+02 -0.46905411507E+02  0.16341579443E+03  0.25092243284E+03  0.17300000000E+03 0.  1.
         -6    1    1    2    0  503 -0.64251286374E+02  0.46905411507E+02  0.35883803646E+03  0.40622910019E+03  0.17300000000E+03 0. -1.
</event>
<event>
 4    1  0.5900714E+000  0.1000000E+03  0.7546771E-02  0.1280296E+00
         21   -1    0    0  503  502  0.00000000000E+00  0.00000000000E+00  0.12267629082E+03  0.12267629082E+03  0.00000000000E+00 0. -1.
         21   -1    0    0  501  503 -0.00000000000E+00 -0.00000000000E+00 -0.32361685886E+03  0.32361685886E+03  0.00000000000E+00 0. -1.
          6    1    1    2  501    0 -0.31346080184E+02 -0.30832241711E+02 -0.13198704767E+01  0.17850475044E+03  0.17300000000E+03 0. -1.
         -6    1    1    2    0  502  0.31346080184E+02  0.30832241711E+02 -0.19962069757E+03  0.26778839924E+03  0.17300000000E+03 0. -1.
</event>
<event>
 4    1  0.5900714E+000  0.1000000E+03  0.7546771E-02  0.1280296E+00
         21   -1    0    0  503  502  0.00000000000E+00  0.00000000000E+00  0.18883625916E+03  0.18883625916E+03  0.00000000000E+00 0. -1.
         21   -1    0    0  501  503 -0.00000000000E+00 -0.00000000000E+00 -0.35446210286E+03  0.35446210286E+03  0.00000000000E+00 0. -1.
          6    1    1    2  501    0 -0.26499652559E+02  0.88427094327E+02 -0.26002231552E+03  0.32567190110E+03  0.17300000000E+03 0. -1.
         -6    1    1    2    0  502  0.26499652559E+02 -0.88427094327E+02  0.94396471823E+02  0.21762646091E+03  0.17300000000E+03 0. -1.
</event>
<event>
 4    1  0.5900714E+000  0.1000000E+03  0.7546771E-02  0.1280296E+00
         21   -1    0    0  501  502  0.00000000000E+00  0.00000000000E+00  0.62519537515E+02  0.62519537515E+02  0.00000000000E+00 0. -1.
         21   -1    0    0  502  503 -0.00000000000E+00 -0.00000000000E+00 -0.63334158020E+03  0.63334158020E+03  0.00000000000E+00 0. -1.
          6    1    1    2  501    0  0.17877401263E+02 -0.38727399466E+02 -0.13051511920E+03  0.22086785481E+03  0.17300000000E+03 0. -1.
         -6    1    1    2    0  503 -0.17877401263E+02  0.38727399466E+02 -0.44030692348E+03  0.47499326291E+03  0.17300000000E+03 0. -1.
</event>
<event>
 4    1  0.5900714E+000  0.1000000E+03  0.7546771E-02  0.1280296E+00
         21   -1    0    0  501  502  0.00000000000E+00  0.00000000000E+00  0.18329358006E+03  0.18329358006E+03  0.00000000000E+00 0. -1.
         21   -1    0    0  502  503 -0.00000000000E+00 -0.00000000000E+00 -0.24464142683E+03  0.24464142683E+03  0.00000000000E+00 0. -1.
          6    1    1    2  501    0  0.81170239696E+02 -0.25400777982E+01  0.61476276171E+02  0.20075704804E+03  0.17300000000E+03 0. -1.
         -6    1    1    2    0  503 -0.81170239696E+02  0.25400777982E+01 -0.12282412294E+03  0.22717795884E+03  0.17300000000E+03 0. -1.
</event>
<event>
 4    1  0.5900714E+000  0.1000000E+03  0.7546771E-02  0.1280296E+00
         21   -1    0    0  501  502  0.00000000000E+00  0.00000000000E+00  0.87323151653E+02  0.87323151653E+02  0.00000000000E+00 0.  1.
         21   -1    0    0  502  503 -0.00000000000E+00 -0.00000000000E+00 -0.68473636312E+03  0.68473636312E+03  0.00000000000E+00 0. -1.
          6    1    1    2  501    0 -0.10418142522E+03  0.22868819606E+02 -0.84054833239E+02  0.21993400661E+03  0.17300000000E+03 0.  1.
         -6    1    1    2    0  503  0.10418142522E+03 -0.22868819606E+02 -0.51335837823E+03  0.55212550817E+03  0.17300000000E+03 0. -1.
</event>
<event>
 4    1  0.5900714E+000  0.1000000E+03  0.7546771E-02  0.1280296E+00
         21   -1    0    0  503  502  0.00000000000E+00  0.00000000000E+00  0.36385739564E+03  0.36385739564E+03  0.00000000000E+00 0.  1.
         21   -1    0    0  501  503 -0.00000000000E+00 -0.00000000000E+00 -0.21848083883E+03  0.21848083883E+03  0.00000000000E+00 0. -1.
          6    1    1    2  501    0 -0.12228643054E+03 -0.12587836701E+03 -0.68785724658E+02  0.25585114870E+03  0.17300000000E+03 0. -1.
         -6    1    1    2    0  502  0.12228643054E+03  0.12587836701E+03  0.21416228147E+03  0.32648708578E+03  0.17300000000E+03 0.  1.
</event>
<event>
 4    1  0.5900714E+000  0.1000000E+03  0.7546771E-02  0.1280296E+00
         21   -1    0    0  501  502  0.00000000000E+00  0.00000000000E+00  0.65363616037E+02  0.65363616037E+02  0.00000000000E+00 0.  1.
         21   -1    0    0  502  503 -0.00000000000E+00 -0.00000000000E+00 -0.13368573438E+04  0.13368573438E+04  0.00000000000E+00 0. -1.
          6    1    1    2  501    0  0.11326429668E+03 -0.19813731727E+03 -0.46201224671E+03  0.54357291461E+03  0.17300000000E+03 0.  1.
         -6    1    1    2    0  503 -0.11326429668E+03  0.19813731727E+03 -0.80948148110E+03  0.85864804527E+03  0.17300000000E+03 0. -1.
</event>
<event>
 4    1  0.5900714E+000  0.1000000E+03  0.7546771E-02  0.1280296E+00
         21   -1    0    0  501  502  0.00000000000E+00  0.00000000000E+00  0.18006217622E+03  0.18006217622E+03  0.00000000000E+00 0.  1.
         21   -1    0    0  502  503 -0.00000000000E+00 -0.00000000000E+00 -0.49846145496E+03  0.49846145496E+03  0.00000000000E+00 0. -1.
          6    1    1    2  501    0  0.14877584866E+03 -0.11665837529E+03  0.16532354189E+02  0.25679904285E+03  0.17300000000E+03 0.  1.
         -6    1    1    2    0  503 -0.14877584866E+03  0.11665837529E+03 -0.33493163293E+03  0.42172458833E+03  0.17300000000E+03 0. -1.
</event>
<event>
 4    1  0.5900714E+000  0.1000000E+03  0.7546771E-02  0.1280296E+00
         21   -1    0    0  501  502  0.00000000000E+00  0.00000000000E+00  0.13200364419E+03  0.13200364419E+03  0.00000000000E+00 0.  1.
         21   -1    0    0  502  503 -0.00000000000E+00 -0.00000000000E+00 -0.35749506773E+03  0.35749506773E+03  0.00000000000E+00 0. -1.
          6    1    1    2  501    0 -0.82315177806E+02 -0.93212102615E+02 -0.64980471125E+02  0.22274592297E+03  0.17300000000E+03 0.  1.
         -6    1    1    2    0  503  0.82315177806E+02  0.93212102615E+02 -0.16051095241E+03  0.26675278895E+03  0.17300000000E+03 0. -1.
</event>
<event>
 4    1  0.5900714E+000  0.1000000E+03  0.7546771E-02  0.1280296E+00
         21   -1    0    0  503  502  0.00000000000E+00  0.00000000000E+00  0.98003564744E+02  0.98003564744E+02  0.00000000000E+00 0.  1.
         21   -1    0    0  501  503 -0.00000000000E+00 -0.00000000000E+00 -0.77347598348E+03  0.77347598348E+03  0.00000000000E+00 0.  1.
          6    1    1    2  501    0 -0.88187824809E+02  0.81971653841E+02 -0.61808274743E+03  0.65303271522E+03  0.17300000000E+03 0. -1.
         -6    1    1    2    0  502  0.88187824809E+02 -0.81971653841E+02 -0.57389671312E+02  0.21844683301E+03  0.17300000000E+03 0. -1.
</event>
<event>
 4    1  0.5900714E+000  0.1000000E+03  0.7546771E-02  0.1280296E+00
         21   -1    0    0  503  502  0.00000000000E+00  0.00000000000E+00  0.10566982397E+03  0.10566982397E+03  0.00000000000E+00 0.  1.
         21   -1    0    0  501  503 -0.00000000000E+00 -0.00000000000E+00 -0.85383653391E+03  0.85383653391E+03  0.00000000000E+00 0.  1.
          6    1    1    2  501    0 -0.93362985297E+02 -0.22304546987E+03 -0.30576143096E+03  0.42647975487E+03  0.17300000000E+03 0. -1.
         -6    1    1    2    0  502  0.93362985297E+02  0.22304546987E+03 -0.44240527898E+03  0.53302660301E+03  0.17300000000E+03 0. -1.
</event>
<event>
 4    1  0.5900714E+000  0.1000000E+03  0.7546771E-02  0.1280296E+00
         21   -1    0    0  501  502  0.00000000000E+00  0.00000000000E+00  0.15269585159E+04  0.15269585159E+04  0.00000000000E+00 0.  1.
         21   -1    0    0  502  503 -0.00000000000E+00 -0.00000000000E+00 -0.52451886373E+02  0.52451886373E+02  0.00000000000E+00 0.  1.
          6    1    1    2  501    0 -0.68332192246E+02  0.17294051439E+02  0.13304702341E+04  0.13435209029E+04  0.17300000000E+03 0.  1.
         -6    1    1    2    0  503  0.68332192246E+02 -0.17294051439E+02  0.14403639547E+03  0.23588949941E+03  0.17300000000E+03 0.  1.
</event>
<event>
 4    1  0.5900714E+000  0.1000000E+03  0.7546771E-02  0.1280296E+00
         21   -1    0    0  503  502  0.00000000000E+00  0.00000000000E+00  0.46048641507E+03  0.46048641507E+03  0.00000000000E+00 0.  1.
         21   -1    0    0  501  503 -0.00000000000E+00 -0.00000000000E+00 -0.23173522343E+03  0.23173522343E+03  0.00000000000E+00 0.  1.
          6    1    1    2  501    0 -0.91648398292E+02  0.29415545859E+02 -0.16093188441E+03  0.25513285690E+03  0.17300000000E+03 0.  1.
         -6    1    1    2    0  502  0.91648398292E+02 -0.29415545859E+02  0.38968307605E+03  0.43708878161E+03  0.17300000000E+03 0.  1.
</event>
<event>
 4    1  0.5900714E+000  0.1000000E+03  0.7546771E-02  0.1280296E+00
         21   -1    0    0  503  502  0.00000000000E+00  0.00000000000E+00  0.87758345740E+03  0.87758345740E+03  0.00000000000E+00 0.  1.
         21   -1    0    0  501  503 -0.00000000000E+00 -0.00000000000E+00 -0.77006210537E+02  0.77006210537E+02  0.00000000000E+00 0.  1.
          6    1    1    2  501    0  0.36503094237E+02  0.10655817501E+03  0.11020029321E+03  0.23400902798E+03  0.17300000000E+03 0.  1.
         -6    1    1    2    0  502 -0.36503094237E+02 -0.10655817501E+03  0.69037695365E+03  0.72058063996E+03  0.17300000000E+03 0.  1.
</event>
<event>
 4    1  0.5900714E+000  0.1000000E+03  0.7546771E-02  0.1280296E+00
         21   -1    0    0  503  502  0.00000000000E+00  0.00000000000E+00  0.27564160156E+02  0.27564160156E+02  0.00000000000E+00 0. -1.
         21   -1    0    0  501  503 -0.00000000000E+00 -0.00000000000E+00 -0.15248069578E+04  0.15248069578E+04  0.00000000000E+00 0. -1.
          6    1    1    2  501    0 -0.57228560282E+02 -0.52622533061E+02 -0.10432716325E+04  0.10603720754E+04  0.17300000000E+03 0. -1.
         -6    1    1    2    0  502  0.57228560282E+02  0.52622533061E+02 -0.45397116512E+03  0.49199904254E+03  0.17300000000E+03 0. -1.
</event>
<event>
 4    1  0.5900714E+000  0.1000000E+03  0.7546771E-02  0.1280296E+00
         21   -1    0    0  503  502  0.00000000000E+00  0.00000000000E+00  0.20000299547E+04  0.20000299547E+04  0.00000000000E+00 0. -1.
         21   -1    0    0  501  503 -0.00000000000E+00 -0.00000000000E+00 -0.34993571447E+02  0.34993571447E+02  0.00000000000E+00 0. -1.
          6    1    1    2  501    0  0.96903647686E+02  0.15224987015E+03  0.64967884910E+03  0.69611920449E+03  0.17300000000E+03 0. -1.
         -6    1    1    2    0  502 -0.96903647686E+02 -0.15224987015E+03  0.13153575342E+04  0.13389043217E+04  0.17300000000E+03 0. -1.
</event>
<event>
 4    1  0.5900714E+000  0.1000000E+03  0.7546771E-02  0.1280296E+00
         21   -1    0    0  503  502  0.00000000000E+00  0.00000000000E+00  0.14182899367E+02  0.14182899367E+02  0.00000000000E+00 0. -1.
         21   -1    0    0  501  503 -0.00000000000E+00 -0.00000000000E+00 -0.39884021692E+04  0.39884021692E+04  0.00000000000E+00 0. -1.
          6    1    1    2  501    0 -0.98629298012E+02  0.11034190644E+03 -0.14080943274E+04  0.14263806328E+04  0.17300000000E+03 0. -1.
         -6    1    1    2    0  502  0.98629298012E+02 -0.11034190644E+03 -0.25661249425E+04  0.25762044358E+04  0.17300000000E+03 0. -1.
</event>
<event>
 4    1  0.5900714E+000  0.1000000E+03  0.7546771E-02  0.1280296E+00
         21   -1    0    0  501  502  0.00000000000E+00  0.00000000000E+00  0.14574596070E+03  0.14574596070E+03  0.00000000000E+00 0.  1.
         21   -1    0    0  502  503 -0.00000000000E+00 -0.00000000000E+00 -0.23313478833E+03  0.23313478833E+03  0.00000000000E+00 0.  1.
          6    1    1    2  501    0  0.29293086584E+02  0.54321785951E+02 -0.59632619446E+02  0.19311652092E+03  0.17300000000E+03 0. -1.
         -6    1    1    2    0  503 -0.29293086584E+02 -0.54321785951E+02 -0.27756208182E+02  0.18576422810E+03  0.17300000000E+03 0. -1.
</event>
<event>
 4    1  0.5900714E+000  0.1000000E+03  0.7546771E-02  0.1280296E+00
         21   -1    0    0  501  502  0.00000000000E+00  0.00000000000E+00  0.24692705209E+03  0.24692705209E+03  0.00000000000E+00 0. -1.
         21   -1    0    0  502  503 -0.00000000000E+00 -0.00000000000E+00 -0.25003571179E+03  0.25003571179E+03  0.00000000000E+00 0. -1.
          6    1    1    2  501    0 -0.94930425398E+02  0.12746873173E+03  0.79388701716E+02  0.24797505761E+03  0.17300000000E+03 0. -1.
         -6    1    1    2    0  503  0.94930425398E+02 -0.12746873173E+03 -0.82497361418E+02  0.24898770627E+03  0.17300000000E+03 0. -1.
</event>
<event>
 4    1  0.5900714E+000  0.1000000E+03  0.7546771E-02  0.1280296E+00
         21   -1    0    0  503  502  0.00000000000E+00  0.00000000000E+00  0.74657736614E+03  0.74657736614E+03  0.00000000000E+00 0. -1.
         21   -1    0    0  501  503 -0.00000000000E+00 -0.00000000000E+00 -0.89806959797E+02  0.89806959797E+02  0.00000000000E+00 0. -1.
          6    1    1    2  501    0  0.49411385395E+02  0.66679633381E+02  0.47576173904E+02  0.19768700220E+03  0.17300000000E+03 0.  1.
         -6    1    1    2    0  502 -0.49411385395E+02 -0.66679633381E+02  0.60919423244E+03  0.63869732374E+03  0.17300000000E+03 0.  1.
</event>
<event>
 4    1  0.5900714E+000  0.1000000E+03  0.7546771E-02  0.1280296E+00
         21   -1    0    0  501  502  0.00000000000E+00  0.00000000000E+00  0.13097905764E+04  0.13097905764E+04  0.00000000000E+00 0. -1.
         21   -1    0    0  502  503 -0.00000000000E+00 -0.00000000000E+00 -0.68192727689E+02  0.68192727689E+02  0.00000000000E+00 0. -1.
          6    1    1    2  501    0  0.20618156719E+03 -0.12951391419E+03  0.64436574964E+03  0.71022595836E+03  0.17300000000E+03 0. -1.
         -6    1    1    2    0  503 -0.20618156719E+03  0.12951391419E+03  0.59723209906E+03  0.66775734573E+03  0.17300000000E+03 0. -1.
</event>
<event>
 4    1  0.5900714E+000  0.1000000E+03  0.7546771E-02  0.1280296E+00
         21   -1    0    0  503  502  0.00000000000E+00  0.00000000000E+00  0.14556993377E+03  0.14556993377E+03  0.00000000000E+00 0. -1.
         21   -1    0    0  501  503 -0.00000000000E+00 -0.00000000000E+00 -0.38458750556E+03  0.38458750556E+03  0.00000000000E+00 0. -1.
          6    1    1    2  501    0 -0.87187956601E+02  0.42007505127E+02  0.25220590529E+02  0.19982854764E+03  0.17300000000E+03 0. -1.
         -6    1    1    2    0  502  0.87187956601E+02 -0.42007505127E+02 -0.26423816232E+03  0.33032889169E+03  0.17300000000E+03 0. -1.
</event>
<event>
 4    1  0.5900714E+000  0.1000000E+03  0.7546771E-02  0.1280296E+00
         21   -1    0    0  503  502  0.00000000000E+00  0.00000000000E+00  0.98574267258E+03  0.98574267258E+03  0.00000000000E+00 0. -1.
         21   -1    0    0  501  503 -0.00000000000E+00 -0.00000000000E+00 -0.56936172188E+02  0.56936172188E+02  0.00000000000E+00 0. -1.
          6    1    1    2  501    0  0.12713754870E+03 -0.99905925744E+02  0.48000503401E+03  0.53523731463E+03  0.17300000000E+03 0. -1.
         -6    1    1    2    0  502 -0.12713754870E+03  0.99905925744E+02  0.44880146637E+03  0.50744153014E+03  0.17300000000E+03 0. -1.
</event>
<event>
 4    1  0.5900714E+000  0.1000000E+03  0.7546771E-02  0.1280296E+00
         21   -1    0    0  503  502  0.00000000000E+00  0.00000000000E+00  0.19052678865E+03  0.19052678865E+03  0.00000000000E+00 0. -1.
         21   -1    0    0  501  503 -0.00000000000E+00 -0.00000000000E+00 -0.31416100337E+03  0.31416100337E+03  0.00000000000E+00 0. -1.
          6    1    1    2  501    0  0.63440733486E+02 -0.15909199120E+03 -0.86914911145E+02  0.25849214709E+03  0.17300000000E+03 0. -1.
         -6    1    1    2    0  502 -0.63440733486E+02  0.15909199120E+03 -0.36719303571E+02  0.24619564493E+03  0.17300000000E+03 0. -1.
</event>
<event>
 4    1  0.5900714E+000  0.1000000E+03  0.7546771E-02  0.1280296E+00
         21   -1    0    0  501  502  0.00000000000E+00  0.00000000000E+00  0.35283475582E+03  0.35283475582E+03  0.00000000000E+00 0. -1.
         21   -1    0    0  502  503 -0.00000000000E+00 -0.00000000000E+00 -0.18543089113E+03  0.18543089113E+03  0.00000000000E+00 0. -1.
          6    1    1    2  501    0 -0.56357609614E+02  0.22670786264E+02  0.27135405197E+03  0.32749376518E+03  0.17300000000E+03 0. -1.
         -6    1    1    2    0  503  0.56357609614E+02 -0.22670786264E+02 -0.10395018727E+03  0.21077188177E+03  0.17300000000E+03 0. -1.
</event>
<event>
 4    1  0.5900714E+000  0.1000000E+03  0.7546771E-02  0.1280296E+00
         21   -1    0    0  501  502  0.00000000000E+00  0.00000000000E+00  0.32670687519E+03  0.32670687519E+03  0.00000000000E+00 0. -1.
         21   -1    0    0  502  503 -0.00000000000E+00 -0.00000000000E+00 -0.11058756171E+03  0.11058756171E+03  0.00000000000E+00 0. -1.
          6    1    1    2  501    0  0.75031066754E+02  0.41343610863E+01  0.13513362900E+03  0.23202769577E+03  0.17300000000E+03 0. -1.
         -6    1    1    2    0  503 -0.75031066754E+02 -0.41343610863E+01  0.80985684483E+02  0.20526674112E+03  0.17300000000E+03 0. -1.
</event>
<event>
 4    1  0.5900714E+000  0.1000000E+03  0.7546771E-02  0.1280296E+00
         21   -1    0    0  501  502  0.00000000000E+00  0.00000000000E+00  0.16378746845E+04  0.16378746845E+04  0.00000000000E+00 0. -1.
         21   -1    0    0  502  503 -0.00000000000E+00 -0.00000000000E+00 -0.11367673565E+03  0.11367673565E+03  0.00000000000E+00 0. -1.
          6    1    1    2  501    0  0.41416064714E+02 -0.68745133925E+02  0.15476942327E+04  0.15593997633E+04  0.17300000000E+03 0. -1.
         -6    1    1    2    0  503 -0.41416064714E+02  0.68745133925E+02 -0.23496283892E+02  0.19215165680E+03  0.17300000000E+03 0. -1.
</event>
<event>
 4    1  0.5900714E+000  0.1000000E+03  0.7546771E-02  0.1280296E+00
         21   -1    0    0  503  502  0.00000000000E+00  0.00000000000E+00  0.16050245813E+03  0.16050245813E+03  0.00000000000E+00 0.  1.
         21   -1    0    0  501  503 -0.00000000000E+00 -0.00000000000E+00 -0.26294225561E+03  0.26294225561E+03  0.00000000000E+00 0. -1.
          6    1    1    2  501    0  0.37221327168E+02 -0.50603228076E+00 -0.15876078988E+03  0.23773866254E+03  0.17300000000E+03 0. -1.
         -6    1    1    2    0  502 -0.37221327168E+02  0.50603228076E+00  0.56320992400E+02  0.18570605119E+03  0.17300000000E+03 0.  1.
</event>
<event>
 4    1  0.5900714E+000  0.1000000E+03  0.7546771E-02  0.1280296E+00
         21   -1    0    0  503  502  0.00000000000E+00  0.00000000000E+00  0.54383132252E+03  0.54383132252E+03  0.00000000000E+00 0.  1.
         21   -1    0    0  501  503 -0.00000000000E+00 -0.00000000000E+00 -0.74038448447E+02  0.74038448447E+02  0.00000000000E+00 0. -1.
          6    1    1    2  501    0 -0.35627841796E+02 -0.48237676286E+02  0.10850702020E+03  0.21283559373E+03  0.17300000000E+03 0. -1.
         -6    1    1    2    0  502  0.35627841796E+02  0.48237676286E+02  0.36128585387E+03  0.40503417723E+03  0.17300000000E+03 0.  1.
</event>
<event>
 4    1  0.5900714E+000  0.1000000E+03  0.7546771E-02  0.1280296E+00
         21   -1    0    0  503  502  0.00000000000E+00  0.00000000000E+00  0.71987621915E+02  0.71987621915E+02  0.00000000000E+00 0.  1.
         21   -1    0    0  501  503 -0.00000000000E+00 -0.00000000000E+00 -0.47835140594E+03  0.47835140594E+03  0.00000000000E+00 0. -1.
          6    1    1    2  501    0 -0.33616761737E+01  0.60782888608E+02 -0.24513690873E+03  0.30614859862E+03  0.17300000000E+03 0. -1.
         -6    1    1    2    0  502  0.33616761737E+01 -0.60782888608E+02 -0.16122687530E+03  0.24419042924E+03  0.17300000000E+03 0.  1.
</event>
<event>
 4    1  0.5900714E+000  0.1000000E+03  0.7546771E-02  0.1280296E+00
         21   -1    0    0  501  502  0.00000000000E+00  0.00000000000E+00  0.22686740604E+04  0.22686740604E+04  0.00000000000E+00 0.  1.
         21   -1    0    0  502  503 -0.00000000000E+00 -0.00000000000E+00 -0.28540626334E+02  0.28540626334E+02  0.00000000000E+00 0.  1.
          6    1    1    2  501    0 -0.10005763488E+03  0.15023495557E+03  0.13336235933E+04  0.13568577526E+04  0.17300000000E+03 0.  1.
         -6    1    1    2    0  503  0.10005763488E+03 -0.15023495557E+03  0.90650984070E+03  0.94035693407E+03  0.17300000000E+03 0.  1.
</event>
<event>
 4    1  0.5900714E+000  0.1000000E+03  0.7546771E-02  0.1280296E+00
         21   -1    0    0  503  502  0.00000000000E+00  0.00000000000E+00  0.64379280035E+02  0.64379280035E+02  0.00000000000E+00 0.  1.
         21   -1    0    0  501  503 -0.00000000000E+00 -0.00000000000E+00 -0.62293898011E+03  0.62293898011E+03  0.00000000000E+00 0.  1.
          6    1    1    2  501    0  0.25974989948E+02 -0.97429615585E+02 -0.27438593854E+03  0.33968201802E+03  0.17300000000E+03 0.  1.
         -6    1    1    2    0  502 -0.25974989948E+02  0.97429615585E+02 -0.28417376153E+03  0.34763624213E+03  0.17300000000E+03 0.  1.
</event>
<event>
 4    1  0.5900714E+000  0.1000000E+03  0.7546771E-02  0.1280296E+00
         21   -1    0    0  503  502  0.00000000000E+00  0.00000000000E+00  0.34291814381E+03  0.34291814381E+03  0.00000000000E+00 0.  1.
         21   -1    0    0  501  503 -0.00000000000E+00 -0.00000000000E+00 -0.47231674079E+03  0.47231674079E+03  0.00000000000E+00 0.  1.
          6    1    1    2  501    0 -0.93232422106E+01 -0.23883592815E+03 -0.34190578201E+03  0.45161719099E+03  0.17300000000E+03 0.  1.
         -6    1    1    2    0  502  0.93232422106E+01  0.23883592815E+03  0.21250718502E+03  0.36361769361E+03  0.17300000000E+03 0.  1.
</event>
<event>
 4    1  0.5900714E+000  0.1000000E+03  0.7546771E-02  0.1280296E+00
         21   -1    0    0  503  502  0.00000000000E+00  0.00000000000E+00  0.20954148591E+03  0.20954148591E+03  0.00000000000E+00 0. -1.
         21   -1    0    0  501  503 -0.00000000000E+00 -0.00000000000E+00 -0.19484675905E+03  0.19484675905E+03  0.00000000000E+00 0. -1.
          6    1    1    2  501    0  0.64883840728E+02 -0.45388607607E+02 -0.60737598299E+02  0.19972003989E+03  0.17300000000E+03 0. -1.
         -6    1    1    2    0  502 -0.64883840728E+02  0.45388607607E+02  0.75432325161E+02  0.20466820507E+03  0.17300000000E+03 0. -1.
</event>
<event>
 4    1  0.5900714E+000  0.1000000E+03  0.7546771E-02  0.1280296E+00
         21   -1    0    0  501  502  0.00000000000E+00  0.00000000000E+00  0.54380569951E+02  0.54380569951E+02  0.00000000000E+00 0.  1.
         21   -1    0    0  502  503 -0.00000000000E+00 -0.00000000000E+00 -0.84268455949E+03  0.84268455949E+03  0.00000000000E+00 0. -1.
          6    1    1    2  501    0 -0.11255769027E+03  0.55938280008E+02 -0.37337375681E+03  0.43027350265E+03  0.17300000000E+03 0.  1.
         -6    1    1    2    0  503  0.11255769027E+03 -0.55938280008E+02 -0.41493023273E+03  0.46679162679E+03  0.17300000000E+03 0. -1.
</event>
<event>
 4    1  0.5900714E+000  0.1000000E+03  0.7546771E-02  0.1280296E+00
         21   -1    0    0  501  502  0.00000000000E+00  0.00000000000E+00  0.27647181209E+03  0.27647181209E+03  0.00000000000E+00 0.  1.
         21   -1    0    0  502  503 -0.00000000000E+00 -0.00000000000E+00 -0.34312860191E+03  0.34312860191E+03  0.00000000000E+00 0. -1.
          6    1    1    2  501    0 -0.41817238012E+02  0.11012550703E+03  0.19395544036E+03  0.28534894697E+03  0.17300000000E+03 0.  1.
         -6    1    1    2    0  503  0.41817238012E+02 -0.11012550703E+03 -0.26061223018E+03  0.33425146703E+03  0.17300000000E+03 0. -1.
</event>
<event>
 4    1  0.5900714E+000  0.1000000E+03  0.7546771E-02  0.1280296E+00
         21   -1    0    0  501  502  0.00000000000E+00  0.00000000000E+00  0.14306681179E+02  0.14306681179E+02  0.00000000000E+00 0.  1.
         21   -1    0    0  502  503 -0.00000000000E+00 -0.00000000000E+00 -0.25064767502E+04  0.25064767502E+04  0.00000000000E+00 0.  1.
          6    1    1    2  501    0 -0.33605097970E+02  0.44011926976E+01 -0.78583377266E+03  0.80536475671E+03  0.17300000000E+03 0.  1.
         -6    1    1    2    0  503  0.33605097970E+02 -0.44011926976E+01 -0.17063362963E+04  0.17154186746E+04  0.17300000000E+03 0.  1.
</event>
<event>
 4    1  0.5900714E+000  0.1000000E+03  0.7546771E-02  0.1280296E+00
         21   -1    0    0  501  502  0.00000000000E+00  0.00000000000E+00  0.68972305175E+03  0.68972305175E+03  0.00000000000E+00 0.  1.
         21   -1    0    0  502  503 -0.00000000000E+00 -0.00000000000E+00 -0.18029101897E+03  0.18029101897E+03  0.00000000000E+00 0.  1.
          6    1    1    2  501    0 -0.57561969027E+02 -0.16371308663E+03  0.56753950634E+03  0.61817913769E+03  0.17300000000E+03 0.  1.
         -6    1    1    2    0  503  0.57561969027E+02  0.16371308663E+03 -0.58107473566E+02  0.25183493304E+03  0.17300000000E+03 0.  1.
</event>
<event>
 4    1  0.5900714E+000  0.1000000E+03  0.7546771E-02  0.1280296E+00
         21   -1    0    0  503  502  0.00000000000E+00  0.00000000000E+00  0.16350660432E+03  0.16350660432E+03  0.00000000000E+00 0.  1.
         21   -1    0    0  501  503 -0.00000000000E+00 -0.00000000000E+00 -0.13898318994E+04  0.13898318994E+04  0.00000000000E+00 0. -1.
          6    1    1    2  501    0  0.39621774472E+02  0.38368002790E+02 -0.13312819035E+04  0.13436080140E+04  0.17300000000E+03 0. -1.
         -6    1    1    2    0  502 -0.39621774472E+02 -0.38368002790E+02  0.10495660846E+03  0.20973048970E+03  0.17300000000E+03 0.  1.
</event>
<event>
 4    1  0.5900714E+000  0.1000000E+03  0.7546771E-02  0.1280296E+00
         21   -1    0    0  503  502  0.00000000000E+00  0.00000000000E+00  0.65723153581E+03  0.65723153581E+03  0.00000000000E+00 0.  1.
         21   -1    0    0  501  503 -0.00000000000E+00 -0.00000000000E+00 -0.55244437309E+02  0.55244437309E+02  0.00000000000E+00 0. -1.
          6    1    1    2  501    0 -0.88040916235E+01  0.62061407718E+02  0.39353631735E+03  0.43442946888E+03  0.17300000000E+03 0. -1.
         -6    1    1    2    0  502  0.88040916235E+01 -0.62061407718E+02  0.20845078115E+03  0.27804650423E+03  0.17300000000E+03 0.  1.
</event>
<event>
 4    1  0.5900714E+000  0.1000000E+03  0.7546771E-02  0.1280296E+00
         21   -1    0    0  503  502  0.00000000000E+00  0.00000000000E+00  0.15873402644E+04  0.15873402644E+04  0.00000000000E+00 0. -1.
         21   -1    0    0  501  503 -0.00000000000E+00 -0.00000000000E+00 -0.15005710622E+03  0.15005710622E+03  0.00000000000E+00 0.  1.
          6    1    1    2  501    0 -0.80631642092E+02 -0.17982779201E+02 -0.80228945011E+02  0.20782330397E+03  0.17300000000E+03 0.  1.
         -6    1    1    2    0  502  0.80631642092E+02  0.17982779201E+02  0.15175121032E+04  0.15295740666E+04  0.17300000000E+03 0. -1.
</event>
<event>
 4    1  0.5900714E+000  0.1000000E+03  0.7546771E-02  0.1280296E+00
         21   -1    0    0  503  502  0.00000000000E+00  0.00000000000E+00  0.41970804852E+03  0.41970804852E+03  0.00000000000E+00 0. -1.
         21   -1    0    0  501  503 -0.00000000000E+00 -0.00000000000E+00 -0.12755929054E+03  0.12755929054E+03  0.00000000000E+00 0.  1.
          6    1    1    2  501    0 -0.57092020273E+02 -0.52651362722E+02 -0.10713385071E+02  0.18993536110E+03  0.17300000000E+03 0. -1.
         -6    1    1    2    0  502  0.57092020273E+02  0.52651362722E+02  0.30286214305E+03  0.35733197795E+03  0.17300000000E+03 0. -1.
</event>
<event>
 4    1  0.5900714E+000  0.1000000E+03  0.7546771E-02  0.1280296E+00
         21   -1    0    0  503  502  0.00000000000E+00  0.00000000000E+00  0.13401898956E+03  0.13401898956E+03  0.00000000000E+00 0. -1.
         21   -1    0    0  501  503 -0.00000000000E+00 -0.00000000000E+00 -0.33532863080E+03  0.33532863080E+03  0.00000000000E+00 0.  1.
          6    1    1    2  501    0  0.32154094192E+02 -0.11786503438E+03 -0.11088194203E+03  0.23906036303E+03  0.17300000000E+03 0.  1.
         -6    1    1    2    0  502 -0.32154094192E+02  0.11786503438E+03 -0.90427699212E+02  0.23028725733E+03  0.17300000000E+03 0. -1.
</event>
<event>
 4    1  0.5900714E+000  0.1000000E+03  0.7546771E-02  0.1280296E+00
         21   -1    0    0  503  502  0.00000000000E+00  0.00000000000E+00  0.50283241157E+02  0.50283241157E+02  0.00000000000E+00 0. -1.
         21   -1    0    0  501  503 -0.00000000000E+00 -0.00000000000E+00 -0.97621278484E+03  0.97621278484E+03  0.00000000000E+00 0.  1.
          6    1    1    2  501    0  0.94753216845E+02 -0.29714986850E+02 -0.68632949741E+03  0.71472955134E+03  0.17300000000E+03 0.  1.
         -6    1    1    2    0  502 -0.94753216845E+02  0.29714986850E+02 -0.23960004628E+03  0.31176647466E+03  0.17300000000E+03 0. -1.
</event>
<event>
 4    1  0.5900714E+000  0.1000000E+03  0.7546771E-02  0.1280296E+00
         21   -1    0    0  503  502  0.00000000000E+00  0.00000000000E+00  0.24416715760E+03  0.24416715760E+03  0.00000000000E+00 0. -1.
         21   -1    0    0  501  503 -0.00000000000E+00 -0.00000000000E+00 -0.50120817181E+03  0.50120817181E+03  0.00000000000E+00 0.  1.
          6    1    1    2  501    0 -0.18200368924E+03  0.22332644825E+03 -0.23208178745E+03  0.40840054046E+03  0.17300000000E+03 0.  1.
         -6    1    1    2    0  502  0.18200368924E+03 -0.22332644825E+03 -0.24959226754E+02  0.33697478894E+03  0.17300000000E+03 0. -1.
</event>
<event>
 4    1  0.5900714E+000  0.1000000E+03  0.7546771E-02  0.1280296E+00
         21   -1    0    0  503  502  0.00000000000E+00  0.00000000000E+00  0.46433498034E+03  0.46433498034E+03  0.00000000000E+00 0.  1.
         21   -1    0    0  501  503 -0.00000000000E+00 -0.00000000000E+00 -0.78796881647E+02  0.78796881647E+02  0.00000000000E+00 0. -1.
          6    1    1    2  501    0 -0.23271084650E+02 -0.78213219952E+02  0.19354320376E+03  0.27211545872E+03  0.17300000000E+03 0.  1.
         -6    1    1    2    0  502  0.23271084650E+02  0.78213219952E+02  0.19199489493E+03  0.27101640326E+03  0.17300000000E+03 0. -1.
</event>
<event>
 4    1  0.5900714E+000  0.1000000E+03  0.7546771E-02  0.1280296E+00
         21   -1    0    0  503  502  0.00000000000E+00  0.00000000000E+00  0.12147515514E+03  0.12147515514E+03  0.00000000000E+00 0.  1.
         21   -1    0    0  501  503 -0.00000000000E+00 -0.00000000000E+00 -0.37642260171E+03  0.37642260171E+03  0.00000000000E+00 0. -1.
          6    1    1    2  501    0 -0.71400256625E+02  0.60282259122E+02 -0.22532941924E+03  0.29905567138E+03  0.17300000000E+03 0.  1.
         -6    1    1    2    0  502  0.71400256625E+02 -0.60282259122E+02 -0.29618027325E+02  0.19884208547E+03  0.17300000000E+03 0. -1.
</event>
<event>
 4    1  0.5900714E+000  0.1000000E+03  0.7546771E-02  0.1280296E+00
         21   -1    0    0  503  502  0.00000000000E+00  0.00000000000E+00  0.16353582429E+04  0.16353582429E+04  0.00000000000E+00 0.  1.
         21   -1    0    0  501  503 -0.00000000000E+00 -0.00000000000E+00 -0.45197505927E+02  0.45197505927E+02  0.00000000000E+00 0. -1.
          6    1    1    2  501    0  0.69191187045E+02 -0.16571931639E+03  0.46027137283E+03  0.52347783987E+03  0.17300000000E+03 0.  1.
         -6    1    1    2    0  502 -0.69191187045E+02  0.16571931639E+03  0.11298893642E+04  0.11570779090E+04  0.17300000000E+03 0. -1.
</event>
<event>
 4    1  0.5900714E+000  0.1000000E+03  0.7546771E-02  0.1280296E+00
         21   -1    0    0  501  502  0.00000000000E+00  0.00000000000E+00  0.21064644255E+03  0.21064644255E+03  0.00000000000E+00 0. -1.
         21   -1    0    0  502  503 -0.00000000000E+00 -0.00000000000E+00 -0.17511768167E+03  0.17511768167E+03  0.00000000000E+00 0. -1.
          6    1    1    2  501    0 -0.38541391465E+01  0.30090091059E+01  0.10139653091E+03  0.20058455824E+03  0.17300000000E+03 0. -1.
         -6    1    1    2    0  503  0.38541391465E+01 -0.30090091059E+01 -0.65867770037E+02  0.18517956597E+03  0.17300000000E+03 0. -1.
</event>
<event>
 4    1  0.5900714E+000  0.1000000E+03  0.7546771E-02  0.1280296E+00
         21   -1    0    0  501  502  0.00000000000E+00  0.00000000000E+00  0.21128234772E+03  0.21128234772E+03  0.00000000000E+00 0.  1.
         21   -1    0    0  502  503 -0.00000000000E+00 -0.00000000000E+00 -0.38543079016E+03  0.38543079016E+03  0.00000000000E+00 0.  1.
          6    1    1    2  501    0  0.14049828131E+03 -0.16120596784E+03 -0.75971642089E+01  0.27516149444E+03  0.17300000000E+03 0.  1.
         -6    1    1    2    0  503 -0.14049828131E+03  0.16120596784E+03 -0.16655127823E+03  0.32155164344E+03  0.17300000000E+03 0.  1.
</event>
<event>
 4    1  0.5900714E+000  0.1000000E+03  0.7546771E-02  0.1280296E+00
         21   -1    0    0  501  502  0.00000000000E+00  0.00000000000E+00  0.18031174018E+03  0.18031174018E+03  0.00000000000E+00 0.  1.
         21   -1    0    0  502  503 -0.00000000000E+00 -0.00000000000E+00 -0.34980424457E+03  0.34980424457E+03  0.00000000000E+00 0.  1.
          6    1    1    2  501    0 -0.40808840639E+01  0.17640500527E+02  0.10644394107E+03  0.20392928545E+03  0.17300000000E+03 0.  1.
         -6    1    1    2    0  503  0.40808840639E+01 -0.17640500527E+02 -0.27593644546E+03  0.32618669931E+03  0.17300000000E+03 0.  1.
</event>
<event>
 4    1  0.5900714E+000  0.1000000E+03  0.7546771E-02  0.1280296E+00
         21   -1    0    0  501  502  0.00000000000E+00  0.00000000000E+00  0.87770831554E+02  0.87770831554E+02  0.00000000000E+00 0.  1.
         21   -1    0    0  502  503 -0.00000000000E+00 -0.00000000000E+00 -0.58869516488E+03  0.58869516488E+03  0.00000000000E+00 0.  1.
          6    1    1    2  501    0  0.14503479473E+03 -0.20720294844E+01 -0.28988309163E+03  0.36742426675E+03  0.17300000000E+03 0.  1.
         -6    1    1    2    0  503 -0.14503479473E+03  0.20720294844E+01 -0.21104124170E+03  0.30904172968E+03  0.17300000000E+03 0.  1.
</event>
<event>
 4    1  0.5900714E+000  0.1000000E+03  0.7546771E-02  0.1280296E+00
         21   -1    0    0  503  502  0.00000000000E+00  0.00000000000E+00  0.22464755324E+03  0.22464755324E+03  0.00000000000E+00 0. -1.
         21   -1    0    0  501  503 -0.00000000000E+00 -0.00000000000E+00 -0.27492596688E+03  0.27492596688E+03  0.00000000000E+00 0. -1.
          6    1    1    2  501    0 -0.58569679512E+02 -0.12364104522E+03 -0.14024407249E+03  0.26137122124E+03  0.17300000000E+03 0. -1.
         -6    1    1    2    0  502  0.58569679512E+02  0.12364104522E+03  0.89965658853E+02  0.23820229889E+03  0.17300000000E+03 0. -1.
</event>
<event>
 4    1  0.5900714E+000  0.1000000E+03  0.7546771E-02  0.1280296E+00
         21   -1    0    0  503  502  0.00000000000E+00  0.00000000000E+00  0.69725349481E+02  0.69725349481E+02  0.00000000000E+00 0. -1.
         21   -1    0    0  501  503 -0.00000000000E+00 -0.00000000000E+00 -0.56039923006E+03  0.56039923006E+03  0.00000000000E+00 0. -1.
          6    1    1    2  501    0  0.44399959641E+02 -0.78576781058E+02 -0.19495041299E+03  0.27582663117E+03  0.17300000000E+03 0. -1.
         -6    1    1    2    0  502 -0.44399959641E+02  0.78576781058E+02 -0.29572346760E+03  0.35429794838E+03  0.17300000000E+03 0. -1.
</event>
<event>
 4    1  0.5900714E+000  0.1000000E+03  0.7546771E-02  0.1280296E+00
         21   -1    0    0  501  502  0.00000000000E+00  0.00000000000E+00  0.14817124625E+04  0.14817124625E+04  0.00000000000E+00 0.  1.
         21   -1    0    0  502  503 -0.00000000000E+00 -0.00000000000E+00 -0.21619135553E+02  0.21619135553E+02  0.00000000000E+00 0.  1.
          6    1    1    2  501    0 -0.36479146777E+01 -0.43196769868E+02  0.79305335585E+03  0.81286031607E+03  0.17300000000E+03 0.  1.
         -6    1    1    2    0  503  0.36479146777E+01  0.43196769868E+02  0.66703997108E+03  0.69047128197E+03  0.17300000000E+03 0.  1.
</event>
<event>
 4    1  0.5900714E+000  0.1000000E+03  0.7546771E-02  0.1280296E+00
         21   -1    0    0  501  502  0.00000000000E+00  0.00000000000E+00  0.34081690643E+03  0.34081690643E+03  0.00000000000E+00 0.  1.
         21   -1    0    0  502  503 -0.00000000000E+00 -0.00000000000E+00 -0.12906138319E+03  0.12906138319E+03  0.00000000000E+00 0.  1.
          6    1    1    2  501    0  0.11502418542E+03 -0.39691741970E+01  0.13777864765E+03  0.24931560987E+03  0.17300000000E+03 0.  1.
         -6    1    1    2    0  503 -0.11502418542E+03  0.39691741970E+01  0.73976875592E+02  0.22056267975E+03  0.17300000000E+03 0.  1.
</event>
<event>
 4    1  0.5900714E+000  0.1000000E+03  0.7546771E-02  0.1280296E+00
         21   -1    0    0  503  502  0.00000000000E+00  0.00000000000E+00  0.38205321420E+03  0.38205321420E+03  0.00000000000E+00 0. -1.
         21   -1    0    0  501  503 -0.00000000000E+00 -0.00000000000E+00 -0.10622845196E+03  0.10622845196E+03  0.00000000000E+00 0. -1.
          6    1    1    2  501    0  0.36851596037E+02 -0.28619428421E+02  0.26322321156E+02  0.18110487681E+03  0.17300000000E+03 0. -1.
         -6    1    1    2    0  502 -0.36851596037E+02  0.28619428421E+02  0.24950244108E+03  0.30717678936E+03  0.17300000000E+03 0. -1.
</event>
<event>
 4    1  0.5900714E+000  0.1000000E+03  0.7546771E-02  0.1280296E+00
         21   -1    0    0  503  502  0.00000000000E+00  0.00000000000E+00  0.15049689683E+04  0.15049689683E+04  0.00000000000E+00 0.  1.
         21   -1    0    0  501  503 -0.00000000000E+00 -0.00000000000E+00 -0.81541564159E+02  0.81541564159E+02  0.00000000000E+00 0. -1.
          6    1    1    2  501    0  0.11013959691E+03 -0.40072664854E+02  0.75041287880E+02  0.22202870121E+03  0.17300000000E+03 0. -1.
         -6    1    1    2    0  502 -0.11013959691E+03  0.40072664854E+02  0.13483861162E+04  0.13644818312E+04  0.17300000000E+03 0.  1.
</event>
<event>
 4    1  0.5900714E+000  0.1000000E+03  0.7546771E-02  0.1280296E+00
         21   -1    0    0  503  502  0.00000000000E+00  0.00000000000E+00  0.24103503457E+03  0.24103503457E+03  0.00000000000E+00 0.  1.
         21   -1    0    0  501  503 -0.00000000000E+00 -0.00000000000E+00 -0.19769277582E+03  0.19769277582E+03  0.00000000000E+00 0. -1.
          6    1    1    2  501    0 -0.11704707559E+03  0.19778323191E+02 -0.38880240631E+02  0.21338198866E+03  0.17300000000E+03 0. -1.
         -6    1    1    2    0  502  0.11704707559E+03 -0.19778323191E+02  0.82222499381E+02  0.22534582174E+03  0.17300000000E+03 0.  1.
</event>
<event>
 4    1  0.5900714E+000  0.1000000E+03  0.7546771E-02  0.1280296E+00
         21   -1    0    0  503  502  0.00000000000E+00  0.00000000000E+00  0.37109483473E+02  0.37109483473E+02  0.00000000000E+00 0.  1.
         21   -1    0    0  501  503 -0.00000000000E+00 -0.00000000000E+00 -0.89039197042E+03  0.89039197042E+03  0.00000000000E+00 0. -1.
          6    1    1    2  501    0  0.16269986083E+02  0.31859166014E+02 -0.53587689818E+03  0.56424530916E+03  0.17300000000E+03 0. -1.
         -6    1    1    2    0  502 -0.16269986083E+02 -0.31859166014E+02 -0.31740558877E+03  0.36325614474E+03  0.17300000000E+03 0. -1.
</event>
<event>
 4    1  0.5900714E+000  0.1000000E+03  0.7546771E-02  0.1280296E+00
         21   -1    0    0  503  502  0.00000000000E+00  0.00000000000E+00  0.25127074693E+03  0.25127074693E+03  0.00000000000E+00 0.  1.
         21   -1    0    0  501  503 -0.00000000000E+00 -0.00000000000E+00 -0.17195058122E+03  0.17195058122E+03  0.00000000000E+00 0. -1.
          6    1    1    2  501    0  0.11152375936E+03 -0.19507984518E+02  0.17848342601E+02  0.20752270646E+03  0.17300000000E+03 0. -1.
         -6    1    1    2    0  502 -0.11152375936E+03  0.19507984518E+02  0.61471823116E+02  0.21569862169E+03  0.17300000000E+03 0. -1.
</event>
<event>
 4    1  0.5900714E+000  0.1000000E+03  0.7546771E-02  0.1280296E+00
         21   -1    0    0  503  502  0.00000000000E+00  0.00000000000E+00  0.87171816926E+03  0.87171816926E+03  0.00000000000E+00 0. -1.
         21   -1    0    0  501  503 -0.00000000000E+00 -0.00000000000E+00 -0.18574660849E+03  0.18574660849E+03  0.00000000000E+00 0.  1.
          6    1    1    2  501    0 -0.42303772008E+02  0.34151897089E+03  0.18994916645E+03  0.42945838266E+03  0.17300000000E+03 0.  1.
         -6    1    1    2    0  502  0.42303772008E+02 -0.34151897089E+03  0.49602239432E+03  0.62800639509E+03  0.17300000000E+03 0. -1.
</event>
<event>
 4    1  0.5900714E+000  0.1000000E+03  0.7546771E-02  0.1280296E+00
         21   -1    0    0  503  502  0.00000000000E+00  0.00000000000E+00  0.34264574143E+03  0.34264574143E+03  0.00000000000E+00 0. -1.
         21   -1    0    0  501  503 -0.00000000000E+00 -0.00000000000E+00 -0.38696596225E+03  0.38696596225E+03  0.00000000000E+00 0.  1.
          6    1    1    2  501    0  0.12137293032E+03 -0.25775459509E+03 -0.16904110501E+03  0.37372812938E+03  0.17300000000E+03 0.  1.
         -6    1    1    2    0  502 -0.12137293032E+03  0.25775459509E+03  0.12472088420E+03  0.35588357430E+03  0.17300000000E+03 0. -1.
</event>
<event>
 4    1  0.5900714E+000  0.1000000E+03  0.7546771E-02  0.1280296E+00
         21   -1    0    0  503  502  0.00000000000E+00  0.00000000000E+00  0.89618374850E+02  0.89618374850E+02  0.00000000000E+00 0. -1.
         21   -1    0    0  501  503 -0.00000000000E+00 -0.00000000000E+00 -0.62326939415E+03  0.62326939415E+03  0.00000000000E+00 0.  1.
          6    1    1    2  501    0 -0.38455996527E+02  0.15180889799E+03 -0.32330871486E+03  0.39872588364E+03  0.17300000000E+03 0.  1.
         -6    1    1    2    0  502  0.38455996527E+02 -0.15180889799E+03 -0.21034230443E+03  0.31416188536E+03  0.17300000000E+03 0. -1.
</event>
<event>
 4    1  0.5900714E+000  0.1000000E+03  0.7546771E-02  0.1280296E+00
         21   -1    0    0  501  502  0.00000000000E+00  0.00000000000E+00  0.74244542750E+03  0.74244542750E+03  0.00000000000E+00 0.  1.
         21   -1    0    0  502  503 -0.00000000000E+00 -0.00000000000E+00 -0.74275885280E+02  0.74275885280E+02  0.00000000000E+00 0. -1.
          6    1    1    2  501    0  0.34542362047E+02 -0.67730089038E+02  0.57651901457E+03  0.60669903074E+03  0.17300000000E+03 0.  1.
         -6    1    1    2    0  503 -0.34542362047E+02  0.67730089038E+02  0.91650527656E+02  0.21002228205E+03  0.17300000000E+03 0. -1.
</event>
<event>
 4    1  0.5900714E+000  0.1000000E+03  0.7546771E-02  0.1280296E+00
         21   -1    0    0  503  502  0.00000000000E+00  0.00000000000E+00  0.51431030760E+03  0.51431030760E+03  0.00000000000E+00 0. -1.
         21   -1    0    0  501  503 -0.00000000000E+00 -0.00000000000E+00 -0.22065471517E+03  0.22065471517E+03  0.00000000000E+00 0. -1.
          6    1    1    2  501    0 -0.33914097754E+02 -0.20742097550E+03 -0.69652495596E+02  0.28098771725E+03  0.17300000000E+03 0. -1.
         -6    1    1    2    0  502  0.33914097754E+02  0.20742097550E+03  0.36330808802E+03  0.45397730552E+03  0.17300000000E+03 0. -1.
</event>
<event>
 4    1  0.5900714E+000  0.1000000E+03  0.7546771E-02  0.1280296E+00
         21   -1    0    0  501  502  0.00000000000E+00  0.00000000000E+00  0.32820924798E+03  0.32820924798E+03  0.00000000000E+00 0.  1.
         21   -1    0    0  502  503 -0.00000000000E+00 -0.00000000000E+00 -0.19283759939E+03  0.19283759939E+03  0.00000000000E+00 0. -1.
          6    1    1    2  501    0  0.10884814671E+03 -0.70901387236E+02  0.20065421358E+03  0.29506954974E+03  0.17300000000E+03 0.  1.
         -6    1    1    2    0  503 -0.10884814671E+03  0.70901387236E+02 -0.65282564984E+02  0.22597729763E+03  0.17300000000E+03 0. -1.
</event>
<event>
 4    1  0.5900714E+000  0.1000000E+03  0.7546771E-02  0.1280296E+00
         21   -1    0    0  501  502  0.00000000000E+00  0.00000000000E+00  0.47316281106E+02  0.47316281106E+02  0.00000000000E+00 0.  1.
         21   -1    0    0  502  503 -0.00000000000E+00 -0.00000000000E+00 -0.15484955257E+04  0.15484955257E+04  0.00000000000E+00 0. -1.
          6    1    1    2  501    0  0.36279487623E+02  0.15508755827E+03 -0.35541781718E+03  0.42616801466E+03  0.17300000000E+03 0.  1.
         -6    1    1    2    0  503 -0.36279487623E+02 -0.15508755827E+03 -0.11457614274E+04  0.11696437921E+04  0.17300000000E+03 0. -1.
</event>
<event>
 4    1  0.5900714E+000  0.1000000E+03  0.7546771E-02  0.1280296E+00
         21   -1    0    0  503  502  0.00000000000E+00  0.00000000000E+00  0.12638205221E+03  0.12638205221E+03  0.00000000000E+00 0.  1.
         21   -1    0    0  501  503 -0.00000000000E+00 -0.00000000000E+00 -0.38958682752E+03  0.38958682752E+03  0.00000000000E+00 0.  1.
          6    1    1    2  501    0 -0.10525520524E+03 -0.41172481943E+02 -0.22558264385E+03  0.30592541690E+03  0.17300000000E+03 0.  1.
         -6    1    1    2    0  502  0.10525520524E+03  0.41172481943E+02 -0.37622131458E+02  0.21004346282E+03  0.17300000000E+03 0.  1.
</event>
<event>
 4    1  0.5900714E+000  0.1000000E+03  0.7546771E-02  0.1280296E+00
         21   -1    0    0  503  502  0.00000000000E+00  0.00000000000E+00  0.58133793627E+03  0.58133793627E+03  0.00000000000E+00 0.  1.
         21   -1    0    0  501  503 -0.00000000000E+00 -0.00000000000E+00 -0.11835437547E+03  0.11835437547E+03  0.00000000000E+00 0.  1.
          6    1    1    2  501    0 -0.12555387615E+03  0.85877080049E+02  0.64182089855E+02  0.23913801319E+03  0.17300000000E+03 0.  1.
         -6    1    1    2    0  502  0.12555387615E+03 -0.85877080049E+02  0.39880147094E+03  0.46055429855E+03  0.17300000000E+03 0.  1.
</event>
<event>
 4    1  0.5900714E+000  0.1000000E+03  0.7546771E-02  0.1280296E+00
         21   -1    0    0  503  502  0.00000000000E+00  0.00000000000E+00  0.55385731659E+02  0.55385731659E+02  0.00000000000E+00 0. -1.
         21   -1    0    0  501  503 -0.00000000000E+00 -0.00000000000E+00 -0.68863176502E+03  0.68863176502E+03  0.00000000000E+00 0. -1.
          6    1    1    2  501    0  0.53983021698E+02 -0.72030616995E+02 -0.33649176924E+03  0.38891938391E+03  0.17300000000E+03 0. -1.
         -6    1    1    2    0  502 -0.53983021698E+02  0.72030616995E+02 -0.29675426412E+03  0.35509811276E+03  0.17300000000E+03 0. -1.
</event>
<event>
 4    1  0.5900714E+000  0.1000000E+03  0.7546771E-02  0.1280296E+00
         21   -1    0    0  503  502  0.00000000000E+00  0.00000000000E+00  0.60938420262E+02  0.60938420262E+02  0.00000000000E+00 0.  1.
         21   -1    0    0  501  503 -0.00000000000E+00 -0.00000000000E+00 -0.77397957510E+03  0.77397957510E+03  0.00000000000E+00 0. -1.
          6    1    1    2  501    0  0.12138116680E+03  0.14999622846E+02 -0.26478172704E+03  0.33911169150E+03  0.17300000000E+03 0. -1.
         -6    1    1    2    0  502 -0.12138116680E+03 -0.14999622846E+02 -0.44825942780E+03  0.49580630386E+03  0.17300000000E+03 0.  1.
</event>
<event>
 4    1  0.5900714E+000  0.1000000E+03  0.7546771E-02  0.1280296E+00
         21   -1    0    0  503  502  0.00000000000E+00  0.00000000000E+00  0.20027662586E+04  0.20027662586E+04  0.00000000000E+00 0.  1.
         21   -1    0    0  501  503 -0.00000000000E+00 -0.00000000000E+00 -0.49968895656E+02  0.49968895656E+02  0.00000000000E+00 0. -1.
          6    1    1    2  501    0 -0.81339620952E+02  0.86088311954E+02  0.20780725640E+03  0.29519516799E+03  0.17300000000E+03 0. -1.
         -6    1    1    2    0  502  0.81339620952E+02 -0.86088311954E+02  0.17449901065E+04  0.17575399863E+04  0.17300000000E+03 0.  1.
</event>
<event>
 4    1  0.5900714E+000  0.1000000E+03  0.7546771E-02  0.1280296E+00
         21   -1    0    0  501  502  0.00000000000E+00  0.00000000000E+00  0.36116239903E+03  0.36116239903E+03  0.00000000000E+00 0.  1.
         21   -1    0    0  502  503 -0.00000000000E+00 -0.00000000000E+00 -0.17007776937E+03  0.17007776937E+03  0.00000000000E+00 0. -1.
          6    1    1    2  501    0  0.80969980520E+01 -0.41249859936E+02  0.28033308597E+03  0.33208846925E+03  0.17300000000E+03 0.  1.
         -6    1    1    2    0  503 -0.80969980520E+01  0.41249859936E+02 -0.89248456306E+02  0.19915169915E+03  0.17300000000E+03 0. -1.
</event>
<event>
 4    1  0.5900714E+000  0.1000000E+03  0.7546771E-02  0.1280296E+00
         21   -1    0    0  503  502  0.00000000000E+00  0.00000000000E+00  0.38113187204E+03  0.38113187204E+03  0.00000000000E+00 0. -1.
         21   -1    0    0  501  503 -0.00000000000E+00 -0.00000000000E+00 -0.12522389658E+03  0.12522389658E+03  0.00000000000E+00 0.  1.
          6    1    1    2  501    0  0.33976785634E+02 -0.74942964061E+01 -0.21301903130E+02  0.17774520392E+03  0.17300000000E+03 0. -1.
         -6    1    1    2    0  502 -0.33976785634E+02  0.74942964061E+01  0.27720987859E+03  0.32861056469E+03  0.17300000000E+03 0.  1.
</event>
<event>
 4    1  0.5900714E+000  0.1000000E+03  0.7546771E-02  0.1280296E+00
         21   -1    0    0  503  502  0.00000000000E+00  0.00000000000E+00  0.56912124507E+02  0.56912124507E+02  0.00000000000E+00 0. -1.
         21   -1    0    0  501  503 -0.00000000000E+00 -0.00000000000E+00 -0.73482332061E+03  0.73482332061E+03  0.00000000000E+00 0.  1.
          6    1    1    2  501    0 -0.35584525809E+02 -0.16238242096E+02 -0.53600077600E+03  0.56458460026E+03  0.17300000000E+03 0. -1.
         -6    1    1    2    0  502  0.35584525809E+02  0.16238242096E+02 -0.14191042010E+03  0.22715084485E+03  0.17300000000E+03 0.  1.
</event>
<event>
 4    1  0.5900714E+000  0.1000000E+03  0.7546771E-02  0.1280296E+00
         21   -1    0    0  503  502  0.00000000000E+00  0.00000000000E+00  0.13812281589E+03  0.13812281589E+03  0.00000000000E+00 0.  1.
         21   -1    0    0  501  503 -0.00000000000E+00 -0.00000000000E+00 -0.81513479984E+03  0.81513479984E+03  0.00000000000E+00 0. -1.
          6    1    1    2  501    0 -0.42725382667E+02 -0.14652208148E+03 -0.68460475937E+03  0.72243121143E+03  0.17300000000E+03 0. -1.
         -6    1    1    2    0  502  0.42725382667E+02  0.14652208148E+03  0.75927754269E+01  0.23082640431E+03  0.17300000000E+03 0.  1.
</event>
<event>
 4    1  0.5900714E+000  0.1000000E+03  0.7546771E-02  0.1280296E+00
         21   -1    0    0  503  502  0.00000000000E+00  0.00000000000E+00  0.48550972777E+03  0.48550972777E+03  0.00000000000E+00 0.  1.
         21   -1    0    0  501  503 -0.00000000000E+00 -0.00000000000E+00 -0.22439231090E+03  0.22439231090E+03  0.00000000000E+00 0. -1.
          6    1    1    2  501    0  0.10756977451E+03 -0.84360819899E+02 -0.13357489841E+03  0.25779693134E+03  0.17300000000E+03 0. -1.
         -6    1    1    2    0  502 -0.10756977451E+03  0.84360819899E+02  0.39469231529E+03  0.45210510733E+03  0.17300000000E+03 0.  1.
</event>
<event>
 4    1  0.5900714E+000  0.1000000E+03  0.7546771E-02  0.1280296E+00
         21   -1    0    0  503  502  0.00000000000E+00  0.00000000000E+00  0.15958219419E+04  0.15958219419E+04  0.00000000000E+00 0.  1.
         21   -1    0    0  501  503 -0.00000000000E+00 -0.00000000000E+00 -0.32539949099E+02  0.32539949099E+02  0.00000000000E+00 0. -1.
          6    1    1    2  501    0  0.78477877157E+02 -0.68928407384E+02  0.40539863323E+03  0.45297566642E+03  0.17300000000E+03 0. -1.
         -6    1    1    2    0  502 -0.78477877157E+02  0.68928407384E+02  0.11578833596E+04  0.11753862246E+04  0.17300000000E+03 0.  1.
</event>
<event>
 4    1  0.5900714E+000  0.1000000E+03  0.7546771E-02  0.1280296E+00
         21   -1    0    0  503  502  0.00000000000E+00  0.00000000000E+00  0.51357377013E+02  0.51357377013E+02  0.00000000000E+00 0.  1.
         21   -1    0    0  501  503 -0.00000000000E+00 -0.00000000000E+00 -0.17743843065E+04  0.17743843065E+04  0.00000000000E+00 0.  1.
          6    1    1    2  501    0  0.12920120387E+03 -0.47306719819E+02 -0.14832253035E+04  0.14996056741E+04  0.17300000000E+03 0.  1.
         -6    1    1    2    0  502 -0.12920120387E+03  0.47306719819E+02 -0.23980162603E+03  0.32613600946E+03  0.17300000000E+03 0.  1.
</event>
<event>
 4    1  0.5900714E+000  0.1000000E+03  0.7546771E-02  0.1280296E+00
         21   -1    0    0  503  502  0.00000000000E+00  0.00000000000E+00  0.14705688208E+03  0.14705688208E+03  0.00000000000E+00 0.  1.
         21   -1    0    0  501  503 -0.00000000000E+00 -0.00000000000E+00 -0.33150554333E+03  0.33150554333E+03  0.00000000000E+00 0.  1.
          6    1    1    2  501    0 -0.17293084116E+02 -0.16991679330E+02 -0.23856141578E+03  0.29568279798E+03  0.17300000000E+03 0.  1.
         -6    1    1    2    0  502  0.17293084116E+02  0.16991679330E+02  0.54112754530E+02  0.18287962743E+03  0.17300000000E+03 0.  1.
</event>
<event>
 4    1  0.5900714E+000  0.1000000E+03  0.7546771E-02  0.1280296E+00
         21   -1    0    0  503  502  0.00000000000E+00  0.00000000000E+00  0.59427913483E+02  0.59427913483E+02  0.00000000000E+00 0.  1.
         21   -1    0    0  501  503 -0.00000000000E+00 -0.00000000000E+00 -0.58430821017E+03  0.58430821017E+03  0.00000000000E+00 0.  1.
          6    1    1    2  501    0  0.63888588402E+02 -0.15284773669E+02 -0.22460367454E+03  0.29101750231E+03  0.17300000000E+03 0.  1.
         -6    1    1    2    0  502 -0.63888588402E+02  0.15284773669E+02 -0.30027662215E+03  0.35271862135E+03  0.17300000000E+03 0.  1.
</event>
<event>
 4    1  0.5900714E+000  0.1000000E+03  0.7546771E-02  0.1280296E+00
         21   -1    0    0  503  502  0.00000000000E+00  0.00000000000E+00  0.16873508372E+04  0.16873508372E+04  0.00000000000E+00 0.  1.
         21   -1    0    0  501  503 -0.00000000000E+00 -0.00000000000E+00 -0.25828265056E+02  0.25828265056E+02  0.00000000000E+00 0.  1.
          6    1    1    2  501    0 -0.35587630093E+02  0.10333498105E+03  0.66119706560E+03  0.69213810565E+03  0.17300000000E+03 0.  1.
         -6    1    1    2    0  502  0.35587630093E+02 -0.10333498105E+03  0.10003255066E+04  0.10210409966E+04  0.17300000000E+03 0.  1.
</event>
<event>
 4    1  0.5900714E+000  0.1000000E+03  0.7546771E-02  0.1280296E+00
         21   -1    0    0  501  502  0.00000000000E+00  0.00000000000E+00  0.57366885203E+03  0.57366885203E+03  0.00000000000E+00 0. -1.
         21   -1    0    0  502  503 -0.00000000000E+00 -0.00000000000E+00 -0.17028679501E+03  0.17028679501E+03  0.00000000000E+00 0. -1.
          6    1    1    2  501    0  0.61296405641E+02 -0.80980215132E+02  0.48693663678E+03  0.52664156010E+03  0.17300000000E+03 0. -1.
         -6    1    1    2    0  503 -0.61296405641E+02  0.80980215132E+02 -0.83554579753E+02  0.21731408695E+03  0.17300000000E+03 0. -1.
</event>
<event>
 4    1  0.5900714E+000  0.1000000E+03  0.7546771E-02  0.1280296E+00
         21   -1    0    0  501  502  0.00000000000E+00  0.00000000000E+00  0.71571218375E+03  0.71571218375E+03  0.00000000000E+00 0. -1.
         21   -1    0    0  502  503 -0.00000000000E+00 -0.00000000000E+00 -0.67288395905E+02  0.67288395905E+02  0.00000000000E+00 0. -1.
          6    1    1    2  501    0 -0.81967543248E+02  0.44637392212E+02  0.49826721887E+03  0.53564017430E+03  0.17300000000E+03 0. -1.
         -6    1    1    2    0  503  0.81967543248E+02 -0.44637392212E+02  0.15015656898E+03  0.24736040536E+03  0.17300000000E+03 0. -1.
</event>
<event>
 4    1  0.5900714E+000  0.1000000E+03  0.7546771E-02  0.1280296E+00
         21   -1    0    0  501  502  0.00000000000E+00  0.00000000000E+00  0.76389980005E+03  0.76389980005E+03  0.00000000000E+00 0.  1.
         21   -1    0    0  502  503 -0.00000000000E+00 -0.00000000000E+00 -0.13299815318E+03  0.13299815318E+03  0.00000000000E+00 0.  1.
          6    1    1    2  501    0  0.26635420226E+03 -0.24526851315E+02  0.33099946012E+03  0.45938629725E+03  0.17300000000E+03 0.  1.
         -6    1    1    2    0  503 -0.26635420226E+03  0.24526851315E+02  0.29990218675E+03  0.43751165598E+03  0.17300000000E+03 0.  1.
</event>
<event>
 4    1  0.5900714E+000  0.1000000E+03  0.7546771E-02  0.1280296E+00
         21   -1    0    0  501  502  0.00000000000E+00  0.00000000000E+00  0.23299517638E+03  0.23299517638E+03  0.00000000000E+00 0.  1.
         21   -1    0    0  502  503 -0.00000000000E+00 -0.00000000000E+00 -0.14462374645E+03  0.14462374645E+03  0.00000000000E+00 0.  1.
          6    1    1    2  501    0 -0.88525665898E+00  0.87873733646E+01  0.10666299452E+03  0.20343056803E+03  0.17300000000E+03 0.  1.
         -6    1    1    2    0  503  0.88525665898E+00 -0.87873733646E+01 -0.18291564589E+02  0.17418835479E+03  0.17300000000E+03 0.  1.
</event>
<event>
 4    1  0.5900714E+000  0.1000000E+03  0.7546771E-02  0.1280296E+00
         21   -1    0    0  501  502  0.00000000000E+00  0.00000000000E+00  0.42933437443E+03  0.42933437443E+03  0.00000000000E+00 0.  1.
         21   -1    0    0  502  503 -0.00000000000E+00 -0.00000000000E+00 -0.17894428740E+03  0.17894428740E+03  0.00000000000E+00 0.  1.
          6    1    1    2  501    0  0.26930357134E+01  0.12310136300E+03  0.32067262788E+03  0.38460516415E+03  0.17300000000E+03 0.  1.
         -6    1    1    2    0  503 -0.26930357134E+01 -0.12310136300E+03 -0.70282540856E+02  0.22367349768E+03  0.17300000000E+03 0.  1.
</event>
<event>
 4    1  0.5900714E+000  0.1000000E+03  0.7546771E-02  0.1280296E+00
         21   -1    0    0  501  502  0.00000000000E+00  0.00000000000E+00  0.68514543920E+02  0.68514543920E+02  0.00000000000E+00 0.  1.
         21   -1    0    0  502  503 -0.00000000000E+00 -0.00000000000E+00 -0.54949884705E+03  0.54949884705E+03  0.00000000000E+00 0. -1.
          6    1    1    2  501    0  0.59386445697E+02 -0.26906595601E+02 -0.33428981301E+03  0.38200706002E+03  0.17300000000E+03 0.  1.
         -6    1    1    2    0  503 -0.59386445697E+02  0.26906595601E+02 -0.14669449012E+03  0.23600633095E+03  0.17300000000E+03 0. -1.
</event>
<event>
 4    1  0.5900714E+000  0.1000000E+03  0.7546771E-02  0.1280296E+00
         21   -1    0    0  501  502  0.00000000000E+00  0.00000000000E+00  0.11202601218E+04  0.11202601218E+04  0.00000000000E+00 0.  1.
         21   -1    0    0  502  503 -0.00000000000E+00 -0.00000000000E+00 -0.11531396987E+03  0.11531396987E+03  0.00000000000E+00 0. -1.
          6    1    1    2  501    0 -0.12603678033E+03  0.24374352126E+03  0.76851482208E+03  0.83417036984E+03  0.17300000000E+03 0.  1.
         -6    1    1    2    0  503  0.12603678033E+03 -0.24374352126E+03  0.23643132982E+03  0.40140372180E+03  0.17300000000E+03 0. -1.
</event>
<event>
 4    1  0.5900714E+000  0.1000000E+03  0.7546771E-02  0.1280296E+00
         21   -1    0    0  501  502  0.00000000000E+00  0.00000000000E+00  0.11559469875E+03  0.11559469875E+03  0.00000000000E+00 0.  1.
         21   -1    0    0  502  503 -0.00000000000E+00 -0.00000000000E+00 -0.46023855767E+03  0.46023855767E+03  0.00000000000E+00 0. -1.
          6    1    1    2  501    0  0.48234344760E+02 -0.24184683318E+01  0.83089075018E+01  0.17980667103E+03  0.17300000000E+03 0.  1.
         -6    1    1    2    0  503 -0.48234344760E+02  0.24184683318E+01 -0.35295276642E+03  0.39602658538E+03  0.17300000000E+03 0. -1.
</event>
<event>
 4    1  0.5900714E+000  0.1000000E+03  0.7546771E-02  0.1280296E+00
         21   -1    0    0  503  502  0.00000000000E+00  0.00000000000E+00  0.41490324465E+02  0.41490324465E+02  0.00000000000E+00 0. -1.
         21   -1    0    0  501  503 -0.00000000000E+00 -0.00000000000E+00 -0.79929917390E+03  0.79929917390E+03  0.00000000000E+00 0. -1.
          6    1    1    2  501    0 -0.52549254048E+02 -0.84132197265E+01 -0.42518823309E+03  0.46211063602E+03  0.17300000000E+03 0. -1.
         -6    1    1    2    0  502  0.52549254048E+02  0.84132197265E+01 -0.33262061635E+03  0.37867886235E+03  0.17300000000E+03 0. -1.
</event>
<event>
 4    1  0.5900714E+000  0.1000000E+03  0.7546771E-02  0.1280296E+00
         21   -1    0    0  503  502  0.00000000000E+00  0.00000000000E+00  0.12533723998E+03  0.12533723998E+03  0.00000000000E+00 0.  1.
         21   -1    0    0  501  503 -0.00000000000E+00 -0.00000000000E+00 -0.30731005654E+03  0.30731005654E+03  0.00000000000E+00 0.  1.
          6    1    1    2  501    0  0.89747300175E+02 -0.75656934810E+01 -0.11504897497E+03  0.22644443965E+03  0.17300000000E+03 0.  1.
         -6    1    1    2    0  502 -0.89747300175E+02  0.75656934810E+01 -0.66923841595E+02  0.20620285687E+03  0.17300000000E+03 0.  1.
</event>
<event>
 4    1  0.5900714E+000  0.1000000E+03  0.7546771E-02  0.1280296E+00
         21   -1    0    0  503  502  0.00000000000E+00  0.00000000000E+00  0.20987978480E+03  0.20987978480E+03  0.00000000000E+00 0.  1.
         21   -1    0    0  501  503 -0.00000000000E+00 -0.00000000000E+00 -0.47332765851E+03  0.47332765851E+03  0.00000000000E+00 0.  1.
          6    1    1    2  501    0  0.24132354658E+03 -0.20544122505E+01 -0.24627909911E+03  0.38577670925E+03  0.17300000000E+03 0.  1.
         -6    1    1    2    0  502 -0.24132354658E+03  0.20544122505E+01 -0.17168774600E+02  0.29743073406E+03  0.17300000000E+03 0.  1.
</event>
<event>
 4    1  0.5900714E+000  0.1000000E+03  0.7546771E-02  0.1280296E+00
         21   -1    0    0  503  502  0.00000000000E+00  0.00000000000E+00  0.30595570201E+04  0.30595570201E+04  0.00000000000E+00 0.  1.
         21   -1    0    0  501  503 -0.00000000000E+00 -0.00000000000E+00 -0.30675299442E+02  0.30675299442E+02  0.00000000000E+00 0.  1.
          6    1    1    2  501    0  0.15628518453E+03  0.19519365759E+03  0.17030326845E+04  0.17299638573E+04  0.17300000000E+03 0.  1.
         -6    1    1    2    0  502 -0.15628518453E+03 -0.19519365759E+03  0.13258490361E+04  0.13602684623E+04  0.17300000000E+03 0.  1.
</event>
<event>
 4    1  0.5900714E+000  0.1000000E+03  0.7546771E-02  0.1280296E+00
         21   -1    0    0  503  502  0.00000000000E+00  0.00000000000E+00  0.10797731033E+04  0.10797731033E+04  0.00000000000E+00 0.  1.
         21   -1    0    0  501  503 -0.00000000000E+00 -0.00000000000E+00 -0.10001260225E+03  0.10001260225E+03  0.00000000000E+00 0.  1.
          6    1    1    2  501    0 -0.24469987159E+03  0.86264709809E+02  0.30383098237E+03  0.43538706132E+03  0.17300000000E+03 0.  1.
         -6    1    1    2    0  502  0.24469987159E+03 -0.86264709809E+02  0.67592951868E+03  0.74439864423E+03  0.17300000000E+03 0.  1.
</event>
<event>
 4    1  0.5900714E+000  0.1000000E+03  0.7546771E-02  0.1280296E+00
         21   -1    0    0  503  502  0.00000000000E+00  0.00000000000E+00  0.16121213158E+03  0.16121213158E+03  0.00000000000E+00 0.  1.
         21   -1    0    0  501  503 -0.00000000000E+00 -0.00000000000E+00 -0.76994679141E+03  0.76994679141E+03  0.00000000000E+00 0.  1.
          6    1    1    2  501    0  0.26592707098E+03 -0.87931419529E+02 -0.47019549511E+03  0.57398775705E+03  0.17300000000E+03 0.  1.
         -6    1    1    2    0  502 -0.26592707098E+03  0.87931419529E+02 -0.13853916472E+03  0.35717116594E+03  0.17300000000E+03 0.  1.
</event>
<event>
 4    1  0.5900714E+000  0.1000000E+03  0.7546771E-02  0.1280296E+00
         21   -1    0    0  503  502  0.00000000000E+00  0.00000000000E+00  0.97165951207E+02  0.97165951207E+02  0.00000000000E+00 0.  1.
         21   -1    0    0  501  503 -0.00000000000E+00 -0.00000000000E+00 -0.58562466736E+03  0.58562466736E+03  0.00000000000E+00 0.  1.
          6    1    1    2  501    0 -0.11570241004E+03 -0.74021853286E+02 -0.37309411864E+03  0.43358332973E+03  0.17300000000E+03 0.  1.
         -6    1    1    2    0  502  0.11570241004E+03  0.74021853286E+02 -0.11536459752E+03  0.24920728884E+03  0.17300000000E+03 0.  1.
</event>
<event>
 4    1  0.5900714E+000  0.1000000E+03  0.7546771E-02  0.1280296E+00
         21   -1    0    0  503  502  0.00000000000E+00  0.00000000000E+00  0.42191452177E+03  0.42191452177E+03  0.00000000000E+00 0.  1.
         21   -1    0    0  501  503 -0.00000000000E+00 -0.00000000000E+00 -0.19656865661E+03  0.19656865661E+03  0.00000000000E+00 0. -1.
          6    1    1    2  501    0  0.20637472547E+03 -0.89341738256E+02  0.16564681459E+03  0.32854275322E+03  0.17300000000E+03 0.  1.
         -6    1    1    2    0  502 -0.20637472547E+03  0.89341738256E+02  0.59699050561E+02  0.28994042516E+03  0.17300000000E+03 0. -1.
</event>
<event>
 4    1  0.5900714E+000  0.1000000E+03  0.7546771E-02  0.1280296E+00
         21   -1    0    0  503  502  0.00000000000E+00  0.00000000000E+00  0.10891750500E+03  0.10891750500E+03  0.00000000000E+00 0. -1.
         21   -1    0    0  501  503 -0.00000000000E+00 -0.00000000000E+00 -0.39601809918E+03  0.39601809918E+03  0.00000000000E+00 0. -1.
          6    1    1    2  501    0  0.78172120751E+02  0.35271586005E+02 -0.23652247410E+03  0.30533071578E+03  0.17300000000E+03 0. -1.
         -6    1    1    2    0  502 -0.78172120751E+02 -0.35271586005E+02 -0.50578120084E+02  0.19960488840E+03  0.17300000000E+03 0. -1.
</event>
<event>
 4    1  0.5900714E+000  0.1000000E+03  0.7546771E-02  0.1280296E+00
         21   -1    0    0  501  502  0.00000000000E+00  0.00000000000E+00  0.18746610231E+03  0.18746610231E+03  0.00000000000E+00 0.  1.
         21   -1    0    0  502  503 -0.00000000000E+00 -0.00000000000E+00 -0.24886293314E+03  0.24886293314E+03  0.00000000000E+00 0.  1.
          6    1    1    2  501    0 -0.57142170862E+02  0.87732798078E+02  0.45972870990E+02  0.20737593018E+03  0.17300000000E+03 0.  1.
         -6    1    1    2    0  503  0.57142170862E+02 -0.87732798078E+02 -0.10736970182E+03  0.22895310528E+03  0.17300000000E+03 0.  1.
</event>
<event>
 4    1  0.5900714E+000  0.1000000E+03  0.7546771E-02  0.1280296E+00
         21   -1    0    0  501  502  0.00000000000E+00  0.00000000000E+00  0.86703957911E+02  0.86703957911E+02  0.00000000000E+00 0.  1.
         21   -1    0    0  502  503 -0.00000000000E+00 -0.00000000000E+00 -0.11996503699E+04  0.11996503699E+04  0.00000000000E+00 0.  1.
          6    1    1    2  501    0 -0.11186488349E+02 -0.28874255349E+02 -0.17184375595E+02  0.17658755026E+03  0.17300000000E+03 0.  1.
         -6    1    1    2    0  503  0.11186488349E+02  0.28874255349E+02 -0.10957620364E+04  0.11097667775E+04  0.17300000000E+03 0.  1.
</event>
<event>
 4    1  0.5900714E+000  0.1000000E+03  0.7546771E-02  0.1280296E+00
         21   -1    0    0  501  502  0.00000000000E+00  0.00000000000E+00  0.48829134337E+03  0.48829134337E+03  0.00000000000E+00 0.  1.
         21   -1    0    0  502  503 -0.00000000000E+00 -0.00000000000E+00 -0.83480267189E+02  0.83480267189E+02  0.00000000000E+00 0.  1.
          6    1    1    2  501    0 -0.22341578553E+01 -0.92353911987E+02  0.27030614397E+03  0.33395905137E+03  0.17300000000E+03 0.  1.
         -6    1    1    2    0  503  0.22341578553E+01  0.92353911987E+02  0.13450493221E+03  0.23781255919E+03  0.17300000000E+03 0.  1.
</event>
<event>
 4    1  0.5900714E+000  0.1000000E+03  0.7546771E-02  0.1280296E+00
         21   -1    0    0  501  502  0.00000000000E+00  0.00000000000E+00  0.30149509461E+03  0.30149509461E+03  0.00000000000E+00 0.  1.
         21   -1    0    0  502  503 -0.00000000000E+00 -0.00000000000E+00 -0.40270112977E+03  0.40270112977E+03  0.00000000000E+00 0.  1.
          6    1    1    2  501    0 -0.13981015576E+03 -0.74734369702E+02  0.20968663080E+03  0.31468967063E+03  0.17300000000E+03 0.  1.
         -6    1    1    2    0  503  0.13981015576E+03  0.74734369702E+02 -0.31089266596E+03  0.38950655375E+03  0.17300000000E+03 0.  1.
</event>
<event>
 4    1  0.5900714E+000  0.1000000E+03  0.7546771E-02  0.1280296E+00
         21   -1    0    0  501  502  0.00000000000E+00  0.00000000000E+00  0.13103872711E+03  0.13103872711E+03  0.00000000000E+00 0. -1.
         21   -1    0    0  502  503 -0.00000000000E+00 -0.00000000000E+00 -0.32368034644E+03  0.32368034644E+03  0.00000000000E+00 0. -1.
          6    1    1    2  501    0  0.59913961579E+02  0.15589538361E+01  0.77892489980E+01  0.18325333702E+03  0.17300000000E+03 0. -1.
         -6    1    1    2    0  503 -0.59913961579E+02 -0.15589538361E+01 -0.20043086833E+03  0.27146573653E+03  0.17300000000E+03 0. -1.
</event>
<event>
 4    1  0.5900714E+000  0.1000000E+03  0.7546771E-02  0.1280296E+00
         21   -1    0    0  501  502  0.00000000000E+00  0.00000000000E+00  0.77252039162E+02  0.77252039162E+02  0.00000000000E+00 0. -1.
         21   -1    0    0  502  503 -0.00000000000E+00 -0.00000000000E+00 -0.21957577212E+04  0.21957577212E+04  0.00000000000E+00 0. -1.
          6    1    1    2  501    0  0.13928988669E+03  0.18815808359E+03 -0.25524719265E+03  0.38715018573E+03  0.17300000000E+03 0. -1.
         -6    1    1    2    0  503 -0.13928988669E+03 -0.18815808359E+03 -0.18632584893E+04  0.18858595746E+04  0.17300000000E+03 0. -1.
</event>
<event>
 4    1  0.5900714E+000  0.1000000E+03  0.7546771E-02  0.1280296E+00
         21   -1    0    0  501  502  0.00000000000E+00  0.00000000000E+00  0.33362967865E+02  0.33362967865E+02  0.00000000000E+00 0. -1.
         21   -1    0    0  502  503 -0.00000000000E+00 -0.00000000000E+00 -0.16997107470E+04  0.16997107470E+04  0.00000000000E+00 0. -1.
          6    1    1    2  501    0 -0.36407435890E+01 -0.44189003367E+02 -0.25997913419E+03  0.31541095930E+03  0.17300000000E+03 0. -1.
         -6    1    1    2    0  503  0.36407435890E+01  0.44189003367E+02 -0.14063686450E+04  0.14176627556E+04  0.17300000000E+03 0. -1.
</event>
<event>
 4    1  0.5900714E+000  0.1000000E+03  0.7546771E-02  0.1280296E+00
         21   -1    0    0  501  502  0.00000000000E+00  0.00000000000E+00  0.79628898790E+03  0.79628898790E+03  0.00000000000E+00 0.  1.
         21   -1    0    0  502  503 -0.00000000000E+00 -0.00000000000E+00 -0.10359166435E+03  0.10359166435E+03  0.00000000000E+00 0.  1.
          6    1    1    2  501    0 -0.19009630550E+03 -0.22003494515E+02  0.54413196878E+03  0.60218714582E+03  0.17300000000E+03 0.  1.
         -6    1    1    2    0  503  0.19009630550E+03  0.22003494515E+02  0.14856535476E+03  0.29769350643E+03  0.17300000000E+03 0.  1.
</event>
<event>
 4    1  0.5900714E+000  0.1000000E+03  0.7546771E-02  0.1280296E+00
         21   -1    0    0  501  502  0.00000000000E+00  0.00000000000E+00  0.25879954147E+02  0.25879954147E+02  0.00000000000E+00 0.  1.
         21   -1    0    0  502  503 -0.00000000000E+00 -0.00000000000E+00 -0.20162431393E+04  0.20162431393E+04  0.00000000000E+00 0.  1.
          6    1    1    2  501    0  0.24218648648E+02 -0.14291800497E+03 -0.83783183619E+03  0.86769999701E+03  0.17300000000E+03 0.  1.
         -6    1    1    2    0  503 -0.24218648648E+02  0.14291800497E+03 -0.11525313489E+04  0.11744230964E+04  0.17300000000E+03 0.  1.
</event>
<event>
 4    1  0.5900714E+000  0.1000000E+03  0.7546771E-02  0.1280296E+00
         21   -1    0    0  501  502  0.00000000000E+00  0.00000000000E+00  0.17394724279E+03  0.17394724279E+03  0.00000000000E+00 0.  1.
         21   -1    0    0  502  503 -0.00000000000E+00 -0.00000000000E+00 -0.12157304359E+04  0.12157304359E+04  0.00000000000E+00 0.  1.
          6    1    1    2  501    0 -0.37035622148E+02 -0.14745586873E+03  0.80523224186E+02  0.24398331944E+03  0.17300000000E+03 0.  1.
         -6    1    1    2    0  503  0.37035622148E+02  0.14745586873E+03 -0.11223064173E+04  0.11456943592E+04  0.17300000000E+03 0.  1.
</event>
<event>
 4    1  0.5900714E+000  0.1000000E+03  0.7546771E-02  0.1280296E+00
         21   -1    0    0  501  502  0.00000000000E+00  0.00000000000E+00  0.95346249245E+02  0.95346249245E+02  0.00000000000E+00 0.  1.
         21   -1    0    0  502  503 -0.00000000000E+00 -0.00000000000E+00 -0.38898869537E+03  0.38898869537E+03  0.00000000000E+00 0.  1.
          6    1    1    2  501    0  0.70504333421E+02 -0.46685570452E+02 -0.15063728554E+03  0.24448107353E+03  0.17300000000E+03 0.  1.
         -6    1    1    2    0  503 -0.70504333421E+02  0.46685570452E+02 -0.14300516058E+03  0.23985387108E+03  0.17300000000E+03 0.  1.
</event>
<event>
 4    1  0.5900714E+000  0.1000000E+03  0.7546771E-02  0.1280296E+00
         21   -1    0    0  503  502  0.00000000000E+00  0.00000000000E+00  0.60629785456E+03  0.60629785456E+03  0.00000000000E+00 0. -1.
         21   -1    0    0  501  503 -0.00000000000E+00 -0.00000000000E+00 -0.80134033690E+02  0.80134033690E+02  0.00000000000E+00 0. -1.
          6    1    1    2  501    0  0.12826548029E+03 -0.28659531325E+02  0.20518192803E+03  0.29883444540E+03  0.17300000000E+03 0. -1.
         -6    1    1    2    0  502 -0.12826548029E+03  0.28659531325E+02  0.32098189284E+03  0.38759744285E+03  0.17300000000E+03 0. -1.
</event>
<event>
 4    1  0.5900714E+000  0.1000000E+03  0.7546771E-02  0.1280296E+00
         21   -1    0    0  501  502  0.00000000000E+00  0.00000000000E+00  0.42972193383E+03  0.42972193383E+03  0.00000000000E+00 0.  1.
         21   -1    0    0  502  503 -0.00000000000E+00 -0.00000000000E+00 -0.14729569607E+03  0.14729569607E+03  0.00000000000E+00 0. -1.
          6    1    1    2  501    0 -0.53091654560E+02 -0.14083823781E+03  0.25990664522E+03  0.34660438145E+03  0.17300000000E+03 0.  1.
         -6    1    1    2    0  503  0.53091654560E+02  0.14083823781E+03  0.22519592548E+02  0.23041324845E+03  0.17300000000E+03 0.  1.
</event>
<event>
 4    1  0.5900714E+000  0.1000000E+03  0.7546771E-02  0.1280296E+00
         21   -1    0    0  501  502  0.00000000000E+00  0.00000000000E+00  0.18274745178E+03  0.18274745178E+03  0.00000000000E+00 0.  1.
         21   -1    0    0  502  503 -0.00000000000E+00 -0.00000000000E+00 -0.25419432704E+03  0.25419432704E+03  0.00000000000E+00 0. -1.
          6    1    1    2  501    0  0.63239451864E+02  0.75725784976E+02  0.47806782100E+02  0.20481238048E+03  0.17300000000E+03 0.  1.
         -6    1    1    2    0  503 -0.63239451864E+02 -0.75725784976E+02 -0.11925365735E+03  0.23212939834E+03  0.17300000000E+03 0.  1.
</event>
<event>
 4    1  0.5900714E+000  0.1000000E+03  0.7546771E-02  0.1280296E+00
         21   -1    0    0  501  502  0.00000000000E+00  0.00000000000E+00  0.27382161403E+03  0.27382161403E+03  0.00000000000E+00 0.  1.
         21   -1    0    0  502  503 -0.00000000000E+00 -0.00000000000E+00 -0.34017365657E+03  0.34017365657E+03  0.00000000000E+00 0.  1.
          6    1    1    2  501    0  0.15357448855E+03 -0.11582135374E+03  0.12969813642E+03  0.28939646872E+03  0.17300000000E+03 0.  1.
         -6    1    1    2    0  503 -0.15357448855E+03  0.11582135374E+03 -0.19605017896E+03  0.32459880188E+03  0.17300000000E+03 0.  1.
</event>
<event>
 4    1  0.5900714E+000  0.1000000E+03  0.7546771E-02  0.1280296E+00
         21   -1    0    0  501  502  0.00000000000E+00  0.00000000000E+00  0.33922757071E+03  0.33922757071E+03  0.00000000000E+00 0.  1.
         21   -1    0    0  502  503 -0.00000000000E+00 -0.00000000000E+00 -0.11349791968E+03  0.11349791968E+03  0.00000000000E+00 0.  1.
          6    1    1    2  501    0  0.72969488683E+02  0.56931448124E+02  0.10983723909E+03  0.22485318578E+03  0.17300000000E+03 0.  1.
         -6    1    1    2    0  503 -0.72969488683E+02 -0.56931448124E+02  0.11589241194E+03  0.22787230461E+03  0.17300000000E+03 0.  1.
</event>
<event>
 4    1  0.5900714E+000  0.1000000E+03  0.7546771E-02  0.1280296E+00
         21   -1    0    0  501  502  0.00000000000E+00  0.00000000000E+00  0.17659728422E+04  0.17659728422E+04  0.00000000000E+00 0.  1.
         21   -1    0    0  502  503 -0.00000000000E+00 -0.00000000000E+00 -0.27640434811E+02  0.27640434811E+02  0.00000000000E+00 0.  1.
          6    1    1    2  501    0  0.56773396695E+01  0.11721662452E+03  0.11593676308E+04  0.11780637812E+04  0.17300000000E+03 0.  1.
         -6    1    1    2    0  503 -0.56773396695E+01 -0.11721662452E+03  0.57896477656E+03  0.61554949577E+03  0.17300000000E+03 0.  1.
</event>
<event>
 4    1  0.5900714E+000  0.1000000E+03  0.7546771E-02  0.1280296E+00
         21   -1    0    0  501  502  0.00000000000E+00  0.00000000000E+00  0.66933354084E+02  0.66933354084E+02  0.00000000000E+00 0.  1.
         21   -1    0    0  502  503 -0.00000000000E+00 -0.00000000000E+00 -0.14649454838E+04  0.14649454838E+04  0.00000000000E+00 0.  1.
          6    1    1    2  501    0 -0.19556880344E+03  0.10058351414E+03 -0.35516200966E+03  0.45214295671E+03  0.17300000000E+03 0.  1.
         -6    1    1    2    0  503  0.19556880344E+03 -0.10058351414E+03 -0.10428501200E+04  0.10797358812E+04  0.17300000000E+03 0.  1.
</event>
<event>
 4    1  0.5900714E+000  0.1000000E+03  0.7546771E-02  0.1280296E+00
         21   -1    0    0  503  502  0.00000000000E+00  0.00000000000E+00  0.11844142842E+04  0.11844142842E+04  0.00000000000E+00 0. -1.
         21   -1    0    0  501  503 -0.00000000000E+00 -0.00000000000E+00 -0.10273610561E+03  0.10273610561E+03  0.00000000000E+00 0. -1.
          6    1    1    2  501    0  0.32588986356E+02 -0.15230447598E+03  0.10201527973E+04  0.10463744193E+04  0.17300000000E+03 0. -1.
         -6    1    1    2    0  502 -0.32588986356E+02  0.15230447598E+03  0.61525381248E+02  0.24077597051E+03  0.17300000000E+03 0. -1.
</event>
<event>
 4    1  0.5900714E+000  0.1000000E+03  0.7546771E-02  0.1280296E+00
         21   -1    0    0  503  502  0.00000000000E+00  0.00000000000E+00  0.14351798620E+04  0.14351798620E+04  0.00000000000E+00 0. -1.
         21   -1    0    0  501  503 -0.00000000000E+00 -0.00000000000E+00 -0.51530319914E+02  0.51530319914E+02  0.00000000000E+00 0. -1.
          6    1    1    2  501    0  0.13819618766E+03  0.15770600779E+03  0.67120462592E+03  0.72416436051E+03  0.17300000000E+03 0. -1.
         -6    1    1    2    0  502 -0.13819618766E+03 -0.15770600779E+03  0.71244491620E+03  0.76254582144E+03  0.17300000000E+03 0. -1.
</event>
<event>
 4    1  0.5900714E+000  0.1000000E+03  0.7546771E-02  0.1280296E+00
         21   -1    0    0  503  502  0.00000000000E+00  0.00000000000E+00  0.27675240629E+03  0.27675240629E+03  0.00000000000E+00 0.  1.
         21   -1    0    0  501  503 -0.00000000000E+00 -0.00000000000E+00 -0.20323100231E+03  0.20323100231E+03  0.00000000000E+00 0.  1.
          6    1    1    2  501    0 -0.58777183735E+02 -0.15096859906E+03  0.45190468488E+02  0.24128293282E+03  0.17300000000E+03 0.  1.
         -6    1    1    2    0  502  0.58777183735E+02  0.15096859906E+03  0.28330935497E+02  0.23870047578E+03  0.17300000000E+03 0.  1.
</event>
<event>
 4    1  0.5900714E+000  0.1000000E+03  0.7546771E-02  0.1280296E+00
         21   -1    0    0  501  502  0.00000000000E+00  0.00000000000E+00  0.19081925318E+03  0.19081925318E+03  0.00000000000E+00 0.  1.
         21   -1    0    0  502  503 -0.00000000000E+00 -0.00000000000E+00 -0.21887844424E+03  0.21887844424E+03  0.00000000000E+00 0.  1.
          6    1    1    2  501    0  0.17691161625E+02 -0.10241405688E+03 -0.46286152468E+02  0.20705802123E+03  0.17300000000E+03 0.  1.
         -6    1    1    2    0  503 -0.17691161625E+02  0.10241405688E+03  0.18226961405E+02  0.20263967619E+03  0.17300000000E+03 0.  1.
</event>
<event>
 4    1  0.5900714E+000  0.1000000E+03  0.7546771E-02  0.1280296E+00
         21   -1    0    0  503  502  0.00000000000E+00  0.00000000000E+00  0.21977079802E+03  0.21977079802E+03  0.00000000000E+00 0. -1.
         21   -1    0    0  501  503 -0.00000000000E+00 -0.00000000000E+00 -0.22863865824E+03  0.22863865824E+03  0.00000000000E+00 0.  1.
          6    1    1    2  501    0  0.65996297849E+02 -0.93122108370E+02  0.80975173316E+02  0.22251565583E+03  0.17300000000E+03 0.  1.
         -6    1    1    2    0  502 -0.65996297849E+02  0.93122108370E+02 -0.89843033537E+02  0.22589380043E+03  0.17300000000E+03 0.  1.
</event>
<event>
 4    1  0.5900714E+000  0.1000000E+03  0.7546771E-02  0.1280296E+00
         21   -1    0    0  503  502  0.00000000000E+00  0.00000000000E+00  0.54678251141E+03  0.54678251141E+03  0.00000000000E+00 0. -1.
         21   -1    0    0  501  503 -0.00000000000E+00 -0.00000000000E+00 -0.19942321381E+03  0.19942321381E+03  0.00000000000E+00 0.  1.
          6    1    1    2  501    0 -0.55850991654E+02 -0.37763701304E+02 -0.13485636625E+03  0.22947912743E+03  0.17300000000E+03 0.  1.
         -6    1    1    2    0  502  0.55850991654E+02  0.37763701304E+02  0.48221566385E+03  0.51672659779E+03  0.17300000000E+03 0.  1.
</event>
<event>
 4    1  0.5900714E+000  0.1000000E+03  0.7546771E-02  0.1280296E+00
         21   -1    0    0  503  502  0.00000000000E+00  0.00000000000E+00  0.22405069634E+03  0.22405069634E+03  0.00000000000E+00 0.  1.
         21   -1    0    0  501  503 -0.00000000000E+00 -0.00000000000E+00 -0.15246745675E+04  0.15246745675E+04  0.00000000000E+00 0.  1.
          6    1    1    2  501    0  0.13149220617E+03 -0.14211195843E+03 -0.14336607382E+04  0.14569825398E+04  0.17300000000E+03 0.  1.
         -6    1    1    2    0  502 -0.13149220617E+03  0.14211195843E+03  0.13303686707E+03  0.29174272401E+03  0.17300000000E+03 0.  1.
</event>
<event>
 4    1  0.5900714E+000  0.1000000E+03  0.7546771E-02  0.1280296E+00
         21   -1    0    0  503  502  0.00000000000E+00  0.00000000000E+00  0.12963405793E+03  0.12963405793E+03  0.00000000000E+00 0.  1.
         21   -1    0    0  501  503 -0.00000000000E+00 -0.00000000000E+00 -0.30570321871E+03  0.30570321871E+03  0.00000000000E+00 0.  1.
          6    1    1    2  501    0 -0.45009819544E+02 -0.47961941874E+01 -0.18367999836E+03  0.25635176834E+03  0.17300000000E+03 0.  1.
         -6    1    1    2    0  502  0.45009819544E+02  0.47961941874E+01  0.76108375823E+01  0.17898550830E+03  0.17300000000E+03 0.  1.
</event>
<event>
 4    1  0.5900714E+000  0.1000000E+03  0.7546771E-02  0.1280296E+00
         21   -1    0    0  503  502  0.00000000000E+00  0.00000000000E+00  0.34822341552E+03  0.34822341552E+03  0.00000000000E+00 0.  1.
         21   -1    0    0  501  503 -0.00000000000E+00 -0.00000000000E+00 -0.11563983967E+03  0.11563983967E+03  0.00000000000E+00 0. -1.
          6    1    1    2  501    0  0.73886828249E+02 -0.76800259766E+01  0.36039532862E+02  0.19169270752E+03  0.17300000000E+03 0. -1.
         -6    1    1    2    0  502 -0.73886828249E+02  0.76800259766E+01  0.19654404298E+03  0.27217054767E+03  0.17300000000E+03 0.  1.
</event>
<event>
 4    1  0.5900714E+000  0.1000000E+03  0.7546771E-02  0.1280296E+00
         21   -1    0    0  503  502  0.00000000000E+00  0.00000000000E+00  0.70221570995E+03  0.70221570995E+03  0.00000000000E+00 0. -1.
         21   -1    0    0  501  503 -0.00000000000E+00 -0.00000000000E+00 -0.15364121376E+03  0.15364121376E+03  0.00000000000E+00 0. -1.
          6    1    1    2  501    0 -0.17049194456E+03 -0.21587017987E+03  0.21190391716E+03  0.38794291826E+03  0.17300000000E+03 0. -1.
         -6    1    1    2    0  502  0.17049194456E+03  0.21587017987E+03  0.33667057903E+03  0.46791400546E+03  0.17300000000E+03 0. -1.
</event>
<event>
 4    1  0.5900714E+000  0.1000000E+03  0.7546771E-02  0.1280296E+00
         21   -1    0    0  503  502  0.00000000000E+00  0.00000000000E+00  0.43135285299E+03  0.43135285299E+03  0.00000000000E+00 0. -1.
         21   -1    0    0  501  503 -0.00000000000E+00 -0.00000000000E+00 -0.11158989690E+03  0.11158989690E+03  0.00000000000E+00 0. -1.
          6    1    1    2  501    0 -0.40139815732E+02 -0.35122053723E+02  0.65246952751E+01  0.18115279494E+03  0.17300000000E+03 0. -1.
         -6    1    1    2    0  502  0.40139815732E+02  0.35122053723E+02  0.31323826082E+03  0.36178995495E+03  0.17300000000E+03 0. -1.
</event>
<event>
 4    1  0.5900714E+000  0.1000000E+03  0.7546771E-02  0.1280296E+00
         21   -1    0    0  503  502  0.00000000000E+00  0.00000000000E+00  0.79376056755E+03  0.79376056755E+03  0.00000000000E+00 0. -1.
         21   -1    0    0  501  503 -0.00000000000E+00 -0.00000000000E+00 -0.16900981061E+03  0.16900981061E+03  0.00000000000E+00 0. -1.
          6    1    1    2  501    0 -0.18948788403E+03 -0.23600189046E+03  0.46003174723E+03  0.57720079605E+03  0.17300000000E+03 0. -1.
         -6    1    1    2    0  502  0.18948788403E+03  0.23600189046E+03  0.16471900971E+03  0.38556958212E+03  0.17300000000E+03 0. -1.
</event>
<event>
 4    1  0.5900714E+000  0.1000000E+03  0.7546771E-02  0.1280296E+00
         21   -1    0    0  501  502  0.00000000000E+00  0.00000000000E+00  0.35467049264E+02  0.35467049264E+02  0.00000000000E+00 0.  1.
         21   -1    0    0  502  503 -0.00000000000E+00 -0.00000000000E+00 -0.10846818742E+04  0.10846818742E+04  0.00000000000E+00 0.  1.
          6    1    1    2  501    0  0.39011848722E+02  0.71287127046E+02 -0.39891072792E+03  0.44233759469E+03  0.17300000000E+03 0.  1.
         -6    1    1    2    0  503 -0.39011848722E+02 -0.71287127046E+02 -0.65030409702E+03  0.67781132878E+03  0.17300000000E+03 0.  1.
</event>
<event>
 4    1  0.5900714E+000  0.1000000E+03  0.7546771E-02  0.1280296E+00
         21   -1    0    0  501  502  0.00000000000E+00  0.00000000000E+00  0.76700041482E+03  0.76700041482E+03  0.00000000000E+00 0.  1.
         21   -1    0    0  502  503 -0.00000000000E+00 -0.00000000000E+00 -0.78203885261E+02  0.78203885261E+02  0.00000000000E+00 0.  1.
          6    1    1    2  501    0  0.17761771984E+01  0.15115357340E+01  0.64350578155E+03  0.66635886010E+03  0.17300000000E+03 0.  1.
         -6    1    1    2    0  503 -0.17761771984E+01 -0.15115357340E+01  0.45290748005E+02  0.17884543998E+03  0.17300000000E+03 0.  1.
</event>
<event>
 4    1  0.5900714E+000  0.1000000E+03  0.7546771E-02  0.1280296E+00
         21   -1    0    0  503  502  0.00000000000E+00  0.00000000000E+00  0.23976504584E+03  0.23976504584E+03  0.00000000000E+00 0. -1.
         21   -1    0    0  501  503 -0.00000000000E+00 -0.00000000000E+00 -0.15133791657E+03  0.15133791657E+03  0.00000000000E+00 0. -1.
          6    1    1    2  501    0 -0.64863829479E+02  0.43270304227E+02  0.61296448504E+02  0.19941386662E+03  0.17300000000E+03 0. -1.
         -6    1    1    2    0  502  0.64863829479E+02 -0.43270304227E+02  0.27130680769E+02  0.19168909578E+03  0.17300000000E+03 0. -1.
</event>
<event>
 4    1  0.5900714E+000  0.1000000E+03  0.7546771E-02  0.1280296E+00
         21   -1    0    0  503  502  0.00000000000E+00  0.00000000000E+00  0.42219008414E+03  0.42219008414E+03  0.00000000000E+00 0. -1.
         21   -1    0    0  501  503 -0.00000000000E+00 -0.00000000000E+00 -0.74450913990E+03  0.74450913990E+03  0.00000000000E+00 0. -1.
          6    1    1    2  501    0  0.15207796240E+03  0.23022974716E+01 -0.69299623944E+03  0.73027788895E+03  0.17300000000E+03 0. -1.
         -6    1    1    2    0  502 -0.15207796240E+03 -0.23022974716E+01  0.37067718368E+03  0.43642133509E+03  0.17300000000E+03 0. -1.
</event>
<event>
 4    1  0.5900714E+000  0.1000000E+03  0.7546771E-02  0.1280296E+00
         21   -1    0    0  503  502  0.00000000000E+00  0.00000000000E+00  0.78083115429E+02  0.78083115429E+02  0.00000000000E+00 0.  1.
         21   -1    0    0  501  503 -0.00000000000E+00 -0.00000000000E+00 -0.48092121323E+03  0.48092121323E+03  0.00000000000E+00 0. -1.
          6    1    1    2  501    0  0.50659389597E+02 -0.26733979799E+02 -0.10638003820E+03  0.21101372457E+03  0.17300000000E+03 0. -1.
         -6    1    1    2    0  502 -0.50659389597E+02  0.26733979799E+02 -0.29645805960E+03  0.34799060408E+03  0.17300000000E+03 0.  1.
</event>
<event>
 4    1  0.5900714E+000  0.1000000E+03  0.7546771E-02  0.1280296E+00
         21   -1    0    0  503  502  0.00000000000E+00  0.00000000000E+00  0.23018138236E+02  0.23018138236E+02  0.00000000000E+00 0.  1.
         21   -1    0    0  501  503 -0.00000000000E+00 -0.00000000000E+00 -0.23587254591E+04  0.23587254591E+04  0.00000000000E+00 0. -1.
          6    1    1    2  501    0 -0.89177168262E+02  0.99995284393E+02 -0.15771299343E+04  0.15922372480E+04  0.17300000000E+03 0. -1.
         -6    1    1    2    0  502  0.89177168262E+02 -0.99995284393E+02 -0.75857738652E+03  0.78950634929E+03  0.17300000000E+03 0.  1.
</event>
<event>
 4    1  0.5900714E+000  0.1000000E+03  0.7546771E-02  0.1280296E+00
         21   -1    0    0  503  502  0.00000000000E+00  0.00000000000E+00  0.28960584285E+03  0.28960584285E+03  0.00000000000E+00 0. -1.
         21   -1    0    0  501  503 -0.00000000000E+00 -0.00000000000E+00 -0.18929642947E+03  0.18929642947E+03  0.00000000000E+00 0.  1.
          6    1    1    2  501    0 -0.86274097616E+02 -0.39378073214E+01 -0.84877041580E+02  0.21116779687E+03  0.17300000000E+03 0.  1.
         -6    1    1    2    0  502  0.86274097616E+02  0.39378073214E+01  0.18518645496E+03  0.26773447545E+03  0.17300000000E+03 0. -1.
</event>
<event>
 4    1  0.5900714E+000  0.1000000E+03  0.7546771E-02  0.1280296E+00
         21   -1    0    0  503  502  0.00000000000E+00  0.00000000000E+00  0.50060318786E+02  0.50060318786E+02  0.00000000000E+00 0. -1.
         21   -1    0    0  501  503 -0.00000000000E+00 -0.00000000000E+00 -0.68646246230E+03  0.68646246230E+03  0.00000000000E+00 0.  1.
          6    1    1    2  501    0 -0.38352299394E+02 -0.51431119450E+02 -0.28269386099E+03  0.33758092061E+03  0.17300000000E+03 0.  1.
         -6    1    1    2    0  502  0.38352299394E+02  0.51431119450E+02 -0.35370828252E+03  0.39894186048E+03  0.17300000000E+03 0. -1.
</event>
<event>
 4    1  0.5900714E+000  0.1000000E+03  0.7546771E-02  0.1280296E+00
         21   -1    0    0  503  502  0.00000000000E+00  0.00000000000E+00  0.61016001804E+03  0.61016001804E+03  0.00000000000E+00 0.  1.
         21   -1    0    0  501  503 -0.00000000000E+00 -0.00000000000E+00 -0.59720644184E+02  0.59720644184E+02  0.00000000000E+00 0.  1.
          6    1    1    2  501    0  0.16552249779E+02 -0.36400077987E+02  0.15225584158E+03  0.23390122690E+03  0.17300000000E+03 0. -1.
         -6    1    1    2    0  502 -0.16552249779E+02  0.36400077987E+02  0.39818353228E+03  0.43597943533E+03  0.17300000000E+03 0. -1.
</event>
<event>
 4    1  0.5900714E+000  0.1000000E+03  0.7546771E-02  0.1280296E+00
         21   -1    0    0  503  502  0.00000000000E+00  0.00000000000E+00  0.27896793384E+03  0.27896793384E+03  0.00000000000E+00 0.  1.
         21   -1    0    0  501  503 -0.00000000000E+00 -0.00000000000E+00 -0.21943154448E+03  0.21943154448E+03  0.00000000000E+00 0.  1.
          6    1    1    2  501    0  0.10042919161E+03 -0.80527225561E+01 -0.11665735241E+03  0.23170845203E+03  0.17300000000E+03 0. -1.
         -6    1    1    2    0  502 -0.10042919161E+03  0.80527225561E+01  0.17619374177E+03  0.26669102630E+03  0.17300000000E+03 0. -1.
</event>
<event>
 4    1  0.5900714E+000  0.1000000E+03  0.7546771E-02  0.1280296E+00
         21   -1    0    0  503  502  0.00000000000E+00  0.00000000000E+00  0.37602130449E+03  0.37602130449E+03  0.00000000000E+00 0. -1.
         21   -1    0    0  501  503 -0.00000000000E+00 -0.00000000000E+00 -0.28825515183E+03  0.28825515183E+03  0.00000000000E+00 0.  1.
          6    1    1    2  501    0 -0.21027338447E+03 -0.13381846452E+03 -0.85070735839E+02  0.31510047248E+03  0.17300000000E+03 0. -1.
         -6    1    1    2    0  502  0.21027338447E+03  0.13381846452E+03  0.17283688850E+03  0.34917598384E+03  0.17300000000E+03 0.  1.
</event>
<event>
 4    1  0.5900714E+000  0.1000000E+03  0.7546771E-02  0.1280296E+00
         21   -1    0    0  503  502  0.00000000000E+00  0.00000000000E+00  0.29413177549E+03  0.29413177549E+03  0.00000000000E+00 0. -1.
         21   -1    0    0  501  503 -0.00000000000E+00 -0.00000000000E+00 -0.23252362751E+03  0.23252362751E+03  0.00000000000E+00 0.  1.
          6    1    1    2  501    0  0.11349800913E+03  0.60815177486E+02 -0.11814865803E+03  0.24590321121E+03  0.17300000000E+03 0. -1.
         -6    1    1    2    0  502 -0.11349800913E+03 -0.60815177486E+02  0.17975680601E+03  0.28075219179E+03  0.17300000000E+03 0.  1.
</event>
<event>
 4    1  0.5900714E+000  0.1000000E+03  0.7546771E-02  0.1280296E+00
         21   -1    0    0  503  502  0.00000000000E+00  0.00000000000E+00  0.11055005424E+03  0.11055005424E+03  0.00000000000E+00 0. -1.
         21   -1    0    0  501  503 -0.00000000000E+00 -0.00000000000E+00 -0.40836626309E+03  0.40836626309E+03  0.00000000000E+00 0.  1.
          6    1    1    2  501    0 -0.10211567871E+03  0.15853145961E+02 -0.23116006949E+03  0.30666416778E+03  0.17300000000E+03 0. -1.
         -6    1    1    2    0  502  0.10211567871E+03 -0.15853145961E+02 -0.66656139363E+02  0.21225214955E+03  0.17300000000E+03 0.  1.
</event>
<event>
 4    1  0.5900714E+000  0.1000000E+03  0.7546771E-02  0.1280296E+00
         21   -1    0    0  503  502  0.00000000000E+00  0.00000000000E+00  0.29065040820E+03  0.29065040820E+03  0.00000000000E+00 0.  1.
         21   -1    0    0  501  503 -0.00000000000E+00 -0.00000000000E+00 -0.28244329267E+03  0.28244329267E+03  0.00000000000E+00 0.  1.
          6    1    1    2  501    0 -0.13538240986E+03  0.11923736971E+03 -0.13597261821E+03  0.28454085847E+03  0.17300000000E+03 0.  1.
         -6    1    1    2    0  502  0.13538240986E+03 -0.11923736971E+03  0.14417973374E+03  0.28855284240E+03  0.17300000000E+03 0.  1.
</event>
<event>
 4    1  0.5900714E+000  0.1000000E+03  0.7546771E-02  0.1280296E+00
         21   -1    0    0  503  502  0.00000000000E+00  0.00000000000E+00  0.31518276930E+02  0.31518276930E+02  0.00000000000E+00 0.  1.
         21   -1    0    0  501  503 -0.00000000000E+00 -0.00000000000E+00 -0.11214632857E+04  0.11214632857E+04  0.00000000000E+00 0.  1.
          6    1    1    2  501    0 -0.87741127357E+01 -0.36127465683E+02 -0.35018435981E+03  0.39235222019E+03  0.17300000000E+03 0.  1.
         -6    1    1    2    0  502  0.87741127357E+01  0.36127465683E+02 -0.73976064892E+03  0.76062934240E+03  0.17300000000E+03 0.  1.
</event>
<event>
 4    1  0.5900714E+000  0.1000000E+03  0.7546771E-02  0.1280296E+00
         21   -1    0    0  503  502  0.00000000000E+00  0.00000000000E+00  0.70283973465E+03  0.70283973465E+03  0.00000000000E+00 0. -1.
         21   -1    0    0  501  503 -0.00000000000E+00 -0.00000000000E+00 -0.90368421300E+02  0.90368421300E+02  0.00000000000E+00 0.  1.
          6    1    1    2  501    0 -0.92807216665E+02  0.82235157868E+02  0.93875876064E+02  0.23263164179E+03  0.17300000000E+03 0.  1.
         -6    1    1    2    0  502  0.92807216665E+02 -0.82235157868E+02  0.51859543729E+03  0.56057651416E+03  0.17300000000E+03 0. -1.
</event>
<event>
 4    1  0.5900714E+000  0.1000000E+03  0.7546771E-02  0.1280296E+00
         21   -1    0    0  503  502  0.00000000000E+00  0.00000000000E+00  0.97214835073E+03  0.97214835073E+03  0.00000000000E+00 0. -1.
         21   -1    0    0  501  503 -0.00000000000E+00 -0.00000000000E+00 -0.44829817720E+02  0.44829817720E+02  0.00000000000E+00 0.  1.
          6    1    1    2  501    0  0.66281125884E+02 -0.95005371835E+02  0.50084130245E+03  0.54239304804E+03  0.17300000000E+03 0.  1.
         -6    1    1    2    0  502 -0.66281125884E+02  0.95005371835E+02  0.42647723056E+03  0.47458512041E+03  0.17300000000E+03 0. -1.
</event>
<event>
 4    1  0.5900714E+000  0.1000000E+03  0.7546771E-02  0.1280296E+00
         21   -1    0    0  503  502  0.00000000000E+00  0.00000000000E+00  0.15663840781E+03  0.15663840781E+03  0.00000000000E+00 0. -1.
         21   -1    0    0  501  503 -0.00000000000E+00 -0.00000000000E+00 -0.41748581206E+03  0.41748581206E+03  0.00000000000E+00 0.  1.
          6    1    1    2  501    0 -0.48170597858E+02 -0.21944433149E+02 -0.33330229908E+03  0.37923790319E+03  0.17300000000E+03 0.  1.
         -6    1    1    2    0  502  0.48170597858E+02  0.21944433149E+02  0.72454894829E+02  0.19488631668E+03  0.17300000000E+03 0. -1.
</event>
<event>
 4    1  0.5900714E+000  0.1000000E+03  0.7546771E-02  0.1280296E+00
         21   -1    0    0  501  502  0.00000000000E+00  0.00000000000E+00  0.61198462147E+02  0.61198462147E+02  0.00000000000E+00 0. -1.
         21   -1    0    0  502  503 -0.00000000000E+00 -0.00000000000E+00 -0.64990585618E+03  0.64990585618E+03  0.00000000000E+00 0. -1.
          6    1    1    2  501    0  0.97490834293E+02  0.55925791791E+00 -0.26150604602E+03  0.32835832203E+03  0.17300000000E+03 0. -1.
         -6    1    1    2    0  503 -0.97490834293E+02 -0.55925791791E+00 -0.32720134802E+03  0.38274599630E+03  0.17300000000E+03 0. -1.
</event>
<event>
 4    1  0.5900714E+000  0.1000000E+03  0.7546771E-02  0.1280296E+00
         21   -1    0    0  501  502  0.00000000000E+00  0.00000000000E+00  0.42747957465E+02  0.42747957465E+02  0.00000000000E+00 0. -1.
         21   -1    0    0  502  503 -0.00000000000E+00 -0.00000000000E+00 -0.15531362158E+04  0.15531362158E+04  0.00000000000E+00 0.  1.
          6    1    1    2  501    0  0.18592092987E+03 -0.35104091400E+02 -0.83508307582E+03  0.87355116216E+03  0.17300000000E+03 0. -1.
         -6    1    1    2    0  503 -0.18592092987E+03  0.35104091400E+02 -0.67530518256E+03  0.72233301115E+03  0.17300000000E+03 0. -1.
</event>
<event>
 4    1  0.5900714E+000  0.1000000E+03  0.7546771E-02  0.1280296E+00
         21   -1    0    0  501  502  0.00000000000E+00  0.00000000000E+00  0.77875768672E+03  0.77875768672E+03  0.00000000000E+00 0. -1.
         21   -1    0    0  502  503 -0.00000000000E+00 -0.00000000000E+00 -0.13536986454E+04  0.13536986454E+04  0.00000000000E+00 0.  1.
          6    1    1    2  501    0  0.90349071768E+02  0.84220989378E+03  0.28771941285E+03  0.91114868188E+03  0.17300000000E+03 0. -1.
         -6    1    1    2    0  503 -0.90349071768E+02 -0.84220989378E+03 -0.86266037154E+03  0.12213076503E+04  0.17300000000E+03 0. -1.
</event>
<event>
 4    1  0.5900714E+000  0.1000000E+03  0.7546771E-02  0.1280296E+00
         21   -1    0    0  501  502  0.00000000000E+00  0.00000000000E+00  0.47695247090E+02  0.47695247090E+02  0.00000000000E+00 0. -1.
         21   -1    0    0  502  503 -0.00000000000E+00 -0.00000000000E+00 -0.12379785754E+04  0.12379785754E+04  0.00000000000E+00 0.  1.
          6    1    1    2  501    0  0.15433589463E+03  0.67364119681E+02 -0.66803454111E+03  0.71032150545E+03  0.17300000000E+03 0. -1.
         -6    1    1    2    0  503 -0.15433589463E+03 -0.67364119681E+02 -0.52224878722E+03  0.57535231706E+03  0.17300000000E+03 0. -1.
</event>
<event>
 4    1  0.5900714E+000  0.1000000E+03  0.7546771E-02  0.1280296E+00
         21   -1    0    0  501  502  0.00000000000E+00  0.00000000000E+00  0.39283932257E+03  0.39283932257E+03  0.00000000000E+00 0. -1.
         21   -1    0    0  502  503 -0.00000000000E+00 -0.00000000000E+00 -0.95240547725E+03  0.95240547725E+03  0.00000000000E+00 0.  1.
          6    1    1    2  501    0  0.14455590510E+03  0.35947947837E+02  0.34423543109E+03  0.41305652963E+03  0.17300000000E+03 0. -1.
         -6    1    1    2    0  503 -0.14455590510E+03 -0.35947947837E+02 -0.90380158576E+03  0.93218827019E+03  0.17300000000E+03 0. -1.
</event>
<event>
 4    1  0.5900714E+000  0.1000000E+03  0.7546771E-02  0.1280296E+00
         21   -1    0    0  503  502  0.00000000000E+00  0.00000000000E+00  0.18644426890E+03  0.18644426890E+03  0.00000000000E+00 0. -1.
         21   -1    0    0  501  503 -0.00000000000E+00 -0.00000000000E+00 -0.60957436048E+03  0.60957436048E+03  0.00000000000E+00 0. -1.
          6    1    1    2  501    0  0.24114401078E+02  0.17512261288E+03 -0.48200708135E+03  0.54176494936E+03  0.17300000000E+03 0. -1.
         -6    1    1    2    0  502 -0.24114401078E+02 -0.17512261288E+03  0.58876989768E+02  0.25425368003E+03  0.17300000000E+03 0. -1.
</event>
<event>
 4    1  0.5900714E+000  0.1000000E+03  0.7546771E-02  0.1280296E+00
         21   -1    0    0  501  502  0.00000000000E+00  0.00000000000E+00  0.12521144090E+03  0.12521144090E+03  0.00000000000E+00 0.  1.
         21   -1    0    0  502  503 -0.00000000000E+00 -0.00000000000E+00 -0.62303801770E+03  0.62303801770E+03  0.00000000000E+00 0.  1.
          6    1    1    2  501    0 -0.12983901251E+03  0.16495059208E+02 -0.13254782775E+02  0.21733601959E+03  0.17300000000E+03 0.  1.
         -6    1    1    2    0  503  0.12983901251E+03 -0.16495059208E+02 -0.48457179403E+03  0.53091343901E+03  0.17300000000E+03 0.  1.
</event>
<event>
 4    1  0.5900714E+000  0.1000000E+03  0.7546771E-02  0.1280296E+00
         21   -1    0    0  501  502  0.00000000000E+00  0.00000000000E+00  0.94189365613E+02  0.94189365613E+02  0.00000000000E+00 0.  1.
         21   -1    0    0  502  503 -0.00000000000E+00 -0.00000000000E+00 -0.55439549614E+03  0.55439549614E+03  0.00000000000E+00 0.  1.
          6    1    1    2  501    0  0.12957805434E+02 -0.71597933120E+02 -0.45096771399E+02  0.19302043296E+03  0.17300000000E+03 0.  1.
         -6    1    1    2    0  503 -0.12957805434E+02  0.71597933120E+02 -0.41510935913E+03  0.45556442880E+03  0.17300000000E+03 0.  1.
</event>
<event>
 4    1  0.5900714E+000  0.1000000E+03  0.7546771E-02  0.1280296E+00
         21   -1    0    0  501  502  0.00000000000E+00  0.00000000000E+00  0.42512160841E+03  0.42512160841E+03  0.00000000000E+00 0.  1.
         21   -1    0    0  502  503 -0.00000000000E+00 -0.00000000000E+00 -0.12160580996E+03  0.12160580996E+03  0.00000000000E+00 0.  1.
          6    1    1    2  501    0 -0.69613863580E+02 -0.13007336305E+03  0.14964524889E+03  0.27219087107E+03  0.17300000000E+03 0.  1.
         -6    1    1    2    0  503  0.69613863580E+02  0.13007336305E+03  0.15387054957E+03  0.27453654730E+03  0.17300000000E+03 0.  1.
</event>
<event>
 4    1  0.5900714E+000  0.1000000E+03  0.7546771E-02  0.1280296E+00
         21   -1    0    0  501  502  0.00000000000E+00  0.00000000000E+00  0.37053268022E+03  0.37053268022E+03  0.00000000000E+00 0.  1.
         21   -1    0    0  502  503 -0.00000000000E+00 -0.00000000000E+00 -0.22335585451E+03  0.22335585451E+03  0.00000000000E+00 0.  1.
          6    1    1    2  501    0  0.60732663232E+02 -0.20130811868E+03  0.16941190977E+03  0.32069114457E+03  0.17300000000E+03 0.  1.
         -6    1    1    2    0  503 -0.60732663232E+02  0.20130811868E+03 -0.22235084052E+02  0.27319739017E+03  0.17300000000E+03 0.  1.
</event>
<event>
 4    1  0.5900714E+000  0.1000000E+03  0.7546771E-02  0.1280296E+00
         21   -1    0    0  503  502  0.00000000000E+00  0.00000000000E+00  0.90677534975E+02  0.90677534975E+02  0.00000000000E+00 0.  1.
         21   -1    0    0  501  503 -0.00000000000E+00 -0.00000000000E+00 -0.79937108908E+03  0.79937108908E+03  0.00000000000E+00 0. -1.
          6    1    1    2  501    0 -0.17491001122E+03 -0.34554674081E+02 -0.18281818871E+03  0.30844615032E+03  0.17300000000E+03 0. -1.
         -6    1    1    2    0  502  0.17491001122E+03  0.34554674081E+02 -0.52587536540E+03  0.58160247374E+03  0.17300000000E+03 0.  1.
</event>
<event>
 4    1  0.5900714E+000  0.1000000E+03  0.7546771E-02  0.1280296E+00
         21   -1    0    0  503  502  0.00000000000E+00  0.00000000000E+00  0.15007397367E+02  0.15007397367E+02  0.00000000000E+00 0.  1.
         21   -1    0    0  501  503 -0.00000000000E+00 -0.00000000000E+00 -0.29434215815E+04  0.29434215815E+04  0.00000000000E+00 0. -1.
          6    1    1    2  501    0 -0.11087830799E+03  0.43084892987E+02 -0.13960469101E+04  0.14117458279E+04  0.17300000000E+03 0. -1.
         -6    1    1    2    0  502  0.11087830799E+03 -0.43084892987E+02 -0.15323672740E+04  0.15466831510E+04  0.17300000000E+03 0.  1.
</event>
<event>
 4    1  0.5900714E+000  0.1000000E+03  0.7546771E-02  0.1280296E+00
         21   -1    0    0  503  502  0.00000000000E+00  0.00000000000E+00  0.89435993598E+02  0.89435993598E+02  0.00000000000E+00 0.  1.
         21   -1    0    0  501  503 -0.00000000000E+00 -0.00000000000E+00 -0.15885116001E+04  0.15885116001E+04  0.00000000000E+00 0.  1.
          6    1    1    2  501    0  0.15961444664E+03 -0.50833186912E+02 -0.13949605011E+04  0.14155933682E+04  0.17300000000E+03 0.  1.
         -6    1    1    2    0  502 -0.15961444664E+03  0.50833186912E+02 -0.10411510541E+03  0.26235422551E+03  0.17300000000E+03 0.  1.
</event>
<event>
 4    1  0.5900714E+000  0.1000000E+03  0.7546771E-02  0.1280296E+00
         21   -1    0    0  501  502  0.00000000000E+00  0.00000000000E+00  0.56754424013E+02  0.56754424013E+02  0.00000000000E+00 0. -1.
         21   -1    0    0  502  503 -0.00000000000E+00 -0.00000000000E+00 -0.13110763435E+04  0.13110763435E+04  0.00000000000E+00 0.  1.
          6    1    1    2  501    0 -0.16429640673E+03  0.24206310306E+02 -0.30121442583E+03  0.38501738279E+03  0.17300000000E+03 0. -1.
         -6    1    1    2    0  503  0.16429640673E+03 -0.24206310306E+02 -0.95310749363E+03  0.98281338470E+03  0.17300000000E+03 0.  1.
</event>
<event>
 4    1  0.5900714E+000  0.1000000E+03  0.7546771E-02  0.1280296E+00
         21   -1    0    0  501  502  0.00000000000E+00  0.00000000000E+00  0.75368497138E+03  0.75368497138E+03  0.00000000000E+00 0. -1.
         21   -1    0    0  502  503 -0.00000000000E+00 -0.00000000000E+00 -0.59195632615E+02  0.59195632615E+02  0.00000000000E+00 0.  1.
          6    1    1    2  501    0  0.78953408494E+02  0.29511696668E+02  0.51478841011E+03  0.54958228514E+03  0.17300000000E+03 0. -1.
         -6    1    1    2    0  503 -0.78953408494E+02 -0.29511696668E+02  0.17970092865E+03  0.26329831885E+03  0.17300000000E+03 0.  1.
</event>
<event>
 4    1  0.5900714E+000  0.1000000E+03  0.7546771E-02  0.1280296E+00
         21   -1    0    0  503  502  0.00000000000E+00  0.00000000000E+00  0.26128330282E+04  0.26128330282E+04  0.00000000000E+00 0.  1.
         21   -1    0    0  501  503 -0.00000000000E+00 -0.00000000000E+00 -0.15976758004E+02  0.15976758004E+02  0.00000000000E+00 0.  1.
          6    1    1    2  501    0 -0.60056210572E+02 -0.42154873458E+02  0.78249202578E+03  0.80474005256E+03  0.17300000000E+03 0.  1.
         -6    1    1    2    0  502  0.60056210572E+02  0.42154873458E+02  0.18143642444E+04  0.18240697336E+04  0.17300000000E+03 0.  1.
</event>
<event>
 4    1  0.5900714E+000  0.1000000E+03  0.7546771E-02  0.1280296E+00
         21   -1    0    0  503  502  0.00000000000E+00  0.00000000000E+00  0.14064814572E+04  0.14064814572E+04  0.00000000000E+00 0. -1.
         21   -1    0    0  501  503 -0.00000000000E+00 -0.00000000000E+00 -0.31746378378E+02  0.31746378378E+02  0.00000000000E+00 0. -1.
          6    1    1    2  501    0  0.37149461925E+02  0.10301406494E+03  0.50956332814E+03  0.54915914404E+03  0.17300000000E+03 0. -1.
         -6    1    1    2    0  502 -0.37149461925E+02 -0.10301406494E+03  0.86517175071E+03  0.88906869156E+03  0.17300000000E+03 0. -1.
</event>
<event>
 4    1  0.5900714E+000  0.1000000E+03  0.7546771E-02  0.1280296E+00
         21   -1    0    0  503  502  0.00000000000E+00  0.00000000000E+00  0.27703012502E+03  0.27703012502E+03  0.00000000000E+00 0.  1.
         21   -1    0    0  501  503 -0.00000000000E+00 -0.00000000000E+00 -0.30171017898E+03  0.30171017898E+03  0.00000000000E+00 0.  1.
          6    1    1    2  501    0 -0.15341636856E+03 -0.16784702700E+03  0.31797766171E+02  0.28748792070E+03  0.17300000000E+03 0.  1.
         -6    1    1    2    0  502  0.15341636856E+03  0.16784702700E+03 -0.56477820133E+02  0.29125238331E+03  0.17300000000E+03 0.  1.
</event>
<event>
 4    1  0.5900714E+000  0.1000000E+03  0.7546771E-02  0.1280296E+00
         21   -1    0    0  503  502  0.00000000000E+00  0.00000000000E+00  0.12835228966E+03  0.12835228966E+03  0.00000000000E+00 0.  1.
         21   -1    0    0  501  503 -0.00000000000E+00 -0.00000000000E+00 -0.26049277125E+03  0.26049277125E+03  0.00000000000E+00 0.  1.
          6    1    1    2  501    0 -0.76485674722E+01 -0.35407800621E+02 -0.16270314401E+02  0.17749911566E+03  0.17300000000E+03 0.  1.
         -6    1    1    2    0  502  0.76485674722E+01  0.35407800621E+02 -0.11587016719E+03  0.21134594525E+03  0.17300000000E+03 0.  1.
</event>
<event>
 4    1  0.5900714E+000  0.1000000E+03  0.7546771E-02  0.1280296E+00
         21   -1    0    0  503  502  0.00000000000E+00  0.00000000000E+00  0.39697495607E+02  0.39697495607E+02  0.00000000000E+00 0.  1.
         21   -1    0    0  501  503 -0.00000000000E+00 -0.00000000000E+00 -0.22210150898E+04  0.22210150898E+04  0.00000000000E+00 0.  1.
          6    1    1    2  501    0 -0.11914090907E+02 -0.11404806450E+03 -0.18990138601E+04  0.19103223675E+04  0.17300000000E+03 0.  1.
         -6    1    1    2    0  502  0.11914090907E+02  0.11404806450E+03 -0.28230373405E+03  0.35039021795E+03  0.17300000000E+03 0.  1.
</event>
<event>
 4    1  0.5900714E+000  0.1000000E+03  0.7546771E-02  0.1280296E+00
         21   -1    0    0  501  502  0.00000000000E+00  0.00000000000E+00  0.30692413714E+03  0.30692413714E+03  0.00000000000E+00 0. -1.
         21   -1    0    0  502  503 -0.00000000000E+00 -0.00000000000E+00 -0.16800293561E+03  0.16800293561E+03  0.00000000000E+00 0. -1.
          6    1    1    2  501    0  0.90965205207E+02 -0.98405032978E+02  0.13287181464E+03  0.25601198839E+03  0.17300000000E+03 0. -1.
         -6    1    1    2    0  503 -0.90965205207E+02  0.98405032978E+02  0.60493868875E+01  0.21891508435E+03  0.17300000000E+03 0. -1.
</event>
<event>
 4    1  0.5900714E+000  0.1000000E+03  0.7546771E-02  0.1280296E+00
         21   -1    0    0  501  502  0.00000000000E+00  0.00000000000E+00  0.27436571748E+03  0.27436571748E+03  0.00000000000E+00 0. -1.
         21   -1    0    0  502  503 -0.00000000000E+00 -0.00000000000E+00 -0.13115322795E+03  0.13115322795E+03  0.00000000000E+00 0. -1.
          6    1    1    2  501    0  0.26542832073E+01 -0.74853908284E+02  0.49063462905E+02  0.19479829619E+03  0.17300000000E+03 0. -1.
         -6    1    1    2    0  503 -0.26542832073E+01  0.74853908284E+02  0.94149026618E+02  0.21072064924E+03  0.17300000000E+03 0. -1.
</event>
<event>
 4    1  0.5900714E+000  0.1000000E+03  0.7546771E-02  0.1280296E+00
         21   -1    0    0  501  502  0.00000000000E+00  0.00000000000E+00  0.36603489226E+02  0.36603489226E+02  0.00000000000E+00 0. -1.
         21   -1    0    0  502  503 -0.00000000000E+00 -0.00000000000E+00 -0.21862014444E+04  0.21862014444E+04  0.00000000000E+00 0. -1.
          6    1    1    2  501    0  0.17436970909E+03 -0.55759466424E+02 -0.56891235579E+03  0.62217697010E+03  0.17300000000E+03 0. -1.
         -6    1    1    2    0  503 -0.17436970909E+03  0.55759466424E+02 -0.15806855994E+04  0.16006279636E+04  0.17300000000E+03 0. -1.
</event>
<event>
 4    1  0.5900714E+000  0.1000000E+03  0.7546771E-02  0.1280296E+00
         21   -1    0    0  501  502  0.00000000000E+00  0.00000000000E+00  0.82392068864E+03  0.82392068864E+03  0.00000000000E+00 0. -1.
         21   -1    0    0  502  503 -0.00000000000E+00 -0.00000000000E+00 -0.10735370961E+03  0.10735370961E+03  0.00000000000E+00 0. -1.
          6    1    1    2  501    0  0.15646495797E+03  0.79213239831E+02  0.61917051735E+03  0.66637613252E+03  0.17300000000E+03 0. -1.
         -6    1    1    2    0  503 -0.15646495797E+03 -0.79213239831E+02  0.97396461682E+02  0.26489826573E+03  0.17300000000E+03 0. -1.
</event>
<event>
 4    1  0.5900714E+000  0.1000000E+03  0.7546771E-02  0.1280296E+00
         21   -1    0    0  501  502  0.00000000000E+00  0.00000000000E+00  0.11294129025E+04  0.11294129025E+04  0.00000000000E+00 0. -1.
         21   -1    0    0  502  503 -0.00000000000E+00 -0.00000000000E+00 -0.66058789917E+02  0.66058789917E+02  0.00000000000E+00 0. -1.
          6    1    1    2  501    0 -0.12264409785E+03 -0.91248266631E+01  0.90788189610E+03  0.93236440004E+03  0.17300000000E+03 0. -1.
         -6    1    1    2    0  503  0.12264409785E+03  0.91248266631E+01  0.15547221647E+03  0.26310729236E+03  0.17300000000E+03 0. -1.
</event>
<event>
 4    1  0.5900714E+000  0.1000000E+03  0.7546771E-02  0.1280296E+00
         21   -1    0    0  503  502  0.00000000000E+00  0.00000000000E+00  0.16227279050E+03  0.16227279050E+03  0.00000000000E+00 0.  1.
         21   -1    0    0  501  503 -0.00000000000E+00 -0.00000000000E+00 -0.37754921394E+03  0.37754921394E+03  0.00000000000E+00 0.  1.
          6    1    1    2  501    0  0.11341071418E+03 -0.13215357674E+03 -0.14230064362E+03  0.28373408521E+03  0.17300000000E+03 0.  1.
         -6    1    1    2    0  502 -0.11341071418E+03  0.13215357674E+03 -0.72975779825E+02  0.25608791923E+03  0.17300000000E+03 0.  1.
</event>
<event>
 4    1  0.5900714E+000  0.1000000E+03  0.7546771E-02  0.1280296E+00
         21   -1    0    0  503  502  0.00000000000E+00  0.00000000000E+00  0.43907242746E+02  0.43907242746E+02  0.00000000000E+00 0.  1.
         21   -1    0    0  501  503 -0.00000000000E+00 -0.00000000000E+00 -0.15892405010E+04  0.15892405010E+04  0.00000000000E+00 0.  1.
          6    1    1    2  501    0  0.28326995605E+02 -0.14265247333E+01 -0.13834951030E+04  0.13945580496E+04  0.17300000000E+03 0.  1.
         -6    1    1    2    0  502 -0.28326995605E+02  0.14265247333E+01 -0.16183815520E+03  0.23858969410E+03  0.17300000000E+03 0.  1.
</event>
<event>
 4    1  0.5900714E+000  0.1000000E+03  0.7546771E-02  0.1280296E+00
         21   -1    0    0  503  502  0.00000000000E+00  0.00000000000E+00  0.54224086932E+03  0.54224086932E+03  0.00000000000E+00 0.  1.
         21   -1    0    0  501  503 -0.00000000000E+00 -0.00000000000E+00 -0.21685794280E+03  0.21685794280E+03  0.00000000000E+00 0.  1.
          6    1    1    2  501    0 -0.10193091356E+03 -0.33774668345E+02 -0.14270309881E+03  0.24864394980E+03  0.17300000000E+03 0.  1.
         -6    1    1    2    0  502  0.10193091356E+03  0.33774668345E+02  0.46808602533E+03  0.51045486232E+03  0.17300000000E+03 0.  1.
</event>
<event>
 4    1  0.5900714E+000  0.1000000E+03  0.7546771E-02  0.1280296E+00
         21   -1    0    0  503  502  0.00000000000E+00  0.00000000000E+00  0.29776296984E+03  0.29776296984E+03  0.00000000000E+00 0.  1.
         21   -1    0    0  501  503 -0.00000000000E+00 -0.00000000000E+00 -0.22793000718E+03  0.22793000718E+03  0.00000000000E+00 0.  1.
          6    1    1    2  501    0  0.14195248414E+02  0.27978659013E+02  0.22887435730E+03  0.28861181866E+03  0.17300000000E+03 0.  1.
         -6    1    1    2    0  502 -0.14195248414E+02 -0.27978659013E+02 -0.15904139465E+03  0.23708115836E+03  0.17300000000E+03 0.  1.
</event>
<event>
 4    1  0.5900714E+000  0.1000000E+03  0.7546771E-02  0.1280296E+00
         21   -1    0    0  501  502  0.00000000000E+00  0.00000000000E+00  0.96176328588E+03  0.96176328588E+03  0.00000000000E+00 0. -1.
         21   -1    0    0  502  503 -0.00000000000E+00 -0.00000000000E+00 -0.70860052327E+02  0.70860052327E+02  0.00000000000E+00 0. -1.
          6    1    1    2  501    0  0.11725003550E+03 -0.24176177612E+02  0.75114144505E+03  0.78004777345E+03  0.17300000000E+03 0. -1.
         -6    1    1    2    0  503 -0.11725003550E+03  0.24176177612E+02  0.13976178851E+03  0.25257556476E+03  0.17300000000E+03 0. -1.
</event>
<event>
 4    1  0.5900714E+000  0.1000000E+03  0.7546771E-02  0.1280296E+00
         21   -1    0    0  501  502  0.00000000000E+00  0.00000000000E+00  0.17979881977E+03  0.17979881977E+03  0.00000000000E+00 0. -1.
         21   -1    0    0  502  503 -0.00000000000E+00 -0.00000000000E+00 -0.23819581865E+03  0.23819581865E+03  0.00000000000E+00 0. -1.
          6    1    1    2  501    0  0.27694147702E+02  0.12945976434E+02  0.81263812853E+02  0.19356490230E+03  0.17300000000E+03 0. -1.
         -6    1    1    2    0  503 -0.27694147702E+02 -0.12945976434E+02 -0.13966081173E+03  0.22442973612E+03  0.17300000000E+03 0. -1.
</event>
<event>
 4    1  0.5900714E+000  0.1000000E+03  0.7546771E-02  0.1280296E+00
         21   -1    0    0  501  502  0.00000000000E+00  0.00000000000E+00  0.54762816304E+03  0.54762816304E+03  0.00000000000E+00 0. -1.
         21   -1    0    0  502  503 -0.00000000000E+00 -0.00000000000E+00 -0.90265199010E+02  0.90265199010E+02  0.00000000000E+00 0. -1.
          6    1    1    2  501    0 -0.12298956186E+03  0.43913115544E+02  0.29965856864E+03  0.36983652037E+03  0.17300000000E+03 0. -1.
         -6    1    1    2    0  503  0.12298956186E+03 -0.43913115544E+02  0.15770439539E+03  0.26805684168E+03  0.17300000000E+03 0. -1.
</event>
<event>
 4    1  0.5900714E+000  0.1000000E+03  0.7546771E-02  0.1280296E+00
         21   -1    0    0  501  502  0.00000000000E+00  0.00000000000E+00  0.51699131027E+03  0.51699131027E+03  0.00000000000E+00 0. -1.
         21   -1    0    0  502  503 -0.00000000000E+00 -0.00000000000E+00 -0.17119827831E+03  0.17119827831E+03  0.00000000000E+00 0. -1.
          6    1    1    2  501    0 -0.37510910961E+02 -0.54249455629E+01  0.44937828080E+03  0.48301794763E+03  0.17300000000E+03 0. -1.
         -6    1    1    2    0  503  0.37510910961E+02  0.54249455629E+01 -0.10358524883E+03  0.20517164095E+03  0.17300000000E+03 0. -1.
</event>
<event>
 4    1  0.5900714E+000  0.1000000E+03  0.7546771E-02  0.1280296E+00
         21   -1    0    0  503  502  0.00000000000E+00  0.00000000000E+00  0.20417390499E+03  0.20417390499E+03  0.00000000000E+00 0. -1.
         21   -1    0    0  501  503 -0.00000000000E+00 -0.00000000000E+00 -0.35760895641E+03  0.35760895641E+03  0.00000000000E+00 0. -1.
          6    1    1    2  501    0  0.10488210134E+03 -0.14788291745E+03 -0.18178552645E+03  0.30958777444E+03  0.17300000000E+03 0. -1.
         -6    1    1    2    0  502 -0.10488210134E+03  0.14788291745E+03  0.28350475029E+02  0.25219508696E+03  0.17300000000E+03 0. -1.
</event>
<event>
 4    1  0.5900714E+000  0.1000000E+03  0.7546771E-02  0.1280296E+00
         21   -1    0    0  503  502  0.00000000000E+00  0.00000000000E+00  0.57116781949E+02  0.57116781949E+02  0.00000000000E+00 0. -1.
         21   -1    0    0  501  503 -0.00000000000E+00 -0.00000000000E+00 -0.83453002545E+03  0.83453002545E+03  0.00000000000E+00 0. -1.
          6    1    1    2  501    0  0.77626601873E+02  0.70365769444E+02 -0.55659294977E+03  0.59220093090E+03  0.17300000000E+03 0. -1.
         -6    1    1    2    0  502 -0.77626601873E+02 -0.70365769444E+02 -0.22082029373E+03  0.29944587650E+03  0.17300000000E+03 0. -1.
</event>
<event>
 4    1  0.5900714E+000  0.1000000E+03  0.7546771E-02  0.1280296E+00
         21   -1    0    0  503  502  0.00000000000E+00  0.00000000000E+00  0.35072659520E+03  0.35072659520E+03  0.00000000000E+00 0.  1.
         21   -1    0    0  501  503 -0.00000000000E+00 -0.00000000000E+00 -0.23559365706E+03  0.23559365706E+03  0.00000000000E+00 0. -1.
          6    1    1    2  501    0 -0.19217328720E+03 -0.93822770859E+02 -0.27557443527E+02  0.27644474554E+03  0.17300000000E+03 0. -1.
         -6    1    1    2    0  502  0.19217328720E+03  0.93822770859E+02  0.14269038166E+03  0.30987550672E+03  0.17300000000E+03 0.  1.
</event>
<event>
 4    1  0.5900714E+000  0.1000000E+03  0.7546771E-02  0.1280296E+00
         21   -1    0    0  503  502  0.00000000000E+00  0.00000000000E+00  0.11382851735E+04  0.11382851735E+04  0.00000000000E+00 0.  1.
         21   -1    0    0  501  503 -0.00000000000E+00 -0.00000000000E+00 -0.42843660565E+02  0.42843660565E+02  0.00000000000E+00 0. -1.
          6    1    1    2  501    0  0.23345559367E+01  0.73125467808E+02  0.23715870101E+03  0.30253269850E+03  0.17300000000E+03 0. -1.
         -6    1    1    2    0  502 -0.23345559367E+01 -0.73125467808E+02  0.85828281192E+03  0.87859613556E+03  0.17300000000E+03 0.  1.
</event>
<event>
 4    1  0.5900714E+000  0.1000000E+03  0.7546771E-02  0.1280296E+00
         21   -1    0    0  503  502  0.00000000000E+00  0.00000000000E+00  0.36105839121E+02  0.36105839121E+02  0.00000000000E+00 0.  1.
         21   -1    0    0  501  503 -0.00000000000E+00 -0.00000000000E+00 -0.88609258165E+03  0.88609258165E+03  0.00000000000E+00 0. -1.
          6    1    1    2  501    0  0.16696773790E+02 -0.38715200457E+02 -0.46862521415E+03  0.50131451240E+03  0.17300000000E+03 0. -1.
         -6    1    1    2    0  502 -0.16696773790E+02  0.38715200457E+02 -0.38136152838E+03  0.42088390837E+03  0.17300000000E+03 0.  1.
</event>
<event>
 4    1  0.5900714E+000  0.1000000E+03  0.7546771E-02  0.1280296E+00
         21   -1    0    0  503  502  0.00000000000E+00  0.00000000000E+00  0.33242719413E+03  0.33242719413E+03  0.00000000000E+00 0.  1.
         21   -1    0    0  501  503 -0.00000000000E+00 -0.00000000000E+00 -0.15310568339E+03  0.15310568339E+03  0.00000000000E+00 0. -1.
          6    1    1    2  501    0  0.24887722330E+02  0.40212757806E+02 -0.57613056355E+02  0.18837390710E+03  0.17300000000E+03 0. -1.
         -6    1    1    2    0  502 -0.24887722330E+02 -0.40212757806E+02  0.23693456710E+03  0.29715897042E+03  0.17300000000E+03 0.  1.
</event>
<event>
 4    1  0.5900714E+000  0.1000000E+03  0.7546771E-02  0.1280296E+00
         21   -1    0    0  503  502  0.00000000000E+00  0.00000000000E+00  0.11987266802E+02  0.11987266802E+02  0.00000000000E+00 0.  1.
         21   -1    0    0  501  503 -0.00000000000E+00 -0.00000000000E+00 -0.28498265483E+04  0.28498265483E+04  0.00000000000E+00 0. -1.
          6    1    1    2  501    0  0.11688755754E+02 -0.62393575594E+02 -0.13086034695E+04  0.13215148980E+04  0.17300000000E+03 0. -1.
         -6    1    1    2    0  502 -0.11688755754E+02  0.62393575594E+02 -0.15292358121E+04  0.15402989172E+04  0.17300000000E+03 0.  1.
</event>
<event>
 4    1  0.5900714E+000  0.1000000E+03  0.7546771E-02  0.1280296E+00
         21   -1    0    0  501  502  0.00000000000E+00  0.00000000000E+00  0.12498366124E+03  0.12498366124E+03  0.00000000000E+00 0. -1.
         21   -1    0    0  502  503 -0.00000000000E+00 -0.00000000000E+00 -0.35339144807E+03  0.35339144807E+03  0.00000000000E+00 0. -1.
          6    1    1    2  501    0  0.96611910353E+02  0.54117202903E+02 -0.63604420902E+02  0.21502803359E+03  0.17300000000E+03 0.  1.
         -6    1    1    2    0  503 -0.96611910353E+02 -0.54117202903E+02 -0.16480336593E+03  0.26334707572E+03  0.17300000000E+03 0.  1.
</event>
<event>
 4    1  0.5900714E+000  0.1000000E+03  0.7546771E-02  0.1280296E+00
         21   -1    0    0  501  502  0.00000000000E+00  0.00000000000E+00  0.52561417279E+03  0.52561417279E+03  0.00000000000E+00 0. -1.
         21   -1    0    0  502  503 -0.00000000000E+00 -0.00000000000E+00 -0.17816440328E+03  0.17816440328E+03  0.00000000000E+00 0. -1.
          6    1    1    2  501    0  0.16320952296E+02 -0.85648603454E+02  0.44612060788E+03  0.48636884515E+03  0.17300000000E+03 0.  1.
         -6    1    1    2    0  503 -0.16320952296E+02  0.85648603454E+02 -0.98670838371E+02  0.21740973093E+03  0.17300000000E+03 0.  1.
</event>
<event>
 4    1  0.5900714E+000  0.1000000E+03  0.7546771E-02  0.1280296E+00
         21   -1    0    0  501  502  0.00000000000E+00  0.00000000000E+00  0.15866849677E+04  0.15866849677E+04  0.00000000000E+00 0.  1.
         21   -1    0    0  502  503 -0.00000000000E+00 -0.00000000000E+00 -0.36468180809E+02  0.36468180809E+02  0.00000000000E+00 0.  1.
          6    1    1    2  501    0  0.43479124578E+02  0.60148263424E+02  0.12803575395E+04  0.12941223578E+04  0.17300000000E+03 0.  1.
         -6    1    1    2    0  503 -0.43479124578E+02 -0.60148263424E+02  0.26985924739E+03  0.32903079076E+03  0.17300000000E+03 0.  1.
</event>
<event>
 4    1  0.5900714E+000  0.1000000E+03  0.7546771E-02  0.1280296E+00
         21   -1    0    0  501  502  0.00000000000E+00  0.00000000000E+00  0.88204392896E+03  0.88204392896E+03  0.00000000000E+00 0.  1.
         21   -1    0    0  502  503 -0.00000000000E+00 -0.00000000000E+00 -0.97289410790E+02  0.97289410790E+02  0.00000000000E+00 0.  1.
          6    1    1    2  501    0 -0.17976547765E+03 -0.99780897207E+02  0.58740413472E+03  0.64594463531E+03  0.17300000000E+03 0.  1.
         -6    1    1    2    0  503  0.17976547765E+03  0.99780897207E+02  0.19735038346E+03  0.33338870445E+03  0.17300000000E+03 0.  1.
</event>
<event>
 4    1  0.5900714E+000  0.1000000E+03  0.7546771E-02  0.1280296E+00
         21   -1    0    0  503  502  0.00000000000E+00  0.00000000000E+00  0.59042849454E+03  0.59042849454E+03  0.00000000000E+00 0. -1.
         21   -1    0    0  501  503 -0.00000000000E+00 -0.00000000000E+00 -0.92363562279E+02  0.92363562279E+02  0.00000000000E+00 0. -1.
          6    1    1    2  501    0 -0.12050675246E+03 -0.71678832214E+02  0.14622542910E+03  0.26640309400E+03  0.17300000000E+03 0. -1.
         -6    1    1    2    0  502  0.12050675246E+03  0.71678832214E+02  0.35183950316E+03  0.41638896282E+03  0.17300000000E+03 0. -1.
</event>
<event>
 4    1  0.5900714E+000  0.1000000E+03  0.7546771E-02  0.1280296E+00
         21   -1    0    0  503  502  0.00000000000E+00  0.00000000000E+00  0.40043479854E+03  0.40043479854E+03  0.00000000000E+00 0. -1.
         21   -1    0    0  501  503 -0.00000000000E+00 -0.00000000000E+00 -0.73988699080E+03  0.73988699080E+03  0.00000000000E+00 0. -1.
          6    1    1    2  501    0  0.27277837969E+02 -0.34999027172E+03 -0.56598967880E+03  0.68812105566E+03  0.17300000000E+03 0. -1.
         -6    1    1    2    0  502 -0.27277837969E+02  0.34999027172E+03  0.22653748654E+03  0.45220073369E+03  0.17300000000E+03 0. -1.
</event>
<event>
 4    1  0.5900714E+000  0.1000000E+03  0.7546771E-02  0.1280296E+00
         21   -1    0    0  501  502  0.00000000000E+00  0.00000000000E+00  0.21022916423E+03  0.21022916423E+03  0.00000000000E+00 0. -1.
         21   -1    0    0  502  503 -0.00000000000E+00 -0.00000000000E+00 -0.17367317151E+03  0.17367317151E+03  0.00000000000E+00 0. -1.
          6    1    1    2  501    0 -0.63769461680E+02 -0.45838089213E+02  0.38729981930E+02  0.19389864921E+03  0.17300000000E+03 0. -1.
         -6    1    1    2    0  503  0.63769461680E+02  0.45838089213E+02 -0.21739892049E+01  0.19000368653E+03  0.17300000000E+03 0. -1.
</event>
<event>
 4    1  0.5900714E+000  0.1000000E+03  0.7546771E-02  0.1280296E+00
         21   -1    0    0  501  502  0.00000000000E+00  0.00000000000E+00  0.17684470232E+04  0.17684470232E+04  0.00000000000E+00 0. -1.
         21   -1    0    0  502  503 -0.00000000000E+00 -0.00000000000E+00 -0.50538435948E+02  0.50538435948E+02  0.00000000000E+00 0. -1.
          6    1    1    2  501    0 -0.39876251885E+02  0.16130122873E+03  0.14017803997E+04  0.14221552274E+04  0.17300000000E+03 0. -1.
         -6    1    1    2    0  503  0.39876251885E+02 -0.16130122873E+03  0.31612818751E+03  0.39683023170E+03  0.17300000000E+03 0. -1.
</event>
<event>
 4    1  0.5900714E+000  0.1000000E+03  0.7546771E-02  0.1280296E+00
         21   -1    0    0  503  502  0.00000000000E+00  0.00000000000E+00  0.57671751656E+03  0.57671751656E+03  0.00000000000E+00 0. -1.
         21   -1    0    0  501  503 -0.00000000000E+00 -0.00000000000E+00 -0.16330537283E+03  0.16330537283E+03  0.00000000000E+00 0.  1.
          6    1    1    2  501    0  0.22325611160E+03  0.14277571687E+02  0.63007359177E+02  0.28973447798E+03  0.17300000000E+03 0. -1.
         -6    1    1    2    0  502 -0.22325611160E+03 -0.14277571687E+02  0.35040478455E+03  0.45028841141E+03  0.17300000000E+03 0. -1.
</event>
<event>
 4    1  0.5900714E+000  0.1000000E+03  0.7546771E-02  0.1280296E+00
         21   -1    0    0  503  502  0.00000000000E+00  0.00000000000E+00  0.33337528382E+03  0.33337528382E+03  0.00000000000E+00 0. -1.
         21   -1    0    0  501  503 -0.00000000000E+00 -0.00000000000E+00 -0.15176400610E+03  0.15176400610E+03  0.00000000000E+00 0.  1.
          6    1    1    2  501    0 -0.11631100423E+03 -0.56811182370E+02  0.23375819659E+02  0.21732737769E+03  0.17300000000E+03 0. -1.
         -6    1    1    2    0  502  0.11631100423E+03  0.56811182370E+02  0.15823545806E+03  0.26781191223E+03  0.17300000000E+03 0. -1.
</event>
<event>
 4    1  0.5900714E+000  0.1000000E+03  0.7546771E-02  0.1280296E+00
         21   -1    0    0  501  502  0.00000000000E+00  0.00000000000E+00  0.13396356824E+04  0.13396356824E+04  0.00000000000E+00 0.  1.
         21   -1    0    0  502  503 -0.00000000000E+00 -0.00000000000E+00 -0.75550141231E+02  0.75550141231E+02  0.00000000000E+00 0.  1.
          6    1    1    2  501    0 -0.97326520104E+02 -0.16122137040E+03  0.10529731906E+04  0.10835803255E+04  0.17300000000E+03 0.  1.
         -6    1    1    2    0  503  0.97326520104E+02  0.16122137040E+03  0.21111235054E+03  0.33160549806E+03  0.17300000000E+03 0.  1.
</event>
<event>
 4    1  0.5900714E+000  0.1000000E+03  0.7546771E-02  0.1280296E+00
         21   -1    0    0  501  502  0.00000000000E+00  0.00000000000E+00  0.80087693861E+03  0.80087693861E+03  0.00000000000E+00 0.  1.
         21   -1    0    0  502  503 -0.00000000000E+00 -0.00000000000E+00 -0.10535718882E+03  0.10535718882E+03  0.00000000000E+00 0.  1.
          6    1    1    2  501    0 -0.66848177959E+02  0.53954211214E+02  0.68618671568E+03  0.71285408365E+03  0.17300000000E+03 0.  1.
         -6    1    1    2    0  503  0.66848177959E+02 -0.53954211214E+02  0.93330341142E+01  0.19338004377E+03  0.17300000000E+03 0.  1.
</event>
<event>
 4    1  0.5900714E+000  0.1000000E+03  0.7546771E-02  0.1280296E+00
         21   -1    0    0  501  502  0.00000000000E+00  0.00000000000E+00  0.26166703291E+03  0.26166703291E+03  0.00000000000E+00 0.  1.
         21   -1    0    0  502  503 -0.00000000000E+00 -0.00000000000E+00 -0.20983082458E+03  0.20983082458E+03  0.00000000000E+00 0.  1.
          6    1    1    2  501    0  0.61857123152E+02 -0.13856875160E+03  0.70337180605E+02  0.24063233694E+03  0.17300000000E+03 0.  1.
         -6    1    1    2    0  503 -0.61857123152E+02  0.13856875160E+03 -0.18500972272E+02  0.23086552055E+03  0.17300000000E+03 0.  1.
</event>
<event>
 4    1  0.5900714E+000  0.1000000E+03  0.7546771E-02  0.1280296E+00
         21   -1    0    0  501  502  0.00000000000E+00  0.00000000000E+00  0.69423759487E+02  0.69423759487E+02  0.00000000000E+00 0. -1.
         21   -1    0    0  502  503 -0.00000000000E+00 -0.00000000000E+00 -0.89195476708E+03  0.89195476708E+03  0.00000000000E+00 0. -1.
          6    1    1    2  501    0 -0.42691107543E+02 -0.99720763665E+02 -0.13653576986E+03  0.24563749270E+03  0.17300000000E+03 0. -1.
         -6    1    1    2    0  503  0.42691107543E+02  0.99720763665E+02 -0.68599523773E+03  0.71574103387E+03  0.17300000000E+03 0. -1.
</event>
<event>
 4    1  0.5900714E+000  0.1000000E+03  0.7546771E-02  0.1280296E+00
         21   -1    0    0  501  502  0.00000000000E+00  0.00000000000E+00  0.51954927378E+03  0.51954927378E+03  0.00000000000E+00 0. -1.
         21   -1    0    0  502  503 -0.00000000000E+00 -0.00000000000E+00 -0.75730997527E+02  0.75730997527E+02  0.00000000000E+00 0. -1.
          6    1    1    2  501    0 -0.21516194030E+02  0.76983841643E+02  0.30447209638E+03  0.35919592976E+03  0.17300000000E+03 0. -1.
         -6    1    1    2    0  503  0.21516194030E+02 -0.76983841643E+02  0.13934617987E+03  0.23608434155E+03  0.17300000000E+03 0. -1.
</event>
<event>
 4    1  0.5900714E+000  0.1000000E+03  0.7546771E-02  0.1280296E+00
         21   -1    0    0  501  502  0.00000000000E+00  0.00000000000E+00  0.87038284886E+02  0.87038284886E+02  0.00000000000E+00 0. -1.
         21   -1    0    0  502  503 -0.00000000000E+00 -0.00000000000E+00 -0.44811779982E+03  0.44811779982E+03  0.00000000000E+00 0. -1.
          6    1    1    2  501    0 -0.75672987223E+02  0.36433752547E+02 -0.11963687918E+03  0.22648576596E+03  0.17300000000E+03 0. -1.
         -6    1    1    2    0  503  0.75672987223E+02 -0.36433752547E+02 -0.24144263575E+03  0.30867031875E+03  0.17300000000E+03 0. -1.
</event>
<event>
 4    1  0.5900714E+000  0.1000000E+03  0.7546771E-02  0.1280296E+00
         21   -1    0    0  501  502  0.00000000000E+00  0.00000000000E+00  0.34213960627E+03  0.34213960627E+03  0.00000000000E+00 0.  1.
         21   -1    0    0  502  503 -0.00000000000E+00 -0.00000000000E+00 -0.19773389220E+03  0.19773389220E+03  0.00000000000E+00 0. -1.
          6    1    1    2  501    0 -0.15865692427E+03  0.54910203099E+02  0.17355036104E+03  0.29704524544E+03  0.17300000000E+03 0. -1.
         -6    1    1    2    0  503  0.15865692427E+03 -0.54910203099E+02 -0.29144646970E+02  0.24282825303E+03  0.17300000000E+03 0. -1.
</event>
<event>
 4    1  0.5900714E+000  0.1000000E+03  0.7546771E-02  0.1280296E+00
         21   -1    0    0  503  502  0.00000000000E+00  0.00000000000E+00  0.64867606364E+03  0.64867606364E+03  0.00000000000E+00 0. -1.
         21   -1    0    0  501  503 -0.00000000000E+00 -0.00000000000E+00 -0.10607452247E+03  0.10607452247E+03  0.00000000000E+00 0. -1.
          6    1    1    2  501    0  0.57087364698E+02 -0.45780604535E+02  0.78903091493E+01  0.18800555295E+03  0.17300000000E+03 0. -1.
         -6    1    1    2    0  502 -0.57087364698E+02  0.45780604535E+02  0.53471123203E+03  0.56674503316E+03  0.17300000000E+03 0. -1.
</event>
<event>
 4    1  0.5900714E+000  0.1000000E+03  0.7546771E-02  0.1280296E+00
         21   -1    0    0  501  502  0.00000000000E+00  0.00000000000E+00  0.10254594498E+03  0.10254594498E+03  0.00000000000E+00 0. -1.
         21   -1    0    0  502  503 -0.00000000000E+00 -0.00000000000E+00 -0.59720411616E+03  0.59720411616E+03  0.00000000000E+00 0. -1.
          6    1    1    2  501    0 -0.11308440651E+03 -0.62184598021E+02 -0.76164987256E+02  0.22887794238E+03  0.17300000000E+03 0. -1.
         -6    1    1    2    0  503  0.11308440651E+03  0.62184598021E+02 -0.41849318393E+03  0.47087211875E+03  0.17300000000E+03 0. -1.
</event>
<event>
 4    1  0.5900714E+000  0.1000000E+03  0.7546771E-02  0.1280296E+00
         21   -1    0    0  503  502  0.00000000000E+00  0.00000000000E+00  0.61279540813E+03  0.61279540813E+03  0.00000000000E+00 0. -1.
         21   -1    0    0  501  503 -0.00000000000E+00 -0.00000000000E+00 -0.52714607777E+02  0.52714607777E+02  0.00000000000E+00 0.  1.
          6    1    1    2  501    0 -0.37504337943E+02  0.51090800850E+01  0.22322937459E+03  0.28494390982E+03  0.17300000000E+03 0. -1.
         -6    1    1    2    0  502  0.37504337943E+02 -0.51090800850E+01  0.33685142576E+03  0.38056610609E+03  0.17300000000E+03 0. -1.
</event>
<event>
 4    1  0.5900714E+000  0.1000000E+03  0.7546771E-02  0.1280296E+00
         21   -1    0    0  501  502  0.00000000000E+00  0.00000000000E+00  0.11342922897E+03  0.11342922897E+03  0.00000000000E+00 0.  1.
         21   -1    0    0  502  503 -0.00000000000E+00 -0.00000000000E+00 -0.47868219788E+03  0.47868219788E+03  0.00000000000E+00 0. -1.
          6    1    1    2  501    0  0.98879537512E+02  0.77233393361E+02 -0.64627911423E+02  0.22326649306E+03  0.17300000000E+03 0.  1.
         -6    1    1    2    0  503 -0.98879537512E+02 -0.77233393361E+02 -0.30062505749E+03  0.36884493379E+03  0.17300000000E+03 0. -1.
</event>
<event>
 4    1  0.5900714E+000  0.1000000E+03  0.7546771E-02  0.1280296E+00
         21   -1    0    0  501  502  0.00000000000E+00  0.00000000000E+00  0.93126443265E+02  0.93126443265E+02  0.00000000000E+00 0.  1.
         21   -1    0    0  502  503 -0.00000000000E+00 -0.00000000000E+00 -0.13782432530E+04  0.13782432530E+04  0.00000000000E+00 0. -1.
          6    1    1    2  501    0  0.22976894111E+03 -0.44613287542E+01 -0.20401363248E+03  0.35265313268E+03  0.17300000000E+03 0.  1.
         -6    1    1    2    0  503 -0.22976894111E+03  0.44613287542E+01 -0.10811031772E+04  0.11187165635E+04  0.17300000000E+03 0. -1.
</event>
<event>
 4    1  0.5900714E+000  0.1000000E+03  0.7546771E-02  0.1280296E+00
         21   -1    0    0  501  502  0.00000000000E+00  0.00000000000E+00  0.38348733784E+03  0.38348733784E+03  0.00000000000E+00 0.  1.
         21   -1    0    0  502  503 -0.00000000000E+00 -0.00000000000E+00 -0.27871957227E+03  0.27871957227E+03  0.00000000000E+00 0. -1.
          6    1    1    2  501    0 -0.99316960538E+02 -0.17402917279E+03  0.24668094090E+03  0.36184319565E+03  0.17300000000E+03 0.  1.
         -6    1    1    2    0  503  0.99316960538E+02  0.17402917279E+03 -0.14191317534E+03  0.30036371446E+03  0.17300000000E+03 0. -1.
</event>
<event>
 4    1  0.5900714E+000  0.1000000E+03  0.7546771E-02  0.1280296E+00
         21   -1    0    0  501  502  0.00000000000E+00  0.00000000000E+00  0.48097389155E+02  0.48097389155E+02  0.00000000000E+00 0.  1.
         21   -1    0    0  502  503 -0.00000000000E+00 -0.00000000000E+00 -0.91052037742E+03  0.91052037742E+03  0.00000000000E+00 0. -1.
          6    1    1    2  501    0  0.35633368956E+02  0.16703119631E+02 -0.17703033712E+03  0.25063413864E+03  0.17300000000E+03 0.  1.
         -6    1    1    2    0  503 -0.35633368956E+02 -0.16703119631E+02 -0.68539265114E+03  0.70798362794E+03  0.17300000000E+03 0. -1.
</event>
<event>
 4    1  0.5900714E+000  0.1000000E+03  0.7546771E-02  0.1280296E+00
         21   -1    0    0  503  502  0.00000000000E+00  0.00000000000E+00  0.52552503096E+03  0.52552503096E+03  0.00000000000E+00 0.  1.
         21   -1    0    0  501  503 -0.00000000000E+00 -0.00000000000E+00 -0.29733500588E+03  0.29733500588E+03  0.00000000000E+00 0.  1.
          6    1    1    2  501    0 -0.71492977070E+02  0.68718851589E+02 -0.24115073697E+03  0.31291565041E+03  0.17300000000E+03 0.  1.
         -6    1    1    2    0  502  0.71492977070E+02 -0.68718851589E+02  0.46934076205E+03  0.50994438643E+03  0.17300000000E+03 0.  1.
</event>
<event>
 4    1  0.5900714E+000  0.1000000E+03  0.7546771E-02  0.1280296E+00
         21   -1    0    0  501  502  0.00000000000E+00  0.00000000000E+00  0.82794851126E+02  0.82794851126E+02  0.00000000000E+00 0.  1.
         21   -1    0    0  502  503 -0.00000000000E+00 -0.00000000000E+00 -0.11381619988E+04  0.11381619988E+04  0.00000000000E+00 0.  1.
          6    1    1    2  501    0  0.11823434181E+02 -0.19020181260E+02 -0.25354286228E+02  0.17627648942E+03  0.17300000000E+03 0.  1.
         -6    1    1    2    0  503 -0.11823434181E+02  0.19020181260E+02 -0.10300128614E+04  0.10446803605E+04  0.17300000000E+03 0.  1.
</event>
<event>
 4    1  0.5900714E+000  0.1000000E+03  0.7546771E-02  0.1280296E+00
         21   -1    0    0  501  502  0.00000000000E+00  0.00000000000E+00  0.62390130718E+03  0.62390130718E+03  0.00000000000E+00 0.  1.
         21   -1    0    0  502  503 -0.00000000000E+00 -0.00000000000E+00 -0.12202051464E+03  0.12202051464E+03  0.00000000000E+00 0.  1.
          6    1    1    2  501    0 -0.82013032184E+02  0.12210682029E+02  0.51899338890E+03  0.55331580126E+03  0.17300000000E+03 0.  1.
         -6    1    1    2    0  503  0.82013032184E+02 -0.12210682029E+02 -0.17112596355E+02  0.19260602056E+03  0.17300000000E+03 0.  1.
</event>
<event>
 4    1  0.5900714E+000  0.1000000E+03  0.7546771E-02  0.1280296E+00
         21   -1    0    0  501  502  0.00000000000E+00  0.00000000000E+00  0.56164891160E+03  0.56164891160E+03  0.00000000000E+00 0.  1.
         21   -1    0    0  502  503 -0.00000000000E+00 -0.00000000000E+00 -0.65857671954E+02  0.65857671954E+02  0.00000000000E+00 0.  1.
          6    1    1    2  501    0  0.59571433936E+02 -0.50197850047E+02  0.19653179444E+03  0.27317087348E+03  0.17300000000E+03 0.  1.
         -6    1    1    2    0  503 -0.59571433936E+02  0.50197850047E+02  0.29925944520E+03  0.35433571007E+03  0.17300000000E+03 0.  1.
</event>
<event>
 4    1  0.5900714E+000  0.1000000E+03  0.7546771E-02  0.1280296E+00
         21   -1    0    0  501  502  0.00000000000E+00  0.00000000000E+00  0.17047809960E+04  0.17047809960E+04  0.00000000000E+00 0. -1.
         21   -1    0    0  502  503 -0.00000000000E+00 -0.00000000000E+00 -0.57885773636E+02  0.57885773636E+02  0.00000000000E+00 0. -1.
          6    1    1    2  501    0 -0.10213117082E+03  0.50875863701E+02  0.14857888760E+04  0.15001722280E+04  0.17300000000E+03 0. -1.
         -6    1    1    2    0  503  0.10213117082E+03 -0.50875863701E+02  0.16110634637E+03  0.26249454166E+03  0.17300000000E+03 0. -1.
</event>
<event>
 4    1  0.5900714E+000  0.1000000E+03  0.7546771E-02  0.1280296E+00
         21   -1    0    0  503  502  0.00000000000E+00  0.00000000000E+00  0.33909344771E+02  0.33909344771E+02  0.00000000000E+00 0. -1.
         21   -1    0    0  501  503 -0.00000000000E+00 -0.00000000000E+00 -0.17111462438E+04  0.17111462438E+04  0.00000000000E+00 0. -1.
          6    1    1    2  501    0 -0.10585708457E+03 -0.26986246957E+02 -0.12990958805E+04  0.13151095341E+04  0.17300000000E+03 0. -1.
         -6    1    1    2    0  502  0.10585708457E+03  0.26986246957E+02 -0.37814101848E+03  0.42994605445E+03  0.17300000000E+03 0. -1.
</event>
<event>
 4    1  0.5900714E+000  0.1000000E+03  0.7546771E-02  0.1280296E+00
         21   -1    0    0  503  502  0.00000000000E+00  0.00000000000E+00  0.10582596104E+04  0.10582596104E+04  0.00000000000E+00 0. -1.
         21   -1    0    0  501  503 -0.00000000000E+00 -0.00000000000E+00 -0.49106281992E+02  0.49106281992E+02  0.00000000000E+00 0. -1.
          6    1    1    2  501    0  0.12931011886E+03 -0.27602752484E+02  0.34065019159E+03  0.40429515433E+03  0.17300000000E+03 0. -1.
         -6    1    1    2    0  502 -0.12931011886E+03  0.27602752484E+02  0.66850313685E+03  0.70307073809E+03  0.17300000000E+03 0. -1.
</event>
<event>
 4    1  0.5900714E+000  0.1000000E+03  0.7546771E-02  0.1280296E+00
         21   -1    0    0  503  502  0.00000000000E+00  0.00000000000E+00  0.14758925008E+04  0.14758925008E+04  0.00000000000E+00 0. -1.
         21   -1    0    0  501  503 -0.00000000000E+00 -0.00000000000E+00 -0.56366393612E+02  0.56366393612E+02  0.00000000000E+00 0. -1.
          6    1    1    2  501    0  0.16540648643E+03 -0.14715431203E+02  0.28405490839E+03  0.37174190058E+03  0.17300000000E+03 0. -1.
         -6    1    1    2    0  502 -0.16540648643E+03  0.14715431203E+02  0.11354711988E+04  0.11605169938E+04  0.17300000000E+03 0. -1.
</event>
<event>
 4    1  0.5900714E+000  0.1000000E+03  0.7546771E-02  0.1280296E+00
         21   -1    0    0  501  502  0.00000000000E+00  0.00000000000E+00  0.11161804076E+04  0.11161804076E+04  0.00000000000E+00 0.  1.
         21   -1    0    0  502  503 -0.00000000000E+00 -0.00000000000E+00 -0.12808590901E+03  0.12808590901E+03  0.00000000000E+00 0.  1.
          6    1    1    2  501    0 -0.28039168336E+03 -0.59491914893E+01  0.79914425530E+03  0.86441623640E+03  0.17300000000E+03 0.  1.
         -6    1    1    2    0  503  0.28039168336E+03  0.59491914893E+01  0.18895024325E+03  0.37985008016E+03  0.17300000000E+03 0.  1.
</event>
<event>
 4    1  0.5900714E+000  0.1000000E+03  0.7546771E-02  0.1280296E+00
         21   -1    0    0  501  502  0.00000000000E+00  0.00000000000E+00  0.13897364134E+03  0.13897364134E+03  0.00000000000E+00 0.  1.
         21   -1    0    0  502  503 -0.00000000000E+00 -0.00000000000E+00 -0.30185957675E+03  0.30185957675E+03  0.00000000000E+00 0.  1.
          6    1    1    2  501    0  0.77212252454E+02  0.57854094141E+02 -0.25392890400E+02  0.19970635198E+03  0.17300000000E+03 0.  1.
         -6    1    1    2    0  503 -0.77212252454E+02 -0.57854094141E+02 -0.13749304501E+03  0.24112686612E+03  0.17300000000E+03 0.  1.
</event>
<event>
 4    1  0.5900714E+000  0.1000000E+03  0.7546771E-02  0.1280296E+00
         21   -1    0    0  503  502  0.00000000000E+00  0.00000000000E+00  0.15501091145E+04  0.15501091145E+04  0.00000000000E+00 0.  1.
         21   -1    0    0  501  503 -0.00000000000E+00 -0.00000000000E+00 -0.44459354618E+02  0.44459354618E+02  0.00000000000E+00 0. -1.
          6    1    1    2  501    0  0.14776894041E+03 -0.18819710634E+02  0.35920286828E+03  0.42561196158E+03  0.17300000000E+03 0. -1.
         -6    1    1    2    0  502 -0.14776894041E+03  0.18819710634E+02  0.11464468916E+04  0.11689565076E+04  0.17300000000E+03 0.  1.
</event>
<event>
 4    1  0.5900714E+000  0.1000000E+03  0.7546771E-02  0.1280296E+00
         21   -1    0    0  503  502  0.00000000000E+00  0.00000000000E+00  0.68243542727E+03  0.68243542727E+03  0.00000000000E+00 0.  1.
         21   -1    0    0  501  503 -0.00000000000E+00 -0.00000000000E+00 -0.26251041712E+03  0.26251041712E+03  0.00000000000E+00 0. -1.
          6    1    1    2  501    0  0.55882712638E+02 -0.14624584703E+03 -0.18423850714E+03  0.29729371480E+03  0.17300000000E+03 0. -1.
         -6    1    1    2    0  502 -0.55882712638E+02  0.14624584703E+03  0.60416351729E+03  0.64765212960E+03  0.17300000000E+03 0.  1.
</event>
<event>
 4    1  0.5900714E+000  0.1000000E+03  0.7546771E-02  0.1280296E+00
         21   -1    0    0  503  502  0.00000000000E+00  0.00000000000E+00  0.13511895393E+04  0.13511895393E+04  0.00000000000E+00 0. -1.
         21   -1    0    0  501  503 -0.00000000000E+00 -0.00000000000E+00 -0.28672118736E+02  0.28672118736E+02  0.00000000000E+00 0. -1.
          6    1    1    2  501    0 -0.75681715015E+02  0.54417793472E+02  0.62231290091E+03  0.65260352809E+03  0.17300000000E+03 0. -1.
         -6    1    1    2    0  502  0.75681715015E+02 -0.54417793472E+02  0.70020451968E+03  0.72725812997E+03  0.17300000000E+03 0. -1.
</event>
<event>
 4    1  0.5900714E+000  0.1000000E+03  0.7546771E-02  0.1280296E+00
         21   -1    0    0  503  502  0.00000000000E+00  0.00000000000E+00  0.21175290790E+03  0.21175290790E+03  0.00000000000E+00 0.  1.
         21   -1    0    0  501  503 -0.00000000000E+00 -0.00000000000E+00 -0.64546228964E+03  0.64546228964E+03  0.00000000000E+00 0.  1.
          6    1    1    2  501    0  0.12314562777E+03  0.10795655860E+03 -0.54462135956E+03  0.59444166195E+03  0.17300000000E+03 0. -1.
         -6    1    1    2    0  502 -0.12314562777E+03 -0.10795655860E+03  0.11091197782E+03  0.26277353559E+03  0.17300000000E+03 0. -1.
</event>
<event>
 4    1  0.5900714E+000  0.1000000E+03  0.7546771E-02  0.1280296E+00
         21   -1    0    0  503  502  0.00000000000E+00  0.00000000000E+00  0.10782769268E+04  0.10782769268E+04  0.00000000000E+00 0.  1.
         21   -1    0    0  501  503 -0.00000000000E+00 -0.00000000000E+00 -0.15807361549E+03  0.15807361549E+03  0.00000000000E+00 0.  1.
          6    1    1    2  501    0  0.15423198720E+02  0.29763655085E+03  0.11966872887E+03  0.36479445737E+03  0.17300000000E+03 0. -1.
         -6    1    1    2    0  502 -0.15423198720E+02 -0.29763655085E+03  0.80053458247E+03  0.87155608494E+03  0.17300000000E+03 0. -1.
</event>
<event>
 4    1  0.5900714E+000  0.1000000E+03  0.7546771E-02  0.1280296E+00
         21   -1    0    0  501  502  0.00000000000E+00  0.00000000000E+00  0.33563460458E+02  0.33563460458E+02  0.00000000000E+00 0.  1.
         21   -1    0    0  502  503 -0.00000000000E+00 -0.00000000000E+00 -0.12020415900E+04  0.12020415900E+04  0.00000000000E+00 0. -1.
          6    1    1    2  501    0  0.19448987840E+02  0.88679974361E+02 -0.44085072114E+03  0.48220406397E+03  0.17300000000E+03 0. -1.
         -6    1    1    2    0  503 -0.19448987840E+02 -0.88679974361E+02 -0.72762740842E+03  0.75340098650E+03  0.17300000000E+03 0.  1.
</event>
<event>
 4    1  0.5900714E+000  0.1000000E+03  0.7546771E-02  0.1280296E+00
         21   -1    0    0  501  502  0.00000000000E+00  0.00000000000E+00  0.15000881939E+03  0.15000881939E+03  0.00000000000E+00 0.  1.
         21   -1    0    0  502  503 -0.00000000000E+00 -0.00000000000E+00 -0.23521872876E+03  0.23521872876E+03  0.00000000000E+00 0. -1.
          6    1    1    2  501    0  0.90226780519E+01  0.10123847279E+01  0.31858026208E+02  0.17614303130E+03  0.17300000000E+03 0. -1.
         -6    1    1    2    0  503 -0.90226780519E+01 -0.10123847279E+01 -0.11706793558E+03  0.20908451684E+03  0.17300000000E+03 0.  1.
</event>
<event>
 4    1  0.5900714E+000  0.1000000E+03  0.7546771E-02  0.1280296E+00
         21   -1    0    0  503  502  0.00000000000E+00  0.00000000000E+00  0.11719842356E+03  0.11719842356E+03  0.00000000000E+00 0.  1.
         21   -1    0    0  501  503 -0.00000000000E+00 -0.00000000000E+00 -0.35953920768E+03  0.35953920768E+03  0.00000000000E+00 0.  1.
          6    1    1    2  501    0 -0.58362578762E+02  0.90188735650E+02 -0.15118815441E+03  0.25362779160E+03  0.17300000000E+03 0.  1.
         -6    1    1    2    0  502  0.58362578762E+02 -0.90188735650E+02 -0.91152629705E+02  0.22310983963E+03  0.17300000000E+03 0.  1.
</event>
<event>
 4    1  0.5900714E+000  0.1000000E+03  0.7546771E-02  0.1280296E+00
         21   -1    0    0  503  502  0.00000000000E+00  0.00000000000E+00  0.11645435262E+03  0.11645435262E+03  0.00000000000E+00 0.  1.
         21   -1    0    0  501  503 -0.00000000000E+00 -0.00000000000E+00 -0.35481246927E+03  0.35481246927E+03  0.00000000000E+00 0.  1.
          6    1    1    2  501    0  0.17108596198E+02  0.59873421968E+02 -0.21965547004E+03  0.28645253750E+03  0.17300000000E+03 0.  1.
         -6    1    1    2    0  502 -0.17108596198E+02 -0.59873421968E+02 -0.18702646613E+02  0.18481428438E+03  0.17300000000E+03 0.  1.
</event>
<event>
 4    1  0.5900714E+000  0.1000000E+03  0.7546771E-02  0.1280296E+00
         21   -1    0    0  503  502  0.00000000000E+00  0.00000000000E+00  0.42080675816E+03  0.42080675816E+03  0.00000000000E+00 0.  1.
         21   -1    0    0  501  503 -0.00000000000E+00 -0.00000000000E+00 -0.12147561710E+03  0.12147561710E+03  0.00000000000E+00 0.  1.
          6    1    1    2  501    0  0.14419096961E+02 -0.42958618259E+02 -0.16227574382E+02  0.17957084232E+03  0.17300000000E+03 0.  1.
         -6    1    1    2    0  502 -0.14419096961E+02  0.42958618259E+02  0.31555871544E+03  0.36271153295E+03  0.17300000000E+03 0.  1.
</event>
<event>
 4    1  0.5900714E+000  0.1000000E+03  0.7546771E-02  0.1280296E+00
         21   -1    0    0  503  502  0.00000000000E+00  0.00000000000E+00  0.23305918176E+03  0.23305918176E+03  0.00000000000E+00 0.  1.
         21   -1    0    0  501  503 -0.00000000000E+00 -0.00000000000E+00 -0.25816310189E+03  0.25816310189E+03  0.00000000000E+00 0.  1.
          6    1    1    2  501    0 -0.13292242567E+03 -0.50722686164E+02  0.87564458248E+02  0.24049469118E+03  0.17300000000E+03 0.  1.
         -6    1    1    2    0  502  0.13292242567E+03  0.50722686164E+02 -0.11266837837E+03  0.25072759247E+03  0.17300000000E+03 0.  1.
</event>
<event>
 4    1  0.5900714E+000  0.1000000E+03  0.7546771E-02  0.1280296E+00
         21   -1    0    0  501  502  0.00000000000E+00  0.00000000000E+00  0.13894446658E+03  0.13894446658E+03  0.00000000000E+00 0. -1.
         21   -1    0    0  502  503 -0.00000000000E+00 -0.00000000000E+00 -0.22855045869E+03  0.22855045869E+03  0.00000000000E+00 0. -1.
          6    1    1    2  501    0  0.59594698723E-01 -0.39336525302E+02 -0.27565815374E+02  0.17954453473E+03  0.17300000000E+03 0. -1.
         -6    1    1    2    0  503 -0.59594698723E-01  0.39336525302E+02 -0.62040176732E+02  0.18795039054E+03  0.17300000000E+03 0. -1.
</event>
<event>
 4    1  0.5900714E+000  0.1000000E+03  0.7546771E-02  0.1280296E+00
         21   -1    0    0  501  502  0.00000000000E+00  0.00000000000E+00  0.57993166160E+03  0.57993166160E+03  0.00000000000E+00 0. -1.
         21   -1    0    0  502  503 -0.00000000000E+00 -0.00000000000E+00 -0.21927122618E+03  0.21927122618E+03  0.00000000000E+00 0. -1.
          6    1    1    2  501    0 -0.87453203991E+01  0.15306229191E+03  0.48460526749E+03  0.53691322494E+03  0.17300000000E+03 0. -1.
         -6    1    1    2    0  503  0.87453203991E+01 -0.15306229191E+03 -0.12394483207E+03  0.26228966284E+03  0.17300000000E+03 0. -1.
</event>
<event>
 4    1  0.5900714E+000  0.1000000E+03  0.7546771E-02  0.1280296E+00
         21   -1    0    0  503  502  0.00000000000E+00  0.00000000000E+00  0.75327312844E+03  0.75327312844E+03  0.00000000000E+00 0.  1.
         21   -1    0    0  501  503 -0.00000000000E+00 -0.00000000000E+00 -0.43822088780E+02  0.43822088780E+02  0.00000000000E+00 0.  1.
          6    1    1    2  501    0  0.27394698140E+02 -0.41391302787E+02  0.30022471382E+03  0.35003940952E+03  0.17300000000E+03 0. -1.
         -6    1    1    2    0  502 -0.27394698140E+02  0.41391302787E+02  0.40922632584E+03  0.44705580770E+03  0.17300000000E+03 0. -1.
</event>
<event>
 4    1  0.5900714E+000  0.1000000E+03  0.7546771E-02  0.1280296E+00
         21   -1    0    0  501  502  0.00000000000E+00  0.00000000000E+00  0.18546292266E+03  0.18546292266E+03  0.00000000000E+00 0. -1.
         21   -1    0    0  502  503 -0.00000000000E+00 -0.00000000000E+00 -0.33597948989E+03  0.33597948989E+03  0.00000000000E+00 0.  1.
          6    1    1    2  501    0  0.14486052129E+03  0.61152935034E+02  0.16145229209E+02  0.23433719406E+03  0.17300000000E+03 0. -1.
         -6    1    1    2    0  503 -0.14486052129E+03 -0.61152935034E+02 -0.16666179644E+03  0.28710521849E+03  0.17300000000E+03 0.  1.
</event>
<event>
 4    1  0.5900714E+000  0.1000000E+03  0.7546771E-02  0.1280296E+00
         21   -1    0    0  501  502  0.00000000000E+00  0.00000000000E+00  0.72014823788E+03  0.72014823788E+03  0.00000000000E+00 0. -1.
         21   -1    0    0  502  503 -0.00000000000E+00 -0.00000000000E+00 -0.25182657779E+03  0.25182657779E+03  0.00000000000E+00 0.  1.
          6    1    1    2  501    0  0.10151967637E+03 -0.92285181724E+02  0.64972312653E+03  0.68621566625E+03  0.17300000000E+03 0. -1.
         -6    1    1    2    0  503 -0.10151967637E+03  0.92285181724E+02 -0.18140146644E+03  0.28575914943E+03  0.17300000000E+03 0.  1.
</event>
<event>
 4    1  0.5900714E+000  0.1000000E+03  0.7546771E-02  0.1280296E+00
         21   -1    0    0  503  502  0.00000000000E+00  0.00000000000E+00  0.22665449155E+03  0.22665449155E+03  0.00000000000E+00 0.  1.
         21   -1    0    0  501  503 -0.00000000000E+00 -0.00000000000E+00 -0.68469507221E+03  0.68469507221E+03  0.00000000000E+00 0.  1.
          6    1    1    2  501    0 -0.73744253677E+02  0.26589996528E+03 -0.48538007707E+03  0.58452016706E+03  0.17300000000E+03 0.  1.
         -6    1    1    2    0  502  0.73744253677E+02 -0.26589996528E+03  0.27339496406E+02  0.32682939670E+03  0.17300000000E+03 0.  1.
</event>
<event>
 4    1  0.5900714E+000  0.1000000E+03  0.7546771E-02  0.1280296E+00
         21   -1    0    0  503  502  0.00000000000E+00  0.00000000000E+00  0.87427949638E+02  0.87427949638E+02  0.00000000000E+00 0.  1.
         21   -1    0    0  501  503 -0.00000000000E+00 -0.00000000000E+00 -0.73774222205E+03  0.73774222205E+03  0.00000000000E+00 0.  1.
          6    1    1    2  501    0 -0.15124555783E+03  0.19681843582E+02 -0.15240512083E+03  0.27643971239E+03  0.17300000000E+03 0.  1.
         -6    1    1    2    0  502  0.15124555783E+03 -0.19681843582E+02 -0.49790915158E+03  0.54873045929E+03  0.17300000000E+03 0.  1.
</event>
<event>
 4    1  0.5900714E+000  0.1000000E+03  0.7546771E-02  0.1280296E+00
         21   -1    0    0  503  502  0.00000000000E+00  0.00000000000E+00  0.13326272295E+03  0.13326272295E+03  0.00000000000E+00 0.  1.
         21   -1    0    0  501  503 -0.00000000000E+00 -0.00000000000E+00 -0.20353988923E+04  0.20353988923E+04  0.00000000000E+00 0.  1.
          6    1    1    2  501    0  0.29828984376E+03 -0.37581595033E+03 -0.11704148587E+04  0.12767201733E+04  0.17300000000E+03 0.  1.
         -6    1    1    2    0  502 -0.29828984376E+03  0.37581595033E+03 -0.73172131063E+03  0.89194144194E+03  0.17300000000E+03 0.  1.
</event>
<event>
 4    1  0.5900714E+000  0.1000000E+03  0.7546771E-02  0.1280296E+00
         21   -1    0    0  501  502  0.00000000000E+00  0.00000000000E+00  0.13818110984E+03  0.13818110984E+03  0.00000000000E+00 0.  1.
         21   -1    0    0  502  503 -0.00000000000E+00 -0.00000000000E+00 -0.35495345104E+03  0.35495345104E+03  0.00000000000E+00 0. -1.
          6    1    1    2  501    0 -0.48797343081E+02  0.96394791251E+02 -0.12318134832E+02  0.20433764440E+03  0.17300000000E+03 0.  1.
         -6    1    1    2    0  503  0.48797343081E+02 -0.96394791251E+02 -0.20445420636E+03  0.28879691648E+03  0.17300000000E+03 0. -1.
</event>
<event>
 4    1  0.5900714E+000  0.1000000E+03  0.7546771E-02  0.1280296E+00
         21   -1    0    0  501  502  0.00000000000E+00  0.00000000000E+00  0.36839546939E+03  0.36839546939E+03  0.00000000000E+00 0.  1.
         21   -1    0    0  502  503 -0.00000000000E+00 -0.00000000000E+00 -0.15399954002E+03  0.15399954002E+03  0.00000000000E+00 0.  1.
          6    1    1    2  501    0 -0.78898426678E+02  0.49732275336E+02  0.25475404016E+03  0.32175593533E+03  0.17300000000E+03 0.  1.
         -6    1    1    2    0  503  0.78898426678E+02 -0.49732275336E+02 -0.40358110791E+02  0.20063907408E+03  0.17300000000E+03 0.  1.
</event>
<event>
 4    1  0.5900714E+000  0.1000000E+03  0.7546771E-02  0.1280296E+00
         21   -1    0    0  501  502  0.00000000000E+00  0.00000000000E+00  0.27124719674E+03  0.27124719674E+03  0.00000000000E+00 0.  1.
         21   -1    0    0  502  503 -0.00000000000E+00 -0.00000000000E+00 -0.20675941282E+03  0.20675941282E+03  0.00000000000E+00 0.  1.
          6    1    1    2  501    0 -0.10104086173E+03 -0.37275934262E+02  0.15400178532E+03  0.25542963982E+03  0.17300000000E+03 0.  1.
         -6    1    1    2    0  503  0.10104086173E+03  0.37275934262E+02 -0.89514001399E+02  0.22257696975E+03  0.17300000000E+03 0.  1.
</event>
<event>
 4    1  0.5900714E+000  0.1000000E+03  0.7546771E-02  0.1280296E+00
         21   -1    0    0  503  502  0.00000000000E+00  0.00000000000E+00  0.19646831327E+03  0.19646831327E+03  0.00000000000E+00 0. -1.
         21   -1    0    0  501  503 -0.00000000000E+00 -0.00000000000E+00 -0.30919007641E+03  0.30919007641E+03  0.00000000000E+00 0.  1.
          6    1    1    2  501    0 -0.80250795258E+02 -0.80416314686E+02 -0.19364393830E+03  0.28343244106E+03  0.17300000000E+03 0. -1.
         -6    1    1    2    0  502  0.80250795258E+02  0.80416314686E+02  0.80922175150E+02  0.22222594862E+03  0.17300000000E+03 0.  1.
</event>
<event>
 4    1  0.5900714E+000  0.1000000E+03  0.7546771E-02  0.1280296E+00
         21   -1    0    0  503  502  0.00000000000E+00  0.00000000000E+00  0.23028508514E+03  0.23028508514E+03  0.00000000000E+00 0. -1.
         21   -1    0    0  501  503 -0.00000000000E+00 -0.00000000000E+00 -0.26087216359E+03  0.26087216359E+03  0.00000000000E+00 0.  1.
          6    1    1    2  501    0  0.11949039733E+03  0.11756552556E+03  0.30031153033E+02  0.24275600509E+03  0.17300000000E+03 0. -1.
         -6    1    1    2    0  502 -0.11949039733E+03 -0.11756552556E+03 -0.60618231481E+02  0.24840124364E+03  0.17300000000E+03 0.  1.
</event>
<event>
 4    1  0.5900714E+000  0.1000000E+03  0.7546771E-02  0.1280296E+00
         21   -1    0    0  503  502  0.00000000000E+00  0.00000000000E+00  0.90119971224E+02  0.90119971224E+02  0.00000000000E+00 0.  1.
         21   -1    0    0  501  503 -0.00000000000E+00 -0.00000000000E+00 -0.52541198303E+03  0.52541198303E+03  0.00000000000E+00 0.  1.
          6    1    1    2  501    0  0.62813304746E+02  0.52520036606E+02 -0.36406645171E+03  0.41131161759E+03  0.17300000000E+03 0.  1.
         -6    1    1    2    0  502 -0.62813304746E+02 -0.52520036606E+02 -0.71225560092E+02  0.20422033667E+03  0.17300000000E+03 0.  1.
</event>
<event>
 4    1  0.5900714E+000  0.1000000E+03  0.7546771E-02  0.1280296E+00
         21   -1    0    0  503  502  0.00000000000E+00  0.00000000000E+00  0.19251339898E+03  0.19251339898E+03  0.00000000000E+00 0.  1.
         21   -1    0    0  501  503 -0.00000000000E+00 -0.00000000000E+00 -0.24221843641E+03  0.24221843641E+03  0.00000000000E+00 0.  1.
          6    1    1    2  501    0  0.36392700051E+02  0.46992299562E+02 -0.14036449185E+03  0.23057297198E+03  0.17300000000E+03 0.  1.
         -6    1    1    2    0  502 -0.36392700051E+02 -0.46992299562E+02  0.90659454414E+02  0.20415886341E+03  0.17300000000E+03 0.  1.
</event>
<event>
 4    1  0.5900714E+000  0.1000000E+03  0.7546771E-02  0.1280296E+00
         21   -1    0    0  503  502  0.00000000000E+00  0.00000000000E+00  0.25991280873E+03  0.25991280873E+03  0.00000000000E+00 0.  1.
         21   -1    0    0  501  503 -0.00000000000E+00 -0.00000000000E+00 -0.18889472624E+03  0.18889472624E+03  0.00000000000E+00 0.  1.
          6    1    1    2  501    0 -0.82485423341E+02 -0.10459358114E+03 -0.27016240193E+01  0.21835741584E+03  0.17300000000E+03 0.  1.
         -6    1    1    2    0  502  0.82485423341E+02  0.10459358114E+03  0.73719706505E+02  0.23045011913E+03  0.17300000000E+03 0.  1.
</event>
<event>
 4    1  0.5900714E+000  0.1000000E+03  0.7546771E-02  0.1280296E+00
         21   -1    0    0  503  502  0.00000000000E+00  0.00000000000E+00  0.26920581884E+03  0.26920581884E+03  0.00000000000E+00 0.  1.
         21   -1    0    0  501  503 -0.00000000000E+00 -0.00000000000E+00 -0.24795864491E+03  0.24795864491E+03  0.00000000000E+00 0.  1.
          6    1    1    2  501    0 -0.96071570714E+02 -0.97168676536E+01 -0.15534399797E+03  0.25176362311E+03  0.17300000000E+03 0.  1.
         -6    1    1    2    0  502  0.96071570714E+02  0.97168676536E+01  0.17659117191E+03  0.26540084064E+03  0.17300000000E+03 0.  1.
</event>
<event>
 4    1  0.5900714E+000  0.1000000E+03  0.7546771E-02  0.1280296E+00
         21   -1    0    0  503  502  0.00000000000E+00  0.00000000000E+00  0.11960532415E+03  0.11960532415E+03  0.00000000000E+00 0.  1.
         21   -1    0    0  501  503 -0.00000000000E+00 -0.00000000000E+00 -0.49936160001E+03  0.49936160001E+03  0.00000000000E+00 0. -1.
          6    1    1    2  501    0 -0.15264313972E+03  0.41270859174E+01 -0.29182026377E+03  0.37202826141E+03  0.17300000000E+03 0.  1.
         -6    1    1    2    0  502  0.15264313972E+03 -0.41270859174E+01 -0.87936012085E+02  0.24693866275E+03  0.17300000000E+03 0. -1.
</event>
<event>
 4    1  0.5900714E+000  0.1000000E+03  0.7546771E-02  0.1280296E+00
         21   -1    0    0  503  502  0.00000000000E+00  0.00000000000E+00  0.49755422487E+03  0.49755422487E+03  0.00000000000E+00 0.  1.
         21   -1    0    0  501  503 -0.00000000000E+00 -0.00000000000E+00 -0.86111933117E+02  0.86111933117E+02  0.00000000000E+00 0. -1.
          6    1    1    2  501    0  0.85956566097E+02 -0.17833944237E+02  0.10395762247E+03  0.22009717874E+03  0.17300000000E+03 0.  1.
         -6    1    1    2    0  502 -0.85956566097E+02  0.17833944237E+02  0.30748466928E+03  0.36356897924E+03  0.17300000000E+03 0. -1.
</event>
<event>
 4    1  0.5900714E+000  0.1000000E+03  0.7546771E-02  0.1280296E+00
         21   -1    0    0  503  502  0.00000000000E+00  0.00000000000E+00  0.52485691542E+03  0.52485691542E+03  0.00000000000E+00 0.  1.
         21   -1    0    0  501  503 -0.00000000000E+00 -0.00000000000E+00 -0.85213580972E+02  0.85213580972E+02  0.00000000000E+00 0. -1.
          6    1    1    2  501    0  0.94548240827E+02  0.62156191555E+02  0.28421603771E+03  0.35144063237E+03  0.17300000000E+03 0.  1.
         -6    1    1    2    0  502 -0.94548240827E+02 -0.62156191555E+02  0.15542729674E+03  0.25862986402E+03  0.17300000000E+03 0. -1.
</event>
<event>
 4    1  0.5900714E+000  0.1000000E+03  0.7546771E-02  0.1280296E+00
         21   -1    0    0  503  502  0.00000000000E+00  0.00000000000E+00  0.19390493994E+03  0.19390493994E+03  0.00000000000E+00 0.  1.
         21   -1    0    0  501  503 -0.00000000000E+00 -0.00000000000E+00 -0.20246643907E+03  0.20246643907E+03  0.00000000000E+00 0. -1.
          6    1    1    2  501    0 -0.11433657447E+02 -0.92022055942E+02 -0.31332493005E+02  0.19876999879E+03  0.17300000000E+03 0.  1.
         -6    1    1    2    0  502  0.11433657447E+02  0.92022055942E+02  0.22770993877E+02  0.19760138022E+03  0.17300000000E+03 0. -1.
</event>
<event>
 4    1  0.5900714E+000  0.1000000E+03  0.7546771E-02  0.1280296E+00
         21   -1    0    0  501  502  0.00000000000E+00  0.00000000000E+00  0.10910681971E+03  0.10910681971E+03  0.00000000000E+00 0.  1.
         21   -1    0    0  502  503 -0.00000000000E+00 -0.00000000000E+00 -0.47541450003E+03  0.47541450003E+03  0.00000000000E+00 0. -1.
          6    1    1    2  501    0 -0.19977997045E+02  0.13002495120E+03 -0.95776950559E+02  0.23750333168E+03  0.17300000000E+03 0.  1.
         -6    1    1    2    0  503  0.19977997045E+02 -0.13002495120E+03 -0.27053072976E+03  0.34701798807E+03  0.17300000000E+03 0. -1.
</event>
<event>
 4    1  0.5900714E+000  0.1000000E+03  0.7546771E-02  0.1280296E+00
         21   -1    0    0  501  502  0.00000000000E+00  0.00000000000E+00  0.27136534467E+03  0.27136534467E+03  0.00000000000E+00 0.  1.
         21   -1    0    0  502  503 -0.00000000000E+00 -0.00000000000E+00 -0.24756682508E+03  0.24756682508E+03  0.00000000000E+00 0.  1.
          6    1    1    2  501    0  0.16373854054E+03 -0.68116860329E+02  0.88149299758E+02  0.26296295436E+03  0.17300000000E+03 0.  1.
         -6    1    1    2    0  503 -0.16373854054E+03  0.68116860329E+02 -0.64350780169E+02  0.25596921539E+03  0.17300000000E+03 0.  1.
</event>
<event>
 4    1  0.5900714E+000  0.1000000E+03  0.7546771E-02  0.1280296E+00
         21   -1    0    0  501  502  0.00000000000E+00  0.00000000000E+00  0.34500208228E+03  0.34500208228E+03  0.00000000000E+00 0.  1.
         21   -1    0    0  502  503 -0.00000000000E+00 -0.00000000000E+00 -0.41141079783E+03  0.41141079783E+03  0.00000000000E+00 0.  1.
          6    1    1    2  501    0  0.11475846098E+03 -0.63788041570E+02  0.27583659430E+03  0.35107441571E+03  0.17300000000E+03 0.  1.
         -6    1    1    2    0  503 -0.11475846098E+03  0.63788041570E+02 -0.34224530985E+03  0.40533846441E+03  0.17300000000E+03 0.  1.
</event>
<event>
 4    1  0.5900714E+000  0.1000000E+03  0.7546771E-02  0.1280296E+00
         21   -1    0    0  501  502  0.00000000000E+00  0.00000000000E+00  0.53410991646E+02  0.53410991646E+02  0.00000000000E+00 0. -1.
         21   -1    0    0  502  503 -0.00000000000E+00 -0.00000000000E+00 -0.88725041075E+03  0.88725041075E+03  0.00000000000E+00 0.  1.
          6    1    1    2  501    0  0.58876529615E+02  0.62220615235E+02 -0.19954968806E+03  0.27764532898E+03  0.17300000000E+03 0. -1.
         -6    1    1    2    0  503 -0.58876529615E+02 -0.62220615235E+02 -0.63428973104E+03  0.66301607341E+03  0.17300000000E+03 0.  1.
</event>
<event>
 4    1  0.5900714E+000  0.1000000E+03  0.7546771E-02  0.1280296E+00
         21   -1    0    0  501  502  0.00000000000E+00  0.00000000000E+00  0.82126698312E+02  0.82126698312E+02  0.00000000000E+00 0. -1.
         21   -1    0    0  502  503 -0.00000000000E+00 -0.00000000000E+00 -0.68469850067E+03  0.68469850067E+03  0.00000000000E+00 0.  1.
          6    1    1    2  501    0  0.92857266615E+01  0.94539846198E+02 -0.88749137474E+02  0.21640105508E+03  0.17300000000E+03 0. -1.
         -6    1    1    2    0  503 -0.92857266615E+01 -0.94539846198E+02 -0.51382266488E+03  0.55042414390E+03  0.17300000000E+03 0.  1.
</event>
<event>
 4    1  0.5900714E+000  0.1000000E+03  0.7546771E-02  0.1280296E+00
         21   -1    0    0  501  502  0.00000000000E+00  0.00000000000E+00  0.16182730652E+04  0.16182730652E+04  0.00000000000E+00 0. -1.
         21   -1    0    0  502  503 -0.00000000000E+00 -0.00000000000E+00 -0.37162542132E+02  0.37162542132E+02  0.00000000000E+00 0.  1.
          6    1    1    2  501    0  0.32428073272E+02  0.13582358353E+03  0.11398635310E+04  0.11613429705E+04  0.17300000000E+03 0. -1.
         -6    1    1    2    0  503 -0.32428073272E+02 -0.13582358353E+03  0.44124699204E+03  0.49409263683E+03  0.17300000000E+03 0.  1.
</event>
<event>
 4    1  0.5900714E+000  0.1000000E+03  0.7546771E-02  0.1280296E+00
         21   -1    0    0  501  502  0.00000000000E+00  0.00000000000E+00  0.34999564460E+02  0.34999564460E+02  0.00000000000E+00 0. -1.
         21   -1    0    0  502  503 -0.00000000000E+00 -0.00000000000E+00 -0.23269308845E+04  0.23269308845E+04  0.00000000000E+00 0.  1.
          6    1    1    2  501    0  0.31518711520E+02  0.15865184170E+03 -0.48710714600E+03  0.54163290865E+03  0.17300000000E+03 0. -1.
         -6    1    1    2    0  503 -0.31518711520E+02 -0.15865184170E+03 -0.18048241740E+04  0.18202975403E+04  0.17300000000E+03 0.  1.
</event>
<event>
 4    1  0.5900714E+000  0.1000000E+03  0.7546771E-02  0.1280296E+00
         21   -1    0    0  501  502  0.00000000000E+00  0.00000000000E+00  0.63152950021E+02  0.63152950021E+02  0.00000000000E+00 0.  1.
         21   -1    0    0  502  503 -0.00000000000E+00 -0.00000000000E+00 -0.77936500990E+03  0.77936500990E+03  0.00000000000E+00 0. -1.
          6    1    1    2  501    0  0.53439885303E+01 -0.28564925468E+01 -0.94632774488E+02  0.19728426133E+03  0.17300000000E+03 0.  1.
         -6    1    1    2    0  503 -0.53439885303E+01  0.28564925468E+01 -0.62157928539E+03  0.64523369858E+03  0.17300000000E+03 0. -1.
</event>
<event>
 4    1  0.5900714E+000  0.1000000E+03  0.7546771E-02  0.1280296E+00
         21   -1    0    0  501  502  0.00000000000E+00  0.00000000000E+00  0.13325517747E+03  0.13325517747E+03  0.00000000000E+00 0.  1.
         21   -1    0    0  502  503 -0.00000000000E+00 -0.00000000000E+00 -0.57072214749E+03  0.57072214749E+03  0.00000000000E+00 0. -1.
          6    1    1    2  501    0  0.80987338908E+01  0.20723922169E+02  0.53905608629E+02  0.18256474217E+03  0.17300000000E+03 0.  1.
         -6    1    1    2    0  503 -0.80987338908E+01 -0.20723922169E+02 -0.49137257865E+03  0.52141258279E+03  0.17300000000E+03 0. -1.
</event>
<event>
 4    1  0.5900714E+000  0.1000000E+03  0.7546771E-02  0.1280296E+00
         21   -1    0    0  501  502  0.00000000000E+00  0.00000000000E+00  0.22149465715E+03  0.22149465715E+03  0.00000000000E+00 0.  1.
         21   -1    0    0  502  503 -0.00000000000E+00 -0.00000000000E+00 -0.22527881028E+03  0.22527881028E+03  0.00000000000E+00 0. -1.
          6    1    1    2  501    0 -0.97455710481E+02 -0.39284245395E+02  0.92600388530E+02  0.22258638637E+03  0.17300000000E+03 0.  1.
         -6    1    1    2    0  503  0.97455710481E+02  0.39284245395E+02 -0.96384541661E+02  0.22418708106E+03  0.17300000000E+03 0. -1.
</event>
<event>
 4    1  0.5900714E+000  0.1000000E+03  0.7546771E-02  0.1280296E+00
         21   -1    0    0  503  502  0.00000000000E+00  0.00000000000E+00  0.67703999709E+03  0.67703999709E+03  0.00000000000E+00 0.  1.
         21   -1    0    0  501  503 -0.00000000000E+00 -0.00000000000E+00 -0.36169151739E+03  0.36169151739E+03  0.00000000000E+00 0. -1.
          6    1    1    2  501    0 -0.11836017466E+03  0.34371638270E+03 -0.14433037222E+03  0.42768018311E+03  0.17300000000E+03 0.  1.
         -6    1    1    2    0  502  0.11836017466E+03 -0.34371638270E+03  0.45967885191E+03  0.61105133137E+03  0.17300000000E+03 0.  1.
</event>
<event>
 4    1  0.5900714E+000  0.1000000E+03  0.7546771E-02  0.1280296E+00
         21   -1    0    0  501  502  0.00000000000E+00  0.00000000000E+00  0.28954877641E+03  0.28954877641E+03  0.00000000000E+00 0.  1.
         21   -1    0    0  502  503 -0.00000000000E+00 -0.00000000000E+00 -0.22088059100E+03  0.22088059100E+03  0.00000000000E+00 0. -1.
          6    1    1    2  501    0 -0.14602735510E+03  0.87535866591E+02  0.10597967251E+03  0.26485318077E+03  0.17300000000E+03 0. -1.
         -6    1    1    2    0  503  0.14602735510E+03 -0.87535866591E+02 -0.37311487094E+02  0.24557618665E+03  0.17300000000E+03 0.  1.
</event>
<event>
 4    1  0.5900714E+000  0.1000000E+03  0.7546771E-02  0.1280296E+00
         21   -1    0    0  501  502  0.00000000000E+00  0.00000000000E+00  0.17661202688E+04  0.17661202688E+04  0.00000000000E+00 0.  1.
         21   -1    0    0  502  503 -0.00000000000E+00 -0.00000000000E+00 -0.21461843846E+02  0.21461843846E+02  0.00000000000E+00 0. -1.
          6    1    1    2  501    0  0.27642690622E+02  0.12291371158E+02  0.12580692707E+04  0.12702686668E+04  0.17300000000E+03 0. -1.
         -6    1    1    2    0  503 -0.27642690622E+02 -0.12291371158E+02  0.48658915434E+03  0.51731344586E+03  0.17300000000E+03 0.  1.
</event>
<event>
 4    1  0.5900714E+000  0.1000000E+03  0.7546771E-02  0.1280296E+00
         21   -1    0    0  501  502  0.00000000000E+00  0.00000000000E+00  0.40896706006E+03  0.40896706006E+03  0.00000000000E+00 0. -1.
         21   -1    0    0  502  503 -0.00000000000E+00 -0.00000000000E+00 -0.10968943915E+03  0.10968943915E+03  0.00000000000E+00 0.  1.
          6    1    1    2  501    0  0.29595460530E+02  0.11818292308E+03  0.16107714661E+03  0.26592845232E+03  0.17300000000E+03 0. -1.
         -6    1    1    2    0  503 -0.29595460530E+02 -0.11818292308E+03  0.13820047430E+03  0.25272804690E+03  0.17300000000E+03 0.  1.
</event>
<event>
 4    1  0.5900714E+000  0.1000000E+03  0.7546771E-02  0.1280296E+00
         21   -1    0    0  501  502  0.00000000000E+00  0.00000000000E+00  0.31311327872E+03  0.31311327872E+03  0.00000000000E+00 0. -1.
         21   -1    0    0  502  503 -0.00000000000E+00 -0.00000000000E+00 -0.19243364432E+03  0.19243364432E+03  0.00000000000E+00 0.  1.
          6    1    1    2  501    0 -0.76698787651E+02  0.40085037015E+02  0.21595102802E+03  0.28991957630E+03  0.17300000000E+03 0. -1.
         -6    1    1    2    0  503  0.76698787651E+02 -0.40085037015E+02 -0.95271393615E+02  0.21562734674E+03  0.17300000000E+03 0.  1.
</event>
<event>
 4    1  0.5900714E+000  0.1000000E+03  0.7546771E-02  0.1280296E+00
         21   -1    0    0  501  502  0.00000000000E+00  0.00000000000E+00  0.11085124634E+03  0.11085124634E+03  0.00000000000E+00 0. -1.
         21   -1    0    0  502  503 -0.00000000000E+00 -0.00000000000E+00 -0.11599096342E+04  0.11599096342E+04  0.00000000000E+00 0.  1.
          6    1    1    2  501    0  0.10750154019E+03 -0.13597861307E+03 -0.98863692084E+03  0.10185179064E+04  0.17300000000E+03 0. -1.
         -6    1    1    2    0  503 -0.10750154019E+03  0.13597861307E+03 -0.60421467053E+02  0.25224297421E+03  0.17300000000E+03 0.  1.
</event>
<event>
 4    1  0.5900714E+000  0.1000000E+03  0.7546771E-02  0.1280296E+00
         21   -1    0    0  501  502  0.00000000000E+00  0.00000000000E+00  0.23203113527E+03  0.23203113527E+03  0.00000000000E+00 0. -1.
         21   -1    0    0  502  503 -0.00000000000E+00 -0.00000000000E+00 -0.37107440085E+03  0.37107440085E+03  0.00000000000E+00 0.  1.
          6    1    1    2  501    0  0.87724786604E+02 -0.78258107298E+02  0.14197129847E+03  0.25279402511E+03  0.17300000000E+03 0.  1.
         -6    1    1    2    0  503 -0.87724786604E+02  0.78258107298E+02 -0.28101456405E+03  0.35031151102E+03  0.17300000000E+03 0. -1.
</event>
<event>
 4    1  0.5900714E+000  0.1000000E+03  0.7546771E-02  0.1280296E+00
         21   -1    0    0  503  502  0.00000000000E+00  0.00000000000E+00  0.20713867690E+04  0.20713867690E+04  0.00000000000E+00 0. -1.
         21   -1    0    0  501  503 -0.00000000000E+00 -0.00000000000E+00 -0.22796769681E+02  0.22796769681E+02  0.00000000000E+00 0.  1.
          6    1    1    2  501    0  0.31898975875E+01 -0.92576996989E+01  0.39241908970E+03  0.42897275253E+03  0.17300000000E+03 0.  1.
         -6    1    1    2    0  502 -0.31898975875E+01  0.92576996989E+01  0.16561709097E+04  0.16652107862E+04  0.17300000000E+03 0.  1.
</event>
<event>
 4    1  0.5900714E+000  0.1000000E+03  0.7546771E-02  0.1280296E+00
         21   -1    0    0  503  502  0.00000000000E+00  0.00000000000E+00  0.23832767897E+03  0.23832767897E+03  0.00000000000E+00 0. -1.
         21   -1    0    0  501  503 -0.00000000000E+00 -0.00000000000E+00 -0.13502714652E+03  0.13502714652E+03  0.00000000000E+00 0. -1.
          6    1    1    2  501    0 -0.34193020831E+02 -0.17266107720E+02  0.80795649921E+02  0.19474141366E+03  0.17300000000E+03 0. -1.
         -6    1    1    2    0  502  0.34193020831E+02  0.17266107720E+02  0.22504882529E+02  0.17861341183E+03  0.17300000000E+03 0. -1.
</event>
<event>
 4    1  0.5900714E+000  0.1000000E+03  0.7546771E-02  0.1280296E+00
         21   -1    0    0  503  502  0.00000000000E+00  0.00000000000E+00  0.50382894918E+02  0.50382894918E+02  0.00000000000E+00 0. -1.
         21   -1    0    0  501  503 -0.00000000000E+00 -0.00000000000E+00 -0.11262899158E+04  0.11262899158E+04  0.00000000000E+00 0. -1.
          6    1    1    2  501    0  0.10773010990E+03 -0.11377502703E+03 -0.42038001208E+03  0.48083145478E+03  0.17300000000E+03 0. -1.
         -6    1    1    2    0  502 -0.10773010990E+03  0.11377502703E+03 -0.65552700878E+03  0.69584135591E+03  0.17300000000E+03 0. -1.
</event>
<event>
 4    1  0.5900714E+000  0.1000000E+03  0.7546771E-02  0.1280296E+00
         21   -1    0    0  501  502  0.00000000000E+00  0.00000000000E+00  0.11730776865E+03  0.11730776865E+03  0.00000000000E+00 0.  1.
         21   -1    0    0  502  503 -0.00000000000E+00 -0.00000000000E+00 -0.92284535329E+03  0.92284535329E+03  0.00000000000E+00 0. -1.
          6    1    1    2  501    0  0.25455662040E+03  0.45832102688E+01 -0.21905889673E+03  0.37780402200E+03  0.17300000000E+03 0. -1.
         -6    1    1    2    0  503 -0.25455662040E+03 -0.45832102688E+01 -0.58647868792E+03  0.66234909994E+03  0.17300000000E+03 0.  1.
</event>
<event>
 4    1  0.5900714E+000  0.1000000E+03  0.7546771E-02  0.1280296E+00
         21   -1    0    0  503  502  0.00000000000E+00  0.00000000000E+00  0.13990164206E+03  0.13990164206E+03  0.00000000000E+00 0. -1.
         21   -1    0    0  501  503 -0.00000000000E+00 -0.00000000000E+00 -0.22659012721E+03  0.22659012721E+03  0.00000000000E+00 0. -1.
          6    1    1    2  501    0  0.10552492465E+02  0.36735975126E+02 -0.61478254722E+02  0.18753523074E+03  0.17300000000E+03 0. -1.
         -6    1    1    2    0  502 -0.10552492465E+02 -0.36735975126E+02 -0.25210230427E+02  0.17895653853E+03  0.17300000000E+03 0. -1.
</event>
<event>
 4    1  0.5900714E+000  0.1000000E+03  0.7546771E-02  0.1280296E+00
         21   -1    0    0  501  502  0.00000000000E+00  0.00000000000E+00  0.40809209110E+02  0.40809209110E+02  0.00000000000E+00 0.  1.
         21   -1    0    0  502  503 -0.00000000000E+00 -0.00000000000E+00 -0.81336327726E+03  0.81336327726E+03  0.00000000000E+00 0.  1.
          6    1    1    2  501    0 -0.28325170185E+01  0.48452862616E+02 -0.31563888779E+03  0.36319775679E+03  0.17300000000E+03 0.  1.
         -6    1    1    2    0  503  0.28325170185E+01 -0.48452862616E+02 -0.45691518036E+03  0.49097472959E+03  0.17300000000E+03 0.  1.
</event>
<event>
 4    1  0.5900714E+000  0.1000000E+03  0.7546771E-02  0.1280296E+00
         21   -1    0    0  501  502  0.00000000000E+00  0.00000000000E+00  0.99140704923E+03  0.99140704923E+03  0.00000000000E+00 0.  1.
         21   -1    0    0  502  503 -0.00000000000E+00 -0.00000000000E+00 -0.61991510347E+02  0.61991510347E+02  0.00000000000E+00 0.  1.
          6    1    1    2  501    0  0.44085284516E+01  0.32851800988E+02  0.83532854188E+03  0.85369868738E+03  0.17300000000E+03 0.  1.
         -6    1    1    2    0  503 -0.44085284516E+01 -0.32851800988E+02  0.94086997001E+02  0.19969987220E+03  0.17300000000E+03 0.  1.
</event>
<event>
 4    1  0.5900714E+000  0.1000000E+03  0.7546771E-02  0.1280296E+00
         21   -1    0    0  501  502  0.00000000000E+00  0.00000000000E+00  0.30117971274E+03  0.30117971274E+03  0.00000000000E+00 0.  1.
         21   -1    0    0  502  503 -0.00000000000E+00 -0.00000000000E+00 -0.22761490956E+03  0.22761490956E+03  0.00000000000E+00 0.  1.
          6    1    1    2  501    0 -0.13499512777E+03 -0.68218222293E+02  0.16350001441E+03  0.28202600073E+03  0.17300000000E+03 0.  1.
         -6    1    1    2    0  503  0.13499512777E+03  0.68218222293E+02 -0.89935211231E+02  0.24676862157E+03  0.17300000000E+03 0.  1.
</event>
<event>
 4    1  0.5900714E+000  0.1000000E+03  0.7546771E-02  0.1280296E+00
         21   -1    0    0  501  502  0.00000000000E+00  0.00000000000E+00  0.60191347146E+03  0.60191347146E+03  0.00000000000E+00 0.  1.
         21   -1    0    0  502  503 -0.00000000000E+00 -0.00000000000E+00 -0.11958765973E+03  0.11958765973E+03  0.00000000000E+00 0.  1.
          6    1    1    2  501    0  0.10914577174E+02 -0.69116283341E+02  0.50034957154E+03  0.53401767982E+03  0.17300000000E+03 0.  1.
         -6    1    1    2    0  503 -0.10914577174E+02  0.69116283341E+02 -0.18023759813E+02  0.18748345136E+03  0.17300000000E+03 0.  1.
</event>
<event>
 4    1  0.5900714E+000  0.1000000E+03  0.7546771E-02  0.1280296E+00
         21   -1    0    0  501  502  0.00000000000E+00  0.00000000000E+00  0.37379964656E+02  0.37379964656E+02  0.00000000000E+00 0. -1.
         21   -1    0    0  502  503 -0.00000000000E+00 -0.00000000000E+00 -0.17524768823E+04  0.17524768823E+04  0.00000000000E+00 0. -1.
          6    1    1    2  501    0 -0.22943524994E+02  0.17670348676E+03 -0.10738842952E+04  0.11022282010E+04  0.17300000000E+03 0. -1.
         -6    1    1    2    0  503  0.22943524994E+02 -0.17670348676E+03 -0.64121262236E+03  0.68762864589E+03  0.17300000000E+03 0. -1.
</event>
<event>
 4    1  0.5900714E+000  0.1000000E+03  0.7546771E-02  0.1280296E+00
         21   -1    0    0  501  502  0.00000000000E+00  0.00000000000E+00  0.44073196510E+02  0.44073196510E+02  0.00000000000E+00 0. -1.
         21   -1    0    0  502  503 -0.00000000000E+00 -0.00000000000E+00 -0.10682786906E+04  0.10682786906E+04  0.00000000000E+00 0. -1.
          6    1    1    2  501    0 -0.31901368852E+02 -0.26057544297E+02 -0.19343219954E+03  0.26275789002E+03  0.17300000000E+03 0. -1.
         -6    1    1    2    0  503  0.31901368852E+02  0.26057544297E+02 -0.83077329454E+03  0.84959399708E+03  0.17300000000E+03 0. -1.
</event>
<event>
 4    1  0.5900714E+000  0.1000000E+03  0.7546771E-02  0.1280296E+00
         21   -1    0    0  501  502  0.00000000000E+00  0.00000000000E+00  0.17462788149E+03  0.17462788149E+03  0.00000000000E+00 0.  1.
         21   -1    0    0  502  503 -0.00000000000E+00 -0.00000000000E+00 -0.29137272270E+03  0.29137272270E+03  0.00000000000E+00 0.  1.
          6    1    1    2  501    0 -0.40811360620E+02 -0.63847974214E+01  0.84929091114E+02  0.19709967862E+03  0.17300000000E+03 0.  1.
         -6    1    1    2    0  503  0.40811360620E+02  0.63847974214E+01 -0.20167393232E+03  0.26890092557E+03  0.17300000000E+03 0.  1.
</event>
<event>
 4    1  0.5900714E+000  0.1000000E+03  0.7546771E-02  0.1280296E+00
         21   -1    0    0  501  502  0.00000000000E+00  0.00000000000E+00  0.50694222975E+03  0.50694222975E+03  0.00000000000E+00 0.  1.
         21   -1    0    0  502  503 -0.00000000000E+00 -0.00000000000E+00 -0.30105710689E+03  0.30105710689E+03  0.00000000000E+00 0.  1.
          6    1    1    2  501    0 -0.15712690035E+03  0.18032848159E+03  0.36757276839E+03  0.47142970223E+03  0.17300000000E+03 0.  1.
         -6    1    1    2    0  503  0.15712690035E+03 -0.18032848159E+03 -0.16168764553E+03  0.33656963440E+03  0.17300000000E+03 0.  1.
</event>
<event>
 4    1  0.5900714E+000  0.1000000E+03  0.7546771E-02  0.1280296E+00
         21   -1    0    0  501  502  0.00000000000E+00  0.00000000000E+00  0.38627591781E+03  0.38627591781E+03  0.00000000000E+00 0.  1.
         21   -1    0    0  502  503 -0.00000000000E+00 -0.00000000000E+00 -0.41356599072E+03  0.41356599072E+03  0.00000000000E+00 0.  1.
          6    1    1    2  501    0 -0.66869628019E+02 -0.64059057702E+01  0.34055130134E+03  0.38783601126E+03  0.17300000000E+03 0.  1.
         -6    1    1    2    0  503  0.66869628019E+02  0.64059057702E+01 -0.36784137425E+03  0.41200589728E+03  0.17300000000E+03 0.  1.
</event>
<event>
 4    1  0.5900714E+000  0.1000000E+03  0.7546771E-02  0.1280296E+00
         21   -1    0    0  501  502  0.00000000000E+00  0.00000000000E+00  0.11128357605E+03  0.11128357605E+03  0.00000000000E+00 0. -1.
         21   -1    0    0  502  503 -0.00000000000E+00 -0.00000000000E+00 -0.46337132124E+03  0.46337132124E+03  0.00000000000E+00 0. -1.
          6    1    1    2  501    0  0.43741901485E+02 -0.11329974889E+03 -0.71042713611E+02  0.22299384341E+03  0.17300000000E+03 0. -1.
         -6    1    1    2    0  503 -0.43741901485E+02  0.11329974889E+03 -0.28104503158E+03  0.35166105388E+03  0.17300000000E+03 0. -1.
</event>
<event>
 4    1  0.5900714E+000  0.1000000E+03  0.7546771E-02  0.1280296E+00
         21   -1    0    0  501  502  0.00000000000E+00  0.00000000000E+00  0.84290973254E+03  0.84290973254E+03  0.00000000000E+00 0.  1.
         21   -1    0    0  502  503 -0.00000000000E+00 -0.00000000000E+00 -0.19728459151E+03  0.19728459151E+03  0.00000000000E+00 0.  1.
          6    1    1    2  501    0  0.10359025897E+02 -0.22221175100E+03  0.69874007316E+03  0.75342687869E+03  0.17300000000E+03 0.  1.
         -6    1    1    2    0  503 -0.10359025897E+02  0.22221175100E+03 -0.53114932127E+02  0.28676744535E+03  0.17300000000E+03 0.  1.
</event>
<event>
 4    1  0.5900714E+000  0.1000000E+03  0.7546771E-02  0.1280296E+00
         21   -1    0    0  503  502  0.00000000000E+00  0.00000000000E+00  0.11441745625E+03  0.11441745625E+03  0.00000000000E+00 0.  1.
         21   -1    0    0  501  503 -0.00000000000E+00 -0.00000000000E+00 -0.31385030394E+03  0.31385030394E+03  0.00000000000E+00 0.  1.
          6    1    1    2  501    0 -0.19278254819E+02  0.68019397274E+02 -0.13513902650E+03  0.23062923925E+03  0.17300000000E+03 0.  1.
         -6    1    1    2    0  502  0.19278254819E+02 -0.68019397274E+02 -0.64293821192E+02  0.19763852094E+03  0.17300000000E+03 0.  1.
</event>
<event>
 4    1  0.5900714E+000  0.1000000E+03  0.7546771E-02  0.1280296E+00
         21   -1    0    0  503  502  0.00000000000E+00  0.00000000000E+00  0.52361323697E+02  0.52361323697E+02  0.00000000000E+00 0.  1.
         21   -1    0    0  501  503 -0.00000000000E+00 -0.00000000000E+00 -0.13749919147E+04  0.13749919147E+04  0.00000000000E+00 0.  1.
          6    1    1    2  501    0 -0.14279408923E+03 -0.13844194076E+03 -0.79459862425E+03  0.83718116113E+03  0.17300000000E+03 0.  1.
         -6    1    1    2    0  502  0.14279408923E+03  0.13844194076E+03 -0.52803196676E+03  0.59017207728E+03  0.17300000000E+03 0.  1.
</event>
<event>
 4    1  0.5900714E+000  0.1000000E+03  0.7546771E-02  0.1280296E+00
         21   -1    0    0  503  502  0.00000000000E+00  0.00000000000E+00  0.42458041803E+02  0.42458041803E+02  0.00000000000E+00 0.  1.
         21   -1    0    0  501  503 -0.00000000000E+00 -0.00000000000E+00 -0.23823924681E+04  0.23823924681E+04  0.00000000000E+00 0.  1.
          6    1    1    2  501    0 -0.18580262278E+03 -0.19065163469E+03 -0.10984392608E+04  0.11434021471E+04  0.17300000000E+03 0.  1.
         -6    1    1    2    0  502  0.18580262278E+03  0.19065163469E+03 -0.12414951655E+04  0.12814483627E+04  0.17300000000E+03 0.  1.
</event>
<event>
 4    1  0.5900714E+000  0.1000000E+03  0.7546771E-02  0.1280296E+00
         21   -1    0    0  501  502  0.00000000000E+00  0.00000000000E+00  0.36879182887E+03  0.36879182887E+03  0.00000000000E+00 0. -1.
         21   -1    0    0  502  503 -0.00000000000E+00 -0.00000000000E+00 -0.13711318503E+03  0.13711318503E+03  0.00000000000E+00 0. -1.
          6    1    1    2  501    0 -0.37498962335E+02 -0.63614777283E+02  0.25445260084E+03  0.31643030534E+03  0.17300000000E+03 0. -1.
         -6    1    1    2    0  503  0.37498962335E+02  0.63614777283E+02 -0.22773957000E+02  0.18947470856E+03  0.17300000000E+03 0. -1.
</event>
<event>
 4    1  0.5900714E+000  0.1000000E+03  0.7546771E-02  0.1280296E+00
         21   -1    0    0  501  502  0.00000000000E+00  0.00000000000E+00  0.39482609014E+03  0.39482609014E+03  0.00000000000E+00 0. -1.
         21   -1    0    0  502  503 -0.00000000000E+00 -0.00000000000E+00 -0.87501339767E+02  0.87501339767E+02  0.00000000000E+00 0. -1.
          6    1    1    2  501    0 -0.22954288536E+02  0.62936132176E+02  0.13881451032E+03  0.23170309530E+03  0.17300000000E+03 0. -1.
         -6    1    1    2    0  503  0.22954288536E+02 -0.62936132176E+02  0.16851024006E+03  0.25062433461E+03  0.17300000000E+03 0. -1.
</event>
<event>
 4    1  0.5900714E+000  0.1000000E+03  0.7546771E-02  0.1280296E+00
         21   -1    0    0  503  502  0.00000000000E+00  0.00000000000E+00  0.81943037107E+02  0.81943037107E+02  0.00000000000E+00 0. -1.
         21   -1    0    0  501  503 -0.00000000000E+00 -0.00000000000E+00 -0.96072252120E+03  0.96072252120E+03  0.00000000000E+00 0. -1.
          6    1    1    2  501    0  0.18216711294E+02 -0.83788627807E+02 -0.81764618732E+03  0.84013491199E+03  0.17300000000E+03 0. -1.
         -6    1    1    2    0  502 -0.18216711294E+02  0.83788627807E+02 -0.61133296774E+02  0.20253064631E+03  0.17300000000E+03 0. -1.
</event>
<event>
 4    1  0.5900714E+000  0.1000000E+03  0.7546771E-02  0.1280296E+00
         21   -1    0    0  503  502  0.00000000000E+00  0.00000000000E+00  0.74271765093E+02  0.74271765093E+02  0.00000000000E+00 0. -1.
         21   -1    0    0  501  503 -0.00000000000E+00 -0.00000000000E+00 -0.87628804115E+03  0.87628804115E+03  0.00000000000E+00 0. -1.
          6    1    1    2  501    0 -0.17672506481E+03  0.32448657151E+02 -0.50081022507E+03  0.55948596534E+03  0.17300000000E+03 0. -1.
         -6    1    1    2    0  502  0.17672506481E+03 -0.32448657151E+02 -0.30120605099E+03  0.39107384090E+03  0.17300000000E+03 0. -1.
</event>
<event>
 4    1  0.5900714E+000  0.1000000E+03  0.7546771E-02  0.1280296E+00
         21   -1    0    0  503  502  0.00000000000E+00  0.00000000000E+00  0.20926968506E+03  0.20926968506E+03  0.00000000000E+00 0. -1.
         21   -1    0    0  501  503 -0.00000000000E+00 -0.00000000000E+00 -0.42780001736E+03  0.42780001736E+03  0.00000000000E+00 0.  1.
          6    1    1    2  501    0 -0.11108192859E+03 -0.75637845507E+02 -0.32623396331E+03  0.39296040176E+03  0.17300000000E+03 0.  1.
         -6    1    1    2    0  502  0.11108192859E+03  0.75637845507E+02  0.10770363101E+03  0.24410930065E+03  0.17300000000E+03 0. -1.
</event>
<event>
 4    1  0.5900714E+000  0.1000000E+03  0.7546771E-02  0.1280296E+00
         21   -1    0    0  503  502  0.00000000000E+00  0.00000000000E+00  0.49937983459E+02  0.49937983459E+02  0.00000000000E+00 0. -1.
         21   -1    0    0  501  503 -0.00000000000E+00 -0.00000000000E+00 -0.11179916430E+04  0.11179916430E+04  0.00000000000E+00 0.  1.
          6    1    1    2  501    0  0.46080916020E+01  0.88118063349E+02 -0.86666624888E+03  0.88815844000E+03  0.17300000000E+03 0.  1.
         -6    1    1    2    0  502 -0.46080916020E+01 -0.88118063349E+02 -0.20138741064E+03  0.27977118644E+03  0.17300000000E+03 0. -1.
</event>
<event>
 4    1  0.5900714E+000  0.1000000E+03  0.7546771E-02  0.1280296E+00
         21   -1    0    0  503  502  0.00000000000E+00  0.00000000000E+00  0.11889166539E+04  0.11889166539E+04  0.00000000000E+00 0. -1.
         21   -1    0    0  501  503 -0.00000000000E+00 -0.00000000000E+00 -0.13138375455E+03  0.13138375455E+03  0.00000000000E+00 0.  1.
          6    1    1    2  501    0 -0.16001783678E+03 -0.14947512416E+03  0.61298919580E+02  0.28571852997E+03  0.17300000000E+03 0.  1.
         -6    1    1    2    0  502  0.16001783678E+03  0.14947512416E+03  0.99623397981E+03  0.10345818785E+04  0.17300000000E+03 0. -1.
</event>
<event>
 4    1  0.5900714E+000  0.1000000E+03  0.7546771E-02  0.1280296E+00
         21   -1    0    0  501  502  0.00000000000E+00  0.00000000000E+00  0.25067066546E+03  0.25067066546E+03  0.00000000000E+00 0. -1.
         21   -1    0    0  502  503 -0.00000000000E+00 -0.00000000000E+00 -0.44498166579E+03  0.44498166579E+03  0.00000000000E+00 0. -1.
          6    1    1    2  501    0  0.40696522028E+02  0.58101836262E+02  0.19105188860E+03  0.26732350143E+03  0.17300000000E+03 0. -1.
         -6    1    1    2    0  503 -0.40696522028E+02 -0.58101836262E+02 -0.38536288893E+03  0.42832882981E+03  0.17300000000E+03 0. -1.
</event>
<event>
 4    1  0.5900714E+000  0.1000000E+03  0.7546771E-02  0.1280296E+00
         21   -1    0    0  501  502  0.00000000000E+00  0.00000000000E+00  0.26379736794E+03  0.26379736794E+03  0.00000000000E+00 0. -1.
         21   -1    0    0  502  503 -0.00000000000E+00 -0.00000000000E+00 -0.13929498353E+03  0.13929498353E+03  0.00000000000E+00 0. -1.
          6    1    1    2  501    0 -0.15349551117E+02 -0.21947462088E+02  0.14436446835E+03  0.22690835051E+03  0.17300000000E+03 0. -1.
         -6    1    1    2    0  503  0.15349551117E+02  0.21947462088E+02 -0.19862083936E+02  0.17618400095E+03  0.17300000000E+03 0. -1.
</event>
<event>
 4    1  0.5900714E+000  0.1000000E+03  0.7546771E-02  0.1280296E+00
         21   -1    0    0  503  502  0.00000000000E+00  0.00000000000E+00  0.37428125845E+02  0.37428125845E+02  0.00000000000E+00 0. -1.
         21   -1    0    0  501  503 -0.00000000000E+00 -0.00000000000E+00 -0.10476348063E+04  0.10476348063E+04  0.00000000000E+00 0. -1.
          6    1    1    2  501    0  0.29801597342E+02 -0.90836246431E+02 -0.47238023286E+03  0.51206585833E+03  0.17300000000E+03 0.  1.
         -6    1    1    2    0  502 -0.29801597342E+02  0.90836246431E+02 -0.53782644762E+03  0.57299707384E+03  0.17300000000E+03 0.  1.
</event>
<event>
 4    1  0.5900714E+000  0.1000000E+03  0.7546771E-02  0.1280296E+00
         21   -1    0    0  503  502  0.00000000000E+00  0.00000000000E+00  0.18572237686E+03  0.18572237686E+03  0.00000000000E+00 0. -1.
         21   -1    0    0  501  503 -0.00000000000E+00 -0.00000000000E+00 -0.25550902167E+03  0.25550902167E+03  0.00000000000E+00 0. -1.
          6    1    1    2  501    0 -0.40306856983E+02 -0.93434242323E+02 -0.12064943190E+03  0.23417917451E+03  0.17300000000E+03 0.  1.
         -6    1    1    2    0  502  0.40306856983E+02  0.93434242323E+02  0.50862787089E+02  0.20705222401E+03  0.17300000000E+03 0.  1.
</event>
<event>
 4    1  0.5900714E+000  0.1000000E+03  0.7546771E-02  0.1280296E+00
         21   -1    0    0  503  502  0.00000000000E+00  0.00000000000E+00  0.37116694074E+02  0.37116694074E+02  0.00000000000E+00 0. -1.
         21   -1    0    0  501  503 -0.00000000000E+00 -0.00000000000E+00 -0.96818094764E+03  0.96818094764E+03  0.00000000000E+00 0. -1.
          6    1    1    2  501    0 -0.64648536764E+02 -0.81543331990E+01 -0.57679507303E+03  0.60569586653E+03  0.17300000000E+03 0.  1.
         -6    1    1    2    0  502  0.64648536764E+02  0.81543331990E+01 -0.35426918053E+03  0.39960177519E+03  0.17300000000E+03 0.  1.
</event>
<event>
 4    1  0.5900714E+000  0.1000000E+03  0.7546771E-02  0.1280296E+00
         21   -1    0    0  503  502  0.00000000000E+00  0.00000000000E+00  0.16280842424E+03  0.16280842424E+03  0.00000000000E+00 0. -1.
         21   -1    0    0  501  503 -0.00000000000E+00 -0.00000000000E+00 -0.91570402902E+03  0.91570402902E+03  0.00000000000E+00 0. -1.
          6    1    1    2  501    0  0.92472027951E+02 -0.22201702266E+03 -0.72227120140E+03  0.78067107201E+03  0.17300000000E+03 0.  1.
         -6    1    1    2    0  502 -0.92472027951E+02  0.22201702266E+03 -0.30624403385E+02  0.29784138125E+03  0.17300000000E+03 0.  1.
</event>
<event>
 4    1  0.5900714E+000  0.1000000E+03  0.7546771E-02  0.1280296E+00
         21   -1    0    0  501  502  0.00000000000E+00  0.00000000000E+00  0.40343599937E+03  0.40343599937E+03  0.00000000000E+00 0.  1.
         21   -1    0    0  502  503 -0.00000000000E+00 -0.00000000000E+00 -0.83577302879E+02  0.83577302879E+02  0.00000000000E+00 0.  1.
          6    1    1    2  501    0 -0.37849081073E+01 -0.79182331400E+01  0.24072487825E+03  0.29657122408E+03  0.17300000000E+03 0.  1.
         -6    1    1    2    0  503  0.37849081073E+01  0.79182331400E+01  0.79133818235E+02  0.19044207816E+03  0.17300000000E+03 0.  1.
</event>
<event>
 4    1  0.5900714E+000  0.1000000E+03  0.7546771E-02  0.1280296E+00
         21   -1    0    0  503  502  0.00000000000E+00  0.00000000000E+00  0.55243600131E+02  0.55243600131E+02  0.00000000000E+00 0. -1.
         21   -1    0    0  501  503 -0.00000000000E+00 -0.00000000000E+00 -0.11371386507E+04  0.11371386507E+04  0.00000000000E+00 0. -1.
          6    1    1    2  501    0 -0.34133231087E+02 -0.16976563563E+03 -0.41273670989E+03  0.47986043825E+03  0.17300000000E+03 0. -1.
         -6    1    1    2    0  502  0.34133231087E+02  0.16976563563E+03 -0.66915834065E+03  0.71252181256E+03  0.17300000000E+03 0. -1.
</event>
<event>
 4    1  0.5900714E+000  0.1000000E+03  0.7546771E-02  0.1280296E+00
         21   -1    0    0  501  502  0.00000000000E+00  0.00000000000E+00  0.45499157412E+02  0.45499157412E+02  0.00000000000E+00 0.  1.
         21   -1    0    0  502  503 -0.00000000000E+00 -0.00000000000E+00 -0.85473839348E+03  0.85473839348E+03  0.00000000000E+00 0.  1.
          6    1    1    2  501    0 -0.62941783038E+02  0.69187177104E+02 -0.37135917670E+03  0.42022038461E+03  0.17300000000E+03 0.  1.
         -6    1    1    2    0  503  0.62941783038E+02 -0.69187177104E+02 -0.43788005938E+03  0.48001716628E+03  0.17300000000E+03 0.  1.
</event>
<event>
 4    1  0.5900714E+000  0.1000000E+03  0.7546771E-02  0.1280296E+00
         21   -1    0    0  501  502  0.00000000000E+00  0.00000000000E+00  0.30297129518E+02  0.30297129518E+02  0.00000000000E+00 0.  1.
         21   -1    0    0  502  503 -0.00000000000E+00 -0.00000000000E+00 -0.11567192791E+04  0.11567192791E+04  0.00000000000E+00 0.  1.
          6    1    1    2  501    0  0.16683612703E+02  0.49050654442E+02 -0.40686370304E+03  0.44514198014E+03  0.17300000000E+03 0.  1.
         -6    1    1    2    0  503 -0.16683612703E+02 -0.49050654442E+02 -0.71955844653E+03  0.74187442846E+03  0.17300000000E+03 0.  1.
</event>
<event>
 4    1  0.5900714E+000  0.1000000E+03  0.7546771E-02  0.1280296E+00
         21   -1    0    0  501  502  0.00000000000E+00  0.00000000000E+00  0.14924375421E+03  0.14924375421E+03  0.00000000000E+00 0.  1.
         21   -1    0    0  502  503 -0.00000000000E+00 -0.00000000000E+00 -0.32272005646E+03  0.32272005646E+03  0.00000000000E+00 0.  1.
          6    1    1    2  501    0 -0.60049608378E+02 -0.97605646790E+02 -0.99324219544E+01  0.20775098257E+03  0.17300000000E+03 0.  1.
         -6    1    1    2    0  503  0.60049608378E+02  0.97605646790E+02 -0.16354388030E+03  0.26421282811E+03  0.17300000000E+03 0.  1.
</event>
<event>
 4    1  0.5900714E+000  0.1000000E+03  0.7546771E-02  0.1280296E+00
         21   -1    0    0  503  502  0.00000000000E+00  0.00000000000E+00  0.63157095005E+02  0.63157095005E+02  0.00000000000E+00 0.  1.
         21   -1    0    0  501  503 -0.00000000000E+00 -0.00000000000E+00 -0.98408065093E+03  0.98408065093E+03  0.00000000000E+00 0. -1.
          6    1    1    2  501    0 -0.76368929548E+02 -0.62111522019E+02 -0.77574054563E+03  0.80086980758E+03  0.17300000000E+03 0.  1.
         -6    1    1    2    0  502  0.76368929548E+02  0.62111522019E+02 -0.14518301030E+03  0.24636793835E+03  0.17300000000E+03 0. -1.
</event>
<event>
 4    1  0.5900714E+000  0.1000000E+03  0.7546771E-02  0.1280296E+00
         21   -1    0    0  503  502  0.00000000000E+00  0.00000000000E+00  0.31009839969E+03  0.31009839969E+03  0.00000000000E+00 0.  1.
         21   -1    0    0  501  503 -0.00000000000E+00 -0.00000000000E+00 -0.11542307537E+03  0.11542307537E+03  0.00000000000E+00 0. -1.
          6    1    1    2  501    0 -0.45514479432E+01 -0.68522062186E+02  0.13543336288E+03  0.23018945342E+03  0.17300000000E+03 0.  1.
         -6    1    1    2    0  502  0.45514479432E+01  0.68522062186E+02  0.59241961435E+02  0.19533202164E+03  0.17300000000E+03 0. -1.
</event>
<event>
 4    1  0.5900714E+000  0.1000000E+03  0.7546771E-02  0.1280296E+00
         21   -1    0    0  503  502  0.00000000000E+00  0.00000000000E+00  0.14143148086E+04  0.14143148086E+04  0.00000000000E+00 0.  1.
         21   -1    0    0  501  503 -0.00000000000E+00 -0.00000000000E+00 -0.27787527855E+02  0.27787527855E+02  0.00000000000E+00 0. -1.
          6    1    1    2  501    0  0.59902326883E+01  0.96447429646E+02  0.71425967653E+03  0.74123806910E+03  0.17300000000E+03 0.  1.
         -6    1    1    2    0  502 -0.59902326883E+01 -0.96447429646E+02  0.67226760425E+03  0.70086426739E+03  0.17300000000E+03 0. -1.
</event>
<event>
 4    1  0.5900714E+000  0.1000000E+03  0.7546771E-02  0.1280296E+00
         21   -1    0    0  503  502  0.00000000000E+00  0.00000000000E+00  0.13202538548E+03  0.13202538548E+03  0.00000000000E+00 0.  1.
         21   -1    0    0  501  503 -0.00000000000E+00 -0.00000000000E+00 -0.78364963852E+03  0.78364963852E+03  0.00000000000E+00 0. -1.
          6    1    1    2  501    0 -0.27072782244E+02  0.11065790880E+03 -0.67607574255E+03  0.70709654078E+03  0.17300000000E+03 0.  1.
         -6    1    1    2    0  502  0.27072782244E+02 -0.11065790880E+03  0.24451489517E+02  0.20857848321E+03  0.17300000000E+03 0. -1.
</event>
<event>
 4    1  0.5900714E+000  0.1000000E+03  0.7546771E-02  0.1280296E+00
         21   -1    0    0  503  502  0.00000000000E+00  0.00000000000E+00  0.18439407173E+03  0.18439407173E+03  0.00000000000E+00 0. -1.
         21   -1    0    0  501  503 -0.00000000000E+00 -0.00000000000E+00 -0.18177116231E+03  0.18177116231E+03  0.00000000000E+00 0. -1.
          6    1    1    2  501    0  0.36926084273E+02  0.32231881797E+02 -0.33129156498E+02  0.18283591254E+03  0.17300000000E+03 0. -1.
         -6    1    1    2    0  502 -0.36926084273E+02 -0.32231881797E+02  0.35752065925E+02  0.18332932150E+03  0.17300000000E+03 0. -1.
</event>
<event>
 4    1  0.5900714E+000  0.1000000E+03  0.7546771E-02  0.1280296E+00
         21   -1    0    0  501  502  0.00000000000E+00  0.00000000000E+00  0.50509432690E+03  0.50509432690E+03  0.00000000000E+00 0.  1.
         21   -1    0    0  502  503 -0.00000000000E+00 -0.00000000000E+00 -0.91081553582E+02  0.91081553582E+02  0.00000000000E+00 0.  1.
          6    1    1    2  501    0 -0.16119027541E+02 -0.26105067603E+02  0.37797904912E+03  0.41681945633E+03  0.17300000000E+03 0.  1.
         -6    1    1    2    0  503  0.16119027541E+02  0.26105067603E+02  0.36033724196E+02  0.17935642415E+03  0.17300000000E+03 0.  1.
</event>
<event>
 4    1  0.5900714E+000  0.1000000E+03  0.7546771E-02  0.1280296E+00
         21   -1    0    0  501  502  0.00000000000E+00  0.00000000000E+00  0.12476889081E+04  0.12476889081E+04  0.00000000000E+00 0. -1.
         21   -1    0    0  502  503 -0.00000000000E+00 -0.00000000000E+00 -0.31797660952E+02  0.31797660952E+02  0.00000000000E+00 0. -1.
          6    1    1    2  501    0 -0.61387941730E+02  0.11032242938E+02  0.36219413670E+03  0.40620657606E+03  0.17300000000E+03 0.  1.
         -6    1    1    2    0  503  0.61387941730E+02 -0.11032242938E+02  0.85369711043E+03  0.87327999297E+03  0.17300000000E+03 0.  1.
</event>
<event>
 4    1  0.5900714E+000  0.1000000E+03  0.7546771E-02  0.1280296E+00
         21   -1    0    0  501  502  0.00000000000E+00  0.00000000000E+00  0.88239005815E+03  0.88239005815E+03  0.00000000000E+00 0. -1.
         21   -1    0    0  502  503 -0.00000000000E+00 -0.00000000000E+00 -0.73647480186E+02  0.73647480186E+02  0.00000000000E+00 0. -1.
          6    1    1    2  501    0 -0.98976051956E+02 -0.12106979137E+03  0.59745379851E+03  0.64135340850E+03  0.17300000000E+03 0.  1.
         -6    1    1    2    0  503  0.98976051956E+02  0.12106979137E+03  0.21128877945E+03  0.31468412983E+03  0.17300000000E+03 0.  1.
</event>
<event>
 4    1  0.5900714E+000  0.1000000E+03  0.7546771E-02  0.1280296E+00
         21   -1    0    0  501  502  0.00000000000E+00  0.00000000000E+00  0.10182063830E+04  0.10182063830E+04  0.00000000000E+00 0. -1.
         21   -1    0    0  502  503 -0.00000000000E+00 -0.00000000000E+00 -0.54260078908E+02  0.54260078908E+02  0.00000000000E+00 0. -1.
          6    1    1    2  501    0  0.95441363597E+01 -0.13701047515E+03  0.66527941112E+03  0.70099119517E+03  0.17300000000E+03 0.  1.
         -6    1    1    2    0  503 -0.95441363597E+01  0.13701047515E+03  0.29866689295E+03  0.37147526672E+03  0.17300000000E+03 0.  1.
</event>
<event>
 4    1  0.5900714E+000  0.1000000E+03  0.7546771E-02  0.1280296E+00
         21   -1    0    0  501  502  0.00000000000E+00  0.00000000000E+00  0.83624809362E+03  0.83624809362E+03  0.00000000000E+00 0. -1.
         21   -1    0    0  502  503 -0.00000000000E+00 -0.00000000000E+00 -0.53848016091E+02  0.53848016091E+02  0.00000000000E+00 0. -1.
          6    1    1    2  501    0 -0.22706468928E+02  0.23882032613E+02  0.63948859239E+03  0.66329525478E+03  0.17300000000E+03 0.  1.
         -6    1    1    2    0  503  0.22706468928E+02 -0.23882032613E+02  0.14291148513E+03  0.22680085493E+03  0.17300000000E+03 0.  1.
</event>
<event>
 4    1  0.5900714E+000  0.1000000E+03  0.7546771E-02  0.1280296E+00
         21   -1    0    0  501  502  0.00000000000E+00  0.00000000000E+00  0.67331539073E+03  0.67331539073E+03  0.00000000000E+00 0.  1.
         21   -1    0    0  502  503 -0.00000000000E+00 -0.00000000000E+00 -0.34889998578E+03  0.34889998578E+03  0.00000000000E+00 0.  1.
          6    1    1    2  501    0  0.48551795884E+02  0.65714583562E+02  0.63181031088E+03  0.66014313017E+03  0.17300000000E+03 0.  1.
         -6    1    1    2    0  503 -0.48551795884E+02 -0.65714583562E+02 -0.30739490593E+03  0.36207224634E+03  0.17300000000E+03 0.  1.
</event>
<event>
 4    1  0.5900714E+000  0.1000000E+03  0.7546771E-02  0.1280296E+00
         21   -1    0    0  501  502  0.00000000000E+00  0.00000000000E+00  0.24342096755E+03  0.24342096755E+03  0.00000000000E+00 0.  1.
         21   -1    0    0  502  503 -0.00000000000E+00 -0.00000000000E+00 -0.40122718143E+03  0.40122718143E+03  0.00000000000E+00 0.  1.
          6    1    1    2  501    0  0.15584834249E+03  0.36943384904E+02  0.13267957835E+03  0.27052983210E+03  0.17300000000E+03 0.  1.
         -6    1    1    2    0  503 -0.15584834249E+03 -0.36943384904E+02 -0.29048579222E+03  0.37411831688E+03  0.17300000000E+03 0.  1.
</event>
<event>
 4    1  0.5900714E+000  0.1000000E+03  0.7546771E-02  0.1280296E+00
         21   -1    0    0  501  502  0.00000000000E+00  0.00000000000E+00  0.49749931494E+03  0.49749931494E+03  0.00000000000E+00 0. -1.
         21   -1    0    0  502  503 -0.00000000000E+00 -0.00000000000E+00 -0.36129922714E+03  0.36129922714E+03  0.00000000000E+00 0. -1.
          6    1    1    2  501    0  0.39540768828E+02 -0.39602241523E+02  0.45600457414E+03  0.49091850808E+03  0.17300000000E+03 0. -1.
         -6    1    1    2    0  503 -0.39540768828E+02  0.39602241523E+02 -0.31980448634E+03  0.36788003400E+03  0.17300000000E+03 0. -1.
</event>
<event>
 4    1  0.5900714E+000  0.1000000E+03  0.7546771E-02  0.1280296E+00
         21   -1    0    0  501  502  0.00000000000E+00  0.00000000000E+00  0.50000603209E+02  0.50000603209E+02  0.00000000000E+00 0. -1.
         21   -1    0    0  502  503 -0.00000000000E+00 -0.00000000000E+00 -0.11143521546E+04  0.11143521546E+04  0.00000000000E+00 0. -1.
          6    1    1    2  501    0 -0.14982238485E+03  0.54521666539E+02 -0.48473955279E+03  0.53881424737E+03  0.17300000000E+03 0. -1.
         -6    1    1    2    0  503  0.14982238485E+03 -0.54521666539E+02 -0.57961199855E+03  0.62553851039E+03  0.17300000000E+03 0. -1.
</event>
<event>
 4    1  0.5900714E+000  0.1000000E+03  0.7546771E-02  0.1280296E+00
         21   -1    0    0  501  502  0.00000000000E+00  0.00000000000E+00  0.51482089706E+03  0.51482089706E+03  0.00000000000E+00 0. -1.
         21   -1    0    0  502  503 -0.00000000000E+00 -0.00000000000E+00 -0.26634604348E+03  0.26634604348E+03  0.00000000000E+00 0. -1.
          6    1    1    2  501    0 -0.17722670907E+03  0.13127673207E+03  0.37946112140E+03  0.47176543901E+03  0.17300000000E+03 0. -1.
         -6    1    1    2    0  503  0.17722670907E+03 -0.13127673207E+03 -0.13098626781E+03  0.30940150153E+03  0.17300000000E+03 0. -1.
</event>
<event>
 4    1  0.5900714E+000  0.1000000E+03  0.7546771E-02  0.1280296E+00
         21   -1    0    0  503  502  0.00000000000E+00  0.00000000000E+00  0.75412605239E+02  0.75412605239E+02  0.00000000000E+00 0.  1.
         21   -1    0    0  501  503 -0.00000000000E+00 -0.00000000000E+00 -0.52062362976E+03  0.52062362976E+03  0.00000000000E+00 0.  1.
          6    1    1    2  501    0 -0.48429627556E+02 -0.82968192565E+02 -0.20730903606E+03  0.28659236946E+03  0.17300000000E+03 0.  1.
         -6    1    1    2    0  502  0.48429627556E+02  0.82968192565E+02 -0.23790198846E+03  0.30944386553E+03  0.17300000000E+03 0.  1.
</event>
<event>
 4    1  0.5900714E+000  0.1000000E+03  0.7546771E-02  0.1280296E+00
         21   -1    0    0  503  502  0.00000000000E+00  0.00000000000E+00  0.14989964441E+03  0.14989964441E+03  0.00000000000E+00 0.  1.
         21   -1    0    0  501  503 -0.00000000000E+00 -0.00000000000E+00 -0.37388559916E+03  0.37388559916E+03  0.00000000000E+00 0.  1.
          6    1    1    2  501    0  0.36554002124E+02  0.11350482723E+03 -0.23265435029E+03  0.31349096891E+03  0.17300000000E+03 0.  1.
         -6    1    1    2    0  502 -0.36554002124E+02 -0.11350482723E+03  0.86683955409E+01  0.21029427467E+03  0.17300000000E+03 0.  1.
</event>
<event>
 4    1  0.5900714E+000  0.1000000E+03  0.7546771E-02  0.1280296E+00
         21   -1    0    0  501  502  0.00000000000E+00  0.00000000000E+00  0.18017543255E+03  0.18017543255E+03  0.00000000000E+00 0.  1.
         21   -1    0    0  502  503 -0.00000000000E+00 -0.00000000000E+00 -0.94740420148E+03  0.94740420148E+03  0.00000000000E+00 0.  1.
          6    1    1    2  501    0 -0.17401034069E+03 -0.23107269371E+03 -0.57549697039E+02  0.34192858330E+03  0.17300000000E+03 0. -1.
         -6    1    1    2    0  503  0.17401034069E+03  0.23107269371E+03 -0.70967907189E+03  0.78565105074E+03  0.17300000000E+03 0. -1.
</event>
<event>
 4    1  0.5900714E+000  0.1000000E+03  0.7546771E-02  0.1280296E+00
         21   -1    0    0  501  502  0.00000000000E+00  0.00000000000E+00  0.64338201178E+02  0.64338201178E+02  0.00000000000E+00 0.  1.
         21   -1    0    0  502  503 -0.00000000000E+00 -0.00000000000E+00 -0.90762953464E+03  0.90762953464E+03  0.00000000000E+00 0.  1.
          6    1    1    2  501    0  0.60405295758E+02 -0.14302598676E+02 -0.10613476514E+03  0.21224267350E+03  0.17300000000E+03 0. -1.
         -6    1    1    2    0  503 -0.60405295758E+02  0.14302598676E+02 -0.73715656833E+03  0.75972506232E+03  0.17300000000E+03 0. -1.
</event>
<event>
 4    1  0.5900714E+000  0.1000000E+03  0.7546771E-02  0.1280296E+00
         21   -1    0    0  503  502  0.00000000000E+00  0.00000000000E+00  0.12819257501E+03  0.12819257501E+03  0.00000000000E+00 0.  1.
         21   -1    0    0  501  503 -0.00000000000E+00 -0.00000000000E+00 -0.73988413607E+03  0.73988413607E+03  0.00000000000E+00 0.  1.
          6    1    1    2  501    0 -0.14179138477E+03  0.34392498300E+02 -0.60022859864E+03  0.64147565141E+03  0.17300000000E+03 0.  1.
         -6    1    1    2    0  502  0.14179138477E+03 -0.34392498300E+02 -0.11462962424E+02  0.22660105966E+03  0.17300000000E+03 0.  1.
</event>
<event>
 4    1  0.5900714E+000  0.1000000E+03  0.7546771E-02  0.1280296E+00
         21   -1    0    0  501  502  0.00000000000E+00  0.00000000000E+00  0.31647594526E+03  0.31647594526E+03  0.00000000000E+00 0. -1.
         21   -1    0    0  502  503 -0.00000000000E+00 -0.00000000000E+00 -0.10705563404E+04  0.10705563404E+04  0.00000000000E+00 0. -1.
          6    1    1    2  501    0  0.22564674582E+03  0.11971909211E+03  0.21105056514E+03  0.37379199559E+03  0.17300000000E+03 0. -1.
         -6    1    1    2    0  503 -0.22564674582E+03 -0.11971909211E+03 -0.96513096029E+03  0.10132402901E+04  0.17300000000E+03 0. -1.
</event>
<event>
 4    1  0.5900714E+000  0.1000000E+03  0.7546771E-02  0.1280296E+00
         21   -1    0    0  501  502  0.00000000000E+00  0.00000000000E+00  0.46499285794E+03  0.46499285794E+03  0.00000000000E+00 0. -1.
         21   -1    0    0  502  503 -0.00000000000E+00 -0.00000000000E+00 -0.10197106653E+03  0.10197106653E+03  0.00000000000E+00 0. -1.
          6    1    1    2  501    0 -0.63949884988E+02 -0.11433437148E+03  0.20497620084E+03  0.29850658151E+03  0.17300000000E+03 0. -1.
         -6    1    1    2    0  503  0.63949884988E+02  0.11433437148E+03  0.15804559057E+03  0.26845734296E+03  0.17300000000E+03 0. -1.
</event>
<event>
 4    1  0.5900714E+000  0.1000000E+03  0.7546771E-02  0.1280296E+00
         21   -1    0    0  501  502  0.00000000000E+00  0.00000000000E+00  0.38958451500E+02  0.38958451500E+02  0.00000000000E+00 0. -1.
         21   -1    0    0  502  503 -0.00000000000E+00 -0.00000000000E+00 -0.11418369397E+04  0.11418369397E+04  0.00000000000E+00 0. -1.
          6    1    1    2  501    0 -0.44747403006E+02  0.78760116067E+02 -0.32838072385E+03  0.38205809212E+03  0.17300000000E+03 0. -1.
         -6    1    1    2    0  503  0.44747403006E+02 -0.78760116067E+02 -0.77449776435E+03  0.79873729908E+03  0.17300000000E+03 0. -1.
</event>
<event>
 4    1  0.5900714E+000  0.1000000E+03  0.7546771E-02  0.1280296E+00
         21   -1    0    0  503  502  0.00000000000E+00  0.00000000000E+00  0.44785219465E+03  0.44785219465E+03  0.00000000000E+00 0.  1.
         21   -1    0    0  501  503 -0.00000000000E+00 -0.00000000000E+00 -0.10283163459E+03  0.10283163459E+03  0.00000000000E+00 0. -1.
          6    1    1    2  501    0  0.52786320957E+02 -0.11272980532E+03  0.14030693111E+03  0.25516551414E+03  0.17300000000E+03 0. -1.
         -6    1    1    2    0  502 -0.52786320957E+02  0.11272980532E+03  0.20471362894E+03  0.29551831510E+03  0.17300000000E+03 0.  1.
</event>
<event>
 4    1  0.5900714E+000  0.1000000E+03  0.7546771E-02  0.1280296E+00
         21   -1    0    0  503  502  0.00000000000E+00  0.00000000000E+00  0.69250366597E+03  0.69250366597E+03  0.00000000000E+00 0.  1.
         21   -1    0    0  501  503 -0.00000000000E+00 -0.00000000000E+00 -0.60334101730E+02  0.60334101730E+02  0.00000000000E+00 0. -1.
          6    1    1    2  501    0 -0.82846860918E+02  0.26707767001E+02  0.19566952766E+03  0.27530432477E+03  0.17300000000E+03 0. -1.
         -6    1    1    2    0  502  0.82846860918E+02 -0.26707767001E+02  0.43650003658E+03  0.47753344293E+03  0.17300000000E+03 0.  1.
</event>
<event>
 4    1  0.5900714E+000  0.1000000E+03  0.7546771E-02  0.1280296E+00
         21   -1    0    0  501  502  0.00000000000E+00  0.00000000000E+00  0.79572054647E+03  0.79572054647E+03  0.00000000000E+00 0.  1.
         21   -1    0    0  502  503 -0.00000000000E+00 -0.00000000000E+00 -0.68696314135E+02  0.68696314135E+02  0.00000000000E+00 0. -1.
          6    1    1    2  501    0 -0.45333377168E+01  0.14587169145E+03  0.47185677860E+03  0.52333251479E+03  0.17300000000E+03 0.  1.
         -6    1    1    2    0  503  0.45333377168E+01 -0.14587169145E+03  0.25516745373E+03  0.34108434582E+03  0.17300000000E+03 0. -1.
</event>
<event>
 4    1  0.5900714E+000  0.1000000E+03  0.7546771E-02  0.1280296E+00
         21   -1    0    0  501  502  0.00000000000E+00  0.00000000000E+00  0.16703421490E+04  0.16703421490E+04  0.00000000000E+00 0.  1.
         21   -1    0    0  502  503 -0.00000000000E+00 -0.00000000000E+00 -0.21724975923E+02  0.21724975923E+02  0.00000000000E+00 0. -1.
          6    1    1    2  501    0  0.72358965424E+02 -0.19804999737E+01  0.67571570324E+03  0.70125633962E+03  0.17300000000E+03 0.  1.
         -6    1    1    2    0  503 -0.72358965424E+02  0.19804999737E+01  0.97290146987E+03  0.99081078534E+03  0.17300000000E+03 0. -1.
</event>
<event>
 4    1  0.5900714E+000  0.1000000E+03  0.7546771E-02  0.1280296E+00
         21   -1    0    0  501  502  0.00000000000E+00  0.00000000000E+00  0.54051977769E+03  0.54051977769E+03  0.00000000000E+00 0.  1.
         21   -1    0    0  502  503 -0.00000000000E+00 -0.00000000000E+00 -0.64630108163E+02  0.64630108163E+02  0.00000000000E+00 0. -1.
          6    1    1    2  501    0  0.52898706359E+02 -0.97050017148E+01  0.31234894541E+03  0.36108631086E+03  0.17300000000E+03 0.  1.
         -6    1    1    2    0  503 -0.52898706359E+02  0.97050017148E+01  0.16354072412E+03  0.24406357499E+03  0.17300000000E+03 0. -1.
</event>
<event>
 4    1  0.5900714E+000  0.1000000E+03  0.7546771E-02  0.1280296E+00
         21   -1    0    0  501  502  0.00000000000E+00  0.00000000000E+00  0.16435698141E+03  0.16435698141E+03  0.00000000000E+00 0. -1.
         21   -1    0    0  502  503 -0.00000000000E+00 -0.00000000000E+00 -0.32884647860E+03  0.32884647860E+03  0.00000000000E+00 0.  1.
          6    1    1    2  501    0 -0.98824663581E+02 -0.59231847626E+02  0.28216508797E+02  0.20976152477E+03  0.17300000000E+03 0. -1.
         -6    1    1    2    0  503  0.98824663581E+02  0.59231847626E+02 -0.19270600599E+03  0.28344193523E+03  0.17300000000E+03 0.  1.
</event>
<event>
 4    1  0.5900714E+000  0.1000000E+03  0.7546771E-02  0.1280296E+00
         21   -1    0    0  501  502  0.00000000000E+00  0.00000000000E+00  0.11095920872E+03  0.11095920872E+03  0.00000000000E+00 0. -1.
         21   -1    0    0  502  503 -0.00000000000E+00 -0.00000000000E+00 -0.45327183922E+03  0.45327183922E+03  0.00000000000E+00 0.  1.
          6    1    1    2  501    0 -0.10858810842E+03 -0.19878619037E+02 -0.57388355702E+02  0.21309378253E+03  0.17300000000E+03 0. -1.
         -6    1    1    2    0  503  0.10858810842E+03  0.19878619037E+02 -0.28492427480E+03  0.35113726541E+03  0.17300000000E+03 0.  1.
</event>
<event>
 4    1  0.5900714E+000  0.1000000E+03  0.7546771E-02  0.1280296E+00
         21   -1    0    0  501  502  0.00000000000E+00  0.00000000000E+00  0.84912412309E+02  0.84912412309E+02  0.00000000000E+00 0.  1.
         21   -1    0    0  502  503 -0.00000000000E+00 -0.00000000000E+00 -0.21395073411E+04  0.21395073411E+04  0.00000000000E+00 0.  1.
          6    1    1    2  501    0  0.12546068876E+03 -0.20857603554E+03 -0.23368407043E+03  0.37918543194E+03  0.17300000000E+03 0.  1.
         -6    1    1    2    0  503 -0.12546068876E+03  0.20857603554E+03 -0.18209108583E+04  0.18452343214E+04  0.17300000000E+03 0.  1.
</event>
<event>
 4    1  0.5900714E+000  0.1000000E+03  0.7546771E-02  0.1280296E+00
         21   -1    0    0  501  502  0.00000000000E+00  0.00000000000E+00  0.10365268390E+03  0.10365268390E+03  0.00000000000E+00 0.  1.
         21   -1    0    0  502  503 -0.00000000000E+00 -0.00000000000E+00 -0.30648357569E+04  0.30648357569E+04  0.00000000000E+00 0.  1.
          6    1    1    2  501    0 -0.52386659591E+02  0.20154676424E+03 -0.91072088576E+02  0.28563715724E+03  0.17300000000E+03 0.  1.
         -6    1    1    2    0  503  0.52386659591E+02 -0.20154676424E+03 -0.28701109844E+04  0.28828512836E+04  0.17300000000E+03 0.  1.
</event>
<event>
 4    1  0.5900714E+000  0.1000000E+03  0.7546771E-02  0.1280296E+00
         21   -1    0    0  501  502  0.00000000000E+00  0.00000000000E+00  0.34628128263E+03  0.34628128263E+03  0.00000000000E+00 0. -1.
         21   -1    0    0  502  503 -0.00000000000E+00 -0.00000000000E+00 -0.20220212044E+03  0.20220212044E+03  0.00000000000E+00 0. -1.
          6    1    1    2  501    0  0.14052819095E+03  0.11307847542E+03  0.16212206771E+03  0.29790515083E+03  0.17300000000E+03 0. -1.
         -6    1    1    2    0  503 -0.14052819095E+03 -0.11307847542E+03 -0.18042905519E+02  0.25057825224E+03  0.17300000000E+03 0. -1.
</event>
<event>
 4    1  0.5900714E+000  0.1000000E+03  0.7546771E-02  0.1280296E+00
         21   -1    0    0  503  502  0.00000000000E+00  0.00000000000E+00  0.12577555102E+04  0.12577555102E+04  0.00000000000E+00 0. -1.
         21   -1    0    0  501  503 -0.00000000000E+00 -0.00000000000E+00 -0.75671475777E+02  0.75671475777E+02  0.00000000000E+00 0.  1.
          6    1    1    2  501    0  0.26698587369E+02 -0.52564560753E+02  0.53925339049E+02  0.19055915041E+03  0.17300000000E+03 0.  1.
         -6    1    1    2    0  502 -0.26698587369E+02  0.52564560753E+02  0.11281586953E+04  0.11428678355E+04  0.17300000000E+03 0.  1.
</event>
<event>
 4    1  0.5900714E+000  0.1000000E+03  0.7546771E-02  0.1280296E+00
         21   -1    0    0  503  502  0.00000000000E+00  0.00000000000E+00  0.17800452516E+04  0.17800452516E+04  0.00000000000E+00 0. -1.
         21   -1    0    0  501  503 -0.00000000000E+00 -0.00000000000E+00 -0.20868606238E+02  0.20868606238E+02  0.00000000000E+00 0.  1.
          6    1    1    2  501    0 -0.30968209620E+02 -0.78595609467E+02  0.83734279694E+03  0.85919046748E+03  0.17300000000E+03 0.  1.
         -6    1    1    2    0  502  0.30968209620E+02  0.78595609467E+02  0.92183384841E+03  0.94172339034E+03  0.17300000000E+03 0.  1.
</event>
<event>
 4    1  0.5900714E+000  0.1000000E+03  0.7546771E-02  0.1280296E+00
         21   -1    0    0  503  502  0.00000000000E+00  0.00000000000E+00  0.47663000599E+03  0.47663000599E+03  0.00000000000E+00 0. -1.
         21   -1    0    0  501  503 -0.00000000000E+00 -0.00000000000E+00 -0.15963726656E+03  0.15963726656E+03  0.00000000000E+00 0.  1.
          6    1    1    2  501    0 -0.13747632293E+03 -0.18197995593E+02 -0.30761456326E+02  0.22384408325E+03  0.17300000000E+03 0.  1.
         -6    1    1    2    0  502  0.13747632293E+03  0.18197995593E+02  0.34775419575E+03  0.41242318930E+03  0.17300000000E+03 0. -1.
</event>
<event>
 4    1  0.5900714E+000  0.1000000E+03  0.7546771E-02  0.1280296E+00
         21   -1    0    0  503  502  0.00000000000E+00  0.00000000000E+00  0.49509550937E+03  0.49509550937E+03  0.00000000000E+00 0.  1.
         21   -1    0    0  501  503 -0.00000000000E+00 -0.00000000000E+00 -0.27437155978E+03  0.27437155978E+03  0.00000000000E+00 0. -1.
          6    1    1    2  501    0 -0.25225000328E+03 -0.20560443718E+03  0.10743199058E+03  0.38389305977E+03  0.17300000000E+03 0. -1.
         -6    1    1    2    0  502  0.25225000328E+03  0.20560443718E+03  0.11329195900E+03  0.38557400939E+03  0.17300000000E+03 0.  1.
</event>
<event>
 4    1  0.5900714E+000  0.1000000E+03  0.7546771E-02  0.1280296E+00
         21   -1    0    0  503  502  0.00000000000E+00  0.00000000000E+00  0.10457044149E+04  0.10457044149E+04  0.00000000000E+00 0.  1.
         21   -1    0    0  501  503 -0.00000000000E+00 -0.00000000000E+00 -0.11642876414E+03  0.11642876414E+03  0.00000000000E+00 0. -1.
          6    1    1    2  501    0  0.61324546122E+02 -0.73089134407E+02 -0.14314432282E+02  0.19808236796E+03  0.17300000000E+03 0. -1.
         -6    1    1    2    0  502 -0.61324546122E+02  0.73089134407E+02  0.94359008303E+03  0.96405081107E+03  0.17300000000E+03 0.  1.
</event>
<event>
 4    1  0.5900714E+000  0.1000000E+03  0.7546771E-02  0.1280296E+00
         21   -1    0    0  503  502  0.00000000000E+00  0.00000000000E+00  0.29437840537E+03  0.29437840537E+03  0.00000000000E+00 0.  1.
         21   -1    0    0  501  503 -0.00000000000E+00 -0.00000000000E+00 -0.27913934522E+03  0.27913934522E+03  0.00000000000E+00 0. -1.
          6    1    1    2  501    0  0.71585253966E+02 -0.11252155899E+03 -0.17807481845E+03  0.28182475191E+03  0.17300000000E+03 0. -1.
         -6    1    1    2    0  502 -0.71585253966E+02  0.11252155899E+03  0.19331387860E+03  0.29169299868E+03  0.17300000000E+03 0.  1.
</event>
<event>
 4    1  0.5900714E+000  0.1000000E+03  0.7546771E-02  0.1280296E+00
         21   -1    0    0  503  502  0.00000000000E+00  0.00000000000E+00  0.32880888295E+03  0.32880888295E+03  0.00000000000E+00 0.  1.
         21   -1    0    0  501  503 -0.00000000000E+00 -0.00000000000E+00 -0.93178516738E+02  0.93178516738E+02  0.00000000000E+00 0. -1.
          6    1    1    2  501    0 -0.22427059627E+02  0.13250387016E+02  0.12445905355E+03  0.21470352063E+03  0.17300000000E+03 0. -1.
         -6    1    1    2    0  502  0.22427059627E+02 -0.13250387016E+02  0.11117131266E+03  0.20728387906E+03  0.17300000000E+03 0.  1.
</event>
<event>
 4    1  0.5900714E+000  0.1000000E+03  0.7546771E-02  0.1280296E+00
         21   -1    0    0  503  502  0.00000000000E+00  0.00000000000E+00  0.10968973450E+04  0.10968973450E+04  0.00000000000E+00 0.  1.
         21   -1    0    0  501  503 -0.00000000000E+00 -0.00000000000E+00 -0.12151760525E+03  0.12151760525E+03  0.00000000000E+00 0. -1.
          6    1    1    2  501    0 -0.94322601032E+02  0.11096095405E+03  0.94148998023E+01  0.22633322055E+03  0.17300000000E+03 0. -1.
         -6    1    1    2    0  502  0.94322601032E+02 -0.11096095405E+03  0.96596483996E+03  0.99208172972E+03  0.17300000000E+03 0.  1.
</event>
<event>
 4    1  0.5900714E+000  0.1000000E+03  0.7546771E-02  0.1280296E+00
         21   -1    0    0  501  502  0.00000000000E+00  0.00000000000E+00  0.28815421056E+02  0.28815421056E+02  0.00000000000E+00 0.  1.
         21   -1    0    0  502  503 -0.00000000000E+00 -0.00000000000E+00 -0.14844148603E+04  0.14844148603E+04  0.00000000000E+00 0.  1.
          6    1    1    2  501    0 -0.50448628182E+02  0.42586111052E+02 -0.10648126787E+04  0.10807930800E+04  0.17300000000E+03 0.  1.
         -6    1    1    2    0  503  0.50448628182E+02 -0.42586111052E+02 -0.39078676045E+03  0.43243720132E+03  0.17300000000E+03 0.  1.
</event>
<event>
 4    1  0.5900714E+000  0.1000000E+03  0.7546771E-02  0.1280296E+00
         21   -1    0    0  501  502  0.00000000000E+00  0.00000000000E+00  0.67943645544E+02  0.67943645544E+02  0.00000000000E+00 0.  1.
         21   -1    0    0  502  503 -0.00000000000E+00 -0.00000000000E+00 -0.59304542839E+03  0.59304542839E+03  0.00000000000E+00 0.  1.
          6    1    1    2  501    0 -0.42418429730E+02  0.17807762326E+02 -0.11302161532E+03  0.21170575124E+03  0.17300000000E+03 0.  1.
         -6    1    1    2    0  503  0.42418429730E+02 -0.17807762326E+02 -0.41208016753E+03  0.44928332269E+03  0.17300000000E+03 0.  1.
</event>
<event>
 4    1  0.5900714E+000  0.1000000E+03  0.7546771E-02  0.1280296E+00
         21   -1    0    0  501  502  0.00000000000E+00  0.00000000000E+00  0.15669690414E+04  0.15669690414E+04  0.00000000000E+00 0.  1.
         21   -1    0    0  502  503 -0.00000000000E+00 -0.00000000000E+00 -0.47719424248E+02  0.47719424248E+02  0.00000000000E+00 0. -1.
          6    1    1    2  501    0  0.11768384193E+03  0.14259982550E+03  0.10644798834E+04  0.10941803412E+04  0.17300000000E+03 0. -1.
         -6    1    1    2    0  503 -0.11768384193E+03 -0.14259982550E+03  0.45476973370E+03  0.52050812441E+03  0.17300000000E+03 0. -1.
</event>
<event>
 4    1  0.5900714E+000  0.1000000E+03  0.7546771E-02  0.1280296E+00
         21   -1    0    0  501  502  0.00000000000E+00  0.00000000000E+00  0.13663473457E+03  0.13663473457E+03  0.00000000000E+00 0.  1.
         21   -1    0    0  502  503 -0.00000000000E+00 -0.00000000000E+00 -0.29623944544E+03  0.29623944544E+03  0.00000000000E+00 0. -1.
          6    1    1    2  501    0  0.38079725879E+02  0.83420033173E+02 -0.30051842056E+02  0.19809361592E+03  0.17300000000E+03 0. -1.
         -6    1    1    2    0  503 -0.38079725879E+02 -0.83420033173E+02 -0.12955286881E+03  0.23478056409E+03  0.17300000000E+03 0. -1.
</event>
<event>
 4    1  0.5900714E+000  0.1000000E+03  0.7546771E-02  0.1280296E+00
         21   -1    0    0  501  502  0.00000000000E+00  0.00000000000E+00  0.26194940960E+03  0.26194940960E+03  0.00000000000E+00 0. -1.
         21   -1    0    0  502  503 -0.00000000000E+00 -0.00000000000E+00 -0.16643194062E+03  0.16643194062E+03  0.00000000000E+00 0.  1.
          6    1    1    2  501    0  0.32818269204E+02 -0.51653522612E+02  0.14994364366E+03  0.23697514947E+03  0.17300000000E+03 0. -1.
         -6    1    1    2    0  503 -0.32818269204E+02  0.51653522612E+02 -0.54426174682E+02  0.19140620074E+03  0.17300000000E+03 0.  1.
</event>
<event>
 4    1  0.5900714E+000  0.1000000E+03  0.7546771E-02  0.1280296E+00
         21   -1    0    0  501  502  0.00000000000E+00  0.00000000000E+00  0.73355100725E+03  0.73355100725E+03  0.00000000000E+00 0. -1.
         21   -1    0    0  502  503 -0.00000000000E+00 -0.00000000000E+00 -0.81460184654E+02  0.81460184654E+02  0.00000000000E+00 0.  1.
          6    1    1    2  501    0 -0.16409117965E+03 -0.53757884755E+02  0.33141500861E+03  0.41180181318E+03  0.17300000000E+03 0. -1.
         -6    1    1    2    0  503  0.16409117965E+03  0.53757884755E+02  0.32067581399E+03  0.40320937872E+03  0.17300000000E+03 0.  1.
</event>
<event>
 4    1  0.5900714E+000  0.1000000E+03  0.7546771E-02  0.1280296E+00
         21   -1    0    0  503  502  0.00000000000E+00  0.00000000000E+00  0.30216740135E+02  0.30216740135E+02  0.00000000000E+00 0.  1.
         21   -1    0    0  501  503 -0.00000000000E+00 -0.00000000000E+00 -0.20383853292E+04  0.20383853292E+04  0.00000000000E+00 0. -1.
          6    1    1    2  501    0 -0.98112435017E+02  0.57782445638E+02 -0.15739794900E+04  0.15875469429E+04  0.17300000000E+03 0. -1.
         -6    1    1    2    0  502  0.98112435017E+02 -0.57782445638E+02 -0.43418909900E+03  0.48105512638E+03  0.17300000000E+03 0.  1.
</event>
<event>
 4    1  0.5900714E+000  0.1000000E+03  0.7546771E-02  0.1280296E+00
         21   -1    0    0  503  502  0.00000000000E+00  0.00000000000E+00  0.48814231419E+02  0.48814231419E+02  0.00000000000E+00 0.  1.
         21   -1    0    0  501  503 -0.00000000000E+00 -0.00000000000E+00 -0.74192485698E+03  0.74192485698E+03  0.00000000000E+00 0. -1.
          6    1    1    2  501    0 -0.47369501371E+02 -0.43049560107E+02 -0.44378693092E+03  0.48059647766E+03  0.17300000000E+03 0. -1.
         -6    1    1    2    0  502  0.47369501371E+02  0.43049560107E+02 -0.24932369465E+03  0.31014261074E+03  0.17300000000E+03 0.  1.
</event>
<event>
 4    1  0.5900714E+000  0.1000000E+03  0.7546771E-02  0.1280296E+00
         21   -1    0    0  501  502  0.00000000000E+00  0.00000000000E+00  0.11067214339E+03  0.11067214339E+03  0.00000000000E+00 0. -1.
         21   -1    0    0  502  503 -0.00000000000E+00 -0.00000000000E+00 -0.32803796326E+03  0.32803796326E+03  0.00000000000E+00 0. -1.
          6    1    1    2  501    0  0.48478844750E+01 -0.68935716982E+02 -0.62632826880E+02  0.19653881566E+03  0.17300000000E+03 0. -1.
         -6    1    1    2    0  503 -0.48478844750E+01  0.68935716982E+02 -0.15473299299E+03  0.24217129099E+03  0.17300000000E+03 0. -1.
</event>
<event>
 4    1  0.5900714E+000  0.1000000E+03  0.7546771E-02  0.1280296E+00
         21   -1    0    0  501  502  0.00000000000E+00  0.00000000000E+00  0.64591100069E+03  0.64591100069E+03  0.00000000000E+00 0. -1.
         21   -1    0    0  502  503 -0.00000000000E+00 -0.00000000000E+00 -0.56235016843E+02  0.56235016843E+02  0.00000000000E+00 0. -1.
          6    1    1    2  501    0  0.58505945721E+01 -0.65105158026E+02  0.37967166831E+03  0.42231799249E+03  0.17300000000E+03 0. -1.
         -6    1    1    2    0  503 -0.58505945721E+01  0.65105158026E+02  0.21000431553E+03  0.27982802504E+03  0.17300000000E+03 0. -1.
</event>
<event>
 4    1  0.5900714E+000  0.1000000E+03  0.7546771E-02  0.1280296E+00
         21   -1    0    0  501  502  0.00000000000E+00  0.00000000000E+00  0.17527548066E+03  0.17527548066E+03  0.00000000000E+00 0. -1.
         21   -1    0    0  502  503 -0.00000000000E+00 -0.00000000000E+00 -0.25995096542E+03  0.25995096542E+03  0.00000000000E+00 0. -1.
          6    1    1    2  501    0  0.39098421010E+02  0.94521248525E+02  0.30973318203E+02  0.20335018905E+03  0.17300000000E+03 0. -1.
         -6    1    1    2    0  503 -0.39098421010E+02 -0.94521248525E+02 -0.11564880296E+03  0.23187625703E+03  0.17300000000E+03 0. -1.
</event>
<event>
 4    1  0.5900714E+000  0.1000000E+03  0.7546771E-02  0.1280296E+00
         21   -1    0    0  501  502  0.00000000000E+00  0.00000000000E+00  0.11189105271E+04  0.11189105271E+04  0.00000000000E+00 0.  1.
         21   -1    0    0  502  503 -0.00000000000E+00 -0.00000000000E+00 -0.39483334578E+02  0.39483334578E+02  0.00000000000E+00 0.  1.
          6    1    1    2  501    0  0.62968379024E+02 -0.32674897458E+02  0.27516328371E+03  0.33268077550E+03  0.17300000000E+03 0.  1.
         -6    1    1    2    0  503 -0.62968379024E+02  0.32674897458E+02  0.80426390880E+03  0.82571308617E+03  0.17300000000E+03 0.  1.
</event>
<event>
 4    1  0.5900714E+000  0.1000000E+03  0.7546771E-02  0.1280296E+00
         21   -1    0    0  501  502  0.00000000000E+00  0.00000000000E+00  0.23171528138E+03  0.23171528138E+03  0.00000000000E+00 0. -1.
         21   -1    0    0  502  503 -0.00000000000E+00 -0.00000000000E+00 -0.64334383024E+03  0.64334383024E+03  0.00000000000E+00 0. -1.
          6    1    1    2  501    0 -0.18960085984E+03  0.15521345961E+03  0.69682507080E+02  0.30793563595E+03  0.17300000000E+03 0. -1.
         -6    1    1    2    0  503  0.18960085984E+03 -0.15521345961E+03 -0.48131105594E+03  0.56712347568E+03  0.17300000000E+03 0. -1.
</event>
<event>
 4    1  0.5900714E+000  0.1000000E+03  0.7546771E-02  0.1280296E+00
         21   -1    0    0  501  502  0.00000000000E+00  0.00000000000E+00  0.32223114411E+03  0.32223114411E+03  0.00000000000E+00 0. -1.
         21   -1    0    0  502  503 -0.00000000000E+00 -0.00000000000E+00 -0.14705866221E+03  0.14705866221E+03  0.00000000000E+00 0. -1.
          6    1    1    2  501    0 -0.27829500122E+02 -0.94032583822E+02 -0.78636315115E+01  0.19901619180E+03  0.17300000000E+03 0. -1.
         -6    1    1    2    0  503  0.27829500122E+02  0.94032583822E+02  0.18303611340E+03  0.27027361452E+03  0.17300000000E+03 0. -1.
</event>
<event>
 4    1  0.5900714E+000  0.1000000E+03  0.7546771E-02  0.1280296E+00
         21   -1    0    0  503  502  0.00000000000E+00  0.00000000000E+00  0.15650529360E+04  0.15650529360E+04  0.00000000000E+00 0.  1.
         21   -1    0    0  501  503 -0.00000000000E+00 -0.00000000000E+00 -0.15270746651E+03  0.15270746651E+03  0.00000000000E+00 0.  1.
          6    1    1    2  501    0 -0.23307403489E+02  0.23739706109E+02 -0.95002064814E+02  0.20015294408E+03  0.17300000000E+03 0.  1.
         -6    1    1    2    0  502  0.23307403489E+02 -0.23739706109E+02  0.15073475343E+04  0.15176074585E+04  0.17300000000E+03 0.  1.
</event>
<event>
 4    1  0.5900714E+000  0.1000000E+03  0.7546771E-02  0.1280296E+00
         21   -1    0    0  503  502  0.00000000000E+00  0.00000000000E+00  0.12820155276E+03  0.12820155276E+03  0.00000000000E+00 0.  1.
         21   -1    0    0  501  503 -0.00000000000E+00 -0.00000000000E+00 -0.36632880642E+03  0.36632880642E+03  0.00000000000E+00 0.  1.
          6    1    1    2  501    0 -0.19554323875E+02  0.12769321770E+03 -0.14031763043E+03  0.25749945017E+03  0.17300000000E+03 0.  1.
         -6    1    1    2    0  502  0.19554323875E+02 -0.12769321770E+03 -0.97809623234E+02  0.23703090901E+03  0.17300000000E+03 0.  1.
</event>
<event>
 4    1  0.5900714E+000  0.1000000E+03  0.7546771E-02  0.1280296E+00
         21   -1    0    0  503  502  0.00000000000E+00  0.00000000000E+00  0.12327959682E+03  0.12327959682E+03  0.00000000000E+00 0.  1.
         21   -1    0    0  501  503 -0.00000000000E+00 -0.00000000000E+00 -0.39750598755E+03  0.39750598755E+03  0.00000000000E+00 0.  1.
          6    1    1    2  501    0 -0.97919118030E+01 -0.11568180952E+03 -0.22511620486E+03  0.30673191598E+03  0.17300000000E+03 0.  1.
         -6    1    1    2    0  502  0.97919118030E+01  0.11568180952E+03 -0.49110185870E+02  0.21405366838E+03  0.17300000000E+03 0.  1.
</event>
<event>
 4    1  0.5900714E+000  0.1000000E+03  0.7546771E-02  0.1280296E+00
         21   -1    0    0  503  502  0.00000000000E+00  0.00000000000E+00  0.56721672650E+03  0.56721672650E+03  0.00000000000E+00 0.  1.
         21   -1    0    0  501  503 -0.00000000000E+00 -0.00000000000E+00 -0.77187081002E+02  0.77187081002E+02  0.00000000000E+00 0.  1.
          6    1    1    2  501    0  0.87948847946E+02 -0.76856091993E+02  0.22264999436E+03  0.30519482093E+03  0.17300000000E+03 0.  1.
         -6    1    1    2    0  502 -0.87948847946E+02  0.76856091993E+02  0.26737965113E+03  0.33920898657E+03  0.17300000000E+03 0.  1.
</event>
<event>
 4    1  0.5900714E+000  0.1000000E+03  0.7546771E-02  0.1280296E+00
         21   -1    0    0  503  502  0.00000000000E+00  0.00000000000E+00  0.39574955958E+03  0.39574955958E+03  0.00000000000E+00 0.  1.
         21   -1    0    0  501  503 -0.00000000000E+00 -0.00000000000E+00 -0.26368412186E+03  0.26368412186E+03  0.00000000000E+00 0.  1.
          6    1    1    2  501    0 -0.15472997781E+03  0.95211170848E+02 -0.14168810309E+03  0.28811638559E+03  0.17300000000E+03 0.  1.
         -6    1    1    2    0  502  0.15472997781E+03 -0.95211170848E+02  0.27375354081E+03  0.37131729585E+03  0.17300000000E+03 0.  1.
</event>
<event>
 4    1  0.5900714E+000  0.1000000E+03  0.7546771E-02  0.1280296E+00
         21   -1    0    0  501  502  0.00000000000E+00  0.00000000000E+00  0.31108140096E+03  0.31108140096E+03  0.00000000000E+00 0. -1.
         21   -1    0    0  502  503 -0.00000000000E+00 -0.00000000000E+00 -0.42632347538E+03  0.42632347538E+03  0.00000000000E+00 0. -1.
          6    1    1    2  501    0 -0.13493976723E+03 -0.10968483040E+03  0.21489806725E+03  0.32611298979E+03  0.17300000000E+03 0.  1.
         -6    1    1    2    0  503  0.13493976723E+03  0.10968483040E+03 -0.33014014167E+03  0.41129188655E+03  0.17300000000E+03 0.  1.
</event>
<event>
 4    1  0.5900714E+000  0.1000000E+03  0.7546771E-02  0.1280296E+00
         21   -1    0    0  501  502  0.00000000000E+00  0.00000000000E+00  0.62139089357E+03  0.62139089357E+03  0.00000000000E+00 0. -1.
         21   -1    0    0  502  503 -0.00000000000E+00 -0.00000000000E+00 -0.98043525525E+02  0.98043525525E+02  0.00000000000E+00 0. -1.
          6    1    1    2  501    0  0.13951647949E+03  0.42614661741E+02  0.40530763521E+03  0.46420268914E+03  0.17300000000E+03 0.  1.
         -6    1    1    2    0  503 -0.13951647949E+03 -0.42614661741E+02  0.11803973283E+03  0.25523172995E+03  0.17300000000E+03 0.  1.
</event>
<event>
 4    1  0.5900714E+000  0.1000000E+03  0.7546771E-02  0.1280296E+00
         21   -1    0    0  501  502  0.00000000000E+00  0.00000000000E+00  0.13538106540E+03  0.13538106540E+03  0.00000000000E+00 0. -1.
         21   -1    0    0  502  503 -0.00000000000E+00 -0.00000000000E+00 -0.41288901540E+03  0.41288901540E+03  0.00000000000E+00 0. -1.
          6    1    1    2  501    0 -0.72461472051E+02  0.10305566522E+03 -0.22242197813E+02  0.21516238154E+03  0.17300000000E+03 0.  1.
         -6    1    1    2    0  503  0.72461472051E+02 -0.10305566522E+03 -0.25526575219E+03  0.33310769926E+03  0.17300000000E+03 0.  1.
</event>
<event>
 4    1  0.5900714E+000  0.1000000E+03  0.7546771E-02  0.1280296E+00
         21   -1    0    0  501  502  0.00000000000E+00  0.00000000000E+00  0.14553024013E+04  0.14553024013E+04  0.00000000000E+00 0. -1.
         21   -1    0    0  502  503 -0.00000000000E+00 -0.00000000000E+00 -0.31330168800E+02  0.31330168800E+02  0.00000000000E+00 0.  1.
          6    1    1    2  501    0 -0.78477839887E+02 -0.60093076503E+02  0.97928150946E+03  0.99934539773E+03  0.17300000000E+03 0.  1.
         -6    1    1    2    0  503  0.78477839887E+02  0.60093076503E+02  0.44469072303E+03  0.48728717236E+03  0.17300000000E+03 0.  1.
</event>
<event>
 4    1  0.5900714E+000  0.1000000E+03  0.7546771E-02  0.1280296E+00
         21   -1    0    0  501  502  0.00000000000E+00  0.00000000000E+00  0.94900287079E+03  0.94900287079E+03  0.00000000000E+00 0.  1.
         21   -1    0    0  502  503 -0.00000000000E+00 -0.00000000000E+00 -0.13714957560E+03  0.13714957560E+03  0.00000000000E+00 0. -1.
          6    1    1    2  501    0  0.23921090706E+03  0.17441314291E+02  0.71698736625E+03  0.77558103436E+03  0.17300000000E+03 0.  1.
         -6    1    1    2    0  503 -0.23921090706E+03 -0.17441314291E+02  0.94865928946E+02  0.31057141204E+03  0.17300000000E+03 0. -1.
</event>
<event>
 4    1  0.5900714E+000  0.1000000E+03  0.7546771E-02  0.1280296E+00
         21   -1    0    0  501  502  0.00000000000E+00  0.00000000000E+00  0.82781724762E+02  0.82781724762E+02  0.00000000000E+00 0.  1.
         21   -1    0    0  502  503 -0.00000000000E+00 -0.00000000000E+00 -0.36586764203E+03  0.36586764203E+03  0.00000000000E+00 0. -1.
          6    1    1    2  501    0 -0.73838723386E+01 -0.72764968092E+01 -0.16195152062E+03  0.23720194773E+03  0.17300000000E+03 0.  1.
         -6    1    1    2    0  503  0.73838723386E+01  0.72764968092E+01 -0.12113439665E+03  0.21144741907E+03  0.17300000000E+03 0. -1.
</event>
<event>
 4    1  0.5900714E+000  0.1000000E+03  0.7546771E-02  0.1280296E+00
         21   -1    0    0  501  502  0.00000000000E+00  0.00000000000E+00  0.99573004312E+03  0.99573004312E+03  0.00000000000E+00 0. -1.
         21   -1    0    0  502  503 -0.00000000000E+00 -0.00000000000E+00 -0.14862734842E+03  0.14862734842E+03  0.00000000000E+00 0. -1.
          6    1    1    2  501    0 -0.12928195157E+03  0.18814752742E+03  0.80551341296E+03  0.85492348987E+03  0.17300000000E+03 0. -1.
         -6    1    1    2    0  503  0.12928195157E+03 -0.18814752742E+03  0.41589281734E+02  0.28943390166E+03  0.17300000000E+03 0. -1.
</event>
<event>
 4    1  0.5900714E+000  0.1000000E+03  0.7546771E-02  0.1280296E+00
         21   -1    0    0  503  502  0.00000000000E+00  0.00000000000E+00  0.75462001840E+03  0.75462001840E+03  0.00000000000E+00 0. -1.
         21   -1    0    0  501  503 -0.00000000000E+00 -0.00000000000E+00 -0.57440870006E+02  0.57440870006E+02  0.00000000000E+00 0. -1.
          6    1    1    2  501    0 -0.64251011898E+02  0.57382390374E+02  0.19757518352E+03  0.27637996382E+03  0.17300000000E+03 0. -1.
         -6    1    1    2    0  502  0.64251011898E+02 -0.57382390374E+02  0.49960396487E+03  0.53568092459E+03  0.17300000000E+03 0. -1.
</event>
<event>
 4    1  0.5900714E+000  0.1000000E+03  0.7546771E-02  0.1280296E+00
         21   -1    0    0  503  502  0.00000000000E+00  0.00000000000E+00  0.95851722059E+03  0.95851722059E+03  0.00000000000E+00 0. -1.
         21   -1    0    0  501  503 -0.00000000000E+00 -0.00000000000E+00 -0.37709213860E+03  0.37709213860E+03  0.00000000000E+00 0. -1.
          6    1    1    2  501    0  0.33699892049E+02  0.12439598122E+03 -0.33261909330E+03  0.39645239827E+03  0.17300000000E+03 0. -1.
         -6    1    1    2    0  502 -0.33699892049E+02 -0.12439598122E+03  0.91404417529E+03  0.93915696093E+03  0.17300000000E+03 0. -1.
</event>
<event>
 4    1  0.5900714E+000  0.1000000E+03  0.7546771E-02  0.1280296E+00
         21   -1    0    0  501  502  0.00000000000E+00  0.00000000000E+00  0.16509600811E+04  0.16509600811E+04  0.00000000000E+00 0. -1.
         21   -1    0    0  502  503 -0.00000000000E+00 -0.00000000000E+00 -0.37606956978E+02  0.37606956978E+02  0.00000000000E+00 0.  1.
          6    1    1    2  501    0  0.71173949425E+02 -0.15086682965E+02  0.13620451817E+04  0.13749143305E+04  0.17300000000E+03 0.  1.
         -6    1    1    2    0  503 -0.71173949425E+02  0.15086682965E+02  0.25130794242E+03  0.31365270763E+03  0.17300000000E+03 0.  1.
</event>
<event>
 4    1  0.5900714E+000  0.1000000E+03  0.7546771E-02  0.1280296E+00
         21   -1    0    0  503  502  0.00000000000E+00  0.00000000000E+00  0.15066510100E+04  0.15066510100E+04  0.00000000000E+00 0. -1.
         21   -1    0    0  501  503 -0.00000000000E+00 -0.00000000000E+00 -0.71296248279E+02  0.71296248279E+02  0.00000000000E+00 0. -1.
          6    1    1    2  501    0  0.41270476191E+02  0.13605494297E+03  0.14156561186E+03  0.26492267207E+03  0.17300000000E+03 0.  1.
         -6    1    1    2    0  502 -0.41270476191E+02 -0.13605494297E+03  0.12937891498E+04  0.13130245862E+04  0.17300000000E+03 0.  1.
</event>
<event>
 4    1  0.5900714E+000  0.1000000E+03  0.7546771E-02  0.1280296E+00
         21   -1    0    0  503  502  0.00000000000E+00  0.00000000000E+00  0.13379785309E+04  0.13379785309E+04  0.00000000000E+00 0. -1.
         21   -1    0    0  501  503 -0.00000000000E+00 -0.00000000000E+00 -0.50453929046E+02  0.50453929046E+02  0.00000000000E+00 0. -1.
          6    1    1    2  501    0  0.13683291250E+03 -0.34576362854E+02  0.28870402766E+03  0.36496271919E+03  0.17300000000E+03 0.  1.
         -6    1    1    2    0  502 -0.13683291250E+03  0.34576362854E+02  0.99882057422E+03  0.10234697408E+04  0.17300000000E+03 0.  1.
</event>
<event>
 4    1  0.5900714E+000  0.1000000E+03  0.7546771E-02  0.1280296E+00
         21   -1    0    0  501  502  0.00000000000E+00  0.00000000000E+00  0.92161628150E+02  0.92161628150E+02  0.00000000000E+00 0.  1.
         21   -1    0    0  502  503 -0.00000000000E+00 -0.00000000000E+00 -0.45169051891E+03  0.45169051891E+03  0.00000000000E+00 0.  1.
          6    1    1    2  501    0 -0.74800537788E+02 -0.52558649382E+02 -0.25681195746E+03  0.32286051721E+03  0.17300000000E+03 0.  1.
         -6    1    1    2    0  503  0.74800537788E+02  0.52558649382E+02 -0.10271693331E+03  0.22099162986E+03  0.17300000000E+03 0.  1.
</event>
<event>
 4    1  0.5900714E+000  0.1000000E+03  0.7546771E-02  0.1280296E+00
         21   -1    0    0  501  502  0.00000000000E+00  0.00000000000E+00  0.16103689782E+03  0.16103689782E+03  0.00000000000E+00 0. -1.
         21   -1    0    0  502  503 -0.00000000000E+00 -0.00000000000E+00 -0.10005056918E+04  0.10005056918E+04  0.00000000000E+00 0. -1.
          6    1    1    2  501    0 -0.18719116466E+03 -0.15833678789E+03 -0.33988723211E+02  0.30198560203E+03  0.17300000000E+03 0. -1.
         -6    1    1    2    0  503  0.18719116466E+03  0.15833678789E+03 -0.80548007078E+03  0.85955698761E+03  0.17300000000E+03 0. -1.
</event>
<event>
 4    1  0.5900714E+000  0.1000000E+03  0.7546771E-02  0.1280296E+00
         21   -1    0    0  501  502  0.00000000000E+00  0.00000000000E+00  0.43973894656E+03  0.43973894656E+03  0.00000000000E+00 0.  1.
         21   -1    0    0  502  503 -0.00000000000E+00 -0.00000000000E+00 -0.17880424659E+03  0.17880424659E+03  0.00000000000E+00 0.  1.
          6    1    1    2  501    0  0.58588299554E+02  0.10204174475E+02  0.36485661897E+03  0.40814956380E+03  0.17300000000E+03 0.  1.
         -6    1    1    2    0  503 -0.58588299554E+02 -0.10204174475E+02 -0.10392191900E+03  0.21039362935E+03  0.17300000000E+03 0.  1.
</event>
<event>
 4    1  0.5900714E+000  0.1000000E+03  0.7546771E-02  0.1280296E+00
         21   -1    0    0  501  502  0.00000000000E+00  0.00000000000E+00  0.22197365890E+03  0.22197365890E+03  0.00000000000E+00 0.  1.
         21   -1    0    0  502  503 -0.00000000000E+00 -0.00000000000E+00 -0.18034723142E+03  0.18034723142E+03  0.00000000000E+00 0.  1.
          6    1    1    2  501    0 -0.92304535862E+01  0.76514675530E+02  0.85687651774E+02  0.20787272671E+03  0.17300000000E+03 0.  1.
         -6    1    1    2    0  503  0.92304535862E+01 -0.76514675530E+02 -0.44061224298E+02  0.19444816361E+03  0.17300000000E+03 0.  1.
</event>
<event>
 4    1  0.5900714E+000  0.1000000E+03  0.7546771E-02  0.1280296E+00
         21   -1    0    0  501  502  0.00000000000E+00  0.00000000000E+00  0.49399722621E+03  0.49399722621E+03  0.00000000000E+00 0.  1.
         21   -1    0    0  502  503 -0.00000000000E+00 -0.00000000000E+00 -0.20912841184E+03  0.20912841184E+03  0.00000000000E+00 0.  1.
          6    1    1    2  501    0 -0.24513416042E+03 -0.12806959886E+02  0.26774424040E+03  0.40233164566E+03  0.17300000000E+03 0.  1.
         -6    1    1    2    0  503  0.24513416042E+03  0.12806959886E+02  0.17124573970E+02  0.30079399240E+03  0.17300000000E+03 0.  1.
</event>
<event>
 4    1  0.5900714E+000  0.1000000E+03  0.7546771E-02  0.1280296E+00
         21   -1    0    0  501  502  0.00000000000E+00  0.00000000000E+00  0.17340819735E+03  0.17340819735E+03  0.00000000000E+00 0.  1.
         21   -1    0    0  502  503 -0.00000000000E+00 -0.00000000000E+00 -0.45387449081E+03  0.45387449081E+03  0.00000000000E+00 0.  1.
          6    1    1    2  501    0 -0.79246798835E+02 -0.13601302098E+03  0.32951234979E+02  0.23620834212E+03  0.17300000000E+03 0.  1.
         -6    1    1    2    0  503  0.79246798835E+02  0.13601302098E+03 -0.31341752844E+03  0.39107434604E+03  0.17300000000E+03 0.  1.
</event>
<event>
 4    1  0.5900714E+000  0.1000000E+03  0.7546771E-02  0.1280296E+00
         21   -1    0    0  501  502  0.00000000000E+00  0.00000000000E+00  0.54213117585E+03  0.54213117585E+03  0.00000000000E+00 0. -1.
         21   -1    0    0  502  503 -0.00000000000E+00 -0.00000000000E+00 -0.90305737351E+02  0.90305737351E+02  0.00000000000E+00 0.  1.
          6    1    1    2  501    0 -0.45147319285E+02 -0.11025617584E+03  0.32527555415E+03  0.38720523096E+03  0.17300000000E+03 0. -1.
         -6    1    1    2    0  503  0.45147319285E+02  0.11025617584E+03  0.12654988434E+03  0.24523168224E+03  0.17300000000E+03 0.  1.
</event>
<event>
 4    1  0.5900714E+000  0.1000000E+03  0.7546771E-02  0.1280296E+00
         21   -1    0    0  501  502  0.00000000000E+00  0.00000000000E+00  0.65799973907E+03  0.65799973907E+03  0.00000000000E+00 0. -1.
         21   -1    0    0  502  503 -0.00000000000E+00 -0.00000000000E+00 -0.18065576641E+03  0.18065576641E+03  0.00000000000E+00 0. -1.
          6    1    1    2  501    0 -0.17785821535E+02 -0.12221986404E+03  0.56882437506E+03  0.60724311463E+03  0.17300000000E+03 0. -1.
         -6    1    1    2    0  503  0.17785821535E+02  0.12221986404E+03 -0.91480402400E+02  0.23141239085E+03  0.17300000000E+03 0. -1.
</event>
<event>
 4    1  0.5900714E+000  0.1000000E+03  0.7546771E-02  0.1280296E+00
         21   -1    0    0  501  502  0.00000000000E+00  0.00000000000E+00  0.38562110922E+03  0.38562110922E+03  0.00000000000E+00 0.  1.
         21   -1    0    0  502  503 -0.00000000000E+00 -0.00000000000E+00 -0.83342971367E+02  0.83342971367E+02  0.00000000000E+00 0. -1.
          6    1    1    2  501    0 -0.20039016645E+02 -0.35988944719E+01  0.20655856663E+03  0.27020354490E+03  0.17300000000E+03 0.  1.
         -6    1    1    2    0  503  0.20039016645E+02  0.35988944719E+01  0.95719571218E+02  0.19876053568E+03  0.17300000000E+03 0. -1.
</event>
<event>
 4    1  0.5900714E+000  0.1000000E+03  0.7546771E-02  0.1280296E+00
         21   -1    0    0  501  502  0.00000000000E+00  0.00000000000E+00  0.21291688761E+04  0.21291688761E+04  0.00000000000E+00 0.  1.
         21   -1    0    0  502  503 -0.00000000000E+00 -0.00000000000E+00 -0.40193251785E+02  0.40193251785E+02  0.00000000000E+00 0. -1.
          6    1    1    2  501    0  0.16147187031E+03 -0.28227177038E+02  0.16735019570E+04  0.16903868606E+04  0.17300000000E+03 0.  1.
         -6    1    1    2    0  503 -0.16147187031E+03  0.28227177038E+02  0.41547366725E+03  0.47897526722E+03  0.17300000000E+03 0. -1.
</event>
<event>
 4    1  0.5900714E+000  0.1000000E+03  0.7546771E-02  0.1280296E+00
         21   -1    0    0  501  502  0.00000000000E+00  0.00000000000E+00  0.11029458954E+04  0.11029458954E+04  0.00000000000E+00 0. -1.
         21   -1    0    0  502  503 -0.00000000000E+00 -0.00000000000E+00 -0.15042926867E+03  0.15042926867E+03  0.00000000000E+00 0.  1.
          6    1    1    2  501    0 -0.61536145090E+02 -0.29002067711E+03  0.13887421594E+03  0.37028872270E+03  0.17300000000E+03 0.  1.
         -6    1    1    2    0  503  0.61536145090E+02  0.29002067711E+03  0.81364241076E+03  0.88308644134E+03  0.17300000000E+03 0.  1.
</event>
<event>
 4    1  0.5900714E+000  0.1000000E+03  0.7546771E-02  0.1280296E+00
         21   -1    0    0  503  502  0.00000000000E+00  0.00000000000E+00  0.20067840590E+03  0.20067840590E+03  0.00000000000E+00 0. -1.
         21   -1    0    0  501  503 -0.00000000000E+00 -0.00000000000E+00 -0.86586891043E+03  0.86586891043E+03  0.00000000000E+00 0.  1.
          6    1    1    2  501    0  0.81519489622E+02 -0.18137691481E+03 -0.74573156022E+03  0.79094094111E+03  0.17300000000E+03 0.  1.
         -6    1    1    2    0  502 -0.81519489622E+02  0.18137691481E+03  0.80541055683E+02  0.27560637523E+03  0.17300000000E+03 0. -1.
</event>
<event>
 4    1  0.5900714E+000  0.1000000E+03  0.7546771E-02  0.1280296E+00
         21   -1    0    0  503  502  0.00000000000E+00  0.00000000000E+00  0.11062004689E+03  0.11062004689E+03  0.00000000000E+00 0. -1.
         21   -1    0    0  501  503 -0.00000000000E+00 -0.00000000000E+00 -0.58286991169E+03  0.58286991169E+03  0.00000000000E+00 0.  1.
          6    1    1    2  501    0  0.32923843915E+02  0.18293193489E+03 -0.23633937234E+03  0.34689100770E+03  0.17300000000E+03 0.  1.
         -6    1    1    2    0  502 -0.32923843915E+02 -0.18293193489E+03 -0.23591049245E+03  0.34659895088E+03  0.17300000000E+03 0. -1.
</event>
<event>
 4    1  0.5900714E+000  0.1000000E+03  0.7546771E-02  0.1280296E+00
         21   -1    0    0  501  502  0.00000000000E+00  0.00000000000E+00  0.35348529293E+03  0.35348529293E+03  0.00000000000E+00 0.  1.
         21   -1    0    0  502  503 -0.00000000000E+00 -0.00000000000E+00 -0.10412754787E+03  0.10412754787E+03  0.00000000000E+00 0.  1.
          6    1    1    2  501    0 -0.22995596039E+02  0.77720489675E+02  0.10370498160E+03  0.21737754061E+03  0.17300000000E+03 0.  1.
         -6    1    1    2    0  503  0.22995596039E+02 -0.77720489675E+02  0.14565276346E+03  0.24023530019E+03  0.17300000000E+03 0.  1.
</event>
<event>
 4    1  0.5900714E+000  0.1000000E+03  0.7546771E-02  0.1280296E+00
         21   -1    0    0  503  502  0.00000000000E+00  0.00000000000E+00  0.73879426408E+03  0.73879426408E+03  0.00000000000E+00 0.  1.
         21   -1    0    0  501  503 -0.00000000000E+00 -0.00000000000E+00 -0.10779713055E+03  0.10779713055E+03  0.00000000000E+00 0.  1.
          6    1    1    2  501    0 -0.54678584366E+01 -0.13255140734E+03  0.58428434234E+03  0.62363207564E+03  0.17300000000E+03 0.  1.
         -6    1    1    2    0  502  0.54678584366E+01  0.13255140734E+03  0.46712791190E+02  0.22295931899E+03  0.17300000000E+03 0.  1.
</event>
<event>
 4    1  0.5900714E+000  0.1000000E+03  0.7546771E-02  0.1280296E+00
         21   -1    0    0  503  502  0.00000000000E+00  0.00000000000E+00  0.17294286430E+04  0.17294286430E+04  0.00000000000E+00 0.  1.
         21   -1    0    0  501  503 -0.00000000000E+00 -0.00000000000E+00 -0.35179016375E+02  0.35179016375E+02  0.00000000000E+00 0.  1.
          6    1    1    2  501    0 -0.25429783020E+02 -0.29687548672E+02  0.23397032057E+03  0.29359689256E+03  0.17300000000E+03 0.  1.
         -6    1    1    2    0  502  0.25429783020E+02  0.29687548672E+02  0.14602793060E+04  0.14710107668E+04  0.17300000000E+03 0.  1.
</event>
<event>
 4    1  0.5900714E+000  0.1000000E+03  0.7546771E-02  0.1280296E+00
         21   -1    0    0  503  502  0.00000000000E+00  0.00000000000E+00  0.41124795153E+03  0.41124795153E+03  0.00000000000E+00 0.  1.
         21   -1    0    0  501  503 -0.00000000000E+00 -0.00000000000E+00 -0.35845101970E+03  0.35845101970E+03  0.00000000000E+00 0.  1.
          6    1    1    2  501    0 -0.14512496909E+03 -0.88836255566E+02 -0.27184410192E+03  0.36439175719E+03  0.17300000000E+03 0.  1.
         -6    1    1    2    0  502  0.14512496909E+03  0.88836255566E+02  0.32464103375E+03  0.40530721404E+03  0.17300000000E+03 0.  1.
</event>
<event>
 4    1  0.5900714E+000  0.1000000E+03  0.7546771E-02  0.1280296E+00
         21   -1    0    0  503  502  0.00000000000E+00  0.00000000000E+00  0.28779693952E+03  0.28779693952E+03  0.00000000000E+00 0.  1.
         21   -1    0    0  501  503 -0.00000000000E+00 -0.00000000000E+00 -0.13523788147E+03  0.13523788147E+03  0.00000000000E+00 0.  1.
          6    1    1    2  501    0 -0.53791506096E+02 -0.51530264302E+02  0.13367732432E+02  0.18882952772E+03  0.17300000000E+03 0.  1.
         -6    1    1    2    0  502  0.53791506096E+02  0.51530264302E+02  0.13919132562E+03  0.23420529327E+03  0.17300000000E+03 0.  1.
</event>
<event>
 4    1  0.5900714E+000  0.1000000E+03  0.7546771E-02  0.1280296E+00
         21   -1    0    0  501  502  0.00000000000E+00  0.00000000000E+00  0.32494028416E+03  0.32494028416E+03  0.00000000000E+00 0. -1.
         21   -1    0    0  502  503 -0.00000000000E+00 -0.00000000000E+00 -0.22547174828E+03  0.22547174828E+03  0.00000000000E+00 0.  1.
          6    1    1    2  501    0 -0.80956306772E+01  0.16759737649E+02  0.26054411945E+03  0.31330283468E+03  0.17300000000E+03 0. -1.
         -6    1    1    2    0  503  0.80956306772E+01 -0.16759737649E+02 -0.16107558356E+03  0.23710919776E+03  0.17300000000E+03 0.  1.
</event>
<event>
 4    1  0.5900714E+000  0.1000000E+03  0.7546771E-02  0.1280296E+00
         21   -1    0    0  501  502  0.00000000000E+00  0.00000000000E+00  0.38638675778E+03  0.38638675778E+03  0.00000000000E+00 0. -1.
         21   -1    0    0  502  503 -0.00000000000E+00 -0.00000000000E+00 -0.37602903402E+03  0.37602903402E+03  0.00000000000E+00 0.  1.
          6    1    1    2  501    0 -0.18418813377E+03  0.19114711680E+03  0.21709733447E+03  0.38408689319E+03  0.17300000000E+03 0. -1.
         -6    1    1    2    0  503  0.18418813377E+03 -0.19114711680E+03 -0.20673961071E+03  0.37832889861E+03  0.17300000000E+03 0.  1.
</event>
<event>
 4    1  0.5900714E+000  0.1000000E+03  0.7546771E-02  0.1280296E+00
         21   -1    0    0  501  502  0.00000000000E+00  0.00000000000E+00  0.84143317253E+03  0.84143317253E+03  0.00000000000E+00 0. -1.
         21   -1    0    0  502  503 -0.00000000000E+00 -0.00000000000E+00 -0.73917386623E+02  0.73917386623E+02  0.00000000000E+00 0. -1.
          6    1    1    2  501    0  0.25134163838E+02 -0.12561431003E+03  0.61484884164E+03  0.65144361163E+03  0.17300000000E+03 0.  1.
         -6    1    1    2    0  503 -0.25134163838E+02  0.12561431003E+03  0.15266694428E+03  0.26390694752E+03  0.17300000000E+03 0.  1.
</event>
<event>
 4    1  0.5900714E+000  0.1000000E+03  0.7546771E-02  0.1280296E+00
         21   -1    0    0  501  502  0.00000000000E+00  0.00000000000E+00  0.53837702954E+03  0.53837702954E+03  0.00000000000E+00 0. -1.
         21   -1    0    0  502  503 -0.00000000000E+00 -0.00000000000E+00 -0.59141596569E+02  0.59141596569E+02  0.00000000000E+00 0. -1.
          6    1    1    2  501    0 -0.40848918640E+02 -0.99647827688E+01  0.25967754737E+03  0.31484815333E+03  0.17300000000E+03 0.  1.
         -6    1    1    2    0  503  0.40848918640E+02  0.99647827688E+01  0.21955788561E+03  0.28267047278E+03  0.17300000000E+03 0.  1.
</event>
<event>
 4    1  0.5900714E+000  0.1000000E+03  0.7546771E-02  0.1280296E+00
         21   -1    0    0  501  502  0.00000000000E+00  0.00000000000E+00  0.34273165767E+03  0.34273165767E+03  0.00000000000E+00 0. -1.
         21   -1    0    0  502  503 -0.00000000000E+00 -0.00000000000E+00 -0.18813983788E+03  0.18813983788E+03  0.00000000000E+00 0. -1.
          6    1    1    2  501    0 -0.53833759590E+02 -0.37633932727E+02  0.25906461342E+03  0.31836749283E+03  0.17300000000E+03 0. -1.
         -6    1    1    2    0  503  0.53833759590E+02  0.37633932727E+02 -0.10447279363E+03  0.21250400272E+03  0.17300000000E+03 0. -1.
</event>
<event>
 4    1  0.5900714E+000  0.1000000E+03  0.7546771E-02  0.1280296E+00
         21   -1    0    0  501  502  0.00000000000E+00  0.00000000000E+00  0.44081039647E+03  0.44081039647E+03  0.00000000000E+00 0. -1.
         21   -1    0    0  502  503 -0.00000000000E+00 -0.00000000000E+00 -0.96996311200E+02  0.96996311200E+02  0.00000000000E+00 0. -1.
          6    1    1    2  501    0 -0.58914608483E+02  0.48346917077E+02  0.28086268126E+03  0.33855753013E+03  0.17300000000E+03 0. -1.
         -6    1    1    2    0  503  0.58914608483E+02 -0.48346917077E+02  0.62951404012E+02  0.19924917754E+03  0.17300000000E+03 0. -1.
</event>
<event>
 4    1  0.5900714E+000  0.1000000E+03  0.7546771E-02  0.1280296E+00
         21   -1    0    0  501  502  0.00000000000E+00  0.00000000000E+00  0.79944684639E+03  0.79944684639E+03  0.00000000000E+00 0. -1.
         21   -1    0    0  502  503 -0.00000000000E+00 -0.00000000000E+00 -0.43616402652E+03  0.43616402652E+03  0.00000000000E+00 0. -1.
          6    1    1    2  501    0 -0.24964709515E+03 -0.44400903218E+03  0.43640342864E+03  0.69270819636E+03  0.17300000000E+03 0. -1.
         -6    1    1    2    0  503  0.24964709515E+03  0.44400903218E+03 -0.73120608763E+02  0.54290267655E+03  0.17300000000E+03 0. -1.
</event>
<event>
 4    1  0.5900714E+000  0.1000000E+03  0.7546771E-02  0.1280296E+00
         21   -1    0    0  501  502  0.00000000000E+00  0.00000000000E+00  0.85225518132E+02  0.85225518132E+02  0.00000000000E+00 0. -1.
         21   -1    0    0  502  503 -0.00000000000E+00 -0.00000000000E+00 -0.15109727330E+04  0.15109727330E+04  0.00000000000E+00 0. -1.
          6    1    1    2  501    0  0.73174847340E+02 -0.79743793549E+02 -0.56381430864E+02  0.21171087983E+03  0.17300000000E+03 0. -1.
         -6    1    1    2    0  503 -0.73174847340E+02  0.79743793549E+02 -0.13693657840E+04  0.13844873713E+04  0.17300000000E+03 0. -1.
</event>
<event>
 4    1  0.5900714E+000  0.1000000E+03  0.7546771E-02  0.1280296E+00
         21   -1    0    0  501  502  0.00000000000E+00  0.00000000000E+00  0.12402831156E+04  0.12402831156E+04  0.00000000000E+00 0. -1.
         21   -1    0    0  502  503 -0.00000000000E+00 -0.00000000000E+00 -0.32767256759E+02  0.32767256759E+02  0.00000000000E+00 0.  1.
          6    1    1    2  501    0 -0.84256068076E+02  0.52875787807E+02  0.69399342511E+03  0.72211550879E+03  0.17300000000E+03 0.  1.
         -6    1    1    2    0  503  0.84256068076E+02 -0.52875787807E+02  0.51352243369E+03  0.55093486352E+03  0.17300000000E+03 0.  1.
</event>
<event>
 4    1  0.5900714E+000  0.1000000E+03  0.7546771E-02  0.1280296E+00
         21   -1    0    0  501  502  0.00000000000E+00  0.00000000000E+00  0.63437200292E+03  0.63437200292E+03  0.00000000000E+00 0.  1.
         21   -1    0    0  502  503 -0.00000000000E+00 -0.00000000000E+00 -0.96837414601E+02  0.96837414601E+02  0.00000000000E+00 0. -1.
          6    1    1    2  501    0 -0.14422500208E+03  0.10269488244E+03  0.28712338397E+03  0.37909883636E+03  0.17300000000E+03 0.  1.
         -6    1    1    2    0  503  0.14422500208E+03 -0.10269488244E+03  0.25041120435E+03  0.35211058117E+03  0.17300000000E+03 0. -1.
</event>
<event>
 4    1  0.5900714E+000  0.1000000E+03  0.7546771E-02  0.1280296E+00
         21   -1    0    0  501  502  0.00000000000E+00  0.00000000000E+00  0.56420041281E+02  0.56420041281E+02  0.00000000000E+00 0.  1.
         21   -1    0    0  502  503 -0.00000000000E+00 -0.00000000000E+00 -0.81082106051E+03  0.81082106051E+03  0.00000000000E+00 0. -1.
          6    1    1    2  501    0 -0.11410122470E+03 -0.35166407206E+02 -0.29708026842E+03  0.36392506311E+03  0.17300000000E+03 0.  1.
         -6    1    1    2    0  503  0.11410122470E+03  0.35166407206E+02 -0.45732075081E+03  0.50331603868E+03  0.17300000000E+03 0. -1.
</event>
<event>
 4    1  0.5900714E+000  0.1000000E+03  0.7546771E-02  0.1280296E+00
         21   -1    0    0  503  502  0.00000000000E+00  0.00000000000E+00  0.16400569825E+03  0.16400569825E+03  0.00000000000E+00 0.  1.
         21   -1    0    0  501  503 -0.00000000000E+00 -0.00000000000E+00 -0.30156312038E+03  0.30156312038E+03  0.00000000000E+00 0. -1.
          6    1    1    2  501    0 -0.51445717031E+02 -0.11601678684E+03 -0.13001486297E+03  0.25087730313E+03  0.17300000000E+03 0. -1.
         -6    1    1    2    0  502  0.51445717031E+02  0.11601678684E+03 -0.75425591541E+01  0.21469151550E+03  0.17300000000E+03 0.  1.
</event>
<event>
 4    1  0.5900714E+000  0.1000000E+03  0.7546771E-02  0.1280296E+00
         21   -1    0    0  503  502  0.00000000000E+00  0.00000000000E+00  0.79006741819E+02  0.79006741819E+02  0.00000000000E+00 0.  1.
         21   -1    0    0  501  503 -0.00000000000E+00 -0.00000000000E+00 -0.62860265335E+03  0.62860265335E+03  0.00000000000E+00 0. -1.
          6    1    1    2  501    0 -0.10653727544E+03 -0.84775332594E+02 -0.21985203298E+03  0.31112853370E+03  0.17300000000E+03 0. -1.
         -6    1    1    2    0  502  0.10653727544E+03  0.84775332594E+02 -0.32974387855E+03  0.39648086148E+03  0.17300000000E+03 0.  1.
</event>
<event>
 4    1  0.5900714E+000  0.1000000E+03  0.7546771E-02  0.1280296E+00
         21   -1    0    0  501  502  0.00000000000E+00  0.00000000000E+00  0.46876117355E+02  0.46876117355E+02  0.00000000000E+00 0.  1.
         21   -1    0    0  502  503 -0.00000000000E+00 -0.00000000000E+00 -0.71976797051E+03  0.71976797051E+03  0.00000000000E+00 0. -1.
          6    1    1    2  501    0  0.12853480610E+02 -0.59511729107E+02 -0.31515696517E+03  0.36463649099E+03  0.17300000000E+03 0.  1.
         -6    1    1    2    0  503 -0.12853480610E+02  0.59511729107E+02 -0.35773488799E+03  0.40200759688E+03  0.17300000000E+03 0. -1.
</event>
<event>
 4    1  0.5900714E+000  0.1000000E+03  0.7546771E-02  0.1280296E+00
         21   -1    0    0  501  502  0.00000000000E+00  0.00000000000E+00  0.30399855483E+03  0.30399855483E+03  0.00000000000E+00 0. -1.
         21   -1    0    0  502  503 -0.00000000000E+00 -0.00000000000E+00 -0.19767274523E+03  0.19767274523E+03  0.00000000000E+00 0.  1.
          6    1    1    2  501    0  0.55357276321E+02 -0.50002192897E+02  0.21364815979E+03  0.28484940498E+03  0.17300000000E+03 0. -1.
         -6    1    1    2    0  503 -0.55357276321E+02  0.50002192897E+02 -0.10732235019E+03  0.21682189508E+03  0.17300000000E+03 0.  1.
</event>
<event>
 4    1  0.5900714E+000  0.1000000E+03  0.7546771E-02  0.1280296E+00
         21   -1    0    0  501  502  0.00000000000E+00  0.00000000000E+00  0.17209601102E+03  0.17209601102E+03  0.00000000000E+00 0. -1.
         21   -1    0    0  502  503 -0.00000000000E+00 -0.00000000000E+00 -0.21306653862E+03  0.21306653862E+03  0.00000000000E+00 0.  1.
          6    1    1    2  501    0  0.36278615686E+02 -0.50118377241E+02 -0.74745982854E+02  0.19835309840E+03  0.17300000000E+03 0. -1.
         -6    1    1    2    0  503 -0.36278615686E+02  0.50118377241E+02  0.33775455254E+02  0.18680945124E+03  0.17300000000E+03 0.  1.
</event>
<event>
 4    1  0.5900714E+000  0.1000000E+03  0.7546771E-02  0.1280296E+00
         21   -1    0    0  501  502  0.00000000000E+00  0.00000000000E+00  0.49583270716E+03  0.49583270716E+03  0.00000000000E+00 0.  1.
         21   -1    0    0  502  503 -0.00000000000E+00 -0.00000000000E+00 -0.16657257752E+03  0.16657257752E+03  0.00000000000E+00 0. -1.
          6    1    1    2  501    0  0.16037868016E+03 -0.10990132258E+03  0.30513291961E+03  0.40104204316E+03  0.17300000000E+03 0. -1.
         -6    1    1    2    0  503 -0.16037868016E+03  0.10990132258E+03  0.24127210028E+02  0.26136324152E+03  0.17300000000E+03 0. -1.
</event>
<event>
 4    1  0.5900714E+000  0.1000000E+03  0.7546771E-02  0.1280296E+00
         21   -1    0    0  501  502  0.00000000000E+00  0.00000000000E+00  0.10518873790E+03  0.10518873790E+03  0.00000000000E+00 0.  1.
         21   -1    0    0  502  503 -0.00000000000E+00 -0.00000000000E+00 -0.51046142167E+03  0.51046142167E+03  0.00000000000E+00 0.  1.
          6    1    1    2  501    0  0.66332743357E+02 -0.13767533249E+03 -0.22957634014E+03  0.32555925109E+03  0.17300000000E+03 0.  1.
         -6    1    1    2    0  503 -0.66332743357E+02  0.13767533249E+03 -0.17569634363E+03  0.29009090848E+03  0.17300000000E+03 0.  1.
</event>
<event>
 4    1  0.5900714E+000  0.1000000E+03  0.7546771E-02  0.1280296E+00
         21   -1    0    0  501  502  0.00000000000E+00  0.00000000000E+00  0.15575117317E+03  0.15575117317E+03  0.00000000000E+00 0.  1.
         21   -1    0    0  502  503 -0.00000000000E+00 -0.00000000000E+00 -0.33868376807E+03  0.33868376807E+03  0.00000000000E+00 0.  1.
          6    1    1    2  501    0  0.34850157583E+02 -0.78738653958E+02  0.42139881788E+02  0.19778543614E+03  0.17300000000E+03 0.  1.
         -6    1    1    2    0  503 -0.34850157583E+02  0.78738653958E+02 -0.22507247669E+03  0.29664950510E+03  0.17300000000E+03 0.  1.
</event>
<event>
 4    1  0.5900714E+000  0.1000000E+03  0.7546771E-02  0.1280296E+00
         21   -1    0    0  503  502  0.00000000000E+00  0.00000000000E+00  0.27910480198E+03  0.27910480198E+03  0.00000000000E+00 0. -1.
         21   -1    0    0  501  503 -0.00000000000E+00 -0.00000000000E+00 -0.18788219096E+03  0.18788219096E+03  0.00000000000E+00 0.  1.
          6    1    1    2  501    0 -0.74400127685E+02  0.12834181619E+03  0.22747158890E+02  0.22902714690E+03  0.17300000000E+03 0.  1.
         -6    1    1    2    0  502  0.74400127685E+02 -0.12834181619E+03  0.68475452122E+02  0.23795984603E+03  0.17300000000E+03 0. -1.
</event>
<event>
 4    1  0.5900714E+000  0.1000000E+03  0.7546771E-02  0.1280296E+00
         21   -1    0    0  503  502  0.00000000000E+00  0.00000000000E+00  0.21240164797E+03  0.21240164797E+03  0.00000000000E+00 0.  1.
         21   -1    0    0  501  503 -0.00000000000E+00 -0.00000000000E+00 -0.17667281409E+03  0.17667281409E+03  0.00000000000E+00 0.  1.
          6    1    1    2  501    0  0.48017574804E+02  0.72709473410E+02  0.15796102633E+02  0.19434729705E+03  0.17300000000E+03 0.  1.
         -6    1    1    2    0  502 -0.48017574804E+02 -0.72709473410E+02  0.19932731245E+02  0.19472716500E+03  0.17300000000E+03 0.  1.
</event>
<event>
 4    1  0.5900714E+000  0.1000000E+03  0.7546771E-02  0.1280296E+00
         21   -1    0    0  503  502  0.00000000000E+00  0.00000000000E+00  0.76719581242E+03  0.76719581242E+03  0.00000000000E+00 0.  1.
         21   -1    0    0  501  503 -0.00000000000E+00 -0.00000000000E+00 -0.12162104584E+03  0.12162104584E+03  0.00000000000E+00 0.  1.
          6    1    1    2  501    0 -0.13384206228E+03 -0.30048289922E+02  0.15669574439E+02  0.22133940663E+03  0.17300000000E+03 0.  1.
         -6    1    1    2    0  502  0.13384206228E+03  0.30048289922E+02  0.62990519214E+03  0.66747745164E+03  0.17300000000E+03 0.  1.
</event>
<event>
 4    1  0.5900714E+000  0.1000000E+03  0.7546771E-02  0.1280296E+00
         21   -1    0    0  503  502  0.00000000000E+00  0.00000000000E+00  0.46140423276E+02  0.46140423276E+02  0.00000000000E+00 0.  1.
         21   -1    0    0  501  503 -0.00000000000E+00 -0.00000000000E+00 -0.90518729669E+03  0.90518729669E+03  0.00000000000E+00 0.  1.
          6    1    1    2  501    0 -0.65026865518E+02  0.37108859617E+02 -0.61325118191E+03  0.64156961650E+03  0.17300000000E+03 0.  1.
         -6    1    1    2    0  502  0.65026865518E+02 -0.37108859617E+02 -0.24579569151E+03  0.30975810347E+03  0.17300000000E+03 0.  1.
</event>
<event>
 4    1  0.5900714E+000  0.1000000E+03  0.7546771E-02  0.1280296E+00
         21   -1    0    0  501  502  0.00000000000E+00  0.00000000000E+00  0.15183447451E+03  0.15183447451E+03  0.00000000000E+00 0. -1.
         21   -1    0    0  502  503 -0.00000000000E+00 -0.00000000000E+00 -0.24059629037E+03  0.24059629037E+03  0.00000000000E+00 0. -1.
          6    1    1    2  501    0  0.15458573702E+01  0.65401135041E+02  0.50894535628E+01  0.18502594596E+03  0.17300000000E+03 0. -1.
         -6    1    1    2    0  503 -0.15458573702E+01 -0.65401135041E+02 -0.93851269428E+02  0.20740481892E+03  0.17300000000E+03 0. -1.
</event>
<event>
 4    1  0.5900714E+000  0.1000000E+03  0.7546771E-02  0.1280296E+00
         21   -1    0    0  501  502  0.00000000000E+00  0.00000000000E+00  0.21262235469E+02  0.21262235469E+02  0.00000000000E+00 0. -1.
         21   -1    0    0  502  503 -0.00000000000E+00 -0.00000000000E+00 -0.15163666942E+04  0.15163666942E+04  0.00000000000E+00 0. -1.
          6    1    1    2  501    0  0.96926720685E+01  0.39974729448E+02 -0.64090306711E+03  0.66511477830E+03  0.17300000000E+03 0. -1.
         -6    1    1    2    0  503 -0.96926720685E+01 -0.39974729448E+02 -0.85420139165E+03  0.87251415139E+03  0.17300000000E+03 0. -1.
</event>
<event>
 4    1  0.5900714E+000  0.1000000E+03  0.7546771E-02  0.1280296E+00
         21   -1    0    0  501  502  0.00000000000E+00  0.00000000000E+00  0.77643096790E+03  0.77643096790E+03  0.00000000000E+00 0. -1.
         21   -1    0    0  502  503 -0.00000000000E+00 -0.00000000000E+00 -0.54575952597E+02  0.54575952597E+02  0.00000000000E+00 0. -1.
          6    1    1    2  501    0  0.55246226675E+02  0.20735254670E+02  0.55202635124E+03  0.58150166707E+03  0.17300000000E+03 0. -1.
         -6    1    1    2    0  503 -0.55246226675E+02 -0.20735254670E+02  0.16982866406E+03  0.24950525342E+03  0.17300000000E+03 0. -1.
</event>
<event>
 4    1  0.5900714E+000  0.1000000E+03  0.7546771E-02  0.1280296E+00
         21   -1    0    0  503  502  0.00000000000E+00  0.00000000000E+00  0.50092830798E+03  0.50092830798E+03  0.00000000000E+00 0.  1.
         21   -1    0    0  501  503 -0.00000000000E+00 -0.00000000000E+00 -0.83148423962E+02  0.83148423962E+02  0.00000000000E+00 0.  1.
          6    1    1    2  501    0  0.68968747420E+02  0.13343728490E+02  0.90997754215E+02  0.20771214332E+03  0.17300000000E+03 0.  1.
         -6    1    1    2    0  502 -0.68968747420E+02 -0.13343728490E+02  0.32678212981E+03  0.37636458862E+03  0.17300000000E+03 0.  1.
</event>
<event>
 4    1  0.5900714E+000  0.1000000E+03  0.7546771E-02  0.1280296E+00
         21   -1    0    0  503  502  0.00000000000E+00  0.00000000000E+00  0.26879495077E+03  0.26879495077E+03  0.00000000000E+00 0.  1.
         21   -1    0    0  501  503 -0.00000000000E+00 -0.00000000000E+00 -0.24891934760E+03  0.24891934760E+03  0.00000000000E+00 0.  1.
          6    1    1    2  501    0  0.28252062730E+01  0.19178783691E+03 -0.38094217337E+01  0.25832937865E+03  0.17300000000E+03 0.  1.
         -6    1    1    2    0  502 -0.28252062730E+01 -0.19178783691E+03  0.23685024902E+02  0.25938491973E+03  0.17300000000E+03 0.  1.
</event>
<event>
 4    1  0.5900714E+000  0.1000000E+03  0.7546771E-02  0.1280296E+00
         21   -1    0    0  501  502  0.00000000000E+00  0.00000000000E+00  0.41526385355E+03  0.41526385355E+03  0.00000000000E+00 0.  1.
         21   -1    0    0  502  503 -0.00000000000E+00 -0.00000000000E+00 -0.16654562818E+03  0.16654562818E+03  0.00000000000E+00 0.  1.
          6    1    1    2  501    0 -0.18466765354E+03  0.78469130222E+01  0.20310465544E+03  0.32456773926E+03  0.17300000000E+03 0.  1.
         -6    1    1    2    0  503  0.18466765354E+03 -0.78469130222E+01  0.45613569926E+02  0.25724174247E+03  0.17300000000E+03 0.  1.
</event>
<event>
 4    1  0.5900714E+000  0.1000000E+03  0.7546771E-02  0.1280296E+00
         21   -1    0    0  501  502  0.00000000000E+00  0.00000000000E+00  0.29069893194E+03  0.29069893194E+03  0.00000000000E+00 0.  1.
         21   -1    0    0  502  503 -0.00000000000E+00 -0.00000000000E+00 -0.21037542948E+03  0.21037542948E+03  0.00000000000E+00 0.  1.
          6    1    1    2  501    0  0.16820819574E+03 -0.47362472522E+02  0.66768191286E+02  0.25480226114E+03  0.17300000000E+03 0.  1.
         -6    1    1    2    0  503 -0.16820819574E+03  0.47362472522E+02  0.13555311177E+02  0.24627210028E+03  0.17300000000E+03 0.  1.
</event>
<event>
 4    1  0.5900714E+000  0.1000000E+03  0.7546771E-02  0.1280296E+00
         21   -1    0    0  501  502  0.00000000000E+00  0.00000000000E+00  0.16907484210E+03  0.16907484210E+03  0.00000000000E+00 0.  1.
         21   -1    0    0  502  503 -0.00000000000E+00 -0.00000000000E+00 -0.23707173104E+03  0.23707173104E+03  0.00000000000E+00 0.  1.
          6    1    1    2  501    0 -0.26803887084E+02  0.10567727971E+02 -0.13194033889E+03  0.21947067746E+03  0.17300000000E+03 0.  1.
         -6    1    1    2    0  503  0.26803887084E+02 -0.10567727971E+02  0.63943449953E+02  0.18667589568E+03  0.17300000000E+03 0.  1.
</event>
<event>
 4    1  0.5900714E+000  0.1000000E+03  0.7546771E-02  0.1280296E+00
         21   -1    0    0  501  502  0.00000000000E+00  0.00000000000E+00  0.27160601855E+03  0.27160601855E+03  0.00000000000E+00 0.  1.
         21   -1    0    0  502  503 -0.00000000000E+00 -0.00000000000E+00 -0.47001806941E+03  0.47001806941E+03  0.00000000000E+00 0.  1.
          6    1    1    2  501    0 -0.19379665177E+02 -0.11896672306E+03  0.20015410656E+03  0.29072206485E+03  0.17300000000E+03 0.  1.
         -6    1    1    2    0  503  0.19379665177E+02  0.11896672306E+03 -0.39856615741E+03  0.45090202311E+03  0.17300000000E+03 0.  1.
</event>
<event>
 4    1  0.5900714E+000  0.1000000E+03  0.7546771E-02  0.1280296E+00
         21   -1    0    0  501  502  0.00000000000E+00  0.00000000000E+00  0.37582985213E+03  0.37582985213E+03  0.00000000000E+00 0.  1.
         21   -1    0    0  502  503 -0.00000000000E+00 -0.00000000000E+00 -0.15433394025E+03  0.15433394025E+03  0.00000000000E+00 0.  1.
          6    1    1    2  501    0 -0.15631600581E+03 -0.16483854060E+02  0.17462322058E+03  0.29176819614E+03  0.17300000000E+03 0.  1.
         -6    1    1    2    0  503  0.15631600581E+03  0.16483854060E+02  0.46872691304E+02  0.23839559624E+03  0.17300000000E+03 0.  1.
</event>
<event>
 4    1  0.5900714E+000  0.1000000E+03  0.7546771E-02  0.1280296E+00
         21   -1    0    0  501  502  0.00000000000E+00  0.00000000000E+00  0.14241007693E+03  0.14241007693E+03  0.00000000000E+00 0.  1.
         21   -1    0    0  502  503 -0.00000000000E+00 -0.00000000000E+00 -0.32244575107E+03  0.32244575107E+03  0.00000000000E+00 0.  1.
          6    1    1    2  501    0  0.39102163894E+01  0.10131630625E+03 -0.80550353808E+01  0.20068424776E+03  0.17300000000E+03 0.  1.
         -6    1    1    2    0  503 -0.39102163894E+01 -0.10131630625E+03 -0.17198063875E+03  0.26417158025E+03  0.17300000000E+03 0.  1.
</event>
<event>
 4    1  0.5900714E+000  0.1000000E+03  0.7546771E-02  0.1280296E+00
         21   -1    0    0  501  502  0.00000000000E+00  0.00000000000E+00  0.33283640123E+03  0.33283640123E+03  0.00000000000E+00 0.  1.
         21   -1    0    0  502  503 -0.00000000000E+00 -0.00000000000E+00 -0.20626623672E+03  0.20626623672E+03  0.00000000000E+00 0.  1.
          6    1    1    2  501    0 -0.19503506407E+03 -0.23146833277E+02  0.50708164962E+02  0.26659851856E+03  0.17300000000E+03 0.  1.
         -6    1    1    2    0  503  0.19503506407E+03  0.23146833277E+02  0.75861999548E+02  0.27250411939E+03  0.17300000000E+03 0.  1.
</event>
<event>
 4    1  0.5900714E+000  0.1000000E+03  0.7546771E-02  0.1280296E+00
         21   -1    0    0  501  502  0.00000000000E+00  0.00000000000E+00  0.18160345727E+03  0.18160345727E+03  0.00000000000E+00 0.  1.
         21   -1    0    0  502  503 -0.00000000000E+00 -0.00000000000E+00 -0.53757825481E+03  0.53757825481E+03  0.00000000000E+00 0.  1.
          6    1    1    2  501    0  0.23528785650E+03  0.59233298120E+02 -0.28612073933E+03  0.41311382995E+03  0.17300000000E+03 0.  1.
         -6    1    1    2    0  503 -0.23528785650E+03 -0.59233298120E+02 -0.69854058209E+02  0.30606788213E+03  0.17300000000E+03 0.  1.
</event>
<event>
 4    1  0.5900714E+000  0.1000000E+03  0.7546771E-02  0.1280296E+00
         21   -1    0    0  501  502  0.00000000000E+00  0.00000000000E+00  0.39687822679E+02  0.39687822679E+02  0.00000000000E+00 0. -1.
         21   -1    0    0  502  503 -0.00000000000E+00 -0.00000000000E+00 -0.12467072998E+04  0.12467072998E+04  0.00000000000E+00 0. -1.
          6    1    1    2  501    0 -0.43620026042E+02  0.14875014543E+02 -0.22179940258E+03  0.28504025630E+03  0.17300000000E+03 0. -1.
         -6    1    1    2    0  503  0.43620026042E+02 -0.14875014543E+02 -0.98522007458E+03  0.10013548662E+04  0.17300000000E+03 0. -1.
</event>
<event>
 4    1  0.5900714E+000  0.1000000E+03  0.7546771E-02  0.1280296E+00
         21   -1    0    0  501  502  0.00000000000E+00  0.00000000000E+00  0.52079927190E+03  0.52079927190E+03  0.00000000000E+00 0.  1.
         21   -1    0    0  502  503 -0.00000000000E+00 -0.00000000000E+00 -0.12561397686E+03  0.12561397686E+03  0.00000000000E+00 0.  1.
          6    1    1    2  501    0 -0.12092717247E+03 -0.14106767978E+03  0.15829347413E+03  0.29918104096E+03  0.17300000000E+03 0.  1.
         -6    1    1    2    0  503  0.12092717247E+03  0.14106767978E+03  0.23689182091E+03  0.34723220780E+03  0.17300000000E+03 0.  1.
</event>
<event>
 4    1  0.5900714E+000  0.1000000E+03  0.7546771E-02  0.1280296E+00
         21   -1    0    0  501  502  0.00000000000E+00  0.00000000000E+00  0.46476778242E+03  0.46476778242E+03  0.00000000000E+00 0.  1.
         21   -1    0    0  502  503 -0.00000000000E+00 -0.00000000000E+00 -0.16036670054E+03  0.16036670054E+03  0.00000000000E+00 0.  1.
          6    1    1    2  501    0  0.43357590139E+02 -0.18320797449E+03  0.26177211857E+03  0.36592169189E+03  0.17300000000E+03 0.  1.
         -6    1    1    2    0  503 -0.43357590139E+02  0.18320797449E+03  0.42628963322E+02  0.25921279107E+03  0.17300000000E+03 0.  1.
</event>
<event>
 4    1  0.5900714E+000  0.1000000E+03  0.7546771E-02  0.1280296E+00
         21   -1    0    0  501  502  0.00000000000E+00  0.00000000000E+00  0.62945721307E+03  0.62945721307E+03  0.00000000000E+00 0.  1.
         21   -1    0    0  502  503 -0.00000000000E+00 -0.00000000000E+00 -0.12452917518E+03  0.12452917518E+03  0.00000000000E+00 0.  1.
          6    1    1    2  501    0 -0.12356020654E+02 -0.21632201438E+03  0.30476928573E+03  0.41202087651E+03  0.17300000000E+03 0.  1.
         -6    1    1    2    0  503  0.12356020654E+02  0.21632201438E+03  0.20015875216E+03  0.34196551174E+03  0.17300000000E+03 0.  1.
</event>
<event>
 4    1  0.5900714E+000  0.1000000E+03  0.7546771E-02  0.1280296E+00
         21   -1    0    0  503  502  0.00000000000E+00  0.00000000000E+00  0.45767260503E+03  0.45767260503E+03  0.00000000000E+00 0. -1.
         21   -1    0    0  501  503 -0.00000000000E+00 -0.00000000000E+00 -0.80744251107E+02  0.80744251107E+02  0.00000000000E+00 0. -1.
          6    1    1    2  501    0 -0.95703016820E+01  0.84779883046E+01  0.72458396455E+02  0.18799650576E+03  0.17300000000E+03 0. -1.
         -6    1    1    2    0  502  0.95703016820E+01 -0.84779883046E+01  0.30446995747E+03  0.35042035038E+03  0.17300000000E+03 0. -1.
</event>
<event>
 4    1  0.5900714E+000  0.1000000E+03  0.7546771E-02  0.1280296E+00
         21   -1    0    0  503  502  0.00000000000E+00  0.00000000000E+00  0.85684835270E+03  0.85684835270E+03  0.00000000000E+00 0. -1.
         21   -1    0    0  501  503 -0.00000000000E+00 -0.00000000000E+00 -0.13445058505E+03  0.13445058505E+03  0.00000000000E+00 0.  1.
          6    1    1    2  501    0  0.17682319842E+02 -0.25924619210E+03  0.16662550280E+03  0.35385634195E+03  0.17300000000E+03 0.  1.
         -6    1    1    2    0  502 -0.17682319842E+02  0.25924619210E+03  0.55577226485E+03  0.63744259579E+03  0.17300000000E+03 0. -1.
</event>
<event>
 4    1  0.5900714E+000  0.1000000E+03  0.7546771E-02  0.1280296E+00
         21   -1    0    0  503  502  0.00000000000E+00  0.00000000000E+00  0.10762146446E+03  0.10762146446E+03  0.00000000000E+00 0. -1.
         21   -1    0    0  501  503 -0.00000000000E+00 -0.00000000000E+00 -0.85382528989E+03  0.85382528989E+03  0.00000000000E+00 0.  1.
          6    1    1    2  501    0 -0.67569550696E+02  0.13069359562E+03 -0.69151561804E+03  0.72785253322E+03  0.17300000000E+03 0.  1.
         -6    1    1    2    0  502  0.67569550696E+02 -0.13069359562E+03 -0.54688207382E+02  0.23359422112E+03  0.17300000000E+03 0. -1.
</event>
<event>
 4    1  0.5900714E+000  0.1000000E+03  0.7546771E-02  0.1280296E+00
         21   -1    0    0  503  502  0.00000000000E+00  0.00000000000E+00  0.74584621712E+03  0.74584621712E+03  0.00000000000E+00 0.  1.
         21   -1    0    0  501  503 -0.00000000000E+00 -0.00000000000E+00 -0.93543451012E+02  0.93543451012E+02  0.00000000000E+00 0. -1.
          6    1    1    2  501    0 -0.29045920211E+02 -0.10712900575E+03  0.62564105221E+02  0.21485706090E+03  0.17300000000E+03 0.  1.
         -6    1    1    2    0  502  0.29045920211E+02  0.10712900575E+03  0.58973866088E+03  0.62453260723E+03  0.17300000000E+03 0.  1.
</event>
<event>
 4    1  0.5900714E+000  0.1000000E+03  0.7546771E-02  0.1280296E+00
         21   -1    0    0  501  502  0.00000000000E+00  0.00000000000E+00  0.30594890321E+02  0.30594890321E+02  0.00000000000E+00 0.  1.
         21   -1    0    0  502  503 -0.00000000000E+00 -0.00000000000E+00 -0.10655010079E+04  0.10655010079E+04  0.00000000000E+00 0.  1.
          6    1    1    2  501    0  0.41286301264E+02 -0.25707822903E+02 -0.46449099215E+03  0.49804250082E+03  0.17300000000E+03 0.  1.
         -6    1    1    2    0  503 -0.41286301264E+02  0.25707822903E+02 -0.57041512545E+03  0.59805339743E+03  0.17300000000E+03 0.  1.
</event>
<event>
 4    1  0.5900714E+000  0.1000000E+03  0.7546771E-02  0.1280296E+00
         21   -1    0    0  503  502  0.00000000000E+00  0.00000000000E+00  0.15461422471E+03  0.15461422471E+03  0.00000000000E+00 0. -1.
         21   -1    0    0  501  503 -0.00000000000E+00 -0.00000000000E+00 -0.95188381182E+03  0.95188381182E+03  0.00000000000E+00 0. -1.
          6    1    1    2  501    0 -0.22311124413E+03  0.14264235668E+03 -0.71168069345E+03  0.77880926972E+03  0.17300000000E+03 0. -1.
         -6    1    1    2    0  502  0.22311124413E+03 -0.14264235668E+03 -0.85588893658E+02  0.32768876681E+03  0.17300000000E+03 0. -1.
</event>
<event>
 4    1  0.5900714E+000  0.1000000E+03  0.7546771E-02  0.1280296E+00
         21   -1    0    0  503  502  0.00000000000E+00  0.00000000000E+00  0.49285534606E+03  0.49285534606E+03  0.00000000000E+00 0. -1.
         21   -1    0    0  501  503 -0.00000000000E+00 -0.00000000000E+00 -0.39929666154E+03  0.39929666154E+03  0.00000000000E+00 0. -1.
          6    1    1    2  501    0 -0.12619164110E+02  0.75104400214E+02 -0.35677683986E+03  0.40375565345E+03  0.17300000000E+03 0. -1.
         -6    1    1    2    0  502  0.12619164110E+02 -0.75104400214E+02  0.45033552438E+03  0.48839635416E+03  0.17300000000E+03 0. -1.
</event>
<event>
 4    1  0.5900714E+000  0.1000000E+03  0.7546771E-02  0.1280296E+00
         21   -1    0    0  503  502  0.00000000000E+00  0.00000000000E+00  0.95050513321E+03  0.95050513321E+03  0.00000000000E+00 0. -1.
         21   -1    0    0  501  503 -0.00000000000E+00 -0.00000000000E+00 -0.80582691256E+02  0.80582691256E+02  0.00000000000E+00 0. -1.
          6    1    1    2  501    0  0.83121782505E+02  0.12602057053E+03  0.14713003831E+03  0.27270251758E+03  0.17300000000E+03 0. -1.
         -6    1    1    2    0  502 -0.83121782505E+02 -0.12602057053E+03  0.72279240365E+03  0.75838530689E+03  0.17300000000E+03 0. -1.
</event>
<event>
 4    1  0.5900714E+000  0.1000000E+03  0.7546771E-02  0.1280296E+00
         21   -1    0    0  503  502  0.00000000000E+00  0.00000000000E+00  0.31774231388E+03  0.31774231388E+03  0.00000000000E+00 0. -1.
         21   -1    0    0  501  503 -0.00000000000E+00 -0.00000000000E+00 -0.22003877746E+03  0.22003877746E+03  0.00000000000E+00 0.  1.
          6    1    1    2  501    0  0.96394341802E+02  0.17516024415E+03  0.52608889793E+02  0.26957313580E+03  0.17300000000E+03 0.  1.
         -6    1    1    2    0  502 -0.96394341802E+02 -0.17516024415E+03  0.45094646624E+02  0.26820795554E+03  0.17300000000E+03 0.  1.
</event>
<event>
 4    1  0.5900714E+000  0.1000000E+03  0.7546771E-02  0.1280296E+00
         21   -1    0    0  503  502  0.00000000000E+00  0.00000000000E+00  0.91903805094E+02  0.91903805094E+02  0.00000000000E+00 0. -1.
         21   -1    0    0  501  503 -0.00000000000E+00 -0.00000000000E+00 -0.51659857539E+03  0.51659857539E+03  0.00000000000E+00 0.  1.
          6    1    1    2  501    0 -0.88286093830E+02 -0.86879639647E+02 -0.27792849471E+03  0.35002250545E+03  0.17300000000E+03 0.  1.
         -6    1    1    2    0  502  0.88286093830E+02  0.86879639647E+02 -0.14676627559E+03  0.25847987504E+03  0.17300000000E+03 0.  1.
</event>
<event>
 4    1  0.5900714E+000  0.1000000E+03  0.7546771E-02  0.1280296E+00
         21   -1    0    0  503  502  0.00000000000E+00  0.00000000000E+00  0.73864637384E+02  0.73864637384E+02  0.00000000000E+00 0. -1.
         21   -1    0    0  501  503 -0.00000000000E+00 -0.00000000000E+00 -0.47713204972E+03  0.47713204972E+03  0.00000000000E+00 0.  1.
          6    1    1    2  501    0  0.70989610123E+02 -0.16424241789E+02 -0.19838345101E+03  0.27311952347E+03  0.17300000000E+03 0.  1.
         -6    1    1    2    0  502 -0.70989610123E+02  0.16424241789E+02 -0.20488396133E+03  0.27787716364E+03  0.17300000000E+03 0.  1.
</event>
<event>
 4    1  0.5900714E+000  0.1000000E+03  0.7546771E-02  0.1280296E+00
         21   -1    0    0  501  502  0.00000000000E+00  0.00000000000E+00  0.48102715056E+03  0.48102715056E+03  0.00000000000E+00 0.  1.
         21   -1    0    0  502  503 -0.00000000000E+00 -0.00000000000E+00 -0.14229545537E+03  0.14229545537E+03  0.00000000000E+00 0. -1.
          6    1    1    2  501    0 -0.14003511854E+03 -0.13143102244E+03  0.12119710062E+03  0.28548500010E+03  0.17300000000E+03 0. -1.
         -6    1    1    2    0  503  0.14003511854E+03  0.13143102244E+03  0.21753459456E+03  0.33783760583E+03  0.17300000000E+03 0.  1.
</event>
<event>
 4    1  0.5900714E+000  0.1000000E+03  0.7546771E-02  0.1280296E+00
         21   -1    0    0  501  502  0.00000000000E+00  0.00000000000E+00  0.15330829257E+03  0.15330829257E+03  0.00000000000E+00 0.  1.
         21   -1    0    0  502  503 -0.00000000000E+00 -0.00000000000E+00 -0.27868691200E+03  0.27868691200E+03  0.00000000000E+00 0. -1.
          6    1    1    2  501    0 -0.68465905764E+02 -0.16573656387E+02  0.29800231857E+02  0.18915422321E+03  0.17300000000E+03 0. -1.
         -6    1    1    2    0  503  0.68465905764E+02  0.16573656387E+02 -0.15517885129E+03  0.24284098135E+03  0.17300000000E+03 0.  1.
</event>
<event>
 4    1  0.5900714E+000  0.1000000E+03  0.7546771E-02  0.1280296E+00
         21   -1    0    0  503  502  0.00000000000E+00  0.00000000000E+00  0.48714896877E+03  0.48714896877E+03  0.00000000000E+00 0.  1.
         21   -1    0    0  501  503 -0.00000000000E+00 -0.00000000000E+00 -0.18502318992E+04  0.18502318992E+04  0.00000000000E+00 0. -1.
          6    1    1    2  501    0  0.35517812943E+03 -0.29589217855E+03 -0.16798651497E+04  0.17508796664E+04  0.17300000000E+03 0. -1.
         -6    1    1    2    0  502 -0.35517812943E+03  0.29589217855E+03  0.31678221931E+03  0.58650120155E+03  0.17300000000E+03 0. -1.
</event>
<event>
 4    1  0.5900714E+000  0.1000000E+03  0.7546771E-02  0.1280296E+00
         21   -1    0    0  503  502  0.00000000000E+00  0.00000000000E+00  0.37373910670E+03  0.37373910670E+03  0.00000000000E+00 0.  1.
         21   -1    0    0  501  503 -0.00000000000E+00 -0.00000000000E+00 -0.12840621597E+03  0.12840621597E+03  0.00000000000E+00 0. -1.
          6    1    1    2  501    0  0.11327076109E+03  0.57204939397E+02  0.17339028061E+03  0.27585478031E+03  0.17300000000E+03 0. -1.
         -6    1    1    2    0  502 -0.11327076109E+03 -0.57204939397E+02  0.71942610116E+02  0.22629054236E+03  0.17300000000E+03 0. -1.
</event>
<event>
 4    1  0.5900714E+000  0.1000000E+03  0.7546771E-02  0.1280296E+00
         21   -1    0    0  503  502  0.00000000000E+00  0.00000000000E+00  0.91226621608E+02  0.91226621608E+02  0.00000000000E+00 0.  1.
         21   -1    0    0  501  503 -0.00000000000E+00 -0.00000000000E+00 -0.36592662285E+03  0.36592662285E+03  0.00000000000E+00 0. -1.
          6    1    1    2  501    0 -0.77964343748E+01  0.43333908020E+02 -0.18603872268E+03  0.25783331497E+03  0.17300000000E+03 0. -1.
         -6    1    1    2    0  502  0.77964343748E+01 -0.43333908020E+02 -0.88661278559E+02  0.19931992948E+03  0.17300000000E+03 0. -1.
</event>
<event>
 4    1  0.5900714E+000  0.1000000E+03  0.7546771E-02  0.1280296E+00
         21   -1    0    0  501  502  0.00000000000E+00  0.00000000000E+00  0.92671031526E+03  0.92671031526E+03  0.00000000000E+00 0.  1.
         21   -1    0    0  502  503 -0.00000000000E+00 -0.00000000000E+00 -0.62811379706E+02  0.62811379706E+02  0.00000000000E+00 0.  1.
          6    1    1    2  501    0  0.61722340050E+02  0.15087986384E+03  0.51661603488E+03  0.56867873890E+03  0.17300000000E+03 0.  1.
         -6    1    1    2    0  503 -0.61722340050E+02 -0.15087986384E+03  0.34728290067E+03  0.42084295607E+03  0.17300000000E+03 0.  1.
</event>
<event>
 4    1  0.5900714E+000  0.1000000E+03  0.7546771E-02  0.1280296E+00
         21   -1    0    0  503  502  0.00000000000E+00  0.00000000000E+00  0.16162051161E+03  0.16162051161E+03  0.00000000000E+00 0. -1.
         21   -1    0    0  501  503 -0.00000000000E+00 -0.00000000000E+00 -0.27212710981E+03  0.27212710981E+03  0.00000000000E+00 0. -1.
          6    1    1    2  501    0  0.10576156649E+03 -0.40456574703E+02 -0.18983969555E+02  0.20763341370E+03  0.17300000000E+03 0. -1.
         -6    1    1    2    0  502 -0.10576156649E+03  0.40456574703E+02 -0.91522628644E+02  0.22611420773E+03  0.17300000000E+03 0. -1.
</event>
<event>
 4    1  0.5900714E+000  0.1000000E+03  0.7546771E-02  0.1280296E+00
         21   -1    0    0  501  502  0.00000000000E+00  0.00000000000E+00  0.15480778511E+03  0.15480778511E+03  0.00000000000E+00 0.  1.
         21   -1    0    0  502  503 -0.00000000000E+00 -0.00000000000E+00 -0.26221602164E+03  0.26221602164E+03  0.00000000000E+00 0.  1.
          6    1    1    2  501    0  0.29846416830E+02  0.40369087104E+02  0.39688665094E+02  0.18445775107E+03  0.17300000000E+03 0. -1.
         -6    1    1    2    0  503 -0.29846416830E+02 -0.40369087104E+02 -0.14709690163E+03  0.23256605569E+03  0.17300000000E+03 0. -1.
</event>
<event>
 4    1  0.5900714E+000  0.1000000E+03  0.7546771E-02  0.1280296E+00
         21   -1    0    0  501  502  0.00000000000E+00  0.00000000000E+00  0.81408512957E+02  0.81408512957E+02  0.00000000000E+00 0. -1.
         21   -1    0    0  502  503 -0.00000000000E+00 -0.00000000000E+00 -0.54957688411E+03  0.54957688411E+03  0.00000000000E+00 0.  1.
          6    1    1    2  501    0  0.55954387480E+02  0.75171157574E+02 -0.11826356645E+03  0.22955798300E+03  0.17300000000E+03 0. -1.
         -6    1    1    2    0  503 -0.55954387480E+02 -0.75171157574E+02 -0.34990480470E+03  0.40142741407E+03  0.17300000000E+03 0.  1.
</event>
<event>
 4    1  0.5900714E+000  0.1000000E+03  0.7546771E-02  0.1280296E+00
         21   -1    0    0  501  502  0.00000000000E+00  0.00000000000E+00  0.34747734564E+03  0.34747734564E+03  0.00000000000E+00 0. -1.
         21   -1    0    0  502  503 -0.00000000000E+00 -0.00000000000E+00 -0.27809637471E+03  0.27809637471E+03  0.00000000000E+00 0.  1.
          6    1    1    2  501    0 -0.25079327757E+03  0.22517355693E+02  0.92482995163E+02  0.31919649713E+03  0.17300000000E+03 0. -1.
         -6    1    1    2    0  503  0.25079327757E+03 -0.22517355693E+02 -0.23102024238E+02  0.30637722322E+03  0.17300000000E+03 0.  1.
</event>
<event>
 4    1  0.5900714E+000  0.1000000E+03  0.7546771E-02  0.1280296E+00
         21   -1    0    0  503  502  0.00000000000E+00  0.00000000000E+00  0.50897836444E+02  0.50897836444E+02  0.00000000000E+00 0.  1.
         21   -1    0    0  501  503 -0.00000000000E+00 -0.00000000000E+00 -0.72091292134E+03  0.72091292134E+03  0.00000000000E+00 0.  1.
          6    1    1    2  501    0 -0.49418164501E+02  0.36121052464E+02 -0.44566458122E+03  0.48196763830E+03  0.17300000000E+03 0.  1.
         -6    1    1    2    0  502  0.49418164501E+02 -0.36121052464E+02 -0.22435050368E+03  0.28984311949E+03  0.17300000000E+03 0.  1.
</event>
<event>
 4    1  0.5900714E+000  0.1000000E+03  0.7546771E-02  0.1280296E+00
         21   -1    0    0  503  502  0.00000000000E+00  0.00000000000E+00  0.94642468402E+03  0.94642468402E+03  0.00000000000E+00 0.  1.
         21   -1    0    0  501  503 -0.00000000000E+00 -0.00000000000E+00 -0.43839876124E+02  0.43839876124E+02  0.00000000000E+00 0.  1.
          6    1    1    2  501    0  0.80173858023E+02  0.49454273923E+02  0.32525365600E+03  0.38025322281E+03  0.17300000000E+03 0.  1.
         -6    1    1    2    0  502 -0.80173858023E+02 -0.49454273923E+02  0.57733115189E+03  0.61001133733E+03  0.17300000000E+03 0.  1.
</event>
<event>
 4    1  0.5900714E+000  0.1000000E+03  0.7546771E-02  0.1280296E+00
         21   -1    0    0  503  502  0.00000000000E+00  0.00000000000E+00  0.23275216415E+03  0.23275216415E+03  0.00000000000E+00 0. -1.
         21   -1    0    0  501  503 -0.00000000000E+00 -0.00000000000E+00 -0.19288065046E+03  0.19288065046E+03  0.00000000000E+00 0. -1.
          6    1    1    2  501    0  0.49607965533E+02  0.44573736745E+02 -0.83067750968E+02  0.20316746664E+03  0.17300000000E+03 0. -1.
         -6    1    1    2    0  502 -0.49607965533E+02 -0.44573736745E+02  0.12293926466E+03  0.22246534797E+03  0.17300000000E+03 0. -1.
</event>
<event>
 4    1  0.5900714E+000  0.1000000E+03  0.7546771E-02  0.1280296E+00
         21   -1    0    0  503  502  0.00000000000E+00  0.00000000000E+00  0.20435042529E+03  0.20435042529E+03  0.00000000000E+00 0. -1.
         21   -1    0    0  501  503 -0.00000000000E+00 -0.00000000000E+00 -0.38668721765E+03  0.38668721765E+03  0.00000000000E+00 0. -1.
          6    1    1    2  501    0  0.14301421411E+03  0.16922558021E+03 -0.91776819261E+02  0.29570652172E+03  0.17300000000E+03 0. -1.
         -6    1    1    2    0  502 -0.14301421411E+03 -0.16922558021E+03 -0.90559973099E+02  0.29533112122E+03  0.17300000000E+03 0. -1.
</event>
<event>
 4    1  0.5900714E+000  0.1000000E+03  0.7546771E-02  0.1280296E+00
         21   -1    0    0  503  502  0.00000000000E+00  0.00000000000E+00  0.27292605131E+02  0.27292605131E+02  0.00000000000E+00 0.  1.
         21   -1    0    0  501  503 -0.00000000000E+00 -0.00000000000E+00 -0.19900171199E+04  0.19900171199E+04  0.00000000000E+00 0.  1.
          6    1    1    2  501    0  0.52183605567E+02  0.63710820092E+02 -0.15555675518E+04  0.15673230699E+04  0.17300000000E+03 0.  1.
         -6    1    1    2    0  502 -0.52183605567E+02 -0.63710820092E+02 -0.40715696298E+03  0.44998665513E+03  0.17300000000E+03 0.  1.
</event>
<event>
 4    1  0.5900714E+000  0.1000000E+03  0.7546771E-02  0.1280296E+00
         21   -1    0    0  503  502  0.00000000000E+00  0.00000000000E+00  0.79284389663E+03  0.79284389663E+03  0.00000000000E+00 0.  1.
         21   -1    0    0  501  503 -0.00000000000E+00 -0.00000000000E+00 -0.44232292992E+02  0.44232292992E+02  0.00000000000E+00 0.  1.
          6    1    1    2  501    0 -0.11061870042E+02  0.70837276542E+02  0.37399922563E+03  0.41826391846E+03  0.17300000000E+03 0.  1.
         -6    1    1    2    0  502  0.11061870042E+02 -0.70837276542E+02  0.37461237801E+03  0.41881227116E+03  0.17300000000E+03 0.  1.
</event>
<event>
 4    1  0.5900714E+000  0.1000000E+03  0.7546771E-02  0.1280296E+00
         21   -1    0    0  503  502  0.00000000000E+00  0.00000000000E+00  0.42302477624E+02  0.42302477624E+02  0.00000000000E+00 0.  1.
         21   -1    0    0  501  503 -0.00000000000E+00 -0.00000000000E+00 -0.10870740869E+04  0.10870740869E+04  0.00000000000E+00 0.  1.
          6    1    1    2  501    0 -0.54791074774E+02  0.97076913675E+02 -0.68105979008E+03  0.71147552783E+03  0.17300000000E+03 0.  1.
         -6    1    1    2    0  502  0.54791074774E+02 -0.97076913675E+02 -0.36371181921E+03  0.41790103670E+03  0.17300000000E+03 0.  1.
</event>
<event>
 4    1  0.5900714E+000  0.1000000E+03  0.7546771E-02  0.1280296E+00
         21   -1    0    0  503  502  0.00000000000E+00  0.00000000000E+00  0.14815397707E+03  0.14815397707E+03  0.00000000000E+00 0.  1.
         21   -1    0    0  501  503 -0.00000000000E+00 -0.00000000000E+00 -0.55510726082E+03  0.55510726082E+03  0.00000000000E+00 0.  1.
          6    1    1    2  501    0 -0.40394890521E+02 -0.20517877501E+02 -0.47836172007E+03  0.51069723487E+03  0.17300000000E+03 0.  1.
         -6    1    1    2    0  502  0.40394890521E+02  0.20517877501E+02  0.71408436322E+02  0.19256400301E+03  0.17300000000E+03 0.  1.
</event>
<event>
 4    1  0.5900714E+000  0.1000000E+03  0.7546771E-02  0.1280296E+00
         21   -1    0    0  501  502  0.00000000000E+00  0.00000000000E+00  0.66265309134E+03  0.66265309134E+03  0.00000000000E+00 0.  1.
         21   -1    0    0  502  503 -0.00000000000E+00 -0.00000000000E+00 -0.73669034896E+02  0.73669034896E+02  0.00000000000E+00 0.  1.
          6    1    1    2  501    0 -0.78577548548E+02 -0.10177622140E+03  0.37535777669E+03  0.43284557397E+03  0.17300000000E+03 0.  1.
         -6    1    1    2    0  503  0.78577548548E+02  0.10177622140E+03  0.21362627976E+03  0.30347655228E+03  0.17300000000E+03 0.  1.
</event>
<event>
 4    1  0.5900714E+000  0.1000000E+03  0.7546771E-02  0.1280296E+00
         21   -1    0    0  501  502  0.00000000000E+00  0.00000000000E+00  0.99003735050E+03  0.99003735050E+03  0.00000000000E+00 0.  1.
         21   -1    0    0  502  503 -0.00000000000E+00 -0.00000000000E+00 -0.10103077304E+03  0.10103077304E+03  0.00000000000E+00 0. -1.
          6    1    1    2  501    0  0.14305879075E+03  0.10630588534E+03  0.78220249719E+03  0.82069269856E+03  0.17300000000E+03 0.  1.
         -6    1    1    2    0  503 -0.14305879075E+03 -0.10630588534E+03  0.10680408027E+03  0.27037542498E+03  0.17300000000E+03 0. -1.
</event>
<event>
 4    1  0.5900714E+000  0.1000000E+03  0.7546771E-02  0.1280296E+00
         21   -1    0    0  503  502  0.00000000000E+00  0.00000000000E+00  0.40504826884E+03  0.40504826884E+03  0.00000000000E+00 0.  1.
         21   -1    0    0  501  503 -0.00000000000E+00 -0.00000000000E+00 -0.28618801634E+03  0.28618801634E+03  0.00000000000E+00 0.  1.
          6    1    1    2  501    0  0.14258680881E+01 -0.12655768835E+02 -0.23796499252E+03  0.29448011690E+03  0.17300000000E+03 0.  1.
         -6    1    1    2    0  502 -0.14258680881E+01  0.12655768835E+02  0.35682524502E+03  0.39675616828E+03  0.17300000000E+03 0.  1.
</event>
<event>
 4    1  0.5900714E+000  0.1000000E+03  0.7546771E-02  0.1280296E+00
         21   -1    0    0  503  502  0.00000000000E+00  0.00000000000E+00  0.16775348623E+03  0.16775348623E+03  0.00000000000E+00 0.  1.
         21   -1    0    0  501  503 -0.00000000000E+00 -0.00000000000E+00 -0.32577108366E+03  0.32577108366E+03  0.00000000000E+00 0.  1.
          6    1    1    2  501    0  0.27446950037E+01 -0.88926152578E+02 -0.21584592465E+03  0.29057504565E+03  0.17300000000E+03 0.  1.
         -6    1    1    2    0  502 -0.27446950037E+01  0.88926152578E+02  0.57828327219E+02  0.20294952425E+03  0.17300000000E+03 0.  1.
</event>
<event>
 4    1  0.5900714E+000  0.1000000E+03  0.7546771E-02  0.1280296E+00
         21   -1    0    0  503  502  0.00000000000E+00  0.00000000000E+00  0.65189130034E+03  0.65189130034E+03  0.00000000000E+00 0.  1.
         21   -1    0    0  501  503 -0.00000000000E+00 -0.00000000000E+00 -0.18608709413E+03  0.18608709413E+03  0.00000000000E+00 0.  1.
          6    1    1    2  501    0  0.65052606413E+02 -0.12493253991E+03 -0.88856589693E+02  0.24013428465E+03  0.17300000000E+03 0.  1.
         -6    1    1    2    0  502 -0.65052606413E+02  0.12493253991E+03  0.55466079591E+03  0.59784410982E+03  0.17300000000E+03 0.  1.
</event>
<event>
 4    1  0.5900714E+000  0.1000000E+03  0.7546771E-02  0.1280296E+00
         21   -1    0    0  501  502  0.00000000000E+00  0.00000000000E+00  0.40194991409E+03  0.40194991409E+03  0.00000000000E+00 0.  1.
         21   -1    0    0  502  503 -0.00000000000E+00 -0.00000000000E+00 -0.17006066310E+03  0.17006066310E+03  0.00000000000E+00 0.  1.
          6    1    1    2  501    0  0.12793555219E+03 -0.11914180744E+03  0.18932886545E+02  0.24667738037E+03  0.17300000000E+03 0.  1.
         -6    1    1    2    0  503 -0.12793555219E+03  0.11914180744E+03  0.21295636444E+03  0.32533319682E+03  0.17300000000E+03 0.  1.
</event>
<event>
 4    1  0.5900714E+000  0.1000000E+03  0.7546771E-02  0.1280296E+00
         21   -1    0    0  503  502  0.00000000000E+00  0.00000000000E+00  0.29354758300E+03  0.29354758300E+03  0.00000000000E+00 0.  1.
         21   -1    0    0  501  503 -0.00000000000E+00 -0.00000000000E+00 -0.46850297918E+03  0.46850297918E+03  0.00000000000E+00 0. -1.
          6    1    1    2  501    0  0.54000677249E+02 -0.69607979941E+02 -0.41212019286E+03  0.45555833586E+03  0.17300000000E+03 0. -1.
         -6    1    1    2    0  502 -0.54000677249E+02  0.69607979941E+02  0.23716479668E+03  0.30649222633E+03  0.17300000000E+03 0.  1.
</event>
<event>
 4    1  0.5900714E+000  0.1000000E+03  0.7546771E-02  0.1280296E+00
         21   -1    0    0  503  502  0.00000000000E+00  0.00000000000E+00  0.75334283317E+02  0.75334283317E+02  0.00000000000E+00 0.  1.
         21   -1    0    0  501  503 -0.00000000000E+00 -0.00000000000E+00 -0.13675197128E+04  0.13675197128E+04  0.00000000000E+00 0. -1.
          6    1    1    2  501    0  0.10882405217E+03  0.13971794637E+03 -0.11052323762E+04  0.11326214656E+04  0.17300000000E+03 0. -1.
         -6    1    1    2    0  502 -0.10882405217E+03 -0.13971794637E+03 -0.18695305324E+03  0.31023253050E+03  0.17300000000E+03 0.  1.
</event>
<event>
 4    1  0.5900714E+000  0.1000000E+03  0.7546771E-02  0.1280296E+00
         21   -1    0    0  503  502  0.00000000000E+00  0.00000000000E+00  0.11159065518E+04  0.11159065518E+04  0.00000000000E+00 0.  1.
         21   -1    0    0  501  503 -0.00000000000E+00 -0.00000000000E+00 -0.88150539756E+02  0.88150539756E+02  0.00000000000E+00 0. -1.
          6    1    1    2  501    0 -0.10832008100E+03 -0.23481742854E+03  0.58984556622E+03  0.66687274400E+03  0.17300000000E+03 0. -1.
         -6    1    1    2    0  502  0.10832008100E+03  0.23481742854E+03  0.43791044580E+03  0.53718434754E+03  0.17300000000E+03 0.  1.
</event>
<event>
 4    1  0.5900714E+000  0.1000000E+03  0.7546771E-02  0.1280296E+00
         21   -1    0    0  503  502  0.00000000000E+00  0.00000000000E+00  0.24126359514E+02  0.24126359514E+02  0.00000000000E+00 0.  1.
         21   -1    0    0  501  503 -0.00000000000E+00 -0.00000000000E+00 -0.16779067148E+04  0.16779067148E+04  0.00000000000E+00 0. -1.
          6    1    1    2  501    0 -0.78318088346E+02  0.66471274518E+02 -0.82354007650E+03  0.84776141154E+03  0.17300000000E+03 0. -1.
         -6    1    1    2    0  502  0.78318088346E+02 -0.66471274518E+02 -0.83024027881E+03  0.85427166279E+03  0.17300000000E+03 0.  1.
</event>
<event>
 4    1  0.5900714E+000  0.1000000E+03  0.7546771E-02  0.1280296E+00
         21   -1    0    0  503  502  0.00000000000E+00  0.00000000000E+00  0.82000019098E+02  0.82000019098E+02  0.00000000000E+00 0.  1.
         21   -1    0    0  501  503 -0.00000000000E+00 -0.00000000000E+00 -0.19951743679E+04  0.19951743679E+04  0.00000000000E+00 0. -1.
          6    1    1    2  501    0 -0.10460770838E+03 -0.89768767434E+02 -0.18261045977E+04  0.18394532356E+04  0.17300000000E+03 0. -1.
         -6    1    1    2    0  502  0.10460770838E+03  0.89768767434E+02 -0.87069751099E+02  0.23772115138E+03  0.17300000000E+03 0.  1.
</event>
<event>
 4    1  0.5900714E+000  0.1000000E+03  0.7546771E-02  0.1280296E+00
         21   -1    0    0  503  502  0.00000000000E+00  0.00000000000E+00  0.67464611756E+03  0.67464611756E+03  0.00000000000E+00 0.  1.
         21   -1    0    0  501  503 -0.00000000000E+00 -0.00000000000E+00 -0.82562433741E+02  0.82562433741E+02  0.00000000000E+00 0. -1.
          6    1    1    2  501    0  0.48012346333E+02  0.66324480285E+02  0.74527986660E+02  0.20539606345E+03  0.17300000000E+03 0. -1.
         -6    1    1    2    0  502 -0.48012346333E+02 -0.66324480285E+02  0.51755569716E+03  0.55181248785E+03  0.17300000000E+03 0.  1.
</event>
<event>
 4    1  0.5900714E+000  0.1000000E+03  0.7546771E-02  0.1280296E+00
         21   -1    0    0  503  502  0.00000000000E+00  0.00000000000E+00  0.20061010964E+03  0.20061010964E+03  0.00000000000E+00 0.  1.
         21   -1    0    0  501  503 -0.00000000000E+00 -0.00000000000E+00 -0.61507734939E+03  0.61507734939E+03  0.00000000000E+00 0.  1.
          6    1    1    2  501    0 -0.66690391698E+02  0.19214785886E+03 -0.47223220807E+03  0.54249485376E+03  0.17300000000E+03 0.  1.
         -6    1    1    2    0  502  0.66690391698E+02 -0.19214785886E+03  0.57764968315E+02  0.27319260527E+03  0.17300000000E+03 0.  1.
</event>
<event>
 4    1  0.5900714E+000  0.1000000E+03  0.7546771E-02  0.1280296E+00
         21   -1    0    0  503  502  0.00000000000E+00  0.00000000000E+00  0.16335138272E+02  0.16335138272E+02  0.00000000000E+00 0.  1.
         21   -1    0    0  501  503 -0.00000000000E+00 -0.00000000000E+00 -0.36276643088E+04  0.36276643088E+04  0.00000000000E+00 0.  1.
          6    1    1    2  501    0 -0.12885949424E+03 -0.61545649048E+02 -0.25132248687E+04  0.25232163753E+04  0.17300000000E+03 0.  1.
         -6    1    1    2    0  502  0.12885949424E+03  0.61545649048E+02 -0.10981043018E+04  0.11207830717E+04  0.17300000000E+03 0.  1.
</event>
<event>
 4    1  0.5900714E+000  0.1000000E+03  0.7546771E-02  0.1280296E+00
         21   -1    0    0  501  502  0.00000000000E+00  0.00000000000E+00  0.10459554801E+04  0.10459554801E+04  0.00000000000E+00 0.  1.
         21   -1    0    0  502  503 -0.00000000000E+00 -0.00000000000E+00 -0.54859845367E+02  0.54859845367E+02  0.00000000000E+00 0. -1.
          6    1    1    2  501    0  0.11751234488E+03  0.56231564256E+02  0.73078075268E+03  0.76219462640E+03  0.17300000000E+03 0.  1.
         -6    1    1    2    0  503 -0.11751234488E+03 -0.56231564256E+02  0.26031488203E+03  0.33862069904E+03  0.17300000000E+03 0. -1.
</event>
<event>
 4    1  0.5900714E+000  0.1000000E+03  0.7546771E-02  0.1280296E+00
         21   -1    0    0  501  502  0.00000000000E+00  0.00000000000E+00  0.25094263885E+03  0.25094263885E+03  0.00000000000E+00 0.  1.
         21   -1    0    0  502  503 -0.00000000000E+00 -0.00000000000E+00 -0.27763134264E+03  0.27763134264E+03  0.00000000000E+00 0. -1.
          6    1    1    2  501    0  0.34280724699E+02  0.17086299347E+03  0.83584299469E+02  0.25939287912E+03  0.17300000000E+03 0.  1.
         -6    1    1    2    0  503 -0.34280724699E+02 -0.17086299347E+03 -0.11027300325E+03  0.26918110236E+03  0.17300000000E+03 0. -1.
</event>
<event>
 4    1  0.5900714E+000  0.1000000E+03  0.7546771E-02  0.1280296E+00
         21   -1    0    0  503  502  0.00000000000E+00  0.00000000000E+00  0.65260167192E+03  0.65260167192E+03  0.00000000000E+00 0. -1.
         21   -1    0    0  501  503 -0.00000000000E+00 -0.00000000000E+00 -0.76043332852E+02  0.76043332852E+02  0.00000000000E+00 0. -1.
          6    1    1    2  501    0 -0.56858457727E+02  0.65892998919E+02  0.10821691786E+03  0.22184380278E+03  0.17300000000E+03 0. -1.
         -6    1    1    2    0  502  0.56858457727E+02 -0.65892998919E+02  0.46834142121E+03  0.50680120199E+03  0.17300000000E+03 0. -1.
</event>
<event>
 4    1  0.5900714E+000  0.1000000E+03  0.7546771E-02  0.1280296E+00
         21   -1    0    0  501  502  0.00000000000E+00  0.00000000000E+00  0.22906629210E+03  0.22906629210E+03  0.00000000000E+00 0. -1.
         21   -1    0    0  502  503 -0.00000000000E+00 -0.00000000000E+00 -0.14228025395E+03  0.14228025395E+03  0.00000000000E+00 0.  1.
          6    1    1    2  501    0  0.42377855620E+02  0.22810334121E+02  0.24250653997E+02  0.18119958115E+03  0.17300000000E+03 0.  1.
         -6    1    1    2    0  503 -0.42377855620E+02 -0.22810334121E+02  0.62535384153E+02  0.19014696490E+03  0.17300000000E+03 0. -1.
</event>
<event>
 4    1  0.5900714E+000  0.1000000E+03  0.7546771E-02  0.1280296E+00
         21   -1    0    0  501  502  0.00000000000E+00  0.00000000000E+00  0.16719446950E+03  0.16719446950E+03  0.00000000000E+00 0. -1.
         21   -1    0    0  502  503 -0.00000000000E+00 -0.00000000000E+00 -0.43432769132E+03  0.43432769132E+03  0.00000000000E+00 0.  1.
          6    1    1    2  501    0 -0.16803312196E+03 -0.25341542547E+02 -0.24033068003E+01  0.24251206101E+03  0.17300000000E+03 0. -1.
         -6    1    1    2    0  503  0.16803312196E+03  0.25341542547E+02 -0.26472991502E+03  0.35901009981E+03  0.17300000000E+03 0.  1.
</event>
<event>
 4    1  0.5900714E+000  0.1000000E+03  0.7546771E-02  0.1280296E+00
         21   -1    0    0  501  502  0.00000000000E+00  0.00000000000E+00  0.63334168331E+02  0.63334168331E+02  0.00000000000E+00 0.  1.
         21   -1    0    0  502  503 -0.00000000000E+00 -0.00000000000E+00 -0.80875596703E+03  0.80875596703E+03  0.00000000000E+00 0.  1.
          6    1    1    2  501    0 -0.12102796305E+03 -0.19155481712E+01 -0.21569811067E+03  0.30183789045E+03  0.17300000000E+03 0.  1.
         -6    1    1    2    0  503  0.12102796305E+03  0.19155481712E+01 -0.52972368803E+03  0.57025224491E+03  0.17300000000E+03 0.  1.
</event>
<event>
 4    1  0.5900714E+000  0.1000000E+03  0.7546771E-02  0.1280296E+00
         21   -1    0    0  501  502  0.00000000000E+00  0.00000000000E+00  0.29676961177E+03  0.29676961177E+03  0.00000000000E+00 0.  1.
         21   -1    0    0  502  503 -0.00000000000E+00 -0.00000000000E+00 -0.16197180283E+03  0.16197180283E+03  0.00000000000E+00 0.  1.
          6    1    1    2  501    0  0.12185960986E+03 -0.47208884004E+01  0.12719877302E+03  0.24694246123E+03  0.17300000000E+03 0.  1.
         -6    1    1    2    0  503 -0.12185960986E+03  0.47208884004E+01  0.75990359154E+01  0.21179895337E+03  0.17300000000E+03 0.  1.
</event>
<event>
 4    1  0.5900714E+000  0.1000000E+03  0.7546771E-02  0.1280296E+00
         21   -1    0    0  503  502  0.00000000000E+00  0.00000000000E+00  0.24417385177E+03  0.24417385177E+03  0.00000000000E+00 0. -1.
         21   -1    0    0  501  503 -0.00000000000E+00 -0.00000000000E+00 -0.35701208615E+03  0.35701208615E+03  0.00000000000E+00 0. -1.
          6    1    1    2  501    0  0.31042071835E+02 -0.87281218960E+02 -0.28100606883E+03  0.34274630870E+03  0.17300000000E+03 0. -1.
         -6    1    1    2    0  502 -0.31042071835E+02  0.87281218960E+02  0.16816783445E+03  0.25843962922E+03  0.17300000000E+03 0. -1.
</event>
<event>
 4    1  0.5900714E+000  0.1000000E+03  0.7546771E-02  0.1280296E+00
         21   -1    0    0  503  502  0.00000000000E+00  0.00000000000E+00  0.84370930859E+03  0.84370930859E+03  0.00000000000E+00 0. -1.
         21   -1    0    0  501  503 -0.00000000000E+00 -0.00000000000E+00 -0.23847648173E+03  0.23847648173E+03  0.00000000000E+00 0. -1.
          6    1    1    2  501    0 -0.61741801204E+02 -0.14742909090E+03 -0.15787845196E+03  0.28355245097E+03  0.17300000000E+03 0. -1.
         -6    1    1    2    0  502  0.61741801204E+02  0.14742909090E+03  0.76311127882E+03  0.79863333935E+03  0.17300000000E+03 0. -1.
</event>
<event>
 4    1  0.5900714E+000  0.1000000E+03  0.7546771E-02  0.1280296E+00
         21   -1    0    0  503  502  0.00000000000E+00  0.00000000000E+00  0.16672551033E+03  0.16672551033E+03  0.00000000000E+00 0. -1.
         21   -1    0    0  501  503 -0.00000000000E+00 -0.00000000000E+00 -0.58093224359E+03  0.58093224359E+03  0.00000000000E+00 0. -1.
          6    1    1    2  501    0  0.78842704550E+02  0.19318130930E+03 -0.39081771424E+03  0.47560769137E+03  0.17300000000E+03 0. -1.
         -6    1    1    2    0  502 -0.78842704550E+02 -0.19318130930E+03 -0.23389019018E+02  0.27205006255E+03  0.17300000000E+03 0. -1.
</event>
<event>
 4    1  0.5900714E+000  0.1000000E+03  0.7546771E-02  0.1280296E+00
         21   -1    0    0  501  502  0.00000000000E+00  0.00000000000E+00  0.18144536593E+03  0.18144536593E+03  0.00000000000E+00 0.  1.
         21   -1    0    0  502  503 -0.00000000000E+00 -0.00000000000E+00 -0.19673742580E+03  0.19673742580E+03  0.00000000000E+00 0.  1.
          6    1    1    2  501    0  0.15947525958E+02  0.63248054521E+02 -0.46581012177E+02  0.19066575644E+03  0.17300000000E+03 0.  1.
         -6    1    1    2    0  503 -0.15947525958E+02 -0.63248054521E+02  0.31288952302E+02  0.18751703528E+03  0.17300000000E+03 0.  1.
</event>
<event>
 4    1  0.5900714E+000  0.1000000E+03  0.7546771E-02  0.1280296E+00
         21   -1    0    0  501  502  0.00000000000E+00  0.00000000000E+00  0.80739724917E+03  0.80739724917E+03  0.00000000000E+00 0.  1.
         21   -1    0    0  502  503 -0.00000000000E+00 -0.00000000000E+00 -0.72812364207E+02  0.72812364207E+02  0.00000000000E+00 0.  1.
          6    1    1    2  501    0 -0.23481329795E+02  0.12754373559E+03  0.56646808904E+03  0.60632818938E+03  0.17300000000E+03 0.  1.
         -6    1    1    2    0  503  0.23481329795E+02 -0.12754373559E+03  0.16811679592E+03  0.27388142399E+03  0.17300000000E+03 0.  1.
</event>
<event>
 4    1  0.5900714E+000  0.1000000E+03  0.7546771E-02  0.1280296E+00
         21   -1    0    0  503  502  0.00000000000E+00  0.00000000000E+00  0.11021135843E+04  0.11021135843E+04  0.00000000000E+00 0. -1.
         21   -1    0    0  501  503 -0.00000000000E+00 -0.00000000000E+00 -0.21990064492E+03  0.21990064492E+03  0.00000000000E+00 0.  1.
          6    1    1    2  501    0  0.66879170687E+02  0.28200972484E+02 -0.17001979206E+03  0.25318737728E+03  0.17300000000E+03 0.  1.
         -6    1    1    2    0  502 -0.66879170687E+02 -0.28200972484E+02  0.10522327314E+04  0.10688268519E+04  0.17300000000E+03 0. -1.
</event>
<event>
 4    1  0.5900714E+000  0.1000000E+03  0.7546771E-02  0.1280296E+00
         21   -1    0    0  503  502  0.00000000000E+00  0.00000000000E+00  0.10632557948E+03  0.10632557948E+03  0.00000000000E+00 0. -1.
         21   -1    0    0  501  503 -0.00000000000E+00 -0.00000000000E+00 -0.84821842370E+03  0.84821842370E+03  0.00000000000E+00 0.  1.
          6    1    1    2  501    0 -0.12009755321E+03  0.94308078356E+02 -0.67640114436E+03  0.71467821012E+03  0.17300000000E+03 0.  1.
         -6    1    1    2    0  502  0.12009755321E+03 -0.94308078356E+02 -0.65491699856E+02  0.23986579306E+03  0.17300000000E+03 0. -1.
</event>
<event>
 4    1  0.5900714E+000  0.1000000E+03  0.7546771E-02  0.1280296E+00
         21   -1    0    0  503  502  0.00000000000E+00  0.00000000000E+00  0.42393390200E+03  0.42393390200E+03  0.00000000000E+00 0. -1.
         21   -1    0    0  501  503 -0.00000000000E+00 -0.00000000000E+00 -0.43855826680E+03  0.43855826680E+03  0.00000000000E+00 0.  1.
          6    1    1    2  501    0  0.19921571629E+03 -0.13576234270E+03 -0.32020281629E+03  0.43655143897E+03  0.17300000000E+03 0.  1.
         -6    1    1    2    0  502 -0.19921571629E+03  0.13576234270E+03  0.30557845149E+03  0.42594072983E+03  0.17300000000E+03 0. -1.
</event>
<event>
 4    1  0.5900714E+000  0.1000000E+03  0.7546771E-02  0.1280296E+00
         21   -1    0    0  503  502  0.00000000000E+00  0.00000000000E+00  0.23799933550E+03  0.23799933550E+03  0.00000000000E+00 0.  1.
         21   -1    0    0  501  503 -0.00000000000E+00 -0.00000000000E+00 -0.16918059157E+03  0.16918059157E+03  0.00000000000E+00 0. -1.
          6    1    1    2  501    0 -0.22305009898E+02 -0.67271477124E+02 -0.39544203738E+02  0.19109084005E+03  0.17300000000E+03 0. -1.
         -6    1    1    2    0  502  0.22305009898E+02  0.67271477124E+02  0.10836294767E+03  0.21608908702E+03  0.17300000000E+03 0.  1.
</event>
<event>
 4    1  0.5900714E+000  0.1000000E+03  0.7546771E-02  0.1280296E+00
         21   -1    0    0  503  502  0.00000000000E+00  0.00000000000E+00  0.13407894399E+04  0.13407894399E+04  0.00000000000E+00 0.  1.
         21   -1    0    0  501  503 -0.00000000000E+00 -0.00000000000E+00 -0.97079096432E+02  0.97079096432E+02  0.00000000000E+00 0. -1.
          6    1    1    2  501    0  0.76174541331E+02 -0.23724395943E+03  0.23265534177E+03  0.38228885033E+03  0.17300000000E+03 0. -1.
         -6    1    1    2    0  502 -0.76174541331E+02  0.23724395943E+03  0.10110550017E+04  0.10555796860E+04  0.17300000000E+03 0.  1.
</event>
<event>
 4    1  0.5900714E+000  0.1000000E+03  0.7546771E-02  0.1280296E+00
         21   -1    0    0  503  502  0.00000000000E+00  0.00000000000E+00  0.14824291675E+02  0.14824291675E+02  0.00000000000E+00 0.  1.
         21   -1    0    0  501  503 -0.00000000000E+00 -0.00000000000E+00 -0.32046232662E+04  0.32046232662E+04  0.00000000000E+00 0. -1.
          6    1    1    2  501    0  0.28089784035E+02  0.12726406289E+03 -0.17746088125E+04  0.17877781224E+04  0.17300000000E+03 0. -1.
         -6    1    1    2    0  502 -0.28089784035E+02 -0.12726406289E+03 -0.14151901621E+04  0.14316694355E+04  0.17300000000E+03 0.  1.
</event>
<event>
 4    1  0.5900714E+000  0.1000000E+03  0.7546771E-02  0.1280296E+00
         21   -1    0    0  503  502  0.00000000000E+00  0.00000000000E+00  0.20487370901E+03  0.20487370901E+03  0.00000000000E+00 0. -1.
         21   -1    0    0  501  503 -0.00000000000E+00 -0.00000000000E+00 -0.23530237296E+03  0.23530237296E+03  0.00000000000E+00 0.  1.
          6    1    1    2  501    0  0.43420311786E+02  0.11687144601E+03 -0.67627492243E+02  0.22371127838E+03  0.17300000000E+03 0.  1.
         -6    1    1    2    0  502 -0.43420311786E+02 -0.11687144601E+03  0.37198828296E+02  0.21646480359E+03  0.17300000000E+03 0. -1.
</event>
<event>
 4    1  0.5900714E+000  0.1000000E+03  0.7546771E-02  0.1280296E+00
         21   -1    0    0  503  502  0.00000000000E+00  0.00000000000E+00  0.28896892529E+03  0.28896892529E+03  0.00000000000E+00 0.  1.
         21   -1    0    0  501  503 -0.00000000000E+00 -0.00000000000E+00 -0.15848158874E+03  0.15848158874E+03  0.00000000000E+00 0.  1.
          6    1    1    2  501    0 -0.32386396447E+00 -0.10342166013E+03  0.14042186632E+03  0.24564902852E+03  0.17300000000E+03 0. -1.
         -6    1    1    2    0  502  0.32386396447E+00  0.10342166013E+03 -0.99345297693E+01  0.20180148551E+03  0.17300000000E+03 0. -1.
</event>
<event>
 4    1  0.5900714E+000  0.1000000E+03  0.7546771E-02  0.1280296E+00
         21   -1    0    0  503  502  0.00000000000E+00  0.00000000000E+00  0.73324958937E+02  0.73324958937E+02  0.00000000000E+00 0.  1.
         21   -1    0    0  501  503 -0.00000000000E+00 -0.00000000000E+00 -0.63957716012E+03  0.63957716012E+03  0.00000000000E+00 0.  1.
          6    1    1    2  501    0 -0.11455852368E+03 -0.17982987185E+02 -0.38079492508E+03  0.43402859139E+03  0.17300000000E+03 0. -1.
         -6    1    1    2    0  502  0.11455852368E+03  0.17982987185E+02 -0.18545727611E+03  0.27887352767E+03  0.17300000000E+03 0. -1.
</event>
<event>
 4    1  0.5900714E+000  0.1000000E+03  0.7546771E-02  0.1280296E+00
         21   -1    0    0  501  502  0.00000000000E+00  0.00000000000E+00  0.68528253794E+02  0.68528253794E+02  0.00000000000E+00 0. -1.
         21   -1    0    0  502  503 -0.00000000000E+00 -0.00000000000E+00 -0.53152336060E+03  0.53152336060E+03  0.00000000000E+00 0.  1.
          6    1    1    2  501    0 -0.80343813050E+02 -0.94479315308E+00 -0.22163663332E+03  0.29241719881E+03  0.17300000000E+03 0. -1.
         -6    1    1    2    0  503  0.80343813050E+02  0.94479315308E+00 -0.24135847349E+03  0.30763441559E+03  0.17300000000E+03 0.  1.
</event>
<event>
 4    1  0.5900714E+000  0.1000000E+03  0.7546771E-02  0.1280296E+00
         21   -1    0    0  503  502  0.00000000000E+00  0.00000000000E+00  0.13016778885E+04  0.13016778885E+04  0.00000000000E+00 0.  1.
         21   -1    0    0  501  503 -0.00000000000E+00 -0.00000000000E+00 -0.38619119950E+02  0.38619119950E+02  0.00000000000E+00 0.  1.
          6    1    1    2  501    0  0.18308597372E+02  0.11015860147E+03  0.36636196917E+03  0.42026207855E+03  0.17300000000E+03 0.  1.
         -6    1    1    2    0  502 -0.18308597372E+02 -0.11015860147E+03  0.89669679939E+03  0.92003492991E+03  0.17300000000E+03 0.  1.
</event>
<event>
 4    1  0.5900714E+000  0.1000000E+03  0.7546771E-02  0.1280296E+00
         21   -1    0    0  501  502  0.00000000000E+00  0.00000000000E+00  0.69307236124E+03  0.69307236124E+03  0.00000000000E+00 0. -1.
         21   -1    0    0  502  503 -0.00000000000E+00 -0.00000000000E+00 -0.51950603738E+02  0.51950603738E+02  0.00000000000E+00 0. -1.
          6    1    1    2  501    0  0.96858859762E-01 -0.71058755061E+02  0.38347911869E+03  0.42665511895E+03  0.17300000000E+03 0. -1.
         -6    1    1    2    0  503 -0.96858859762E-01  0.71058755061E+02  0.25764263881E+03  0.31836784603E+03  0.17300000000E+03 0. -1.
</event>
<event>
 4    1  0.5900714E+000  0.1000000E+03  0.7546771E-02  0.1280296E+00
         21   -1    0    0  501  502  0.00000000000E+00  0.00000000000E+00  0.40336797557E+03  0.40336797557E+03  0.00000000000E+00 0. -1.
         21   -1    0    0  502  503 -0.00000000000E+00 -0.00000000000E+00 -0.30102085809E+03  0.30102085809E+03  0.00000000000E+00 0. -1.
          6    1    1    2  501    0  0.11846167722E+03 -0.35386530090E+02  0.33019217008E+03  0.39273559129E+03  0.17300000000E+03 0. -1.
         -6    1    1    2    0  503 -0.11846167722E+03  0.35386530090E+02 -0.22784505260E+03  0.31165324236E+03  0.17300000000E+03 0. -1.
</event>
<event>
 4    1  0.5900714E+000  0.1000000E+03  0.7546771E-02  0.1280296E+00
         21   -1    0    0  501  502  0.00000000000E+00  0.00000000000E+00  0.54981278710E+03  0.54981278710E+03  0.00000000000E+00 0.  1.
         21   -1    0    0  502  503 -0.00000000000E+00 -0.00000000000E+00 -0.23659213293E+03  0.23659213293E+03  0.00000000000E+00 0. -1.
          6    1    1    2  501    0  0.23309848932E+03  0.20724066875E+02  0.38887284027E+03  0.48571131196E+03  0.17300000000E+03 0. -1.
         -6    1    1    2    0  503 -0.23309848932E+03 -0.20724066875E+02 -0.75652186105E+02  0.30069360807E+03  0.17300000000E+03 0. -1.
</event>
<event>
 4    1  0.5900714E+000  0.1000000E+03  0.7546771E-02  0.1280296E+00
         21   -1    0    0  501  502  0.00000000000E+00  0.00000000000E+00  0.10388393655E+03  0.10388393655E+03  0.00000000000E+00 0.  1.
         21   -1    0    0  502  503 -0.00000000000E+00 -0.00000000000E+00 -0.99310797248E+03  0.99310797248E+03  0.00000000000E+00 0. -1.
          6    1    1    2  501    0  0.47747925491E+02  0.48307161972E+02  0.27342488006E+01  0.18587609422E+03  0.17300000000E+03 0. -1.
         -6    1    1    2    0  503 -0.47747925491E+02 -0.48307161972E+02 -0.89195828473E+03  0.91111581480E+03  0.17300000000E+03 0. -1.
</event>
<event>
 4    1  0.5900714E+000  0.1000000E+03  0.7546771E-02  0.1280296E+00
         21   -1    0    0  503  502  0.00000000000E+00  0.00000000000E+00  0.29576993168E+02  0.29576993168E+02  0.00000000000E+00 0. -1.
         21   -1    0    0  501  503 -0.00000000000E+00 -0.00000000000E+00 -0.27644125593E+04  0.27644125593E+04  0.00000000000E+00 0. -1.
          6    1    1    2  501    0  0.14412889774E+03  0.45702538175E+02 -0.21990028982E+04  0.22109736786E+04  0.17300000000E+03 0. -1.
         -6    1    1    2    0  502 -0.14412889774E+03 -0.45702538175E+02 -0.53583266793E+03  0.58301587386E+03  0.17300000000E+03 0. -1.
</event>
<event>
 4    1  0.5900714E+000  0.1000000E+03  0.7546771E-02  0.1280296E+00
         21   -1    0    0  503  502  0.00000000000E+00  0.00000000000E+00  0.17561806914E+02  0.17561806914E+02  0.00000000000E+00 0. -1.
         21   -1    0    0  501  503 -0.00000000000E+00 -0.00000000000E+00 -0.19863255072E+04  0.19863255072E+04  0.00000000000E+00 0. -1.
          6    1    1    2  501    0 -0.26220052642E+02 -0.64713076608E+02 -0.93664288532E+03  0.95504144835E+03  0.17300000000E+03 0.  1.
         -6    1    1    2    0  502  0.26220052642E+02  0.64713076608E+02 -0.10321208150E+04  0.10488458658E+04  0.17300000000E+03 0.  1.
</event>
<event>
 4    1  0.5900714E+000  0.1000000E+03  0.7546771E-02  0.1280296E+00
         21   -1    0    0  503  502  0.00000000000E+00  0.00000000000E+00  0.33905854039E+03  0.33905854039E+03  0.00000000000E+00 0. -1.
         21   -1    0    0  501  503 -0.00000000000E+00 -0.00000000000E+00 -0.32128605302E+03  0.32128605302E+03  0.00000000000E+00 0.  1.
          6    1    1    2  501    0  0.15750648692E+03 -0.20142205500E+03  0.12566175605E+03  0.33331518807E+03  0.17300000000E+03 0. -1.
         -6    1    1    2    0  502 -0.15750648692E+03  0.20142205500E+03 -0.10788926869E+03  0.32702940534E+03  0.17300000000E+03 0.  1.
</event>
<event>
 4    1  0.5900714E+000  0.1000000E+03  0.7546771E-02  0.1280296E+00
         21   -1    0    0  503  502  0.00000000000E+00  0.00000000000E+00  0.44332530605E+03  0.44332530605E+03  0.00000000000E+00 0. -1.
         21   -1    0    0  501  503 -0.00000000000E+00 -0.00000000000E+00 -0.16977030029E+03  0.16977030029E+03  0.00000000000E+00 0.  1.
          6    1    1    2  501    0  0.36970046977E+02  0.40959209232E+02 -0.93009298952E+02  0.20402002570E+03  0.17300000000E+03 0. -1.
         -6    1    1    2    0  502 -0.36970046977E+02 -0.40959209232E+02  0.36656430471E+03  0.40907558065E+03  0.17300000000E+03 0.  1.
</event>
<event>
 4    1  0.5900714E+000  0.1000000E+03  0.7546771E-02  0.1280296E+00
         21   -1    0    0  503  502  0.00000000000E+00  0.00000000000E+00  0.51224288615E+02  0.51224288615E+02  0.00000000000E+00 0. -1.
         21   -1    0    0  501  503 -0.00000000000E+00 -0.00000000000E+00 -0.79590663471E+03  0.79590663471E+03  0.00000000000E+00 0. -1.
          6    1    1    2  501    0 -0.93409204387E+02 -0.29648454315E+02 -0.44610410713E+03  0.48840780574E+03  0.17300000000E+03 0. -1.
         -6    1    1    2    0  502  0.93409204387E+02  0.29648454315E+02 -0.29857823896E+03  0.35872311759E+03  0.17300000000E+03 0. -1.
</event>
<event>
 4    1  0.5900714E+000  0.1000000E+03  0.7546771E-02  0.1280296E+00
         21   -1    0    0  503  502  0.00000000000E+00  0.00000000000E+00  0.37301127687E+03  0.37301127687E+03  0.00000000000E+00 0. -1.
         21   -1    0    0  501  503 -0.00000000000E+00 -0.00000000000E+00 -0.10330327036E+03  0.10330327036E+03  0.00000000000E+00 0. -1.
          6    1    1    2  501    0 -0.35474058372E+02 -0.83195144169E+02  0.15984916827E+03  0.25231051787E+03  0.17300000000E+03 0. -1.
         -6    1    1    2    0  502  0.35474058372E+02  0.83195144169E+02  0.10985883824E+03  0.22400402936E+03  0.17300000000E+03 0. -1.
</event>
<event>
 4    1  0.5900714E+000  0.1000000E+03  0.7546771E-02  0.1280296E+00
         21   -1    0    0  503  502  0.00000000000E+00  0.00000000000E+00  0.36514255590E+03  0.36514255590E+03  0.00000000000E+00 0. -1.
         21   -1    0    0  501  503 -0.00000000000E+00 -0.00000000000E+00 -0.13633482081E+03  0.13633482081E+03  0.00000000000E+00 0. -1.
          6    1    1    2  501    0  0.13058328266E+03 -0.36753654349E+02  0.71613719619E+02  0.23121494255E+03  0.17300000000E+03 0. -1.
         -6    1    1    2    0  502 -0.13058328266E+03  0.36753654349E+02  0.15719401547E+03  0.27026243416E+03  0.17300000000E+03 0. -1.
</event>
<event>
 4    1  0.5900714E+000  0.1000000E+03  0.7546771E-02  0.1280296E+00
         21   -1    0    0  501  502  0.00000000000E+00  0.00000000000E+00  0.31963759828E+03  0.31963759828E+03  0.00000000000E+00 0. -1.
         21   -1    0    0  502  503 -0.00000000000E+00 -0.00000000000E+00 -0.18579561970E+03  0.18579561970E+03  0.00000000000E+00 0. -1.
          6    1    1    2  501    0  0.35740450695E+02 -0.11816668969E+03 -0.56730409498E+02  0.21997292045E+03  0.17300000000E+03 0. -1.
         -6    1    1    2    0  503 -0.35740450695E+02  0.11816668969E+03  0.19057238808E+03  0.28546029753E+03  0.17300000000E+03 0. -1.
</event>
<event>
 4    1  0.5900714E+000  0.1000000E+03  0.7546771E-02  0.1280296E+00
         21   -1    0    0  501  502  0.00000000000E+00  0.00000000000E+00  0.53897210151E+02  0.53897210151E+02  0.00000000000E+00 0. -1.
         21   -1    0    0  502  503 -0.00000000000E+00 -0.00000000000E+00 -0.82884989215E+03  0.82884989215E+03  0.00000000000E+00 0. -1.
          6    1    1    2  501    0 -0.58507162504E+02 -0.15440386525E+01 -0.16531198844E+03  0.24633823422E+03  0.17300000000E+03 0. -1.
         -6    1    1    2    0  503  0.58507162504E+02  0.15440386525E+01 -0.60964069356E+03  0.63640886807E+03  0.17300000000E+03 0. -1.
</event>
<event>
 4    1  0.5900714E+000  0.1000000E+03  0.7546771E-02  0.1280296E+00
         21   -1    0    0  501  502  0.00000000000E+00  0.00000000000E+00  0.47727362616E+03  0.47727362616E+03  0.00000000000E+00 0. -1.
         21   -1    0    0  502  503 -0.00000000000E+00 -0.00000000000E+00 -0.16129202495E+03  0.16129202495E+03  0.00000000000E+00 0. -1.
          6    1    1    2  501    0  0.17475189504E+03 -0.51082460812E+02  0.29368208266E+03  0.38642697667E+03  0.17300000000E+03 0. -1.
         -6    1    1    2    0  503 -0.17475189504E+03  0.51082460812E+02  0.22299518553E+02  0.25213867444E+03  0.17300000000E+03 0. -1.
</event>
<event>
 4    1  0.5900714E+000  0.1000000E+03  0.7546771E-02  0.1280296E+00
         21   -1    0    0  501  502  0.00000000000E+00  0.00000000000E+00  0.90607008186E+02  0.90607008186E+02  0.00000000000E+00 0. -1.
         21   -1    0    0  502  503 -0.00000000000E+00 -0.00000000000E+00 -0.85511783069E+03  0.85511783069E+03  0.00000000000E+00 0. -1.
          6    1    1    2  501    0  0.21624700861E+02  0.33147205485E+02 -0.17966686490E+02  0.17837647474E+03  0.17300000000E+03 0. -1.
         -6    1    1    2    0  503 -0.21624700861E+02 -0.33147205485E+02 -0.74654413601E+03  0.76734836413E+03  0.17300000000E+03 0. -1.
</event>
<event>
 4    1  0.5900714E+000  0.1000000E+03  0.7546771E-02  0.1280296E+00
         21   -1    0    0  501  502  0.00000000000E+00  0.00000000000E+00  0.10896088479E+04  0.10896088479E+04  0.00000000000E+00 0.  1.
         21   -1    0    0  502  503 -0.00000000000E+00 -0.00000000000E+00 -0.16736407919E+03  0.16736407919E+03  0.00000000000E+00 0.  1.
          6    1    1    2  501    0  0.10986915424E+03 -0.24862840963E+03  0.87358913117E+03  0.93111454034E+03  0.17300000000E+03 0.  1.
         -6    1    1    2    0  503 -0.10986915424E+03  0.24862840963E+03  0.48655637497E+02  0.32585838671E+03  0.17300000000E+03 0.  1.
</event>
<event>
 4    1  0.5900714E+000  0.1000000E+03  0.7546771E-02  0.1280296E+00
         21   -1    0    0  501  502  0.00000000000E+00  0.00000000000E+00  0.38632759879E+03  0.38632759879E+03  0.00000000000E+00 0.  1.
         21   -1    0    0  502  503 -0.00000000000E+00 -0.00000000000E+00 -0.35634926308E+03  0.35634926308E+03  0.00000000000E+00 0.  1.
          6    1    1    2  501    0  0.35397172115E+02 -0.93875865983E+02  0.32777075385E+03  0.38396393722E+03  0.17300000000E+03 0.  1.
         -6    1    1    2    0  503 -0.35397172115E+02  0.93875865983E+02 -0.29779241814E+03  0.35871292465E+03  0.17300000000E+03 0.  1.
</event>
<event>
 4    1  0.5900714E+000  0.1000000E+03  0.7546771E-02  0.1280296E+00
         21   -1    0    0  501  502  0.00000000000E+00  0.00000000000E+00  0.35473579769E+03  0.35473579769E+03  0.00000000000E+00 0.  1.
         21   -1    0    0  502  503 -0.00000000000E+00 -0.00000000000E+00 -0.19331994579E+03  0.19331994579E+03  0.00000000000E+00 0.  1.
          6    1    1    2  501    0  0.99767851434E+02  0.11363314376E+02 -0.96150908556E+02  0.22193860933E+03  0.17300000000E+03 0.  1.
         -6    1    1    2    0  503 -0.99767851434E+02 -0.11363314376E+02  0.25756676046E+03  0.32611713415E+03  0.17300000000E+03 0.  1.
</event>
<event>
 4    1  0.5900714E+000  0.1000000E+03  0.7546771E-02  0.1280296E+00
         21   -1    0    0  503  502  0.00000000000E+00  0.00000000000E+00  0.64340030654E+02  0.64340030654E+02  0.00000000000E+00 0. -1.
         21   -1    0    0  501  503 -0.00000000000E+00 -0.00000000000E+00 -0.58085091481E+03  0.58085091481E+03  0.00000000000E+00 0. -1.
          6    1    1    2  501    0  0.56194496748E+02 -0.16104766055E+02 -0.36413456985E+03  0.40735754554E+03  0.17300000000E+03 0. -1.
         -6    1    1    2    0  502 -0.56194496748E+02  0.16104766055E+02 -0.15237631431E+03  0.23783339992E+03  0.17300000000E+03 0. -1.
</event>
<event>
 4    1  0.5900714E+000  0.1000000E+03  0.7546771E-02  0.1280296E+00
         21   -1    0    0  503  502  0.00000000000E+00  0.00000000000E+00  0.17184588682E+04  0.17184588682E+04  0.00000000000E+00 0. -1.
         21   -1    0    0  501  503 -0.00000000000E+00 -0.00000000000E+00 -0.99863438233E+02  0.99863438233E+02  0.00000000000E+00 0. -1.
          6    1    1    2  501    0 -0.12199813366E+03  0.11559755351E+03  0.70129557284E+02  0.25118418302E+03  0.17300000000E+03 0. -1.
         -6    1    1    2    0  502  0.12199813366E+03 -0.11559755351E+03  0.15484658727E+04  0.15671381234E+04  0.17300000000E+03 0. -1.
</event>
<event>
 4    1  0.5900714E+000  0.1000000E+03  0.7546771E-02  0.1280296E+00
         21   -1    0    0  501  502  0.00000000000E+00  0.00000000000E+00  0.13731623308E+03  0.13731623308E+03  0.00000000000E+00 0. -1.
         21   -1    0    0  502  503 -0.00000000000E+00 -0.00000000000E+00 -0.47666100331E+03  0.47666100331E+03  0.00000000000E+00 0.  1.
          6    1    1    2  501    0 -0.26978486754E+02  0.51312258017E+02  0.45525609269E+02  0.18804884384E+03  0.17300000000E+03 0. -1.
         -6    1    1    2    0  503  0.26978486754E+02 -0.51312258017E+02 -0.38487037949E+03  0.42592839255E+03  0.17300000000E+03 0.  1.
</event>
<event>
 4    1  0.5900714E+000  0.1000000E+03  0.7546771E-02  0.1280296E+00
         21   -1    0    0  501  502  0.00000000000E+00  0.00000000000E+00  0.31645665988E+03  0.31645665988E+03  0.00000000000E+00 0.  1.
         21   -1    0    0  502  503 -0.00000000000E+00 -0.00000000000E+00 -0.77089598635E+03  0.77089598635E+03  0.00000000000E+00 0.  1.
          6    1    1    2  501    0  0.12875942164E+03  0.18032157241E+03  0.21981063909E+03  0.35684811222E+03  0.17300000000E+03 0.  1.
         -6    1    1    2    0  503 -0.12875942164E+03 -0.18032157241E+03 -0.67424996556E+03  0.73050453400E+03  0.17300000000E+03 0.  1.
</event>
<event>
 4    1  0.5900714E+000  0.1000000E+03  0.7546771E-02  0.1280296E+00
         21   -1    0    0  503  502  0.00000000000E+00  0.00000000000E+00  0.12017741798E+03  0.12017741798E+03  0.00000000000E+00 0. -1.
         21   -1    0    0  501  503 -0.00000000000E+00 -0.00000000000E+00 -0.97654847831E+03  0.97654847831E+03  0.00000000000E+00 0. -1.
          6    1    1    2  501    0 -0.21205383818E+03  0.19263738913E+03 -0.54531123569E+03  0.63981976973E+03  0.17300000000E+03 0. -1.
         -6    1    1    2    0  502  0.21205383818E+03 -0.19263738913E+03 -0.31105982464E+03  0.45690612655E+03  0.17300000000E+03 0. -1.
</event>
<event>
 4    1  0.5900714E+000  0.1000000E+03  0.7546771E-02  0.1280296E+00
         21   -1    0    0  503  502  0.00000000000E+00  0.00000000000E+00  0.77125610650E+03  0.77125610650E+03  0.00000000000E+00 0. -1.
         21   -1    0    0  501  503 -0.00000000000E+00 -0.00000000000E+00 -0.42016304787E+02  0.42016304787E+02  0.00000000000E+00 0. -1.
          6    1    1    2  501    0  0.39896804688E+02  0.25328524217E+02  0.32940399213E+03  0.37505903428E+03  0.17300000000E+03 0. -1.
         -6    1    1    2    0  502 -0.39896804688E+02 -0.25328524217E+02  0.39983580958E+03  0.43821337701E+03  0.17300000000E+03 0. -1.
</event>
<event>
 4    1  0.5900714E+000  0.1000000E+03  0.7546771E-02  0.1280296E+00
         21   -1    0    0  503  502  0.00000000000E+00  0.00000000000E+00  0.91750361774E+02  0.91750361774E+02  0.00000000000E+00 0. -1.
         21   -1    0    0  501  503 -0.00000000000E+00 -0.00000000000E+00 -0.40569230823E+03  0.40569230823E+03  0.00000000000E+00 0. -1.
          6    1    1    2  501    0  0.85365993343E+02  0.16054876162E+01 -0.15456410678E+03  0.24720233315E+03  0.17300000000E+03 0. -1.
         -6    1    1    2    0  502 -0.85365993343E+02 -0.16054876162E+01 -0.15937783968E+03  0.25024033686E+03  0.17300000000E+03 0. -1.
</event>
<event>
 4    1  0.5900714E+000  0.1000000E+03  0.7546771E-02  0.1280296E+00
         21   -1    0    0  503  502  0.00000000000E+00  0.00000000000E+00  0.27758989372E+04  0.27758989372E+04  0.00000000000E+00 0.  1.
         21   -1    0    0  501  503 -0.00000000000E+00 -0.00000000000E+00 -0.14234139649E+02  0.14234139649E+02  0.00000000000E+00 0.  1.
          6    1    1    2  501    0 -0.48389573307E+02 -0.50546676956E+02  0.90035198057E+03  0.91948855690E+03  0.17300000000E+03 0.  1.
         -6    1    1    2    0  502  0.48389573307E+02  0.50546676956E+02  0.18613128170E+04  0.18706445200E+04  0.17300000000E+03 0.  1.
</event>
<event>
 4    1  0.5900714E+000  0.1000000E+03  0.7546771E-02  0.1280296E+00
         21   -1    0    0  503  502  0.00000000000E+00  0.00000000000E+00  0.10160213731E+04  0.10160213731E+04  0.00000000000E+00 0.  1.
         21   -1    0    0  501  503 -0.00000000000E+00 -0.00000000000E+00 -0.64588948081E+02  0.64588948081E+02  0.00000000000E+00 0.  1.
          6    1    1    2  501    0 -0.59896513545E+02  0.76362673729E+02  0.13382542387E+03  0.23928454682E+03  0.17300000000E+03 0.  1.
         -6    1    1    2    0  502  0.59896513545E+02 -0.76362673729E+02  0.81760700113E+03  0.84132577434E+03  0.17300000000E+03 0.  1.
</event>
<event>
 4    1  0.5900714E+000  0.1000000E+03  0.7546771E-02  0.1280296E+00
         21   -1    0    0  503  502  0.00000000000E+00  0.00000000000E+00  0.71638877537E+03  0.71638877537E+03  0.00000000000E+00 0.  1.
         21   -1    0    0  501  503 -0.00000000000E+00 -0.00000000000E+00 -0.11651504012E+03  0.11651504012E+03  0.00000000000E+00 0.  1.
          6    1    1    2  501    0 -0.15615419309E+03 -0.11637214425E+03  0.11981645014E+03  0.28672563488E+03  0.17300000000E+03 0.  1.
         -6    1    1    2    0  502  0.15615419309E+03  0.11637214425E+03  0.48005728512E+03  0.54617818061E+03  0.17300000000E+03 0.  1.
</event>
<event>
 4    1  0.5900714E+000  0.1000000E+03  0.7546771E-02  0.1280296E+00
         21   -1    0    0  501  502  0.00000000000E+00  0.00000000000E+00  0.10180949873E+03  0.10180949873E+03  0.00000000000E+00 0.  1.
         21   -1    0    0  502  503 -0.00000000000E+00 -0.00000000000E+00 -0.51521604833E+03  0.51521604833E+03  0.00000000000E+00 0.  1.
          6    1    1    2  501    0  0.13104706391E+03 -0.54120906338E+02 -0.27300343884E+03  0.35293382252E+03  0.17300000000E+03 0.  1.
         -6    1    1    2    0  503 -0.13104706391E+03  0.54120906338E+02 -0.14040311076E+03  0.26409172454E+03  0.17300000000E+03 0.  1.
</event>
<event>
 4    1  0.5900714E+000  0.1000000E+03  0.7546771E-02  0.1280296E+00
         21   -1    0    0  503  502  0.00000000000E+00  0.00000000000E+00  0.30960057187E+03  0.30960057187E+03  0.00000000000E+00 0.  1.
         21   -1    0    0  501  503 -0.00000000000E+00 -0.00000000000E+00 -0.26762705125E+03  0.26762705125E+03  0.00000000000E+00 0. -1.
          6    1    1    2  501    0 -0.17985647125E+03  0.19628211953E+01 -0.12283834944E+03  0.27815546555E+03  0.17300000000E+03 0. -1.
         -6    1    1    2    0  502  0.17985647125E+03 -0.19628211953E+01  0.16481187007E+03  0.29907215757E+03  0.17300000000E+03 0.  1.
</event>
<event>
 4    1  0.5900714E+000  0.1000000E+03  0.7546771E-02  0.1280296E+00
         21   -1    0    0  501  502  0.00000000000E+00  0.00000000000E+00  0.45517861734E+03  0.45517861734E+03  0.00000000000E+00 0.  1.
         21   -1    0    0  502  503 -0.00000000000E+00 -0.00000000000E+00 -0.13644867056E+03  0.13644867056E+03  0.00000000000E+00 0. -1.
          6    1    1    2  501    0 -0.34890625233E+02  0.73955460063E+02  0.34888319667E+03  0.39791362219E+03  0.17300000000E+03 0.  1.
         -6    1    1    2    0  503  0.34890625233E+02 -0.73955460063E+02 -0.30153249895E+02  0.19371366571E+03  0.17300000000E+03 0. -1.
</event>
<event>
 4    1  0.5900714E+000  0.1000000E+03  0.7546771E-02  0.1280296E+00
         21   -1    0    0  501  502  0.00000000000E+00  0.00000000000E+00  0.13394358489E+03  0.13394358489E+03  0.00000000000E+00 0.  1.
         21   -1    0    0  502  503 -0.00000000000E+00 -0.00000000000E+00 -0.40963044062E+03  0.40963044062E+03  0.00000000000E+00 0.  1.
          6    1    1    2  501    0 -0.64756677175E+02  0.46963243414E+02  0.20142870271E+02  0.19166039939E+03  0.17300000000E+03 0. -1.
         -6    1    1    2    0  503  0.64756677175E+02 -0.46963243414E+02 -0.29582972600E+03  0.35191362613E+03  0.17300000000E+03 0. -1.
</event>
<event>
 4    1  0.5900714E+000  0.1000000E+03  0.7546771E-02  0.1280296E+00
         21   -1    0    0  501  502  0.00000000000E+00  0.00000000000E+00  0.17782125470E+03  0.17782125470E+03  0.00000000000E+00 0.  1.
         21   -1    0    0  502  503 -0.00000000000E+00 -0.00000000000E+00 -0.58434000326E+03  0.58434000326E+03  0.00000000000E+00 0.  1.
          6    1    1    2  501    0 -0.60396258971E+02  0.31965788349E+02  0.10797587482E+03  0.21507512470E+03  0.17300000000E+03 0.  1.
         -6    1    1    2    0  503  0.60396258971E+02 -0.31965788349E+02 -0.51449462337E+03  0.54708613326E+03  0.17300000000E+03 0.  1.
</event>
<event>
 4    1  0.5900714E+000  0.1000000E+03  0.7546771E-02  0.1280296E+00
         21   -1    0    0  501  502  0.00000000000E+00  0.00000000000E+00  0.49522565478E+03  0.49522565478E+03  0.00000000000E+00 0.  1.
         21   -1    0    0  502  503 -0.00000000000E+00 -0.00000000000E+00 -0.10048386111E+03  0.10048386111E+03  0.00000000000E+00 0.  1.
          6    1    1    2  501    0 -0.41303087848E+02  0.20440354653E+02  0.37505850543E+03  0.41559792548E+03  0.17300000000E+03 0.  1.
         -6    1    1    2    0  503  0.41303087848E+02 -0.20440354653E+02  0.19683288234E+02  0.18011159041E+03  0.17300000000E+03 0.  1.
</event>
<event>
 4    1  0.5900714E+000  0.1000000E+03  0.7546771E-02  0.1280296E+00
         21   -1    0    0  501  502  0.00000000000E+00  0.00000000000E+00  0.14188234346E+03  0.14188234346E+03  0.00000000000E+00 0.  1.
         21   -1    0    0  502  503 -0.00000000000E+00 -0.00000000000E+00 -0.33411396160E+03  0.33411396160E+03  0.00000000000E+00 0.  1.
          6    1    1    2  501    0 -0.39472378800E+02  0.12132060290E+03 -0.13396812188E+03  0.25328484964E+03  0.17300000000E+03 0.  1.
         -6    1    1    2    0  503  0.39472378800E+02 -0.12132060290E+03 -0.58263496267E+02  0.22271145542E+03  0.17300000000E+03 0.  1.
</event>
<event>
 4    1  0.5900714E+000  0.1000000E+03  0.7546771E-02  0.1280296E+00
         21   -1    0    0  501  502  0.00000000000E+00  0.00000000000E+00  0.49509870088E+03  0.49509870088E+03  0.00000000000E+00 0.  1.
         21   -1    0    0  502  503 -0.00000000000E+00 -0.00000000000E+00 -0.13747425957E+03  0.13747425957E+03  0.00000000000E+00 0.  1.
          6    1    1    2  501    0 -0.57585220209E+02  0.32300386244E+02  0.40161542285E+03  0.44224803042E+03  0.17300000000E+03 0.  1.
         -6    1    1    2    0  503  0.57585220209E+02 -0.32300386244E+02 -0.43990981538E+02  0.19032493004E+03  0.17300000000E+03 0.  1.
</event>
<event>
 4    1  0.5900714E+000  0.1000000E+03  0.7546771E-02  0.1280296E+00
         21   -1    0    0  501  502  0.00000000000E+00  0.00000000000E+00  0.75890730488E+02  0.75890730488E+02  0.00000000000E+00 0.  1.
         21   -1    0    0  502  503 -0.00000000000E+00 -0.00000000000E+00 -0.49585497762E+03  0.49585497762E+03  0.00000000000E+00 0.  1.
          6    1    1    2  501    0 -0.15814793089E+02  0.86249117333E+02 -0.21525007723E+03  0.28974232288E+03  0.17300000000E+03 0.  1.
         -6    1    1    2    0  503  0.15814793089E+02 -0.86249117333E+02 -0.20471416991E+03  0.28200338523E+03  0.17300000000E+03 0.  1.
</event>
<event>
 4    1  0.5900714E+000  0.1000000E+03  0.7546771E-02  0.1280296E+00
         21   -1    0    0  501  502  0.00000000000E+00  0.00000000000E+00  0.10832987599E+04  0.10832987599E+04  0.00000000000E+00 0. -1.
         21   -1    0    0  502  503 -0.00000000000E+00 -0.00000000000E+00 -0.40696086825E+02  0.40696086825E+02  0.00000000000E+00 0. -1.
          6    1    1    2  501    0  0.91349623101E+01 -0.11746418030E+03  0.56574738252E+03  0.60322498457E+03  0.17300000000E+03 0. -1.
         -6    1    1    2    0  503 -0.91349623101E+01  0.11746418030E+03  0.47685529055E+03  0.52076986214E+03  0.17300000000E+03 0. -1.
</event>
<event>
 4    1  0.5900714E+000  0.1000000E+03  0.7546771E-02  0.1280296E+00
         21   -1    0    0  501  502  0.00000000000E+00  0.00000000000E+00  0.27171834977E+03  0.27171834977E+03  0.00000000000E+00 0. -1.
         21   -1    0    0  502  503 -0.00000000000E+00 -0.00000000000E+00 -0.29958772401E+03  0.29958772401E+03  0.00000000000E+00 0. -1.
          6    1    1    2  501    0 -0.15596039954E+03  0.16413000692E+03  0.64895780369E+00  0.28494161953E+03  0.17300000000E+03 0. -1.
         -6    1    1    2    0  503  0.15596039954E+03 -0.16413000692E+03 -0.28518332044E+02  0.28636445425E+03  0.17300000000E+03 0. -1.
</event>
<event>
 4    1  0.5900714E+000  0.1000000E+03  0.7546771E-02  0.1280296E+00
         21   -1    0    0  501  502  0.00000000000E+00  0.00000000000E+00  0.13971938259E+04  0.13971938259E+04  0.00000000000E+00 0. -1.
         21   -1    0    0  502  503 -0.00000000000E+00 -0.00000000000E+00 -0.11186307045E+03  0.11186307045E+03  0.00000000000E+00 0. -1.
          6    1    1    2  501    0  0.13656032294E+03  0.16589527662E+03  0.11831442521E+04  0.12148783008E+04  0.17300000000E+03 0. -1.
         -6    1    1    2    0  503 -0.13656032294E+03 -0.16589527662E+03  0.10218650340E+03  0.29417859555E+03  0.17300000000E+03 0. -1.
</event>
<event>
 4    1  0.5900714E+000  0.1000000E+03  0.7546771E-02  0.1280296E+00
         21   -1    0    0  501  502  0.00000000000E+00  0.00000000000E+00  0.14824313426E+03  0.14824313426E+03  0.00000000000E+00 0.  1.
         21   -1    0    0  502  503 -0.00000000000E+00 -0.00000000000E+00 -0.24186924524E+03  0.24186924524E+03  0.00000000000E+00 0.  1.
          6    1    1    2  501    0  0.34615704993E+02 -0.62794509693E+02 -0.75675483009E+02  0.20198310872E+03  0.17300000000E+03 0.  1.
         -6    1    1    2    0  503 -0.34615704993E+02  0.62794509693E+02 -0.17950627967E+02  0.18812927078E+03  0.17300000000E+03 0.  1.
</event>
<event>
 4    1  0.5900714E+000  0.1000000E+03  0.7546771E-02  0.1280296E+00
         21   -1    0    0  501  502  0.00000000000E+00  0.00000000000E+00  0.41012608937E+03  0.41012608937E+03  0.00000000000E+00 0.  1.
         21   -1    0    0  502  503 -0.00000000000E+00 -0.00000000000E+00 -0.14571567801E+03  0.14571567801E+03  0.00000000000E+00 0.  1.
          6    1    1    2  501    0 -0.16808901855E+03  0.97044618090E+01  0.17601080633E+03  0.29875893071E+03  0.17300000000E+03 0.  1.
         -6    1    1    2    0  503  0.16808901855E+03 -0.97044618090E+01  0.88399605030E+02  0.25708283666E+03  0.17300000000E+03 0.  1.
</event>
<event>
 4    1  0.5900714E+000  0.1000000E+03  0.7546771E-02  0.1280296E+00
         21   -1    0    0  501  502  0.00000000000E+00  0.00000000000E+00  0.93632416086E+02  0.93632416086E+02  0.00000000000E+00 0.  1.
         21   -1    0    0  502  503 -0.00000000000E+00 -0.00000000000E+00 -0.15940078110E+04  0.15940078110E+04  0.00000000000E+00 0.  1.
          6    1    1    2  501    0  0.17456757588E+03 -0.86236957097E+01 -0.99408830337E+02  0.26525331709E+03  0.17300000000E+03 0.  1.
         -6    1    1    2    0  503 -0.17456757588E+03  0.86236957097E+01 -0.14009665646E+04  0.14223869100E+04  0.17300000000E+03 0.  1.
</event>
<event>
 4    1  0.5900714E+000  0.1000000E+03  0.7546771E-02  0.1280296E+00
         21   -1    0    0  501  502  0.00000000000E+00  0.00000000000E+00  0.30711338263E+03  0.30711338263E+03  0.00000000000E+00 0.  1.
         21   -1    0    0  502  503 -0.00000000000E+00 -0.00000000000E+00 -0.61726463613E+03  0.61726463613E+03  0.00000000000E+00 0. -1.
          6    1    1    2  501    0  0.28831491837E+02 -0.58203877286E+02  0.26342025498E+03  0.32177348708E+03  0.17300000000E+03 0. -1.
         -6    1    1    2    0  503 -0.28831491837E+02  0.58203877286E+02 -0.57357150848E+03  0.60260453168E+03  0.17300000000E+03 0.  1.
</event>
<event>
 4    1  0.5900714E+000  0.1000000E+03  0.7546771E-02  0.1280296E+00
         21   -1    0    0  501  502  0.00000000000E+00  0.00000000000E+00  0.26889756047E+03  0.26889756047E+03  0.00000000000E+00 0.  1.
         21   -1    0    0  502  503 -0.00000000000E+00 -0.00000000000E+00 -0.44824095520E+03  0.44824095520E+03  0.00000000000E+00 0. -1.
          6    1    1    2  501    0 -0.60131347722E+01 -0.72350274410E+02  0.21202998212E+03  0.28311911507E+03  0.17300000000E+03 0. -1.
         -6    1    1    2    0  503  0.60131347722E+01  0.72350274410E+02 -0.39137337685E+03  0.43401940061E+03  0.17300000000E+03 0.  1.
</event>
<event>
 4    1  0.5900714E+000  0.1000000E+03  0.7546771E-02  0.1280296E+00
         21   -1    0    0  501  502  0.00000000000E+00  0.00000000000E+00  0.11935135958E+03  0.11935135958E+03  0.00000000000E+00 0.  1.
         21   -1    0    0  502  503 -0.00000000000E+00 -0.00000000000E+00 -0.30017058879E+03  0.30017058879E+03  0.00000000000E+00 0. -1.
          6    1    1    2  501    0  0.17485510531E+02  0.66880147928E+02 -0.53353357237E+02  0.19378926181E+03  0.17300000000E+03 0. -1.
         -6    1    1    2    0  503 -0.17485510531E+02 -0.66880147928E+02 -0.12746587197E+03  0.22573268656E+03  0.17300000000E+03 0.  1.
</event>
<event>
 4    1  0.5900714E+000  0.1000000E+03  0.7546771E-02  0.1280296E+00
         21   -1    0    0  501  502  0.00000000000E+00  0.00000000000E+00  0.53849769243E+03  0.53849769243E+03  0.00000000000E+00 0.  1.
         21   -1    0    0  502  503 -0.00000000000E+00 -0.00000000000E+00 -0.26051710661E+03  0.26051710661E+03  0.00000000000E+00 0. -1.
          6    1    1    2  501    0 -0.62894990837E+02 -0.17233250728E+03  0.43440046895E+03  0.50228183360E+03  0.17300000000E+03 0. -1.
         -6    1    1    2    0  503  0.62894990837E+02  0.17233250728E+03 -0.15641988313E+03  0.29673296543E+03  0.17300000000E+03 0.  1.
</event>
<event>
 4    1  0.5900714E+000  0.1000000E+03  0.7546771E-02  0.1280296E+00
         21   -1    0    0  501  502  0.00000000000E+00  0.00000000000E+00  0.62287856799E+02  0.62287856799E+02  0.00000000000E+00 0.  1.
         21   -1    0    0  502  503 -0.00000000000E+00 -0.00000000000E+00 -0.66949349971E+03  0.66949349971E+03  0.00000000000E+00 0. -1.
          6    1    1    2  501    0  0.79358665183E+02  0.20035326160E+00 -0.43617359817E+03  0.47589310315E+03  0.17300000000E+03 0. -1.
         -6    1    1    2    0  503 -0.79358665183E+02 -0.20035326160E+00 -0.17103204474E+03  0.25588825336E+03  0.17300000000E+03 0. -1.
</event>
<event>
 4    1  0.5900714E+000  0.1000000E+03  0.7546771E-02  0.1280296E+00
         21   -1    0    0  501  502  0.00000000000E+00  0.00000000000E+00  0.69205620070E+02  0.69205620070E+02  0.00000000000E+00 0.  1.
         21   -1    0    0  502  503 -0.00000000000E+00 -0.00000000000E+00 -0.10515473043E+04  0.10515473043E+04  0.00000000000E+00 0. -1.
          6    1    1    2  501    0  0.32212742832E+02 -0.14331636648E+03 -0.18823875841E+03  0.29485601888E+03  0.17300000000E+03 0. -1.
         -6    1    1    2    0  503 -0.32212742832E+02  0.14331636648E+03 -0.79410292583E+03  0.82589690550E+03  0.17300000000E+03 0. -1.
</event>
<event>
 4    1  0.5900714E+000  0.1000000E+03  0.7546771E-02  0.1280296E+00
         21   -1    0    0  501  502  0.00000000000E+00  0.00000000000E+00  0.11518433068E+04  0.11518433068E+04  0.00000000000E+00 0.  1.
         21   -1    0    0  502  503 -0.00000000000E+00 -0.00000000000E+00 -0.49187800079E+02  0.49187800079E+02  0.00000000000E+00 0. -1.
          6    1    1    2  501    0 -0.11596257547E+03 -0.11417187410E+03  0.59082554157E+03  0.63677810603E+03  0.17300000000E+03 0. -1.
         -6    1    1    2    0  503  0.11596257547E+03  0.11417187410E+03  0.51182996513E+03  0.56425300084E+03  0.17300000000E+03 0. -1.
</event>
<event>
 4    1  0.5900714E+000  0.1000000E+03  0.7546771E-02  0.1280296E+00
         21   -1    0    0  501  502  0.00000000000E+00  0.00000000000E+00  0.18196924878E+03  0.18196924878E+03  0.00000000000E+00 0. -1.
         21   -1    0    0  502  503 -0.00000000000E+00 -0.00000000000E+00 -0.23143476162E+03  0.23143476162E+03  0.00000000000E+00 0. -1.
          6    1    1    2  501    0  0.10044186926E+03  0.42089636489E+02 -0.65772515782E+01  0.20452962338E+03  0.17300000000E+03 0. -1.
         -6    1    1    2    0  503 -0.10044186926E+03 -0.42089636489E+02 -0.42888261263E+02  0.20887438702E+03  0.17300000000E+03 0. -1.
</event>
<event>
 4    1  0.5900714E+000  0.1000000E+03  0.7546771E-02  0.1280296E+00
         21   -1    0    0  503  502  0.00000000000E+00  0.00000000000E+00  0.11844540796E+04  0.11844540796E+04  0.00000000000E+00 0.  1.
         21   -1    0    0  501  503 -0.00000000000E+00 -0.00000000000E+00 -0.41106982657E+02  0.41106982657E+02  0.00000000000E+00 0. -1.
          6    1    1    2  501    0  0.30333624405E+02  0.44165056660E+02  0.22161132907E+03  0.28620143636E+03  0.17300000000E+03 0. -1.
         -6    1    1    2    0  502 -0.30333624405E+02 -0.44165056660E+02  0.92173576784E+03  0.93935962587E+03  0.17300000000E+03 0.  1.
</event>
<event>
 4    1  0.5900714E+000  0.1000000E+03  0.7546771E-02  0.1280296E+00
         21   -1    0    0  503  502  0.00000000000E+00  0.00000000000E+00  0.75398493741E+02  0.75398493741E+02  0.00000000000E+00 0.  1.
         21   -1    0    0  501  503 -0.00000000000E+00 -0.00000000000E+00 -0.23621215255E+04  0.23621215255E+04  0.00000000000E+00 0. -1.
          6    1    1    2  501    0  0.21060136838E+03 -0.77151130727E+02 -0.20468071885E+04  0.20663140856E+04  0.17300000000E+03 0. -1.
         -6    1    1    2    0  502 -0.21060136838E+03  0.77151130727E+02 -0.23991584323E+03  0.37120593364E+03  0.17300000000E+03 0.  1.
</event>
<event>
 4    1  0.5900714E+000  0.1000000E+03  0.7546771E-02  0.1280296E+00
         21   -1    0    0  501  502  0.00000000000E+00  0.00000000000E+00  0.12638495105E+03  0.12638495105E+03  0.00000000000E+00 0. -1.
         21   -1    0    0  502  503 -0.00000000000E+00 -0.00000000000E+00 -0.30453094758E+03  0.30453094758E+03  0.00000000000E+00 0.  1.
          6    1    1    2  501    0  0.12496697623E+02  0.89069666005E+02 -0.65274867734E+02  0.20561950591E+03  0.17300000000E+03 0. -1.
         -6    1    1    2    0  503 -0.12496697623E+02 -0.89069666005E+02 -0.11287112879E+03  0.22529639271E+03  0.17300000000E+03 0.  1.
</event>
<event>
 4    1  0.5900714E+000  0.1000000E+03  0.7546771E-02  0.1280296E+00
         21   -1    0    0  501  502  0.00000000000E+00  0.00000000000E+00  0.58677411780E+03  0.58677411780E+03  0.00000000000E+00 0. -1.
         21   -1    0    0  502  503 -0.00000000000E+00 -0.00000000000E+00 -0.86497005755E+02  0.86497005755E+02  0.00000000000E+00 0.  1.
          6    1    1    2  501    0  0.90028324670E+02 -0.68750184152E+02  0.38373439672E+03  0.43590454722E+03  0.17300000000E+03 0. -1.
         -6    1    1    2    0  503 -0.90028324670E+02  0.68750184152E+02  0.11654271532E+03  0.23736657633E+03  0.17300000000E+03 0.  1.
</event>
<event>
 4    1  0.5900714E+000  0.1000000E+03  0.7546771E-02  0.1280296E+00
         21   -1    0    0  501  502  0.00000000000E+00  0.00000000000E+00  0.36822513531E+03  0.36822513531E+03  0.00000000000E+00 0. -1.
         21   -1    0    0  502  503 -0.00000000000E+00 -0.00000000000E+00 -0.21346459485E+03  0.21346459485E+03  0.00000000000E+00 0.  1.
          6    1    1    2  501    0  0.11978867101E+03  0.17184820198E+03  0.55610142238E+01  0.27173710660E+03  0.17300000000E+03 0. -1.
         -6    1    1    2    0  503 -0.11978867101E+03 -0.17184820198E+03  0.14919952623E+03  0.30995262356E+03  0.17300000000E+03 0.  1.
</event>
<event>
 4    1  0.5900714E+000  0.1000000E+03  0.7546771E-02  0.1280296E+00
         21   -1    0    0  501  502  0.00000000000E+00  0.00000000000E+00  0.12766273165E+03  0.12766273165E+03  0.00000000000E+00 0. -1.
         21   -1    0    0  502  503 -0.00000000000E+00 -0.00000000000E+00 -0.38155267489E+03  0.38155267489E+03  0.00000000000E+00 0.  1.
          6    1    1    2  501    0  0.11275864632E+03  0.74273506726E+02 -0.99890449711E+02  0.24111857677E+03  0.17300000000E+03 0. -1.
         -6    1    1    2    0  503 -0.11275864632E+03 -0.74273506726E+02 -0.15399949353E+03  0.26809682976E+03  0.17300000000E+03 0.  1.
</event>
<event>
 4    1  0.5900714E+000  0.1000000E+03  0.7546771E-02  0.1280296E+00
         21   -1    0    0  501  502  0.00000000000E+00  0.00000000000E+00  0.13476911519E+03  0.13476911519E+03  0.00000000000E+00 0. -1.
         21   -1    0    0  502  503 -0.00000000000E+00 -0.00000000000E+00 -0.57169301945E+03  0.57169301945E+03  0.00000000000E+00 0. -1.
          6    1    1    2  501    0  0.13503723285E+03 -0.56690989791E+02 -0.14577697262E+02  0.22713527211E+03  0.17300000000E+03 0. -1.
         -6    1    1    2    0  503 -0.13503723285E+03  0.56690989791E+02 -0.42234620700E+03  0.47932686253E+03  0.17300000000E+03 0. -1.
</event>
<event>
 4    1  0.5900714E+000  0.1000000E+03  0.7546771E-02  0.1280296E+00
         21   -1    0    0  503  502  0.00000000000E+00  0.00000000000E+00  0.13468627378E+03  0.13468627378E+03  0.00000000000E+00 0.  1.
         21   -1    0    0  501  503 -0.00000000000E+00 -0.00000000000E+00 -0.26926472362E+03  0.26926472362E+03  0.00000000000E+00 0.  1.
          6    1    1    2  501    0 -0.30607168617E+02 -0.68329109736E+02 -0.95976086182E+02  0.21153268099E+03  0.17300000000E+03 0.  1.
         -6    1    1    2    0  502  0.30607168617E+02  0.68329109736E+02 -0.38602363656E+02  0.19241831640E+03  0.17300000000E+03 0.  1.
</event>
<event>
 4    1  0.5900714E+000  0.1000000E+03  0.7546771E-02  0.1280296E+00
         21   -1    0    0  503  502  0.00000000000E+00  0.00000000000E+00  0.16047906500E+04  0.16047906500E+04  0.00000000000E+00 0.  1.
         21   -1    0    0  501  503 -0.00000000000E+00 -0.00000000000E+00 -0.43696207303E+02  0.43696207303E+02  0.00000000000E+00 0.  1.
          6    1    1    2  501    0  0.38230760945E+02 -0.17140867927E+03  0.47954437216E+03  0.53919785912E+03  0.17300000000E+03 0.  1.
         -6    1    1    2    0  502 -0.38230760945E+02  0.17140867927E+03  0.10815500706E+04  0.11092889982E+04  0.17300000000E+03 0.  1.
</event>
<event>
 4    1  0.5900714E+000  0.1000000E+03  0.7546771E-02  0.1280296E+00
         21   -1    0    0  503  502  0.00000000000E+00  0.00000000000E+00  0.19020450538E+03  0.19020450538E+03  0.00000000000E+00 0.  1.
         21   -1    0    0  501  503 -0.00000000000E+00 -0.00000000000E+00 -0.10258475947E+04  0.10258475947E+04  0.00000000000E+00 0.  1.
          6    1    1    2  501    0 -0.12762371428E+03  0.24421216508E+03 -0.82907504496E+03  0.89063001533E+03  0.17300000000E+03 0.  1.
         -6    1    1    2    0  502  0.12762371428E+03 -0.24421216508E+03 -0.65680443356E+01  0.32542208472E+03  0.17300000000E+03 0.  1.
</event>
<event>
 4    1  0.5900714E+000  0.1000000E+03  0.7546771E-02  0.1280296E+00
         21   -1    0    0  501  502  0.00000000000E+00  0.00000000000E+00  0.12981579306E+03  0.12981579306E+03  0.00000000000E+00 0. -1.
         21   -1    0    0  502  503 -0.00000000000E+00 -0.00000000000E+00 -0.60964606129E+03  0.60964606129E+03  0.00000000000E+00 0. -1.
          6    1    1    2  501    0 -0.61274335280E+02  0.14145914352E+03 -0.30260100981E+02  0.23368762732E+03  0.17300000000E+03 0.  1.
         -6    1    1    2    0  503  0.61274335280E+02 -0.14145914352E+03 -0.44957016724E+03  0.50577422703E+03  0.17300000000E+03 0.  1.
</event>
<event>
 4    1  0.5900714E+000  0.1000000E+03  0.7546771E-02  0.1280296E+00
         21   -1    0    0  501  502  0.00000000000E+00  0.00000000000E+00  0.18720781125E+03  0.18720781125E+03  0.00000000000E+00 0. -1.
         21   -1    0    0  502  503 -0.00000000000E+00 -0.00000000000E+00 -0.19511273020E+03  0.19511273020E+03  0.00000000000E+00 0. -1.
          6    1    1    2  501    0 -0.80921290761E+02 -0.67192051495E+01 -0.18967462519E+01  0.19111776648E+03  0.17300000000E+03 0.  1.
         -6    1    1    2    0  503  0.80921290761E+02  0.67192051495E+01 -0.60081726980E+01  0.19120277497E+03  0.17300000000E+03 0.  1.
</event>
<event>
 4    1  0.5900714E+000  0.1000000E+03  0.7546771E-02  0.1280296E+00
         21   -1    0    0  501  502  0.00000000000E+00  0.00000000000E+00  0.56502696809E+03  0.56502696809E+03  0.00000000000E+00 0. -1.
         21   -1    0    0  502  503 -0.00000000000E+00 -0.00000000000E+00 -0.27644118513E+03  0.27644118513E+03  0.00000000000E+00 0. -1.
          6    1    1    2  501    0 -0.27810871610E+03 -0.14924846023E+03  0.31807512387E+03  0.48033357709E+03  0.17300000000E+03 0.  1.
         -6    1    1    2    0  503  0.27810871610E+03  0.14924846023E+03 -0.29489340913E+02  0.36113457613E+03  0.17300000000E+03 0.  1.
</event>
<event>
 4    1  0.5900714E+000  0.1000000E+03  0.7546771E-02  0.1280296E+00
         21   -1    0    0  503  502  0.00000000000E+00  0.00000000000E+00  0.32909852998E+03  0.32909852998E+03  0.00000000000E+00 0.  1.
         21   -1    0    0  501  503 -0.00000000000E+00 -0.00000000000E+00 -0.14119482727E+03  0.14119482727E+03  0.00000000000E+00 0. -1.
          6    1    1    2  501    0 -0.95044728505E+01  0.11626014250E+03  0.15301182344E+03  0.25874383828E+03  0.17300000000E+03 0. -1.
         -6    1    1    2    0  502  0.95044728505E+01 -0.11626014250E+03  0.34891879274E+02  0.21154951897E+03  0.17300000000E+03 0.  1.
</event>
<event>
 4    1  0.5900714E+000  0.1000000E+03  0.7546771E-02  0.1280296E+00
         21   -1    0    0  501  502  0.00000000000E+00  0.00000000000E+00  0.82537691790E+03  0.82537691790E+03  0.00000000000E+00 0. -1.
         21   -1    0    0  502  503 -0.00000000000E+00 -0.00000000000E+00 -0.61951141020E+02  0.61951141020E+02  0.00000000000E+00 0. -1.
          6    1    1    2  501    0  0.10002995732E+03 -0.95312958361E+02  0.47191224637E+03  0.52126837681E+03  0.17300000000E+03 0. -1.
         -6    1    1    2    0  503 -0.10002995732E+03  0.95312958361E+02  0.29151353051E+03  0.36605968210E+03  0.17300000000E+03 0. -1.
</event>
<event>
 4    1  0.5900714E+000  0.1000000E+03  0.7546771E-02  0.1280296E+00
         21   -1    0    0  501  502  0.00000000000E+00  0.00000000000E+00  0.11001464410E+02  0.11001464410E+02  0.00000000000E+00 0. -1.
         21   -1    0    0  502  503 -0.00000000000E+00 -0.00000000000E+00 -0.28965421257E+04  0.28965421257E+04  0.00000000000E+00 0. -1.
          6    1    1    2  501    0  0.25991155783E+02 -0.72929320447E+01 -0.11596634319E+04  0.11728073168E+04  0.17300000000E+03 0. -1.
         -6    1    1    2    0  503 -0.25991155783E+02  0.72929320447E+01 -0.17258772294E+04  0.17347362733E+04  0.17300000000E+03 0. -1.
</event>
<event>
 4    1  0.5900714E+000  0.1000000E+03  0.7546771E-02  0.1280296E+00
         21   -1    0    0  501  502  0.00000000000E+00  0.00000000000E+00  0.48001777314E+02  0.48001777314E+02  0.00000000000E+00 0. -1.
         21   -1    0    0  502  503 -0.00000000000E+00 -0.00000000000E+00 -0.96758560074E+03  0.96758560074E+03  0.00000000000E+00 0. -1.
          6    1    1    2  501    0 -0.77088378067E+02 -0.18508366103E+02 -0.22145747457E+03  0.29198902495E+03  0.17300000000E+03 0. -1.
         -6    1    1    2    0  503  0.77088378067E+02  0.18508366103E+02 -0.69812634886E+03  0.72359835310E+03  0.17300000000E+03 0. -1.
</event>
<event>
 4    1  0.5900714E+000  0.1000000E+03  0.7546771E-02  0.1280296E+00
         21   -1    0    0  501  502  0.00000000000E+00  0.00000000000E+00  0.40763415155E+03  0.40763415155E+03  0.00000000000E+00 0. -1.
         21   -1    0    0  502  503 -0.00000000000E+00 -0.00000000000E+00 -0.12541604337E+03  0.12541604337E+03  0.00000000000E+00 0. -1.
          6    1    1    2  501    0  0.41351518448E+01  0.45047587617E+01  0.31256721060E+03  0.35730190802E+03  0.17300000000E+03 0. -1.
         -6    1    1    2    0  503 -0.41351518448E+01 -0.45047587617E+01 -0.30349102424E+02  0.17574828691E+03  0.17300000000E+03 0. -1.
</event>
<event>
 4    1  0.5900714E+000  0.1000000E+03  0.7546771E-02  0.1280296E+00
         21   -1    0    0  503  502  0.00000000000E+00  0.00000000000E+00  0.36252064649E+02  0.36252064649E+02  0.00000000000E+00 0. -1.
         21   -1    0    0  501  503 -0.00000000000E+00 -0.00000000000E+00 -0.20939463988E+04  0.20939463988E+04  0.00000000000E+00 0. -1.
          6    1    1    2  501    0 -0.11017250729E+03  0.10659699880E+03 -0.16084611660E+04  0.16249852996E+04  0.17300000000E+03 0. -1.
         -6    1    1    2    0  502  0.11017250729E+03 -0.10659699880E+03 -0.44923316812E+03  0.50521316378E+03  0.17300000000E+03 0. -1.
</event>
<event>
 4    1  0.5900714E+000  0.1000000E+03  0.7546771E-02  0.1280296E+00
         21   -1    0    0  503  502  0.00000000000E+00  0.00000000000E+00  0.18155347833E+03  0.18155347833E+03  0.00000000000E+00 0. -1.
         21   -1    0    0  501  503 -0.00000000000E+00 -0.00000000000E+00 -0.71594538290E+03  0.71594538290E+03  0.00000000000E+00 0. -1.
          6    1    1    2  501    0 -0.17765188343E+03 -0.18632625849E+01 -0.59293839179E+03  0.64270413091E+03  0.17300000000E+03 0. -1.
         -6    1    1    2    0  502  0.17765188343E+03  0.18632625849E+01  0.58546487215E+02  0.25479473032E+03  0.17300000000E+03 0. -1.
</event>
<event>
 4    1  0.5900714E+000  0.1000000E+03  0.7546771E-02  0.1280296E+00
         21   -1    0    0  501  502  0.00000000000E+00  0.00000000000E+00  0.55821804151E+02  0.55821804151E+02  0.00000000000E+00 0.  1.
         21   -1    0    0  502  503 -0.00000000000E+00 -0.00000000000E+00 -0.84844821694E+03  0.84844821694E+03  0.00000000000E+00 0. -1.
          6    1    1    2  501    0 -0.55421025287E+02 -0.54100544096E+01 -0.14759405513E+03  0.23412339448E+03  0.17300000000E+03 0.  1.
         -6    1    1    2    0  503  0.55421025287E+02  0.54100544096E+01 -0.64503235766E+03  0.67014662661E+03  0.17300000000E+03 0. -1.
</event>
<event>
 4    1  0.5900714E+000  0.1000000E+03  0.7546771E-02  0.1280296E+00
         21   -1    0    0  501  502  0.00000000000E+00  0.00000000000E+00  0.34247810143E+02  0.34247810143E+02  0.00000000000E+00 0.  1.
         21   -1    0    0  502  503 -0.00000000000E+00 -0.00000000000E+00 -0.11649021129E+04  0.11649021129E+04  0.00000000000E+00 0. -1.
          6    1    1    2  501    0  0.45175252396E+02 -0.81704812639E+02 -0.45920300929E+03  0.49951264606E+03  0.17300000000E+03 0.  1.
         -6    1    1    2    0  503 -0.45175252396E+02  0.81704812639E+02 -0.67145129342E+03  0.69963727693E+03  0.17300000000E+03 0. -1.
</event>
<event>
 4    1  0.5900714E+000  0.1000000E+03  0.7546771E-02  0.1280296E+00
         21   -1    0    0  503  502  0.00000000000E+00  0.00000000000E+00  0.10968036264E+04  0.10968036264E+04  0.00000000000E+00 0. -1.
         21   -1    0    0  501  503 -0.00000000000E+00 -0.00000000000E+00 -0.59596853620E+02  0.59596853620E+02  0.00000000000E+00 0. -1.
          6    1    1    2  501    0  0.10411272750E+03 -0.14390516567E+02  0.16541005248E+03  0.26141161500E+03  0.17300000000E+03 0. -1.
         -6    1    1    2    0  502 -0.10411272750E+03  0.14390516567E+02  0.87179672033E+03  0.89498886505E+03  0.17300000000E+03 0. -1.
</event>
<event>
 4    1  0.5900714E+000  0.1000000E+03  0.7546771E-02  0.1280296E+00
         21   -1    0    0  503  502  0.00000000000E+00  0.00000000000E+00  0.98430015428E+03  0.98430015428E+03  0.00000000000E+00 0. -1.
         21   -1    0    0  501  503 -0.00000000000E+00 -0.00000000000E+00 -0.50069811763E+02  0.50069811763E+02  0.00000000000E+00 0. -1.
          6    1    1    2  501    0 -0.17298325114E+02 -0.40714366295E+02  0.15982992152E+03  0.23964869182E+03  0.17300000000E+03 0. -1.
         -6    1    1    2    0  502  0.17298325114E+02  0.40714366295E+02  0.77440042099E+03  0.79472127423E+03  0.17300000000E+03 0. -1.
</event>
<event>
 4    1  0.5900714E+000  0.1000000E+03  0.7546771E-02  0.1280296E+00
         21   -1    0    0  503  502  0.00000000000E+00  0.00000000000E+00  0.82693047705E+02  0.82693047705E+02  0.00000000000E+00 0. -1.
         21   -1    0    0  501  503 -0.00000000000E+00 -0.00000000000E+00 -0.45279600539E+03  0.45279600539E+03  0.00000000000E+00 0. -1.
          6    1    1    2  501    0  0.70080634263E+02  0.21730727255E+02 -0.24891926813E+03  0.31188671317E+03  0.17300000000E+03 0. -1.
         -6    1    1    2    0  502 -0.70080634263E+02 -0.21730727255E+02 -0.12118368956E+03  0.22360233993E+03  0.17300000000E+03 0. -1.
</event>
<event>
 4    1  0.5900714E+000  0.1000000E+03  0.7546771E-02  0.1280296E+00
         21   -1    0    0  503  502  0.00000000000E+00  0.00000000000E+00  0.97282783331E+02  0.97282783331E+02  0.00000000000E+00 0. -1.
         21   -1    0    0  501  503 -0.00000000000E+00 -0.00000000000E+00 -0.35170108564E+03  0.35170108564E+03  0.00000000000E+00 0. -1.
          6    1    1    2  501    0  0.40375584826E+02  0.48481287345E+02 -0.14839910671E+03  0.23649929798E+03  0.17300000000E+03 0. -1.
         -6    1    1    2    0  502 -0.40375584826E+02 -0.48481287345E+02 -0.10601919560E+03  0.21248457099E+03  0.17300000000E+03 0. -1.
</event>
<event>
 4    1  0.5900714E+000  0.1000000E+03  0.7546771E-02  0.1280296E+00
         21   -1    0    0  503  502  0.00000000000E+00  0.00000000000E+00  0.14313399973E+04  0.14313399973E+04  0.00000000000E+00 0. -1.
         21   -1    0    0  501  503 -0.00000000000E+00 -0.00000000000E+00 -0.71544008933E+02  0.71544008933E+02  0.00000000000E+00 0. -1.
          6    1    1    2  501    0 -0.55171618312E+02 -0.33757764169E+02  0.66248838416E+02  0.19621774308E+03  0.17300000000E+03 0. -1.
         -6    1    1    2    0  502  0.55171618312E+02  0.33757764169E+02  0.12935471499E+04  0.13066662631E+04  0.17300000000E+03 0. -1.
</event>
<event>
 4    1  0.5900714E+000  0.1000000E+03  0.7546771E-02  0.1280296E+00
         21   -1    0    0  503  502  0.00000000000E+00  0.00000000000E+00  0.48272276823E+02  0.48272276823E+02  0.00000000000E+00 0. -1.
         21   -1    0    0  501  503 -0.00000000000E+00 -0.00000000000E+00 -0.76474125429E+03  0.76474125429E+03  0.00000000000E+00 0. -1.
          6    1    1    2  501    0 -0.45878773408E+02 -0.55588064300E+02 -0.44779557110E+03  0.48543255787E+03  0.17300000000E+03 0. -1.
         -6    1    1    2    0  502  0.45878773408E+02  0.55588064300E+02 -0.26867340636E+03  0.32758097324E+03  0.17300000000E+03 0. -1.
</event>
<event>
 4    1  0.5900714E+000  0.1000000E+03  0.7546771E-02  0.1280296E+00
         21   -1    0    0  503  502  0.00000000000E+00  0.00000000000E+00  0.38120265923E+02  0.38120265923E+02  0.00000000000E+00 0.  1.
         21   -1    0    0  501  503 -0.00000000000E+00 -0.00000000000E+00 -0.11576284252E+04  0.11576284252E+04  0.00000000000E+00 0. -1.
          6    1    1    2  501    0 -0.11593060237E+03  0.53793590351E+01 -0.63671737837E+03  0.66993049042E+03  0.17300000000E+03 0. -1.
         -6    1    1    2    0  502  0.11593060237E+03 -0.53793590351E+01 -0.48279078092E+03  0.52581820073E+03  0.17300000000E+03 0.  1.
</event>
<event>
 4    1  0.5900714E+000  0.1000000E+03  0.7546771E-02  0.1280296E+00
         21   -1    0    0  503  502  0.00000000000E+00  0.00000000000E+00  0.89155937472E+03  0.89155937472E+03  0.00000000000E+00 0.  1.
         21   -1    0    0  501  503 -0.00000000000E+00 -0.00000000000E+00 -0.84957139818E+02  0.84957139818E+02  0.00000000000E+00 0. -1.
          6    1    1    2  501    0 -0.13126198847E+03 -0.14492525321E+03  0.24882018514E+03  0.36065707143E+03  0.17300000000E+03 0. -1.
         -6    1    1    2    0  502  0.13126198847E+03  0.14492525321E+03  0.55778204976E+03  0.61585944311E+03  0.17300000000E+03 0.  1.
</event>
<event>
 4    1  0.5900714E+000  0.1000000E+03  0.7546771E-02  0.1280296E+00
         21   -1    0    0  503  502  0.00000000000E+00  0.00000000000E+00  0.27660574987E+03  0.27660574987E+03  0.00000000000E+00 0.  1.
         21   -1    0    0  501  503 -0.00000000000E+00 -0.00000000000E+00 -0.50292624362E+03  0.50292624362E+03  0.00000000000E+00 0. -1.
          6    1    1    2  501    0  0.33720648155E+02 -0.30534341347E+03  0.14020774764E+02  0.35284169877E+03  0.17300000000E+03 0. -1.
         -6    1    1    2    0  502 -0.33720648155E+02  0.30534341347E+03 -0.24034126851E+03  0.42669029472E+03  0.17300000000E+03 0.  1.
</event>
<event>
 4    1  0.5900714E+000  0.1000000E+03  0.7546771E-02  0.1280296E+00
         21   -1    0    0  501  502  0.00000000000E+00  0.00000000000E+00  0.59021148839E+03  0.59021148839E+03  0.00000000000E+00 0.  1.
         21   -1    0    0  502  503 -0.00000000000E+00 -0.00000000000E+00 -0.72337021536E+02  0.72337021536E+02  0.00000000000E+00 0.  1.
          6    1    1    2  501    0 -0.27972526253E+02  0.10931679094E+03  0.26807976325E+03  0.33842042266E+03  0.17300000000E+03 0.  1.
         -6    1    1    2    0  503  0.27972526253E+02 -0.10931679094E+03  0.24979470360E+03  0.32412808726E+03  0.17300000000E+03 0.  1.
</event>
<event>
 4    1  0.5900714E+000  0.1000000E+03  0.7546771E-02  0.1280296E+00
         21   -1    0    0  501  502  0.00000000000E+00  0.00000000000E+00  0.90528501686E+03  0.90528501686E+03  0.00000000000E+00 0.  1.
         21   -1    0    0  502  503 -0.00000000000E+00 -0.00000000000E+00 -0.65335224613E+02  0.65335224613E+02  0.00000000000E+00 0. -1.
          6    1    1    2  501    0 -0.61233358477E+02  0.40848429656E+02  0.72782576614E+03  0.75171634560E+03  0.17300000000E+03 0.  1.
         -6    1    1    2    0  503  0.61233358477E+02 -0.40848429656E+02  0.11212402611E+03  0.21890389587E+03  0.17300000000E+03 0. -1.
</event>
<event>
 4    1  0.5900714E+000  0.1000000E+03  0.7546771E-02  0.1280296E+00
         21   -1    0    0  501  502  0.00000000000E+00  0.00000000000E+00  0.10751026511E+03  0.10751026511E+03  0.00000000000E+00 0.  1.
         21   -1    0    0  502  503 -0.00000000000E+00 -0.00000000000E+00 -0.54514150526E+03  0.54514150526E+03  0.00000000000E+00 0. -1.
          6    1    1    2  501    0  0.13264410889E+03  0.82470265852E+02 -0.13059471867E+03  0.26716995512E+03  0.17300000000E+03 0.  1.
         -6    1    1    2    0  503 -0.13264410889E+03 -0.82470265852E+02 -0.30703652148E+03  0.38548181526E+03  0.17300000000E+03 0. -1.
</event>
<event>
 4    1  0.5900714E+000  0.1000000E+03  0.7546771E-02  0.1280296E+00
         21   -1    0    0  501  502  0.00000000000E+00  0.00000000000E+00  0.45739325439E+03  0.45739325439E+03  0.00000000000E+00 0.  1.
         21   -1    0    0  502  503 -0.00000000000E+00 -0.00000000000E+00 -0.34688135401E+03  0.34688135401E+03  0.00000000000E+00 0. -1.
          6    1    1    2  501    0  0.15166809472E+03 -0.32371296336E+03  0.86190810980E+02  0.40638792981E+03  0.17300000000E+03 0.  1.
         -6    1    1    2    0  503 -0.15166809472E+03  0.32371296336E+03  0.24321089398E+02  0.39788667858E+03  0.17300000000E+03 0. -1.
</event>
<event>
 4    1  0.5900714E+000  0.1000000E+03  0.7546771E-02  0.1280296E+00
         21   -1    0    0  501  502  0.00000000000E+00  0.00000000000E+00  0.18650576719E+03  0.18650576719E+03  0.00000000000E+00 0.  1.
         21   -1    0    0  502  503 -0.00000000000E+00 -0.00000000000E+00 -0.56386827493E+03  0.56386827493E+03  0.00000000000E+00 0. -1.
          6    1    1    2  501    0  0.66667943713E+01  0.86559592911E+01  0.12840686966E+03  0.21572365645E+03  0.17300000000E+03 0.  1.
         -6    1    1    2    0  503 -0.66667943713E+01 -0.86559592911E+01 -0.50576937740E+03  0.53465038567E+03  0.17300000000E+03 0. -1.
</event>
<event>
 4    1  0.5900714E+000  0.1000000E+03  0.7546771E-02  0.1280296E+00
         21   -1    0    0  501  502  0.00000000000E+00  0.00000000000E+00  0.76410500475E+03  0.76410500475E+03  0.00000000000E+00 0.  1.
         21   -1    0    0  502  503 -0.00000000000E+00 -0.00000000000E+00 -0.58025881567E+02  0.58025881567E+02  0.00000000000E+00 0. -1.
          6    1    1    2  501    0 -0.11185406055E+03  0.34929339227E+02  0.30222703132E+03  0.36742559528E+03  0.17300000000E+03 0.  1.
         -6    1    1    2    0  503  0.11185406055E+03 -0.34929339227E+02  0.40385209186E+03  0.45470529104E+03  0.17300000000E+03 0. -1.
</event>
<event>
 4    1  0.5900714E+000  0.1000000E+03  0.7546771E-02  0.1280296E+00
         21   -1    0    0  503  502  0.00000000000E+00  0.00000000000E+00  0.17662672459E+03  0.17662672459E+03  0.00000000000E+00 0. -1.
         21   -1    0    0  501  503 -0.00000000000E+00 -0.00000000000E+00 -0.28401461458E+03  0.28401461458E+03  0.00000000000E+00 0. -1.
          6    1    1    2  501    0 -0.11584554275E+03  0.51012755237E+02 -0.12044132491E+03  0.24588127972E+03  0.17300000000E+03 0. -1.
         -6    1    1    2    0  502  0.11584554275E+03 -0.51012755237E+02  0.13053434912E+02  0.21476005945E+03  0.17300000000E+03 0. -1.
</event>
<event>
 4    1  0.5900714E+000  0.1000000E+03  0.7546771E-02  0.1280296E+00
         21   -1    0    0  503  502  0.00000000000E+00  0.00000000000E+00  0.35064791709E+03  0.35064791709E+03  0.00000000000E+00 0. -1.
         21   -1    0    0  501  503 -0.00000000000E+00 -0.00000000000E+00 -0.33009491475E+03  0.33009491475E+03  0.00000000000E+00 0. -1.
          6    1    1    2  501    0  0.24123451961E+03 -0.13173512280E+03 -0.91110028423E+02  0.33731035162E+03  0.17300000000E+03 0. -1.
         -6    1    1    2    0  502 -0.24123451961E+03  0.13173512280E+03  0.11166303076E+03  0.34343248022E+03  0.17300000000E+03 0. -1.
</event>
<event>
 4    1  0.5900714E+000  0.1000000E+03  0.7546771E-02  0.1280296E+00
         21   -1    0    0  503  502  0.00000000000E+00  0.00000000000E+00  0.14263770121E+04  0.14263770121E+04  0.00000000000E+00 0. -1.
         21   -1    0    0  501  503 -0.00000000000E+00 -0.00000000000E+00 -0.66667168367E+02  0.66667168367E+02  0.00000000000E+00 0. -1.
          6    1    1    2  501    0  0.12720709011E+03  0.33644337063E+02  0.15030104452E+03  0.26425932183E+03  0.17300000000E+03 0. -1.
         -6    1    1    2    0  502 -0.12720709011E+03 -0.33644337063E+02  0.12094087992E+04  0.12287848586E+04  0.17300000000E+03 0. -1.
</event>
<event>
 4    1  0.5900714E+000  0.1000000E+03  0.7546771E-02  0.1280296E+00
         21   -1    0    0  503  502  0.00000000000E+00  0.00000000000E+00  0.33806925583E+03  0.33806925583E+03  0.00000000000E+00 0. -1.
         21   -1    0    0  501  503 -0.00000000000E+00 -0.00000000000E+00 -0.20416000232E+03  0.20416000232E+03  0.00000000000E+00 0. -1.
          6    1    1    2  501    0  0.67997127143E+02 -0.78673946226E+02 -0.10658125562E+03  0.22825810646E+03  0.17300000000E+03 0. -1.
         -6    1    1    2    0  502 -0.67997127143E+02  0.78673946226E+02  0.24049050913E+03  0.31397115169E+03  0.17300000000E+03 0. -1.
</event>
<event>
 4    1  0.5900714E+000  0.1000000E+03  0.7546771E-02  0.1280296E+00
         21   -1    0    0  503  502  0.00000000000E+00  0.00000000000E+00  0.10089017748E+04  0.10089017748E+04  0.00000000000E+00 0. -1.
         21   -1    0    0  501  503 -0.00000000000E+00 -0.00000000000E+00 -0.10832695345E+03  0.10832695345E+03  0.00000000000E+00 0.  1.
          6    1    1    2  501    0  0.18852389701E+03  0.20194728675E+03  0.54342692051E+03  0.63369218419E+03  0.17300000000E+03 0. -1.
         -6    1    1    2    0  502 -0.18852389701E+03 -0.20194728675E+03  0.35714790085E+03  0.48353654407E+03  0.17300000000E+03 0.  1.
</event>
<event>
 4    1  0.5900714E+000  0.1000000E+03  0.7546771E-02  0.1280296E+00
         21   -1    0    0  503  502  0.00000000000E+00  0.00000000000E+00  0.94831507715E+03  0.94831507715E+03  0.00000000000E+00 0. -1.
         21   -1    0    0  501  503 -0.00000000000E+00 -0.00000000000E+00 -0.48616167966E+02  0.48616167966E+02  0.00000000000E+00 0.  1.
          6    1    1    2  501    0  0.27544388365E+02 -0.33459622261E+02  0.17227537254E+03  0.24796379501E+03  0.17300000000E+03 0. -1.
         -6    1    1    2    0  502 -0.27544388365E+02  0.33459622261E+02  0.72742353664E+03  0.74896745010E+03  0.17300000000E+03 0.  1.
</event>
<event>
 4    1  0.5900714E+000  0.1000000E+03  0.7546771E-02  0.1280296E+00
         21   -1    0    0  503  502  0.00000000000E+00  0.00000000000E+00  0.50703603211E+03  0.50703603211E+03  0.00000000000E+00 0. -1.
         21   -1    0    0  501  503 -0.00000000000E+00 -0.00000000000E+00 -0.10870567362E+03  0.10870567362E+03  0.00000000000E+00 0.  1.
          6    1    1    2  501    0 -0.77182861470E+02  0.34187521071E+02  0.22921096547E+02  0.19385653811E+03  0.17300000000E+03 0.  1.
         -6    1    1    2    0  502  0.77182861470E+02 -0.34187521071E+02  0.37540926195E+03  0.42188516762E+03  0.17300000000E+03 0. -1.
</event>
<event>
 4    1  0.5900714E+000  0.1000000E+03  0.7546771E-02  0.1280296E+00
         21   -1    0    0  503  502  0.00000000000E+00  0.00000000000E+00  0.35515367940E+03  0.35515367940E+03  0.00000000000E+00 0. -1.
         21   -1    0    0  501  503 -0.00000000000E+00 -0.00000000000E+00 -0.15745185471E+03  0.15745185471E+03  0.00000000000E+00 0.  1.
          6    1    1    2  501    0 -0.65344261592E+02 -0.52565893011E+02 -0.50381260938E+02  0.19874686686E+03  0.17300000000E+03 0.  1.
         -6    1    1    2    0  502  0.65344261592E+02  0.52565893011E+02  0.24808308563E+03  0.31385866725E+03  0.17300000000E+03 0. -1.
</event>
<event>
 4    1  0.5900714E+000  0.1000000E+03  0.7546771E-02  0.1280296E+00
         21   -1    0    0  503  502  0.00000000000E+00  0.00000000000E+00  0.17715858341E+03  0.17715858341E+03  0.00000000000E+00 0. -1.
         21   -1    0    0  501  503 -0.00000000000E+00 -0.00000000000E+00 -0.23332683724E+03  0.23332683724E+03  0.00000000000E+00 0. -1.
          6    1    1    2  501    0 -0.20819909613E+02 -0.10289758271E+03 -0.47903961830E+02  0.20795473239E+03  0.17300000000E+03 0. -1.
         -6    1    1    2    0  502  0.20819909613E+02  0.10289758271E+03 -0.82642919976E+01  0.20253068826E+03  0.17300000000E+03 0. -1.
</event>
<event>
 4    1  0.5900714E+000  0.1000000E+03  0.7546771E-02  0.1280296E+00
         21   -1    0    0  503  502  0.00000000000E+00  0.00000000000E+00  0.56152378614E+03  0.56152378614E+03  0.00000000000E+00 0. -1.
         21   -1    0    0  501  503 -0.00000000000E+00 -0.00000000000E+00 -0.95548907105E+02  0.95548907105E+02  0.00000000000E+00 0. -1.
          6    1    1    2  501    0  0.22171408772E+02  0.14870295021E+03  0.18552331218E+03  0.29487630988E+03  0.17300000000E+03 0. -1.
         -6    1    1    2    0  502 -0.22171408772E+02 -0.14870295021E+03  0.28045156686E+03  0.36219638336E+03  0.17300000000E+03 0. -1.
</event>
<event>
 4    1  0.5900714E+000  0.1000000E+03  0.7546771E-02  0.1280296E+00
         21   -1    0    0  503  502  0.00000000000E+00  0.00000000000E+00  0.86136570754E+02  0.86136570754E+02  0.00000000000E+00 0. -1.
         21   -1    0    0  501  503 -0.00000000000E+00 -0.00000000000E+00 -0.68205580052E+03  0.68205580052E+03  0.00000000000E+00 0. -1.
          6    1    1    2  501    0 -0.14624800972E+03  0.10468462200E+02 -0.43356507336E+03  0.48929106050E+03  0.17300000000E+03 0. -1.
         -6    1    1    2    0  502  0.14624800972E+03 -0.10468462200E+02 -0.16235415641E+03  0.27890131078E+03  0.17300000000E+03 0. -1.
</event>
<event>
 4    1  0.5900714E+000  0.1000000E+03  0.7546771E-02  0.1280296E+00
         21   -1    0    0  501  502  0.00000000000E+00  0.00000000000E+00  0.11485032311E+04  0.11485032311E+04  0.00000000000E+00 0.  1.
         21   -1    0    0  502  503 -0.00000000000E+00 -0.00000000000E+00 -0.32811369583E+02  0.32811369583E+02  0.00000000000E+00 0.  1.
          6    1    1    2  501    0  0.61233692755E+01 -0.35636048693E+02  0.80216328738E+03  0.82140268032E+03  0.17300000000E+03 0.  1.
         -6    1    1    2    0  503 -0.61233692755E+01  0.35636048693E+02  0.31352857414E+03  0.35991192036E+03  0.17300000000E+03 0.  1.
</event>
<event>
 4    1  0.5900714E+000  0.1000000E+03  0.7546771E-02  0.1280296E+00
         21   -1    0    0  501  502  0.00000000000E+00  0.00000000000E+00  0.57360608533E+02  0.57360608533E+02  0.00000000000E+00 0.  1.
         21   -1    0    0  502  503 -0.00000000000E+00 -0.00000000000E+00 -0.56344933669E+03  0.56344933669E+03  0.00000000000E+00 0. -1.
          6    1    1    2  501    0 -0.34652061352E+01  0.15129941710E+02 -0.17298707742E+03  0.24514169727E+03  0.17300000000E+03 0.  1.
         -6    1    1    2    0  503  0.34652061352E+01 -0.15129941710E+02 -0.33310165074E+03  0.37566824795E+03  0.17300000000E+03 0. -1.
</event>
<event>
 4    1  0.5900714E+000  0.1000000E+03  0.7546771E-02  0.1280296E+00
         21   -1    0    0  501  502  0.00000000000E+00  0.00000000000E+00  0.85888501076E+02  0.85888501076E+02  0.00000000000E+00 0.  1.
         21   -1    0    0  502  503 -0.00000000000E+00 -0.00000000000E+00 -0.35381433730E+03  0.35381433730E+03  0.00000000000E+00 0. -1.
          6    1    1    2  501    0  0.20252725192E+02 -0.46638367147E+01 -0.14059562833E+03  0.22389295424E+03  0.17300000000E+03 0.  1.
         -6    1    1    2    0  503 -0.20252725192E+02  0.46638367147E+01 -0.12733020789E+03  0.21580988414E+03  0.17300000000E+03 0. -1.
</event>
<event>
 4    1  0.5900714E+000  0.1000000E+03  0.7546771E-02  0.1280296E+00
         21   -1    0    0  503  502  0.00000000000E+00  0.00000000000E+00  0.11960983332E+03  0.11960983332E+03  0.00000000000E+00 0. -1.
         21   -1    0    0  501  503 -0.00000000000E+00 -0.00000000000E+00 -0.10956219527E+04  0.10956219527E+04  0.00000000000E+00 0. -1.
          6    1    1    2  501    0 -0.65106341965E+02 -0.65309211599E+02 -0.99880937982E+03  0.10178670375E+04  0.17300000000E+03 0. -1.
         -6    1    1    2    0  502  0.65106341965E+02  0.65309211599E+02  0.22797260394E+02  0.19736474854E+03  0.17300000000E+03 0. -1.
</event>
<event>
 4    1  0.5900714E+000  0.1000000E+03  0.7546771E-02  0.1280296E+00
         21   -1    0    0  503  502  0.00000000000E+00  0.00000000000E+00  0.56365624453E+02  0.56365624453E+02  0.00000000000E+00 0. -1.
         21   -1    0    0  501  503 -0.00000000000E+00 -0.00000000000E+00 -0.78429717427E+03  0.78429717427E+03  0.00000000000E+00 0. -1.
          6    1    1    2  501    0 -0.75562499040E+02 -0.87314909483E+02 -0.30251635221E+03  0.36712222493E+03  0.17300000000E+03 0. -1.
         -6    1    1    2    0  502  0.75562499040E+02  0.87314909483E+02 -0.42541519760E+03  0.47354057379E+03  0.17300000000E+03 0. -1.
</event>
<event>
 4    1  0.5900714E+000  0.1000000E+03  0.7546771E-02  0.1280296E+00
         21   -1    0    0  503  502  0.00000000000E+00  0.00000000000E+00  0.37622230836E+03  0.37622230836E+03  0.00000000000E+00 0. -1.
         21   -1    0    0  501  503 -0.00000000000E+00 -0.00000000000E+00 -0.10036481140E+03  0.10036481140E+03  0.00000000000E+00 0. -1.
          6    1    1    2  501    0  0.77345907861E+02 -0.30834642472E+02  0.10119442082E+03  0.21703104719E+03  0.17300000000E+03 0. -1.
         -6    1    1    2    0  502 -0.77345907861E+02  0.30834642472E+02  0.17466307614E+03  0.25955607256E+03  0.17300000000E+03 0. -1.
</event>
<event>
 4    1  0.5900714E+000  0.1000000E+03  0.7546771E-02  0.1280296E+00
         21   -1    0    0  501  502  0.00000000000E+00  0.00000000000E+00  0.12929147695E+04  0.12929147695E+04  0.00000000000E+00 0.  1.
         21   -1    0    0  502  503 -0.00000000000E+00 -0.00000000000E+00 -0.51503772519E+02  0.51503772519E+02  0.00000000000E+00 0. -1.
          6    1    1    2  501    0  0.81993119191E+01 -0.33624951365E+02  0.11112614090E+04  0.11251794458E+04  0.17300000000E+03 0.  1.
         -6    1    1    2    0  503 -0.81993119191E+01  0.33624951365E+02  0.13014958799E+03  0.21923909625E+03  0.17300000000E+03 0. -1.
</event>
<event>
 4    1  0.5900714E+000  0.1000000E+03  0.7546771E-02  0.1280296E+00
         21   -1    0    0  501  502  0.00000000000E+00  0.00000000000E+00  0.71130230064E+03  0.71130230064E+03  0.00000000000E+00 0.  1.
         21   -1    0    0  502  503 -0.00000000000E+00 -0.00000000000E+00 -0.11885375538E+03  0.11885375538E+03  0.00000000000E+00 0. -1.
          6    1    1    2  501    0 -0.21721762400E+03 -0.81407483761E+02  0.25581444530E+03  0.38623918110E+03  0.17300000000E+03 0.  1.
         -6    1    1    2    0  503  0.21721762400E+03  0.81407483761E+02  0.33663409996E+03  0.44391687493E+03  0.17300000000E+03 0. -1.
</event>
<event>
 4    1  0.5900714E+000  0.1000000E+03  0.7546771E-02  0.1280296E+00
         21   -1    0    0  501  502  0.00000000000E+00  0.00000000000E+00  0.18920999019E+03  0.18920999019E+03  0.00000000000E+00 0. -1.
         21   -1    0    0  502  503 -0.00000000000E+00 -0.00000000000E+00 -0.39916281405E+03  0.39916281405E+03  0.00000000000E+00 0. -1.
          6    1    1    2  501    0  0.11475278814E+03  0.22924283444E+02  0.86224686077E+02  0.22595889371E+03  0.17300000000E+03 0. -1.
         -6    1    1    2    0  503 -0.11475278814E+03 -0.22924283444E+02 -0.29617750993E+03  0.36241391053E+03  0.17300000000E+03 0. -1.
</event>
<event>
 4    1  0.5900714E+000  0.1000000E+03  0.7546771E-02  0.1280296E+00
         21   -1    0    0  501  502  0.00000000000E+00  0.00000000000E+00  0.12274723296E+03  0.12274723296E+03  0.00000000000E+00 0. -1.
         21   -1    0    0  502  503 -0.00000000000E+00 -0.00000000000E+00 -0.49259631508E+03  0.49259631508E+03  0.00000000000E+00 0. -1.
          6    1    1    2  501    0  0.33761580506E+01 -0.52614837032E+02  0.23532016216E+02  0.18238002990E+03  0.17300000000E+03 0. -1.
         -6    1    1    2    0  503 -0.33761580506E+01  0.52614837032E+02 -0.39338109834E+03  0.43296351815E+03  0.17300000000E+03 0. -1.
</event>
<event>
 4    1  0.5900714E+000  0.1000000E+03  0.7546771E-02  0.1280296E+00
         21   -1    0    0  501  502  0.00000000000E+00  0.00000000000E+00  0.37635879138E+03  0.37635879138E+03  0.00000000000E+00 0. -1.
         21   -1    0    0  502  503 -0.00000000000E+00 -0.00000000000E+00 -0.88384555544E+02  0.88384555544E+02  0.00000000000E+00 0. -1.
          6    1    1    2  501    0  0.96905568228E+01 -0.10695310911E+01  0.71462830503E+02  0.18743261971E+03  0.17300000000E+03 0. -1.
         -6    1    1    2    0  503 -0.96905568228E+01  0.10695310911E+01  0.21651140534E+03  0.27731072722E+03  0.17300000000E+03 0. -1.
</event>
<event>
 4    1  0.5900714E+000  0.1000000E+03  0.7546771E-02  0.1280296E+00
         21   -1    0    0  501  502  0.00000000000E+00  0.00000000000E+00  0.36472351230E+03  0.36472351230E+03  0.00000000000E+00 0. -1.
         21   -1    0    0  502  503 -0.00000000000E+00 -0.00000000000E+00 -0.22326046302E+03  0.22326046302E+03  0.00000000000E+00 0. -1.
          6    1    1    2  501    0 -0.14858893867E+03 -0.71267499645E+02  0.23147093183E+03  0.33266427744E+03  0.17300000000E+03 0. -1.
         -6    1    1    2    0  503  0.14858893867E+03  0.71267499645E+02 -0.90007882550E+02  0.25531969788E+03  0.17300000000E+03 0. -1.
</event>
<event>
 4    1  0.5900714E+000  0.1000000E+03  0.7546771E-02  0.1280296E+00
         21   -1    0    0  501  502  0.00000000000E+00  0.00000000000E+00  0.25165511022E+03  0.25165511022E+03  0.00000000000E+00 0.  1.
         21   -1    0    0  502  503 -0.00000000000E+00 -0.00000000000E+00 -0.14761442395E+03  0.14761442395E+03  0.00000000000E+00 0. -1.
          6    1    1    2  501    0 -0.41251148296E+02  0.15559187206E+02 -0.23209037429E+02  0.18003167766E+03  0.17300000000E+03 0. -1.
         -6    1    1    2    0  503  0.41251148296E+02 -0.15559187206E+02  0.12724972370E+03  0.21923785650E+03  0.17300000000E+03 0.  1.
</event>
<event>
 4    1  0.5900714E+000  0.1000000E+03  0.7546771E-02  0.1280296E+00
         21   -1    0    0  501  502  0.00000000000E+00  0.00000000000E+00  0.71352891534E+03  0.71352891534E+03  0.00000000000E+00 0.  1.
         21   -1    0    0  502  503 -0.00000000000E+00 -0.00000000000E+00 -0.14023929731E+03  0.14023929731E+03  0.00000000000E+00 0. -1.
          6    1    1    2  501    0 -0.88309104821E+02 -0.16940034430E+03  0.53416043054E+03  0.59308628394E+03  0.17300000000E+03 0. -1.
         -6    1    1    2    0  503  0.88309104821E+02  0.16940034430E+03  0.39129187490E+02  0.26068192871E+03  0.17300000000E+03 0.  1.
</event>
<event>
 4    1  0.5900714E+000  0.1000000E+03  0.7546771E-02  0.1280296E+00
         21   -1    0    0  501  502  0.00000000000E+00  0.00000000000E+00  0.16961081340E+04  0.16961081340E+04  0.00000000000E+00 0.  1.
         21   -1    0    0  502  503 -0.00000000000E+00 -0.00000000000E+00 -0.22420576342E+02  0.22420576342E+02  0.00000000000E+00 0. -1.
          6    1    1    2  501    0  0.65057397358E+02  0.53905197961E+02  0.97340339689E+03  0.99226075625E+03  0.17300000000E+03 0. -1.
         -6    1    1    2    0  503 -0.65057397358E+02 -0.53905197961E+02  0.70028416080E+03  0.72626795412E+03  0.17300000000E+03 0.  1.
</event>
<event>
 4    1  0.5900714E+000  0.1000000E+03  0.7546771E-02  0.1280296E+00
         21   -1    0    0  501  502  0.00000000000E+00  0.00000000000E+00  0.17570518128E+03  0.17570518128E+03  0.00000000000E+00 0.  1.
         21   -1    0    0  502  503 -0.00000000000E+00 -0.00000000000E+00 -0.16148094205E+04  0.16148094205E+04  0.00000000000E+00 0. -1.
          6    1    1    2  501    0  0.11081312033E+03 -0.64374163190E+02  0.99317957618E+02  0.23710047919E+03  0.17300000000E+03 0. -1.
         -6    1    1    2    0  503 -0.11081312033E+03  0.64374163190E+02 -0.15384221968E+04  0.15534141225E+04  0.17300000000E+03 0.  1.
</event>
<event>
 4    1  0.5900714E+000  0.1000000E+03  0.7546771E-02  0.1280296E+00
         21   -1    0    0  501  502  0.00000000000E+00  0.00000000000E+00  0.56398375010E+02  0.56398375010E+02  0.00000000000E+00 0.  1.
         21   -1    0    0  502  503 -0.00000000000E+00 -0.00000000000E+00 -0.90561323487E+03  0.90561323487E+03  0.00000000000E+00 0. -1.
          6    1    1    2  501    0  0.52580280779E+02  0.51733362443E+02 -0.15788113610E+03  0.24555341548E+03  0.17300000000E+03 0. -1.
         -6    1    1    2    0  503 -0.52580280779E+02 -0.51733362443E+02 -0.69133372376E+03  0.71645819440E+03  0.17300000000E+03 0.  1.
</event>
<event>
 4    1  0.5900714E+000  0.1000000E+03  0.7546771E-02  0.1280296E+00
         21   -1    0    0  503  502  0.00000000000E+00  0.00000000000E+00  0.42285001893E+03  0.42285001893E+03  0.00000000000E+00 0. -1.
         21   -1    0    0  501  503 -0.00000000000E+00 -0.00000000000E+00 -0.82027881996E+02  0.82027881996E+02  0.00000000000E+00 0. -1.
          6    1    1    2  501    0  0.55159596087E+02  0.41270626690E+02  0.17483360393E+03  0.25542442078E+03  0.17300000000E+03 0. -1.
         -6    1    1    2    0  502 -0.55159596087E+02 -0.41270626690E+02  0.16598853301E+03  0.24945348015E+03  0.17300000000E+03 0. -1.
</event>
<event>
 4    1  0.5900714E+000  0.1000000E+03  0.7546771E-02  0.1280296E+00
         21   -1    0    0  503  502  0.00000000000E+00  0.00000000000E+00  0.16579237060E+03  0.16579237060E+03  0.00000000000E+00 0. -1.
         21   -1    0    0  501  503 -0.00000000000E+00 -0.00000000000E+00 -0.45410289544E+03  0.45410289544E+03  0.00000000000E+00 0. -1.
          6    1    1    2  501    0 -0.19618443337E+03  0.31477973810E+02 -0.23076483645E+03  0.35022935981E+03  0.17300000000E+03 0. -1.
         -6    1    1    2    0  502  0.19618443337E+03 -0.31477973810E+02 -0.57545688385E+02  0.26966590623E+03  0.17300000000E+03 0. -1.
</event>
<event>
 4    1  0.5900714E+000  0.1000000E+03  0.7546771E-02  0.1280296E+00
         21   -1    0    0  503  502  0.00000000000E+00  0.00000000000E+00  0.52716464885E+03  0.52716464885E+03  0.00000000000E+00 0. -1.
         21   -1    0    0  501  503 -0.00000000000E+00 -0.00000000000E+00 -0.19839051421E+03  0.19839051421E+03  0.00000000000E+00 0. -1.
          6    1    1    2  501    0  0.95168240180E+02 -0.79622040059E+02 -0.10868877744E+03  0.23903747309E+03  0.17300000000E+03 0. -1.
         -6    1    1    2    0  502 -0.95168240180E+02  0.79622040059E+02  0.43746291208E+03  0.48651768996E+03  0.17300000000E+03 0. -1.
</event>
<event>
 4    1  0.5900714E+000  0.1000000E+03  0.7546771E-02  0.1280296E+00
         21   -1    0    0  503  502  0.00000000000E+00  0.00000000000E+00  0.46425979984E+03  0.46425979984E+03  0.00000000000E+00 0. -1.
         21   -1    0    0  501  503 -0.00000000000E+00 -0.00000000000E+00 -0.83899312661E+02  0.83899312661E+02  0.00000000000E+00 0. -1.
          6    1    1    2  501    0  0.55486444359E+02 -0.58399575853E+02  0.12028956654E+03  0.22558332338E+03  0.17300000000E+03 0. -1.
         -6    1    1    2    0  502 -0.55486444359E+02  0.58399575853E+02  0.26007092063E+03  0.32257578912E+03  0.17300000000E+03 0. -1.
</event>
<event>
 4    1  0.5900714E+000  0.1000000E+03  0.7546771E-02  0.1280296E+00
         21   -1    0    0  503  502  0.00000000000E+00  0.00000000000E+00  0.85666615237E+03  0.85666615237E+03  0.00000000000E+00 0. -1.
         21   -1    0    0  501  503 -0.00000000000E+00 -0.00000000000E+00 -0.71378077081E+03  0.71378077081E+03  0.00000000000E+00 0. -1.
          6    1    1    2  501    0  0.54788384806E+02 -0.37795168415E+03 -0.59137733868E+03  0.72491751211E+03  0.17300000000E+03 0. -1.
         -6    1    1    2    0  502 -0.54788384806E+02  0.37795168415E+03  0.73426272023E+03  0.84552941107E+03  0.17300000000E+03 0. -1.
</event>
<event>
 4    1  0.5900714E+000  0.1000000E+03  0.7546771E-02  0.1280296E+00
         21   -1    0    0  503  502  0.00000000000E+00  0.00000000000E+00  0.19255010709E+02  0.19255010709E+02  0.00000000000E+00 0. -1.
         21   -1    0    0  501  503 -0.00000000000E+00 -0.00000000000E+00 -0.28911418703E+04  0.28911418703E+04  0.00000000000E+00 0. -1.
          6    1    1    2  501    0  0.11283576728E+03  0.74353817451E+02 -0.19693444829E+04  0.19815415950E+04  0.17300000000E+03 0. -1.
         -6    1    1    2    0  502 -0.11283576728E+03 -0.74353817451E+02 -0.90254237671E+03  0.92885528598E+03  0.17300000000E+03 0. -1.
</event>
<event>
 4    1  0.5900714E+000  0.1000000E+03  0.7546771E-02  0.1280296E+00
         21   -1    0    0  503  502  0.00000000000E+00  0.00000000000E+00  0.56345775028E+02  0.56345775028E+02  0.00000000000E+00 0.  1.
         21   -1    0    0  501  503 -0.00000000000E+00 -0.00000000000E+00 -0.73121976786E+03  0.73121976786E+03  0.00000000000E+00 0.  1.
          6    1    1    2  501    0 -0.77431573952E+01 -0.10530133595E+03 -0.35902396591E+03  0.41228089446E+03  0.17300000000E+03 0.  1.
         -6    1    1    2    0  502  0.77431573952E+01  0.10530133595E+03 -0.31585002692E+03  0.37528464843E+03  0.17300000000E+03 0.  1.
</event>
<event>
 4    1  0.5900714E+000  0.1000000E+03  0.7546771E-02  0.1280296E+00
         21   -1    0    0  501  502  0.00000000000E+00  0.00000000000E+00  0.19684627847E+04  0.19684627847E+04  0.00000000000E+00 0. -1.
         21   -1    0    0  502  503 -0.00000000000E+00 -0.00000000000E+00 -0.19657252037E+02  0.19657252037E+02  0.00000000000E+00 0. -1.
          6    1    1    2  501    0  0.49678966476E+02  0.21816674716E+02  0.13599777579E+04  0.13720103749E+04  0.17300000000E+03 0. -1.
         -6    1    1    2    0  503 -0.49678966476E+02 -0.21816674716E+02  0.58882777474E+03  0.61610966176E+03  0.17300000000E+03 0. -1.
</event>
<event>
 4    1  0.5900714E+000  0.1000000E+03  0.7546771E-02  0.1280296E+00
         21   -1    0    0  501  502  0.00000000000E+00  0.00000000000E+00  0.45236560139E+03  0.45236560139E+03  0.00000000000E+00 0. -1.
         21   -1    0    0  502  503 -0.00000000000E+00 -0.00000000000E+00 -0.17018248464E+03  0.17018248464E+03  0.00000000000E+00 0. -1.
          6    1    1    2  501    0  0.18093778534E+03  0.48285044017E+02  0.26391287230E+03  0.36694540711E+03  0.17300000000E+03 0. -1.
         -6    1    1    2    0  503 -0.18093778534E+03 -0.48285044017E+02  0.18270244448E+02  0.25560267892E+03  0.17300000000E+03 0. -1.
</event>
<event>
 4    1  0.5900714E+000  0.1000000E+03  0.7546771E-02  0.1280296E+00
         21   -1    0    0  501  502  0.00000000000E+00  0.00000000000E+00  0.79389848479E+02  0.79389848479E+02  0.00000000000E+00 0.  1.
         21   -1    0    0  502  503 -0.00000000000E+00 -0.00000000000E+00 -0.11503340192E+04  0.11503340192E+04  0.00000000000E+00 0. -1.
          6    1    1    2  501    0 -0.10548963081E+02  0.23060018830E+03 -0.35226464141E+03  0.45530990002E+03  0.17300000000E+03 0.  1.
         -6    1    1    2    0  503  0.10548963081E+02 -0.23060018830E+03 -0.71867952934E+03  0.77441396769E+03  0.17300000000E+03 0. -1.
</event>
<event>
 4    1  0.5900714E+000  0.1000000E+03  0.7546771E-02  0.1280296E+00
         21   -1    0    0  501  502  0.00000000000E+00  0.00000000000E+00  0.94025119046E+03  0.94025119046E+03  0.00000000000E+00 0.  1.
         21   -1    0    0  502  503 -0.00000000000E+00 -0.00000000000E+00 -0.50312919745E+02  0.50312919745E+02  0.00000000000E+00 0. -1.
          6    1    1    2  501    0 -0.61896519958E+02 -0.11213497075E+03  0.51597637111E+03  0.55907606494E+03  0.17300000000E+03 0.  1.
         -6    1    1    2    0  503  0.61896519958E+02  0.11213497075E+03  0.37396189961E+03  0.43148804527E+03  0.17300000000E+03 0. -1.
</event>
<event>
 4    1  0.5900714E+000  0.1000000E+03  0.7546771E-02  0.1280296E+00
         21   -1    0    0  501  502  0.00000000000E+00  0.00000000000E+00  0.22896098049E+04  0.22896098049E+04  0.00000000000E+00 0. -1.
         21   -1    0    0  502  503 -0.00000000000E+00 -0.00000000000E+00 -0.22249384321E+02  0.22249384321E+02  0.00000000000E+00 0. -1.
          6    1    1    2  501    0  0.11279965728E+03  0.69007004902E+02  0.14378640804E+04  0.14542585201E+04  0.17300000000E+03 0. -1.
         -6    1    1    2    0  503 -0.11279965728E+03 -0.69007004902E+02  0.82949634018E+03  0.85760066918E+03  0.17300000000E+03 0. -1.
</event>
<event>
 4    1  0.5900714E+000  0.1000000E+03  0.7546771E-02  0.1280296E+00
         21   -1    0    0  501  502  0.00000000000E+00  0.00000000000E+00  0.64749731634E+02  0.64749731634E+02  0.00000000000E+00 0. -1.
         21   -1    0    0  502  503 -0.00000000000E+00 -0.00000000000E+00 -0.16645653420E+04  0.16645653420E+04  0.00000000000E+00 0. -1.
          6    1    1    2  501    0 -0.91419147552E+02  0.17321271537E+03 -0.27651941741E+03  0.38046299887E+03  0.17300000000E+03 0. -1.
         -6    1    1    2    0  503  0.91419147552E+02 -0.17321271537E+03 -0.13232961929E+04  0.13488520747E+04  0.17300000000E+03 0. -1.
</event>
<event>
 4    1  0.5900714E+000  0.1000000E+03  0.7546771E-02  0.1280296E+00
         21   -1    0    0  503  502  0.00000000000E+00  0.00000000000E+00  0.31430435447E+02  0.31430435447E+02  0.00000000000E+00 0.  1.
         21   -1    0    0  501  503 -0.00000000000E+00 -0.00000000000E+00 -0.10462911194E+04  0.10462911194E+04  0.00000000000E+00 0. -1.
          6    1    1    2  501    0 -0.44241295439E+02  0.29157720417E+02 -0.54369240428E+03  0.57300776204E+03  0.17300000000E+03 0. -1.
         -6    1    1    2    0  502  0.44241295439E+02 -0.29157720417E+02 -0.47116827964E+03  0.50471379278E+03  0.17300000000E+03 0.  1.
</event>
<event>
 4    1  0.5900714E+000  0.1000000E+03  0.7546771E-02  0.1280296E+00
         21   -1    0    0  503  502  0.00000000000E+00  0.00000000000E+00  0.12038500354E+04  0.12038500354E+04  0.00000000000E+00 0.  1.
         21   -1    0    0  501  503 -0.00000000000E+00 -0.00000000000E+00 -0.40169874561E+02  0.40169874561E+02  0.00000000000E+00 0. -1.
          6    1    1    2  501    0 -0.33497247982E+01 -0.11774641124E+03  0.39096000160E+03  0.44345705640E+03  0.17300000000E+03 0. -1.
         -6    1    1    2    0  502  0.33497247982E+01  0.11774641124E+03  0.77272015923E+03  0.80056285356E+03  0.17300000000E+03 0.  1.
</event>
<event>
 4    1  0.5900714E+000  0.1000000E+03  0.7546771E-02  0.1280296E+00
         21   -1    0    0  503  502  0.00000000000E+00  0.00000000000E+00  0.15980007779E+03  0.15980007779E+03  0.00000000000E+00 0.  1.
         21   -1    0    0  501  503 -0.00000000000E+00 -0.00000000000E+00 -0.19833345512E+03  0.19833345512E+03  0.00000000000E+00 0. -1.
          6    1    1    2  501    0  0.36426938836E+02  0.17161855597E+02 -0.31305300862E+02  0.18036206093E+03  0.17300000000E+03 0. -1.
         -6    1    1    2    0  502 -0.36426938836E+02 -0.17161855597E+02 -0.72280764625E+01  0.17777147198E+03  0.17300000000E+03 0.  1.
</event>
<event>
 4    1  0.5900714E+000  0.1000000E+03  0.7546771E-02  0.1280296E+00
         21   -1    0    0  501  502  0.00000000000E+00  0.00000000000E+00  0.31603413078E+03  0.31603413078E+03  0.00000000000E+00 0. -1.
         21   -1    0    0  502  503 -0.00000000000E+00 -0.00000000000E+00 -0.19872737711E+04  0.19872737711E+04  0.00000000000E+00 0. -1.
          6    1    1    2  501    0 -0.52816453619E+03  0.43622319438E+03 -0.31394461525E+03  0.77313561168E+03  0.17300000000E+03 0. -1.
         -6    1    1    2    0  503  0.52816453619E+03 -0.43622319438E+03 -0.13572950251E+04  0.15301722902E+04  0.17300000000E+03 0. -1.
</event>
<event>
 4    1  0.5900714E+000  0.1000000E+03  0.7546771E-02  0.1280296E+00
         21   -1    0    0  501  502  0.00000000000E+00  0.00000000000E+00  0.60420814603E+02  0.60420814603E+02  0.00000000000E+00 0.  1.
         21   -1    0    0  502  503 -0.00000000000E+00 -0.00000000000E+00 -0.13966138582E+04  0.13966138582E+04  0.00000000000E+00 0. -1.
          6    1    1    2  501    0 -0.77356844454E+02  0.98950525619E+02 -0.17486239624E+03  0.27619041533E+03  0.17300000000E+03 0.  1.
         -6    1    1    2    0  503  0.77356844454E+02 -0.98950525619E+02 -0.11613306474E+04  0.11808442575E+04  0.17300000000E+03 0. -1.
</event>
<event>
 4    1  0.5900714E+000  0.1000000E+03  0.7546771E-02  0.1280296E+00
         21   -1    0    0  501  502  0.00000000000E+00  0.00000000000E+00  0.51921566307E+02  0.51921566307E+02  0.00000000000E+00 0.  1.
         21   -1    0    0  502  503 -0.00000000000E+00 -0.00000000000E+00 -0.95069546108E+03  0.95069546108E+03  0.00000000000E+00 0. -1.
          6    1    1    2  501    0  0.13335192449E+03 -0.15954145080E+02 -0.36510230233E+03  0.42575340477E+03  0.17300000000E+03 0.  1.
         -6    1    1    2    0  503 -0.13335192449E+03  0.15954145080E+02 -0.53367159245E+03  0.57686362262E+03  0.17300000000E+03 0. -1.
</event>
<event>
 4    1  0.5900714E+000  0.1000000E+03  0.7546771E-02  0.1280296E+00
         21   -1    0    0  503  502  0.00000000000E+00  0.00000000000E+00  0.13108548768E+03  0.13108548768E+03  0.00000000000E+00 0.  1.
         21   -1    0    0  501  503 -0.00000000000E+00 -0.00000000000E+00 -0.43976975303E+03  0.43976975303E+03  0.00000000000E+00 0.  1.
          6    1    1    2  501    0  0.32057931667E+02  0.16334827331E+03 -0.15096647189E+03  0.28360226553E+03  0.17300000000E+03 0.  1.
         -6    1    1    2    0  502 -0.32057931667E+02 -0.16334827331E+03 -0.15771779346E+03  0.28725297518E+03  0.17300000000E+03 0.  1.
</event>
<event>
 4    1  0.5900714E+000  0.1000000E+03  0.7546771E-02  0.1280296E+00
         21   -1    0    0  503  502  0.00000000000E+00  0.00000000000E+00  0.11109754602E+04  0.11109754602E+04  0.00000000000E+00 0.  1.
         21   -1    0    0  501  503 -0.00000000000E+00 -0.00000000000E+00 -0.29594133943E+02  0.29594133943E+02  0.00000000000E+00 0.  1.
          6    1    1    2  501    0 -0.31244494068E+02  0.43461489609E+02  0.51182454308E+03  0.54291664405E+03  0.17300000000E+03 0.  1.
         -6    1    1    2    0  502  0.31244494068E+02 -0.43461489609E+02  0.56955678314E+03  0.59765295005E+03  0.17300000000E+03 0.  1.
</event>
<event>
 4    1  0.5900714E+000  0.1000000E+03  0.7546771E-02  0.1280296E+00
         21   -1    0    0  503  502  0.00000000000E+00  0.00000000000E+00  0.22916682246E+02  0.22916682246E+02  0.00000000000E+00 0. -1.
         21   -1    0    0  501  503 -0.00000000000E+00 -0.00000000000E+00 -0.15754719857E+04  0.15754719857E+04  0.00000000000E+00 0. -1.
          6    1    1    2  501    0  0.71671812261E+02  0.11954012087E+01 -0.91174235178E+03  0.93077462024E+03  0.17300000000E+03 0. -1.
         -6    1    1    2    0  502 -0.71671812261E+02 -0.11954012087E+01 -0.64081295165E+03  0.66761404768E+03  0.17300000000E+03 0. -1.
</event>
<event>
 4    1  0.5900714E+000  0.1000000E+03  0.7546771E-02  0.1280296E+00
         21   -1    0    0  501  502  0.00000000000E+00  0.00000000000E+00  0.32504048409E+03  0.32504048409E+03  0.00000000000E+00 0.  1.
         21   -1    0    0  502  503 -0.00000000000E+00 -0.00000000000E+00 -0.16688511285E+03  0.16688511285E+03  0.00000000000E+00 0. -1.
          6    1    1    2  501    0 -0.11311989757E+02  0.11492961707E+03  0.18973144388E+03  0.28153827234E+03  0.17300000000E+03 0.  1.
         -6    1    1    2    0  503  0.11311989757E+02 -0.11492961707E+03 -0.31576072649E+02  0.21038732461E+03  0.17300000000E+03 0. -1.
</event>
<event>
 4    1  0.5900714E+000  0.1000000E+03  0.7546771E-02  0.1280296E+00
         21   -1    0    0  501  502  0.00000000000E+00  0.00000000000E+00  0.49687281724E+03  0.49687281724E+03  0.00000000000E+00 0.  1.
         21   -1    0    0  502  503 -0.00000000000E+00 -0.00000000000E+00 -0.80300444196E+02  0.80300444196E+02  0.00000000000E+00 0. -1.
          6    1    1    2  501    0 -0.12814980276E+02  0.37964853368E+02  0.34042062172E+03  0.38395410338E+03  0.17300000000E+03 0.  1.
         -6    1    1    2    0  503  0.12814980276E+02 -0.37964853368E+02  0.76151751328E+02  0.19321915806E+03  0.17300000000E+03 0. -1.
</event>
<event>
 4    1  0.5900714E+000  0.1000000E+03  0.7546771E-02  0.1280296E+00
         21   -1    0    0  501  502  0.00000000000E+00  0.00000000000E+00  0.20882537102E+04  0.20882537102E+04  0.00000000000E+00 0.  1.
         21   -1    0    0  502  503 -0.00000000000E+00 -0.00000000000E+00 -0.19286021474E+02  0.19286021474E+02  0.00000000000E+00 0.  1.
          6    1    1    2  501    0 -0.71308127088E+02 -0.30457812039E+02  0.13801095586E+04  0.13930699627E+04  0.17300000000E+03 0.  1.
         -6    1    1    2    0  503  0.71308127088E+02  0.30457812039E+02  0.68885813010E+03  0.71446976892E+03  0.17300000000E+03 0.  1.
</event>
<event>
 4    1  0.5900714E+000  0.1000000E+03  0.7546771E-02  0.1280296E+00
         21   -1    0    0  501  502  0.00000000000E+00  0.00000000000E+00  0.69748677648E+02  0.69748677648E+02  0.00000000000E+00 0.  1.
         21   -1    0    0  502  503 -0.00000000000E+00 -0.00000000000E+00 -0.66308714447E+03  0.66308714447E+03  0.00000000000E+00 0.  1.
          6    1    1    2  501    0 -0.85544751753E+02 -0.71887986837E+01 -0.13547259520E+03  0.23590550530E+03  0.17300000000E+03 0.  1.
         -6    1    1    2    0  503  0.85544751753E+02  0.71887986837E+01 -0.45786587162E+03  0.49693031682E+03  0.17300000000E+03 0.  1.
</event>
<event>
 4    1  0.5900714E+000  0.1000000E+03  0.7546771E-02  0.1280296E+00
         21   -1    0    0  503  502  0.00000000000E+00  0.00000000000E+00  0.15368935150E+03  0.15368935150E+03  0.00000000000E+00 0.  1.
         21   -1    0    0  501  503 -0.00000000000E+00 -0.00000000000E+00 -0.38280929537E+03  0.38280929537E+03  0.00000000000E+00 0.  1.
          6    1    1    2  501    0 -0.16128888774E+02  0.38400044509E+02 -0.29685313936E+03  0.34610040569E+03  0.17300000000E+03 0. -1.
         -6    1    1    2    0  502  0.16128888774E+02 -0.38400044509E+02  0.67733195486E+02  0.19039824117E+03  0.17300000000E+03 0. -1.
</event>
<event>
 4    1  0.5900714E+000  0.1000000E+03  0.7546771E-02  0.1280296E+00
         21   -1    0    0  503  502  0.00000000000E+00  0.00000000000E+00  0.24543773145E+02  0.24543773145E+02  0.00000000000E+00 0.  1.
         21   -1    0    0  501  503 -0.00000000000E+00 -0.00000000000E+00 -0.16748055100E+04  0.16748055100E+04  0.00000000000E+00 0.  1.
          6    1    1    2  501    0  0.37300219122E+02 -0.54241994388E+01 -0.12390760015E+04  0.12516625208E+04  0.17300000000E+03 0. -1.
         -6    1    1    2    0  502 -0.37300219122E+02  0.54241994388E+01 -0.41118573531E+03  0.44768676238E+03  0.17300000000E+03 0. -1.
</event>
<event>
 4    1  0.5900714E+000  0.1000000E+03  0.7546771E-02  0.1280296E+00
         21   -1    0    0  501  502  0.00000000000E+00  0.00000000000E+00  0.15656984666E+02  0.15656984666E+02  0.00000000000E+00 0. -1.
         21   -1    0    0  502  503 -0.00000000000E+00 -0.00000000000E+00 -0.23714972366E+04  0.23714972366E+04  0.00000000000E+00 0. -1.
          6    1    1    2  501    0 -0.11073628614E+02 -0.18137098466E+02 -0.66901795900E+03  0.69135056886E+03  0.17300000000E+03 0. -1.
         -6    1    1    2    0  503  0.11073628614E+02  0.18137098466E+02 -0.16868222930E+04  0.16958036524E+04  0.17300000000E+03 0. -1.
</event>
<event>
 4    1  0.5900714E+000  0.1000000E+03  0.7546771E-02  0.1280296E+00
         21   -1    0    0  501  502  0.00000000000E+00  0.00000000000E+00  0.10672358392E+04  0.10672358392E+04  0.00000000000E+00 0. -1.
         21   -1    0    0  502  503 -0.00000000000E+00 -0.00000000000E+00 -0.44585362578E+02  0.44585362578E+02  0.00000000000E+00 0. -1.
          6    1    1    2  501    0  0.61141356448E+02 -0.11084172377E+03  0.40843719712E+03  0.46127442720E+03  0.17300000000E+03 0. -1.
         -6    1    1    2    0  503 -0.61141356448E+02  0.11084172377E+03  0.61421327951E+03  0.65054677459E+03  0.17300000000E+03 0. -1.
</event>
<event>
 4    1  0.5900714E+000  0.1000000E+03  0.7546771E-02  0.1280296E+00
         21   -1    0    0  501  502  0.00000000000E+00  0.00000000000E+00  0.32807569929E+02  0.32807569929E+02  0.00000000000E+00 0.  1.
         21   -1    0    0  502  503 -0.00000000000E+00 -0.00000000000E+00 -0.22444703005E+04  0.22444703005E+04  0.00000000000E+00 0.  1.
          6    1    1    2  501    0 -0.46823095020E+02  0.19743312482E+02 -0.25490508362E+03  0.31223036731E+03  0.17300000000E+03 0.  1.
         -6    1    1    2    0  503  0.46823095020E+02 -0.19743312482E+02 -0.19567576470E+04  0.19650475032E+04  0.17300000000E+03 0.  1.
</event>
<event>
 4    1  0.5900714E+000  0.1000000E+03  0.7546771E-02  0.1280296E+00
         21   -1    0    0  501  502  0.00000000000E+00  0.00000000000E+00  0.49915207274E+03  0.49915207274E+03  0.00000000000E+00 0.  1.
         21   -1    0    0  502  503 -0.00000000000E+00 -0.00000000000E+00 -0.10594707791E+03  0.10594707791E+03  0.00000000000E+00 0.  1.
          6    1    1    2  501    0  0.95321883923E+02 -0.76043488445E+02  0.31490608525E+03  0.37942550813E+03  0.17300000000E+03 0.  1.
         -6    1    1    2    0  503 -0.95321883923E+02  0.76043488445E+02  0.78298909579E+02  0.22567364253E+03  0.17300000000E+03 0.  1.
</event>
<event>
 4    1  0.5900714E+000  0.1000000E+03  0.7546771E-02  0.1280296E+00
         21   -1    0    0  503  502  0.00000000000E+00  0.00000000000E+00  0.74861219702E+03  0.74861219702E+03  0.00000000000E+00 0.  1.
         21   -1    0    0  501  503 -0.00000000000E+00 -0.00000000000E+00 -0.47524650445E+02  0.47524650445E+02  0.00000000000E+00 0.  1.
          6    1    1    2  501    0 -0.49213827155E+02  0.42007474237E+02  0.26985199492E+03  0.32701028705E+03  0.17300000000E+03 0.  1.
         -6    1    1    2    0  502  0.49213827155E+02 -0.42007474237E+02  0.43123555165E+03  0.46912656041E+03  0.17300000000E+03 0.  1.
</event>
<event>
 4    1  0.5900714E+000  0.1000000E+03  0.7546771E-02  0.1280296E+00
         21   -1    0    0  503  502  0.00000000000E+00  0.00000000000E+00  0.10907652665E+03  0.10907652665E+03  0.00000000000E+00 0.  1.
         21   -1    0    0  501  503 -0.00000000000E+00 -0.00000000000E+00 -0.46087159849E+03  0.46087159849E+03  0.00000000000E+00 0.  1.
          6    1    1    2  501    0 -0.38114646169E+02 -0.24612255983E+02 -0.34775597889E+03  0.39105205568E+03  0.17300000000E+03 0.  1.
         -6    1    1    2    0  502  0.38114646169E+02  0.24612255983E+02 -0.40390929508E+01  0.17889606946E+03  0.17300000000E+03 0.  1.
</event>
<event>
 4    1  0.5900714E+000  0.1000000E+03  0.7546771E-02  0.1280296E+00
         21   -1    0    0  503  502  0.00000000000E+00  0.00000000000E+00  0.80667592646E+03  0.80667592646E+03  0.00000000000E+00 0. -1.
         21   -1    0    0  501  503 -0.00000000000E+00 -0.00000000000E+00 -0.97699586064E+02  0.97699586064E+02  0.00000000000E+00 0. -1.
          6    1    1    2  501    0  0.46657333569E+02 -0.94764640984E+02  0.41634457765E+02  0.20692914737E+03  0.17300000000E+03 0. -1.
         -6    1    1    2    0  502 -0.46657333569E+02  0.94764640984E+02  0.66734188263E+03  0.69744636516E+03  0.17300000000E+03 0. -1.
</event>
<event>
 4    1  0.5900714E+000  0.1000000E+03  0.7546771E-02  0.1280296E+00
         21   -1    0    0  503  502  0.00000000000E+00  0.00000000000E+00  0.10725539248E+03  0.10725539248E+03  0.00000000000E+00 0. -1.
         21   -1    0    0  501  503 -0.00000000000E+00 -0.00000000000E+00 -0.68668902484E+03  0.68668902484E+03  0.00000000000E+00 0. -1.
          6    1    1    2  501    0  0.20122334765E+02 -0.57847530094E+02 -0.58216047283E+03  0.61040237649E+03  0.17300000000E+03 0. -1.
         -6    1    1    2    0  502 -0.20122334765E+02  0.57847530094E+02  0.27268404620E+01  0.18354204083E+03  0.17300000000E+03 0. -1.
</event>
<event>
 4    1  0.5900714E+000  0.1000000E+03  0.7546771E-02  0.1280296E+00
         21   -1    0    0  503  502  0.00000000000E+00  0.00000000000E+00  0.11611802098E+03  0.11611802098E+03  0.00000000000E+00 0. -1.
         21   -1    0    0  501  503 -0.00000000000E+00 -0.00000000000E+00 -0.25353828364E+04  0.25353828364E+04  0.00000000000E+00 0. -1.
          6    1    1    2  501    0  0.26701319380E+02  0.19905031318E+03 -0.23664116951E+04  0.23812113090E+04  0.17300000000E+03 0. -1.
         -6    1    1    2    0  502 -0.26701319380E+02 -0.19905031318E+03 -0.52853120376E+02  0.27028954839E+03  0.17300000000E+03 0. -1.
</event>
<event>
 4    1  0.5900714E+000  0.1000000E+03  0.7546771E-02  0.1280296E+00
         21   -1    0    0  503  502  0.00000000000E+00  0.00000000000E+00  0.91821498503E+03  0.91821498503E+03  0.00000000000E+00 0. -1.
         21   -1    0    0  501  503 -0.00000000000E+00 -0.00000000000E+00 -0.27178100559E+03  0.27178100559E+03  0.00000000000E+00 0. -1.
          6    1    1    2  501    0 -0.27470339890E+03 -0.76518144182E+02 -0.11973482511E+03  0.35437608850E+03  0.17300000000E+03 0. -1.
         -6    1    1    2    0  502  0.27470339890E+03  0.76518144182E+02  0.76616880455E+03  0.83561990212E+03  0.17300000000E+03 0. -1.
</event>
<event>
 4    1  0.5900714E+000  0.1000000E+03  0.7546771E-02  0.1280296E+00
         21   -1    0    0  501  502  0.00000000000E+00  0.00000000000E+00  0.53002690342E+02  0.53002690342E+02  0.00000000000E+00 0.  1.
         21   -1    0    0  502  503 -0.00000000000E+00 -0.00000000000E+00 -0.64013755108E+03  0.64013755108E+03  0.00000000000E+00 0. -1.
          6    1    1    2  501    0  0.16698731283E+02  0.45016369443E+02 -0.37102267005E+03  0.41217974579E+03  0.17300000000E+03 0.  1.
         -6    1    1    2    0  503 -0.16698731283E+02 -0.45016369443E+02 -0.21611219068E+03  0.28096049563E+03  0.17300000000E+03 0.  1.
</event>
<event>
 4    1  0.5900714E+000  0.1000000E+03  0.7546771E-02  0.1280296E+00
         21   -1    0    0  501  502  0.00000000000E+00  0.00000000000E+00  0.20646579279E+03  0.20646579279E+03  0.00000000000E+00 0.  1.
         21   -1    0    0  502  503 -0.00000000000E+00 -0.00000000000E+00 -0.59923842851E+03  0.59923842851E+03  0.00000000000E+00 0.  1.
          6    1    1    2  501    0  0.81551764729E+02  0.28288746737E+02  0.14015125007E+03  0.23879345975E+03  0.17300000000E+03 0.  1.
         -6    1    1    2    0  503 -0.81551764729E+02 -0.28288746737E+02 -0.53292388578E+03  0.56691076155E+03  0.17300000000E+03 0.  1.
</event>
<event>
 4    1  0.5900714E+000  0.1000000E+03  0.7546771E-02  0.1280296E+00
         21   -1    0    0  501  502  0.00000000000E+00  0.00000000000E+00  0.66855318419E+02  0.66855318419E+02  0.00000000000E+00 0.  1.
         21   -1    0    0  502  503 -0.00000000000E+00 -0.00000000000E+00 -0.82400694106E+03  0.82400694106E+03  0.00000000000E+00 0.  1.
          6    1    1    2  501    0  0.13157769604E+03  0.67265595066E+02 -0.26917878246E+03  0.35245363851E+03  0.17300000000E+03 0.  1.
         -6    1    1    2    0  503 -0.13157769604E+03 -0.67265595066E+02 -0.48797284018E+03  0.53840862096E+03  0.17300000000E+03 0.  1.
</event>
<event>
 4    1  0.5900714E+000  0.1000000E+03  0.7546771E-02  0.1280296E+00
         21   -1    0    0  501  502  0.00000000000E+00  0.00000000000E+00  0.91023430261E+02  0.91023430261E+02  0.00000000000E+00 0. -1.
         21   -1    0    0  502  503 -0.00000000000E+00 -0.00000000000E+00 -0.11679395678E+04  0.11679395678E+04  0.00000000000E+00 0. -1.
          6    1    1    2  501    0 -0.70822670908E+01  0.25593297856E+03 -0.33755308109E+03  0.45762750199E+03  0.17300000000E+03 0. -1.
         -6    1    1    2    0  503  0.70822670908E+01 -0.25593297856E+03 -0.73936305646E+03  0.80133549608E+03  0.17300000000E+03 0. -1.
</event>
<event>
 4    1  0.5900714E+000  0.1000000E+03  0.7546771E-02  0.1280296E+00
         21   -1    0    0  501  502  0.00000000000E+00  0.00000000000E+00  0.58321404964E+02  0.58321404964E+02  0.00000000000E+00 0. -1.
         21   -1    0    0  502  503 -0.00000000000E+00 -0.00000000000E+00 -0.18698701177E+04  0.18698701177E+04  0.00000000000E+00 0. -1.
          6    1    1    2  501    0 -0.11632797649E+02  0.86131755855E+02 -0.12474503027E+03  0.23031353396E+03  0.17300000000E+03 0. -1.
         -6    1    1    2    0  503  0.11632797649E+02 -0.86131755855E+02 -0.16868036825E+04  0.16978779887E+04  0.17300000000E+03 0. -1.
</event>
<event>
 4    1  0.5900714E+000  0.1000000E+03  0.7546771E-02  0.1280296E+00
         21   -1    0    0  501  502  0.00000000000E+00  0.00000000000E+00  0.52732489147E+03  0.52732489147E+03  0.00000000000E+00 0. -1.
         21   -1    0    0  502  503 -0.00000000000E+00 -0.00000000000E+00 -0.10909559314E+03  0.10909559314E+03  0.00000000000E+00 0. -1.
          6    1    1    2  501    0  0.12697317390E+03  0.92616574791E+02  0.13767228608E+03  0.27126126736E+03  0.17300000000E+03 0. -1.
         -6    1    1    2    0  503 -0.12697317390E+03 -0.92616574791E+02  0.28055701225E+03  0.36515921725E+03  0.17300000000E+03 0. -1.
</event>
<event>
 4    1  0.5900714E+000  0.1000000E+03  0.7546771E-02  0.1280296E+00
         21   -1    0    0  501  502  0.00000000000E+00  0.00000000000E+00  0.14162149724E+04  0.14162149724E+04  0.00000000000E+00 0. -1.
         21   -1    0    0  502  503 -0.00000000000E+00 -0.00000000000E+00 -0.64052265193E+02  0.64052265193E+02  0.00000000000E+00 0. -1.
          6    1    1    2  501    0  0.11659521536E+03 -0.17527751700E+03  0.99141767368E+03  0.10281802643E+04  0.17300000000E+03 0. -1.
         -6    1    1    2    0  503 -0.11659521536E+03  0.17527751700E+03  0.36074503356E+03  0.45208697332E+03  0.17300000000E+03 0. -1.
</event>
<event>
 4    1  0.5900714E+000  0.1000000E+03  0.7546771E-02  0.1280296E+00
         21   -1    0    0  501  502  0.00000000000E+00  0.00000000000E+00  0.33320289809E+03  0.33320289809E+03  0.00000000000E+00 0. -1.
         21   -1    0    0  502  503 -0.00000000000E+00 -0.00000000000E+00 -0.10701019285E+04  0.10701019285E+04  0.00000000000E+00 0. -1.
          6    1    1    2  501    0 -0.10697039656E+01  0.18485765478E+03  0.26700905131E+03  0.36796240335E+03  0.17300000000E+03 0. -1.
         -6    1    1    2    0  503  0.10697039656E+01 -0.18485765478E+03 -0.10039080818E+04  0.10353424233E+04  0.17300000000E+03 0. -1.
</event>
<event>
 4    1  0.5900714E+000  0.1000000E+03  0.7546771E-02  0.1280296E+00
         21   -1    0    0  501  502  0.00000000000E+00  0.00000000000E+00  0.10767116354E+03  0.10767116354E+03  0.00000000000E+00 0. -1.
         21   -1    0    0  502  503 -0.00000000000E+00 -0.00000000000E+00 -0.81995040421E+03  0.81995040421E+03  0.00000000000E+00 0. -1.
          6    1    1    2  501    0 -0.93166238110E+02  0.38926588815E+02 -0.13573717431E+02  0.20076970151E+03  0.17300000000E+03 0. -1.
         -6    1    1    2    0  503  0.93166238110E+02 -0.38926588815E+02 -0.69870552324E+03  0.72685186623E+03  0.17300000000E+03 0. -1.
</event>
<event>
 4    1  0.5900714E+000  0.1000000E+03  0.7546771E-02  0.1280296E+00
         21   -1    0    0  503  502  0.00000000000E+00  0.00000000000E+00  0.48929625848E+03  0.48929625848E+03  0.00000000000E+00 0. -1.
         21   -1    0    0  501  503 -0.00000000000E+00 -0.00000000000E+00 -0.76285091724E+02  0.76285091724E+02  0.00000000000E+00 0. -1.
          6    1    1    2  501    0 -0.47244973336E+02  0.15873596359E+02  0.30910160833E+03  0.35771058530E+03  0.17300000000E+03 0. -1.
         -6    1    1    2    0  502  0.47244973336E+02 -0.15873596359E+02  0.10390955842E+03  0.20787076490E+03  0.17300000000E+03 0. -1.
</event>
<event>
 4    1  0.5900714E+000  0.1000000E+03  0.7546771E-02  0.1280296E+00
         21   -1    0    0  503  502  0.00000000000E+00  0.00000000000E+00  0.35725175637E+03  0.35725175637E+03  0.00000000000E+00 0. -1.
         21   -1    0    0  501  503 -0.00000000000E+00 -0.00000000000E+00 -0.11979555011E+03  0.11979555011E+03  0.00000000000E+00 0. -1.
          6    1    1    2  501    0  0.56536262372E+01  0.10795114560E+03  0.79075495586E+02  0.21878607663E+03  0.17300000000E+03 0. -1.
         -6    1    1    2    0  502 -0.56536262372E+01 -0.10795114560E+03  0.15838071068E+03  0.25826122984E+03  0.17300000000E+03 0. -1.
</event>
<event>
 4    1  0.5900714E+000  0.1000000E+03  0.7546771E-02  0.1280296E+00
         21   -1    0    0  503  502  0.00000000000E+00  0.00000000000E+00  0.10633521921E+03  0.10633521921E+03  0.00000000000E+00 0.  1.
         21   -1    0    0  501  503 -0.00000000000E+00 -0.00000000000E+00 -0.41613770295E+03  0.41613770295E+03  0.00000000000E+00 0. -1.
          6    1    1    2  501    0 -0.25005382646E+02 -0.65509117318E+02 -0.27533321010E+03  0.33264709558E+03  0.17300000000E+03 0. -1.
         -6    1    1    2    0  502  0.25005382646E+02  0.65509117318E+02 -0.34469273631E+02  0.18982582658E+03  0.17300000000E+03 0.  1.
</event>
<event>
 4    1  0.5900714E+000  0.1000000E+03  0.7546771E-02  0.1280296E+00
         21   -1    0    0  503  502  0.00000000000E+00  0.00000000000E+00  0.52857479657E+03  0.52857479657E+03  0.00000000000E+00 0.  1.
         21   -1    0    0  501  503 -0.00000000000E+00 -0.00000000000E+00 -0.10837151063E+03  0.10837151063E+03  0.00000000000E+00 0. -1.
          6    1    1    2  501    0  0.97995723474E+02  0.96702395334E+02  0.88153799095E+02  0.23802228336E+03  0.17300000000E+03 0. -1.
         -6    1    1    2    0  502 -0.97995723474E+02 -0.96702395334E+02  0.33204948684E+03  0.39892402383E+03  0.17300000000E+03 0.  1.
</event>
<event>
 4    1  0.5900714E+000  0.1000000E+03  0.7546771E-02  0.1280296E+00
         21   -1    0    0  501  502  0.00000000000E+00  0.00000000000E+00  0.43849581551E+02  0.43849581551E+02  0.00000000000E+00 0.  1.
         21   -1    0    0  502  503 -0.00000000000E+00 -0.00000000000E+00 -0.17007639543E+04  0.17007639543E+04  0.00000000000E+00 0. -1.
          6    1    1    2  501    0 -0.16299909496E+03  0.48333059294E+02 -0.42766245055E+03  0.49165939550E+03  0.17300000000E+03 0.  1.
         -6    1    1    2    0  503  0.16299909496E+03 -0.48333059294E+02 -0.12292519222E+04  0.12529541403E+04  0.17300000000E+03 0. -1.
</event>
<event>
 4    1  0.5900714E+000  0.1000000E+03  0.7546771E-02  0.1280296E+00
         21   -1    0    0  503  502  0.00000000000E+00  0.00000000000E+00  0.12044566047E+04  0.12044566047E+04  0.00000000000E+00 0. -1.
         21   -1    0    0  501  503 -0.00000000000E+00 -0.00000000000E+00 -0.46005658736E+02  0.46005658736E+02  0.00000000000E+00 0. -1.
          6    1    1    2  501    0 -0.62748220868E+02 -0.30985972911E+02  0.19814340411E+03  0.27218978367E+03  0.17300000000E+03 0. -1.
         -6    1    1    2    0  502  0.62748220868E+02  0.30985972911E+02  0.96030754188E+03  0.97827247980E+03  0.17300000000E+03 0. -1.
</event>
<event>
 4    1  0.5900714E+000  0.1000000E+03  0.7546771E-02  0.1280296E+00
         21   -1    0    0  501  502  0.00000000000E+00  0.00000000000E+00  0.53442118978E+03  0.53442118978E+03  0.00000000000E+00 0.  1.
         21   -1    0    0  502  503 -0.00000000000E+00 -0.00000000000E+00 -0.11312118726E+03  0.11312118726E+03  0.00000000000E+00 0. -1.
          6    1    1    2  501    0 -0.17412495765E+03 -0.83989805712E+00  0.19178905361E+03  0.31149999581E+03  0.17300000000E+03 0.  1.
         -6    1    1    2    0  503  0.17412495765E+03  0.83989805712E+00  0.22951094892E+03  0.33604238123E+03  0.17300000000E+03 0. -1.
</event>
<event>
 4    1  0.5900714E+000  0.1000000E+03  0.7546771E-02  0.1280296E+00
         21   -1    0    0  501  502  0.00000000000E+00  0.00000000000E+00  0.78106428370E+03  0.78106428370E+03  0.00000000000E+00 0.  1.
         21   -1    0    0  502  503 -0.00000000000E+00 -0.00000000000E+00 -0.98813559381E+02  0.98813559381E+02  0.00000000000E+00 0. -1.
          6    1    1    2  501    0 -0.12974652207E+03 -0.16798840369E+03  0.41534249536E+03  0.49748633370E+03  0.17300000000E+03 0.  1.
         -6    1    1    2    0  503  0.12974652207E+03  0.16798840369E+03  0.26690822895E+03  0.38239150938E+03  0.17300000000E+03 0. -1.
</event>
<event>
 4    1  0.5900714E+000  0.1000000E+03  0.7546771E-02  0.1280296E+00
         21   -1    0    0  503  502  0.00000000000E+00  0.00000000000E+00  0.17423974683E+03  0.17423974683E+03  0.00000000000E+00 0.  1.
         21   -1    0    0  501  503 -0.00000000000E+00 -0.00000000000E+00 -0.82112679847E+03  0.82112679847E+03  0.00000000000E+00 0. -1.
          6    1    1    2  501    0  0.14368278190E+03  0.94418054580E+02 -0.70384042498E+03  0.74490258066E+03  0.17300000000E+03 0.  1.
         -6    1    1    2    0  502 -0.14368278190E+03 -0.94418054580E+02  0.56953373336E+02  0.25046396463E+03  0.17300000000E+03 0. -1.
</event>
<event>
 4    1  0.5900714E+000  0.1000000E+03  0.7546771E-02  0.1280296E+00
         21   -1    0    0  503  502  0.00000000000E+00  0.00000000000E+00  0.52680797822E+03  0.52680797822E+03  0.00000000000E+00 0.  1.
         21   -1    0    0  501  503 -0.00000000000E+00 -0.00000000000E+00 -0.24855042234E+03  0.24855042234E+03  0.00000000000E+00 0. -1.
          6    1    1    2  501    0 -0.18757878039E+03  0.18745625792E+03 -0.48540389013E+02  0.32032923197E+03  0.17300000000E+03 0.  1.
         -6    1    1    2    0  502  0.18757878039E+03 -0.18745625792E+03  0.32679794489E+03  0.45502916860E+03  0.17300000000E+03 0. -1.
</event>
<event>
 4    1  0.5900714E+000  0.1000000E+03  0.7546771E-02  0.1280296E+00
         21   -1    0    0  503  502  0.00000000000E+00  0.00000000000E+00  0.79419481652E+03  0.79419481652E+03  0.00000000000E+00 0.  1.
         21   -1    0    0  501  503 -0.00000000000E+00 -0.00000000000E+00 -0.47345772533E+02  0.47345772533E+02  0.00000000000E+00 0.  1.
          6    1    1    2  501    0  0.69658012405E+00 -0.72472990473E+02  0.26668041175E+03  0.32603720890E+03  0.17300000000E+03 0.  1.
         -6    1    1    2    0  502 -0.69658012405E+00  0.72472990473E+02  0.48016863224E+03  0.51550338016E+03  0.17300000000E+03 0.  1.
</event>
<event>
 4    1  0.5900714E+000  0.1000000E+03  0.7546771E-02  0.1280296E+00
         21   -1    0    0  503  502  0.00000000000E+00  0.00000000000E+00  0.17050352260E+03  0.17050352260E+03  0.00000000000E+00 0.  1.
         21   -1    0    0  501  503 -0.00000000000E+00 -0.00000000000E+00 -0.43218173816E+03  0.43218173816E+03  0.00000000000E+00 0.  1.
          6    1    1    2  501    0 -0.50345227892E+02  0.16210456649E+03 -0.26655708059E+03  0.36026963467E+03  0.17300000000E+03 0.  1.
         -6    1    1    2    0  502  0.50345227892E+02 -0.16210456649E+03  0.48788650344E+01  0.24241562609E+03  0.17300000000E+03 0.  1.
</event>
<event>
 4    1  0.5900714E+000  0.1000000E+03  0.7546771E-02  0.1280296E+00
         21   -1    0    0  501  502  0.00000000000E+00  0.00000000000E+00  0.21909734300E+03  0.21909734300E+03  0.00000000000E+00 0.  1.
         21   -1    0    0  502  503 -0.00000000000E+00 -0.00000000000E+00 -0.66170507461E+03  0.66170507461E+03  0.00000000000E+00 0. -1.
          6    1    1    2  501    0 -0.41715378761E+02 -0.11420889930E+03  0.14494167537E+03  0.25636094625E+03  0.17300000000E+03 0. -1.
         -6    1    1    2    0  503  0.41715378761E+02  0.11420889930E+03 -0.58754940698E+03  0.62444147135E+03  0.17300000000E+03 0. -1.
</event>
<event>
 4    1  0.5900714E+000  0.1000000E+03  0.7546771E-02  0.1280296E+00
         21   -1    0    0  501  502  0.00000000000E+00  0.00000000000E+00  0.91349371472E+03  0.91349371472E+03  0.00000000000E+00 0.  1.
         21   -1    0    0  502  503 -0.00000000000E+00 -0.00000000000E+00 -0.44321323743E+02  0.44321323743E+02  0.00000000000E+00 0. -1.
          6    1    1    2  501    0  0.48707372597E+02 -0.55824085098E+02  0.60404950275E+03  0.63268755195E+03  0.17300000000E+03 0. -1.
         -6    1    1    2    0  503 -0.48707372597E+02  0.55824085098E+02  0.26512288822E+03  0.32512748650E+03  0.17300000000E+03 0. -1.
</event>
<event>
 4    1  0.5900714E+000  0.1000000E+03  0.7546771E-02  0.1280296E+00
         21   -1    0    0  503  502  0.00000000000E+00  0.00000000000E+00  0.96572004735E+03  0.96572004735E+03  0.00000000000E+00 0.  1.
         21   -1    0    0  501  503 -0.00000000000E+00 -0.00000000000E+00 -0.13060051726E+03  0.13060051726E+03  0.00000000000E+00 0. -1.
          6    1    1    2  501    0  0.15707788026E+02  0.26980134896E+03  0.18268724053E+03  0.36924670663E+03  0.17300000000E+03 0.  1.
         -6    1    1    2    0  502 -0.15707788026E+02 -0.26980134896E+03  0.65243228956E+03  0.72707385798E+03  0.17300000000E+03 0. -1.
</event>
<event>
 4    1  0.5900714E+000  0.1000000E+03  0.7546771E-02  0.1280296E+00
         21   -1    0    0  503  502  0.00000000000E+00  0.00000000000E+00  0.11991785155E+03  0.11991785155E+03  0.00000000000E+00 0.  1.
         21   -1    0    0  501  503 -0.00000000000E+00 -0.00000000000E+00 -0.48573711480E+03  0.48573711480E+03  0.00000000000E+00 0. -1.
          6    1    1    2  501    0 -0.32909086344E+02 -0.85125660052E+02 -0.36031261351E+03  0.40997995734E+03  0.17300000000E+03 0.  1.
         -6    1    1    2    0  502  0.32909086344E+02  0.85125660052E+02 -0.55066497382E+01  0.19567500902E+03  0.17300000000E+03 0. -1.
</event>
<event>
 4    1  0.5900714E+000  0.1000000E+03  0.7546771E-02  0.1280296E+00
         21   -1    0    0  503  502  0.00000000000E+00  0.00000000000E+00  0.14196068557E+04  0.14196068557E+04  0.00000000000E+00 0.  1.
         21   -1    0    0  501  503 -0.00000000000E+00 -0.00000000000E+00 -0.80564931230E+02  0.80564931230E+02  0.00000000000E+00 0. -1.
          6    1    1    2  501    0 -0.24333644536E+03  0.13471713276E+03  0.48289304448E+03  0.58350323384E+03  0.17300000000E+03 0.  1.
         -6    1    1    2    0  502  0.24333644536E+03 -0.13471713276E+03  0.85614887996E+03  0.91666855306E+03  0.17300000000E+03 0. -1.
</event>
<event>
 4    1  0.5900714E+000  0.1000000E+03  0.7546771E-02  0.1280296E+00
         21   -1    0    0  503  502  0.00000000000E+00  0.00000000000E+00  0.86521105749E+03  0.86521105749E+03  0.00000000000E+00 0.  1.
         21   -1    0    0  501  503 -0.00000000000E+00 -0.00000000000E+00 -0.37697616740E+02  0.37697616740E+02  0.00000000000E+00 0. -1.
          6    1    1    2  501    0 -0.49432776208E+02 -0.67782274104E+01  0.37859540596E+03  0.41922908433E+03  0.17300000000E+03 0.  1.
         -6    1    1    2    0  502  0.49432776208E+02  0.67782274104E+01  0.44891803479E+03  0.48367958990E+03  0.17300000000E+03 0. -1.
</event>
<event>
 4    1  0.5900714E+000  0.1000000E+03  0.7546771E-02  0.1280296E+00
         21   -1    0    0  501  502  0.00000000000E+00  0.00000000000E+00  0.57192311751E+03  0.57192311751E+03  0.00000000000E+00 0.  1.
         21   -1    0    0  502  503 -0.00000000000E+00 -0.00000000000E+00 -0.56099853825E+02  0.56099853825E+02  0.00000000000E+00 0. -1.
          6    1    1    2  501    0 -0.45971035351E+02  0.39768431568E+00  0.26931445701E+03  0.32337713432E+03  0.17300000000E+03 0. -1.
         -6    1    1    2    0  503  0.45971035351E+02 -0.39768431568E+00  0.24650880667E+03  0.30464583701E+03  0.17300000000E+03 0.  1.
</event>
<event>
 4    1  0.5900714E+000  0.1000000E+03  0.7546771E-02  0.1280296E+00
         21   -1    0    0  503  502  0.00000000000E+00  0.00000000000E+00  0.14316172212E+04  0.14316172212E+04  0.00000000000E+00 0. -1.
         21   -1    0    0  501  503 -0.00000000000E+00 -0.00000000000E+00 -0.82733072254E+02  0.82733072254E+02  0.00000000000E+00 0. -1.
          6    1    1    2  501    0 -0.95416140496E+02  0.17050021510E+03  0.11680630118E+04  0.11968603773E+04  0.17300000000E+03 0. -1.
         -6    1    1    2    0  502  0.95416140496E+02 -0.17050021510E+03  0.18082113712E+03  0.31748991613E+03  0.17300000000E+03 0. -1.
</event>
<event>
 4    1  0.5900714E+000  0.1000000E+03  0.7546771E-02  0.1280296E+00
         21   -1    0    0  503  502  0.00000000000E+00  0.00000000000E+00  0.56882837194E+03  0.56882837194E+03  0.00000000000E+00 0. -1.
         21   -1    0    0  501  503 -0.00000000000E+00 -0.00000000000E+00 -0.72058813128E+02  0.72058813128E+02  0.00000000000E+00 0. -1.
          6    1    1    2  501    0  0.13880389260E+02  0.48924599940E+02  0.39408389683E+03  0.43337904821E+03  0.17300000000E+03 0. -1.
         -6    1    1    2    0  502 -0.13880389260E+02 -0.48924599940E+02  0.10268566198E+03  0.20750813686E+03  0.17300000000E+03 0. -1.
</event>
<event>
 4    1  0.5900714E+000  0.1000000E+03  0.7546771E-02  0.1280296E+00
         21   -1    0    0  503  502  0.00000000000E+00  0.00000000000E+00  0.29961333553E+03  0.29961333553E+03  0.00000000000E+00 0. -1.
         21   -1    0    0  501  503 -0.00000000000E+00 -0.00000000000E+00 -0.46599869395E+03  0.46599869395E+03  0.00000000000E+00 0. -1.
          6    1    1    2  501    0  0.13984603367E+03 -0.95314469945E+02 -0.37485394582E+03  0.44619081345E+03  0.17300000000E+03 0. -1.
         -6    1    1    2    0  502 -0.13984603367E+03  0.95314469945E+02  0.20846858740E+03  0.31942121603E+03  0.17300000000E+03 0. -1.
</event>
<event>
 4    1  0.5900714E+000  0.1000000E+03  0.7546771E-02  0.1280296E+00
         21   -1    0    0  501  502  0.00000000000E+00  0.00000000000E+00  0.13531158388E+03  0.13531158388E+03  0.00000000000E+00 0. -1.
         21   -1    0    0  502  503 -0.00000000000E+00 -0.00000000000E+00 -0.42084042454E+03  0.42084042454E+03  0.00000000000E+00 0.  1.
          6    1    1    2  501    0  0.11048580793E+01  0.15067732733E+03 -0.21927324648E+03  0.31735569052E+03  0.17300000000E+03 0. -1.
         -6    1    1    2    0  503 -0.11048580793E+01 -0.15067732733E+03 -0.66255594186E+02  0.23879631790E+03  0.17300000000E+03 0.  1.
</event>
<event>
 4    1  0.5900714E+000  0.1000000E+03  0.7546771E-02  0.1280296E+00
         21   -1    0    0  501  502  0.00000000000E+00  0.00000000000E+00  0.23136062140E+03  0.23136062140E+03  0.00000000000E+00 0. -1.
         21   -1    0    0  502  503 -0.00000000000E+00 -0.00000000000E+00 -0.10740899280E+04  0.10740899280E+04  0.00000000000E+00 0.  1.
          6    1    1    2  501    0 -0.75956562578E+02  0.31081024473E+03  0.24979416567E+02  0.36458932908E+03  0.17300000000E+03 0. -1.
         -6    1    1    2    0  503  0.75956562578E+02 -0.31081024473E+03 -0.86770872317E+03  0.94086122031E+03  0.17300000000E+03 0.  1.
</event>
<event>
 4    1  0.5900714E+000  0.1000000E+03  0.7546771E-02  0.1280296E+00
         21   -1    0    0  501  502  0.00000000000E+00  0.00000000000E+00  0.22333666033E+03  0.22333666033E+03  0.00000000000E+00 0. -1.
         21   -1    0    0  502  503 -0.00000000000E+00 -0.00000000000E+00 -0.25422740336E+03  0.25422740336E+03  0.00000000000E+00 0.  1.
          6    1    1    2  501    0 -0.40563527525E+02  0.15678465817E+03  0.95563443771E+01  0.23716482142E+03  0.17300000000E+03 0.  1.
         -6    1    1    2    0  503  0.40563527525E+02 -0.15678465817E+03 -0.40447087404E+02  0.24039924226E+03  0.17300000000E+03 0.  1.
</event>
<event>
 4    1  0.5900714E+000  0.1000000E+03  0.7546771E-02  0.1280296E+00
         21   -1    0    0  501  502  0.00000000000E+00  0.00000000000E+00  0.65818307318E+03  0.65818307318E+03  0.00000000000E+00 0. -1.
         21   -1    0    0  502  503 -0.00000000000E+00 -0.00000000000E+00 -0.99449839736E+02  0.99449839736E+02  0.00000000000E+00 0.  1.
          6    1    1    2  501    0  0.20666519289E+02  0.11619066185E+03  0.49697647568E+03  0.53929768431E+03  0.17300000000E+03 0.  1.
         -6    1    1    2    0  503 -0.20666519289E+02 -0.11619066185E+03  0.61756757767E+02  0.21833522861E+03  0.17300000000E+03 0.  1.
</event>
<event>
 4    1  0.5900714E+000  0.1000000E+03  0.7546771E-02  0.1280296E+00
         21   -1    0    0  503  502  0.00000000000E+00  0.00000000000E+00  0.18467446960E+03  0.18467446960E+03  0.00000000000E+00 0.  1.
         21   -1    0    0  501  503 -0.00000000000E+00 -0.00000000000E+00 -0.43757260736E+03  0.43757260736E+03  0.00000000000E+00 0.  1.
          6    1    1    2  501    0 -0.15792071360E+02 -0.78016023986E+01 -0.37256944288E+03  0.41115355317E+03  0.17300000000E+03 0.  1.
         -6    1    1    2    0  502  0.15792071360E+02  0.78016023986E+01  0.11967130512E+03  0.21109352379E+03  0.17300000000E+03 0.  1.
</event>
<event>
 4    1  0.5900714E+000  0.1000000E+03  0.7546771E-02  0.1280296E+00
         21   -1    0    0  503  502  0.00000000000E+00  0.00000000000E+00  0.27147757207E+03  0.27147757207E+03  0.00000000000E+00 0.  1.
         21   -1    0    0  501  503 -0.00000000000E+00 -0.00000000000E+00 -0.17099806260E+03  0.17099806260E+03  0.00000000000E+00 0.  1.
          6    1    1    2  501    0  0.21390482472E+02 -0.12511258547E+03  0.30159412438E+02  0.21667787599E+03  0.17300000000E+03 0.  1.
         -6    1    1    2    0  502 -0.21390482472E+02  0.12511258547E+03  0.70320097033E+02  0.22579775869E+03  0.17300000000E+03 0.  1.
</event>
<event>
 4    1  0.5900714E+000  0.1000000E+03  0.7546771E-02  0.1280296E+00
         21   -1    0    0  503  502  0.00000000000E+00  0.00000000000E+00  0.69159929976E+03  0.69159929976E+03  0.00000000000E+00 0.  1.
         21   -1    0    0  501  503 -0.00000000000E+00 -0.00000000000E+00 -0.11095269849E+03  0.11095269849E+03  0.00000000000E+00 0.  1.
          6    1    1    2  501    0 -0.54463382286E+02 -0.12634445814E+02 -0.12429306426E+02  0.18223440095E+03  0.17300000000E+03 0.  1.
         -6    1    1    2    0  502  0.54463382286E+02  0.12634445814E+02  0.59307590770E+03  0.62031759730E+03  0.17300000000E+03 0.  1.
</event>
<event>
 4    1  0.5900714E+000  0.1000000E+03  0.7546771E-02  0.1280296E+00
         21   -1    0    0  503  502  0.00000000000E+00  0.00000000000E+00  0.36525620166E+02  0.36525620166E+02  0.00000000000E+00 0.  1.
         21   -1    0    0  501  503 -0.00000000000E+00 -0.00000000000E+00 -0.10793827614E+04  0.10793827614E+04  0.00000000000E+00 0.  1.
          6    1    1    2  501    0 -0.31568185914E+02 -0.92188758400E+02 -0.51890388336E+03  0.55559477833E+03  0.17300000000E+03 0.  1.
         -6    1    1    2    0  502  0.31568185914E+02  0.92188758400E+02 -0.52395325784E+03  0.56031360320E+03  0.17300000000E+03 0.  1.
</event>
<event>
 4    1  0.5900714E+000  0.1000000E+03  0.7546771E-02  0.1280296E+00
         21   -1    0    0  503  502  0.00000000000E+00  0.00000000000E+00  0.50948831324E+03  0.50948831324E+03  0.00000000000E+00 0.  1.
         21   -1    0    0  501  503 -0.00000000000E+00 -0.00000000000E+00 -0.81281253805E+02  0.81281253805E+02  0.00000000000E+00 0.  1.
          6    1    1    2  501    0 -0.39392128535E+02 -0.84438453001E+01  0.69971635308E+02  0.19091377127E+03  0.17300000000E+03 0.  1.
         -6    1    1    2    0  502  0.39392128535E+02  0.84438453001E+01  0.35823542413E+03  0.39985579577E+03  0.17300000000E+03 0.  1.
</event>
<event>
 4    1  0.5900714E+000  0.1000000E+03  0.7546771E-02  0.1280296E+00
         21   -1    0    0  501  502  0.00000000000E+00  0.00000000000E+00  0.13425855064E+03  0.13425855064E+03  0.00000000000E+00 0.  1.
         21   -1    0    0  502  503 -0.00000000000E+00 -0.00000000000E+00 -0.15780351434E+04  0.15780351434E+04  0.00000000000E+00 0.  1.
          6    1    1    2  501    0  0.18848919213E+03  0.21469516050E+03 -0.13277518034E+03  0.35941679984E+03  0.17300000000E+03 0.  1.
         -6    1    1    2    0  503 -0.18848919213E+03 -0.21469516050E+03 -0.13110014124E+04  0.13528768942E+04  0.17300000000E+03 0.  1.
</event>
<event>
 4    1  0.5900714E+000  0.1000000E+03  0.7546771E-02  0.1280296E+00
         21   -1    0    0  503  502  0.00000000000E+00  0.00000000000E+00  0.32924120550E+03  0.32924120550E+03  0.00000000000E+00 0.  1.
         21   -1    0    0  501  503 -0.00000000000E+00 -0.00000000000E+00 -0.26441456802E+03  0.26441456802E+03  0.00000000000E+00 0.  1.
          6    1    1    2  501    0  0.64587024449E+02  0.19763647693E+02 -0.19823675997E+03  0.27164112079E+03  0.17300000000E+03 0.  1.
         -6    1    1    2    0  502 -0.64587024449E+02 -0.19763647693E+02  0.26306339745E+03  0.32201465273E+03  0.17300000000E+03 0.  1.
</event>
<event>
 4    1  0.5900714E+000  0.1000000E+03  0.7546771E-02  0.1280296E+00
         21   -1    0    0  503  502  0.00000000000E+00  0.00000000000E+00  0.21369676881E+03  0.21369676881E+03  0.00000000000E+00 0.  1.
         21   -1    0    0  501  503 -0.00000000000E+00 -0.00000000000E+00 -0.89108548583E+03  0.89108548583E+03  0.00000000000E+00 0.  1.
          6    1    1    2  501    0  0.13174586931E+03 -0.33371479359E+03 -0.56432621070E+03  0.69073555694E+03  0.17300000000E+03 0.  1.
         -6    1    1    2    0  502 -0.13174586931E+03  0.33371479359E+03 -0.11306250632E+03  0.41404669770E+03  0.17300000000E+03 0.  1.
</event>
<event>
 4    1  0.5900714E+000  0.1000000E+03  0.7546771E-02  0.1280296E+00
         21   -1    0    0  501  502  0.00000000000E+00  0.00000000000E+00  0.51481917531E+03  0.51481917531E+03  0.00000000000E+00 0.  1.
         21   -1    0    0  502  503 -0.00000000000E+00 -0.00000000000E+00 -0.25733155836E+03  0.25733155836E+03  0.00000000000E+00 0. -1.
          6    1    1    2  501    0  0.16333358874E+03  0.12428207232E+03  0.38948599612E+03  0.47302456161E+03  0.17300000000E+03 0. -1.
         -6    1    1    2    0  503 -0.16333358874E+03 -0.12428207232E+03 -0.13199837917E+03  0.29912617206E+03  0.17300000000E+03 0.  1.
</event>
<event>
 4    1  0.5900714E+000  0.1000000E+03  0.7546771E-02  0.1280296E+00
         21   -1    0    0  503  502  0.00000000000E+00  0.00000000000E+00  0.55888225289E+03  0.55888225289E+03  0.00000000000E+00 0.  1.
         21   -1    0    0  501  503 -0.00000000000E+00 -0.00000000000E+00 -0.15746748455E+03  0.15746748455E+03  0.00000000000E+00 0.  1.
          6    1    1    2  501    0  0.21719384071E+02  0.14885371068E+03 -0.26610219553E+02  0.23079484962E+03  0.17300000000E+03 0.  1.
         -6    1    1    2    0  502 -0.21719384071E+02 -0.14885371068E+03  0.42802498789E+03  0.48555488782E+03  0.17300000000E+03 0.  1.
</event>
<event>
 4    1  0.5900714E+000  0.1000000E+03  0.7546771E-02  0.1280296E+00
         21   -1    0    0  503  502  0.00000000000E+00  0.00000000000E+00  0.53422206635E+02  0.53422206635E+02  0.00000000000E+00 0.  1.
         21   -1    0    0  501  503 -0.00000000000E+00 -0.00000000000E+00 -0.91861968340E+03  0.91861968340E+03  0.00000000000E+00 0.  1.
          6    1    1    2  501    0  0.38589182959E+02  0.12067855121E+03 -0.55461954929E+03  0.59462953359E+03  0.17300000000E+03 0.  1.
         -6    1    1    2    0  502 -0.38589182959E+02 -0.12067855121E+03 -0.31057792747E+03  0.37741235644E+03  0.17300000000E+03 0.  1.
</event>
<event>
 4    1  0.5900714E+000  0.1000000E+03  0.7546771E-02  0.1280296E+00
         21   -1    0    0  501  502  0.00000000000E+00  0.00000000000E+00  0.67098035856E+03  0.67098035856E+03  0.00000000000E+00 0.  1.
         21   -1    0    0  502  503 -0.00000000000E+00 -0.00000000000E+00 -0.55640532075E+02  0.55640532075E+02  0.00000000000E+00 0.  1.
          6    1    1    2  501    0  0.52179482759E+02  0.30774123948E+02  0.42258320483E+03  0.46062491262E+03  0.17300000000E+03 0.  1.
         -6    1    1    2    0  503 -0.52179482759E+02 -0.30774123948E+02  0.19275662165E+03  0.26599597801E+03  0.17300000000E+03 0.  1.
</event>
<event>
 4    1  0.5900714E+000  0.1000000E+03  0.7546771E-02  0.1280296E+00
         21   -1    0    0  501  502  0.00000000000E+00  0.00000000000E+00  0.22484155000E+04  0.22484155000E+04  0.00000000000E+00 0.  1.
         21   -1    0    0  502  503 -0.00000000000E+00 -0.00000000000E+00 -0.29911544224E+02  0.29911544224E+02  0.00000000000E+00 0.  1.
          6    1    1    2  501    0 -0.78046001089E+02 -0.32017292080E+02  0.18727210867E+04  0.18825858690E+04  0.17300000000E+03 0.  1.
         -6    1    1    2    0  503  0.78046001089E+02  0.32017292080E+02  0.34578286899E+03  0.39574117522E+03  0.17300000000E+03 0.  1.
</event>
<event>
 4    1  0.5900714E+000  0.1000000E+03  0.7546771E-02  0.1280296E+00
         21   -1    0    0  501  502  0.00000000000E+00  0.00000000000E+00  0.49198348481E+03  0.49198348481E+03  0.00000000000E+00 0. -1.
         21   -1    0    0  502  503 -0.00000000000E+00 -0.00000000000E+00 -0.11345448702E+03  0.11345448702E+03  0.00000000000E+00 0.  1.
          6    1    1    2  501    0 -0.66880720947E+02 -0.14633959915E+03  0.19009958965E+03  0.30324109731E+03  0.17300000000E+03 0. -1.
         -6    1    1    2    0  503  0.66880720947E+02  0.14633959915E+03  0.18842940814E+03  0.30219687451E+03  0.17300000000E+03 0. -1.
</event>
<event>
 4    1  0.5900714E+000  0.1000000E+03  0.7546771E-02  0.1280296E+00
         21   -1    0    0  501  502  0.00000000000E+00  0.00000000000E+00  0.24630014376E+03  0.24630014376E+03  0.00000000000E+00 0. -1.
         21   -1    0    0  502  503 -0.00000000000E+00 -0.00000000000E+00 -0.94708460085E+03  0.94708460085E+03  0.00000000000E+00 0.  1.
          6    1    1    2  501    0  0.38380079976E+03  0.11952339312E+03 -0.97958297688E+02  0.44845704754E+03  0.17300000000E+03 0. -1.
         -6    1    1    2    0  503 -0.38380079976E+03 -0.11952339312E+03 -0.60282615940E+03  0.74492769707E+03  0.17300000000E+03 0. -1.
</event>
<event>
 4    1  0.5900714E+000  0.1000000E+03  0.7546771E-02  0.1280296E+00
         21   -1    0    0  501  502  0.00000000000E+00  0.00000000000E+00  0.99519473678E+02  0.99519473678E+02  0.00000000000E+00 0. -1.
         21   -1    0    0  502  503 -0.00000000000E+00 -0.00000000000E+00 -0.39279372211E+03  0.39279372211E+03  0.00000000000E+00 0.  1.
          6    1    1    2  501    0 -0.94723560206E+02  0.21329478818E+00 -0.16375445740E+03  0.25635350723E+03  0.17300000000E+03 0. -1.
         -6    1    1    2    0  503  0.94723560206E+02 -0.21329478818E+00 -0.12951979103E+03  0.23595968855E+03  0.17300000000E+03 0. -1.
</event>
<event>
 4    1  0.5900714E+000  0.1000000E+03  0.7546771E-02  0.1280296E+00
         21   -1    0    0  501  502  0.00000000000E+00  0.00000000000E+00  0.13056431609E+03  0.13056431609E+03  0.00000000000E+00 0. -1.
         21   -1    0    0  502  503 -0.00000000000E+00 -0.00000000000E+00 -0.27483212046E+03  0.27483212046E+03  0.00000000000E+00 0. -1.
          6    1    1    2  501    0 -0.19714756045E+02 -0.53163157670E+02 -0.16129553934E+02  0.18276803728E+03  0.17300000000E+03 0. -1.
         -6    1    1    2    0  503  0.19714756045E+02  0.53163157670E+02 -0.12813825044E+03  0.22262839928E+03  0.17300000000E+03 0. -1.
</event>
<event>
 4    1  0.5900714E+000  0.1000000E+03  0.7546771E-02  0.1280296E+00
         21   -1    0    0  501  502  0.00000000000E+00  0.00000000000E+00  0.12009101735E+03  0.12009101735E+03  0.00000000000E+00 0.  1.
         21   -1    0    0  502  503 -0.00000000000E+00 -0.00000000000E+00 -0.19633729638E+04  0.19633729638E+04  0.00000000000E+00 0.  1.
          6    1    1    2  501    0  0.48792938004E+02  0.31366143817E+03 -0.22616767270E+03  0.42643295460E+03  0.17300000000E+03 0.  1.
         -6    1    1    2    0  503 -0.48792938004E+02 -0.31366143817E+03 -0.16171142738E+04  0.16570310266E+04  0.17300000000E+03 0.  1.
</event>
<event>
 4    1  0.5900714E+000  0.1000000E+03  0.7546771E-02  0.1280296E+00
         21   -1    0    0  503  502  0.00000000000E+00  0.00000000000E+00  0.11749059308E+03  0.11749059308E+03  0.00000000000E+00 0. -1.
         21   -1    0    0  501  503 -0.00000000000E+00 -0.00000000000E+00 -0.75331242746E+03  0.75331242746E+03  0.00000000000E+00 0. -1.
          6    1    1    2  501    0  0.15269427976E+02  0.73478732638E+01 -0.67125797956E+03  0.69339990034E+03  0.17300000000E+03 0. -1.
         -6    1    1    2    0  502 -0.15269427976E+02 -0.73478732638E+01  0.35436145182E+02  0.17740312020E+03  0.17300000000E+03 0. -1.
</event>
<event>
 4    1  0.5900714E+000  0.1000000E+03  0.7546771E-02  0.1280296E+00
         21   -1    0    0  501  502  0.00000000000E+00  0.00000000000E+00  0.48231451946E+03  0.48231451946E+03  0.00000000000E+00 0. -1.
         21   -1    0    0  502  503 -0.00000000000E+00 -0.00000000000E+00 -0.49248385688E+03  0.49248385688E+03  0.00000000000E+00 0. -1.
          6    1    1    2  501    0 -0.10542149553E+03  0.41708152141E+02  0.43624406407E+03  0.48279513783E+03  0.17300000000E+03 0. -1.
         -6    1    1    2    0  503  0.10542149553E+03 -0.41708152141E+02 -0.44641340149E+03  0.49200323851E+03  0.17300000000E+03 0. -1.
</event>
<event>
 4    1  0.5900714E+000  0.1000000E+03  0.7546771E-02  0.1280296E+00
         21   -1    0    0  501  502  0.00000000000E+00  0.00000000000E+00  0.10855553926E+04  0.10855553926E+04  0.00000000000E+00 0. -1.
         21   -1    0    0  502  503 -0.00000000000E+00 -0.00000000000E+00 -0.31650590779E+02  0.31650590779E+02  0.00000000000E+00 0. -1.
          6    1    1    2  501    0  0.86567841221E+01  0.32292159046E+02  0.70037866385E+03  0.72220287747E+03  0.17300000000E+03 0. -1.
         -6    1    1    2    0  503 -0.86567841221E+01 -0.32292159046E+02  0.35352613793E+03  0.39500310587E+03  0.17300000000E+03 0. -1.
</event>
<event>
 4    1  0.5900714E+000  0.1000000E+03  0.7546771E-02  0.1280296E+00
         21   -1    0    0  501  502  0.00000000000E+00  0.00000000000E+00  0.33896268821E+03  0.33896268821E+03  0.00000000000E+00 0. -1.
         21   -1    0    0  502  503 -0.00000000000E+00 -0.00000000000E+00 -0.27406575433E+03  0.27406575433E+03  0.00000000000E+00 0. -1.
          6    1    1    2  501    0 -0.32445613377E+02  0.15449322704E+03  0.22861020247E+03  0.32728046032E+03  0.17300000000E+03 0. -1.
         -6    1    1    2    0  503  0.32445613377E+02 -0.15449322704E+03 -0.16371326860E+03  0.28574798222E+03  0.17300000000E+03 0. -1.
</event>
<event>
 4    1  0.5900714E+000  0.1000000E+03  0.7546771E-02  0.1280296E+00
         21   -1    0    0  501  502  0.00000000000E+00  0.00000000000E+00  0.76320121109E+03  0.76320121109E+03  0.00000000000E+00 0. -1.
         21   -1    0    0  502  503 -0.00000000000E+00 -0.00000000000E+00 -0.17200667043E+03  0.17200667043E+03  0.00000000000E+00 0. -1.
          6    1    1    2  501    0  0.89305462682E+02  0.29060952777E+03  0.41746916287E+03  0.54464563273E+03  0.17300000000E+03 0.  1.
         -6    1    1    2    0  503 -0.89305462682E+02 -0.29060952777E+03  0.17372537779E+03  0.39056224880E+03  0.17300000000E+03 0.  1.
</event>
<event>
 4    1  0.5900714E+000  0.1000000E+03  0.7546771E-02  0.1280296E+00
         21   -1    0    0  501  502  0.00000000000E+00  0.00000000000E+00  0.68777930344E+02  0.68777930344E+02  0.00000000000E+00 0. -1.
         21   -1    0    0  502  503 -0.00000000000E+00 -0.00000000000E+00 -0.10321239286E+04  0.10321239286E+04  0.00000000000E+00 0. -1.
          6    1    1    2  501    0 -0.11639214424E+03 -0.15945706772E+03 -0.38734388644E+03  0.46790808291E+03  0.17300000000E+03 0.  1.
         -6    1    1    2    0  503  0.11639214424E+03  0.15945706772E+03 -0.57600211185E+03  0.63299377607E+03  0.17300000000E+03 0.  1.
</event>
<event>
 4    1  0.5900714E+000  0.1000000E+03  0.7546771E-02  0.1280296E+00
         21   -1    0    0  501  502  0.00000000000E+00  0.00000000000E+00  0.29923540672E+03  0.29923540672E+03  0.00000000000E+00 0. -1.
         21   -1    0    0  502  503 -0.00000000000E+00 -0.00000000000E+00 -0.12131967582E+03  0.12131967582E+03  0.00000000000E+00 0. -1.
          6    1    1    2  501    0 -0.56870973361E+02 -0.10881241030E+02  0.14962134281E+03  0.23594121141E+03  0.17300000000E+03 0.  1.
         -6    1    1    2    0  503  0.56870973361E+02  0.10881241030E+02  0.28294388092E+02  0.18461387113E+03  0.17300000000E+03 0.  1.
</event>
<event>
 4    1  0.5900714E+000  0.1000000E+03  0.7546771E-02  0.1280296E+00
         21   -1    0    0  501  502  0.00000000000E+00  0.00000000000E+00  0.12484505359E+03  0.12484505359E+03  0.00000000000E+00 0. -1.
         21   -1    0    0  502  503 -0.00000000000E+00 -0.00000000000E+00 -0.46953635447E+03  0.46953635447E+03  0.00000000000E+00 0. -1.
          6    1    1    2  501    0 -0.13149441095E+03  0.33813380427E+02 -0.48035248451E+02  0.22510111039E+03  0.17300000000E+03 0.  1.
         -6    1    1    2    0  503  0.13149441095E+03 -0.33813380427E+02 -0.29665605243E+03  0.36928029767E+03  0.17300000000E+03 0.  1.
</event>
<event>
 4    1  0.5900714E+000  0.1000000E+03  0.7546771E-02  0.1280296E+00
         21   -1    0    0  501  502  0.00000000000E+00  0.00000000000E+00  0.53469714902E+03  0.53469714902E+03  0.00000000000E+00 0. -1.
         21   -1    0    0  502  503 -0.00000000000E+00 -0.00000000000E+00 -0.91613238190E+02  0.91613238190E+02  0.00000000000E+00 0. -1.
          6    1    1    2  501    0  0.79505592863E+02 -0.18990593262E+01  0.38119158533E+03  0.42609948421E+03  0.17300000000E+03 0.  1.
         -6    1    1    2    0  503 -0.79505592863E+02  0.18990593262E+01  0.61892325504E+02  0.20021090300E+03  0.17300000000E+03 0.  1.
</event>
<event>
 4    1  0.5900714E+000  0.1000000E+03  0.7546771E-02  0.1280296E+00
         21   -1    0    0  503  502  0.00000000000E+00  0.00000000000E+00  0.30983091090E+03  0.30983091090E+03  0.00000000000E+00 0. -1.
         21   -1    0    0  501  503 -0.00000000000E+00 -0.00000000000E+00 -0.16477843044E+04  0.16477843044E+04  0.00000000000E+00 0. -1.
          6    1    1    2  501    0 -0.44797711998E+03  0.17102637245E+03 -0.13548401937E+04  0.14475684683E+04  0.17300000000E+03 0. -1.
         -6    1    1    2    0  502  0.44797711998E+03 -0.17102637245E+03  0.16886800143E+02  0.51004674700E+03  0.17300000000E+03 0. -1.
</event>
<event>
 4    1  0.5900714E+000  0.1000000E+03  0.7546771E-02  0.1280296E+00
         21   -1    0    0  503  502  0.00000000000E+00  0.00000000000E+00  0.92441188797E+02  0.92441188797E+02  0.00000000000E+00 0. -1.
         21   -1    0    0  501  503 -0.00000000000E+00 -0.00000000000E+00 -0.51787802156E+03  0.51787802156E+03  0.00000000000E+00 0. -1.
          6    1    1    2  501    0 -0.54208842160E+02 -0.95041790929E+02 -0.32050546944E+03  0.38029501250E+03  0.17300000000E+03 0. -1.
         -6    1    1    2    0  502  0.54208842160E+02  0.95041790929E+02 -0.10493136332E+03  0.23002419786E+03  0.17300000000E+03 0. -1.
</event>
<event>
 4    1  0.5900714E+000  0.1000000E+03  0.7546771E-02  0.1280296E+00
         21   -1    0    0  503  502  0.00000000000E+00  0.00000000000E+00  0.14128764709E+04  0.14128764709E+04  0.00000000000E+00 0. -1.
         21   -1    0    0  501  503 -0.00000000000E+00 -0.00000000000E+00 -0.29529454795E+02  0.29529454795E+02  0.00000000000E+00 0.  1.
          6    1    1    2  501    0  0.54629497785E+02 -0.89325262768E+02  0.59000702078E+03  0.62369918163E+03  0.17300000000E+03 0. -1.
         -6    1    1    2    0  502 -0.54629497785E+02  0.89325262768E+02  0.79333999534E+03  0.81870674409E+03  0.17300000000E+03 0.  1.
</event>
<event>
 4    1  0.5900714E+000  0.1000000E+03  0.7546771E-02  0.1280296E+00
         21   -1    0    0  503  502  0.00000000000E+00  0.00000000000E+00  0.11548277092E+03  0.11548277092E+03  0.00000000000E+00 0. -1.
         21   -1    0    0  501  503 -0.00000000000E+00 -0.00000000000E+00 -0.31884974284E+03  0.31884974284E+03  0.00000000000E+00 0.  1.
          6    1    1    2  501    0 -0.18887002129E+02 -0.80711303369E+02 -0.96421457647E+02  0.21470242392E+03  0.17300000000E+03 0. -1.
         -6    1    1    2    0  502  0.18887002129E+02  0.80711303369E+02 -0.10694551428E+03  0.21963008984E+03  0.17300000000E+03 0.  1.
</event>
<event>
 4    1  0.5900714E+000  0.1000000E+03  0.7546771E-02  0.1280296E+00
         21   -1    0    0  503  502  0.00000000000E+00  0.00000000000E+00  0.18512815027E+03  0.18512815027E+03  0.00000000000E+00 0. -1.
         21   -1    0    0  501  503 -0.00000000000E+00 -0.00000000000E+00 -0.65744656389E+03  0.65744656389E+03  0.00000000000E+00 0.  1.
          6    1    1    2  501    0  0.13742815818E+03  0.20357993695E+02 -0.56126657231E+03  0.60353136767E+03  0.17300000000E+03 0.  1.
         -6    1    1    2    0  502 -0.13742815818E+03 -0.20357993695E+02  0.88948158689E+02  0.23904334649E+03  0.17300000000E+03 0. -1.
</event>
<event>
 4    1  0.5900714E+000  0.1000000E+03  0.7546771E-02  0.1280296E+00
         21   -1    0    0  503  502  0.00000000000E+00  0.00000000000E+00  0.11791758954E+04  0.11791758954E+04  0.00000000000E+00 0. -1.
         21   -1    0    0  501  503 -0.00000000000E+00 -0.00000000000E+00 -0.55843619880E+02  0.55843619880E+02  0.00000000000E+00 0.  1.
          6    1    1    2  501    0 -0.13008505595E+03 -0.69107113683E+02  0.27468307861E+03  0.35647960477E+03  0.17300000000E+03 0.  1.
         -6    1    1    2    0  502  0.13008505595E+03  0.69107113683E+02  0.84864919694E+03  0.87853991054E+03  0.17300000000E+03 0. -1.
</event>
<event>
 4    1  0.5900714E+000  0.1000000E+03  0.7546771E-02  0.1280296E+00
         21   -1    0    0  503  502  0.00000000000E+00  0.00000000000E+00  0.19944918220E+04  0.19944918220E+04  0.00000000000E+00 0. -1.
         21   -1    0    0  501  503 -0.00000000000E+00 -0.00000000000E+00 -0.20658576340E+03  0.20658576340E+03  0.00000000000E+00 0.  1.
          6    1    1    2  501    0  0.12185823303E+03 -0.12205260398E+03 -0.12377401157E+03  0.27385264841E+03  0.17300000000E+03 0.  1.
         -6    1    1    2    0  502 -0.12185823303E+03  0.12205260398E+03  0.19116800702E+04  0.19272249370E+04  0.17300000000E+03 0. -1.
</event>
<event>
 4    1  0.5900714E+000  0.1000000E+03  0.7546771E-02  0.1280296E+00
         21   -1    0    0  503  502  0.00000000000E+00  0.00000000000E+00  0.11247274053E+03  0.11247274053E+03  0.00000000000E+00 0. -1.
         21   -1    0    0  501  503 -0.00000000000E+00 -0.00000000000E+00 -0.86922714402E+03  0.86922714402E+03  0.00000000000E+00 0.  1.
          6    1    1    2  501    0 -0.97247530415E+01  0.25903599899E+03 -0.41812698019E+03  0.52149150631E+03  0.17300000000E+03 0.  1.
         -6    1    1    2    0  502  0.97247530415E+01 -0.25903599899E+03 -0.33862742330E+03  0.46020837824E+03  0.17300000000E+03 0. -1.
</event>
<event>
 4    1  0.5900714E+000  0.1000000E+03  0.7546771E-02  0.1280296E+00
         21   -1    0    0  501  502  0.00000000000E+00  0.00000000000E+00  0.52369963716E+02  0.52369963716E+02  0.00000000000E+00 0. -1.
         21   -1    0    0  502  503 -0.00000000000E+00 -0.00000000000E+00 -0.68228298474E+03  0.68228298474E+03  0.00000000000E+00 0. -1.
          6    1    1    2  501    0 -0.69479551258E+02  0.21676983677E+02 -0.35861852433E+03  0.40476356760E+03  0.17300000000E+03 0. -1.
         -6    1    1    2    0  503  0.69479551258E+02 -0.21676983677E+02 -0.27129449669E+03  0.32988938085E+03  0.17300000000E+03 0. -1.
</event>
<event>
 4    1  0.5900714E+000  0.1000000E+03  0.7546771E-02  0.1280296E+00
         21   -1    0    0  501  502  0.00000000000E+00  0.00000000000E+00  0.75874449590E+02  0.75874449590E+02  0.00000000000E+00 0. -1.
         21   -1    0    0  502  503 -0.00000000000E+00 -0.00000000000E+00 -0.47572808900E+03  0.47572808900E+03  0.00000000000E+00 0. -1.
          6    1    1    2  501    0  0.54233325543E+02  0.53272868987E+02 -0.17135594593E+03  0.25509040040E+03  0.17300000000E+03 0. -1.
         -6    1    1    2    0  503 -0.54233325543E+02 -0.53272868987E+02 -0.22849769348E+03  0.29651213819E+03  0.17300000000E+03 0. -1.
</event>
<event>
 4    1  0.5900714E+000  0.1000000E+03  0.7546771E-02  0.1280296E+00
         21   -1    0    0  501  502  0.00000000000E+00  0.00000000000E+00  0.80737641626E+02  0.80737641626E+02  0.00000000000E+00 0. -1.
         21   -1    0    0  502  503 -0.00000000000E+00 -0.00000000000E+00 -0.38967648349E+03  0.38967648349E+03  0.00000000000E+00 0. -1.
          6    1    1    2  501    0 -0.27794613592E+02  0.61385148446E+01 -0.19010883626E+03  0.25861282167E+03  0.17300000000E+03 0. -1.
         -6    1    1    2    0  503  0.27794613592E+02 -0.61385148446E+01 -0.11883000561E+03  0.21180130345E+03  0.17300000000E+03 0. -1.
</event>
<event>
 4    1  0.5900714E+000  0.1000000E+03  0.7546771E-02  0.1280296E+00
         21   -1    0    0  503  502  0.00000000000E+00  0.00000000000E+00  0.96212675458E+03  0.96212675458E+03  0.00000000000E+00 0.  1.
         21   -1    0    0  501  503 -0.00000000000E+00 -0.00000000000E+00 -0.16441415960E+03  0.16441415960E+03  0.00000000000E+00 0.  1.
          6    1    1    2  501    0  0.12180836619E+03  0.58783069030E+02 -0.70777684316E+02  0.23071889362E+03  0.17300000000E+03 0.  1.
         -6    1    1    2    0  502 -0.12180836619E+03 -0.58783069030E+02  0.86849027930E+03  0.89582202056E+03  0.17300000000E+03 0.  1.
</event>
<event>
 4    1  0.5900714E+000  0.1000000E+03  0.7546771E-02  0.1280296E+00
         21   -1    0    0  501  502  0.00000000000E+00  0.00000000000E+00  0.21558476246E+03  0.21558476246E+03  0.00000000000E+00 0.  1.
         21   -1    0    0  502  503 -0.00000000000E+00 -0.00000000000E+00 -0.15413008146E+03  0.15413008146E+03  0.00000000000E+00 0. -1.
          6    1    1    2  501    0 -0.26043664428E+02  0.42410894912E+02  0.16498322227E+01  0.18002410508E+03  0.17300000000E+03 0.  1.
         -6    1    1    2    0  503  0.26043664428E+02 -0.42410894912E+02  0.59804848773E+02  0.18969073884E+03  0.17300000000E+03 0. -1.
</event>
<event>
 4    1  0.5900714E+000  0.1000000E+03  0.7546771E-02  0.1280296E+00
         21   -1    0    0  501  502  0.00000000000E+00  0.00000000000E+00  0.18703469524E+03  0.18703469524E+03  0.00000000000E+00 0.  1.
         21   -1    0    0  502  503 -0.00000000000E+00 -0.00000000000E+00 -0.34400713978E+03  0.34400713978E+03  0.00000000000E+00 0. -1.
          6    1    1    2  501    0 -0.12087972419E+03  0.99186356138E+02  0.25994593818E+02  0.23463708120E+03  0.17300000000E+03 0.  1.
         -6    1    1    2    0  503  0.12087972419E+03 -0.99186356138E+02 -0.18296703836E+03  0.29640475383E+03  0.17300000000E+03 0. -1.
</event>
<event>
 4    1  0.5900714E+000  0.1000000E+03  0.7546771E-02  0.1280296E+00
         21   -1    0    0  501  502  0.00000000000E+00  0.00000000000E+00  0.18733022714E+03  0.18733022714E+03  0.00000000000E+00 0.  1.
         21   -1    0    0  502  503 -0.00000000000E+00 -0.00000000000E+00 -0.43400847522E+03  0.43400847522E+03  0.00000000000E+00 0. -1.
          6    1    1    2  501    0 -0.14919926211E+03 -0.37479512845E+02  0.58026101044E+02  0.23866537683E+03  0.17300000000E+03 0.  1.
         -6    1    1    2    0  503  0.14919926211E+03  0.37479512845E+02 -0.30470434913E+03  0.38267332553E+03  0.17300000000E+03 0. -1.
</event>
<event>
 4    1  0.5900714E+000  0.1000000E+03  0.7546771E-02  0.1280296E+00
         21   -1    0    0  501  502  0.00000000000E+00  0.00000000000E+00  0.77345144182E+02  0.77345144182E+02  0.00000000000E+00 0.  1.
         21   -1    0    0  502  503 -0.00000000000E+00 -0.00000000000E+00 -0.10580535340E+04  0.10580535340E+04  0.00000000000E+00 0.  1.
          6    1    1    2  501    0  0.14522791333E+03 -0.80108618598E+02 -0.18038176503E+03  0.29995852837E+03  0.17300000000E+03 0.  1.
         -6    1    1    2    0  503 -0.14522791333E+03  0.80108618598E+02 -0.80032662479E+03  0.83544014982E+03  0.17300000000E+03 0.  1.
</event>
<event>
 4    1  0.5900714E+000  0.1000000E+03  0.7546771E-02  0.1280296E+00
         21   -1    0    0  503  502  0.00000000000E+00  0.00000000000E+00  0.48437248946E+03  0.48437248946E+03  0.00000000000E+00 0. -1.
         21   -1    0    0  501  503 -0.00000000000E+00 -0.00000000000E+00 -0.45307802361E+03  0.45307802361E+03  0.00000000000E+00 0. -1.
          6    1    1    2  501    0  0.35446298099E+03 -0.73178798018E+02  0.25771269406E+03  0.47680601301E+03  0.17300000000E+03 0.  1.
         -6    1    1    2    0  502 -0.35446298099E+03  0.73178798018E+02 -0.22641822820E+03  0.46064450005E+03  0.17300000000E+03 0.  1.
</event>
<event>
 4    1  0.5900714E+000  0.1000000E+03  0.7546771E-02  0.1280296E+00
         21   -1    0    0  503  502  0.00000000000E+00  0.00000000000E+00  0.75078786859E+03  0.75078786859E+03  0.00000000000E+00 0. -1.
         21   -1    0    0  501  503 -0.00000000000E+00 -0.00000000000E+00 -0.63920932762E+02  0.63920932762E+02  0.00000000000E+00 0.  1.
          6    1    1    2  501    0 -0.67157040834E+02 -0.10043348555E+03  0.45289224881E+03  0.49963721057E+03  0.17300000000E+03 0. -1.
         -6    1    1    2    0  502  0.67157040834E+02  0.10043348555E+03  0.23397468702E+03  0.31507159078E+03  0.17300000000E+03 0.  1.
</event>
<event>
 4    1  0.5900714E+000  0.1000000E+03  0.7546771E-02  0.1280296E+00
         21   -1    0    0  503  502  0.00000000000E+00  0.00000000000E+00  0.32444742541E+03  0.32444742541E+03  0.00000000000E+00 0. -1.
         21   -1    0    0  501  503 -0.00000000000E+00 -0.00000000000E+00 -0.12493217482E+03  0.12493217482E+03  0.00000000000E+00 0.  1.
          6    1    1    2  501    0  0.62454326077E+02  0.11481591216E+02  0.92800236853E+01  0.18451961582E+03  0.17300000000E+03 0. -1.
         -6    1    1    2    0  502 -0.62454326077E+02 -0.11481591216E+02  0.19023522691E+03  0.26485998440E+03  0.17300000000E+03 0.  1.
</event>
<event>
 4    1  0.5900714E+000  0.1000000E+03  0.7546771E-02  0.1280296E+00
         21   -1    0    0  503  502  0.00000000000E+00  0.00000000000E+00  0.20162219214E+04  0.20162219214E+04  0.00000000000E+00 0. -1.
         21   -1    0    0  501  503 -0.00000000000E+00 -0.00000000000E+00 -0.76108216342E+02  0.76108216342E+02  0.00000000000E+00 0.  1.
          6    1    1    2  501    0 -0.85123395927E+02 -0.60201593783E+01  0.59530038213E+02  0.20187882579E+03  0.17300000000E+03 0. -1.
         -6    1    1    2    0  502  0.85123395927E+02  0.60201593783E+01  0.18805836668E+04  0.18904513119E+04  0.17300000000E+03 0.  1.
</event>
<event>
 4    1  0.5900714E+000  0.1000000E+03  0.7546771E-02  0.1280296E+00
         21   -1    0    0  501  502  0.00000000000E+00  0.00000000000E+00  0.88836723559E+03  0.88836723559E+03  0.00000000000E+00 0.  1.
         21   -1    0    0  502  503 -0.00000000000E+00 -0.00000000000E+00 -0.47060022552E+02  0.47060022552E+02  0.00000000000E+00 0.  1.
          6    1    1    2  501    0 -0.94971747059E+02 -0.14837139107E+02  0.53813777356E+03  0.57337687150E+03  0.17300000000E+03 0.  1.
         -6    1    1    2    0  503  0.94971747059E+02  0.14837139107E+02  0.30316943947E+03  0.36205038664E+03  0.17300000000E+03 0.  1.
</event>
<event>
 4    1  0.5900714E+000  0.1000000E+03  0.7546771E-02  0.1280296E+00
         21   -1    0    0  501  502  0.00000000000E+00  0.00000000000E+00  0.28338765410E+03  0.28338765410E+03  0.00000000000E+00 0.  1.
         21   -1    0    0  502  503 -0.00000000000E+00 -0.00000000000E+00 -0.33879901215E+03  0.33879901215E+03  0.00000000000E+00 0.  1.
          6    1    1    2  501    0  0.11205733924E+03  0.10993264999E+03  0.17667566951E+03  0.29289132286E+03  0.17300000000E+03 0.  1.
         -6    1    1    2    0  503 -0.11205733924E+03 -0.10993264999E+03 -0.23208702757E+03  0.32929534339E+03  0.17300000000E+03 0.  1.
</event>
<event>
 4    1  0.5900714E+000  0.1000000E+03  0.7546771E-02  0.1280296E+00
         21   -1    0    0  503  502  0.00000000000E+00  0.00000000000E+00  0.48518713517E+03  0.48518713517E+03  0.00000000000E+00 0.  1.
         21   -1    0    0  501  503 -0.00000000000E+00 -0.00000000000E+00 -0.18353653249E+03  0.18353653249E+03  0.00000000000E+00 0. -1.
          6    1    1    2  501    0  0.56995343503E+02  0.11859603200E+03 -0.78275019768E+02  0.23101832548E+03  0.17300000000E+03 0. -1.
         -6    1    1    2    0  502 -0.56995343503E+02 -0.11859603200E+03  0.37992562245E+03  0.43770534219E+03  0.17300000000E+03 0.  1.
</event>
<event>
 4    1  0.5900714E+000  0.1000000E+03  0.7546771E-02  0.1280296E+00
         21   -1    0    0  503  502  0.00000000000E+00  0.00000000000E+00  0.71705423787E+02  0.71705423787E+02  0.00000000000E+00 0.  1.
         21   -1    0    0  501  503 -0.00000000000E+00 -0.00000000000E+00 -0.77105083981E+03  0.77105083981E+03  0.00000000000E+00 0. -1.
          6    1    1    2  501    0  0.13039057204E+03  0.89601787834E+02 -0.38219494390E+03  0.44836609685E+03  0.17300000000E+03 0. -1.
         -6    1    1    2    0  502 -0.13039057204E+03 -0.89601787834E+02 -0.31715047212E+03  0.39439016675E+03  0.17300000000E+03 0.  1.
</event>
<event>
 4    1  0.5900714E+000  0.1000000E+03  0.7546771E-02  0.1280296E+00
         21   -1    0    0  503  502  0.00000000000E+00  0.00000000000E+00  0.63426698265E+03  0.63426698265E+03  0.00000000000E+00 0. -1.
         21   -1    0    0  501  503 -0.00000000000E+00 -0.00000000000E+00 -0.21020739153E+03  0.21020739153E+03  0.00000000000E+00 0.  1.
          6    1    1    2  501    0  0.14128569619E+03  0.23204647855E+03  0.13109483413E+02  0.32234775431E+03  0.17300000000E+03 0.  1.
         -6    1    1    2    0  502 -0.14128569619E+03 -0.23204647855E+03  0.41095010770E+03  0.52212661987E+03  0.17300000000E+03 0. -1.
</event>
<event>
 4    1  0.5900714E+000  0.1000000E+03  0.7546771E-02  0.1280296E+00
         21   -1    0    0  503  502  0.00000000000E+00  0.00000000000E+00  0.11894941022E+03  0.11894941022E+03  0.00000000000E+00 0. -1.
         21   -1    0    0  501  503 -0.00000000000E+00 -0.00000000000E+00 -0.67791602708E+03  0.67791602708E+03  0.00000000000E+00 0.  1.
          6    1    1    2  501    0  0.57438217505E+02  0.20925491066E+03 -0.36392498180E+03  0.45766489798E+03  0.17300000000E+03 0.  1.
         -6    1    1    2    0  502 -0.57438217505E+02 -0.20925491066E+03 -0.19504163506E+03  0.33920053932E+03  0.17300000000E+03 0. -1.
</event>
<event>
 4    1  0.5900714E+000  0.1000000E+03  0.7546771E-02  0.1280296E+00
         21   -1    0    0  501  502  0.00000000000E+00  0.00000000000E+00  0.11036776622E+03  0.11036776622E+03  0.00000000000E+00 0. -1.
         21   -1    0    0  502  503 -0.00000000000E+00 -0.00000000000E+00 -0.62038297233E+03  0.62038297233E+03  0.00000000000E+00 0. -1.
          6    1    1    2  501    0  0.10863541993E+03  0.44658087716E+02 -0.35355976296E+02  0.21207320510E+03  0.17300000000E+03 0. -1.
         -6    1    1    2    0  503 -0.10863541993E+03 -0.44658087716E+02 -0.47465922982E+03  0.51867753346E+03  0.17300000000E+03 0. -1.
</event>
<event>
 4    1  0.5900714E+000  0.1000000E+03  0.7546771E-02  0.1280296E+00
         21   -1    0    0  501  502  0.00000000000E+00  0.00000000000E+00  0.18607007647E+03  0.18607007647E+03  0.00000000000E+00 0. -1.
         21   -1    0    0  502  503 -0.00000000000E+00 -0.00000000000E+00 -0.25012039775E+03  0.25012039775E+03  0.00000000000E+00 0.  1.
          6    1    1    2  501    0 -0.82912990528E+02 -0.81826923443E+02 -0.87772097845E+02  0.22628113169E+03  0.17300000000E+03 0. -1.
         -6    1    1    2    0  503  0.82912990528E+02  0.81826923443E+02  0.23721776565E+02  0.20990934253E+03  0.17300000000E+03 0.  1.
</event>
<event>
 4    1  0.5900714E+000  0.1000000E+03  0.7546771E-02  0.1280296E+00
         21   -1    0    0  503  502  0.00000000000E+00  0.00000000000E+00  0.79953728021E+03  0.79953728021E+03  0.00000000000E+00 0.  1.
         21   -1    0    0  501  503 -0.00000000000E+00 -0.00000000000E+00 -0.52698866743E+02  0.52698866743E+02  0.00000000000E+00 0.  1.
          6    1    1    2  501    0 -0.21174156364E+02  0.10724523196E+03  0.34021596216E+03  0.39702113997E+03  0.17300000000E+03 0.  1.
         -6    1    1    2    0  502  0.21174156364E+02 -0.10724523196E+03  0.40662245131E+03  0.45521500698E+03  0.17300000000E+03 0.  1.
</event>
<event>
 4    1  0.5900714E+000  0.1000000E+03  0.7546771E-02  0.1280296E+00
         21   -1    0    0  501  502  0.00000000000E+00  0.00000000000E+00  0.43473174820E+03  0.43473174820E+03  0.00000000000E+00 0. -1.
         21   -1    0    0  502  503 -0.00000000000E+00 -0.00000000000E+00 -0.78178521431E+02  0.78178521431E+02  0.00000000000E+00 0. -1.
          6    1    1    2  501    0  0.21458733782E+02 -0.38001687113E+02  0.24282524779E+03  0.30132657772E+03  0.17300000000E+03 0. -1.
         -6    1    1    2    0  503 -0.21458733782E+02  0.38001687113E+02  0.11372797898E+03  0.21158369191E+03  0.17300000000E+03 0. -1.
</event>
<event>
 4    1  0.5900714E+000  0.1000000E+03  0.7546771E-02  0.1280296E+00
         21   -1    0    0  501  502  0.00000000000E+00  0.00000000000E+00  0.28898623129E+03  0.28898623129E+03  0.00000000000E+00 0. -1.
         21   -1    0    0  502  503 -0.00000000000E+00 -0.00000000000E+00 -0.22961088861E+03  0.22961088861E+03  0.00000000000E+00 0. -1.
          6    1    1    2  501    0  0.10196800890E+03 -0.13962065311E+03 -0.51680454774E+02  0.24998254143E+03  0.17300000000E+03 0. -1.
         -6    1    1    2    0  503 -0.10196800890E+03  0.13962065311E+03  0.11105579746E+03  0.26861457847E+03  0.17300000000E+03 0. -1.
</event>
<event>
 4    1  0.5900714E+000  0.1000000E+03  0.7546771E-02  0.1280296E+00
         21   -1    0    0  501  502  0.00000000000E+00  0.00000000000E+00  0.25162711720E+03  0.25162711720E+03  0.00000000000E+00 0. -1.
         21   -1    0    0  502  503 -0.00000000000E+00 -0.00000000000E+00 -0.54482413743E+03  0.54482413743E+03  0.00000000000E+00 0. -1.
          6    1    1    2  501    0 -0.15637955838E+03  0.16971440681E+03  0.10311428202E+03  0.30629903903E+03  0.17300000000E+03 0. -1.
         -6    1    1    2    0  503  0.15637955838E+03 -0.16971440681E+03 -0.39631130225E+03  0.49015221559E+03  0.17300000000E+03 0. -1.
</event>
<event>
 4    1  0.5900714E+000  0.1000000E+03  0.7546771E-02  0.1280296E+00
         21   -1    0    0  503  502  0.00000000000E+00  0.00000000000E+00  0.14495733894E+03  0.14495733894E+03  0.00000000000E+00 0.  1.
         21   -1    0    0  501  503 -0.00000000000E+00 -0.00000000000E+00 -0.37172164516E+03  0.37172164516E+03  0.00000000000E+00 0. -1.
          6    1    1    2  501    0 -0.77145522549E+01 -0.10622906922E+03 -0.23835927707E+03  0.31319047628E+03  0.17300000000E+03 0.  1.
         -6    1    1    2    0  502  0.77145522549E+01  0.10622906922E+03  0.11594970855E+02  0.20348850781E+03  0.17300000000E+03 0. -1.
</event>
<event>
 4    1  0.5900714E+000  0.1000000E+03  0.7546771E-02  0.1280296E+00
         21   -1    0    0  503  502  0.00000000000E+00  0.00000000000E+00  0.49833819831E+03  0.49833819831E+03  0.00000000000E+00 0. -1.
         21   -1    0    0  501  503 -0.00000000000E+00 -0.00000000000E+00 -0.79498970750E+02  0.79498970750E+02  0.00000000000E+00 0.  1.
          6    1    1    2  501    0 -0.93916736293E+02 -0.28835872836E+02  0.20064847480E+03  0.28256091619E+03  0.17300000000E+03 0.  1.
         -6    1    1    2    0  502  0.93916736293E+02  0.28835872836E+02  0.21819075276E+03  0.29527625287E+03  0.17300000000E+03 0. -1.
</event>
<event>
 4    1  0.5900714E+000  0.1000000E+03  0.7546771E-02  0.1280296E+00
         21   -1    0    0  503  502  0.00000000000E+00  0.00000000000E+00  0.18781729400E+03  0.18781729400E+03  0.00000000000E+00 0. -1.
         21   -1    0    0  501  503 -0.00000000000E+00 -0.00000000000E+00 -0.19144123515E+03  0.19144123515E+03  0.00000000000E+00 0.  1.
          6    1    1    2  501    0  0.25911203589E+02 -0.13094984483E+02 -0.73815991511E+02  0.19031728690E+03  0.17300000000E+03 0.  1.
         -6    1    1    2    0  502 -0.25911203589E+02  0.13094984483E+02  0.70192050363E+02  0.18894124225E+03  0.17300000000E+03 0. -1.
</event>
<event>
 4    1  0.5900714E+000  0.1000000E+03  0.7546771E-02  0.1280296E+00
         21   -1    0    0  503  502  0.00000000000E+00  0.00000000000E+00  0.13518134579E+03  0.13518134579E+03  0.00000000000E+00 0. -1.
         21   -1    0    0  501  503 -0.00000000000E+00 -0.00000000000E+00 -0.66826305830E+03  0.66826305830E+03  0.00000000000E+00 0.  1.
          6    1    1    2  501    0 -0.99586609718E+02  0.11404671110E+03 -0.52531096485E+03  0.57341499365E+03  0.17300000000E+03 0.  1.
         -6    1    1    2    0  502  0.99586609718E+02 -0.11404671110E+03 -0.77707476502E+01  0.23002941044E+03  0.17300000000E+03 0. -1.
</event>
<event>
 4    1  0.5900714E+000  0.1000000E+03  0.7546771E-02  0.1280296E+00
         21   -1    0    0  503  502  0.00000000000E+00  0.00000000000E+00  0.38258420221E+02  0.38258420221E+02  0.00000000000E+00 0. -1.
         21   -1    0    0  501  503 -0.00000000000E+00 -0.00000000000E+00 -0.17768055633E+04  0.17768055633E+04  0.00000000000E+00 0.  1.
          6    1    1    2  501    0  0.17351523485E+03  0.13587966652E+01 -0.11794237712E+04  0.12046073282E+04  0.17300000000E+03 0. -1.
         -6    1    1    2    0  502 -0.17351523485E+03 -0.13587966652E+01 -0.55912337180E+03  0.61045665525E+03  0.17300000000E+03 0. -1.
</event>
<event>
 4    1  0.5900714E+000  0.1000000E+03  0.7546771E-02  0.1280296E+00
         21   -1    0    0  503  502  0.00000000000E+00  0.00000000000E+00  0.62734072830E+02  0.62734072830E+02  0.00000000000E+00 0. -1.
         21   -1    0    0  501  503 -0.00000000000E+00 -0.00000000000E+00 -0.79267039179E+03  0.79267039179E+03  0.00000000000E+00 0.  1.
          6    1    1    2  501    0 -0.11863122405E+03 -0.16502486804E+02 -0.50659675854E+03  0.54855717583E+03  0.17300000000E+03 0. -1.
         -6    1    1    2    0  502  0.11863122405E+03  0.16502486804E+02 -0.22333956041E+03  0.30684728879E+03  0.17300000000E+03 0. -1.
</event>
<event>
 4    1  0.5900714E+000  0.1000000E+03  0.7546771E-02  0.1280296E+00
         21   -1    0    0  501  502  0.00000000000E+00  0.00000000000E+00  0.10911728609E+03  0.10911728609E+03  0.00000000000E+00 0.  1.
         21   -1    0    0  502  503 -0.00000000000E+00 -0.00000000000E+00 -0.93631707699E+03  0.93631707699E+03  0.00000000000E+00 0.  1.
          6    1    1    2  501    0 -0.17212430022E+03 -0.13944399574E+02 -0.76790324024E+02  0.25621665611E+03  0.17300000000E+03 0.  1.
         -6    1    1    2    0  503  0.17212430022E+03  0.13944399574E+02 -0.75040946687E+03  0.78921770696E+03  0.17300000000E+03 0.  1.
</event>
<event>
 4    1  0.5900714E+000  0.1000000E+03  0.7546771E-02  0.1280296E+00
         21   -1    0    0  503  502  0.00000000000E+00  0.00000000000E+00  0.16382438966E+03  0.16382438966E+03  0.00000000000E+00 0. -1.
         21   -1    0    0  501  503 -0.00000000000E+00 -0.00000000000E+00 -0.93225026759E+03  0.93225026759E+03  0.00000000000E+00 0. -1.
          6    1    1    2  501    0 -0.18681614577E+03  0.69398370567E+02 -0.78841884119E+03  0.83141426215E+03  0.17300000000E+03 0. -1.
         -6    1    1    2    0  502  0.18681614577E+03 -0.69398370567E+02  0.19992963262E+02  0.26466039510E+03  0.17300000000E+03 0. -1.
</event>
<event>
 4    1  0.5900714E+000  0.1000000E+03  0.7546771E-02  0.1280296E+00
         21   -1    0    0  503  502  0.00000000000E+00  0.00000000000E+00  0.83885913774E+02  0.83885913774E+02  0.00000000000E+00 0. -1.
         21   -1    0    0  501  503 -0.00000000000E+00 -0.00000000000E+00 -0.70479869279E+03  0.70479869279E+03  0.00000000000E+00 0. -1.
          6    1    1    2  501    0  0.88933869354E+02  0.12275906115E+03 -0.43830766535E+03  0.49499659566E+03  0.17300000000E+03 0. -1.
         -6    1    1    2    0  502 -0.88933869354E+02 -0.12275906115E+03 -0.18260511367E+03  0.29368801091E+03  0.17300000000E+03 0. -1.
</event>
<event>
 4    1  0.5900714E+000  0.1000000E+03  0.7546771E-02  0.1280296E+00
         21   -1    0    0  503  502  0.00000000000E+00  0.00000000000E+00  0.43479661352E+02  0.43479661352E+02  0.00000000000E+00 0.  1.
         21   -1    0    0  501  503 -0.00000000000E+00 -0.00000000000E+00 -0.15129955032E+04  0.15129955032E+04  0.00000000000E+00 0.  1.
          6    1    1    2  501    0 -0.70103741826E+02 -0.40852532197E+02 -0.12538889741E+04  0.12683650986E+04  0.17300000000E+03 0.  1.
         -6    1    1    2    0  502  0.70103741826E+02  0.40852532197E+02 -0.21562686777E+03  0.28811006597E+03  0.17300000000E+03 0.  1.
</event>
<event>
 4    1  0.5900714E+000  0.1000000E+03  0.7546771E-02  0.1280296E+00
         21   -1    0    0  503  502  0.00000000000E+00  0.00000000000E+00  0.42713950341E+02  0.42713950341E+02  0.00000000000E+00 0.  1.
         21   -1    0    0  501  503 -0.00000000000E+00 -0.00000000000E+00 -0.23632576448E+04  0.23632576448E+04  0.00000000000E+00 0.  1.
          6    1    1    2  501    0  0.16289269411E+03  0.18246085360E+03 -0.15607854055E+04  0.15892784762E+04  0.17300000000E+03 0.  1.
         -6    1    1    2    0  502 -0.16289269411E+03 -0.18246085360E+03 -0.75975828904E+03  0.81669311902E+03  0.17300000000E+03 0.  1.
</event>
<event>
 4    1  0.5900714E+000  0.1000000E+03  0.7546771E-02  0.1280296E+00
         21   -1    0    0  503  502  0.00000000000E+00  0.00000000000E+00  0.18817736938E+02  0.18817736938E+02  0.00000000000E+00 0.  1.
         21   -1    0    0  501  503 -0.00000000000E+00 -0.00000000000E+00 -0.22570667205E+04  0.22570667205E+04  0.00000000000E+00 0.  1.
          6    1    1    2  501    0  0.68975878389E+02  0.34662848936E+02 -0.15671806094E+04  0.15785890052E+04  0.17300000000E+03 0.  1.
         -6    1    1    2    0  502 -0.68975878389E+02 -0.34662848936E+02 -0.67106837421E+03  0.69729545227E+03  0.17300000000E+03 0.  1.
</event>
<event>
 4    1  0.5900714E+000  0.1000000E+03  0.7546771E-02  0.1280296E+00
         21   -1    0    0  503  502  0.00000000000E+00  0.00000000000E+00  0.39423778296E+02  0.39423778296E+02  0.00000000000E+00 0. -1.
         21   -1    0    0  501  503 -0.00000000000E+00 -0.00000000000E+00 -0.13002550719E+04  0.13002550719E+04  0.00000000000E+00 0. -1.
          6    1    1    2  501    0  0.11967411845E+03  0.27470884555E+02 -0.86441015571E+03  0.89006205481E+03  0.17300000000E+03 0. -1.
         -6    1    1    2    0  502 -0.11967411845E+03 -0.27470884555E+02 -0.39642113793E+03  0.44961679542E+03  0.17300000000E+03 0. -1.
</event>
<event>
 4    1  0.5900714E+000  0.1000000E+03  0.7546771E-02  0.1280296E+00
         21   -1    0    0  503  502  0.00000000000E+00  0.00000000000E+00  0.62295790382E+02  0.62295790382E+02  0.00000000000E+00 0. -1.
         21   -1    0    0  501  503 -0.00000000000E+00 -0.00000000000E+00 -0.13106289313E+04  0.13106289313E+04  0.00000000000E+00 0. -1.
          6    1    1    2  501    0  0.13838881913E+03 -0.15603159223E+03 -0.84198391092E+03  0.88451298989E+03  0.17300000000E+03 0. -1.
         -6    1    1    2    0  502 -0.13838881913E+03  0.15603159223E+03 -0.40634923002E+03  0.48841173181E+03  0.17300000000E+03 0. -1.
</event>
<event>
 4    1  0.5900714E+000  0.1000000E+03  0.7546771E-02  0.1280296E+00
         21   -1    0    0  503  502  0.00000000000E+00  0.00000000000E+00  0.10555861554E+04  0.10555861554E+04  0.00000000000E+00 0. -1.
         21   -1    0    0  501  503 -0.00000000000E+00 -0.00000000000E+00 -0.40340388439E+02  0.40340388439E+02  0.00000000000E+00 0. -1.
          6    1    1    2  501    0  0.84039251034E+02  0.62568822438E+02  0.39890255948E+03  0.44724680570E+03  0.17300000000E+03 0. -1.
         -6    1    1    2    0  502 -0.84039251034E+02 -0.62568822438E+02  0.61634320752E+03  0.64867973817E+03  0.17300000000E+03 0. -1.
</event>
<event>
 4    1  0.5900714E+000  0.1000000E+03  0.7546771E-02  0.1280296E+00
         21   -1    0    0  501  502  0.00000000000E+00  0.00000000000E+00  0.24166700606E+04  0.24166700606E+04  0.00000000000E+00 0.  1.
         21   -1    0    0  502  503 -0.00000000000E+00 -0.00000000000E+00 -0.51126556479E+02  0.51126556479E+02  0.00000000000E+00 0.  1.
          6    1    1    2  501    0 -0.84879636380E+02  0.15368974162E+03  0.20624703675E+04  0.20771466260E+04  0.17300000000E+03 0.  1.
         -6    1    1    2    0  503  0.84879636380E+02 -0.15368974162E+03  0.30307313668E+03  0.39064999108E+03  0.17300000000E+03 0.  1.
</event>
<event>
 4    1  0.5900714E+000  0.1000000E+03  0.7546771E-02  0.1280296E+00
         21   -1    0    0  501  502  0.00000000000E+00  0.00000000000E+00  0.38027801551E+02  0.38027801551E+02  0.00000000000E+00 0.  1.
         21   -1    0    0  502  503 -0.00000000000E+00 -0.00000000000E+00 -0.92780667859E+03  0.92780667859E+03  0.00000000000E+00 0.  1.
          6    1    1    2  501    0  0.67867082736E+02  0.94779827938E+01 -0.37895700925E+03  0.42217672595E+03  0.17300000000E+03 0.  1.
         -6    1    1    2    0  503 -0.67867082736E+02 -0.94779827938E+01 -0.51082186779E+03  0.54365775419E+03  0.17300000000E+03 0.  1.
</event>
<event>
 4    1  0.5900714E+000  0.1000000E+03  0.7546771E-02  0.1280296E+00
         21   -1    0    0  503  502  0.00000000000E+00  0.00000000000E+00  0.10422183533E+04  0.10422183533E+04  0.00000000000E+00 0.  1.
         21   -1    0    0  501  503 -0.00000000000E+00 -0.00000000000E+00 -0.40203745051E+02  0.40203745051E+02  0.00000000000E+00 0.  1.
          6    1    1    2  501    0  0.66480838878E+02 -0.36715647486E+02  0.29274923165E+03  0.34842338231E+03  0.17300000000E+03 0.  1.
         -6    1    1    2    0  502 -0.66480838878E+02  0.36715647486E+02  0.70926537656E+03  0.73399871600E+03  0.17300000000E+03 0.  1.
</event>
<event>
 4    1  0.5900714E+000  0.1000000E+03  0.7546771E-02  0.1280296E+00
         21   -1    0    0  503  502  0.00000000000E+00  0.00000000000E+00  0.81303341595E+03  0.81303341595E+03  0.00000000000E+00 0.  1.
         21   -1    0    0  501  503 -0.00000000000E+00 -0.00000000000E+00 -0.51687133368E+02  0.51687133368E+02  0.00000000000E+00 0. -1.
          6    1    1    2  501    0 -0.63627530615E+01  0.51488680574E+02  0.17615637822E+03  0.25229276336E+03  0.17300000000E+03 0. -1.
         -6    1    1    2    0  502  0.63627530615E+01 -0.51488680574E+02  0.58518990436E+03  0.61242778596E+03  0.17300000000E+03 0.  1.
</event>
<event>
 4    1  0.5900714E+000  0.1000000E+03  0.7546771E-02  0.1280296E+00
         21   -1    0    0  503  502  0.00000000000E+00  0.00000000000E+00  0.17534198742E+03  0.17534198742E+03  0.00000000000E+00 0.  1.
         21   -1    0    0  501  503 -0.00000000000E+00 -0.00000000000E+00 -0.20778307415E+03  0.20778307415E+03  0.00000000000E+00 0. -1.
          6    1    1    2  501    0 -0.45384780378E+02 -0.60387732168E+02  0.12123784919E+02  0.18916247685E+03  0.17300000000E+03 0. -1.
         -6    1    1    2    0  502  0.45384780378E+02  0.60387732168E+02 -0.44564871648E+02  0.19396258472E+03  0.17300000000E+03 0.  1.
</event>
<event>
 4    1  0.5900714E+000  0.1000000E+03  0.7546771E-02  0.1280296E+00
         21   -1    0    0  501  502  0.00000000000E+00  0.00000000000E+00  0.15270280873E+03  0.15270280873E+03  0.00000000000E+00 0. -1.
         21   -1    0    0  502  503 -0.00000000000E+00 -0.00000000000E+00 -0.24790307830E+03  0.24790307830E+03  0.00000000000E+00 0. -1.
          6    1    1    2  501    0 -0.28482908423E+02 -0.40443300609E+02  0.28607010104E+02  0.18219302309E+03  0.17300000000E+03 0. -1.
         -6    1    1    2    0  503  0.28482908423E+02  0.40443300609E+02 -0.12380727967E+03  0.21841286394E+03  0.17300000000E+03 0. -1.
</event>
<event>
 4    1  0.5900714E+000  0.1000000E+03  0.7546771E-02  0.1280296E+00
         21   -1    0    0  501  502  0.00000000000E+00  0.00000000000E+00  0.91300480590E+02  0.91300480590E+02  0.00000000000E+00 0. -1.
         21   -1    0    0  502  503 -0.00000000000E+00 -0.00000000000E+00 -0.13145688515E+04  0.13145688515E+04  0.00000000000E+00 0. -1.
          6    1    1    2  501    0  0.27351935641E+03  0.12309219799E+03 -0.58874663967E+03  0.68301986301E+03  0.17300000000E+03 0. -1.
         -6    1    1    2    0  503 -0.27351935641E+03 -0.12309219799E+03 -0.63452173123E+03  0.72284946908E+03  0.17300000000E+03 0. -1.
</event>
<event>
 4    1  0.5900714E+000  0.1000000E+03  0.7546771E-02  0.1280296E+00
         21   -1    0    0  501  502  0.00000000000E+00  0.00000000000E+00  0.51615312125E+03  0.51615312125E+03  0.00000000000E+00 0. -1.
         21   -1    0    0  502  503 -0.00000000000E+00 -0.00000000000E+00 -0.12892410656E+03  0.12892410656E+03  0.00000000000E+00 0.  1.
          6    1    1    2  501    0 -0.41828169015E+02  0.96349070887E+02  0.39360058166E+03  0.44258689211E+03  0.17300000000E+03 0.  1.
         -6    1    1    2    0  503  0.41828169015E+02 -0.96349070887E+02 -0.63715669737E+01  0.20249033569E+03  0.17300000000E+03 0.  1.
</event>
<event>
 4    1  0.5900714E+000  0.1000000E+03  0.7546771E-02  0.1280296E+00
         21   -1    0    0  503  502  0.00000000000E+00  0.00000000000E+00  0.25732161171E+03  0.25732161171E+03  0.00000000000E+00 0.  1.
         21   -1    0    0  501  503 -0.00000000000E+00 -0.00000000000E+00 -0.19748416516E+03  0.19748416516E+03  0.00000000000E+00 0.  1.
          6    1    1    2  501    0  0.25808466629E+02  0.61082996675E+02 -0.99623606191E+02  0.21035938853E+03  0.17300000000E+03 0.  1.
         -6    1    1    2    0  502 -0.25808466629E+02 -0.61082996675E+02  0.15946105274E+03  0.24444638834E+03  0.17300000000E+03 0.  1.
</event>
<event>
 4    1  0.5900714E+000  0.1000000E+03  0.7546771E-02  0.1280296E+00
         21   -1    0    0  503  502  0.00000000000E+00  0.00000000000E+00  0.15439532537E+04  0.15439532537E+04  0.00000000000E+00 0.  1.
         21   -1    0    0  501  503 -0.00000000000E+00 -0.00000000000E+00 -0.21970487076E+02  0.21970487076E+02  0.00000000000E+00 0.  1.
          6    1    1    2  501    0 -0.18615479860E+02  0.22291017112E+02  0.52243633507E+03  0.55110085260E+03  0.17300000000E+03 0.  1.
         -6    1    1    2    0  502  0.18615479860E+02 -0.22291017112E+02  0.99954643159E+03  0.10148228882E+04  0.17300000000E+03 0.  1.
</event>
<event>
 4    1  0.5900714E+000  0.1000000E+03  0.7546771E-02  0.1280296E+00
         21   -1    0    0  503  502  0.00000000000E+00  0.00000000000E+00  0.24206632855E+03  0.24206632855E+03  0.00000000000E+00 0.  1.
         21   -1    0    0  501  503 -0.00000000000E+00 -0.00000000000E+00 -0.45916487972E+03  0.45916487972E+03  0.00000000000E+00 0.  1.
          6    1    1    2  501    0 -0.19446653198E+03  0.85843112031E+02 -0.30818140474E+03  0.41242096234E+03  0.17300000000E+03 0.  1.
         -6    1    1    2    0  502  0.19446653198E+03 -0.85843112031E+02  0.91082853570E+02  0.28881024594E+03  0.17300000000E+03 0.  1.
</event>
<event>
 4    1  0.5900714E+000  0.1000000E+03  0.7546771E-02  0.1280296E+00
         21   -1    0    0  503  502  0.00000000000E+00  0.00000000000E+00  0.51654786041E+03  0.51654786041E+03  0.00000000000E+00 0.  1.
         21   -1    0    0  501  503 -0.00000000000E+00 -0.00000000000E+00 -0.13109831020E+03  0.13109831020E+03  0.00000000000E+00 0.  1.
          6    1    1    2  501    0  0.80477371341E+02 -0.13899917276E+03  0.56453932227E+02  0.24272087630E+03  0.17300000000E+03 0.  1.
         -6    1    1    2    0  502 -0.80477371341E+02  0.13899917276E+03  0.32899561798E+03  0.40492529431E+03  0.17300000000E+03 0.  1.
</event>
<event>
 4    1  0.5900714E+000  0.1000000E+03  0.7546771E-02  0.1280296E+00
         21   -1    0    0  503  502  0.00000000000E+00  0.00000000000E+00  0.57712297205E+02  0.57712297205E+02  0.00000000000E+00 0.  1.
         21   -1    0    0  501  503 -0.00000000000E+00 -0.00000000000E+00 -0.10194935172E+04  0.10194935172E+04  0.00000000000E+00 0.  1.
          6    1    1    2  501    0 -0.16301330859E+03 -0.14418984863E+02 -0.58329836823E+03  0.63003748482E+03  0.17300000000E+03 0.  1.
         -6    1    1    2    0  502  0.16301330859E+03  0.14418984863E+02 -0.37848285176E+03  0.44716832958E+03  0.17300000000E+03 0.  1.
</event>
<event>
 4    1  0.5900714E+000  0.1000000E+03  0.7546771E-02  0.1280296E+00
         21   -1    0    0  503  502  0.00000000000E+00  0.00000000000E+00  0.10238417027E+03  0.10238417027E+03  0.00000000000E+00 0.  1.
         21   -1    0    0  501  503 -0.00000000000E+00 -0.00000000000E+00 -0.39235416360E+03  0.39235416360E+03  0.00000000000E+00 0.  1.
          6    1    1    2  501    0  0.18725891865E+02  0.61896508292E+02 -0.24106367257E+03  0.30368162769E+03  0.17300000000E+03 0.  1.
         -6    1    1    2    0  502 -0.18725891865E+02 -0.61896508292E+02 -0.48906320766E+02  0.19105670618E+03  0.17300000000E+03 0.  1.
</event>
<event>
 4    1  0.5900714E+000  0.1000000E+03  0.7546771E-02  0.1280296E+00
         21   -1    0    0  501  502  0.00000000000E+00  0.00000000000E+00  0.30642855676E+03  0.30642855676E+03  0.00000000000E+00 0. -1.
         21   -1    0    0  502  503 -0.00000000000E+00 -0.00000000000E+00 -0.34763316836E+03  0.34763316836E+03  0.00000000000E+00 0. -1.
          6    1    1    2  501    0 -0.20915436454E+02 -0.74314867483E+02  0.24570020505E+03  0.31025432435E+03  0.17300000000E+03 0. -1.
         -6    1    1    2    0  503  0.20915436454E+02  0.74314867483E+02 -0.28690481665E+03  0.34380740077E+03  0.17300000000E+03 0. -1.
</event>
<event>
 4    1  0.5900714E+000  0.1000000E+03  0.7546771E-02  0.1280296E+00
         21   -1    0    0  501  502  0.00000000000E+00  0.00000000000E+00  0.43906884762E+03  0.43906884762E+03  0.00000000000E+00 0. -1.
         21   -1    0    0  502  503 -0.00000000000E+00 -0.00000000000E+00 -0.96130228904E+02  0.96130228904E+02  0.00000000000E+00 0. -1.
          6    1    1    2  501    0 -0.10418990097E+03 -0.21799168892E+02  0.13136374904E+03  0.24190116534E+03  0.17300000000E+03 0. -1.
         -6    1    1    2    0  503  0.10418990097E+03  0.21799168892E+02  0.21157486967E+03  0.29329791118E+03  0.17300000000E+03 0. -1.
</event>
<event>
 4    1  0.5900714E+000  0.1000000E+03  0.7546771E-02  0.1280296E+00
         21   -1    0    0  501  502  0.00000000000E+00  0.00000000000E+00  0.74158360543E+02  0.74158360543E+02  0.00000000000E+00 0. -1.
         21   -1    0    0  502  503 -0.00000000000E+00 -0.00000000000E+00 -0.86600814510E+03  0.86600814510E+03  0.00000000000E+00 0. -1.
          6    1    1    2  501    0  0.13788925840E+03 -0.11401271490E+02 -0.16761216388E+03  0.27778818199E+03  0.17300000000E+03 0. -1.
         -6    1    1    2    0  503 -0.13788925840E+03  0.11401271490E+02 -0.62423762068E+03  0.66237832365E+03  0.17300000000E+03 0. -1.
</event>
<event>
 4    1  0.5900714E+000  0.1000000E+03  0.7546771E-02  0.1280296E+00
         21   -1    0    0  503  502  0.00000000000E+00  0.00000000000E+00  0.18845492090E+03  0.18845492090E+03  0.00000000000E+00 0. -1.
         21   -1    0    0  501  503 -0.00000000000E+00 -0.00000000000E+00 -0.41165895064E+03  0.41165895064E+03  0.00000000000E+00 0. -1.
          6    1    1    2  501    0 -0.15398153896E+02  0.19623653879E+03 -0.21325739603E+03  0.33786624463E+03  0.17300000000E+03 0. -1.
         -6    1    1    2    0  502  0.15398153896E+02 -0.19623653879E+03 -0.99466337187E+01  0.26224762691E+03  0.17300000000E+03 0. -1.
</event>
<event>
 4    1  0.5900714E+000  0.1000000E+03  0.7546771E-02  0.1280296E+00
         21   -1    0    0  501  502  0.00000000000E+00  0.00000000000E+00  0.40007337135E+03  0.40007337135E+03  0.00000000000E+00 0. -1.
         21   -1    0    0  502  503 -0.00000000000E+00 -0.00000000000E+00 -0.32403923945E+03  0.32403923945E+03  0.00000000000E+00 0.  1.
          6    1    1    2  501    0 -0.14863188393E+03  0.23799209050E+03 -0.10762867872E+03  0.34676303803E+03  0.17300000000E+03 0. -1.
         -6    1    1    2    0  503  0.14863188393E+03 -0.23799209050E+03  0.18366281062E+03  0.37734957277E+03  0.17300000000E+03 0.  1.
</event>
<event>
 4    1  0.5900714E+000  0.1000000E+03  0.7546771E-02  0.1280296E+00
         21   -1    0    0  501  502  0.00000000000E+00  0.00000000000E+00  0.20440793365E+03  0.20440793365E+03  0.00000000000E+00 0. -1.
         21   -1    0    0  502  503 -0.00000000000E+00 -0.00000000000E+00 -0.22034611361E+03  0.22034611361E+03  0.00000000000E+00 0.  1.
          6    1    1    2  501    0  0.36790924949E+02  0.44810984060E+02  0.10050424541E+03  0.20830674448E+03  0.17300000000E+03 0. -1.
         -6    1    1    2    0  503 -0.36790924949E+02 -0.44810984060E+02 -0.11644242537E+03  0.21644730277E+03  0.17300000000E+03 0. -1.
</event>
<event>
 4    1  0.5900714E+000  0.1000000E+03  0.7546771E-02  0.1280296E+00
         21   -1    0    0  501  502  0.00000000000E+00  0.00000000000E+00  0.81605653069E+03  0.81605653069E+03  0.00000000000E+00 0. -1.
         21   -1    0    0  502  503 -0.00000000000E+00 -0.00000000000E+00 -0.54997666829E+02  0.54997666829E+02  0.00000000000E+00 0.  1.
          6    1    1    2  501    0  0.86232280160E+01 -0.12170152235E+03  0.39730471184E+03  0.45018402310E+03  0.17300000000E+03 0. -1.
         -6    1    1    2    0  503 -0.86232280160E+01  0.12170152235E+03  0.36375415202E+03  0.42087017442E+03  0.17300000000E+03 0. -1.
</event>
<event>
 4    1  0.5900714E+000  0.1000000E+03  0.7546771E-02  0.1280296E+00
         21   -1    0    0  501  502  0.00000000000E+00  0.00000000000E+00  0.57299404553E+03  0.57299404553E+03  0.00000000000E+00 0.  1.
         21   -1    0    0  502  503 -0.00000000000E+00 -0.00000000000E+00 -0.16591251419E+03  0.16591251419E+03  0.00000000000E+00 0.  1.
          6    1    1    2  501    0  0.10877216748E+03  0.10499557566E+03  0.44993177438E+03  0.50519605791E+03  0.17300000000E+03 0.  1.
         -6    1    1    2    0  503 -0.10877216748E+03 -0.10499557566E+03 -0.42850243043E+02  0.23371050181E+03  0.17300000000E+03 0.  1.
</event>
<event>
 4    1  0.5900714E+000  0.1000000E+03  0.7546771E-02  0.1280296E+00
         21   -1    0    0  501  502  0.00000000000E+00  0.00000000000E+00  0.75942073014E+03  0.75942073014E+03  0.00000000000E+00 0.  1.
         21   -1    0    0  502  503 -0.00000000000E+00 -0.00000000000E+00 -0.21990762646E+03  0.21990762646E+03  0.00000000000E+00 0. -1.
          6    1    1    2  501    0  0.50703503428E+02  0.93042726557E+02  0.69482220129E+03  0.72383332725E+03  0.17300000000E+03 0. -1.
         -6    1    1    2    0  503 -0.50703503428E+02 -0.93042726557E+02 -0.15530909761E+03  0.25549502935E+03  0.17300000000E+03 0.  1.
</event>
<event>
 4    1  0.5900714E+000  0.1000000E+03  0.7546771E-02  0.1280296E+00
         21   -1    0    0  501  502  0.00000000000E+00  0.00000000000E+00  0.19694397691E+03  0.19694397691E+03  0.00000000000E+00 0.  1.
         21   -1    0    0  502  503 -0.00000000000E+00 -0.00000000000E+00 -0.26598814132E+03  0.26598814132E+03  0.00000000000E+00 0. -1.
          6    1    1    2  501    0 -0.45125111556E+02  0.56736524139E+02  0.98111890258E+02  0.21168432128E+03  0.17300000000E+03 0. -1.
         -6    1    1    2    0  503  0.45125111556E+02 -0.56736524139E+02 -0.16715605466E+03  0.25124779695E+03  0.17300000000E+03 0.  1.
</event>
<event>
 4    1  0.5900714E+000  0.1000000E+03  0.7546771E-02  0.1280296E+00
         21   -1    0    0  503  502  0.00000000000E+00  0.00000000000E+00  0.35601841417E+03  0.35601841417E+03  0.00000000000E+00 0. -1.
         21   -1    0    0  501  503 -0.00000000000E+00 -0.00000000000E+00 -0.88627054255E+02  0.88627054255E+02  0.00000000000E+00 0. -1.
          6    1    1    2  501    0 -0.82489942487E+01 -0.13005527373E+02  0.87088629422E+02  0.19429518528E+03  0.17300000000E+03 0. -1.
         -6    1    1    2    0  502  0.82489942487E+01  0.13005527373E+02  0.18030273050E+03  0.25035028315E+03  0.17300000000E+03 0. -1.
</event>
<event>
 4    1  0.5900714E+000  0.1000000E+03  0.7546771E-02  0.1280296E+00
         21   -1    0    0  503  502  0.00000000000E+00  0.00000000000E+00  0.40345686273E+03  0.40345686273E+03  0.00000000000E+00 0. -1.
         21   -1    0    0  501  503 -0.00000000000E+00 -0.00000000000E+00 -0.17800094107E+03  0.17800094107E+03  0.00000000000E+00 0.  1.
          6    1    1    2  501    0  0.51716864005E+02 -0.39628400648E+02 -0.97753026449E+02  0.20911647075E+03  0.17300000000E+03 0.  1.
         -6    1    1    2    0  502 -0.51716864005E+02  0.39628400648E+02  0.32320894811E+03  0.37234133305E+03  0.17300000000E+03 0. -1.
</event>
<event>
 4    1  0.5900714E+000  0.1000000E+03  0.7546771E-02  0.1280296E+00
         21   -1    0    0  501  502  0.00000000000E+00  0.00000000000E+00  0.14084012205E+03  0.14084012205E+03  0.00000000000E+00 0.  1.
         21   -1    0    0  502  503 -0.00000000000E+00 -0.00000000000E+00 -0.37399478866E+03  0.37399478866E+03  0.00000000000E+00 0. -1.
          6    1    1    2  501    0  0.33277104425E+02 -0.19209917560E+02  0.46993631582E+02  0.18334063385E+03  0.17300000000E+03 0.  1.
         -6    1    1    2    0  503 -0.33277104425E+02  0.19209917560E+02 -0.28014829819E+03  0.33149427686E+03  0.17300000000E+03 0.  1.
</event>
<event>
 4    1  0.5900714E+000  0.1000000E+03  0.7546771E-02  0.1280296E+00
         21   -1    0    0  501  502  0.00000000000E+00  0.00000000000E+00  0.58562465768E+03  0.58562465768E+03  0.00000000000E+00 0.  1.
         21   -1    0    0  502  503 -0.00000000000E+00 -0.00000000000E+00 -0.37021395593E+03  0.37021395593E+03  0.00000000000E+00 0. -1.
          6    1    1    2  501    0 -0.98396324864E+02  0.64744001532E+02  0.53462517775E+03  0.57413125952E+03  0.17300000000E+03 0.  1.
         -6    1    1    2    0  503  0.98396324864E+02 -0.64744001532E+02 -0.31921447599E+03  0.38170735409E+03  0.17300000000E+03 0.  1.
</event>
<event>
 4    1  0.5900714E+000  0.1000000E+03  0.7546771E-02  0.1280296E+00
         21   -1    0    0  503  502  0.00000000000E+00  0.00000000000E+00  0.87794606741E+03  0.87794606741E+03  0.00000000000E+00 0. -1.
         21   -1    0    0  501  503 -0.00000000000E+00 -0.00000000000E+00 -0.78138351831E+02  0.78138351831E+02  0.00000000000E+00 0. -1.
          6    1    1    2  501    0  0.76889599096E+02 -0.15046308052E+03  0.21628627406E+03  0.32443782362E+03  0.17300000000E+03 0. -1.
         -6    1    1    2    0  502 -0.76889599096E+02  0.15046308052E+03  0.58352144152E+03  0.63164659562E+03  0.17300000000E+03 0. -1.
</event>
<event>
 4    1  0.5900714E+000  0.1000000E+03  0.7546771E-02  0.1280296E+00
         21   -1    0    0  503  502  0.00000000000E+00  0.00000000000E+00  0.26932223125E+04  0.26932223125E+04  0.00000000000E+00 0. -1.
         21   -1    0    0  501  503 -0.00000000000E+00 -0.00000000000E+00 -0.15923818412E+02  0.15923818412E+02  0.00000000000E+00 0. -1.
          6    1    1    2  501    0 -0.64617276369E+02  0.90181320280E+02  0.11719735984E+04  0.11898567890E+04  0.17300000000E+03 0. -1.
         -6    1    1    2    0  502  0.64617276369E+02 -0.90181320280E+02  0.15053248957E+04  0.15192893419E+04  0.17300000000E+03 0. -1.
</event>
<event>
 4    1  0.5900714E+000  0.1000000E+03  0.7546771E-02  0.1280296E+00
         21   -1    0    0  501  502  0.00000000000E+00  0.00000000000E+00  0.59744137362E+03  0.59744137362E+03  0.00000000000E+00 0. -1.
         21   -1    0    0  502  503 -0.00000000000E+00 -0.00000000000E+00 -0.67224657147E+02  0.67224657147E+02  0.00000000000E+00 0.  1.
          6    1    1    2  501    0 -0.96151931904E+02 -0.30940017260E+02  0.27438781821E+03  0.33973541684E+03  0.17300000000E+03 0. -1.
         -6    1    1    2    0  503  0.96151931904E+02  0.30940017260E+02  0.25582889826E+03  0.32493061392E+03  0.17300000000E+03 0.  1.
</event>
<event>
 4    1  0.5900714E+000  0.1000000E+03  0.7546771E-02  0.1280296E+00
         21   -1    0    0  501  502  0.00000000000E+00  0.00000000000E+00  0.81100327094E+02  0.81100327094E+02  0.00000000000E+00 0. -1.
         21   -1    0    0  502  503 -0.00000000000E+00 -0.00000000000E+00 -0.56520799584E+03  0.56520799584E+03  0.00000000000E+00 0.  1.
          6    1    1    2  501    0 -0.83276827087E+02  0.71486930935E+01 -0.99473391629E+02  0.21635639437E+03  0.17300000000E+03 0. -1.
         -6    1    1    2    0  503  0.83276827087E+02 -0.71486930935E+01 -0.38463427712E+03  0.42995192856E+03  0.17300000000E+03 0.  1.
</event>
<event>
 4    1  0.5900714E+000  0.1000000E+03  0.7546771E-02  0.1280296E+00
         21   -1    0    0  501  502  0.00000000000E+00  0.00000000000E+00  0.29826235869E+03  0.29826235869E+03  0.00000000000E+00 0. -1.
         21   -1    0    0  502  503 -0.00000000000E+00 -0.00000000000E+00 -0.18886407730E+03  0.18886407730E+03  0.00000000000E+00 0.  1.
          6    1    1    2  501    0  0.12479025104E+03 -0.81457594078E+02  0.12115864936E+03  0.25848861619E+03  0.17300000000E+03 0. -1.
         -6    1    1    2    0  503 -0.12479025104E+03  0.81457594078E+02 -0.11760367961E+02  0.22863781980E+03  0.17300000000E+03 0.  1.
</event>
<event>
 4    1  0.5900714E+000  0.1000000E+03  0.7546771E-02  0.1280296E+00
         21   -1    0    0  501  502  0.00000000000E+00  0.00000000000E+00  0.27143363382E+03  0.27143363382E+03  0.00000000000E+00 0.  1.
         21   -1    0    0  502  503 -0.00000000000E+00 -0.00000000000E+00 -0.11175608202E+03  0.11175608202E+03  0.00000000000E+00 0.  1.
          6    1    1    2  501    0  0.12231107462E+02  0.14095696236E+02  0.71528347367E+02  0.18813185036E+03  0.17300000000E+03 0.  1.
         -6    1    1    2    0  503 -0.12231107462E+02 -0.14095696236E+02  0.88149204432E+02  0.19505786548E+03  0.17300000000E+03 0.  1.
</event>
<event>
 4    1  0.5900714E+000  0.1000000E+03  0.7546771E-02  0.1280296E+00
         21   -1    0    0  503  502  0.00000000000E+00  0.00000000000E+00  0.68411247737E+03  0.68411247737E+03  0.00000000000E+00 0.  1.
         21   -1    0    0  501  503 -0.00000000000E+00 -0.00000000000E+00 -0.27359218589E+03  0.27359218589E+03  0.00000000000E+00 0. -1.
          6    1    1    2  501    0 -0.95919886231E+02  0.20001879769E+03 -0.15853723601E+03  0.32291051269E+03  0.17300000000E+03 0. -1.
         -6    1    1    2    0  502  0.95919886231E+02 -0.20001879769E+03  0.56905752749E+03  0.63479415057E+03  0.17300000000E+03 0.  1.
</event>
<event>
 4    1  0.5900714E+000  0.1000000E+03  0.7546771E-02  0.1280296E+00
         21   -1    0    0  503  502  0.00000000000E+00  0.00000000000E+00  0.48974245394E+02  0.48974245394E+02  0.00000000000E+00 0.  1.
         21   -1    0    0  501  503 -0.00000000000E+00 -0.00000000000E+00 -0.90649791756E+03  0.90649791756E+03  0.00000000000E+00 0.  1.
          6    1    1    2  501    0 -0.34145939824E+02  0.11456932919E+03 -0.39885542719E+03  0.45089547369E+03  0.17300000000E+03 0.  1.
         -6    1    1    2    0  502  0.34145939824E+02 -0.11456932919E+03 -0.45866824497E+03  0.50457668926E+03  0.17300000000E+03 0.  1.
</event>
<event>
 4    1  0.5900714E+000  0.1000000E+03  0.7546771E-02  0.1280296E+00
         21   -1    0    0  503  502  0.00000000000E+00  0.00000000000E+00  0.16047665193E+03  0.16047665193E+03  0.00000000000E+00 0.  1.
         21   -1    0    0  501  503 -0.00000000000E+00 -0.00000000000E+00 -0.39608670320E+03  0.39608670320E+03  0.00000000000E+00 0.  1.
          6    1    1    2  501    0  0.98201438518E+02  0.11328703314E+03 -0.23438972973E+03  0.32763549839E+03  0.17300000000E+03 0.  1.
         -6    1    1    2    0  502 -0.98201438518E+02 -0.11328703314E+03 -0.12203215432E+01  0.22892785674E+03  0.17300000000E+03 0.  1.
</event>
<event>
 4    1  0.5900714E+000  0.1000000E+03  0.7546771E-02  0.1280296E+00
         21   -1    0    0  503  502  0.00000000000E+00  0.00000000000E+00  0.12366602743E+03  0.12366602743E+03  0.00000000000E+00 0.  1.
         21   -1    0    0  501  503 -0.00000000000E+00 -0.00000000000E+00 -0.46593068223E+03  0.46593068223E+03  0.00000000000E+00 0.  1.
          6    1    1    2  501    0  0.11053147589E+03 -0.11978936258E+03 -0.12995660014E+03  0.27089558223E+03  0.17300000000E+03 0.  1.
         -6    1    1    2    0  502 -0.11053147589E+03  0.11978936258E+03 -0.21230805467E+03  0.31870112743E+03  0.17300000000E+03 0.  1.
</event>
<event>
 4    1  0.5900714E+000  0.1000000E+03  0.7546771E-02  0.1280296E+00
         21   -1    0    0  501  502  0.00000000000E+00  0.00000000000E+00  0.39660318004E+03  0.39660318004E+03  0.00000000000E+00 0.  1.
         21   -1    0    0  502  503 -0.00000000000E+00 -0.00000000000E+00 -0.83810408624E+02  0.83810408624E+02  0.00000000000E+00 0.  1.
          6    1    1    2  501    0  0.20758798427E+02 -0.49076160349E+02  0.12780044909E+03  0.22158824882E+03  0.17300000000E+03 0. -1.
         -6    1    1    2    0  503 -0.20758798427E+02  0.49076160349E+02  0.18499232233E+03  0.25882533985E+03  0.17300000000E+03 0. -1.
</event>
<event>
 4    1  0.5900714E+000  0.1000000E+03  0.7546771E-02  0.1280296E+00
         21   -1    0    0  503  502  0.00000000000E+00  0.00000000000E+00  0.19394289798E+03  0.19394289798E+03  0.00000000000E+00 0.  1.
         21   -1    0    0  501  503 -0.00000000000E+00 -0.00000000000E+00 -0.76372538929E+03  0.76372538929E+03  0.00000000000E+00 0. -1.
          6    1    1    2  501    0 -0.16608350371E+03 -0.42604019536E+02 -0.65562721211E+03  0.69941037592E+03  0.17300000000E+03 0. -1.
         -6    1    1    2    0  502  0.16608350371E+03  0.42604019536E+02  0.85844720810E+02  0.25825791135E+03  0.17300000000E+03 0.  1.
</event>
<event>
 4    1  0.5900714E+000  0.1000000E+03  0.7546771E-02  0.1280296E+00
         21   -1    0    0  503  502  0.00000000000E+00  0.00000000000E+00  0.20587545754E+03  0.20587545754E+03  0.00000000000E+00 0.  1.
         21   -1    0    0  501  503 -0.00000000000E+00 -0.00000000000E+00 -0.28632280173E+03  0.28632280173E+03  0.00000000000E+00 0. -1.
          6    1    1    2  501    0  0.12350184881E+03 -0.10478447930E+03 -0.93719417743E+02  0.25484274175E+03  0.17300000000E+03 0. -1.
         -6    1    1    2    0  502 -0.12350184881E+03  0.10478447930E+03  0.13272073549E+02  0.23735551752E+03  0.17300000000E+03 0.  1.
</event>
<event>
 4    1  0.5900714E+000  0.1000000E+03  0.7546771E-02  0.1280296E+00
         21   -1    0    0  503  502  0.00000000000E+00  0.00000000000E+00  0.46611681247E+03  0.46611681247E+03  0.00000000000E+00 0.  1.
         21   -1    0    0  501  503 -0.00000000000E+00 -0.00000000000E+00 -0.33140753975E+03  0.33140753975E+03  0.00000000000E+00 0.  1.
          6    1    1    2  501    0 -0.17613936447E+03  0.26979133316E+03 -0.78734665045E+02  0.37408633582E+03  0.17300000000E+03 0.  1.
         -6    1    1    2    0  502  0.17613936447E+03 -0.26979133316E+03  0.21344393776E+03  0.42343801640E+03  0.17300000000E+03 0.  1.
</event>
<event>
 4    1  0.5900714E+000  0.1000000E+03  0.7546771E-02  0.1280296E+00
         21   -1    0    0  503  502  0.00000000000E+00  0.00000000000E+00  0.77527950440E+03  0.77527950440E+03  0.00000000000E+00 0.  1.
         21   -1    0    0  501  503 -0.00000000000E+00 -0.00000000000E+00 -0.63179676475E+03  0.63179676475E+03  0.00000000000E+00 0.  1.
          6    1    1    2  501    0  0.14479292116E+03  0.30156558642E+03 -0.52125083903E+03  0.64306938204E+03  0.17300000000E+03 0.  1.
         -6    1    1    2    0  502 -0.14479292116E+03 -0.30156558642E+03  0.66473357867E+03  0.76400688711E+03  0.17300000000E+03 0.  1.
</event>
<event>
 4    1  0.5900714E+000  0.1000000E+03  0.7546771E-02  0.1280296E+00
         21   -1    0    0  501  502  0.00000000000E+00  0.00000000000E+00  0.16864046489E+03  0.16864046489E+03  0.00000000000E+00 0.  1.
         21   -1    0    0  502  503 -0.00000000000E+00 -0.00000000000E+00 -0.56318774361E+03  0.56318774361E+03  0.00000000000E+00 0. -1.
          6    1    1    2  501    0 -0.10050718153E+03  0.18834406451E+03 -0.31590758663E+02  0.27659023159E+03  0.17300000000E+03 0.  1.
         -6    1    1    2    0  503  0.10050718153E+03 -0.18834406451E+03 -0.36295652006E+03  0.45523797692E+03  0.17300000000E+03 0.  1.
</event>
<event>
 4    1  0.5900714E+000  0.1000000E+03  0.7546771E-02  0.1280296E+00
         21   -1    0    0  501  502  0.00000000000E+00  0.00000000000E+00  0.42029014445E+03  0.42029014445E+03  0.00000000000E+00 0.  1.
         21   -1    0    0  502  503 -0.00000000000E+00 -0.00000000000E+00 -0.50262653437E+03  0.50262653437E+03  0.00000000000E+00 0. -1.
          6    1    1    2  501    0 -0.37139177756E+03 -0.27341344156E+02  0.16615444354E+03  0.44296241448E+03  0.17300000000E+03 0.  1.
         -6    1    1    2    0  503  0.37139177756E+03  0.27341344156E+02 -0.24849083346E+03  0.47995426433E+03  0.17300000000E+03 0.  1.
</event>
<event>
 4    1  0.5900714E+000  0.1000000E+03  0.7546771E-02  0.1280296E+00
         21   -1    0    0  501  502  0.00000000000E+00  0.00000000000E+00  0.48716924743E+02  0.48716924743E+02  0.00000000000E+00 0.  1.
         21   -1    0    0  502  503 -0.00000000000E+00 -0.00000000000E+00 -0.15670759741E+04  0.15670759741E+04  0.00000000000E+00 0.  1.
          6    1    1    2  501    0 -0.58988359281E+02 -0.78499890995E+02 -0.19847905661E+03  0.28100675318E+03  0.17300000000E+03 0.  1.
         -6    1    1    2    0  503  0.58988359281E+02  0.78499890995E+02 -0.13198799927E+04  0.13347861457E+04  0.17300000000E+03 0.  1.
</event>
<event>
 4    1  0.5900714E+000  0.1000000E+03  0.7546771E-02  0.1280296E+00
         21   -1    0    0  503  502  0.00000000000E+00  0.00000000000E+00  0.11710861696E+03  0.11710861696E+03  0.00000000000E+00 0.  1.
         21   -1    0    0  501  503 -0.00000000000E+00 -0.00000000000E+00 -0.27831651491E+03  0.27831651491E+03  0.00000000000E+00 0. -1.
          6    1    1    2  501    0  0.16924030524E+02 -0.46401750699E+02 -0.97020736927E+02  0.20440540274E+03  0.17300000000E+03 0. -1.
         -6    1    1    2    0  502 -0.16924030524E+02  0.46401750699E+02 -0.64187161017E+02  0.19101972913E+03  0.17300000000E+03 0.  1.
</event>
<event>
 4    1  0.5900714E+000  0.1000000E+03  0.7546771E-02  0.1280296E+00
         21   -1    0    0  503  502  0.00000000000E+00  0.00000000000E+00  0.75283635828E+02  0.75283635828E+02  0.00000000000E+00 0.  1.
         21   -1    0    0  501  503 -0.00000000000E+00 -0.00000000000E+00 -0.13425359065E+04  0.13425359065E+04  0.00000000000E+00 0. -1.
          6    1    1    2  501    0 -0.89549408331E+02 -0.99930165648E+02 -0.11476409267E+04  0.11683380638E+04  0.17300000000E+03 0. -1.
         -6    1    1    2    0  502  0.89549408331E+02  0.99930165648E+02 -0.11961134392E+03  0.24948147854E+03  0.17300000000E+03 0.  1.
</event>
<event>
 4    1  0.5900714E+000  0.1000000E+03  0.7546771E-02  0.1280296E+00
         21   -1    0    0  503  502  0.00000000000E+00  0.00000000000E+00  0.64276578834E+02  0.64276578834E+02  0.00000000000E+00 0.  1.
         21   -1    0    0  501  503 -0.00000000000E+00 -0.00000000000E+00 -0.10963213242E+04  0.10963213242E+04  0.00000000000E+00 0. -1.
          6    1    1    2  501    0 -0.18549200610E+03 -0.76597911292E+02 -0.48048609527E+03  0.54869883551E+03  0.17300000000E+03 0. -1.
         -6    1    1    2    0  502  0.18549200610E+03  0.76597911292E+02 -0.55155865007E+03  0.61189906750E+03  0.17300000000E+03 0.  1.
</event>
<event>
 4    1  0.5900714E+000  0.1000000E+03  0.7546771E-02  0.1280296E+00
         21   -1    0    0  501  502  0.00000000000E+00  0.00000000000E+00  0.45947179180E+03  0.45947179180E+03  0.00000000000E+00 0. -1.
         21   -1    0    0  502  503 -0.00000000000E+00 -0.00000000000E+00 -0.19781629193E+03  0.19781629193E+03  0.00000000000E+00 0.  1.
          6    1    1    2  501    0 -0.13539327734E+03  0.83264032166E+02  0.33678915034E+03  0.41063386415E+03  0.17300000000E+03 0. -1.
         -6    1    1    2    0  503  0.13539327734E+03 -0.83264032166E+02 -0.75133650468E+02  0.24665421957E+03  0.17300000000E+03 0.  1.
</event>
<event>
 4    1  0.5900714E+000  0.1000000E+03  0.7546771E-02  0.1280296E+00
         21   -1    0    0  503  502  0.00000000000E+00  0.00000000000E+00  0.12349566007E+04  0.12349566007E+04  0.00000000000E+00 0. -1.
         21   -1    0    0  501  503 -0.00000000000E+00 -0.00000000000E+00 -0.15279606045E+03  0.15279606045E+03  0.00000000000E+00 0. -1.
          6    1    1    2  501    0  0.18021368097E+02  0.94015272434E+02 -0.76753367626E+02  0.21209365997E+03  0.17300000000E+03 0. -1.
         -6    1    1    2    0  502 -0.18021368097E+02 -0.94015272434E+02  0.11589139079E+04  0.11756590012E+04  0.17300000000E+03 0. -1.
</event>
<event>
 4    1  0.5900714E+000  0.1000000E+03  0.7546771E-02  0.1280296E+00
         21   -1    0    0  501  502  0.00000000000E+00  0.00000000000E+00  0.12124254177E+03  0.12124254177E+03  0.00000000000E+00 0.  1.
         21   -1    0    0  502  503 -0.00000000000E+00 -0.00000000000E+00 -0.76082931760E+03  0.76082931760E+03  0.00000000000E+00 0.  1.
          6    1    1    2  501    0  0.88347587596E+02 -0.11867213396E+03 -0.61176546886E+03  0.65274371732E+03  0.17300000000E+03 0.  1.
         -6    1    1    2    0  503 -0.88347587596E+02  0.11867213396E+03 -0.27821306969E+02  0.22932814205E+03  0.17300000000E+03 0.  1.
</event>
<event>
 4    1  0.5900714E+000  0.1000000E+03  0.7546771E-02  0.1280296E+00
         21   -1    0    0  503  502  0.00000000000E+00  0.00000000000E+00  0.74688699492E+03  0.74688699492E+03  0.00000000000E+00 0. -1.
         21   -1    0    0  501  503 -0.00000000000E+00 -0.00000000000E+00 -0.54172079753E+02  0.54172079753E+02  0.00000000000E+00 0.  1.
          6    1    1    2  501    0 -0.71586001205E+02 -0.64663165651E+02  0.27664934557E+03  0.34024952750E+03  0.17300000000E+03 0.  1.
         -6    1    1    2    0  502  0.71586001205E+02  0.64663165651E+02  0.41606556960E+03  0.46080954717E+03  0.17300000000E+03 0. -1.
</event>
<event>
 4    1  0.5900714E+000  0.1000000E+03  0.7546771E-02  0.1280296E+00
         21   -1    0    0  503  502  0.00000000000E+00  0.00000000000E+00  0.77521730141E+02  0.77521730141E+02  0.00000000000E+00 0. -1.
         21   -1    0    0  501  503 -0.00000000000E+00 -0.00000000000E+00 -0.66401937935E+03  0.66401937935E+03  0.00000000000E+00 0.  1.
          6    1    1    2  501    0 -0.11816019740E+03 -0.51801024366E+02 -0.17883491337E+03  0.28027861962E+03  0.17300000000E+03 0.  1.
         -6    1    1    2    0  502  0.11816019740E+03  0.51801024366E+02 -0.40766273584E+03  0.46126248988E+03  0.17300000000E+03 0. -1.
</event>
<event>
 4    1  0.5900714E+000  0.1000000E+03  0.7546771E-02  0.1280296E+00
         21   -1    0    0  503  502  0.00000000000E+00  0.00000000000E+00  0.27337319410E+02  0.27337319410E+02  0.00000000000E+00 0. -1.
         21   -1    0    0  501  503 -0.00000000000E+00 -0.00000000000E+00 -0.13609127216E+04  0.13609127216E+04  0.00000000000E+00 0.  1.
          6    1    1    2  501    0  0.36508735064E+02  0.67918168480E+02 -0.53559872177E+03  0.56810276897E+03  0.17300000000E+03 0.  1.
         -6    1    1    2    0  502 -0.36508735064E+02 -0.67918168480E+02 -0.79797668039E+03  0.82014727201E+03  0.17300000000E+03 0. -1.
</event>
<event>
 4    1  0.5900714E+000  0.1000000E+03  0.7546771E-02  0.1280296E+00
         21   -1    0    0  503  502  0.00000000000E+00  0.00000000000E+00  0.14399273594E+03  0.14399273594E+03  0.00000000000E+00 0. -1.
         21   -1    0    0  501  503 -0.00000000000E+00 -0.00000000000E+00 -0.10440884757E+04  0.10440884757E+04  0.00000000000E+00 0.  1.
          6    1    1    2  501    0  0.11185932727E+03  0.11871502514E+03 -0.91928611366E+03  0.94953763752E+03  0.17300000000E+03 0.  1.
         -6    1    1    2    0  502 -0.11185932727E+03 -0.11871502514E+03  0.19190373932E+02  0.23854357410E+03  0.17300000000E+03 0. -1.
</event>
<event>
 4    1  0.5900714E+000  0.1000000E+03  0.7546771E-02  0.1280296E+00
         21   -1    0    0  503  502  0.00000000000E+00  0.00000000000E+00  0.76523139638E+02  0.76523139638E+02  0.00000000000E+00 0. -1.
         21   -1    0    0  501  503 -0.00000000000E+00 -0.00000000000E+00 -0.49388969869E+03  0.49388969869E+03  0.00000000000E+00 0.  1.
          6    1    1    2  501    0  0.55832288724E+02 -0.54690212409E+02 -0.27017264454E+03  0.33019770086E+03  0.17300000000E+03 0.  1.
         -6    1    1    2    0  502 -0.55832288724E+02  0.54690212409E+02 -0.14719391451E+03  0.24021513746E+03  0.17300000000E+03 0. -1.
</event>
<event>
 4    1  0.5900714E+000  0.1000000E+03  0.7546771E-02  0.1280296E+00
         21   -1    0    0  503  502  0.00000000000E+00  0.00000000000E+00  0.70585780815E+02  0.70585780815E+02  0.00000000000E+00 0.  1.
         21   -1    0    0  501  503 -0.00000000000E+00 -0.00000000000E+00 -0.10540504278E+04  0.10540504278E+04  0.00000000000E+00 0.  1.
          6    1    1    2  501    0 -0.78991835569E+02  0.61386820339E+02 -0.87444698598E+03  0.89699196378E+03  0.17300000000E+03 0.  1.
         -6    1    1    2    0  502  0.78991835569E+02 -0.61386820339E+02 -0.10901766102E+03  0.22764424485E+03  0.17300000000E+03 0.  1.
</event>
<event>
 4    1  0.5900714E+000  0.1000000E+03  0.7546771E-02  0.1280296E+00
         21   -1    0    0  503  502  0.00000000000E+00  0.00000000000E+00  0.21123602908E+03  0.21123602908E+03  0.00000000000E+00 0.  1.
         21   -1    0    0  501  503 -0.00000000000E+00 -0.00000000000E+00 -0.26331422033E+03  0.26331422033E+03  0.00000000000E+00 0.  1.
          6    1    1    2  501    0  0.55305203593E+01 -0.57477142235E+02 -0.17647443841E+03  0.25378423109E+03  0.17300000000E+03 0.  1.
         -6    1    1    2    0  502 -0.55305203593E+01  0.57477142235E+02  0.12439624717E+03  0.22076601832E+03  0.17300000000E+03 0.  1.
</event>
<event>
 4    1  0.5900714E+000  0.1000000E+03  0.7546771E-02  0.1280296E+00
         21   -1    0    0  503  502  0.00000000000E+00  0.00000000000E+00  0.30888071185E+03  0.30888071185E+03  0.00000000000E+00 0.  1.
         21   -1    0    0  501  503 -0.00000000000E+00 -0.00000000000E+00 -0.13517181197E+03  0.13517181197E+03  0.00000000000E+00 0.  1.
          6    1    1    2  501    0 -0.79607586088E+01 -0.10692818240E+03  0.10647201629E+03  0.22970045738E+03  0.17300000000E+03 0.  1.
         -6    1    1    2    0  502  0.79607586088E+01  0.10692818240E+03  0.67236883591E+02  0.21435206643E+03  0.17300000000E+03 0.  1.
</event>
<event>
 4    1  0.5900714E+000  0.1000000E+03  0.7546771E-02  0.1280296E+00
         21   -1    0    0  503  502  0.00000000000E+00  0.00000000000E+00  0.19320877477E+02  0.19320877477E+02  0.00000000000E+00 0.  1.
         21   -1    0    0  501  503 -0.00000000000E+00 -0.00000000000E+00 -0.20204947648E+04  0.20204947648E+04  0.00000000000E+00 0.  1.
          6    1    1    2  501    0 -0.33906430255E+02 -0.43438771382E+02 -0.59834236555E+03  0.62528326324E+03  0.17300000000E+03 0.  1.
         -6    1    1    2    0  502  0.33906430255E+02  0.43438771382E+02 -0.14028315218E+04  0.14145323790E+04  0.17300000000E+03 0.  1.
</event>
