<event>
 4    1  0.6197496E+000  0.1000000E+03  0.7546771E-02  0.1280296E+00
         21   -1    0    0  503  502  0.00000000000E+00  0.00000000000E+00  0.30633469908E+03  0.30633469908E+03  0.00000000000E+00 0. -1.
         21   -1    0    0  501  503 -0.00000000000E+00 -0.00000000000E+00 -0.15197506294E+03  0.15197506294E+03  0.00000000000E+00 0.  1.
          6    1    1    2  501    0  0.15168742499E+02  0.20442053318E+02 -0.57068757121E+02  0.18393969482E+03  0.17300000000E+03 0.  1.
         -6    1    1    2    0  502 -0.15168742499E+02 -0.20442053318E+02  0.21142839327E+03  0.27437006720E+03  0.17300000000E+03 0. -1.
</event>
<event>
 4    1  0.6197496E+000  0.1000000E+03  0.7546771E-02  0.1280296E+00
         21   -1    0    0  501  502  0.00000000000E+00  0.00000000000E+00  0.58728442864E+03  0.58728442864E+03  0.00000000000E+00 0. -1.
         21   -1    0    0  502  503 -0.00000000000E+00 -0.00000000000E+00 -0.99463184445E+02  0.99463184445E+02  0.00000000000E+00 0.  1.
          6    1    1    2  501    0  0.72985193936E+02 -0.10590957250E+03  0.39915756534E+03  0.45365122953E+03  0.17300000000E+03 0. -1.
         -6    1    1    2    0  503 -0.72985193936E+02  0.10590957250E+03  0.88663678853E+02  0.23309638356E+03  0.17300000000E+03 0.  1.
</event>
<event>
 4    1  0.6197496E+000  0.1000000E+03  0.7546771E-02  0.1280296E+00
         21   -1    0    0  503  502  0.00000000000E+00  0.00000000000E+00  0.11782909117E+04  0.11782909117E+04  0.00000000000E+00 0. -1.
         21   -1    0    0  501  503 -0.00000000000E+00 -0.00000000000E+00 -0.29855603200E+02  0.29855603200E+02  0.00000000000E+00 0.  1.
          6    1    1    2  501    0 -0.43500383078E+02 -0.18104679713E+02  0.75148859896E+03  0.77258279629E+03  0.17300000000E+03 0. -1.
         -6    1    1    2    0  502  0.43500383078E+02  0.18104679713E+02  0.39694670955E+03  0.43556371862E+03  0.17300000000E+03 0.  1.
</event>
<event>
 4    1  0.6197496E+000  0.1000000E+03  0.7546771E-02  0.1280296E+00
         21   -1    0    0  503  502  0.00000000000E+00  0.00000000000E+00  0.95666170487E+02  0.95666170487E+02  0.00000000000E+00 0. -1.
         21   -1    0    0  501  503 -0.00000000000E+00 -0.00000000000E+00 -0.50430309612E+03  0.50430309612E+03  0.00000000000E+00 0.  1.
          6    1    1    2  501    0  0.30003557559E+02  0.11995652071E+03 -0.27944718340E+03  0.35115453669E+03  0.17300000000E+03 0. -1.
         -6    1    1    2    0  502 -0.30003557559E+02 -0.11995652071E+03 -0.12918974224E+03  0.24881472992E+03  0.17300000000E+03 0.  1.
</event>
<event>
 4    1  0.6197496E+000  0.1000000E+03  0.7546771E-02  0.1280296E+00
         21   -1    0    0  501  502  0.00000000000E+00  0.00000000000E+00  0.14828768979E+03  0.14828768979E+03  0.00000000000E+00 0. -1.
         21   -1    0    0  502  503 -0.00000000000E+00 -0.00000000000E+00 -0.25240842151E+03  0.25240842151E+03  0.00000000000E+00 0.  1.
          6    1    1    2  501    0  0.61072117805E+02  0.44459689176E+02 -0.95917752987E+02  0.21174438097E+03  0.17300000000E+03 0. -1.
         -6    1    1    2    0  503 -0.61072117805E+02 -0.44459689176E+02 -0.82029787253E+01  0.18895173033E+03  0.17300000000E+03 0.  1.
</event>
<event>
 4    1  0.6197496E+000  0.1000000E+03  0.7546771E-02  0.1280296E+00
         21   -1    0    0  501  502  0.00000000000E+00  0.00000000000E+00  0.84840360905E+02  0.84840360905E+02  0.00000000000E+00 0. -1.
         21   -1    0    0  502  503 -0.00000000000E+00 -0.00000000000E+00 -0.82846905774E+03  0.82846905774E+03  0.00000000000E+00 0.  1.
          6    1    1    2  501    0 -0.77644887810E+02  0.18470852279E+03 -0.39693194224E+03  0.47710578886E+03  0.17300000000E+03 0. -1.
         -6    1    1    2    0  503  0.77644887810E+02 -0.18470852279E+03 -0.34669675460E+03  0.43620362979E+03  0.17300000000E+03 0.  1.
</event>
<event>
 4    1  0.6197496E+000  0.1000000E+03  0.7546771E-02  0.1280296E+00
         21   -1    0    0  501  502  0.00000000000E+00  0.00000000000E+00  0.37758990041E+02  0.37758990041E+02  0.00000000000E+00 0. -1.
         21   -1    0    0  502  503 -0.00000000000E+00 -0.00000000000E+00 -0.11868304193E+04  0.11868304193E+04  0.00000000000E+00 0. -1.
          6    1    1    2  501    0  0.83877651593E+01  0.49594711919E+02 -0.25304453517E+03  0.31062924336E+03  0.17300000000E+03 0. -1.
         -6    1    1    2    0  503 -0.83877651593E+01 -0.49594711919E+02 -0.89602689405E+03  0.91396016593E+03  0.17300000000E+03 0. -1.
</event>
<event>
 4    1  0.6197496E+000  0.1000000E+03  0.7546771E-02  0.1280296E+00
         21   -1    0    0  501  502  0.00000000000E+00  0.00000000000E+00  0.15594873986E+03  0.15594873986E+03  0.00000000000E+00 0. -1.
         21   -1    0    0  502  503 -0.00000000000E+00 -0.00000000000E+00 -0.37683049886E+03  0.37683049886E+03  0.00000000000E+00 0. -1.
          6    1    1    2  501    0 -0.15000874449E+03  0.58466776377E+02 -0.51098354824E+02  0.24178715687E+03  0.17300000000E+03 0. -1.
         -6    1    1    2    0  503  0.15000874449E+03 -0.58466776377E+02 -0.16978340417E+03  0.29099208184E+03  0.17300000000E+03 0. -1.
</event>
<event>
 4    1  0.6197496E+000  0.1000000E+03  0.7546771E-02  0.1280296E+00
         21   -1    0    0  503  502  0.00000000000E+00  0.00000000000E+00  0.61264778524E+03  0.61264778524E+03  0.00000000000E+00 0.  1.
         21   -1    0    0  501  503 -0.00000000000E+00 -0.00000000000E+00 -0.93895144921E+02  0.93895144921E+02  0.00000000000E+00 0.  1.
          6    1    1    2  501    0  0.24047637629E+02 -0.10530087132E+03  0.73477324686E+02  0.21678210171E+03  0.17300000000E+03 0.  1.
         -6    1    1    2    0  502 -0.24047637629E+02  0.10530087132E+03  0.44527531563E+03  0.48976082845E+03  0.17300000000E+03 0.  1.
</event>
<event>
 4    1  0.6197496E+000  0.1000000E+03  0.7546771E-02  0.1280296E+00
         21   -1    0    0  503  502  0.00000000000E+00  0.00000000000E+00  0.71072564373E+03  0.71072564373E+03  0.00000000000E+00 0.  1.
         21   -1    0    0  501  503 -0.00000000000E+00 -0.00000000000E+00 -0.97130140326E+02  0.97130140326E+02  0.00000000000E+00 0.  1.
          6    1    1    2  501    0  0.63558136442E+02  0.55538936359E+02  0.31873633743E+02  0.19511314330E+03  0.17300000000E+03 0.  1.
         -6    1    1    2    0  502 -0.63558136442E+02 -0.55538936359E+02  0.58172186966E+03  0.61274264076E+03  0.17300000000E+03 0.  1.
</event>
<event>
 4    1  0.6197496E+000  0.1000000E+03  0.7546771E-02  0.1280296E+00
         21   -1    0    0  503  502  0.00000000000E+00  0.00000000000E+00  0.17063809672E+03  0.17063809672E+03  0.00000000000E+00 0.  1.
         21   -1    0    0  501  503 -0.00000000000E+00 -0.00000000000E+00 -0.47112230175E+03  0.47112230175E+03  0.00000000000E+00 0.  1.
          6    1    1    2  501    0 -0.15581329332E+03  0.82672449289E+02 -0.30766844759E+03  0.39459015433E+03  0.17300000000E+03 0.  1.
         -6    1    1    2    0  502  0.15581329332E+03 -0.82672449289E+02  0.71842425599E+01  0.24717024414E+03  0.17300000000E+03 0.  1.
</event>
<event>
 4    1  0.6197496E+000  0.1000000E+03  0.7546771E-02  0.1280296E+00
         21   -1    0    0  503  502  0.00000000000E+00  0.00000000000E+00  0.26870626933E+03  0.26870626933E+03  0.00000000000E+00 0.  1.
         21   -1    0    0  501  503 -0.00000000000E+00 -0.00000000000E+00 -0.26913557926E+03  0.26913557926E+03  0.00000000000E+00 0.  1.
          6    1    1    2  501    0 -0.14384248776E+03 -0.20826556891E+02 -0.14603997595E+03  0.26903732331E+03  0.17300000000E+03 0.  1.
         -6    1    1    2    0  502  0.14384248776E+03  0.20826556891E+02  0.14561066602E+03  0.26880452529E+03  0.17300000000E+03 0.  1.
</event>
<event>
 4    1  0.6197496E+000  0.1000000E+03  0.7546771E-02  0.1280296E+00
         21   -1    0    0  503  502  0.00000000000E+00  0.00000000000E+00  0.71968600914E+03  0.71968600914E+03  0.00000000000E+00 0. -1.
         21   -1    0    0  501  503 -0.00000000000E+00 -0.00000000000E+00 -0.28134676962E+03  0.28134676962E+03  0.00000000000E+00 0. -1.
          6    1    1    2  501    0  0.62777047550E+02 -0.27535362034E+03 -0.11965933207E+03  0.35214759645E+03  0.17300000000E+03 0. -1.
         -6    1    1    2    0  502 -0.62777047550E+02  0.27535362034E+03  0.55799857159E+03  0.64888518232E+03  0.17300000000E+03 0. -1.
</event>
<event>
 4    1  0.6197496E+000  0.1000000E+03  0.7546771E-02  0.1280296E+00
         21   -1    0    0  503  502  0.00000000000E+00  0.00000000000E+00  0.44034165931E+03  0.44034165931E+03  0.00000000000E+00 0.  1.
         21   -1    0    0  501  503 -0.00000000000E+00 -0.00000000000E+00 -0.12462742318E+03  0.12462742318E+03  0.00000000000E+00 0.  1.
          6    1    1    2  501    0 -0.26920311401E+02  0.81554378130E+02 -0.19978577953E+01  0.19315488913E+03  0.17300000000E+03 0.  1.
         -6    1    1    2    0  502  0.26920311401E+02 -0.81554378130E+02  0.31771209393E+03  0.37181419336E+03  0.17300000000E+03 0.  1.
</event>
<event>
 4    1  0.6197496E+000  0.1000000E+03  0.7546771E-02  0.1280296E+00
         21   -1    0    0  503  502  0.00000000000E+00  0.00000000000E+00  0.60323082988E+03  0.60323082988E+03  0.00000000000E+00 0. -1.
         21   -1    0    0  501  503 -0.00000000000E+00 -0.00000000000E+00 -0.34856661648E+03  0.34856661648E+03  0.00000000000E+00 0.  1.
          6    1    1    2  501    0  0.81249068957E+02 -0.11193280778E+03 -0.28936598402E+03  0.36440641785E+03  0.17300000000E+03 0.  1.
         -6    1    1    2    0  502 -0.81249068957E+02  0.11193280778E+03  0.54403019742E+03  0.58739102851E+03  0.17300000000E+03 0. -1.
</event>
<event>
 4    1  0.6197496E+000  0.1000000E+03  0.7546771E-02  0.1280296E+00
         21   -1    0    0  501  502  0.00000000000E+00  0.00000000000E+00  0.65403885717E+03  0.65403885717E+03  0.00000000000E+00 0. -1.
         21   -1    0    0  502  503 -0.00000000000E+00 -0.00000000000E+00 -0.68789605690E+02  0.68789605690E+02  0.00000000000E+00 0.  1.
          6    1    1    2  501    0 -0.29353052608E+02  0.89526907342E+02  0.42663122278E+03  0.46991474661E+03  0.17300000000E+03 0. -1.
         -6    1    1    2    0  503  0.29353052608E+02 -0.89526907342E+02  0.15861802870E+03  0.25291371624E+03  0.17300000000E+03 0.  1.
</event>
<event>
 4    1  0.6197496E+000  0.1000000E+03  0.7546771E-02  0.1280296E+00
         21   -1    0    0  501  502  0.00000000000E+00  0.00000000000E+00  0.55777256203E+02  0.55777256203E+02  0.00000000000E+00 0. -1.
         21   -1    0    0  502  503 -0.00000000000E+00 -0.00000000000E+00 -0.68038478492E+03  0.68038478492E+03  0.00000000000E+00 0.  1.
          6    1    1    2  501    0 -0.21700197565E+02 -0.45320369230E+02 -0.17222660759E+03  0.24923049333E+03  0.17300000000E+03 0. -1.
         -6    1    1    2    0  503  0.21700197565E+02  0.45320369230E+02 -0.45238092112E+03  0.48693154779E+03  0.17300000000E+03 0.  1.
</event>
<event>
 4    1  0.6197496E+000  0.1000000E+03  0.7546771E-02  0.1280296E+00
         21   -1    0    0  501  502  0.00000000000E+00  0.00000000000E+00  0.79780554414E+03  0.79780554414E+03  0.00000000000E+00 0. -1.
         21   -1    0    0  502  503 -0.00000000000E+00 -0.00000000000E+00 -0.27698399285E+03  0.27698399285E+03  0.00000000000E+00 0.  1.
          6    1    1    2  501    0 -0.41634060969E+02  0.16804885719E+03  0.71922168459E+03  0.75972537474E+03  0.17300000000E+03 0. -1.
         -6    1    1    2    0  503  0.41634060969E+02 -0.16804885719E+03 -0.19840013331E+03  0.31506416224E+03  0.17300000000E+03 0.  1.
</event>
<event>
 4    1  0.6197496E+000  0.1000000E+03  0.7546771E-02  0.1280296E+00
         21   -1    0    0  501  502  0.00000000000E+00  0.00000000000E+00  0.15056369468E+03  0.15056369468E+03  0.00000000000E+00 0. -1.
         21   -1    0    0  502  503 -0.00000000000E+00 -0.00000000000E+00 -0.31826727366E+03  0.31826727366E+03  0.00000000000E+00 0.  1.
          6    1    1    2  501    0 -0.12103536755E+03 -0.52795034755E+02 -0.58655514374E+02  0.22540262922E+03  0.17300000000E+03 0. -1.
         -6    1    1    2    0  503  0.12103536755E+03  0.52795034755E+02 -0.10904806461E+03  0.24342833912E+03  0.17300000000E+03 0.  1.
</event>
<event>
 4    1  0.6197496E+000  0.1000000E+03  0.7546771E-02  0.1280296E+00
         21   -1    0    0  501  502  0.00000000000E+00  0.00000000000E+00  0.72859812248E+03  0.72859812248E+03  0.00000000000E+00 0. -1.
         21   -1    0    0  502  503 -0.00000000000E+00 -0.00000000000E+00 -0.94071741671E+02  0.94071741671E+02  0.00000000000E+00 0.  1.
          6    1    1    2  501    0  0.15097365897E+03 -0.10815261473E+03  0.21639655088E+03  0.33353635635E+03  0.17300000000E+03 0. -1.
         -6    1    1    2    0  503 -0.15097365897E+03  0.10815261473E+03  0.41812982994E+03  0.48913350781E+03  0.17300000000E+03 0.  1.
</event>
<event>
 4    1  0.6197496E+000  0.1000000E+03  0.7546771E-02  0.1280296E+00
         21   -1    0    0  501  502  0.00000000000E+00  0.00000000000E+00  0.18316865113E+03  0.18316865113E+03  0.00000000000E+00 0.  1.
         21   -1    0    0  502  503 -0.00000000000E+00 -0.00000000000E+00 -0.20787112839E+03  0.20787112839E+03  0.00000000000E+00 0. -1.
          6    1    1    2  501    0 -0.48976866644E+02  0.29059527690E+02  0.57812356406E+02  0.19108756676E+03  0.17300000000E+03 0. -1.
         -6    1    1    2    0  503  0.48976866644E+02 -0.29059527690E+02 -0.82514833666E+02  0.19995221277E+03  0.17300000000E+03 0.  1.
</event>
<event>
 4    1  0.6197496E+000  0.1000000E+03  0.7546771E-02  0.1280296E+00
         21   -1    0    0  501  502  0.00000000000E+00  0.00000000000E+00  0.24187263912E+03  0.24187263912E+03  0.00000000000E+00 0.  1.
         21   -1    0    0  502  503 -0.00000000000E+00 -0.00000000000E+00 -0.19073542954E+04  0.19073542954E+04  0.00000000000E+00 0. -1.
          6    1    1    2  501    0 -0.21946124184E+03 -0.40513903428E+03 -0.92162000981E+02  0.50072318520E+03  0.17300000000E+03 0. -1.
         -6    1    1    2    0  503  0.21946124184E+03  0.40513903428E+03 -0.15733196553E+04  0.16485037493E+04  0.17300000000E+03 0.  1.
</event>
<event>
 4    1  0.6197496E+000  0.1000000E+03  0.7546771E-02  0.1280296E+00
         21   -1    0    0  501  502  0.00000000000E+00  0.00000000000E+00  0.27515074775E+03  0.27515074775E+03  0.00000000000E+00 0.  1.
         21   -1    0    0  502  503 -0.00000000000E+00 -0.00000000000E+00 -0.36093711035E+03  0.36093711035E+03  0.00000000000E+00 0. -1.
          6    1    1    2  501    0  0.25652873325E+03  0.22848596259E+02 -0.98666339202E+02  0.32556580875E+03  0.17300000000E+03 0. -1.
         -6    1    1    2    0  503 -0.25652873325E+03 -0.22848596259E+02  0.12879976603E+02  0.31052204935E+03  0.17300000000E+03 0.  1.
</event>
<event>
 4    1  0.6197496E+000  0.1000000E+03  0.7546771E-02  0.1280296E+00
         21   -1    0    0  503  502  0.00000000000E+00  0.00000000000E+00  0.37303727949E+03  0.37303727949E+03  0.00000000000E+00 0.  1.
         21   -1    0    0  501  503 -0.00000000000E+00 -0.00000000000E+00 -0.28817187207E+03  0.28817187207E+03  0.00000000000E+00 0. -1.
          6    1    1    2  501    0  0.66977578382E+02  0.26928349683E+03  0.18353565811E+02  0.32751404710E+03  0.17300000000E+03 0. -1.
         -6    1    1    2    0  502 -0.66977578382E+02 -0.26928349683E+03  0.66511841607E+02  0.33369510446E+03  0.17300000000E+03 0.  1.
</event>
<event>
 4    1  0.6197496E+000  0.1000000E+03  0.7546771E-02  0.1280296E+00
         21   -1    0    0  503  502  0.00000000000E+00  0.00000000000E+00  0.34997917243E+02  0.34997917243E+02  0.00000000000E+00 0.  1.
         21   -1    0    0  501  503 -0.00000000000E+00 -0.00000000000E+00 -0.31815559929E+04  0.31815559929E+04  0.00000000000E+00 0. -1.
          6    1    1    2  501    0 -0.12113912224E+03 -0.15577047974E+03 -0.25666482481E+04  0.25800293330E+04  0.17300000000E+03 0. -1.
         -6    1    1    2    0  502  0.12113912224E+03  0.15577047974E+03 -0.57990982750E+03  0.63652457716E+03  0.17300000000E+03 0.  1.
</event>
<event>
 4    1  0.6197496E+000  0.1000000E+03  0.7546771E-02  0.1280296E+00
         21   -1    0    0  503  502  0.00000000000E+00  0.00000000000E+00  0.99639638082E+02  0.99639638082E+02  0.00000000000E+00 0.  1.
         21   -1    0    0  501  503 -0.00000000000E+00 -0.00000000000E+00 -0.50806594939E+03  0.50806594939E+03  0.00000000000E+00 0.  1.
          6    1    1    2  501    0  0.10622003511E+03 -0.40011467141E+02 -0.84859015276E+02  0.22363735340E+03  0.17300000000E+03 0.  1.
         -6    1    1    2    0  502 -0.10622003511E+03  0.40011467141E+02 -0.32356729603E+03  0.38406823407E+03  0.17300000000E+03 0.  1.
</event>
<event>
 4    1  0.6197496E+000  0.1000000E+03  0.7546771E-02  0.1280296E+00
         21   -1    0    0  501  502  0.00000000000E+00  0.00000000000E+00  0.21714985464E+03  0.21714985464E+03  0.00000000000E+00 0. -1.
         21   -1    0    0  502  503 -0.00000000000E+00 -0.00000000000E+00 -0.20553219374E+03  0.20553219374E+03  0.00000000000E+00 0. -1.
          6    1    1    2  501    0 -0.80930547848E+02 -0.82042535927E+02 -0.31908930009E+02  0.21030432970E+03  0.17300000000E+03 0. -1.
         -6    1    1    2    0  503  0.80930547848E+02  0.82042535927E+02  0.43526590901E+02  0.21237771868E+03  0.17300000000E+03 0. -1.
</event>
<event>
 4    1  0.6197496E+000  0.1000000E+03  0.7546771E-02  0.1280296E+00
         21   -1    0    0  501  502  0.00000000000E+00  0.00000000000E+00  0.20894379745E+03  0.20894379745E+03  0.00000000000E+00 0. -1.
         21   -1    0    0  502  503 -0.00000000000E+00 -0.00000000000E+00 -0.37875674494E+03  0.37875674494E+03  0.00000000000E+00 0. -1.
          6    1    1    2  501    0  0.15683928403E+03  0.14288570847E+03 -0.17252015787E+02  0.27430187522E+03  0.17300000000E+03 0. -1.
         -6    1    1    2    0  503 -0.15683928403E+03 -0.14288570847E+03 -0.15256093171E+03  0.31339866717E+03  0.17300000000E+03 0. -1.
</event>
<event>
 4    1  0.6197496E+000  0.1000000E+03  0.7546771E-02  0.1280296E+00
         21   -1    0    0  501  502  0.00000000000E+00  0.00000000000E+00  0.15386081901E+04  0.15386081901E+04  0.00000000000E+00 0. -1.
         21   -1    0    0  502  503 -0.00000000000E+00 -0.00000000000E+00 -0.80894535913E+02  0.80894535913E+02  0.00000000000E+00 0. -1.
          6    1    1    2  501    0 -0.16426350662E+03 -0.18530717307E+03  0.11471623045E+04  0.11862679296E+04  0.17300000000E+03 0. -1.
         -6    1    1    2    0  503  0.16426350662E+03  0.18530717307E+03  0.31055134965E+03  0.43323479635E+03  0.17300000000E+03 0. -1.
</event>
<event>
 4    1  0.6197496E+000  0.1000000E+03  0.7546771E-02  0.1280296E+00
         21   -1    0    0  501  502  0.00000000000E+00  0.00000000000E+00  0.69293586792E+03  0.69293586792E+03  0.00000000000E+00 0. -1.
         21   -1    0    0  502  503 -0.00000000000E+00 -0.00000000000E+00 -0.65580322141E+02  0.65580322141E+02  0.00000000000E+00 0. -1.
          6    1    1    2  501    0 -0.54591970200E+02  0.56390946080E+02  0.48574339396E+03  0.52157057699E+03  0.17300000000E+03 0. -1.
         -6    1    1    2    0  503  0.54591970200E+02 -0.56390946080E+02  0.14161215183E+03  0.23694561307E+03  0.17300000000E+03 0. -1.
</event>
<event>
 4    1  0.6197496E+000  0.1000000E+03  0.7546771E-02  0.1280296E+00
         21   -1    0    0  503  502  0.00000000000E+00  0.00000000000E+00  0.39839037981E+02  0.39839037981E+02  0.00000000000E+00 0. -1.
         21   -1    0    0  501  503 -0.00000000000E+00 -0.00000000000E+00 -0.10882700135E+04  0.10882700135E+04  0.00000000000E+00 0. -1.
          6    1    1    2  501    0 -0.77972131665E+01 -0.63290751903E+02 -0.78629852822E+03  0.80762670293E+03  0.17300000000E+03 0. -1.
         -6    1    1    2    0  502  0.77972131665E+01  0.63290751903E+02 -0.26213244735E+03  0.32048234860E+03  0.17300000000E+03 0. -1.
</event>
<event>
 4    1  0.6197496E+000  0.1000000E+03  0.7546771E-02  0.1280296E+00
         21   -1    0    0  501  502  0.00000000000E+00  0.00000000000E+00  0.34399202114E+03  0.34399202114E+03  0.00000000000E+00 0. -1.
         21   -1    0    0  502  503 -0.00000000000E+00 -0.00000000000E+00 -0.13523528072E+03  0.13523528072E+03  0.00000000000E+00 0.  1.
          6    1    1    2  501    0  0.10821299822E+03 -0.27568270843E+02  0.17569369648E+03  0.27067939989E+03  0.17300000000E+03 0. -1.
         -6    1    1    2    0  503 -0.10821299822E+03  0.27568270843E+02  0.33063043931E+02  0.20854790197E+03  0.17300000000E+03 0.  1.
</event>
<event>
 4    1  0.6197496E+000  0.1000000E+03  0.7546771E-02  0.1280296E+00
         21   -1    0    0  501  502  0.00000000000E+00  0.00000000000E+00  0.55690037766E+02  0.55690037766E+02  0.00000000000E+00 0. -1.
         21   -1    0    0  502  503 -0.00000000000E+00 -0.00000000000E+00 -0.17685076741E+04  0.17685076741E+04  0.00000000000E+00 0.  1.
          6    1    1    2  501    0  0.41073629037E+02  0.87617465378E+02 -0.14928796442E+03  0.24815269405E+03  0.17300000000E+03 0. -1.
         -6    1    1    2    0  503 -0.41073629037E+02 -0.87617465378E+02 -0.15635296719E+04  0.15760450179E+04  0.17300000000E+03 0.  1.
</event>
<event>
 4    1  0.6197496E+000  0.1000000E+03  0.7546771E-02  0.1280296E+00
         21   -1    0    0  503  502  0.00000000000E+00  0.00000000000E+00  0.78876525447E+02  0.78876525447E+02  0.00000000000E+00 0. -1.
         21   -1    0    0  501  503 -0.00000000000E+00 -0.00000000000E+00 -0.52933767427E+03  0.52933767427E+03  0.00000000000E+00 0. -1.
          6    1    1    2  501    0  0.22784297757E+02  0.21500326926E+02 -0.38019768511E+03  0.41888025502E+03  0.17300000000E+03 0. -1.
         -6    1    1    2    0  502 -0.22784297757E+02 -0.21500326926E+02 -0.70263463715E+02  0.18933394470E+03  0.17300000000E+03 0. -1.
</event>
<event>
 4    1  0.6197496E+000  0.1000000E+03  0.7546771E-02  0.1280296E+00
         21   -1    0    0  501  502  0.00000000000E+00  0.00000000000E+00  0.87222890413E+03  0.87222890413E+03  0.00000000000E+00 0. -1.
         21   -1    0    0  502  503 -0.00000000000E+00 -0.00000000000E+00 -0.43636489311E+02  0.43636489311E+02  0.00000000000E+00 0. -1.
          6    1    1    2  501    0 -0.42635760706E+01 -0.15591716098E+02  0.62253850885E+03  0.64633155167E+03  0.17300000000E+03 0. -1.
         -6    1    1    2    0  503  0.42635760706E+01  0.15591716098E+02  0.20605390597E+03  0.26953384177E+03  0.17300000000E+03 0. -1.
</event>
<event>
 4    1  0.6197496E+000  0.1000000E+03  0.7546771E-02  0.1280296E+00
         21   -1    0    0  501  502  0.00000000000E+00  0.00000000000E+00  0.33656768878E+02  0.33656768878E+02  0.00000000000E+00 0. -1.
         21   -1    0    0  502  503 -0.00000000000E+00 -0.00000000000E+00 -0.11663587196E+04  0.11663587196E+04  0.00000000000E+00 0. -1.
          6    1    1    2  501    0  0.88149243818E+02  0.77579379647E+01 -0.44920506575E+03  0.48943300449E+03  0.17300000000E+03 0. -1.
         -6    1    1    2    0  503 -0.88149243818E+02 -0.77579379647E+01 -0.68349688497E+03  0.71058248399E+03  0.17300000000E+03 0. -1.
</event>
<event>
 4    1  0.6197496E+000  0.1000000E+03  0.7546771E-02  0.1280296E+00
         21   -1    0    0  501  502  0.00000000000E+00  0.00000000000E+00  0.56060768595E+03  0.56060768595E+03  0.00000000000E+00 0.  1.
         21   -1    0    0  502  503 -0.00000000000E+00 -0.00000000000E+00 -0.87819838251E+02  0.87819838251E+02  0.00000000000E+00 0. -1.
          6    1    1    2  501    0  0.45939790984E+02 -0.69814040137E+02  0.39857252097E+03  0.44246301435E+03  0.17300000000E+03 0.  1.
         -6    1    1    2    0  503 -0.45939790984E+02  0.69814040137E+02  0.74215326726E+02  0.20596450985E+03  0.17300000000E+03 0. -1.
</event>
<event>
 4    1  0.6197496E+000  0.1000000E+03  0.7546771E-02  0.1280296E+00
         21   -1    0    0  503  502  0.00000000000E+00  0.00000000000E+00  0.62299511074E+03  0.62299511074E+03  0.00000000000E+00 0. -1.
         21   -1    0    0  501  503 -0.00000000000E+00 -0.00000000000E+00 -0.53574333046E+02  0.53574333046E+02  0.00000000000E+00 0. -1.
          6    1    1    2  501    0 -0.50366031825E+02 -0.19093932503E+01  0.22893986464E+03  0.29134660555E+03  0.17300000000E+03 0. -1.
         -6    1    1    2    0  502  0.50366031825E+02  0.19093932503E+01  0.34048091305E+03  0.38522283823E+03  0.17300000000E+03 0. -1.
</event>
<event>
 4    1  0.6197496E+000  0.1000000E+03  0.7546771E-02  0.1280296E+00
         21   -1    0    0  503  502  0.00000000000E+00  0.00000000000E+00  0.21762337105E+03  0.21762337105E+03  0.00000000000E+00 0. -1.
         21   -1    0    0  501  503 -0.00000000000E+00 -0.00000000000E+00 -0.22965307666E+03  0.22965307666E+03  0.00000000000E+00 0. -1.
          6    1    1    2  501    0 -0.51992195304E+02 -0.37823751729E+02 -0.13221537928E+03  0.22703244501E+03  0.17300000000E+03 0. -1.
         -6    1    1    2    0  502  0.51992195304E+02  0.37823751729E+02  0.12018567368E+03  0.22024400270E+03  0.17300000000E+03 0. -1.
</event>
<event>
 4    1  0.6197496E+000  0.1000000E+03  0.7546771E-02  0.1280296E+00
         21   -1    0    0  501  502  0.00000000000E+00  0.00000000000E+00  0.67176901344E+03  0.67176901344E+03  0.00000000000E+00 0.  1.
         21   -1    0    0  502  503 -0.00000000000E+00 -0.00000000000E+00 -0.11385995694E+03  0.11385995694E+03  0.00000000000E+00 0.  1.
          6    1    1    2  501    0 -0.42372147883E+02 -0.20487773637E+03  0.35395468219E+03  0.44607533312E+03  0.17300000000E+03 0. -1.
         -6    1    1    2    0  503  0.42372147883E+02  0.20487773637E+03  0.20395437430E+03  0.33955363725E+03  0.17300000000E+03 0. -1.
</event>
<event>
 4    1  0.6197496E+000  0.1000000E+03  0.7546771E-02  0.1280296E+00
         21   -1    0    0  501  502  0.00000000000E+00  0.00000000000E+00  0.13619762101E+04  0.13619762101E+04  0.00000000000E+00 0. -1.
         21   -1    0    0  502  503 -0.00000000000E+00 -0.00000000000E+00 -0.12030266881E+03  0.12030266881E+03  0.00000000000E+00 0.  1.
          6    1    1    2  501    0 -0.50018681731E+02 -0.20372858699E+03  0.11698580545E+04  0.12010429107E+04  0.17300000000E+03 0. -1.
         -6    1    1    2    0  503  0.50018681731E+02  0.20372858699E+03  0.71815486822E+02  0.28123596823E+03  0.17300000000E+03 0.  1.
</event>
<event>
 4    1  0.6197496E+000  0.1000000E+03  0.7546771E-02  0.1280296E+00
         21   -1    0    0  501  502  0.00000000000E+00  0.00000000000E+00  0.31095419709E+03  0.31095419709E+03  0.00000000000E+00 0. -1.
         21   -1    0    0  502  503 -0.00000000000E+00 -0.00000000000E+00 -0.18660138893E+03  0.18660138893E+03  0.00000000000E+00 0.  1.
          6    1    1    2  501    0 -0.14641032349E+02  0.12237374466E+03  0.17950349201E+03  0.27810105511E+03  0.17300000000E+03 0. -1.
         -6    1    1    2    0  503  0.14641032349E+02 -0.12237374466E+03 -0.55150683848E+02  0.21945453092E+03  0.17300000000E+03 0.  1.
</event>
<event>
 4    1  0.6197496E+000  0.1000000E+03  0.7546771E-02  0.1280296E+00
         21   -1    0    0  503  502  0.00000000000E+00  0.00000000000E+00  0.70582533775E+02  0.70582533775E+02  0.00000000000E+00 0. -1.
         21   -1    0    0  501  503 -0.00000000000E+00 -0.00000000000E+00 -0.51481882911E+03  0.51481882911E+03  0.00000000000E+00 0.  1.
          6    1    1    2  501    0 -0.27125595230E+02 -0.50464158804E+02 -0.30796565123E+03  0.35784671520E+03  0.17300000000E+03 0. -1.
         -6    1    1    2    0  502  0.27125595230E+02  0.50464158804E+02 -0.13627064411E+03  0.22755464769E+03  0.17300000000E+03 0. -1.
</event>
<event>
 4    1  0.6197496E+000  0.1000000E+03  0.7546771E-02  0.1280296E+00
         21   -1    0    0  503  502  0.00000000000E+00  0.00000000000E+00  0.73314066908E+02  0.73314066908E+02  0.00000000000E+00 0. -1.
         21   -1    0    0  501  503 -0.00000000000E+00 -0.00000000000E+00 -0.79772139583E+03  0.79772139583E+03  0.00000000000E+00 0.  1.
          6    1    1    2  501    0  0.15946805844E+03 -0.55048728611E+02 -0.34467152782E+03  0.42093691483E+03  0.17300000000E+03 0. -1.
         -6    1    1    2    0  502 -0.15946805844E+03  0.55048728611E+02 -0.37973580111E+03  0.45009854790E+03  0.17300000000E+03 0. -1.
</event>
<event>
 4    1  0.6197496E+000  0.1000000E+03  0.7546771E-02  0.1280296E+00
         21   -1    0    0  503  502  0.00000000000E+00  0.00000000000E+00  0.22373202059E+03  0.22373202059E+03  0.00000000000E+00 0.  1.
         21   -1    0    0  501  503 -0.00000000000E+00 -0.00000000000E+00 -0.36574496860E+03  0.36574496860E+03  0.00000000000E+00 0.  1.
          6    1    1    2  501    0  0.53583706398E+02  0.18613792825E+03  0.52554967703E+02  0.26497087869E+03  0.17300000000E+03 0.  1.
         -6    1    1    2    0  502 -0.53583706398E+02 -0.18613792825E+03 -0.19456791571E+03  0.32450611049E+03  0.17300000000E+03 0.  1.
</event>
<event>
 4    1  0.6197496E+000  0.1000000E+03  0.7546771E-02  0.1280296E+00
         21   -1    0    0  503  502  0.00000000000E+00  0.00000000000E+00  0.53599880590E+02  0.53599880590E+02  0.00000000000E+00 0.  1.
         21   -1    0    0  501  503 -0.00000000000E+00 -0.00000000000E+00 -0.10003076464E+04  0.10003076464E+04  0.00000000000E+00 0.  1.
          6    1    1    2  501    0 -0.15802598982E+02  0.32700740429E+02 -0.81371535250E+03  0.83269486335E+03  0.17300000000E+03 0.  1.
         -6    1    1    2    0  502  0.15802598982E+02 -0.32700740429E+02 -0.13299241333E+03  0.22121266366E+03  0.17300000000E+03 0.  1.
</event>
<event>
 4    1  0.6197496E+000  0.1000000E+03  0.7546771E-02  0.1280296E+00
         21   -1    0    0  503  502  0.00000000000E+00  0.00000000000E+00  0.12077947404E+04  0.12077947404E+04  0.00000000000E+00 0.  1.
         21   -1    0    0  501  503 -0.00000000000E+00 -0.00000000000E+00 -0.10371789567E+03  0.10371789567E+03  0.00000000000E+00 0.  1.
          6    1    1    2  501    0  0.40430537412E+02  0.23978995890E+03  0.19949241893E+03  0.35897085948E+03  0.17300000000E+03 0.  1.
         -6    1    1    2    0  502 -0.40430537412E+02 -0.23978995890E+03  0.90458442580E+03  0.95254177659E+03  0.17300000000E+03 0.  1.
</event>
<event>
 4    1  0.6197496E+000  0.1000000E+03  0.7546771E-02  0.1280296E+00
         21   -1    0    0  501  502  0.00000000000E+00  0.00000000000E+00  0.13164234011E+03  0.13164234011E+03  0.00000000000E+00 0.  1.
         21   -1    0    0  502  503 -0.00000000000E+00 -0.00000000000E+00 -0.29288239931E+04  0.29288239931E+04  0.00000000000E+00 0.  1.
          6    1    1    2  501    0  0.57793550456E+03 -0.70482150571E+01 -0.10366568245E+04  0.11994354908E+04  0.17300000000E+03 0.  1.
         -6    1    1    2    0  503 -0.57793550456E+03  0.70482150571E+01 -0.17605248285E+04  0.18610308424E+04  0.17300000000E+03 0.  1.
</event>
<event>
 4    1  0.6197496E+000  0.1000000E+03  0.7546771E-02  0.1280296E+00
         21   -1    0    0  501  502  0.00000000000E+00  0.00000000000E+00  0.26583640388E+02  0.26583640388E+02  0.00000000000E+00 0.  1.
         21   -1    0    0  502  503 -0.00000000000E+00 -0.00000000000E+00 -0.15964765244E+04  0.15964765244E+04  0.00000000000E+00 0.  1.
          6    1    1    2  501    0 -0.84112676082E+02 -0.73428253505E+02 -0.81122677573E+03  0.83694953991E+03  0.17300000000E+03 0.  1.
         -6    1    1    2    0  503  0.84112676082E+02  0.73428253505E+02 -0.75866610825E+03  0.78611062484E+03  0.17300000000E+03 0.  1.
</event>
<event>
 4    1  0.6197496E+000  0.1000000E+03  0.7546771E-02  0.1280296E+00
         21   -1    0    0  501  502  0.00000000000E+00  0.00000000000E+00  0.14660356756E+04  0.14660356756E+04  0.00000000000E+00 0.  1.
         21   -1    0    0  502  503 -0.00000000000E+00 -0.00000000000E+00 -0.57719555480E+02  0.57719555480E+02  0.00000000000E+00 0.  1.
          6    1    1    2  501    0  0.35472155631E+01 -0.10761974091E+03  0.12478671476E+04  0.12643955115E+04  0.17300000000E+03 0.  1.
         -6    1    1    2    0  503 -0.35472155631E+01  0.10761974091E+03  0.16044897252E+03  0.25935971960E+03  0.17300000000E+03 0.  1.
</event>
<event>
 4    1  0.6197496E+000  0.1000000E+03  0.7546771E-02  0.1280296E+00
         21   -1    0    0  501  502  0.00000000000E+00  0.00000000000E+00  0.46235141385E+02  0.46235141385E+02  0.00000000000E+00 0.  1.
         21   -1    0    0  502  503 -0.00000000000E+00 -0.00000000000E+00 -0.87946827256E+03  0.87946827256E+03  0.00000000000E+00 0.  1.
          6    1    1    2  501    0 -0.30848304906E+02  0.40743127289E+02 -0.20975982281E+03  0.27665827948E+03  0.17300000000E+03 0.  1.
         -6    1    1    2    0  503  0.30848304906E+02 -0.40743127289E+02 -0.62347330837E+03  0.64904513447E+03  0.17300000000E+03 0.  1.
</event>
<event>
 4    1  0.6197496E+000  0.1000000E+03  0.7546771E-02  0.1280296E+00
         21   -1    0    0  503  502  0.00000000000E+00  0.00000000000E+00  0.48923503489E+02  0.48923503489E+02  0.00000000000E+00 0. -1.
         21   -1    0    0  501  503 -0.00000000000E+00 -0.00000000000E+00 -0.10943093351E+04  0.10943093351E+04  0.00000000000E+00 0.  1.
          6    1    1    2  501    0  0.34839555090E+02  0.70266793389E+02 -0.84910297294E+03  0.87008969394E+03  0.17300000000E+03 0. -1.
         -6    1    1    2    0  502 -0.34839555090E+02 -0.70266793389E+02 -0.19628285863E+03  0.27314314460E+03  0.17300000000E+03 0.  1.
</event>
<event>
 4    1  0.6197496E+000  0.1000000E+03  0.7546771E-02  0.1280296E+00
         21   -1    0    0  503  502  0.00000000000E+00  0.00000000000E+00  0.21519156737E+04  0.21519156737E+04  0.00000000000E+00 0.  1.
         21   -1    0    0  501  503 -0.00000000000E+00 -0.00000000000E+00 -0.38011833669E+02  0.38011833669E+02  0.00000000000E+00 0.  1.
          6    1    1    2  501    0  0.12803624003E+03 -0.17392445123E+03  0.78017905345E+03  0.82779909939E+03  0.17300000000E+03 0.  1.
         -6    1    1    2    0  502 -0.12803624003E+03  0.17392445123E+03  0.13337247866E+04  0.13621284080E+04  0.17300000000E+03 0.  1.
</event>
<event>
 4    1  0.6197496E+000  0.1000000E+03  0.7546771E-02  0.1280296E+00
         21   -1    0    0  503  502  0.00000000000E+00  0.00000000000E+00  0.19234867914E+04  0.19234867914E+04  0.00000000000E+00 0.  1.
         21   -1    0    0  501  503 -0.00000000000E+00 -0.00000000000E+00 -0.23109216430E+02  0.23109216430E+02  0.00000000000E+00 0.  1.
          6    1    1    2  501    0  0.93520257152E+02  0.75969635246E+02  0.94113231373E+03  0.96445655990E+03  0.17300000000E+03 0.  1.
         -6    1    1    2    0  502 -0.93520257152E+02 -0.75969635246E+02  0.95924526119E+03  0.98213944788E+03  0.17300000000E+03 0.  1.
</event>
<event>
 4    1  0.6197496E+000  0.1000000E+03  0.7546771E-02  0.1280296E+00
         21   -1    0    0  503  502  0.00000000000E+00  0.00000000000E+00  0.40563902652E+02  0.40563902652E+02  0.00000000000E+00 0.  1.
         21   -1    0    0  501  503 -0.00000000000E+00 -0.00000000000E+00 -0.75959901445E+03  0.75959901445E+03  0.00000000000E+00 0.  1.
          6    1    1    2  501    0  0.17294578869E+02 -0.17208689639E+02 -0.39820117530E+03  0.43484298025E+03  0.17300000000E+03 0.  1.
         -6    1    1    2    0  502 -0.17294578869E+02  0.17208689639E+02 -0.32083393650E+03  0.36531993686E+03  0.17300000000E+03 0.  1.
</event>
<event>
 4    1  0.6197496E+000  0.1000000E+03  0.7546771E-02  0.1280296E+00
         21   -1    0    0  503  502  0.00000000000E+00  0.00000000000E+00  0.11279011106E+04  0.11279011106E+04  0.00000000000E+00 0.  1.
         21   -1    0    0  501  503 -0.00000000000E+00 -0.00000000000E+00 -0.43045585521E+02  0.43045585521E+02  0.00000000000E+00 0.  1.
          6    1    1    2  501    0 -0.16371323745E+02 -0.12734522681E+02  0.18404489667E+03  0.25343976069E+03  0.17300000000E+03 0.  1.
         -6    1    1    2    0  502  0.16371323745E+02  0.12734522681E+02  0.90081062845E+03  0.91750693547E+03  0.17300000000E+03 0.  1.
</event>
<event>
 4    1  0.6197496E+000  0.1000000E+03  0.7546771E-02  0.1280296E+00
         21   -1    0    0  501  502  0.00000000000E+00  0.00000000000E+00  0.23191195821E+03  0.23191195821E+03  0.00000000000E+00 0. -1.
         21   -1    0    0  502  503 -0.00000000000E+00 -0.00000000000E+00 -0.10627941801E+04  0.10627941801E+04  0.00000000000E+00 0.  1.
          6    1    1    2  501    0  0.59909153048E+02 -0.11368095917E+03  0.16774357455E+03  0.27309224431E+03  0.17300000000E+03 0.  1.
         -6    1    1    2    0  503 -0.59909153048E+02  0.11368095917E+03 -0.99862579640E+03  0.10216138940E+04  0.17300000000E+03 0. -1.
</event>
<event>
 4    1  0.6197496E+000  0.1000000E+03  0.7546771E-02  0.1280296E+00
         21   -1    0    0  501  502  0.00000000000E+00  0.00000000000E+00  0.59216869095E+03  0.59216869095E+03  0.00000000000E+00 0. -1.
         21   -1    0    0  502  503 -0.00000000000E+00 -0.00000000000E+00 -0.15014269358E+03  0.15014269358E+03  0.00000000000E+00 0.  1.
          6    1    1    2  501    0 -0.16575578274E+03 -0.53674832876E+02  0.43161029925E+03  0.49656058806E+03  0.17300000000E+03 0.  1.
         -6    1    1    2    0  503  0.16575578274E+03  0.53674832876E+02  0.10415698124E+02  0.24575079647E+03  0.17300000000E+03 0. -1.
</event>
<event>
 4    1  0.6197496E+000  0.1000000E+03  0.7546771E-02  0.1280296E+00
         21   -1    0    0  501  502  0.00000000000E+00  0.00000000000E+00  0.10366406265E+04  0.10366406265E+04  0.00000000000E+00 0. -1.
         21   -1    0    0  502  503 -0.00000000000E+00 -0.00000000000E+00 -0.42635155930E+02  0.42635155930E+02  0.00000000000E+00 0.  1.
          6    1    1    2  501    0  0.70964180725E+02  0.29057011355E+02  0.73209397815E+03  0.75615528676E+03  0.17300000000E+03 0. -1.
         -6    1    1    2    0  503 -0.70964180725E+02 -0.29057011355E+02  0.26191149239E+03  0.32312049564E+03  0.17300000000E+03 0.  1.
</event>
<event>
 4    1  0.6197496E+000  0.1000000E+03  0.7546771E-02  0.1280296E+00
         21   -1    0    0  501  502  0.00000000000E+00  0.00000000000E+00  0.17422341381E+03  0.17422341381E+03  0.00000000000E+00 0. -1.
         21   -1    0    0  502  503 -0.00000000000E+00 -0.00000000000E+00 -0.49243531772E+03  0.49243531772E+03  0.00000000000E+00 0.  1.
          6    1    1    2  501    0 -0.17997928791E+03 -0.62243640809E+00  0.15242943783E+02  0.25010853412E+03  0.17300000000E+03 0. -1.
         -6    1    1    2    0  503  0.17997928791E+03  0.62243640809E+00 -0.33345484770E+03  0.41655019741E+03  0.17300000000E+03 0.  1.
</event>
<event>
 4    1  0.6197496E+000  0.1000000E+03  0.7546771E-02  0.1280296E+00
         21   -1    0    0  501  502  0.00000000000E+00  0.00000000000E+00  0.83789615397E+03  0.83789615397E+03  0.00000000000E+00 0. -1.
         21   -1    0    0  502  503 -0.00000000000E+00 -0.00000000000E+00 -0.95124586647E+02  0.95124586647E+02  0.00000000000E+00 0.  1.
          6    1    1    2  501    0 -0.23879234194E+02 -0.22084576686E+03  0.40574870999E+03  0.49386646598E+03  0.17300000000E+03 0. -1.
         -6    1    1    2    0  503  0.23879234194E+02  0.22084576686E+03  0.33702285733E+03  0.43915427463E+03  0.17300000000E+03 0.  1.
</event>
<event>
 4    1  0.6197496E+000  0.1000000E+03  0.7546771E-02  0.1280296E+00
         21   -1    0    0  501  502  0.00000000000E+00  0.00000000000E+00  0.87833994004E+03  0.87833994004E+03  0.00000000000E+00 0. -1.
         21   -1    0    0  502  503 -0.00000000000E+00 -0.00000000000E+00 -0.58618254502E+02  0.58618254502E+02  0.00000000000E+00 0.  1.
          6    1    1    2  501    0 -0.70789142642E+02 -0.11826898070E+03  0.51430545902E+03  0.55985512384E+03  0.17300000000E+03 0. -1.
         -6    1    1    2    0  503  0.70789142642E+02  0.11826898070E+03  0.30541622651E+03  0.37710307070E+03  0.17300000000E+03 0.  1.
</event>
<event>
 4    1  0.6197496E+000  0.1000000E+03  0.7546771E-02  0.1280296E+00
         21   -1    0    0  501  502  0.00000000000E+00  0.00000000000E+00  0.26988366044E+04  0.26988366044E+04  0.00000000000E+00 0. -1.
         21   -1    0    0  502  503 -0.00000000000E+00 -0.00000000000E+00 -0.17116745223E+02  0.17116745223E+02  0.00000000000E+00 0.  1.
          6    1    1    2  501    0  0.43469755490E+02  0.11707314650E+03  0.11772493575E+04  0.11964283477E+04  0.17300000000E+03 0. -1.
         -6    1    1    2    0  503 -0.43469755490E+02 -0.11707314650E+03  0.15044705017E+04  0.15195250020E+04  0.17300000000E+03 0.  1.
</event>
<event>
 4    1  0.6197496E+000  0.1000000E+03  0.7546771E-02  0.1280296E+00
         21   -1    0    0  503  502  0.00000000000E+00  0.00000000000E+00  0.20257624595E+03  0.20257624595E+03  0.00000000000E+00 0. -1.
         21   -1    0    0  501  503 -0.00000000000E+00 -0.00000000000E+00 -0.24386165708E+03  0.24386165708E+03  0.00000000000E+00 0. -1.
          6    1    1    2  501    0 -0.15930139679E+02  0.61422240459E+02 -0.14545594646E+03  0.23476135401E+03  0.17300000000E+03 0. -1.
         -6    1    1    2    0  502  0.15930139679E+02 -0.61422240459E+02  0.10417053533E+03  0.21167654902E+03  0.17300000000E+03 0. -1.
</event>
<event>
 4    1  0.6197496E+000  0.1000000E+03  0.7546771E-02  0.1280296E+00
         21   -1    0    0  501  502  0.00000000000E+00  0.00000000000E+00  0.23030599015E+03  0.23030599015E+03  0.00000000000E+00 0. -1.
         21   -1    0    0  502  503 -0.00000000000E+00 -0.00000000000E+00 -0.53234841873E+03  0.53234841873E+03  0.00000000000E+00 0. -1.
          6    1    1    2  501    0  0.26889889227E+03 -0.13465703286E+03 -0.99536757925E+02  0.36093724792E+03  0.17300000000E+03 0. -1.
         -6    1    1    2    0  503 -0.26889889227E+03  0.13465703286E+03 -0.20250567065E+03  0.40171716096E+03  0.17300000000E+03 0. -1.
</event>
<event>
 4    1  0.6197496E+000  0.1000000E+03  0.7546771E-02  0.1280296E+00
         21   -1    0    0  501  502  0.00000000000E+00  0.00000000000E+00  0.21142327963E+04  0.21142327963E+04  0.00000000000E+00 0. -1.
         21   -1    0    0  502  503 -0.00000000000E+00 -0.00000000000E+00 -0.26812868533E+02  0.26812868533E+02  0.00000000000E+00 0. -1.
          6    1    1    2  501    0 -0.37991085407E+02 -0.90934611691E+02  0.16307593974E+04  0.16428687222E+04  0.17300000000E+03 0. -1.
         -6    1    1    2    0  503  0.37991085407E+02  0.90934611691E+02  0.45666053033E+03  0.49817694260E+03  0.17300000000E+03 0. -1.
</event>
<event>
 4    1  0.6197496E+000  0.1000000E+03  0.7546771E-02  0.1280296E+00
         21   -1    0    0  501  502  0.00000000000E+00  0.00000000000E+00  0.18468078852E+04  0.18468078852E+04  0.00000000000E+00 0. -1.
         21   -1    0    0  502  503 -0.00000000000E+00 -0.00000000000E+00 -0.44995919974E+02  0.44995919974E+02  0.00000000000E+00 0. -1.
          6    1    1    2  501    0 -0.90761338739E+01 -0.14768150948E+03  0.32058872172E+03  0.39318994512E+03  0.17300000000E+03 0. -1.
         -6    1    1    2    0  503  0.90761338739E+01  0.14768150948E+03  0.14812232435E+04  0.14986138600E+04  0.17300000000E+03 0. -1.
</event>
<event>
 4    1  0.6197496E+000  0.1000000E+03  0.7546771E-02  0.1280296E+00
         21   -1    0    0  501  502  0.00000000000E+00  0.00000000000E+00  0.10367397346E+03  0.10367397346E+03  0.00000000000E+00 0. -1.
         21   -1    0    0  502  503 -0.00000000000E+00 -0.00000000000E+00 -0.41109693475E+03  0.41109693475E+03  0.00000000000E+00 0. -1.
          6    1    1    2  501    0 -0.18487877935E+02 -0.43544663250E+02 -0.26243871885E+02  0.18126135865E+03  0.17300000000E+03 0. -1.
         -6    1    1    2    0  503  0.18487877935E+02  0.43544663250E+02 -0.28117908941E+03  0.33350954956E+03  0.17300000000E+03 0. -1.
</event>
<event>
 4    1  0.6197496E+000  0.1000000E+03  0.7546771E-02  0.1280296E+00
         21   -1    0    0  501  502  0.00000000000E+00  0.00000000000E+00  0.72727270807E+03  0.72727270807E+03  0.00000000000E+00 0. -1.
         21   -1    0    0  502  503 -0.00000000000E+00 -0.00000000000E+00 -0.55438212033E+03  0.55438212033E+03  0.00000000000E+00 0. -1.
          6    1    1    2  501    0 -0.41834912798E+02  0.36163792240E+03  0.58160943251E+03  0.70762326052E+03  0.17300000000E+03 0. -1.
         -6    1    1    2    0  503  0.41834912798E+02 -0.36163792240E+03 -0.40871884477E+03  0.57403156787E+03  0.17300000000E+03 0. -1.
</event>
<event>
 4    1  0.6197496E+000  0.1000000E+03  0.7546771E-02  0.1280296E+00
         21   -1    0    0  503  502  0.00000000000E+00  0.00000000000E+00  0.94128625107E+02  0.94128625107E+02  0.00000000000E+00 0.  1.
         21   -1    0    0  501  503 -0.00000000000E+00 -0.00000000000E+00 -0.17351408981E+04  0.17351408981E+04  0.00000000000E+00 0.  1.
          6    1    1    2  501    0  0.53634286285E+02 -0.27870869370E+03 -0.13407538037E+04  0.13813417154E+04  0.17300000000E+03 0.  1.
         -6    1    1    2    0  502 -0.53634286285E+02  0.27870869370E+03 -0.30025846929E+03  0.44792780779E+03  0.17300000000E+03 0.  1.
</event>
<event>
 4    1  0.6197496E+000  0.1000000E+03  0.7546771E-02  0.1280296E+00
         21   -1    0    0  503  502  0.00000000000E+00  0.00000000000E+00  0.45117791928E+03  0.45117791928E+03  0.00000000000E+00 0.  1.
         21   -1    0    0  501  503 -0.00000000000E+00 -0.00000000000E+00 -0.22621471253E+03  0.22621471253E+03  0.00000000000E+00 0.  1.
          6    1    1    2  501    0 -0.12755859538E+03  0.20743986390E+03  0.23257424098E+03  0.37857927830E+03  0.17300000000E+03 0.  1.
         -6    1    1    2    0  502  0.12755859538E+03 -0.20743986390E+03 -0.76110342282E+01  0.29881335350E+03  0.17300000000E+03 0.  1.
</event>
<event>
 4    1  0.6197496E+000  0.1000000E+03  0.7546771E-02  0.1280296E+00
         21   -1    0    0  503  502  0.00000000000E+00  0.00000000000E+00  0.31215504659E+03  0.31215504659E+03  0.00000000000E+00 0. -1.
         21   -1    0    0  501  503 -0.00000000000E+00 -0.00000000000E+00 -0.45889558095E+03  0.45889558095E+03  0.00000000000E+00 0.  1.
          6    1    1    2  501    0  0.12562580600E+03 -0.31053555634E+03 -0.10720607856E+03  0.39196468995E+03  0.17300000000E+03 0.  1.
         -6    1    1    2    0  502 -0.12562580600E+03  0.31053555634E+03 -0.39534455794E+02  0.37908593759E+03  0.17300000000E+03 0. -1.
</event>
<event>
 4    1  0.6197496E+000  0.1000000E+03  0.7546771E-02  0.1280296E+00
         21   -1    0    0  503  502  0.00000000000E+00  0.00000000000E+00  0.87916820016E+02  0.87916820016E+02  0.00000000000E+00 0. -1.
         21   -1    0    0  501  503 -0.00000000000E+00 -0.00000000000E+00 -0.14884857131E+04  0.14884857131E+04  0.00000000000E+00 0.  1.
          6    1    1    2  501    0 -0.14040182685E+03 -0.15479926152E+03 -0.12216575065E+04  0.12514198127E+04  0.17300000000E+03 0.  1.
         -6    1    1    2    0  502  0.14040182685E+03  0.15479926152E+03 -0.17891138663E+03  0.32498272049E+03  0.17300000000E+03 0. -1.
</event>
<event>
 4    1  0.6197496E+000  0.1000000E+03  0.7546771E-02  0.1280296E+00
         21   -1    0    0  503  502  0.00000000000E+00  0.00000000000E+00  0.93441545442E+03  0.93441545442E+03  0.00000000000E+00 0.  1.
         21   -1    0    0  501  503 -0.00000000000E+00 -0.00000000000E+00 -0.21789847415E+03  0.21789847415E+03  0.00000000000E+00 0.  1.
          6    1    1    2  501    0 -0.67451023911E+02  0.15281847125E+03 -0.12925439405E+03  0.27301799238E+03  0.17300000000E+03 0.  1.
         -6    1    1    2    0  502  0.67451023911E+02 -0.15281847125E+03  0.84577137432E+03  0.87929593619E+03  0.17300000000E+03 0.  1.
</event>
<event>
 4    1  0.6197496E+000  0.1000000E+03  0.7546771E-02  0.1280296E+00
         21   -1    0    0  503  502  0.00000000000E+00  0.00000000000E+00  0.62214960349E+03  0.62214960349E+03  0.00000000000E+00 0. -1.
         21   -1    0    0  501  503 -0.00000000000E+00 -0.00000000000E+00 -0.10049382598E+03  0.10049382598E+03  0.00000000000E+00 0.  1.
          6    1    1    2  501    0  0.98585771611E+02  0.14999102013E+03  0.23278039370E+03  0.34107502426E+03  0.17300000000E+03 0.  1.
         -6    1    1    2    0  502 -0.98585771611E+02 -0.14999102013E+03  0.28887538381E+03  0.38156840521E+03  0.17300000000E+03 0. -1.
</event>
<event>
 4    1  0.6197496E+000  0.1000000E+03  0.7546771E-02  0.1280296E+00
         21   -1    0    0  501  502  0.00000000000E+00  0.00000000000E+00  0.90902216864E+02  0.90902216864E+02  0.00000000000E+00 0. -1.
         21   -1    0    0  502  503 -0.00000000000E+00 -0.00000000000E+00 -0.66334328392E+03  0.66334328392E+03  0.00000000000E+00 0. -1.
          6    1    1    2  501    0 -0.16954748522E+03 -0.12192892962E+02 -0.22723097671E+03  0.33235212224E+03  0.17300000000E+03 0. -1.
         -6    1    1    2    0  503  0.16954748522E+03  0.12192892962E+02 -0.34521009035E+03  0.42189337854E+03  0.17300000000E+03 0. -1.
</event>
<event>
 4    1  0.6197496E+000  0.1000000E+03  0.7546771E-02  0.1280296E+00
         21   -1    0    0  501  502  0.00000000000E+00  0.00000000000E+00  0.41274293052E+03  0.41274293052E+03  0.00000000000E+00 0. -1.
         21   -1    0    0  502  503 -0.00000000000E+00 -0.00000000000E+00 -0.32677969237E+03  0.32677969237E+03  0.00000000000E+00 0. -1.
          6    1    1    2  501    0 -0.90950356751E+02  0.22484028317E+03  0.25920748907E+03  0.39489573652E+03  0.17300000000E+03 0. -1.
         -6    1    1    2    0  503  0.90950356751E+02 -0.22484028317E+03 -0.17324425093E+03  0.34462688637E+03  0.17300000000E+03 0. -1.
</event>
<event>
 4    1  0.6197496E+000  0.1000000E+03  0.7546771E-02  0.1280296E+00
         21   -1    0    0  503  502  0.00000000000E+00  0.00000000000E+00  0.44761428680E+03  0.44761428680E+03  0.00000000000E+00 0.  1.
         21   -1    0    0  501  503 -0.00000000000E+00 -0.00000000000E+00 -0.24058958452E+03  0.24058958452E+03  0.00000000000E+00 0.  1.
          6    1    1    2  501    0 -0.35871111800E+02  0.27805029149E+02 -0.18499161330E+03  0.25731450270E+03  0.17300000000E+03 0.  1.
         -6    1    1    2    0  502  0.35871111800E+02 -0.27805029149E+02  0.39201631558E+03  0.43088936862E+03  0.17300000000E+03 0.  1.
</event>
<event>
 4    1  0.6197496E+000  0.1000000E+03  0.7546771E-02  0.1280296E+00
         21   -1    0    0  503  502  0.00000000000E+00  0.00000000000E+00  0.99776459657E+02  0.99776459657E+02  0.00000000000E+00 0.  1.
         21   -1    0    0  501  503 -0.00000000000E+00 -0.00000000000E+00 -0.42670319868E+03  0.42670319868E+03  0.00000000000E+00 0.  1.
          6    1    1    2  501    0  0.11012469058E+03  0.12782016598E+02 -0.13942227351E+03  0.24831109072E+03  0.17300000000E+03 0.  1.
         -6    1    1    2    0  502 -0.11012469058E+03 -0.12782016598E+02 -0.18750446552E+03  0.27816856762E+03  0.17300000000E+03 0.  1.
</event>
<event>
 4    1  0.6197496E+000  0.1000000E+03  0.7546771E-02  0.1280296E+00
         21   -1    0    0  503  502  0.00000000000E+00  0.00000000000E+00  0.38417111410E+03  0.38417111410E+03  0.00000000000E+00 0.  1.
         21   -1    0    0  501  503 -0.00000000000E+00 -0.00000000000E+00 -0.10584527503E+03  0.10584527503E+03  0.00000000000E+00 0.  1.
          6    1    1    2  501    0 -0.22279956184E+02  0.53034363849E+02  0.34469178886E+02  0.18554289124E+03  0.17300000000E+03 0.  1.
         -6    1    1    2    0  502  0.22279956184E+02 -0.53034363849E+02  0.24385666018E+03  0.30447349788E+03  0.17300000000E+03 0.  1.
</event>
<event>
 4    1  0.6197496E+000  0.1000000E+03  0.7546771E-02  0.1280296E+00
         21   -1    0    0  503  502  0.00000000000E+00  0.00000000000E+00  0.13798201696E+03  0.13798201696E+03  0.00000000000E+00 0. -1.
         21   -1    0    0  501  503 -0.00000000000E+00 -0.00000000000E+00 -0.29103348865E+03  0.29103348865E+03  0.00000000000E+00 0.  1.
          6    1    1    2  501    0 -0.74800626609E+02  0.50799621670E+02 -0.12502308249E+03  0.23180920271E+03  0.17300000000E+03 0. -1.
         -6    1    1    2    0  502  0.74800626609E+02 -0.50799621670E+02 -0.28028389198E+02  0.19720630290E+03  0.17300000000E+03 0.  1.
</event>
<event>
 4    1  0.6197496E+000  0.1000000E+03  0.7546771E-02  0.1280296E+00
         21   -1    0    0  503  502  0.00000000000E+00  0.00000000000E+00  0.94849445391E+03  0.94849445391E+03  0.00000000000E+00 0. -1.
         21   -1    0    0  501  503 -0.00000000000E+00 -0.00000000000E+00 -0.92581032781E+02  0.92581032781E+02  0.00000000000E+00 0.  1.
          6    1    1    2  501    0 -0.69593129986E+02 -0.11819337914E+03  0.80740886199E+02  0.23507651801E+03  0.17300000000E+03 0.  1.
         -6    1    1    2    0  502  0.69593129986E+02  0.11819337914E+03  0.77517253493E+03  0.80599896869E+03  0.17300000000E+03 0. -1.
</event>
<event>
 4    1  0.6197496E+000  0.1000000E+03  0.7546771E-02  0.1280296E+00
         21   -1    0    0  503  502  0.00000000000E+00  0.00000000000E+00  0.35949919627E+03  0.35949919627E+03  0.00000000000E+00 0. -1.
         21   -1    0    0  501  503 -0.00000000000E+00 -0.00000000000E+00 -0.87798504855E+02  0.87798504855E+02  0.00000000000E+00 0.  1.
          6    1    1    2  501    0  0.27415379418E+02  0.24994063721E+02  0.11562293825E+03  0.21136217755E+03  0.17300000000E+03 0.  1.
         -6    1    1    2    0  502 -0.27415379418E+02 -0.24994063721E+02  0.15607775317E+03  0.23593552357E+03  0.17300000000E+03 0. -1.
</event>
<event>
 4    1  0.6197496E+000  0.1000000E+03  0.7546771E-02  0.1280296E+00
         21   -1    0    0  503  502  0.00000000000E+00  0.00000000000E+00  0.38181297227E+03  0.38181297227E+03  0.00000000000E+00 0. -1.
         21   -1    0    0  501  503 -0.00000000000E+00 -0.00000000000E+00 -0.10873461004E+03  0.10873461004E+03  0.00000000000E+00 0.  1.
          6    1    1    2  501    0 -0.24576588044E+01 -0.64671384925E+02  0.32995355538E+02  0.18763294381E+03  0.17300000000E+03 0.  1.
         -6    1    1    2    0  502  0.24576588044E+01  0.64671384925E+02  0.24008300669E+03  0.30291463850E+03  0.17300000000E+03 0. -1.
</event>
<event>
 4    1  0.6197496E+000  0.1000000E+03  0.7546771E-02  0.1280296E+00
         21   -1    0    0  503  502  0.00000000000E+00  0.00000000000E+00  0.26639677553E+03  0.26639677553E+03  0.00000000000E+00 0. -1.
         21   -1    0    0  501  503 -0.00000000000E+00 -0.00000000000E+00 -0.51496268387E+03  0.51496268387E+03  0.00000000000E+00 0.  1.
          6    1    1    2  501    0 -0.94865645102E+02 -0.53799383648E+02 -0.45001098337E+03  0.49430026245E+03  0.17300000000E+03 0.  1.
         -6    1    1    2    0  502  0.94865645102E+02  0.53799383648E+02  0.20144507503E+03  0.28705919696E+03  0.17300000000E+03 0. -1.
</event>
<event>
 4    1  0.6197496E+000  0.1000000E+03  0.7546771E-02  0.1280296E+00
         21   -1    0    0  503  502  0.00000000000E+00  0.00000000000E+00  0.17498786436E+03  0.17498786436E+03  0.00000000000E+00 0.  1.
         21   -1    0    0  501  503 -0.00000000000E+00 -0.00000000000E+00 -0.34942555036E+03  0.34942555036E+03  0.00000000000E+00 0. -1.
          6    1    1    2  501    0  0.25320285362E+02 -0.17177472505E+03 -0.52556213057E+02  0.25067674114E+03  0.17300000000E+03 0. -1.
         -6    1    1    2    0  502 -0.25320285362E+02  0.17177472505E+03 -0.12188147295E+03  0.27373667358E+03  0.17300000000E+03 0.  1.
</event>
<event>
 4    1  0.6197496E+000  0.1000000E+03  0.7546771E-02  0.1280296E+00
         21   -1    0    0  503  502  0.00000000000E+00  0.00000000000E+00  0.10335042611E+03  0.10335042611E+03  0.00000000000E+00 0.  1.
         21   -1    0    0  501  503 -0.00000000000E+00 -0.00000000000E+00 -0.51882489025E+03  0.51882489025E+03  0.00000000000E+00 0. -1.
          6    1    1    2  501    0  0.10226067283E+03 -0.51263404172E+02 -0.34609519822E+03  0.40347994751E+03  0.17300000000E+03 0. -1.
         -6    1    1    2    0  502 -0.10226067283E+03  0.51263404172E+02 -0.69379265921E+02  0.21869536885E+03  0.17300000000E+03 0.  1.
</event>
<event>
 4    1  0.6197496E+000  0.1000000E+03  0.7546771E-02  0.1280296E+00
         21   -1    0    0  503  502  0.00000000000E+00  0.00000000000E+00  0.28290435364E+02  0.28290435364E+02  0.00000000000E+00 0.  1.
         21   -1    0    0  501  503 -0.00000000000E+00 -0.00000000000E+00 -0.10772416557E+04  0.10772416557E+04  0.00000000000E+00 0. -1.
          6    1    1    2  501    0 -0.22879804810E+02  0.45786588632E+01 -0.52915700013E+03  0.55720784307E+03  0.17300000000E+03 0. -1.
         -6    1    1    2    0  502  0.22879804810E+02 -0.45786588632E+01 -0.51979422020E+03  0.54832424799E+03  0.17300000000E+03 0.  1.
</event>
<event>
 4    1  0.6197496E+000  0.1000000E+03  0.7546771E-02  0.1280296E+00
         21   -1    0    0  503  502  0.00000000000E+00  0.00000000000E+00  0.13927414834E+04  0.13927414834E+04  0.00000000000E+00 0. -1.
         21   -1    0    0  501  503 -0.00000000000E+00 -0.00000000000E+00 -0.30893549945E+03  0.30893549945E+03  0.00000000000E+00 0. -1.
          6    1    1    2  501    0 -0.10030833615E+03 -0.21360647839E+03 -0.21959076678E+03  0.36583957518E+03  0.17300000000E+03 0. -1.
         -6    1    1    2    0  502  0.10030833615E+03  0.21360647839E+03  0.13033967507E+04  0.13358374077E+04  0.17300000000E+03 0. -1.
</event>
<event>
 4    1  0.6197496E+000  0.1000000E+03  0.7546771E-02  0.1280296E+00
         21   -1    0    0  503  502  0.00000000000E+00  0.00000000000E+00  0.12604384880E+04  0.12604384880E+04  0.00000000000E+00 0.  1.
         21   -1    0    0  501  503 -0.00000000000E+00 -0.00000000000E+00 -0.66517770771E+02  0.66517770771E+02  0.00000000000E+00 0.  1.
          6    1    1    2  501    0  0.32506021267E+02 -0.10449540797E+03  0.12772180510E+03  0.24128363227E+03  0.17300000000E+03 0.  1.
         -6    1    1    2    0  502 -0.32506021267E+02  0.10449540797E+03  0.10661989121E+04  0.10856726265E+04  0.17300000000E+03 0.  1.
</event>
<event>
 4    1  0.6197496E+000  0.1000000E+03  0.7546771E-02  0.1280296E+00
         21   -1    0    0  503  502  0.00000000000E+00  0.00000000000E+00  0.63099914153E+03  0.63099914153E+03  0.00000000000E+00 0.  1.
         21   -1    0    0  501  503 -0.00000000000E+00 -0.00000000000E+00 -0.68677960211E+02  0.68677960211E+02  0.00000000000E+00 0.  1.
          6    1    1    2  501    0 -0.21701794961E+02  0.38038185597E+01  0.90132321070E+02  0.19631167118E+03  0.17300000000E+03 0.  1.
         -6    1    1    2    0  502  0.21701794961E+02 -0.38038185597E+01  0.47218886025E+03  0.50336543056E+03  0.17300000000E+03 0.  1.
</event>
<event>
 4    1  0.6197496E+000  0.1000000E+03  0.7546771E-02  0.1280296E+00
         21   -1    0    0  501  502  0.00000000000E+00  0.00000000000E+00  0.41041208776E+03  0.41041208776E+03  0.00000000000E+00 0.  1.
         21   -1    0    0  502  503 -0.00000000000E+00 -0.00000000000E+00 -0.10108210156E+03  0.10108210156E+03  0.00000000000E+00 0.  1.
          6    1    1    2  501    0  0.53364516860E+02 -0.33120205408E+02  0.26421222032E+03  0.32199661028E+03  0.17300000000E+03 0.  1.
         -6    1    1    2    0  503 -0.53364516860E+02  0.33120205408E+02  0.45117765887E+02  0.18949757905E+03  0.17300000000E+03 0.  1.
</event>
<event>
 4    1  0.6197496E+000  0.1000000E+03  0.7546771E-02  0.1280296E+00
         21   -1    0    0  501  502  0.00000000000E+00  0.00000000000E+00  0.15489226015E+03  0.15489226015E+03  0.00000000000E+00 0.  1.
         21   -1    0    0  502  503 -0.00000000000E+00 -0.00000000000E+00 -0.20505474234E+03  0.20505474234E+03  0.00000000000E+00 0.  1.
          6    1    1    2  501    0 -0.23431473611E+02  0.64652555991E+01  0.10501752388E+02  0.17501462879E+03  0.17300000000E+03 0.  1.
         -6    1    1    2    0  503  0.23431473611E+02 -0.64652555991E+01 -0.60664234581E+02  0.18493237370E+03  0.17300000000E+03 0.  1.
</event>
<event>
 4    1  0.6197496E+000  0.1000000E+03  0.7546771E-02  0.1280296E+00
         21   -1    0    0  503  502  0.00000000000E+00  0.00000000000E+00  0.50976941382E+03  0.50976941382E+03  0.00000000000E+00 0.  1.
         21   -1    0    0  501  503 -0.00000000000E+00 -0.00000000000E+00 -0.70091828787E+02  0.70091828787E+02  0.00000000000E+00 0.  1.
          6    1    1    2  501    0 -0.13313521726E+02  0.73801572698E+02  0.19938958641E+03  0.27442508843E+03  0.17300000000E+03 0.  1.
         -6    1    1    2    0  502  0.13313521726E+02 -0.73801572698E+02  0.24028799863E+03  0.30543615418E+03  0.17300000000E+03 0.  1.
</event>
<event>
 4    1  0.6197496E+000  0.1000000E+03  0.7546771E-02  0.1280296E+00
         21   -1    0    0  503  502  0.00000000000E+00  0.00000000000E+00  0.78105796264E+03  0.78105796264E+03  0.00000000000E+00 0.  1.
         21   -1    0    0  501  503 -0.00000000000E+00 -0.00000000000E+00 -0.60637730111E+02  0.60637730111E+02  0.00000000000E+00 0.  1.
          6    1    1    2  501    0 -0.42853608528E+02 -0.94417509656E+02  0.20214047161E+03  0.28555361695E+03  0.17300000000E+03 0.  1.
         -6    1    1    2    0  502  0.42853608528E+02  0.94417509656E+02  0.51827976092E+03  0.55614207580E+03  0.17300000000E+03 0.  1.
</event>
<event>
 4    1  0.6197496E+000  0.1000000E+03  0.7546771E-02  0.1280296E+00
         21   -1    0    0  503  502  0.00000000000E+00  0.00000000000E+00  0.13972999036E+04  0.13972999036E+04  0.00000000000E+00 0.  1.
         21   -1    0    0  501  503 -0.00000000000E+00 -0.00000000000E+00 -0.47379092840E+02  0.47379092840E+02  0.00000000000E+00 0.  1.
          6    1    1    2  501    0 -0.25667454536E+02  0.15832364227E+03  0.38662315441E+03  0.45291462490E+03  0.17300000000E+03 0.  1.
         -6    1    1    2    0  502  0.25667454536E+02 -0.15832364227E+03  0.96329765631E+03  0.99176437150E+03  0.17300000000E+03 0.  1.
</event>
<event>
 4    1  0.6197496E+000  0.1000000E+03  0.7546771E-02  0.1280296E+00
         21   -1    0    0  503  502  0.00000000000E+00  0.00000000000E+00  0.46941088065E+02  0.46941088065E+02  0.00000000000E+00 0.  1.
         21   -1    0    0  501  503 -0.00000000000E+00 -0.00000000000E+00 -0.71074201837E+03  0.71074201837E+03  0.00000000000E+00 0.  1.
          6    1    1    2  501    0  0.40978108803E+02  0.18222700182E+01 -0.41870198538E+03  0.45488776487E+03  0.17300000000E+03 0.  1.
         -6    1    1    2    0  502 -0.40978108803E+02 -0.18222700182E+01 -0.24509894492E+03  0.30279534156E+03  0.17300000000E+03 0.  1.
</event>
<event>
 4    1  0.6197496E+000  0.1000000E+03  0.7546771E-02  0.1280296E+00
         21   -1    0    0  501  502  0.00000000000E+00  0.00000000000E+00  0.13324694606E+04  0.13324694606E+04  0.00000000000E+00 0.  1.
         21   -1    0    0  502  503 -0.00000000000E+00 -0.00000000000E+00 -0.56069004311E+02  0.56069004311E+02  0.00000000000E+00 0.  1.
          6    1    1    2  501    0 -0.45557756408E+02  0.34047025115E+02  0.11559324888E+04  0.11701895692E+04  0.17300000000E+03 0.  1.
         -6    1    1    2    0  503  0.45557756408E+02 -0.34047025115E+02  0.12046796749E+03  0.21834889576E+03  0.17300000000E+03 0.  1.
</event>
<event>
 4    1  0.6197496E+000  0.1000000E+03  0.7546771E-02  0.1280296E+00
         21   -1    0    0  503  502  0.00000000000E+00  0.00000000000E+00  0.36433113464E+03  0.36433113464E+03  0.00000000000E+00 0.  1.
         21   -1    0    0  501  503 -0.00000000000E+00 -0.00000000000E+00 -0.12783280900E+04  0.12783280900E+04  0.00000000000E+00 0.  1.
          6    1    1    2  501    0 -0.19842697778E+02 -0.43217774480E+02 -0.12494357048E+04  0.12622519911E+04  0.17300000000E+03 0.  1.
         -6    1    1    2    0  502  0.19842697778E+02  0.43217774480E+02  0.33543874944E+03  0.38040723352E+03  0.17300000000E+03 0.  1.
</event>
<event>
 4    1  0.6197496E+000  0.1000000E+03  0.7546771E-02  0.1280296E+00
         21   -1    0    0  503  502  0.00000000000E+00  0.00000000000E+00  0.48989318862E+03  0.48989318862E+03  0.00000000000E+00 0.  1.
         21   -1    0    0  501  503 -0.00000000000E+00 -0.00000000000E+00 -0.14776515964E+03  0.14776515964E+03  0.00000000000E+00 0.  1.
          6    1    1    2  501    0 -0.12089623479E+03 -0.20059710207E+02 -0.25239489610E+02  0.21350485567E+03  0.17300000000E+03 0.  1.
         -6    1    1    2    0  502  0.12089623479E+03  0.20059710207E+02  0.36736751859E+03  0.42415349259E+03  0.17300000000E+03 0.  1.
</event>
<event>
 4    1  0.6197496E+000  0.1000000E+03  0.7546771E-02  0.1280296E+00
         21   -1    0    0  503  502  0.00000000000E+00  0.00000000000E+00  0.59817696028E+02  0.59817696028E+02  0.00000000000E+00 0.  1.
         21   -1    0    0  501  503 -0.00000000000E+00 -0.00000000000E+00 -0.77212888228E+03  0.77212888228E+03  0.00000000000E+00 0.  1.
          6    1    1    2  501    0 -0.76072702523E+02 -0.21182902044E+02 -0.54992589833E+03  0.58187908114E+03  0.17300000000E+03 0.  1.
         -6    1    1    2    0  502  0.76072702523E+02  0.21182902044E+02 -0.16238528792E+03  0.25006749717E+03  0.17300000000E+03 0.  1.
</event>
<event>
 4    1  0.6197496E+000  0.1000000E+03  0.7546771E-02  0.1280296E+00
         21   -1    0    0  503  502  0.00000000000E+00  0.00000000000E+00  0.49363362288E+03  0.49363362288E+03  0.00000000000E+00 0.  1.
         21   -1    0    0  501  503 -0.00000000000E+00 -0.00000000000E+00 -0.78216497811E+02  0.78216497811E+02  0.00000000000E+00 0.  1.
          6    1    1    2  501    0  0.11029122980E+02  0.49962341306E+02  0.94400879931E+02  0.20361336703E+03  0.17300000000E+03 0.  1.
         -6    1    1    2    0  502 -0.11029122980E+02 -0.49962341306E+02  0.32101624514E+03  0.36823675366E+03  0.17300000000E+03 0.  1.
</event>
<event>
 4    1  0.6197496E+000  0.1000000E+03  0.7546771E-02  0.1280296E+00
         21   -1    0    0  501  502  0.00000000000E+00  0.00000000000E+00  0.18083904598E+04  0.18083904598E+04  0.00000000000E+00 0.  1.
         21   -1    0    0  502  503 -0.00000000000E+00 -0.00000000000E+00 -0.46289435308E+02  0.46289435308E+02  0.00000000000E+00 0.  1.
          6    1    1    2  501    0  0.23264625826E+00 -0.96991441189E+02  0.15562175300E+04  0.15688050849E+04  0.17300000000E+03 0.  1.
         -6    1    1    2    0  503 -0.23264625826E+00  0.96991441189E+02  0.20588349444E+03  0.28587481014E+03  0.17300000000E+03 0.  1.
</event>
<event>
 4    1  0.6197496E+000  0.1000000E+03  0.7546771E-02  0.1280296E+00
         21   -1    0    0  503  502  0.00000000000E+00  0.00000000000E+00  0.19730148921E+03  0.19730148921E+03  0.00000000000E+00 0. -1.
         21   -1    0    0  501  503 -0.00000000000E+00 -0.00000000000E+00 -0.22814850450E+03  0.22814850450E+03  0.00000000000E+00 0.  1.
          6    1    1    2  501    0 -0.97838886545E+02  0.41534313338E+02 -0.77128519296E+02  0.21719888442E+03  0.17300000000E+03 0. -1.
         -6    1    1    2    0  502  0.97838886545E+02 -0.41534313338E+02  0.46281504007E+02  0.20825110928E+03  0.17300000000E+03 0.  1.
</event>
<event>
 4    1  0.6197496E+000  0.1000000E+03  0.7546771E-02  0.1280296E+00
         21   -1    0    0  503  502  0.00000000000E+00  0.00000000000E+00  0.85287661342E+02  0.85287661342E+02  0.00000000000E+00 0. -1.
         21   -1    0    0  501  503 -0.00000000000E+00 -0.00000000000E+00 -0.81570345669E+03  0.81570345669E+03  0.00000000000E+00 0. -1.
          6    1    1    2  501    0 -0.34631152938E+01 -0.17235592293E+03 -0.53533688105E+03  0.58841578288E+03  0.17300000000E+03 0. -1.
         -6    1    1    2    0  502  0.34631152938E+01  0.17235592293E+03 -0.19507891430E+03  0.31257533515E+03  0.17300000000E+03 0. -1.
</event>
<event>
 4    1  0.6197496E+000  0.1000000E+03  0.7546771E-02  0.1280296E+00
         21   -1    0    0  503  502  0.00000000000E+00  0.00000000000E+00  0.28407282317E+02  0.28407282317E+02  0.00000000000E+00 0. -1.
         21   -1    0    0  501  503 -0.00000000000E+00 -0.00000000000E+00 -0.11308164106E+04  0.11308164106E+04  0.00000000000E+00 0. -1.
          6    1    1    2  501    0  0.43688693833E+02  0.71074555035E+01 -0.60080070769E+03  0.62677723973E+03  0.17300000000E+03 0. -1.
         -6    1    1    2    0  502 -0.43688693833E+02 -0.71074555035E+01 -0.50160842060E+03  0.53244645318E+03  0.17300000000E+03 0. -1.
</event>
<event>
 4    1  0.6197496E+000  0.1000000E+03  0.7546771E-02  0.1280296E+00
         21   -1    0    0  503  502  0.00000000000E+00  0.00000000000E+00  0.83683979672E+02  0.83683979672E+02  0.00000000000E+00 0. -1.
         21   -1    0    0  501  503 -0.00000000000E+00 -0.00000000000E+00 -0.10032715071E+04  0.10032715071E+04  0.00000000000E+00 0. -1.
          6    1    1    2  501    0 -0.21705246072E+02  0.40167766220E+02 -0.88727773075E+03  0.90513829807E+03  0.17300000000E+03 0. -1.
         -6    1    1    2    0  502  0.21705246072E+02 -0.40167766220E+02 -0.32309796692E+02  0.18181718872E+03  0.17300000000E+03 0. -1.
</event>
<event>
 4    1  0.6197496E+000  0.1000000E+03  0.7546771E-02  0.1280296E+00
         21   -1    0    0  501  502  0.00000000000E+00  0.00000000000E+00  0.98580534933E+02  0.98580534933E+02  0.00000000000E+00 0.  1.
         21   -1    0    0  502  503 -0.00000000000E+00 -0.00000000000E+00 -0.43209278875E+03  0.43209278875E+03  0.00000000000E+00 0.  1.
          6    1    1    2  501    0 -0.83556568140E+02  0.10798590828E+02 -0.70818870628E+02  0.20504297618E+03  0.17300000000E+03 0.  1.
         -6    1    1    2    0  503  0.83556568140E+02 -0.10798590828E+02 -0.26269338319E+03  0.32563034750E+03  0.17300000000E+03 0.  1.
</event>
<event>
 4    1  0.6197496E+000  0.1000000E+03  0.7546771E-02  0.1280296E+00
         21   -1    0    0  501  502  0.00000000000E+00  0.00000000000E+00  0.82389358610E+03  0.82389358610E+03  0.00000000000E+00 0.  1.
         21   -1    0    0  502  503 -0.00000000000E+00 -0.00000000000E+00 -0.40722051306E+02  0.40722051306E+02  0.00000000000E+00 0.  1.
          6    1    1    2  501    0  0.54137972148E+02 -0.22931933458E+02  0.36128327619E+03  0.40485972787E+03  0.17300000000E+03 0.  1.
         -6    1    1    2    0  503 -0.54137972148E+02  0.22931933458E+02  0.42188825861E+03  0.45975590953E+03  0.17300000000E+03 0.  1.
</event>
<event>
 4    1  0.6197496E+000  0.1000000E+03  0.7546771E-02  0.1280296E+00
         21   -1    0    0  501  502  0.00000000000E+00  0.00000000000E+00  0.53996450023E+03  0.53996450023E+03  0.00000000000E+00 0. -1.
         21   -1    0    0  502  503 -0.00000000000E+00 -0.00000000000E+00 -0.24030494094E+03  0.24030494094E+03  0.00000000000E+00 0.  1.
          6    1    1    2  501    0  0.61377994197E+02 -0.61061872155E+01  0.48544168973E+03  0.51902521887E+03  0.17300000000E+03 0. -1.
         -6    1    1    2    0  503 -0.61377994197E+02  0.61061872155E+01 -0.18578213044E+03  0.26124422230E+03  0.17300000000E+03 0.  1.
</event>
<event>
 4    1  0.6197496E+000  0.1000000E+03  0.7546771E-02  0.1280296E+00
         21   -1    0    0  503  502  0.00000000000E+00  0.00000000000E+00  0.24540573652E+04  0.24540573652E+04  0.00000000000E+00 0.  1.
         21   -1    0    0  501  503 -0.00000000000E+00 -0.00000000000E+00 -0.25404894966E+02  0.25404894966E+02  0.00000000000E+00 0.  1.
          6    1    1    2  501    0  0.16742826580E+02  0.66678311680E+02  0.38812475667E+03  0.43046038869E+03  0.17300000000E+03 0.  1.
         -6    1    1    2    0  502 -0.16742826580E+02 -0.66678311680E+02  0.20405277136E+04  0.20490018715E+04  0.17300000000E+03 0.  1.
</event>
<event>
 4    1  0.6197496E+000  0.1000000E+03  0.7546771E-02  0.1280296E+00
         21   -1    0    0  503  502  0.00000000000E+00  0.00000000000E+00  0.57600132324E+02  0.57600132324E+02  0.00000000000E+00 0.  1.
         21   -1    0    0  501  503 -0.00000000000E+00 -0.00000000000E+00 -0.80539369714E+03  0.80539369714E+03  0.00000000000E+00 0.  1.
          6    1    1    2  501    0 -0.12687666299E+02 -0.28174461197E+02 -0.62337108879E+03  0.64766912192E+03  0.17300000000E+03 0.  1.
         -6    1    1    2    0  502  0.12687666299E+02  0.28174461197E+02 -0.12442247602E+03  0.21532470754E+03  0.17300000000E+03 0.  1.
</event>
<event>
 4    1  0.6197496E+000  0.1000000E+03  0.7546771E-02  0.1280296E+00
         21   -1    0    0  503  502  0.00000000000E+00  0.00000000000E+00  0.33002746212E+02  0.33002746212E+02  0.00000000000E+00 0.  1.
         21   -1    0    0  501  503 -0.00000000000E+00 -0.00000000000E+00 -0.27292504577E+04  0.27292504577E+04  0.00000000000E+00 0.  1.
          6    1    1    2  501    0  0.26402482929E+02  0.24232422383E+03 -0.14720883336E+04  0.15021288834E+04  0.17300000000E+03 0.  1.
         -6    1    1    2    0  502 -0.26402482929E+02 -0.24232422383E+03 -0.12241593779E+04  0.12601243205E+04  0.17300000000E+03 0.  1.
</event>
<event>
 4    1  0.6197496E+000  0.1000000E+03  0.7546771E-02  0.1280296E+00
         21   -1    0    0  503  502  0.00000000000E+00  0.00000000000E+00  0.37245421911E+03  0.37245421911E+03  0.00000000000E+00 0.  1.
         21   -1    0    0  501  503 -0.00000000000E+00 -0.00000000000E+00 -0.94407503917E+02  0.94407503917E+02  0.00000000000E+00 0.  1.
          6    1    1    2  501    0  0.56092604515E+02  0.40511873889E+02  0.11273714470E+03  0.21777570113E+03  0.17300000000E+03 0.  1.
         -6    1    1    2    0  502 -0.56092604515E+02 -0.40511873889E+02  0.16530957049E+03  0.24908602189E+03  0.17300000000E+03 0.  1.
</event>
<event>
 4    1  0.6197496E+000  0.1000000E+03  0.7546771E-02  0.1280296E+00
         21   -1    0    0  503  502  0.00000000000E+00  0.00000000000E+00  0.15012169991E+03  0.15012169991E+03  0.00000000000E+00 0. -1.
         21   -1    0    0  501  503 -0.00000000000E+00 -0.00000000000E+00 -0.69651612588E+03  0.69651612588E+03  0.00000000000E+00 0. -1.
          6    1    1    2  501    0 -0.86924234028E+02 -0.21709060815E+02 -0.61105760510E+03  0.64136378330E+03  0.17300000000E+03 0. -1.
         -6    1    1    2    0  502  0.86924234028E+02  0.21709060815E+02  0.64663179138E+02  0.20527404249E+03  0.17300000000E+03 0. -1.
</event>
<event>
 4    1  0.6197496E+000  0.1000000E+03  0.7546771E-02  0.1280296E+00
         21   -1    0    0  503  502  0.00000000000E+00  0.00000000000E+00  0.22030550034E+03  0.22030550034E+03  0.00000000000E+00 0. -1.
         21   -1    0    0  501  503 -0.00000000000E+00 -0.00000000000E+00 -0.21566908130E+03  0.21566908130E+03  0.00000000000E+00 0. -1.
          6    1    1    2  501    0 -0.81607370277E+02 -0.10289012020E+03 -0.16066114461E+02  0.21779178073E+03  0.17300000000E+03 0. -1.
         -6    1    1    2    0  502  0.81607370277E+02  0.10289012020E+03  0.20702533503E+02  0.21818280091E+03  0.17300000000E+03 0. -1.
</event>
<event>
 4    1  0.6197496E+000  0.1000000E+03  0.7546771E-02  0.1280296E+00
         21   -1    0    0  501  502  0.00000000000E+00  0.00000000000E+00  0.35786531027E+02  0.35786531027E+02  0.00000000000E+00 0. -1.
         21   -1    0    0  502  503 -0.00000000000E+00 -0.00000000000E+00 -0.10747486199E+04  0.10747486199E+04  0.00000000000E+00 0.  1.
          6    1    1    2  501    0 -0.15249419766E+02 -0.67988509686E+02 -0.34778198359E+03  0.39463437555E+03  0.17300000000E+03 0. -1.
         -6    1    1    2    0  503  0.15249419766E+02  0.67988509686E+02 -0.69118010527E+03  0.71590077536E+03  0.17300000000E+03 0.  1.
</event>
<event>
 4    1  0.6197496E+000  0.1000000E+03  0.7546771E-02  0.1280296E+00
         21   -1    0    0  501  502  0.00000000000E+00  0.00000000000E+00  0.23527491273E+03  0.23527491273E+03  0.00000000000E+00 0. -1.
         21   -1    0    0  502  503 -0.00000000000E+00 -0.00000000000E+00 -0.45508502502E+03  0.45508502502E+03  0.00000000000E+00 0.  1.
          6    1    1    2  501    0 -0.14909850311E+03 -0.32225359498E+02  0.13494153844E+03  0.26722098761E+03  0.17300000000E+03 0. -1.
         -6    1    1    2    0  503  0.14909850311E+03  0.32225359498E+02 -0.35475165073E+03  0.42313895014E+03  0.17300000000E+03 0.  1.
</event>
<event>
 4    1  0.6197496E+000  0.1000000E+03  0.7546771E-02  0.1280296E+00
         21   -1    0    0  501  502  0.00000000000E+00  0.00000000000E+00  0.10721245348E+04  0.10721245348E+04  0.00000000000E+00 0. -1.
         21   -1    0    0  502  503 -0.00000000000E+00 -0.00000000000E+00 -0.87574867323E+02  0.87574867323E+02  0.00000000000E+00 0.  1.
          6    1    1    2  501    0 -0.13209937846E+03 -0.12469153613E+03  0.82526482285E+03  0.86254811622E+03  0.17300000000E+03 0. -1.
         -6    1    1    2    0  503  0.13209937846E+03  0.12469153613E+03  0.15928484459E+03  0.29715128586E+03  0.17300000000E+03 0.  1.
</event>
<event>
 4    1  0.6197496E+000  0.1000000E+03  0.7546771E-02  0.1280296E+00
         21   -1    0    0  501  502  0.00000000000E+00  0.00000000000E+00  0.10903263584E+03  0.10903263584E+03  0.00000000000E+00 0. -1.
         21   -1    0    0  502  503 -0.00000000000E+00 -0.00000000000E+00 -0.31607297164E+03  0.31607297164E+03  0.00000000000E+00 0.  1.
          6    1    1    2  501    0  0.47030692964E+02  0.46427333513E+02 -0.11826702801E+03  0.21973500698E+03  0.17300000000E+03 0. -1.
         -6    1    1    2    0  503 -0.47030692964E+02 -0.46427333513E+02 -0.88773307791E+02  0.20537060051E+03  0.17300000000E+03 0.  1.
</event>
<event>
 4    1  0.6197496E+000  0.1000000E+03  0.7546771E-02  0.1280296E+00
         21   -1    0    0  503  502  0.00000000000E+00  0.00000000000E+00  0.88727214293E+02  0.88727214293E+02  0.00000000000E+00 0.  1.
         21   -1    0    0  501  503 -0.00000000000E+00 -0.00000000000E+00 -0.50531281113E+03  0.50531281113E+03  0.00000000000E+00 0. -1.
          6    1    1    2  501    0  0.54458874146E+02 -0.81135097316E+02 -0.31096458871E+03  0.36902120321E+03  0.17300000000E+03 0. -1.
         -6    1    1    2    0  502 -0.54458874146E+02  0.81135097316E+02 -0.10562100812E+03  0.22501882220E+03  0.17300000000E+03 0.  1.
</event>
<event>
 4    1  0.6197496E+000  0.1000000E+03  0.7546771E-02  0.1280296E+00
         21   -1    0    0  501  502  0.00000000000E+00  0.00000000000E+00  0.13370596106E+04  0.13370596106E+04  0.00000000000E+00 0. -1.
         21   -1    0    0  502  503 -0.00000000000E+00 -0.00000000000E+00 -0.39881498205E+02  0.39881498205E+02  0.00000000000E+00 0. -1.
          6    1    1    2  501    0 -0.15073313648E+03  0.43457397161E+01  0.72492621044E+03  0.76038567482E+03  0.17300000000E+03 0. -1.
         -6    1    1    2    0  503  0.15073313648E+03 -0.43457397161E+01  0.57225190192E+03  0.61655543395E+03  0.17300000000E+03 0. -1.
</event>
<event>
 4    1  0.6197496E+000  0.1000000E+03  0.7546771E-02  0.1280296E+00
         21   -1    0    0  501  502  0.00000000000E+00  0.00000000000E+00  0.18273326621E+04  0.18273326621E+04  0.00000000000E+00 0. -1.
         21   -1    0    0  502  503 -0.00000000000E+00 -0.00000000000E+00 -0.21162191702E+02  0.21162191702E+02  0.00000000000E+00 0. -1.
          6    1    1    2  501    0 -0.85287974798E+02  0.45696422494E+01  0.72433364860E+03  0.74958865705E+03  0.17300000000E+03 0. -1.
         -6    1    1    2    0  503  0.85287974798E+02 -0.45696422494E+01  0.10818368218E+04  0.10989061967E+04  0.17300000000E+03 0. -1.
</event>
<event>
 4    1  0.6197496E+000  0.1000000E+03  0.7546771E-02  0.1280296E+00
         21   -1    0    0  503  502  0.00000000000E+00  0.00000000000E+00  0.67500483407E+02  0.67500483407E+02  0.00000000000E+00 0.  1.
         21   -1    0    0  501  503 -0.00000000000E+00 -0.00000000000E+00 -0.88885336465E+03  0.88885336465E+03  0.00000000000E+00 0.  1.
          6    1    1    2  501    0 -0.76307073696E+02 -0.12461893382E+03 -0.59293514568E+03  0.63470759814E+03  0.17300000000E+03 0. -1.
         -6    1    1    2    0  502  0.76307073696E+02  0.12461893382E+03 -0.22841773557E+03  0.32164624991E+03  0.17300000000E+03 0. -1.
</event>
<event>
 4    1  0.6197496E+000  0.1000000E+03  0.7546771E-02  0.1280296E+00
         21   -1    0    0  501  502  0.00000000000E+00  0.00000000000E+00  0.48591179361E+02  0.48591179361E+02  0.00000000000E+00 0. -1.
         21   -1    0    0  502  503 -0.00000000000E+00 -0.00000000000E+00 -0.72168390564E+03  0.72168390564E+03  0.00000000000E+00 0. -1.
          6    1    1    2  501    0  0.17279796300E+00  0.67092262116E+02 -0.28463560060E+03  0.33977614193E+03  0.17300000000E+03 0. -1.
         -6    1    1    2    0  503 -0.17279796300E+00 -0.67092262116E+02 -0.38845712568E+03  0.43049894307E+03  0.17300000000E+03 0. -1.
</event>
<event>
 4    1  0.6197496E+000  0.1000000E+03  0.7546771E-02  0.1280296E+00
         21   -1    0    0  501  502  0.00000000000E+00  0.00000000000E+00  0.56534651810E+02  0.56534651810E+02  0.00000000000E+00 0. -1.
         21   -1    0    0  502  503 -0.00000000000E+00 -0.00000000000E+00 -0.80603769623E+03  0.80603769623E+03  0.00000000000E+00 0. -1.
          6    1    1    2  501    0 -0.62260608856E+02  0.75042302412E+02 -0.21653812533E+03  0.29381199820E+03  0.17300000000E+03 0. -1.
         -6    1    1    2    0  503  0.62260608856E+02 -0.75042302412E+02 -0.53296491908E+03  0.56876034983E+03  0.17300000000E+03 0. -1.
</event>
<event>
 4    1  0.6197496E+000  0.1000000E+03  0.7546771E-02  0.1280296E+00
         21   -1    0    0  501  502  0.00000000000E+00  0.00000000000E+00  0.78387640919E+03  0.78387640919E+03  0.00000000000E+00 0. -1.
         21   -1    0    0  502  503 -0.00000000000E+00 -0.00000000000E+00 -0.75366804454E+02  0.75366804454E+02  0.00000000000E+00 0. -1.
          6    1    1    2  501    0 -0.37513076368E+02 -0.11882241163E+03  0.56056127216E+03  0.59973655570E+03  0.17300000000E+03 0. -1.
         -6    1    1    2    0  503  0.37513076368E+02  0.11882241163E+03  0.14794833258E+03  0.25950665794E+03  0.17300000000E+03 0. -1.
</event>
<event>
 4    1  0.6197496E+000  0.1000000E+03  0.7546771E-02  0.1280296E+00
         21   -1    0    0  501  502  0.00000000000E+00  0.00000000000E+00  0.16240543249E+03  0.16240543249E+03  0.00000000000E+00 0. -1.
         21   -1    0    0  502  503 -0.00000000000E+00 -0.00000000000E+00 -0.37853774076E+03  0.37853774076E+03  0.00000000000E+00 0. -1.
          6    1    1    2  501    0  0.10188911509E+03 -0.11564336700E+03 -0.11768946226E+02  0.23199631075E+03  0.17300000000E+03 0. -1.
         -6    1    1    2    0  503 -0.10188911509E+03  0.11564336700E+03 -0.20436336203E+03  0.30894686250E+03  0.17300000000E+03 0. -1.
</event>
<event>
 4    1  0.6197496E+000  0.1000000E+03  0.7546771E-02  0.1280296E+00
         21   -1    0    0  503  502  0.00000000000E+00  0.00000000000E+00  0.13457410552E+03  0.13457410552E+03  0.00000000000E+00 0. -1.
         21   -1    0    0  501  503 -0.00000000000E+00 -0.00000000000E+00 -0.81550470354E+03  0.81550470354E+03  0.00000000000E+00 0.  1.
          6    1    1    2  501    0 -0.45597615346E+02  0.26855532567E+03 -0.44792311444E+03  0.55205545186E+03  0.17300000000E+03 0.  1.
         -6    1    1    2    0  502  0.45597615346E+02 -0.26855532567E+03 -0.23300748358E+03  0.39802335720E+03  0.17300000000E+03 0. -1.
</event>
<event>
 4    1  0.6197496E+000  0.1000000E+03  0.7546771E-02  0.1280296E+00
         21   -1    0    0  503  502  0.00000000000E+00  0.00000000000E+00  0.21366158649E+02  0.21366158649E+02  0.00000000000E+00 0. -1.
         21   -1    0    0  501  503 -0.00000000000E+00 -0.00000000000E+00 -0.15904904209E+04  0.15904904209E+04  0.00000000000E+00 0.  1.
          6    1    1    2  501    0 -0.50727590879E+02  0.38445154821E+02 -0.77785695724E+03  0.79940087836E+03  0.17300000000E+03 0.  1.
         -6    1    1    2    0  502  0.50727590879E+02 -0.38445154821E+02 -0.79126730500E+03  0.81245570117E+03  0.17300000000E+03 0. -1.
</event>
<event>
 4    1  0.6197496E+000  0.1000000E+03  0.7546771E-02  0.1280296E+00
         21   -1    0    0  503  502  0.00000000000E+00  0.00000000000E+00  0.79093365151E+02  0.79093365151E+02  0.00000000000E+00 0. -1.
         21   -1    0    0  501  503 -0.00000000000E+00 -0.00000000000E+00 -0.15219744019E+04  0.15219744019E+04  0.00000000000E+00 0.  1.
          6    1    1    2  501    0 -0.95161676989E+02 -0.11278372596E+03 -0.13260842360E+04  0.13454383355E+04  0.17300000000E+03 0.  1.
         -6    1    1    2    0  502  0.95161676989E+02  0.11278372596E+03 -0.11679680070E+03  0.25562943153E+03  0.17300000000E+03 0. -1.
</event>
<event>
 4    1  0.6197496E+000  0.1000000E+03  0.7546771E-02  0.1280296E+00
         21   -1    0    0  501  502  0.00000000000E+00  0.00000000000E+00  0.72019870365E+02  0.72019870365E+02  0.00000000000E+00 0. -1.
         21   -1    0    0  502  503 -0.00000000000E+00 -0.00000000000E+00 -0.16089171945E+04  0.16089171945E+04  0.00000000000E+00 0.  1.
          6    1    1    2  501    0  0.16642481197E+03 -0.23997523318E+03 -0.70503334317E+03  0.78248728140E+03  0.17300000000E+03 0.  1.
         -6    1    1    2    0  503 -0.16642481197E+03  0.23997523318E+03 -0.83186398098E+03  0.89844978348E+03  0.17300000000E+03 0. -1.
</event>
<event>
 4    1  0.6197496E+000  0.1000000E+03  0.7546771E-02  0.1280296E+00
         21   -1    0    0  501  502  0.00000000000E+00  0.00000000000E+00  0.10083752166E+04  0.10083752166E+04  0.00000000000E+00 0. -1.
         21   -1    0    0  502  503 -0.00000000000E+00 -0.00000000000E+00 -0.66097363878E+02  0.66097363878E+02  0.00000000000E+00 0.  1.
          6    1    1    2  501    0  0.17342166465E+03 -0.62364829283E+02  0.36186418515E+03  0.44140586108E+03  0.17300000000E+03 0.  1.
         -6    1    1    2    0  503 -0.17342166465E+03  0.62364829283E+02  0.58041366755E+03  0.63306671938E+03  0.17300000000E+03 0. -1.
</event>
<event>
 4    1  0.6197496E+000  0.1000000E+03  0.7546771E-02  0.1280296E+00
         21   -1    0    0  501  502  0.00000000000E+00  0.00000000000E+00  0.24123574752E+03  0.24123574752E+03  0.00000000000E+00 0. -1.
         21   -1    0    0  502  503 -0.00000000000E+00 -0.00000000000E+00 -0.43440193789E+03  0.43440193789E+03  0.00000000000E+00 0.  1.
          6    1    1    2  501    0 -0.24671834260E+03  0.28497243914E+02  0.23232076033E+02  0.30356344122E+03  0.17300000000E+03 0.  1.
         -6    1    1    2    0  503  0.24671834260E+03 -0.28497243914E+02 -0.21639826641E+03  0.37207424419E+03  0.17300000000E+03 0. -1.
</event>
<event>
 4    1  0.6197496E+000  0.1000000E+03  0.7546771E-02  0.1280296E+00
         21   -1    0    0  501  502  0.00000000000E+00  0.00000000000E+00  0.14935871241E+03  0.14935871241E+03  0.00000000000E+00 0. -1.
         21   -1    0    0  502  503 -0.00000000000E+00 -0.00000000000E+00 -0.37365334454E+03  0.37365334454E+03  0.00000000000E+00 0.  1.
          6    1    1    2  501    0 -0.67896290287E+02  0.78373653801E+02  0.23999992292E+02  0.20311901800E+03  0.17300000000E+03 0.  1.
         -6    1    1    2    0  503  0.67896290287E+02 -0.78373653801E+02 -0.24829462443E+03  0.31989303895E+03  0.17300000000E+03 0. -1.
</event>
<event>
 4    1  0.6197496E+000  0.1000000E+03  0.7546771E-02  0.1280296E+00
         21   -1    0    0  501  502  0.00000000000E+00  0.00000000000E+00  0.80972512913E+03  0.80972512913E+03  0.00000000000E+00 0. -1.
         21   -1    0    0  502  503 -0.00000000000E+00 -0.00000000000E+00 -0.80229506029E+02  0.80229506029E+02  0.00000000000E+00 0.  1.
          6    1    1    2  501    0 -0.84637852781E+01  0.14078911667E+03  0.57957458616E+03  0.62107077854E+03  0.17300000000E+03 0.  1.
         -6    1    1    2    0  503  0.84637852781E+01 -0.14078911667E+03  0.14992103694E+03  0.26888385662E+03  0.17300000000E+03 0. -1.
</event>
<event>
 4    1  0.6197496E+000  0.1000000E+03  0.7546771E-02  0.1280296E+00
         21   -1    0    0  501  502  0.00000000000E+00  0.00000000000E+00  0.36870633402E+03  0.36870633402E+03  0.00000000000E+00 0. -1.
         21   -1    0    0  502  503 -0.00000000000E+00 -0.00000000000E+00 -0.10197085162E+03  0.10197085162E+03  0.00000000000E+00 0. -1.
          6    1    1    2  501    0  0.14793683977E+02  0.34242218454E+02  0.22952631149E+03  0.28983221056E+03  0.17300000000E+03 0.  1.
         -6    1    1    2    0  503 -0.14793683977E+02 -0.34242218454E+02  0.37209170904E+02  0.18084497507E+03  0.17300000000E+03 0.  1.
</event>
<event>
 4    1  0.6197496E+000  0.1000000E+03  0.7546771E-02  0.1280296E+00
         21   -1    0    0  501  502  0.00000000000E+00  0.00000000000E+00  0.23105260291E+03  0.23105260291E+03  0.00000000000E+00 0. -1.
         21   -1    0    0  502  503 -0.00000000000E+00 -0.00000000000E+00 -0.30359110557E+03  0.30359110557E+03  0.00000000000E+00 0. -1.
          6    1    1    2  501    0 -0.50467813984E+02  0.78537521624E+02  0.14287350381E+03  0.24301642052E+03  0.17300000000E+03 0.  1.
         -6    1    1    2    0  503  0.50467813984E+02 -0.78537521624E+02 -0.21541200647E+03  0.29162728796E+03  0.17300000000E+03 0.  1.
</event>
<event>
 4    1  0.6197496E+000  0.1000000E+03  0.7546771E-02  0.1280296E+00
         21   -1    0    0  503  502  0.00000000000E+00  0.00000000000E+00  0.84925627962E+02  0.84925627962E+02  0.00000000000E+00 0. -1.
         21   -1    0    0  501  503 -0.00000000000E+00 -0.00000000000E+00 -0.46552046366E+03  0.46552046366E+03  0.00000000000E+00 0.  1.
          6    1    1    2  501    0 -0.79895019766E+02 -0.55953200295E+01 -0.26849007183E+03  0.32928777758E+03  0.17300000000E+03 0.  1.
         -6    1    1    2    0  502  0.79895019766E+02  0.55953200295E+01 -0.11210476387E+03  0.22115831405E+03  0.17300000000E+03 0. -1.
</event>
<event>
 4    1  0.6197496E+000  0.1000000E+03  0.7546771E-02  0.1280296E+00
         21   -1    0    0  503  502  0.00000000000E+00  0.00000000000E+00  0.14842241975E+03  0.14842241975E+03  0.00000000000E+00 0. -1.
         21   -1    0    0  501  503 -0.00000000000E+00 -0.00000000000E+00 -0.28297979079E+03  0.28297979079E+03  0.00000000000E+00 0.  1.
          6    1    1    2  501    0  0.45305082992E+02 -0.15523133168E+02  0.36797298058E+02  0.18323907704E+03  0.17300000000E+03 0.  1.
         -6    1    1    2    0  502 -0.45305082992E+02  0.15523133168E+02 -0.17135466910E+03  0.24816313351E+03  0.17300000000E+03 0. -1.
</event>
<event>
 4    1  0.6197496E+000  0.1000000E+03  0.7546771E-02  0.1280296E+00
         21   -1    0    0  503  502  0.00000000000E+00  0.00000000000E+00  0.20924771398E+04  0.20924771398E+04  0.00000000000E+00 0. -1.
         21   -1    0    0  501  503 -0.00000000000E+00 -0.00000000000E+00 -0.54627992853E+02  0.54627992853E+02  0.00000000000E+00 0.  1.
          6    1    1    2  501    0  0.63426673766E+02 -0.68597231716E+02  0.14556986163E+03  0.24463872907E+03  0.17300000000E+03 0.  1.
         -6    1    1    2    0  502 -0.63426673766E+02  0.68597231716E+02  0.18922792853E+04  0.19024664036E+04  0.17300000000E+03 0. -1.
</event>
<event>
 4    1  0.6197496E+000  0.1000000E+03  0.7546771E-02  0.1280296E+00
         21   -1    0    0  501  502  0.00000000000E+00  0.00000000000E+00  0.91708584277E+02  0.91708584277E+02  0.00000000000E+00 0.  1.
         21   -1    0    0  502  503 -0.00000000000E+00 -0.00000000000E+00 -0.90083162757E+03  0.90083162757E+03  0.00000000000E+00 0. -1.
          6    1    1    2  501    0 -0.39069373566E+02  0.16717096169E+02 -0.15103111862E+02  0.17878193769E+03  0.17300000000E+03 0.  1.
         -6    1    1    2    0  503  0.39069373566E+02 -0.16717096169E+02 -0.79401993143E+03  0.81375827416E+03  0.17300000000E+03 0. -1.
</event>
<event>
 4    1  0.6197496E+000  0.1000000E+03  0.7546771E-02  0.1280296E+00
         21   -1    0    0  501  502  0.00000000000E+00  0.00000000000E+00  0.24338477094E+03  0.24338477094E+03  0.00000000000E+00 0.  1.
         21   -1    0    0  502  503 -0.00000000000E+00 -0.00000000000E+00 -0.46591313040E+03  0.46591313040E+03  0.00000000000E+00 0. -1.
          6    1    1    2  501    0  0.18845931551E+03 -0.14205078679E+03  0.64245745831E+02  0.29958614035E+03  0.17300000000E+03 0.  1.
         -6    1    1    2    0  503 -0.18845931551E+03  0.14205078679E+03 -0.28677410529E+03  0.40971176099E+03  0.17300000000E+03 0. -1.
</event>
<event>
 4    1  0.6197496E+000  0.1000000E+03  0.7546771E-02  0.1280296E+00
         21   -1    0    0  501  502  0.00000000000E+00  0.00000000000E+00  0.11049097459E+03  0.11049097459E+03  0.00000000000E+00 0.  1.
         21   -1    0    0  502  503 -0.00000000000E+00 -0.00000000000E+00 -0.69009279593E+03  0.69009279593E+03  0.00000000000E+00 0. -1.
          6    1    1    2  501    0 -0.11846896198E+03  0.96940822109E+02 -0.70490202626E+02  0.24151663837E+03  0.17300000000E+03 0.  1.
         -6    1    1    2    0  503  0.11846896198E+03 -0.96940822109E+02 -0.50911161871E+03  0.55906713215E+03  0.17300000000E+03 0. -1.
</event>
<event>
 4    1  0.6197496E+000  0.1000000E+03  0.7546771E-02  0.1280296E+00
         21   -1    0    0  501  502  0.00000000000E+00  0.00000000000E+00  0.45006250434E+03  0.45006250434E+03  0.00000000000E+00 0.  1.
         21   -1    0    0  502  503 -0.00000000000E+00 -0.00000000000E+00 -0.10565390330E+03  0.10565390330E+03  0.00000000000E+00 0. -1.
          6    1    1    2  501    0  0.12365641204E+03  0.97987086532E+01  0.23244315635E+03  0.31519159865E+03  0.17300000000E+03 0.  1.
         -6    1    1    2    0  503 -0.12365641204E+03 -0.97987086532E+01  0.11196544469E+03  0.24052480898E+03  0.17300000000E+03 0. -1.
</event>
<event>
 4    1  0.6197496E+000  0.1000000E+03  0.7546771E-02  0.1280296E+00
         21   -1    0    0  503  502  0.00000000000E+00  0.00000000000E+00  0.22243892610E+03  0.22243892610E+03  0.00000000000E+00 0. -1.
         21   -1    0    0  501  503 -0.00000000000E+00 -0.00000000000E+00 -0.78694293350E+03  0.78694293350E+03  0.00000000000E+00 0. -1.
          6    1    1    2  501    0 -0.16973026574E+03 -0.23456470157E+03  0.16381801833E+02  0.33767784316E+03  0.17300000000E+03 0.  1.
         -6    1    1    2    0  502  0.16973026574E+03  0.23456470157E+03 -0.58088580924E+03  0.67170401644E+03  0.17300000000E+03 0.  1.
</event>
<event>
 4    1  0.6197496E+000  0.1000000E+03  0.7546771E-02  0.1280296E+00
         21   -1    0    0  503  502  0.00000000000E+00  0.00000000000E+00  0.15999457065E+04  0.15999457065E+04  0.00000000000E+00 0. -1.
         21   -1    0    0  501  503 -0.00000000000E+00 -0.00000000000E+00 -0.13226948327E+03  0.13226948327E+03  0.00000000000E+00 0. -1.
          6    1    1    2  501    0  0.25904412514E+02 -0.21617128408E+03  0.43888163707E+02  0.28152483650E+03  0.17300000000E+03 0.  1.
         -6    1    1    2    0  502 -0.25904412514E+02  0.21617128408E+03  0.14237880595E+04  0.14506903533E+04  0.17300000000E+03 0.  1.
</event>
<event>
 4    1  0.6197496E+000  0.1000000E+03  0.7546771E-02  0.1280296E+00
         21   -1    0    0  503  502  0.00000000000E+00  0.00000000000E+00  0.86771156720E+02  0.86771156720E+02  0.00000000000E+00 0. -1.
         21   -1    0    0  501  503 -0.00000000000E+00 -0.00000000000E+00 -0.62749432549E+03  0.62749432549E+03  0.00000000000E+00 0. -1.
          6    1    1    2  501    0  0.25632552373E+01 -0.15613053856E+03 -0.28821639069E+03  0.37064943439E+03  0.17300000000E+03 0.  1.
         -6    1    1    2    0  502 -0.25632552373E+01  0.15613053856E+03 -0.25250677808E+03  0.34361604783E+03  0.17300000000E+03 0.  1.
</event>
<event>
 4    1  0.6197496E+000  0.1000000E+03  0.7546771E-02  0.1280296E+00
         21   -1    0    0  503  502  0.00000000000E+00  0.00000000000E+00  0.29642464524E+03  0.29642464524E+03  0.00000000000E+00 0.  1.
         21   -1    0    0  501  503 -0.00000000000E+00 -0.00000000000E+00 -0.12527929684E+03  0.12527929684E+03  0.00000000000E+00 0.  1.
          6    1    1    2  501    0  0.12880803481E+02 -0.58190006572E+02  0.15172077331E+03  0.23769767566E+03  0.17300000000E+03 0.  1.
         -6    1    1    2    0  502 -0.12880803481E+02  0.58190006572E+02  0.19424575103E+02  0.18400626642E+03  0.17300000000E+03 0.  1.
</event>
<event>
 4    1  0.6197496E+000  0.1000000E+03  0.7546771E-02  0.1280296E+00
         21   -1    0    0  503  502  0.00000000000E+00  0.00000000000E+00  0.13146878588E+04  0.13146878588E+04  0.00000000000E+00 0.  1.
         21   -1    0    0  501  503 -0.00000000000E+00 -0.00000000000E+00 -0.55511439830E+02  0.55511439830E+02  0.00000000000E+00 0.  1.
          6    1    1    2  501    0 -0.23492593133E+02  0.60623775481E+01  0.10700642430E+03  0.20486099969E+03  0.17300000000E+03 0.  1.
         -6    1    1    2    0  502  0.23492593133E+02 -0.60623775481E+01  0.11521699946E+04  0.11653382989E+04  0.17300000000E+03 0.  1.
</event>
<event>
 4    1  0.6197496E+000  0.1000000E+03  0.7546771E-02  0.1280296E+00
         21   -1    0    0  503  502  0.00000000000E+00  0.00000000000E+00  0.63766748433E+03  0.63766748433E+03  0.00000000000E+00 0. -1.
         21   -1    0    0  501  503 -0.00000000000E+00 -0.00000000000E+00 -0.61116446288E+02  0.61116446288E+02  0.00000000000E+00 0. -1.
          6    1    1    2  501    0 -0.33605321542E+02 -0.49141558646E+02  0.15703464366E+03  0.24110804576E+03  0.17300000000E+03 0. -1.
         -6    1    1    2    0  502  0.33605321542E+02  0.49141558646E+02  0.41951639439E+03  0.45767588486E+03  0.17300000000E+03 0. -1.
</event>
<event>
 4    1  0.6197496E+000  0.1000000E+03  0.7546771E-02  0.1280296E+00
         21   -1    0    0  503  502  0.00000000000E+00  0.00000000000E+00  0.10909482635E+03  0.10909482635E+03  0.00000000000E+00 0. -1.
         21   -1    0    0  501  503 -0.00000000000E+00 -0.00000000000E+00 -0.51707065166E+03  0.51707065166E+03  0.00000000000E+00 0. -1.
          6    1    1    2  501    0  0.11691351292E+03  0.89430454789E+02 -0.29545023757E+03  0.37267468204E+03  0.17300000000E+03 0. -1.
         -6    1    1    2    0  502 -0.11691351292E+03 -0.89430454789E+02 -0.11252558773E+03  0.25349079597E+03  0.17300000000E+03 0. -1.
</event>
<event>
 4    1  0.6197496E+000  0.1000000E+03  0.7546771E-02  0.1280296E+00
         21   -1    0    0  501  502  0.00000000000E+00  0.00000000000E+00  0.63086729916E+03  0.63086729916E+03  0.00000000000E+00 0.  1.
         21   -1    0    0  502  503 -0.00000000000E+00 -0.00000000000E+00 -0.12309802781E+03  0.12309802781E+03  0.00000000000E+00 0. -1.
          6    1    1    2  501    0 -0.12599048417E+03  0.13517851034E+02  0.49463818471E+03  0.53912175636E+03  0.17300000000E+03 0.  1.
         -6    1    1    2    0  503  0.12599048417E+03 -0.13517851034E+02  0.13131086626E+02  0.21484357061E+03  0.17300000000E+03 0.  1.
</event>
<event>
 4    1  0.6197496E+000  0.1000000E+03  0.7546771E-02  0.1280296E+00
         21   -1    0    0  501  502  0.00000000000E+00  0.00000000000E+00  0.48156659247E+03  0.48156659247E+03  0.00000000000E+00 0. -1.
         21   -1    0    0  502  503 -0.00000000000E+00 -0.00000000000E+00 -0.74915248478E+02  0.74915248478E+02  0.00000000000E+00 0. -1.
          6    1    1    2  501    0 -0.33365698168E+02 -0.69064646037E+02  0.17950199000E+03  0.26083166902E+03  0.17300000000E+03 0.  1.
         -6    1    1    2    0  503  0.33365698168E+02  0.69064646037E+02  0.22714935399E+03  0.29565017193E+03  0.17300000000E+03 0.  1.
</event>
<event>
 4    1  0.6197496E+000  0.1000000E+03  0.7546771E-02  0.1280296E+00
         21   -1    0    0  501  502  0.00000000000E+00  0.00000000000E+00  0.93078928213E+03  0.93078928213E+03  0.00000000000E+00 0. -1.
         21   -1    0    0  502  503 -0.00000000000E+00 -0.00000000000E+00 -0.71586434751E+02  0.71586434751E+02  0.00000000000E+00 0. -1.
          6    1    1    2  501    0  0.48863026040E+02  0.10296182195E+03  0.72859599746E+03  0.75747597956E+03  0.17300000000E+03 0.  1.
         -6    1    1    2    0  503 -0.48863026040E+02 -0.10296182195E+03  0.13060684991E+03  0.24489973732E+03  0.17300000000E+03 0.  1.
</event>
<event>
 4    1  0.6197496E+000  0.1000000E+03  0.7546771E-02  0.1280296E+00
         21   -1    0    0  501  502  0.00000000000E+00  0.00000000000E+00  0.40767386703E+03  0.40767386703E+03  0.00000000000E+00 0. -1.
         21   -1    0    0  502  503 -0.00000000000E+00 -0.00000000000E+00 -0.10256862496E+03  0.10256862496E+03  0.00000000000E+00 0. -1.
          6    1    1    2  501    0  0.50284743691E+02 -0.10293729154E+02  0.27255172631E+03  0.32687606187E+03  0.17300000000E+03 0.  1.
         -6    1    1    2    0  503 -0.50284743691E+02  0.10293729154E+02  0.32553515756E+02  0.18336643012E+03  0.17300000000E+03 0.  1.
</event>
<event>
 4    1  0.6197496E+000  0.1000000E+03  0.7546771E-02  0.1280296E+00
         21   -1    0    0  503  502  0.00000000000E+00  0.00000000000E+00  0.20151882770E+03  0.20151882770E+03  0.00000000000E+00 0.  1.
         21   -1    0    0  501  503 -0.00000000000E+00 -0.00000000000E+00 -0.88587231372E+03  0.88587231372E+03  0.00000000000E+00 0.  1.
          6    1    1    2  501    0 -0.73219374158E+02 -0.28847901571E+03 -0.65740363217E+03  0.74208473562E+03  0.17300000000E+03 0.  1.
         -6    1    1    2    0  502  0.73219374158E+02  0.28847901571E+03 -0.26949853848E+02  0.34530640579E+03  0.17300000000E+03 0.  1.
</event>
<event>
 4    1  0.6197496E+000  0.1000000E+03  0.7546771E-02  0.1280296E+00
         21   -1    0    0  501  502  0.00000000000E+00  0.00000000000E+00  0.23565212293E+02  0.23565212293E+02  0.00000000000E+00 0.  1.
         21   -1    0    0  502  503 -0.00000000000E+00 -0.00000000000E+00 -0.18272568159E+04  0.18272568159E+04  0.00000000000E+00 0. -1.
          6    1    1    2  501    0 -0.95472257264E+02  0.28611454308E+02 -0.64968407355E+03  0.67967048093E+03  0.17300000000E+03 0.  1.
         -6    1    1    2    0  503  0.95472257264E+02 -0.28611454308E+02 -0.11540075301E+04  0.11711515473E+04  0.17300000000E+03 0. -1.
</event>
<event>
 4    1  0.6197496E+000  0.1000000E+03  0.7546771E-02  0.1280296E+00
         21   -1    0    0  501  502  0.00000000000E+00  0.00000000000E+00  0.11336368390E+03  0.11336368390E+03  0.00000000000E+00 0.  1.
         21   -1    0    0  502  503 -0.00000000000E+00 -0.00000000000E+00 -0.28827814978E+03  0.28827814978E+03  0.00000000000E+00 0. -1.
          6    1    1    2  501    0  0.73092735353E+01 -0.44036045984E+02 -0.11805528444E+03  0.21414632617E+03  0.17300000000E+03 0.  1.
         -6    1    1    2    0  503 -0.73092735353E+01  0.44036045984E+02 -0.56859181435E+02  0.18749550752E+03  0.17300000000E+03 0. -1.
</event>
<event>
 4    1  0.6197496E+000  0.1000000E+03  0.7546771E-02  0.1280296E+00
         21   -1    0    0  501  502  0.00000000000E+00  0.00000000000E+00  0.50630719571E+02  0.50630719571E+02  0.00000000000E+00 0.  1.
         21   -1    0    0  502  503 -0.00000000000E+00 -0.00000000000E+00 -0.72618947810E+03  0.72618947810E+03  0.00000000000E+00 0. -1.
          6    1    1    2  501    0 -0.57480611062E+02  0.53148793557E+02 -0.28381712911E+03  0.34148203127E+03  0.17300000000E+03 0.  1.
         -6    1    1    2    0  503  0.57480611062E+02 -0.53148793557E+02 -0.39174162942E+03  0.43533816640E+03  0.17300000000E+03 0. -1.
</event>
<event>
 4    1  0.6197496E+000  0.1000000E+03  0.7546771E-02  0.1280296E+00
         21   -1    0    0  503  502  0.00000000000E+00  0.00000000000E+00  0.13212133892E+03  0.13212133892E+03  0.00000000000E+00 0.  1.
         21   -1    0    0  501  503 -0.00000000000E+00 -0.00000000000E+00 -0.47499336108E+03  0.47499336108E+03  0.00000000000E+00 0. -1.
          6    1    1    2  501    0 -0.83996757246E+02  0.75888097775E+02 -0.34285931265E+03  0.40036978767E+03  0.17300000000E+03 0. -1.
         -6    1    1    2    0  502  0.83996757246E+02 -0.75888097775E+02 -0.12709514911E-01  0.20674491233E+03  0.17300000000E+03 0.  1.
</event>
<event>
 4    1  0.6197496E+000  0.1000000E+03  0.7546771E-02  0.1280296E+00
         21   -1    0    0  503  502  0.00000000000E+00  0.00000000000E+00  0.12441569598E+04  0.12441569598E+04  0.00000000000E+00 0.  1.
         21   -1    0    0  501  503 -0.00000000000E+00 -0.00000000000E+00 -0.50418270346E+02  0.50418270346E+02  0.00000000000E+00 0. -1.
          6    1    1    2  501    0  0.11581579977E+03  0.11127253482E+03  0.38057252263E+03  0.44783849931E+03  0.17300000000E+03 0. -1.
         -6    1    1    2    0  502 -0.11581579977E+03 -0.11127253482E+03  0.81316616680E+03  0.84673673081E+03  0.17300000000E+03 0.  1.
</event>
<event>
 4    1  0.6197496E+000  0.1000000E+03  0.7546771E-02  0.1280296E+00
         21   -1    0    0  501  502  0.00000000000E+00  0.00000000000E+00  0.56695904702E+03  0.56695904702E+03  0.00000000000E+00 0. -1.
         21   -1    0    0  502  503 -0.00000000000E+00 -0.00000000000E+00 -0.12291995448E+03  0.12291995448E+03  0.00000000000E+00 0. -1.
          6    1    1    2  501    0  0.65794865195E+02 -0.10752529098E+03  0.42389826488E+03  0.47487829121E+03  0.17300000000E+03 0. -1.
         -6    1    1    2    0  503 -0.65794865195E+02  0.10752529098E+03  0.20140827660E+02  0.21500071029E+03  0.17300000000E+03 0. -1.
</event>
<event>
 4    1  0.6197496E+000  0.1000000E+03  0.7546771E-02  0.1280296E+00
         21   -1    0    0  501  502  0.00000000000E+00  0.00000000000E+00  0.15848118704E+03  0.15848118704E+03  0.00000000000E+00 0. -1.
         21   -1    0    0  502  503 -0.00000000000E+00 -0.00000000000E+00 -0.33301167730E+03  0.33301167730E+03  0.00000000000E+00 0. -1.
          6    1    1    2  501    0 -0.13243899812E+00  0.75046748190E+02  0.53088118931E+02  0.19590656019E+03  0.17300000000E+03 0. -1.
         -6    1    1    2    0  503  0.13243899812E+00 -0.75046748190E+02 -0.22761860919E+03  0.29558630415E+03  0.17300000000E+03 0. -1.
</event>
<event>
 4    1  0.6197496E+000  0.1000000E+03  0.7546771E-02  0.1280296E+00
         21   -1    0    0  501  502  0.00000000000E+00  0.00000000000E+00  0.47191973103E+03  0.47191973103E+03  0.00000000000E+00 0. -1.
         21   -1    0    0  502  503 -0.00000000000E+00 -0.00000000000E+00 -0.87874927256E+02  0.87874927256E+02  0.00000000000E+00 0. -1.
          6    1    1    2  501    0  0.80038776271E+02  0.25459892646E+02  0.99959206900E+02  0.21673775602E+03  0.17300000000E+03 0. -1.
         -6    1    1    2    0  503 -0.80038776271E+02 -0.25459892646E+02  0.28408559687E+03  0.34305690226E+03  0.17300000000E+03 0. -1.
</event>
<event>
 4    1  0.6197496E+000  0.1000000E+03  0.7546771E-02  0.1280296E+00
         21   -1    0    0  503  502  0.00000000000E+00  0.00000000000E+00  0.66332788131E+03  0.66332788131E+03  0.00000000000E+00 0. -1.
         21   -1    0    0  501  503 -0.00000000000E+00 -0.00000000000E+00 -0.15989804098E+03  0.15989804098E+03  0.00000000000E+00 0.  1.
          6    1    1    2  501    0  0.57787197604E+02 -0.21589413145E+03  0.47193159595E+02  0.28654114977E+03  0.17300000000E+03 0.  1.
         -6    1    1    2    0  502 -0.57787197604E+02  0.21589413145E+03  0.45623668074E+03  0.53668477252E+03  0.17300000000E+03 0. -1.
</event>
<event>
 4    1  0.6197496E+000  0.1000000E+03  0.7546771E-02  0.1280296E+00
         21   -1    0    0  503  502  0.00000000000E+00  0.00000000000E+00  0.14481521267E+04  0.14481521267E+04  0.00000000000E+00 0. -1.
         21   -1    0    0  501  503 -0.00000000000E+00 -0.00000000000E+00 -0.29569840445E+02  0.29569840445E+02  0.00000000000E+00 0. -1.
          6    1    1    2  501    0  0.26384568563E+02 -0.10159837124E+03  0.55471401385E+03  0.59047016154E+03  0.17300000000E+03 0. -1.
         -6    1    1    2    0  502 -0.26384568563E+02  0.10159837124E+03  0.86386827242E+03  0.88725180563E+03  0.17300000000E+03 0. -1.
</event>
<event>
 4    1  0.6197496E+000  0.1000000E+03  0.7546771E-02  0.1280296E+00
         21   -1    0    0  503  502  0.00000000000E+00  0.00000000000E+00  0.59120233526E+02  0.59120233526E+02  0.00000000000E+00 0. -1.
         21   -1    0    0  501  503 -0.00000000000E+00 -0.00000000000E+00 -0.93875613160E+03  0.93875613160E+03  0.00000000000E+00 0. -1.
          6    1    1    2  501    0 -0.92811049904E+00  0.11771716841E+03 -0.66902245937E+03  0.70098376890E+03  0.17300000000E+03 0. -1.
         -6    1    1    2    0  502  0.92811049904E+00 -0.11771716841E+03 -0.21061343871E+03  0.29689259623E+03  0.17300000000E+03 0. -1.
</event>
<event>
 4    1  0.6197496E+000  0.1000000E+03  0.7546771E-02  0.1280296E+00
         21   -1    0    0  503  502  0.00000000000E+00  0.00000000000E+00  0.44757872524E+03  0.44757872524E+03  0.00000000000E+00 0. -1.
         21   -1    0    0  501  503 -0.00000000000E+00 -0.00000000000E+00 -0.11413606711E+03  0.11413606711E+03  0.00000000000E+00 0.  1.
          6    1    1    2  501    0  0.10086603757E+03  0.87103397098E+02  0.23912393851E+03  0.32383671393E+03  0.17300000000E+03 0. -1.
         -6    1    1    2    0  502 -0.10086603757E+03 -0.87103397098E+02  0.94318719620E+02  0.23787807842E+03  0.17300000000E+03 0. -1.
</event>
<event>
 4    1  0.6197496E+000  0.1000000E+03  0.7546771E-02  0.1280296E+00
         21   -1    0    0  503  502  0.00000000000E+00  0.00000000000E+00  0.10635374653E+04  0.10635374653E+04  0.00000000000E+00 0. -1.
         21   -1    0    0  501  503 -0.00000000000E+00 -0.00000000000E+00 -0.64434369586E+02  0.64434369586E+02  0.00000000000E+00 0.  1.
          6    1    1    2  501    0  0.88508491152E+02  0.16779814577E+03  0.38949826152E+03  0.46650601974E+03  0.17300000000E+03 0. -1.
         -6    1    1    2    0  502 -0.88508491152E+02 -0.16779814577E+03  0.60960483416E+03  0.66146581511E+03  0.17300000000E+03 0. -1.
</event>
<event>
 4    1  0.6197496E+000  0.1000000E+03  0.7546771E-02  0.1280296E+00
         21   -1    0    0  501  502  0.00000000000E+00  0.00000000000E+00  0.51926705549E+03  0.51926705549E+03  0.00000000000E+00 0. -1.
         21   -1    0    0  502  503 -0.00000000000E+00 -0.00000000000E+00 -0.75583973776E+02  0.75583973776E+02  0.00000000000E+00 0. -1.
          6    1    1    2  501    0  0.33752698240E+02 -0.77115827190E+02  0.29278772950E+03  0.35034233256E+03  0.17300000000E+03 0. -1.
         -6    1    1    2    0  503 -0.33752698240E+02  0.77115827190E+02  0.15089535221E+03  0.24450869670E+03  0.17300000000E+03 0. -1.
</event>
<event>
 4    1  0.6197496E+000  0.1000000E+03  0.7546771E-02  0.1280296E+00
         21   -1    0    0  501  502  0.00000000000E+00  0.00000000000E+00  0.76822796800E+03  0.76822796800E+03  0.00000000000E+00 0.  1.
         21   -1    0    0  502  503 -0.00000000000E+00 -0.00000000000E+00 -0.12569708989E+03  0.12569708989E+03  0.00000000000E+00 0. -1.
          6    1    1    2  501    0 -0.12509679800E+02  0.94470305194E+02 -0.23799461364E+02  0.19893854582E+03  0.17300000000E+03 0. -1.
         -6    1    1    2    0  503  0.12509679800E+02 -0.94470305194E+02  0.66633033947E+03  0.69498651207E+03  0.17300000000E+03 0.  1.
</event>
<event>
 4    1  0.6197496E+000  0.1000000E+03  0.7546771E-02  0.1280296E+00
         21   -1    0    0  501  502  0.00000000000E+00  0.00000000000E+00  0.10008127316E+04  0.10008127316E+04  0.00000000000E+00 0.  1.
         21   -1    0    0  502  503 -0.00000000000E+00 -0.00000000000E+00 -0.11096821838E+03  0.11096821838E+03  0.00000000000E+00 0. -1.
          6    1    1    2  501    0 -0.27749674971E+03  0.64054802735E+02  0.45273584766E+03  0.56214429785E+03  0.17300000000E+03 0. -1.
         -6    1    1    2    0  503  0.27749674971E+03 -0.64054802735E+02  0.43710866560E+03  0.54963665216E+03  0.17300000000E+03 0.  1.
</event>
<event>
 4    1  0.6197496E+000  0.1000000E+03  0.7546771E-02  0.1280296E+00
         21   -1    0    0  501  502  0.00000000000E+00  0.00000000000E+00  0.21607218987E+03  0.21607218987E+03  0.00000000000E+00 0.  1.
         21   -1    0    0  502  503 -0.00000000000E+00 -0.00000000000E+00 -0.18403542713E+03  0.18403542713E+03  0.00000000000E+00 0. -1.
          6    1    1    2  501    0  0.95979771714E+02 -0.15178816827E+02 -0.38804457302E+01  0.19846050216E+03  0.17300000000E+03 0. -1.
         -6    1    1    2    0  503 -0.95979771714E+02  0.15178816827E+02  0.35917208476E+02  0.20164711484E+03  0.17300000000E+03 0.  1.
</event>
<event>
 4    1  0.6197496E+000  0.1000000E+03  0.7546771E-02  0.1280296E+00
         21   -1    0    0  501  502  0.00000000000E+00  0.00000000000E+00  0.10164470650E+04  0.10164470650E+04  0.00000000000E+00 0.  1.
         21   -1    0    0  502  503 -0.00000000000E+00 -0.00000000000E+00 -0.72765935294E+02  0.72765935294E+02  0.00000000000E+00 0. -1.
          6    1    1    2  501    0 -0.28144015589E+02  0.10261533309E+03  0.83402362217E+03  0.85839757370E+03  0.17300000000E+03 0. -1.
         -6    1    1    2    0  503  0.28144015589E+02 -0.10261533309E+03  0.10965750756E+03  0.23081542662E+03  0.17300000000E+03 0. -1.
</event>
<event>
 4    1  0.6197496E+000  0.1000000E+03  0.7546771E-02  0.1280296E+00
         21   -1    0    0  501  502  0.00000000000E+00  0.00000000000E+00  0.20020544442E+03  0.20020544442E+03  0.00000000000E+00 0. -1.
         21   -1    0    0  502  503 -0.00000000000E+00 -0.00000000000E+00 -0.32707107820E+03  0.32707107820E+03  0.00000000000E+00 0. -1.
          6    1    1    2  501    0  0.57450806956E-01 -0.52518339992E+02  0.12313990738E+03  0.21874783685E+03  0.17300000000E+03 0. -1.
         -6    1    1    2    0  503 -0.57450806956E-01  0.52518339992E+02 -0.25000554116E+03  0.30852868578E+03  0.17300000000E+03 0. -1.
</event>
<event>
 4    1  0.6197496E+000  0.1000000E+03  0.7546771E-02  0.1280296E+00
         21   -1    0    0  503  502  0.00000000000E+00  0.00000000000E+00  0.79741385288E+02  0.79741385288E+02  0.00000000000E+00 0. -1.
         21   -1    0    0  501  503 -0.00000000000E+00 -0.00000000000E+00 -0.83601638655E+03  0.83601638655E+03  0.00000000000E+00 0. -1.
          6    1    1    2  501    0 -0.12054439880E+03 -0.11193996861E+03 -0.55256612535E+03  0.60193008858E+03  0.17300000000E+03 0. -1.
         -6    1    1    2    0  502  0.12054439880E+03  0.11193996861E+03 -0.20370887591E+03  0.31382768326E+03  0.17300000000E+03 0. -1.
</event>
<event>
 4    1  0.6197496E+000  0.1000000E+03  0.7546771E-02  0.1280296E+00
         21   -1    0    0  503  502  0.00000000000E+00  0.00000000000E+00  0.10757117790E+04  0.10757117790E+04  0.00000000000E+00 0. -1.
         21   -1    0    0  501  503 -0.00000000000E+00 -0.00000000000E+00 -0.62789439042E+02  0.62789439042E+02  0.00000000000E+00 0. -1.
          6    1    1    2  501    0  0.11695951151E+03 -0.84009340788E+02  0.22190828994E+03  0.31608445994E+03  0.17300000000E+03 0. -1.
         -6    1    1    2    0  502 -0.11695951151E+03  0.84009340788E+02  0.79101405001E+03  0.82241675809E+03  0.17300000000E+03 0. -1.
</event>
<event>
 4    1  0.6197496E+000  0.1000000E+03  0.7546771E-02  0.1280296E+00
         21   -1    0    0  501  502  0.00000000000E+00  0.00000000000E+00  0.82254946857E+02  0.82254946857E+02  0.00000000000E+00 0. -1.
         21   -1    0    0  502  503 -0.00000000000E+00 -0.00000000000E+00 -0.21846495431E+04  0.21846495431E+04  0.00000000000E+00 0. -1.
          6    1    1    2  501    0  0.35612379817E+02  0.19344157047E+03 -0.16004506853E+03  0.30697118227E+03  0.17300000000E+03 0. -1.
         -6    1    1    2    0  503 -0.35612379817E+02 -0.19344157047E+03 -0.19423495277E+04  0.19599333077E+04  0.17300000000E+03 0. -1.
</event>
<event>
 4    1  0.6197496E+000  0.1000000E+03  0.7546771E-02  0.1280296E+00
         21   -1    0    0  503  502  0.00000000000E+00  0.00000000000E+00  0.12065840168E+03  0.12065840168E+03  0.00000000000E+00 0. -1.
         21   -1    0    0  501  503 -0.00000000000E+00 -0.00000000000E+00 -0.72089240082E+03  0.72089240082E+03  0.00000000000E+00 0.  1.
          6    1    1    2  501    0 -0.88738122270E+02 -0.20230364800E+03 -0.42971637430E+03  0.51321183022E+03  0.17300000000E+03 0.  1.
         -6    1    1    2    0  502  0.88738122270E+02  0.20230364800E+03 -0.17051762484E+03  0.32833897228E+03  0.17300000000E+03 0. -1.
</event>
<event>
 4    1  0.6197496E+000  0.1000000E+03  0.7546771E-02  0.1280296E+00
         21   -1    0    0  501  502  0.00000000000E+00  0.00000000000E+00  0.50852821027E+03  0.50852821027E+03  0.00000000000E+00 0.  1.
         21   -1    0    0  502  503 -0.00000000000E+00 -0.00000000000E+00 -0.70580202151E+02  0.70580202151E+02  0.00000000000E+00 0.  1.
          6    1    1    2  501    0  0.33776038915E+02 -0.28951831265E+02  0.31544355823E+03  0.36250885199E+03  0.17300000000E+03 0.  1.
         -6    1    1    2    0  503 -0.33776038915E+02  0.28951831265E+02  0.12250444989E+03  0.21659956043E+03  0.17300000000E+03 0.  1.
</event>
<event>
 4    1  0.6197496E+000  0.1000000E+03  0.7546771E-02  0.1280296E+00
         21   -1    0    0  501  502  0.00000000000E+00  0.00000000000E+00  0.88123746847E+03  0.88123746847E+03  0.00000000000E+00 0.  1.
         21   -1    0    0  502  503 -0.00000000000E+00 -0.00000000000E+00 -0.86846707167E+02  0.86846707167E+02  0.00000000000E+00 0.  1.
          6    1    1    2  501    0  0.34814651996E+02  0.47384879700E+02  0.76063408329E+03  0.78227271171E+03  0.17300000000E+03 0.  1.
         -6    1    1    2    0  503 -0.34814651996E+02 -0.47384879700E+02  0.33756678013E+02  0.18581146393E+03  0.17300000000E+03 0.  1.
</event>
<event>
 4    1  0.6197496E+000  0.1000000E+03  0.7546771E-02  0.1280296E+00
         21   -1    0    0  501  502  0.00000000000E+00  0.00000000000E+00  0.51270150056E+03  0.51270150056E+03  0.00000000000E+00 0.  1.
         21   -1    0    0  502  503 -0.00000000000E+00 -0.00000000000E+00 -0.86887380841E+02  0.86887380841E+02  0.00000000000E+00 0.  1.
          6    1    1    2  501    0  0.53121145077E+02  0.95125450800E+00  0.36717356836E+03  0.40935093775E+03  0.17300000000E+03 0.  1.
         -6    1    1    2    0  503 -0.53121145077E+02 -0.95125450800E+00  0.58640551363E+02  0.19023794365E+03  0.17300000000E+03 0.  1.
</event>
<event>
 4    1  0.6197496E+000  0.1000000E+03  0.7546771E-02  0.1280296E+00
         21   -1    0    0  501  502  0.00000000000E+00  0.00000000000E+00  0.10599028577E+03  0.10599028577E+03  0.00000000000E+00 0.  1.
         21   -1    0    0  502  503 -0.00000000000E+00 -0.00000000000E+00 -0.36453149817E+03  0.36453149817E+03  0.00000000000E+00 0.  1.
          6    1    1    2  501    0 -0.75008061249E+02  0.39866716241E+01 -0.63001114373E+02  0.19884728616E+03  0.17300000000E+03 0.  1.
         -6    1    1    2    0  503  0.75008061249E+02 -0.39866716241E+01 -0.19554009803E+03  0.27167449777E+03  0.17300000000E+03 0.  1.
</event>
<event>
 4    1  0.6197496E+000  0.1000000E+03  0.7546771E-02  0.1280296E+00
         21   -1    0    0  501  502  0.00000000000E+00  0.00000000000E+00  0.85418429186E+03  0.85418429186E+03  0.00000000000E+00 0. -1.
         21   -1    0    0  502  503 -0.00000000000E+00 -0.00000000000E+00 -0.68929280690E+02  0.68929280690E+02  0.00000000000E+00 0.  1.
          6    1    1    2  501    0  0.88594772414E+02  0.14504627097E+03  0.37766746547E+03  0.44883089120E+03  0.17300000000E+03 0.  1.
         -6    1    1    2    0  503 -0.88594772414E+02 -0.14504627097E+03  0.40758754570E+03  0.47428268136E+03  0.17300000000E+03 0.  1.
</event>
<event>
 4    1  0.6197496E+000  0.1000000E+03  0.7546771E-02  0.1280296E+00
         21   -1    0    0  501  502  0.00000000000E+00  0.00000000000E+00  0.12102950497E+04  0.12102950497E+04  0.00000000000E+00 0. -1.
         21   -1    0    0  502  503 -0.00000000000E+00 -0.00000000000E+00 -0.41933005180E+02  0.41933005180E+02  0.00000000000E+00 0. -1.
          6    1    1    2  501    0  0.14106827864E+02  0.19900074660E+02  0.97945542804E+03  0.99491554972E+03  0.17300000000E+03 0. -1.
         -6    1    1    2    0  503 -0.14106827864E+02 -0.19900074660E+02  0.18890661651E+03  0.25731250518E+03  0.17300000000E+03 0. -1.
</event>
<event>
 4    1  0.6197496E+000  0.1000000E+03  0.7546771E-02  0.1280296E+00
         21   -1    0    0  501  502  0.00000000000E+00  0.00000000000E+00  0.21837447254E+03  0.21837447254E+03  0.00000000000E+00 0. -1.
         21   -1    0    0  502  503 -0.00000000000E+00 -0.00000000000E+00 -0.21487358869E+03  0.21487358869E+03  0.00000000000E+00 0. -1.
          6    1    1    2  501    0 -0.40529610448E+02 -0.34278454541E+02  0.12081836593E+03  0.21758616527E+03  0.17300000000E+03 0. -1.
         -6    1    1    2    0  503  0.40529610448E+02  0.34278454541E+02 -0.11731748208E+03  0.21566189597E+03  0.17300000000E+03 0. -1.
</event>
<event>
 4    1  0.6197496E+000  0.1000000E+03  0.7546771E-02  0.1280296E+00
         21   -1    0    0  501  502  0.00000000000E+00  0.00000000000E+00  0.75135132307E+03  0.75135132307E+03  0.00000000000E+00 0.  1.
         21   -1    0    0  502  503 -0.00000000000E+00 -0.00000000000E+00 -0.44060046562E+02  0.44060046562E+02  0.00000000000E+00 0.  1.
          6    1    1    2  501    0  0.35432409091E+02 -0.41311628321E+01  0.44900056591E+03  0.48249666352E+03  0.17300000000E+03 0.  1.
         -6    1    1    2    0  503 -0.35432409091E+02  0.41311628321E+01  0.25829071060E+03  0.31291470612E+03  0.17300000000E+03 0.  1.
</event>
<event>
 4    1  0.6197496E+000  0.1000000E+03  0.7546771E-02  0.1280296E+00
         21   -1    0    0  503  502  0.00000000000E+00  0.00000000000E+00  0.91013155078E+03  0.91013155078E+03  0.00000000000E+00 0.  1.
         21   -1    0    0  501  503 -0.00000000000E+00 -0.00000000000E+00 -0.10855785468E+03  0.10855785468E+03  0.00000000000E+00 0.  1.
          6    1    1    2  501    0  0.99582680749E+02 -0.13700551296E+03  0.75950294975E+02  0.25374134112E+03  0.17300000000E+03 0. -1.
         -6    1    1    2    0  502 -0.99582680749E+02  0.13700551296E+03  0.72562340112E+03  0.76494806434E+03  0.17300000000E+03 0. -1.
</event>
<event>
 4    1  0.6197496E+000  0.1000000E+03  0.7546771E-02  0.1280296E+00
         21   -1    0    0  503  502  0.00000000000E+00  0.00000000000E+00  0.11534989401E+03  0.11534989401E+03  0.00000000000E+00 0.  1.
         21   -1    0    0  501  503 -0.00000000000E+00 -0.00000000000E+00 -0.38132348555E+03  0.38132348555E+03  0.00000000000E+00 0.  1.
          6    1    1    2  501    0  0.71373455920E+02  0.41895299271E+02 -0.32462758490E+02  0.19450505649E+03  0.17300000000E+03 0.  1.
         -6    1    1    2    0  502 -0.71373455920E+02 -0.41895299271E+02 -0.23351083305E+03  0.30216832306E+03  0.17300000000E+03 0.  1.
</event>
<event>
 4    1  0.6197496E+000  0.1000000E+03  0.7546771E-02  0.1280296E+00
         21   -1    0    0  503  502  0.00000000000E+00  0.00000000000E+00  0.52579215829E+03  0.52579215829E+03  0.00000000000E+00 0. -1.
         21   -1    0    0  501  503 -0.00000000000E+00 -0.00000000000E+00 -0.82598693739E+02  0.82598693739E+02  0.00000000000E+00 0. -1.
          6    1    1    2  501    0  0.19357058790E+02 -0.47764693073E+02  0.37360439545E+03  0.41492819370E+03  0.17300000000E+03 0.  1.
         -6    1    1    2    0  502 -0.19357058790E+02  0.47764693073E+02  0.69589069103E+02  0.19346265833E+03  0.17300000000E+03 0.  1.
</event>
<event>
 4    1  0.6197496E+000  0.1000000E+03  0.7546771E-02  0.1280296E+00
         21   -1    0    0  503  502  0.00000000000E+00  0.00000000000E+00  0.93230608888E+03  0.93230608888E+03  0.00000000000E+00 0. -1.
         21   -1    0    0  501  503 -0.00000000000E+00 -0.00000000000E+00 -0.13798860903E+03  0.13798860903E+03  0.00000000000E+00 0. -1.
          6    1    1    2  501    0 -0.37703227896E+02  0.91940167705E+02 -0.47561379407E+02  0.20509903131E+03  0.17300000000E+03 0. -1.
         -6    1    1    2    0  502  0.37703227896E+02 -0.91940167705E+02  0.84187885926E+03  0.86519566660E+03  0.17300000000E+03 0. -1.
</event>
<event>
 4    1  0.6197496E+000  0.1000000E+03  0.7546771E-02  0.1280296E+00
         21   -1    0    0  503  502  0.00000000000E+00  0.00000000000E+00  0.84624549518E+02  0.84624549518E+02  0.00000000000E+00 0. -1.
         21   -1    0    0  501  503 -0.00000000000E+00 -0.00000000000E+00 -0.60066770886E+03  0.60066770886E+03  0.00000000000E+00 0. -1.
          6    1    1    2  501    0  0.12024767770E+03  0.36233822700E+02 -0.36687258088E+03  0.42461380630E+03  0.17300000000E+03 0. -1.
         -6    1    1    2    0  502 -0.12024767770E+03 -0.36233822700E+02 -0.14917057847E+03  0.26067845208E+03  0.17300000000E+03 0. -1.
</event>
<event>
 4    1  0.6197496E+000  0.1000000E+03  0.7546771E-02  0.1280296E+00
         21   -1    0    0  503  502  0.00000000000E+00  0.00000000000E+00  0.22341106314E+03  0.22341106314E+03  0.00000000000E+00 0. -1.
         21   -1    0    0  501  503 -0.00000000000E+00 -0.00000000000E+00 -0.12803497618E+04  0.12803497618E+04  0.00000000000E+00 0. -1.
          6    1    1    2  501    0 -0.87384039534E+02  0.17676926719E+03 -0.11836996585E+04  0.12124179254E+04  0.17300000000E+03 0. -1.
         -6    1    1    2    0  502  0.87384039534E+02 -0.17676926719E+03  0.12676095986E+03  0.29134289957E+03  0.17300000000E+03 0. -1.
</event>
<event>
 4    1  0.6197496E+000  0.1000000E+03  0.7546771E-02  0.1280296E+00
         21   -1    0    0  501  502  0.00000000000E+00  0.00000000000E+00  0.11031732516E+03  0.11031732516E+03  0.00000000000E+00 0.  1.
         21   -1    0    0  502  503 -0.00000000000E+00 -0.00000000000E+00 -0.86440329072E+03  0.86440329072E+03  0.00000000000E+00 0. -1.
          6    1    1    2  501    0 -0.87490090936E+02 -0.83180171012E+02 -0.21131458431E+02  0.21201178127E+03  0.17300000000E+03 0.  1.
         -6    1    1    2    0  503  0.87490090936E+02  0.83180171012E+02 -0.73295450713E+03  0.76270883460E+03  0.17300000000E+03 0. -1.
</event>
<event>
 4    1  0.6197496E+000  0.1000000E+03  0.7546771E-02  0.1280296E+00
         21   -1    0    0  501  502  0.00000000000E+00  0.00000000000E+00  0.50135169043E+02  0.50135169043E+02  0.00000000000E+00 0.  1.
         21   -1    0    0  502  503 -0.00000000000E+00 -0.00000000000E+00 -0.67614433249E+03  0.67614433249E+03  0.00000000000E+00 0. -1.
          6    1    1    2  501    0 -0.48856314388E+02 -0.39597060771E+02 -0.30543125806E+03  0.35661200215E+03  0.17300000000E+03 0.  1.
         -6    1    1    2    0  503  0.48856314388E+02  0.39597060771E+02 -0.32057790539E+03  0.36966749938E+03  0.17300000000E+03 0. -1.
</event>
<event>
 4    1  0.6197496E+000  0.1000000E+03  0.7546771E-02  0.1280296E+00
         21   -1    0    0  501  502  0.00000000000E+00  0.00000000000E+00  0.61933630450E+03  0.61933630450E+03  0.00000000000E+00 0.  1.
         21   -1    0    0  502  503 -0.00000000000E+00 -0.00000000000E+00 -0.56137178029E+02  0.56137178029E+02  0.00000000000E+00 0. -1.
          6    1    1    2  501    0 -0.69065300477E+02  0.19677790739E+01  0.29619197782E+03  0.34990366618E+03  0.17300000000E+03 0. -1.
         -6    1    1    2    0  503  0.69065300477E+02 -0.19677790739E+01  0.26700714865E+03  0.32556981635E+03  0.17300000000E+03 0.  1.
</event>
<event>
 4    1  0.6197496E+000  0.1000000E+03  0.7546771E-02  0.1280296E+00
         21   -1    0    0  501  502  0.00000000000E+00  0.00000000000E+00  0.15770769084E+04  0.15770769084E+04  0.00000000000E+00 0. -1.
         21   -1    0    0  502  503 -0.00000000000E+00 -0.00000000000E+00 -0.35482954176E+02  0.35482954176E+02  0.00000000000E+00 0. -1.
          6    1    1    2  501    0 -0.24281004277E+01 -0.11123303849E+03  0.11690346215E+04  0.11869918411E+04  0.17300000000E+03 0. -1.
         -6    1    1    2    0  503  0.24281004277E+01  0.11123303849E+03  0.37255933276E+03  0.42556802154E+03  0.17300000000E+03 0. -1.
</event>
<event>
 4    1  0.6197496E+000  0.1000000E+03  0.7546771E-02  0.1280296E+00
         21   -1    0    0  501  502  0.00000000000E+00  0.00000000000E+00  0.14173788368E+03  0.14173788368E+03  0.00000000000E+00 0. -1.
         21   -1    0    0  502  503 -0.00000000000E+00 -0.00000000000E+00 -0.19626776041E+04  0.19626776041E+04  0.00000000000E+00 0. -1.
          6    1    1    2  501    0  0.29018544681E+03  0.39716234747E+03 -0.10689561134E+04  0.11893450703E+04  0.17300000000E+03 0. -1.
         -6    1    1    2    0  503 -0.29018544681E+03 -0.39716234747E+03 -0.75198360699E+03  0.91507041749E+03  0.17300000000E+03 0. -1.
</event>
<event>
 4    1  0.6197496E+000  0.1000000E+03  0.7546771E-02  0.1280296E+00
         21   -1    0    0  501  502  0.00000000000E+00  0.00000000000E+00  0.32948396687E+03  0.32948396687E+03  0.00000000000E+00 0. -1.
         21   -1    0    0  502  503 -0.00000000000E+00 -0.00000000000E+00 -0.64941256541E+03  0.64941256541E+03  0.00000000000E+00 0. -1.
          6    1    1    2  501    0 -0.32844445060E+03  0.26008315096E+03 -0.25764892238E+03  0.52137411687E+03  0.17300000000E+03 0. -1.
         -6    1    1    2    0  503  0.32844445060E+03 -0.26008315096E+03 -0.62279676154E+02  0.45752241541E+03  0.17300000000E+03 0. -1.
</event>
<event>
 4    1  0.6197496E+000  0.1000000E+03  0.7546771E-02  0.1280296E+00
         21   -1    0    0  503  502  0.00000000000E+00  0.00000000000E+00  0.31999764127E+02  0.31999764127E+02  0.00000000000E+00 0. -1.
         21   -1    0    0  501  503 -0.00000000000E+00 -0.00000000000E+00 -0.11593328919E+04  0.11593328919E+04  0.00000000000E+00 0.  1.
          6    1    1    2  501    0  0.64212784620E+02 -0.51766362860E+02 -0.62285929497E+03  0.65167916904E+03  0.17300000000E+03 0.  1.
         -6    1    1    2    0  502 -0.64212784620E+02  0.51766362860E+02 -0.50447383280E+03  0.53965348699E+03  0.17300000000E+03 0. -1.
</event>
<event>
 4    1  0.6197496E+000  0.1000000E+03  0.7546771E-02  0.1280296E+00
         21   -1    0    0  503  502  0.00000000000E+00  0.00000000000E+00  0.15921625569E+03  0.15921625569E+03  0.00000000000E+00 0. -1.
         21   -1    0    0  501  503 -0.00000000000E+00 -0.00000000000E+00 -0.72403151762E+03  0.72403151762E+03  0.00000000000E+00 0.  1.
          6    1    1    2  501    0 -0.15713412828E+03 -0.13641705267E+03 -0.54912540973E+03  0.61218335663E+03  0.17300000000E+03 0.  1.
         -6    1    1    2    0  502  0.15713412828E+03  0.13641705267E+03 -0.15689852208E+02  0.27106441668E+03  0.17300000000E+03 0. -1.
</event>
<event>
 4    1  0.6197496E+000  0.1000000E+03  0.7546771E-02  0.1280296E+00
         21   -1    0    0  503  502  0.00000000000E+00  0.00000000000E+00  0.64675580010E+03  0.64675580010E+03  0.00000000000E+00 0. -1.
         21   -1    0    0  501  503 -0.00000000000E+00 -0.00000000000E+00 -0.61419276620E+02  0.61419276620E+02  0.00000000000E+00 0.  1.
          6    1    1    2  501    0  0.47456277676E+01 -0.43016247747E+00  0.11704976989E+03  0.20893145923E+03  0.17300000000E+03 0.  1.
         -6    1    1    2    0  502 -0.47456277676E+01  0.43016247747E+00  0.46828675359E+03  0.49924361749E+03  0.17300000000E+03 0. -1.
</event>
<event>
 4    1  0.6197496E+000  0.1000000E+03  0.7546771E-02  0.1280296E+00
         21   -1    0    0  503  502  0.00000000000E+00  0.00000000000E+00  0.43320577979E+02  0.43320577979E+02  0.00000000000E+00 0. -1.
         21   -1    0    0  501  503 -0.00000000000E+00 -0.00000000000E+00 -0.10570839205E+04  0.10570839205E+04  0.00000000000E+00 0.  1.
          6    1    1    2  501    0 -0.41056932605E+02 -0.27649369483E+02 -0.80466813497E+03  0.82454227714E+03  0.17300000000E+03 0.  1.
         -6    1    1    2    0  502  0.41056932605E+02  0.27649369483E+02 -0.20909520758E+03  0.27586222137E+03  0.17300000000E+03 0. -1.
</event>
<event>
 4    1  0.6197496E+000  0.1000000E+03  0.7546771E-02  0.1280296E+00
         21   -1    0    0  503  502  0.00000000000E+00  0.00000000000E+00  0.31710223159E+03  0.31710223159E+03  0.00000000000E+00 0. -1.
         21   -1    0    0  501  503 -0.00000000000E+00 -0.00000000000E+00 -0.11121688048E+03  0.11121688048E+03  0.00000000000E+00 0.  1.
          6    1    1    2  501    0 -0.67831500165E+02  0.27125391515E+02  0.10420315785E+03  0.21476544738E+03  0.17300000000E+03 0.  1.
         -6    1    1    2    0  502  0.67831500165E+02 -0.27125391515E+02  0.10168219325E+03  0.21355366469E+03  0.17300000000E+03 0. -1.
</event>
<event>
 4    1  0.6197496E+000  0.1000000E+03  0.7546771E-02  0.1280296E+00
         21   -1    0    0  503  502  0.00000000000E+00  0.00000000000E+00  0.13999183153E+03  0.13999183153E+03  0.00000000000E+00 0. -1.
         21   -1    0    0  501  503 -0.00000000000E+00 -0.00000000000E+00 -0.43635062949E+03  0.43635062949E+03  0.00000000000E+00 0. -1.
          6    1    1    2  501    0  0.14325782992E+03 -0.10250242199E+03 -0.16131755875E+03  0.29492695215E+03  0.17300000000E+03 0. -1.
         -6    1    1    2    0  502 -0.14325782992E+03  0.10250242199E+03 -0.13504123921E+03  0.28141550887E+03  0.17300000000E+03 0. -1.
</event>
<event>
 4    1  0.6197496E+000  0.1000000E+03  0.7546771E-02  0.1280296E+00
         21   -1    0    0  503  502  0.00000000000E+00  0.00000000000E+00  0.88633661335E+03  0.88633661335E+03  0.00000000000E+00 0. -1.
         21   -1    0    0  501  503 -0.00000000000E+00 -0.00000000000E+00 -0.35105597955E+02  0.35105597955E+02  0.00000000000E+00 0. -1.
          6    1    1    2  501    0  0.60478322481E+01  0.10364434203E+02  0.50994187822E+03  0.53862205388E+03  0.17300000000E+03 0. -1.
         -6    1    1    2    0  502 -0.60478322481E+01 -0.10364434203E+02  0.34128913718E+03  0.38282015742E+03  0.17300000000E+03 0. -1.
</event>
<event>
 4    1  0.6197496E+000  0.1000000E+03  0.7546771E-02  0.1280296E+00
         21   -1    0    0  501  502  0.00000000000E+00  0.00000000000E+00  0.54456323913E+03  0.54456323913E+03  0.00000000000E+00 0.  1.
         21   -1    0    0  502  503 -0.00000000000E+00 -0.00000000000E+00 -0.19652412591E+03  0.19652412591E+03  0.00000000000E+00 0.  1.
          6    1    1    2  501    0 -0.99534427757E+02 -0.19496122396E+03  0.36748529515E+03  0.46140158573E+03  0.17300000000E+03 0.  1.
         -6    1    1    2    0  503  0.99534427757E+02  0.19496122396E+03 -0.19446181938E+02  0.27968577931E+03  0.17300000000E+03 0.  1.
</event>
<event>
 4    1  0.6197496E+000  0.1000000E+03  0.7546771E-02  0.1280296E+00
         21   -1    0    0  501  502  0.00000000000E+00  0.00000000000E+00  0.15129310221E+03  0.15129310221E+03  0.00000000000E+00 0. -1.
         21   -1    0    0  502  503 -0.00000000000E+00 -0.00000000000E+00 -0.36471756291E+03  0.36471756291E+03  0.00000000000E+00 0. -1.
          6    1    1    2  501    0 -0.38889981878E+02  0.98497446366E+02  0.23413626584E+02  0.20418466040E+03  0.17300000000E+03 0. -1.
         -6    1    1    2    0  503  0.38889981878E+02 -0.98497446366E+02 -0.23683808729E+03  0.31182600473E+03  0.17300000000E+03 0. -1.
</event>
<event>
 4    1  0.6197496E+000  0.1000000E+03  0.7546771E-02  0.1280296E+00
         21   -1    0    0  501  502  0.00000000000E+00  0.00000000000E+00  0.93439951258E+02  0.93439951258E+02  0.00000000000E+00 0. -1.
         21   -1    0    0  502  503 -0.00000000000E+00 -0.00000000000E+00 -0.51604559096E+03  0.51604559096E+03  0.00000000000E+00 0. -1.
          6    1    1    2  501    0  0.10319161281E+03 -0.36676306374E+02 -0.10118017685E+03  0.22838583273E+03  0.17300000000E+03 0. -1.
         -6    1    1    2    0  503 -0.10319161281E+03  0.36676306374E+02 -0.32142546285E+03  0.38109970949E+03  0.17300000000E+03 0. -1.
</event>
<event>
 4    1  0.6197496E+000  0.1000000E+03  0.7546771E-02  0.1280296E+00
         21   -1    0    0  501  502  0.00000000000E+00  0.00000000000E+00  0.45036374468E+02  0.45036374468E+02  0.00000000000E+00 0. -1.
         21   -1    0    0  502  503 -0.00000000000E+00 -0.00000000000E+00 -0.16877224679E+04  0.16877224679E+04  0.00000000000E+00 0. -1.
          6    1    1    2  501    0  0.47240201739E+02 -0.73196167231E+00 -0.16330735246E+03  0.24254992022E+03  0.17300000000E+03 0. -1.
         -6    1    1    2    0  503 -0.47240201739E+02  0.73196167231E+00 -0.14793787409E+04  0.14902089221E+04  0.17300000000E+03 0. -1.
</event>
<event>
 4    1  0.6197496E+000  0.1000000E+03  0.7546771E-02  0.1280296E+00
         21   -1    0    0  501  502  0.00000000000E+00  0.00000000000E+00  0.67037080425E+03  0.67037080425E+03  0.00000000000E+00 0.  1.
         21   -1    0    0  502  503 -0.00000000000E+00 -0.00000000000E+00 -0.63076203538E+02  0.63076203538E+02  0.00000000000E+00 0.  1.
          6    1    1    2  501    0  0.50121538487E+02  0.22175818588E+02  0.47610766182E+03  0.50952079564E+03  0.17300000000E+03 0.  1.
         -6    1    1    2    0  503 -0.50121538487E+02 -0.22175818588E+02  0.13118693890E+03  0.22392621215E+03  0.17300000000E+03 0.  1.
</event>
<event>
 4    1  0.6197496E+000  0.1000000E+03  0.7546771E-02  0.1280296E+00
         21   -1    0    0  501  502  0.00000000000E+00  0.00000000000E+00  0.99147183267E+03  0.99147183267E+03  0.00000000000E+00 0.  1.
         21   -1    0    0  502  503 -0.00000000000E+00 -0.00000000000E+00 -0.79178393646E+02  0.79178393646E+02  0.00000000000E+00 0.  1.
          6    1    1    2  501    0 -0.15178691606E+03  0.96973321446E+02  0.69881077851E+03  0.74209743102E+03  0.17300000000E+03 0.  1.
         -6    1    1    2    0  503  0.15178691606E+03 -0.96973321446E+02  0.21348266051E+03  0.32855279530E+03  0.17300000000E+03 0.  1.
</event>
<event>
 4    1  0.6197496E+000  0.1000000E+03  0.7546771E-02  0.1280296E+00
         21   -1    0    0  501  502  0.00000000000E+00  0.00000000000E+00  0.12282150569E+04  0.12282150569E+04  0.00000000000E+00 0.  1.
         21   -1    0    0  502  503 -0.00000000000E+00 -0.00000000000E+00 -0.23156314019E+03  0.23156314019E+03  0.00000000000E+00 0. -1.
          6    1    1    2  501    0  0.22981328626E+03 -0.36177762470E+02  0.11109409239E+04  0.11481470783E+04  0.17300000000E+03 0.  1.
         -6    1    1    2    0  503 -0.22981328626E+03  0.36177762470E+02 -0.11428900717E+03  0.31163111879E+03  0.17300000000E+03 0. -1.
</event>
<event>
 4    1  0.6197496E+000  0.1000000E+03  0.7546771E-02  0.1280296E+00
         21   -1    0    0  503  502  0.00000000000E+00  0.00000000000E+00  0.69325069869E+03  0.69325069869E+03  0.00000000000E+00 0. -1.
         21   -1    0    0  501  503 -0.00000000000E+00 -0.00000000000E+00 -0.20368342248E+03  0.20368342248E+03  0.00000000000E+00 0. -1.
          6    1    1    2  501    0 -0.31958139456E+03  0.88327621286E+02  0.28848182284E+03  0.47231853504E+03  0.17300000000E+03 0. -1.
         -6    1    1    2    0  502  0.31958139456E+03 -0.88327621286E+02  0.20108545337E+03  0.42461558613E+03  0.17300000000E+03 0. -1.
</event>
<event>
 4    1  0.6197496E+000  0.1000000E+03  0.7546771E-02  0.1280296E+00
         21   -1    0    0  503  502  0.00000000000E+00  0.00000000000E+00  0.61713184731E+03  0.61713184731E+03  0.00000000000E+00 0. -1.
         21   -1    0    0  501  503 -0.00000000000E+00 -0.00000000000E+00 -0.59029016127E+02  0.59029016127E+02  0.00000000000E+00 0. -1.
          6    1    1    2  501    0  0.33537147723E+02 -0.70750331201E+02  0.24500987733E+03  0.30998256343E+03  0.17300000000E+03 0. -1.
         -6    1    1    2    0  502 -0.33537147723E+02  0.70750331201E+02  0.31309295385E+03  0.36617830000E+03  0.17300000000E+03 0. -1.
</event>
<event>
 4    1  0.6197496E+000  0.1000000E+03  0.7546771E-02  0.1280296E+00
         21   -1    0    0  503  502  0.00000000000E+00  0.00000000000E+00  0.22747723200E+03  0.22747723200E+03  0.00000000000E+00 0. -1.
         21   -1    0    0  501  503 -0.00000000000E+00 -0.00000000000E+00 -0.46520035151E+03  0.46520035151E+03  0.00000000000E+00 0. -1.
          6    1    1    2  501    0 -0.59315930913E+02 -0.54212482324E+02 -0.39940806365E+03  0.44262080183E+03  0.17300000000E+03 0. -1.
         -6    1    1    2    0  502  0.59315930913E+02  0.54212482324E+02  0.16168494414E+03  0.25005678167E+03  0.17300000000E+03 0. -1.
</event>
<event>
 4    1  0.6197496E+000  0.1000000E+03  0.7546771E-02  0.1280296E+00
         21   -1    0    0  501  502  0.00000000000E+00  0.00000000000E+00  0.37195051227E+02  0.37195051227E+02  0.00000000000E+00 0. -1.
         21   -1    0    0  502  503 -0.00000000000E+00 -0.00000000000E+00 -0.10851332177E+04  0.10851332177E+04  0.00000000000E+00 0. -1.
          6    1    1    2  501    0 -0.49790835410E+02 -0.81396240845E+02 -0.42217492159E+03  0.46611708801E+03  0.17300000000E+03 0. -1.
         -6    1    1    2    0  503  0.49790835410E+02  0.81396240845E+02 -0.62576324486E+03  0.65621118090E+03  0.17300000000E+03 0. -1.
</event>
<event>
 4    1  0.6197496E+000  0.1000000E+03  0.7546771E-02  0.1280296E+00
         21   -1    0    0  501  502  0.00000000000E+00  0.00000000000E+00  0.49623541489E+03  0.49623541489E+03  0.00000000000E+00 0. -1.
         21   -1    0    0  502  503 -0.00000000000E+00 -0.00000000000E+00 -0.13229203331E+03  0.13229203331E+03  0.00000000000E+00 0. -1.
          6    1    1    2  501    0  0.54932976842E+02 -0.83898831718E+02  0.37845773462E+03  0.42803726800E+03  0.17300000000E+03 0. -1.
         -6    1    1    2    0  503 -0.54932976842E+02  0.83898831718E+02 -0.14514353039E+02  0.20049018019E+03  0.17300000000E+03 0. -1.
</event>
<event>
 4    1  0.6197496E+000  0.1000000E+03  0.7546771E-02  0.1280296E+00
         21   -1    0    0  501  502  0.00000000000E+00  0.00000000000E+00  0.76820041199E+03  0.76820041199E+03  0.00000000000E+00 0.  1.
         21   -1    0    0  502  503 -0.00000000000E+00 -0.00000000000E+00 -0.11157936923E+03  0.11157936923E+03  0.00000000000E+00 0.  1.
          6    1    1    2  501    0 -0.18371239526E+03 -0.61037958382E+02  0.53162305999E+03  0.59163160366E+03  0.17300000000E+03 0.  1.
         -6    1    1    2    0  503  0.18371239526E+03  0.61037958382E+02  0.12499798277E+03  0.28814817756E+03  0.17300000000E+03 0.  1.
</event>
<event>
 4    1  0.6197496E+000  0.1000000E+03  0.7546771E-02  0.1280296E+00
         21   -1    0    0  501  502  0.00000000000E+00  0.00000000000E+00  0.54855823048E+03  0.54855823048E+03  0.00000000000E+00 0. -1.
         21   -1    0    0  502  503 -0.00000000000E+00 -0.00000000000E+00 -0.14951459783E+03  0.14951459783E+03  0.00000000000E+00 0.  1.
          6    1    1    2  501    0 -0.69937877664E+02 -0.84089348327E+00  0.46429392597E+03  0.50038971165E+03  0.17300000000E+03 0. -1.
         -6    1    1    2    0  503  0.69937877664E+02  0.84089348327E+00 -0.65250293313E+02  0.19768311666E+03  0.17300000000E+03 0.  1.
</event>
<event>
 4    1  0.6197496E+000  0.1000000E+03  0.7546771E-02  0.1280296E+00
         21   -1    0    0  501  502  0.00000000000E+00  0.00000000000E+00  0.17180161816E+03  0.17180161816E+03  0.00000000000E+00 0. -1.
         21   -1    0    0  502  503 -0.00000000000E+00 -0.00000000000E+00 -0.39767951384E+03  0.39767951384E+03  0.00000000000E+00 0.  1.
          6    1    1    2  501    0  0.17774067700E+03  0.33412485719E+02 -0.30803942324E+02  0.25216269614E+03  0.17300000000E+03 0. -1.
         -6    1    1    2    0  503 -0.17774067700E+03 -0.33412485719E+02 -0.19507395335E+03  0.31731843586E+03  0.17300000000E+03 0.  1.
</event>
<event>
 4    1  0.6197496E+000  0.1000000E+03  0.7546771E-02  0.1280296E+00
         21   -1    0    0  501  502  0.00000000000E+00  0.00000000000E+00  0.27258674481E+04  0.27258674481E+04  0.00000000000E+00 0. -1.
         21   -1    0    0  502  503 -0.00000000000E+00 -0.00000000000E+00 -0.16317392693E+02  0.16317392693E+02  0.00000000000E+00 0. -1.
          6    1    1    2  501    0  0.11670799888E+03 -0.92169337131E+01  0.15436819383E+04  0.15577511469E+04  0.17300000000E+03 0. -1.
         -6    1    1    2    0  503 -0.11670799888E+03  0.92169337131E+01  0.11658681170E+04  0.11844336939E+04  0.17300000000E+03 0. -1.
</event>
<event>
 4    1  0.6197496E+000  0.1000000E+03  0.7546771E-02  0.1280296E+00
         21   -1    0    0  503  502  0.00000000000E+00  0.00000000000E+00  0.36831269489E+02  0.36831269489E+02  0.00000000000E+00 0.  1.
         21   -1    0    0  501  503 -0.00000000000E+00 -0.00000000000E+00 -0.81306657155E+03  0.81306657155E+03  0.00000000000E+00 0.  1.
          6    1    1    2  501    0 -0.29230344465E+01 -0.17725416379E+01 -0.38231278039E+03  0.41964717095E+03  0.17300000000E+03 0.  1.
         -6    1    1    2    0  502  0.29230344465E+01  0.17725416379E+01 -0.39392252167E+03  0.43025067009E+03  0.17300000000E+03 0.  1.
</event>
<event>
 4    1  0.6197496E+000  0.1000000E+03  0.7546771E-02  0.1280296E+00
         21   -1    0    0  503  502  0.00000000000E+00  0.00000000000E+00  0.52952841861E+03  0.52952841861E+03  0.00000000000E+00 0.  1.
         21   -1    0    0  501  503 -0.00000000000E+00 -0.00000000000E+00 -0.83444404820E+02  0.83444404820E+02  0.00000000000E+00 0.  1.
          6    1    1    2  501    0  0.54824736932E+02 -0.41015424448E+01  0.68499851749E+02  0.19402011267E+03  0.17300000000E+03 0.  1.
         -6    1    1    2    0  502 -0.54824736932E+02  0.41015424448E+01  0.37758416204E+03  0.41895271076E+03  0.17300000000E+03 0.  1.
</event>
<event>
 4    1  0.6197496E+000  0.1000000E+03  0.7546771E-02  0.1280296E+00
         21   -1    0    0  503  502  0.00000000000E+00  0.00000000000E+00  0.95179157935E+02  0.95179157935E+02  0.00000000000E+00 0. -1.
         21   -1    0    0  501  503 -0.00000000000E+00 -0.00000000000E+00 -0.33834786006E+03  0.33834786006E+03  0.00000000000E+00 0.  1.
          6    1    1    2  501    0 -0.24317129630E+02  0.15765460700E+02 -0.16733823640E+03  0.24242722187E+03  0.17300000000E+03 0.  1.
         -6    1    1    2    0  502  0.24317129630E+02 -0.15765460700E+02 -0.75830465725E+02  0.19109979612E+03  0.17300000000E+03 0. -1.
</event>
<event>
 4    1  0.6197496E+000  0.1000000E+03  0.7546771E-02  0.1280296E+00
         21   -1    0    0  503  502  0.00000000000E+00  0.00000000000E+00  0.37060630354E+02  0.37060630354E+02  0.00000000000E+00 0. -1.
         21   -1    0    0  501  503 -0.00000000000E+00 -0.00000000000E+00 -0.16698738656E+04  0.16698738656E+04  0.00000000000E+00 0.  1.
          6    1    1    2  501    0 -0.66846573960E+02 -0.35341111646E+02 -0.13721464537E+04  0.13850748532E+04  0.17300000000E+03 0.  1.
         -6    1    1    2    0  502  0.66846573960E+02  0.35341111646E+02 -0.26066678158E+03  0.32185964277E+03  0.17300000000E+03 0. -1.
</event>
<event>
 4    1  0.6197496E+000  0.1000000E+03  0.7546771E-02  0.1280296E+00
         21   -1    0    0  503  502  0.00000000000E+00  0.00000000000E+00  0.16880609618E+03  0.16880609618E+03  0.00000000000E+00 0. -1.
         21   -1    0    0  501  503 -0.00000000000E+00 -0.00000000000E+00 -0.22502207596E+03  0.22502207596E+03  0.00000000000E+00 0.  1.
          6    1    1    2  501    0  0.66660643907E+02  0.26892864834E+02  0.26199691103E+02  0.18916207717E+03  0.17300000000E+03 0.  1.
         -6    1    1    2    0  502 -0.66660643907E+02 -0.26892864834E+02 -0.82415670879E+02  0.20466609497E+03  0.17300000000E+03 0. -1.
</event>
<event>
 4    1  0.6197496E+000  0.1000000E+03  0.7546771E-02  0.1280296E+00
         21   -1    0    0  503  502  0.00000000000E+00  0.00000000000E+00  0.98681927973E+03  0.98681927973E+03  0.00000000000E+00 0. -1.
         21   -1    0    0  501  503 -0.00000000000E+00 -0.00000000000E+00 -0.32887405218E+03  0.32887405218E+03  0.00000000000E+00 0.  1.
          6    1    1    2  501    0  0.69726192407E+01  0.12743197077E+03 -0.28023510700E+03  0.35319716843E+03  0.17300000000E+03 0.  1.
         -6    1    1    2    0  502 -0.69726192407E+01 -0.12743197077E+03  0.93818033454E+03  0.96249616348E+03  0.17300000000E+03 0.  1.
</event>
<event>
 4    1  0.6197496E+000  0.1000000E+03  0.7546771E-02  0.1280296E+00
         21   -1    0    0  503  502  0.00000000000E+00  0.00000000000E+00  0.57391231087E+03  0.57391231087E+03  0.00000000000E+00 0. -1.
         21   -1    0    0  501  503 -0.00000000000E+00 -0.00000000000E+00 -0.75317392046E+02  0.75317392046E+02  0.00000000000E+00 0.  1.
          6    1    1    2  501    0  0.82412560691E+02 -0.75282193656E+02  0.20411719031E+03  0.28991734378E+03  0.17300000000E+03 0.  1.
         -6    1    1    2    0  502 -0.82412560691E+02  0.75282193656E+02  0.29447772851E+03  0.35931235914E+03  0.17300000000E+03 0.  1.
</event>
<event>
 4    1  0.6197496E+000  0.1000000E+03  0.7546771E-02  0.1280296E+00
         21   -1    0    0  501  502  0.00000000000E+00  0.00000000000E+00  0.12459222385E+03  0.12459222385E+03  0.00000000000E+00 0. -1.
         21   -1    0    0  502  503 -0.00000000000E+00 -0.00000000000E+00 -0.37647493910E+03  0.37647493910E+03  0.00000000000E+00 0. -1.
          6    1    1    2  501    0 -0.21470937660E+02  0.41231716174E+02  0.14862616283E+02  0.17975247688E+03  0.17300000000E+03 0. -1.
         -6    1    1    2    0  503  0.21470937660E+02 -0.41231716174E+02 -0.26674533154E+03  0.32131468606E+03  0.17300000000E+03 0. -1.
</event>
<event>
 4    1  0.6197496E+000  0.1000000E+03  0.7546771E-02  0.1280296E+00
         21   -1    0    0  503  502  0.00000000000E+00  0.00000000000E+00  0.20038049136E+04  0.20038049136E+04  0.00000000000E+00 0. -1.
         21   -1    0    0  501  503 -0.00000000000E+00 -0.00000000000E+00 -0.18892372452E+02  0.18892372452E+02  0.00000000000E+00 0.  1.
          6    1    1    2  501    0 -0.76689959979E+02  0.15518984752E+02  0.77159404406E+03  0.79461220584E+03  0.17300000000E+03 0.  1.
         -6    1    1    2    0  502  0.76689959979E+02 -0.15518984752E+02  0.12133184970E+04  0.12280850802E+04  0.17300000000E+03 0. -1.
</event>
<event>
 4    1  0.6197496E+000  0.1000000E+03  0.7546771E-02  0.1280296E+00
         21   -1    0    0  501  502  0.00000000000E+00  0.00000000000E+00  0.23729447038E+04  0.23729447038E+04  0.00000000000E+00 0.  1.
         21   -1    0    0  502  503 -0.00000000000E+00 -0.00000000000E+00 -0.19082858682E+02  0.19082858682E+02  0.00000000000E+00 0.  1.
          6    1    1    2  501    0 -0.41551138548E+02  0.14668863011E+02  0.18278331277E+04  0.18365305920E+04  0.17300000000E+03 0. -1.
         -6    1    1    2    0  503  0.41551138548E+02 -0.14668863011E+02  0.52602871735E+03  0.55549697041E+03  0.17300000000E+03 0. -1.
</event>
<event>
 4    1  0.6197496E+000  0.1000000E+03  0.7546771E-02  0.1280296E+00
         21   -1    0    0  501  502  0.00000000000E+00  0.00000000000E+00  0.21332807954E+03  0.21332807954E+03  0.00000000000E+00 0.  1.
         21   -1    0    0  502  503 -0.00000000000E+00 -0.00000000000E+00 -0.14882926474E+03  0.14882926474E+03  0.00000000000E+00 0.  1.
          6    1    1    2  501    0 -0.18463164172E+02 -0.38405838668E+02  0.30078263533E+02  0.18069199986E+03  0.17300000000E+03 0. -1.
         -6    1    1    2    0  503  0.18463164172E+02  0.38405838668E+02  0.34420551270E+02  0.18146534442E+03  0.17300000000E+03 0. -1.
</event>
<event>
 4    1  0.6197496E+000  0.1000000E+03  0.7546771E-02  0.1280296E+00
         21   -1    0    0  501  502  0.00000000000E+00  0.00000000000E+00  0.27794586613E+03  0.27794586613E+03  0.00000000000E+00 0.  1.
         21   -1    0    0  502  503 -0.00000000000E+00 -0.00000000000E+00 -0.40949226114E+03  0.40949226114E+03  0.00000000000E+00 0.  1.
          6    1    1    2  501    0 -0.16242004076E+03 -0.10996034970E+03  0.15134975593E+03  0.30217097274E+03  0.17300000000E+03 0.  1.
         -6    1    1    2    0  503  0.16242004076E+03  0.10996034970E+03 -0.28289615094E+03  0.38526715453E+03  0.17300000000E+03 0.  1.
</event>
<event>
 4    1  0.6197496E+000  0.1000000E+03  0.7546771E-02  0.1280296E+00
         21   -1    0    0  501  502  0.00000000000E+00  0.00000000000E+00  0.10334362022E+03  0.10334362022E+03  0.00000000000E+00 0.  1.
         21   -1    0    0  502  503 -0.00000000000E+00 -0.00000000000E+00 -0.47362671995E+03  0.47362671995E+03  0.00000000000E+00 0. -1.
          6    1    1    2  501    0  0.96990560231E+02  0.71365341362E+02 -0.97503171575E+02  0.23224135977E+03  0.17300000000E+03 0.  1.
         -6    1    1    2    0  503 -0.96990560231E+02 -0.71365341362E+02 -0.27277992816E+03  0.34472898040E+03  0.17300000000E+03 0. -1.
</event>
<event>
 4    1  0.6197496E+000  0.1000000E+03  0.7546771E-02  0.1280296E+00
         21   -1    0    0  501  502  0.00000000000E+00  0.00000000000E+00  0.23151370475E+04  0.23151370475E+04  0.00000000000E+00 0.  1.
         21   -1    0    0  502  503 -0.00000000000E+00 -0.00000000000E+00 -0.88587894570E+02  0.88587894570E+02  0.00000000000E+00 0. -1.
          6    1    1    2  501    0 -0.12006995936E+02  0.11373191249E+03  0.21817158236E+04  0.21915501479E+04  0.17300000000E+03 0.  1.
         -6    1    1    2    0  503  0.12006995936E+02 -0.11373191249E+03  0.44833329370E+02  0.21217479420E+03  0.17300000000E+03 0. -1.
</event>
<event>
 4    1  0.6197496E+000  0.1000000E+03  0.7546771E-02  0.1280296E+00
         21   -1    0    0  503  502  0.00000000000E+00  0.00000000000E+00  0.83068349765E+03  0.83068349765E+03  0.00000000000E+00 0.  1.
         21   -1    0    0  501  503 -0.00000000000E+00 -0.00000000000E+00 -0.98538369754E+02  0.98538369754E+02  0.00000000000E+00 0.  1.
          6    1    1    2  501    0  0.59429049120E+02  0.20158319165E+03  0.22304072835E+03  0.35191442360E+03  0.17300000000E+03 0. -1.
         -6    1    1    2    0  502 -0.59429049120E+02 -0.20158319165E+03  0.50910439954E+03  0.57730744380E+03  0.17300000000E+03 0. -1.
</event>
<event>
 4    1  0.6197496E+000  0.1000000E+03  0.7546771E-02  0.1280296E+00
         21   -1    0    0  503  502  0.00000000000E+00  0.00000000000E+00  0.92744247188E+02  0.92744247188E+02  0.00000000000E+00 0.  1.
         21   -1    0    0  501  503 -0.00000000000E+00 -0.00000000000E+00 -0.71380322376E+03  0.71380322376E+03  0.00000000000E+00 0.  1.
          6    1    1    2  501    0  0.92744294969E+02 -0.13998037141E+03 -0.45138341328E+03  0.51173430060E+03  0.17300000000E+03 0. -1.
         -6    1    1    2    0  502 -0.92744294969E+02  0.13998037141E+03 -0.16967556329E+03  0.29481317034E+03  0.17300000000E+03 0. -1.
</event>
<event>
 4    1  0.6197496E+000  0.1000000E+03  0.7546771E-02  0.1280296E+00
         21   -1    0    0  501  502  0.00000000000E+00  0.00000000000E+00  0.14766289662E+04  0.14766289662E+04  0.00000000000E+00 0.  1.
         21   -1    0    0  502  503 -0.00000000000E+00 -0.00000000000E+00 -0.25559366736E+02  0.25559366736E+02  0.00000000000E+00 0.  1.
          6    1    1    2  501    0 -0.39410713413E+02  0.16197070548E+02  0.10249378188E+04  0.10403086474E+04  0.17300000000E+03 0.  1.
         -6    1    1    2    0  503  0.39410713413E+02 -0.16197070548E+02  0.42613178062E+03  0.46187968550E+03  0.17300000000E+03 0.  1.
</event>
<event>
 4    1  0.6197496E+000  0.1000000E+03  0.7546771E-02  0.1280296E+00
         21   -1    0    0  501  502  0.00000000000E+00  0.00000000000E+00  0.13842388889E+04  0.13842388889E+04  0.00000000000E+00 0.  1.
         21   -1    0    0  502  503 -0.00000000000E+00 -0.00000000000E+00 -0.68715926843E+02  0.68715926843E+02  0.00000000000E+00 0.  1.
          6    1    1    2  501    0  0.71600832965E+02  0.55437571786E+02  0.12200875068E+04  0.12356142310E+04  0.17300000000E+03 0.  1.
         -6    1    1    2    0  503 -0.71600832965E+02 -0.55437571786E+02  0.95435455251E+02  0.21734058472E+03  0.17300000000E+03 0.  1.
</event>
<event>
 4    1  0.6197496E+000  0.1000000E+03  0.7546771E-02  0.1280296E+00
         21   -1    0    0  501  502  0.00000000000E+00  0.00000000000E+00  0.25421204316E+03  0.25421204316E+03  0.00000000000E+00 0.  1.
         21   -1    0    0  502  503 -0.00000000000E+00 -0.00000000000E+00 -0.17719996852E+03  0.17719996852E+03  0.00000000000E+00 0.  1.
          6    1    1    2  501    0 -0.54606339364E+02 -0.95550135890E+00  0.15046145192E+03  0.23569135282E+03  0.17300000000E+03 0.  1.
         -6    1    1    2    0  503  0.54606339364E+02  0.95550135890E+00 -0.73449377281E+02  0.19572065886E+03  0.17300000000E+03 0.  1.
</event>
<event>
 4    1  0.6197496E+000  0.1000000E+03  0.7546771E-02  0.1280296E+00
         21   -1    0    0  501  502  0.00000000000E+00  0.00000000000E+00  0.23854959668E+03  0.23854959668E+03  0.00000000000E+00 0.  1.
         21   -1    0    0  502  503 -0.00000000000E+00 -0.00000000000E+00 -0.90522480754E+03  0.90522480754E+03  0.00000000000E+00 0.  1.
          6    1    1    2  501    0  0.37188004891E+03 -0.11049951738E+03 -0.10143778937E+03  0.43671906213E+03  0.17300000000E+03 0.  1.
         -6    1    1    2    0  503 -0.37188004891E+03  0.11049951738E+03 -0.56523742149E+03  0.70705534208E+03  0.17300000000E+03 0.  1.
</event>
<event>
 4    1  0.6197496E+000  0.1000000E+03  0.7546771E-02  0.1280296E+00
         21   -1    0    0  501  502  0.00000000000E+00  0.00000000000E+00  0.19544372986E+03  0.19544372986E+03  0.00000000000E+00 0.  1.
         21   -1    0    0  502  503 -0.00000000000E+00 -0.00000000000E+00 -0.37575416709E+03  0.37575416709E+03  0.00000000000E+00 0.  1.
          6    1    1    2  501    0 -0.40821194279E+02  0.19421706864E+03 -0.15782717436E+03  0.30696100179E+03  0.17300000000E+03 0.  1.
         -6    1    1    2    0  503  0.40821194279E+02 -0.19421706864E+03 -0.22483262873E+02  0.26423689516E+03  0.17300000000E+03 0.  1.
</event>
<event>
 4    1  0.6197496E+000  0.1000000E+03  0.7546771E-02  0.1280296E+00
         21   -1    0    0  503  502  0.00000000000E+00  0.00000000000E+00  0.35953864562E+03  0.35953864562E+03  0.00000000000E+00 0. -1.
         21   -1    0    0  501  503 -0.00000000000E+00 -0.00000000000E+00 -0.94974836532E+03  0.94974836532E+03  0.00000000000E+00 0.  1.
          6    1    1    2  501    0  0.23768710707E+02  0.20340181752E+03 -0.87679507757E+03  0.91686196291E+03  0.17300000000E+03 0.  1.
         -6    1    1    2    0  502 -0.23768710707E+02 -0.20340181752E+03  0.28658535787E+03  0.39242504804E+03  0.17300000000E+03 0. -1.
</event>
<event>
 4    1  0.6197496E+000  0.1000000E+03  0.7546771E-02  0.1280296E+00
         21   -1    0    0  503  502  0.00000000000E+00  0.00000000000E+00  0.15994392723E+03  0.15994392723E+03  0.00000000000E+00 0. -1.
         21   -1    0    0  501  503 -0.00000000000E+00 -0.00000000000E+00 -0.93413228505E+03  0.93413228505E+03  0.00000000000E+00 0.  1.
          6    1    1    2  501    0 -0.16549500375E+02  0.19429608862E+03 -0.79100752102E+03  0.83285458173E+03  0.17300000000E+03 0.  1.
         -6    1    1    2    0  502  0.16549500375E+02 -0.19429608862E+03  0.16819163194E+02  0.26122163054E+03  0.17300000000E+03 0. -1.
</event>
<event>
 4    1  0.6197496E+000  0.1000000E+03  0.7546771E-02  0.1280296E+00
         21   -1    0    0  503  502  0.00000000000E+00  0.00000000000E+00  0.21700942060E+03  0.21700942060E+03  0.00000000000E+00 0. -1.
         21   -1    0    0  501  503 -0.00000000000E+00 -0.00000000000E+00 -0.45029980971E+03  0.45029980971E+03  0.00000000000E+00 0. -1.
          6    1    1    2  501    0  0.19582056798E+03 -0.10779400345E+03 -0.25914768236E+03  0.38347328890E+03  0.17300000000E+03 0. -1.
         -6    1    1    2    0  502 -0.19582056798E+03  0.10779400345E+03  0.25857293253E+02  0.28383594142E+03  0.17300000000E+03 0. -1.
</event>
<event>
 4    1  0.6197496E+000  0.1000000E+03  0.7546771E-02  0.1280296E+00
         21   -1    0    0  503  502  0.00000000000E+00  0.00000000000E+00  0.12585108998E+04  0.12585108998E+04  0.00000000000E+00 0. -1.
         21   -1    0    0  501  503 -0.00000000000E+00 -0.00000000000E+00 -0.31362942284E+02  0.31362942284E+02  0.00000000000E+00 0. -1.
          6    1    1    2  501    0 -0.35040168365E+02  0.50298949984E+02  0.36669321964E+03  0.41006184302E+03  0.17300000000E+03 0. -1.
         -6    1    1    2    0  502  0.35040168365E+02 -0.50298949984E+02  0.86045473784E+03  0.87981199903E+03  0.17300000000E+03 0. -1.
</event>
<event>
 4    1  0.6197496E+000  0.1000000E+03  0.7546771E-02  0.1280296E+00
         21   -1    0    0  503  502  0.00000000000E+00  0.00000000000E+00  0.19589082464E+03  0.19589082464E+03  0.00000000000E+00 0. -1.
         21   -1    0    0  501  503 -0.00000000000E+00 -0.00000000000E+00 -0.42689787348E+03  0.42689787348E+03  0.00000000000E+00 0. -1.
          6    1    1    2  501    0  0.26391211913E+02  0.18220774844E+02 -0.36262734996E+03  0.40305841716E+03  0.17300000000E+03 0. -1.
         -6    1    1    2    0  502 -0.26391211913E+02 -0.18220774844E+02  0.13162030112E+03  0.21973028096E+03  0.17300000000E+03 0. -1.
</event>
<event>
 4    1  0.6197496E+000  0.1000000E+03  0.7546771E-02  0.1280296E+00
         21   -1    0    0  503  502  0.00000000000E+00  0.00000000000E+00  0.10982410458E+03  0.10982410458E+03  0.00000000000E+00 0. -1.
         21   -1    0    0  501  503 -0.00000000000E+00 -0.00000000000E+00 -0.45428990910E+03  0.45428990910E+03  0.00000000000E+00 0. -1.
          6    1    1    2  501    0 -0.12079575277E+03  0.26828848398E+02 -0.25835643365E+03  0.33464675077E+03  0.17300000000E+03 0. -1.
         -6    1    1    2    0  502  0.12079575277E+03 -0.26828848398E+02 -0.86109370866E+02  0.22946726291E+03  0.17300000000E+03 0. -1.
</event>
<event>
 4    1  0.6197496E+000  0.1000000E+03  0.7546771E-02  0.1280296E+00
         21   -1    0    0  501  502  0.00000000000E+00  0.00000000000E+00  0.75052655733E+03  0.75052655733E+03  0.00000000000E+00 0. -1.
         21   -1    0    0  502  503 -0.00000000000E+00 -0.00000000000E+00 -0.52711525095E+02  0.52711525095E+02  0.00000000000E+00 0. -1.
          6    1    1    2  501    0 -0.75603828061E+02  0.48772783819E+01  0.47488775345E+03  0.51106467794E+03  0.17300000000E+03 0. -1.
         -6    1    1    2    0  503  0.75603828061E+02 -0.48772783819E+01  0.22292727879E+03  0.29217340449E+03  0.17300000000E+03 0. -1.
</event>
<event>
 4    1  0.6197496E+000  0.1000000E+03  0.7546771E-02  0.1280296E+00
         21   -1    0    0  501  502  0.00000000000E+00  0.00000000000E+00  0.15332994405E+03  0.15332994405E+03  0.00000000000E+00 0. -1.
         21   -1    0    0  502  503 -0.00000000000E+00 -0.00000000000E+00 -0.40852769191E+03  0.40852769191E+03  0.00000000000E+00 0. -1.
          6    1    1    2  501    0  0.37953418871E+02 -0.41487562804E+02  0.65350037220E+02  0.19329073241E+03  0.17300000000E+03 0. -1.
         -6    1    1    2    0  503 -0.37953418871E+02  0.41487562804E+02 -0.32054778508E+03  0.36856690355E+03  0.17300000000E+03 0. -1.
</event>
<event>
 4    1  0.6197496E+000  0.1000000E+03  0.7546771E-02  0.1280296E+00
         21   -1    0    0  503  502  0.00000000000E+00  0.00000000000E+00  0.41503931973E+03  0.41503931973E+03  0.00000000000E+00 0. -1.
         21   -1    0    0  501  503 -0.00000000000E+00 -0.00000000000E+00 -0.23236762905E+03  0.23236762905E+03  0.00000000000E+00 0. -1.
          6    1    1    2  501    0 -0.23404318685E+01 -0.19162775651E+03  0.27123172770E+03  0.37446271483E+03  0.17300000000E+03 0. -1.
         -6    1    1    2    0  502  0.23404318685E+01  0.19162775651E+03 -0.88560037022E+02  0.27294423395E+03  0.17300000000E+03 0. -1.
</event>
<event>
 4    1  0.6197496E+000  0.1000000E+03  0.7546771E-02  0.1280296E+00
         21   -1    0    0  503  502  0.00000000000E+00  0.00000000000E+00  0.69421258435E+03  0.69421258435E+03  0.00000000000E+00 0. -1.
         21   -1    0    0  501  503 -0.00000000000E+00 -0.00000000000E+00 -0.54464409445E+02  0.54464409445E+02  0.00000000000E+00 0. -1.
          6    1    1    2  501    0  0.24002450500E+02 -0.22871663550E+02  0.47841066104E+03  0.50980877907E+03  0.17300000000E+03 0. -1.
         -6    1    1    2    0  502 -0.24002450500E+02  0.22871663550E+02  0.16133751386E+03  0.23886821472E+03  0.17300000000E+03 0. -1.
</event>
<event>
 4    1  0.6197496E+000  0.1000000E+03  0.7546771E-02  0.1280296E+00
         21   -1    0    0  503  502  0.00000000000E+00  0.00000000000E+00  0.25240105926E+03  0.25240105926E+03  0.00000000000E+00 0. -1.
         21   -1    0    0  501  503 -0.00000000000E+00 -0.00000000000E+00 -0.16859151430E+03  0.16859151430E+03  0.00000000000E+00 0. -1.
          6    1    1    2  501    0 -0.71075172544E+02  0.86997636480E+02  0.43788524019E+02  0.21087129663E+03  0.17300000000E+03 0. -1.
         -6    1    1    2    0  502  0.71075172544E+02 -0.86997636480E+02  0.40021020937E+02  0.21012127694E+03  0.17300000000E+03 0. -1.
</event>
<event>
 4    1  0.6197496E+000  0.1000000E+03  0.7546771E-02  0.1280296E+00
         21   -1    0    0  503  502  0.00000000000E+00  0.00000000000E+00  0.81689516742E+03  0.81689516742E+03  0.00000000000E+00 0. -1.
         21   -1    0    0  501  503 -0.00000000000E+00 -0.00000000000E+00 -0.21826970273E+03  0.21826970273E+03  0.00000000000E+00 0. -1.
          6    1    1    2  501    0 -0.12675658053E+03 -0.11452293807E+03 -0.12386489731E+03  0.27286305509E+03  0.17300000000E+03 0. -1.
         -6    1    1    2    0  502  0.12675658053E+03  0.11452293807E+03  0.72249036200E+03  0.76230181506E+03  0.17300000000E+03 0. -1.
</event>
<event>
 4    1  0.6197496E+000  0.1000000E+03  0.7546771E-02  0.1280296E+00
         21   -1    0    0  501  502  0.00000000000E+00  0.00000000000E+00  0.27325889891E+03  0.27325889891E+03  0.00000000000E+00 0. -1.
         21   -1    0    0  502  503 -0.00000000000E+00 -0.00000000000E+00 -0.60749905289E+03  0.60749905289E+03  0.00000000000E+00 0. -1.
          6    1    1    2  501    0  0.74138353743E+02 -0.46203460779E+02  0.22024813580E+03  0.29337603278E+03  0.17300000000E+03 0. -1.
         -6    1    1    2    0  503 -0.74138353743E+02  0.46203460779E+02 -0.55448828979E+03  0.58738191902E+03  0.17300000000E+03 0. -1.
</event>
<event>
 4    1  0.6197496E+000  0.1000000E+03  0.7546771E-02  0.1280296E+00
         21   -1    0    0  501  502  0.00000000000E+00  0.00000000000E+00  0.17846296465E+03  0.17846296465E+03  0.00000000000E+00 0. -1.
         21   -1    0    0  502  503 -0.00000000000E+00 -0.00000000000E+00 -0.29195875734E+03  0.29195875734E+03  0.00000000000E+00 0. -1.
          6    1    1    2  501    0 -0.54671008544E+02 -0.97854191028E+02  0.44269165804E+02  0.21083908774E+03  0.17300000000E+03 0. -1.
         -6    1    1    2    0  503  0.54671008544E+02  0.97854191028E+02 -0.15776495850E+03  0.25958263426E+03  0.17300000000E+03 0. -1.
</event>
<event>
 4    1  0.6197496E+000  0.1000000E+03  0.7546771E-02  0.1280296E+00
         21   -1    0    0  501  502  0.00000000000E+00  0.00000000000E+00  0.21350421457E+03  0.21350421457E+03  0.00000000000E+00 0. -1.
         21   -1    0    0  502  503 -0.00000000000E+00 -0.00000000000E+00 -0.16183609186E+03  0.16183609186E+03  0.00000000000E+00 0.  1.
          6    1    1    2  501    0 -0.76837513358E+01  0.43584263904E+02  0.77954462914E+02  0.19484487774E+03  0.17300000000E+03 0.  1.
         -6    1    1    2    0  503  0.76837513358E+01 -0.43584263904E+02 -0.26286340208E+02  0.18049542868E+03  0.17300000000E+03 0.  1.
</event>
<event>
 4    1  0.6197496E+000  0.1000000E+03  0.7546771E-02  0.1280296E+00
         21   -1    0    0  503  502  0.00000000000E+00  0.00000000000E+00  0.51538768168E+03  0.51538768168E+03  0.00000000000E+00 0.  1.
         21   -1    0    0  501  503 -0.00000000000E+00 -0.00000000000E+00 -0.11728601517E+03  0.11728601517E+03  0.00000000000E+00 0.  1.
          6    1    1    2  501    0 -0.13892020347E+03  0.95418784403E+02  0.13987622651E+03  0.27910199944E+03  0.17300000000E+03 0. -1.
         -6    1    1    2    0  502  0.13892020347E+03 -0.95418784403E+02  0.25822544000E+03  0.35357169741E+03  0.17300000000E+03 0. -1.
</event>
<event>
 4    1  0.6197496E+000  0.1000000E+03  0.7546771E-02  0.1280296E+00
         21   -1    0    0  503  502  0.00000000000E+00  0.00000000000E+00  0.15918746624E+04  0.15918746624E+04  0.00000000000E+00 0.  1.
         21   -1    0    0  501  503 -0.00000000000E+00 -0.00000000000E+00 -0.19804887482E+03  0.19804887482E+03  0.00000000000E+00 0.  1.
          6    1    1    2  501    0  0.38432166310E+03  0.27139572418E+02  0.10716548631E+03  0.43572140018E+03  0.17300000000E+03 0. -1.
         -6    1    1    2    0  502 -0.38432166310E+03 -0.27139572418E+02  0.12866603013E+04  0.13542021371E+04  0.17300000000E+03 0. -1.
</event>
<event>
 4    1  0.6197496E+000  0.1000000E+03  0.7546771E-02  0.1280296E+00
         21   -1    0    0  503  502  0.00000000000E+00  0.00000000000E+00  0.23619848954E+03  0.23619848954E+03  0.00000000000E+00 0.  1.
         21   -1    0    0  501  503 -0.00000000000E+00 -0.00000000000E+00 -0.22782531374E+03  0.22782531374E+03  0.00000000000E+00 0.  1.
          6    1    1    2  501    0 -0.14222184525E+03 -0.46054193302E+02 -0.34998268325E+02  0.23130482220E+03  0.17300000000E+03 0. -1.
         -6    1    1    2    0  502  0.14222184525E+03  0.46054193302E+02  0.43371444132E+02  0.23271898108E+03  0.17300000000E+03 0. -1.
</event>
<event>
 4    1  0.6197496E+000  0.1000000E+03  0.7546771E-02  0.1280296E+00
         21   -1    0    0  501  502  0.00000000000E+00  0.00000000000E+00  0.47253910945E+03  0.47253910945E+03  0.00000000000E+00 0. -1.
         21   -1    0    0  502  503 -0.00000000000E+00 -0.00000000000E+00 -0.23813389393E+03  0.23813389393E+03  0.00000000000E+00 0. -1.
          6    1    1    2  501    0  0.38168745657E+02 -0.73978623982E+02  0.40858882995E+03  0.45144603433E+03  0.17300000000E+03 0. -1.
         -6    1    1    2    0  503 -0.38168745657E+02  0.73978623982E+02 -0.17418361442E+03  0.25922696905E+03  0.17300000000E+03 0. -1.
</event>
<event>
 4    1  0.6197496E+000  0.1000000E+03  0.7546771E-02  0.1280296E+00
         21   -1    0    0  501  502  0.00000000000E+00  0.00000000000E+00  0.25100846605E+03  0.25100846605E+03  0.00000000000E+00 0. -1.
         21   -1    0    0  502  503 -0.00000000000E+00 -0.00000000000E+00 -0.22640823137E+03  0.22640823137E+03  0.00000000000E+00 0. -1.
          6    1    1    2  501    0 -0.12875092294E+03 -0.47044906256E+02 -0.77882771382E+02  0.23406142237E+03  0.17300000000E+03 0. -1.
         -6    1    1    2    0  503  0.12875092294E+03  0.47044906256E+02  0.10248300606E+03  0.24335527505E+03  0.17300000000E+03 0. -1.
</event>
<event>
 4    1  0.6197496E+000  0.1000000E+03  0.7546771E-02  0.1280296E+00
         21   -1    0    0  501  502  0.00000000000E+00  0.00000000000E+00  0.55763093338E+03  0.55763093338E+03  0.00000000000E+00 0. -1.
         21   -1    0    0  502  503 -0.00000000000E+00 -0.00000000000E+00 -0.94325074005E+03  0.94325074005E+03  0.00000000000E+00 0. -1.
          6    1    1    2  501    0 -0.84885724853E+02 -0.76333718022E+02  0.52633097042E+03  0.56567279696E+03  0.17300000000E+03 0. -1.
         -6    1    1    2    0  503  0.84885724853E+02  0.76333718022E+02 -0.91195077709E+03  0.93520887647E+03  0.17300000000E+03 0. -1.
</event>
<event>
 4    1  0.6197496E+000  0.1000000E+03  0.7546771E-02  0.1280296E+00
         21   -1    0    0  503  502  0.00000000000E+00  0.00000000000E+00  0.13670470947E+03  0.13670470947E+03  0.00000000000E+00 0.  1.
         21   -1    0    0  501  503 -0.00000000000E+00 -0.00000000000E+00 -0.75140851668E+03  0.75140851668E+03  0.00000000000E+00 0.  1.
          6    1    1    2  501    0 -0.11066391006E+03 -0.17610637954E+03 -0.54544998554E+03  0.60885519184E+03  0.17300000000E+03 0.  1.
         -6    1    1    2    0  502  0.11066391006E+03  0.17610637954E+03 -0.69253821673E+02  0.27925803430E+03  0.17300000000E+03 0.  1.
</event>
<event>
 4    1  0.6197496E+000  0.1000000E+03  0.7546771E-02  0.1280296E+00
         21   -1    0    0  501  502  0.00000000000E+00  0.00000000000E+00  0.75687639642E+02  0.75687639642E+02  0.00000000000E+00 0.  1.
         21   -1    0    0  502  503 -0.00000000000E+00 -0.00000000000E+00 -0.53915963092E+03  0.53915963092E+03  0.00000000000E+00 0.  1.
          6    1    1    2  501    0  0.55837115416E+02  0.70726306199E+02 -0.15180405193E+03  0.24717092068E+03  0.17300000000E+03 0.  1.
         -6    1    1    2    0  503 -0.55837115416E+02 -0.70726306199E+02 -0.31166793934E+03  0.36767634988E+03  0.17300000000E+03 0.  1.
</event>
<event>
 4    1  0.6197496E+000  0.1000000E+03  0.7546771E-02  0.1280296E+00
         21   -1    0    0  501  502  0.00000000000E+00  0.00000000000E+00  0.13288128555E+04  0.13288128555E+04  0.00000000000E+00 0.  1.
         21   -1    0    0  502  503 -0.00000000000E+00 -0.00000000000E+00 -0.18949855466E+03  0.18949855466E+03  0.00000000000E+00 0.  1.
          6    1    1    2  501    0 -0.11699370953E+03  0.94486822617E+02  0.12449781165E+04  0.12659047351E+04  0.17300000000E+03 0.  1.
         -6    1    1    2    0  503  0.11699370953E+03 -0.94486822617E+02 -0.10566381562E+03  0.25240667513E+03  0.17300000000E+03 0.  1.
</event>
<event>
 4    1  0.6197496E+000  0.1000000E+03  0.7546771E-02  0.1280296E+00
         21   -1    0    0  501  502  0.00000000000E+00  0.00000000000E+00  0.96091932100E+03  0.96091932100E+03  0.00000000000E+00 0.  1.
         21   -1    0    0  502  503 -0.00000000000E+00 -0.00000000000E+00 -0.60999827265E+02  0.60999827265E+02  0.00000000000E+00 0.  1.
          6    1    1    2  501    0  0.22958074982E+02 -0.94159285497E+01  0.80355718330E+03  0.82234352904E+03  0.17300000000E+03 0.  1.
         -6    1    1    2    0  503 -0.22958074982E+02  0.94159285497E+01  0.96362310434E+02  0.19957561923E+03  0.17300000000E+03 0.  1.
</event>
<event>
 4    1  0.6197496E+000  0.1000000E+03  0.7546771E-02  0.1280296E+00
         21   -1    0    0  503  502  0.00000000000E+00  0.00000000000E+00  0.18172917969E+02  0.18172917969E+02  0.00000000000E+00 0. -1.
         21   -1    0    0  501  503 -0.00000000000E+00 -0.00000000000E+00 -0.20384336379E+04  0.20384336379E+04  0.00000000000E+00 0.  1.
          6    1    1    2  501    0  0.40238429851E+02  0.72709643814E+02 -0.10874544884E+04  0.11042608785E+04  0.17300000000E+03 0.  1.
         -6    1    1    2    0  502 -0.40238429851E+02 -0.72709643814E+02 -0.93280623159E+03  0.95234567738E+03  0.17300000000E+03 0. -1.
</event>
<event>
 4    1  0.6197496E+000  0.1000000E+03  0.7546771E-02  0.1280296E+00
         21   -1    0    0  503  502  0.00000000000E+00  0.00000000000E+00  0.45431782266E+03  0.45431782266E+03  0.00000000000E+00 0. -1.
         21   -1    0    0  501  503 -0.00000000000E+00 -0.00000000000E+00 -0.11897122444E+03  0.11897122444E+03  0.00000000000E+00 0.  1.
          6    1    1    2  501    0 -0.26761160243E+02  0.69014050512E+02 -0.67029881019E+00  0.18817159235E+03  0.17300000000E+03 0.  1.
         -6    1    1    2    0  502  0.26761160243E+02 -0.69014050512E+02  0.33601689703E+03  0.38511745475E+03  0.17300000000E+03 0. -1.
</event>
<event>
 4    1  0.6197496E+000  0.1000000E+03  0.7546771E-02  0.1280296E+00
         21   -1    0    0  501  502  0.00000000000E+00  0.00000000000E+00  0.94715087464E+02  0.94715087464E+02  0.00000000000E+00 0. -1.
         21   -1    0    0  502  503 -0.00000000000E+00 -0.00000000000E+00 -0.81860104995E+03  0.81860104995E+03  0.00000000000E+00 0. -1.
          6    1    1    2  501    0  0.77803058148E+02 -0.11135641814E+03 -0.81932437206E+02  0.23472428929E+03  0.17300000000E+03 0. -1.
         -6    1    1    2    0  503 -0.77803058148E+02  0.11135641814E+03 -0.64195352528E+03  0.67859184812E+03  0.17300000000E+03 0. -1.
</event>
<event>
 4    1  0.6197496E+000  0.1000000E+03  0.7546771E-02  0.1280296E+00
         21   -1    0    0  501  502  0.00000000000E+00  0.00000000000E+00  0.15334810482E+03  0.15334810482E+03  0.00000000000E+00 0. -1.
         21   -1    0    0  502  503 -0.00000000000E+00 -0.00000000000E+00 -0.41434876289E+03  0.41434876289E+03  0.00000000000E+00 0. -1.
          6    1    1    2  501    0  0.29429981491E+02  0.35527481010E+01  0.73227125958E+02  0.19018401038E+03  0.17300000000E+03 0. -1.
         -6    1    1    2    0  503 -0.29429981491E+02 -0.35527481010E+01 -0.33422778402E+03  0.37751285732E+03  0.17300000000E+03 0. -1.
</event>
<event>
 4    1  0.6197496E+000  0.1000000E+03  0.7546771E-02  0.1280296E+00
         21   -1    0    0  501  502  0.00000000000E+00  0.00000000000E+00  0.11921855210E+03  0.11921855210E+03  0.00000000000E+00 0. -1.
         21   -1    0    0  502  503 -0.00000000000E+00 -0.00000000000E+00 -0.63434855294E+03  0.63434855294E+03  0.00000000000E+00 0. -1.
          6    1    1    2  501    0  0.19013223932E+03 -0.15305832725E+02 -0.12534686609E+03  0.28640072239E+03  0.17300000000E+03 0. -1.
         -6    1    1    2    0  503 -0.19013223932E+03  0.15305832725E+02 -0.38978313475E+03  0.46716638265E+03  0.17300000000E+03 0. -1.
</event>
<event>
 4    1  0.6197496E+000  0.1000000E+03  0.7546771E-02  0.1280296E+00
         21   -1    0    0  501  502  0.00000000000E+00  0.00000000000E+00  0.17132181961E+03  0.17132181961E+03  0.00000000000E+00 0. -1.
         21   -1    0    0  502  503 -0.00000000000E+00 -0.00000000000E+00 -0.74665080277E+03  0.74665080277E+03  0.00000000000E+00 0. -1.
          6    1    1    2  501    0  0.10472421019E+03  0.12179130811E+03  0.57136103558E+02  0.24288642873E+03  0.17300000000E+03 0. -1.
         -6    1    1    2    0  503 -0.10472421019E+03 -0.12179130811E+03 -0.63246508672E+03  0.67508619365E+03  0.17300000000E+03 0. -1.
</event>
<event>
 4    1  0.6197496E+000  0.1000000E+03  0.7546771E-02  0.1280296E+00
         21   -1    0    0  501  502  0.00000000000E+00  0.00000000000E+00  0.27911608134E+03  0.27911608134E+03  0.00000000000E+00 0.  1.
         21   -1    0    0  502  503 -0.00000000000E+00 -0.00000000000E+00 -0.15934348727E+04  0.15934348727E+04  0.00000000000E+00 0.  1.
          6    1    1    2  501    0 -0.41162192762E+03 -0.43331910893E+03 -0.32014054970E+03  0.69972639869E+03  0.17300000000E+03 0.  1.
         -6    1    1    2    0  503  0.41162192762E+03  0.43331910893E+03 -0.99417824167E+03  0.11728245554E+04  0.17300000000E+03 0.  1.
</event>
<event>
 4    1  0.6197496E+000  0.1000000E+03  0.7546771E-02  0.1280296E+00
         21   -1    0    0  503  502  0.00000000000E+00  0.00000000000E+00  0.31074153374E+02  0.31074153374E+02  0.00000000000E+00 0.  1.
         21   -1    0    0  501  503 -0.00000000000E+00 -0.00000000000E+00 -0.16517921594E+04  0.16517921594E+04  0.00000000000E+00 0. -1.
          6    1    1    2  501    0 -0.75731208821E+02 -0.47729216365E+00 -0.12751824728E+04  0.12890906805E+04  0.17300000000E+03 0. -1.
         -6    1    1    2    0  502  0.75731208821E+02  0.47729216365E+00 -0.34553553325E+03  0.39377563223E+03  0.17300000000E+03 0.  1.
</event>
<event>
 4    1  0.6197496E+000  0.1000000E+03  0.7546771E-02  0.1280296E+00
         21   -1    0    0  503  502  0.00000000000E+00  0.00000000000E+00  0.70337361544E+03  0.70337361544E+03  0.00000000000E+00 0.  1.
         21   -1    0    0  501  503 -0.00000000000E+00 -0.00000000000E+00 -0.58087168178E+02  0.58087168178E+02  0.00000000000E+00 0. -1.
          6    1    1    2  501    0 -0.38642769245E+02 -0.39644313636E+02  0.15561886123E+03  0.23918855572E+03  0.17300000000E+03 0. -1.
         -6    1    1    2    0  502  0.38642769245E+02  0.39644313636E+02  0.48966758603E+03  0.52227222790E+03  0.17300000000E+03 0.  1.
</event>
<event>
 4    1  0.6197496E+000  0.1000000E+03  0.7546771E-02  0.1280296E+00
         21   -1    0    0  503  502  0.00000000000E+00  0.00000000000E+00  0.10263338943E+03  0.10263338943E+03  0.00000000000E+00 0.  1.
         21   -1    0    0  501  503 -0.00000000000E+00 -0.00000000000E+00 -0.53471990136E+03  0.53471990136E+03  0.00000000000E+00 0. -1.
          6    1    1    2  501    0 -0.28127232307E+01 -0.24552200975E+02 -0.42827313570E+03  0.46255551099E+03  0.17300000000E+03 0. -1.
         -6    1    1    2    0  502  0.28127232307E+01  0.24552200975E+02 -0.38133762320E+01  0.17479777980E+03  0.17300000000E+03 0.  1.
</event>
<event>
 4    1  0.6197496E+000  0.1000000E+03  0.7546771E-02  0.1280296E+00
         21   -1    0    0  501  502  0.00000000000E+00  0.00000000000E+00  0.20464187639E+03  0.20464187639E+03  0.00000000000E+00 0. -1.
         21   -1    0    0  502  503 -0.00000000000E+00 -0.00000000000E+00 -0.29100777471E+03  0.29100777471E+03  0.00000000000E+00 0. -1.
          6    1    1    2  501    0 -0.11649763875E+03  0.12295601151E+03 -0.12155105396E+02  0.24241828971E+03  0.17300000000E+03 0.  1.
         -6    1    1    2    0  503  0.11649763875E+03 -0.12295601151E+03 -0.74210792919E+02  0.25323136138E+03  0.17300000000E+03 0.  1.
</event>
<event>
 4    1  0.6197496E+000  0.1000000E+03  0.7546771E-02  0.1280296E+00
         21   -1    0    0  501  502  0.00000000000E+00  0.00000000000E+00  0.13069143291E+03  0.13069143291E+03  0.00000000000E+00 0. -1.
         21   -1    0    0  502  503 -0.00000000000E+00 -0.00000000000E+00 -0.27191476502E+03  0.27191476502E+03  0.00000000000E+00 0. -1.
          6    1    1    2  501    0 -0.62135239991E+02  0.40481387100E+02 -0.59493729654E+02  0.19740322849E+03  0.17300000000E+03 0.  1.
         -6    1    1    2    0  503  0.62135239991E+02 -0.40481387100E+02 -0.81729602448E+02  0.20520296944E+03  0.17300000000E+03 0.  1.
</event>
<event>
 4    1  0.6197496E+000  0.1000000E+03  0.7546771E-02  0.1280296E+00
         21   -1    0    0  501  502  0.00000000000E+00  0.00000000000E+00  0.22286900877E+03  0.22286900877E+03  0.00000000000E+00 0. -1.
         21   -1    0    0  502  503 -0.00000000000E+00 -0.00000000000E+00 -0.19087509778E+03  0.19087509778E+03  0.00000000000E+00 0. -1.
          6    1    1    2  501    0 -0.48583376627E+02 -0.34393901043E+02  0.11150824872E+03  0.21425772902E+03  0.17300000000E+03 0. -1.
         -6    1    1    2    0  503  0.48583376627E+02  0.34393901043E+02 -0.79514337735E+02  0.19948637753E+03  0.17300000000E+03 0. -1.
</event>
<event>
 4    1  0.6197496E+000  0.1000000E+03  0.7546771E-02  0.1280296E+00
         21   -1    0    0  501  502  0.00000000000E+00  0.00000000000E+00  0.10804735746E+04  0.10804735746E+04  0.00000000000E+00 0.  1.
         21   -1    0    0  502  503 -0.00000000000E+00 -0.00000000000E+00 -0.10115500278E+03  0.10115500278E+03  0.00000000000E+00 0.  1.
          6    1    1    2  501    0 -0.93695371957E+01  0.14071439668E+02  0.99221587699E+03  0.10073267296E+04  0.17300000000E+03 0.  1.
         -6    1    1    2    0  503  0.93695371957E+01 -0.14071439668E+02 -0.12897305208E+02  0.17430184773E+03  0.17300000000E+03 0.  1.
</event>
<event>
 4    1  0.6197496E+000  0.1000000E+03  0.7546771E-02  0.1280296E+00
         21   -1    0    0  501  502  0.00000000000E+00  0.00000000000E+00  0.10064302654E+03  0.10064302654E+03  0.00000000000E+00 0.  1.
         21   -1    0    0  502  503 -0.00000000000E+00 -0.00000000000E+00 -0.46937816614E+03  0.46937816614E+03  0.00000000000E+00 0.  1.
          6    1    1    2  501    0  0.35366321032E+01  0.92103701725E+02 -0.61250051046E+02  0.20536837242E+03  0.17300000000E+03 0.  1.
         -6    1    1    2    0  503 -0.35366321032E+01 -0.92103701725E+02 -0.30748508855E+03  0.36465282025E+03  0.17300000000E+03 0.  1.
</event>
<event>
 4    1  0.6197496E+000  0.1000000E+03  0.7546771E-02  0.1280296E+00
         21   -1    0    0  501  502  0.00000000000E+00  0.00000000000E+00  0.89525998757E+03  0.89525998757E+03  0.00000000000E+00 0.  1.
         21   -1    0    0  502  503 -0.00000000000E+00 -0.00000000000E+00 -0.50756292666E+02  0.50756292666E+02  0.00000000000E+00 0.  1.
          6    1    1    2  501    0  0.69852451656E+02  0.97831592047E+02  0.34998421331E+03  0.40849520801E+03  0.17300000000E+03 0.  1.
         -6    1    1    2    0  503 -0.69852451656E+02 -0.97831592047E+02  0.49451948160E+03  0.53752107222E+03  0.17300000000E+03 0.  1.
</event>
<event>
 4    1  0.6197496E+000  0.1000000E+03  0.7546771E-02  0.1280296E+00
         21   -1    0    0  501  502  0.00000000000E+00  0.00000000000E+00  0.46081108047E+02  0.46081108047E+02  0.00000000000E+00 0.  1.
         21   -1    0    0  502  503 -0.00000000000E+00 -0.00000000000E+00 -0.11487380154E+04  0.11487380154E+04  0.00000000000E+00 0.  1.
          6    1    1    2  501    0  0.12000006706E+02 -0.14609933813E+03 -0.65246494202E+03  0.69074490033E+03  0.17300000000E+03 0.  1.
         -6    1    1    2    0  503 -0.12000006706E+02  0.14609933813E+03 -0.45019196533E+03  0.50407422312E+03  0.17300000000E+03 0.  1.
</event>
<event>
 4    1  0.6197496E+000  0.1000000E+03  0.7546771E-02  0.1280296E+00
         21   -1    0    0  501  502  0.00000000000E+00  0.00000000000E+00  0.13427210849E+04  0.13427210849E+04  0.00000000000E+00 0.  1.
         21   -1    0    0  502  503 -0.00000000000E+00 -0.00000000000E+00 -0.29250836242E+02  0.29250836242E+02  0.00000000000E+00 0.  1.
          6    1    1    2  501    0  0.23308209588E+02  0.62975231768E+01  0.98077539862E+03  0.99620897104E+03  0.17300000000E+03 0.  1.
         -6    1    1    2    0  503 -0.23308209588E+02 -0.62975231768E+01  0.33269485005E+03  0.37576295012E+03  0.17300000000E+03 0.  1.
</event>
<event>
 4    1  0.6197496E+000  0.1000000E+03  0.7546771E-02  0.1280296E+00
         21   -1    0    0  501  502  0.00000000000E+00  0.00000000000E+00  0.28467231493E+03  0.28467231493E+03  0.00000000000E+00 0. -1.
         21   -1    0    0  502  503 -0.00000000000E+00 -0.00000000000E+00 -0.21464878336E+03  0.21464878336E+03  0.00000000000E+00 0. -1.
          6    1    1    2  501    0 -0.15179571619E+03 -0.70956471588E+02  0.91234280307E+02  0.25754505279E+03  0.17300000000E+03 0. -1.
         -6    1    1    2    0  503  0.15179571619E+03  0.70956471588E+02 -0.21210748743E+02  0.24177604550E+03  0.17300000000E+03 0. -1.
</event>
<event>
 4    1  0.6197496E+000  0.1000000E+03  0.7546771E-02  0.1280296E+00
         21   -1    0    0  501  502  0.00000000000E+00  0.00000000000E+00  0.62986376970E+02  0.62986376970E+02  0.00000000000E+00 0. -1.
         21   -1    0    0  502  503 -0.00000000000E+00 -0.00000000000E+00 -0.60376056350E+03  0.60376056350E+03  0.00000000000E+00 0. -1.
          6    1    1    2  501    0  0.29911744173E+02 -0.49805189541E+02 -0.15288390485E+03  0.23807090899E+03  0.17300000000E+03 0. -1.
         -6    1    1    2    0  503 -0.29911744173E+02  0.49805189541E+02 -0.38789028167E+03  0.42867603147E+03  0.17300000000E+03 0. -1.
</event>
<event>
 4    1  0.6197496E+000  0.1000000E+03  0.7546771E-02  0.1280296E+00
         21   -1    0    0  501  502  0.00000000000E+00  0.00000000000E+00  0.10242724024E+03  0.10242724024E+03  0.00000000000E+00 0. -1.
         21   -1    0    0  502  503 -0.00000000000E+00 -0.00000000000E+00 -0.30771761633E+03  0.30771761633E+03  0.00000000000E+00 0. -1.
          6    1    1    2  501    0 -0.84718104406E+01 -0.27130216322E+02 -0.70346567874E+02  0.18890595497E+03  0.17300000000E+03 0. -1.
         -6    1    1    2    0  503  0.84718104406E+01  0.27130216322E+02 -0.13494380822E+03  0.22123890161E+03  0.17300000000E+03 0. -1.
</event>
<event>
 4    1  0.6197496E+000  0.1000000E+03  0.7546771E-02  0.1280296E+00
         21   -1    0    0  501  502  0.00000000000E+00  0.00000000000E+00  0.31198808981E+03  0.31198808981E+03  0.00000000000E+00 0. -1.
         21   -1    0    0  502  503 -0.00000000000E+00 -0.00000000000E+00 -0.12858831344E+03  0.12858831344E+03  0.00000000000E+00 0. -1.
          6    1    1    2  501    0 -0.21024381230E+02 -0.59252475396E+02  0.17855181786E+03  0.25644225882E+03  0.17300000000E+03 0. -1.
         -6    1    1    2    0  503  0.21024381230E+02  0.59252475396E+02  0.48479585122E+01  0.18413414444E+03  0.17300000000E+03 0. -1.
</event>
<event>
 4    1  0.6197496E+000  0.1000000E+03  0.7546771E-02  0.1280296E+00
         21   -1    0    0  501  502  0.00000000000E+00  0.00000000000E+00  0.15158675302E+03  0.15158675302E+03  0.00000000000E+00 0. -1.
         21   -1    0    0  502  503 -0.00000000000E+00 -0.00000000000E+00 -0.33123724104E+03  0.33123724104E+03  0.00000000000E+00 0.  1.
          6    1    1    2  501    0  0.11865351950E+03 -0.22933685853E+01 -0.17464432462E+03  0.27297171530E+03  0.17300000000E+03 0. -1.
         -6    1    1    2    0  503 -0.11865351950E+03  0.22933685853E+01 -0.50061634007E+01  0.20985227876E+03  0.17300000000E+03 0.  1.
</event>
<event>
 4    1  0.6197496E+000  0.1000000E+03  0.7546771E-02  0.1280296E+00
         21   -1    0    0  503  502  0.00000000000E+00  0.00000000000E+00  0.14973683954E+03  0.14973683954E+03  0.00000000000E+00 0.  1.
         21   -1    0    0  501  503 -0.00000000000E+00 -0.00000000000E+00 -0.24675553008E+03  0.24675553008E+03  0.00000000000E+00 0. -1.
          6    1    1    2  501    0 -0.46508398931E+02  0.56231852916E+02 -0.60564378218E+01  0.18785827874E+03  0.17300000000E+03 0. -1.
         -6    1    1    2    0  502  0.46508398931E+02 -0.56231852916E+02 -0.90962252717E+02  0.20863409087E+03  0.17300000000E+03 0.  1.
</event>
<event>
 4    1  0.6197496E+000  0.1000000E+03  0.7546771E-02  0.1280296E+00
         21   -1    0    0  503  502  0.00000000000E+00  0.00000000000E+00  0.27832889931E+03  0.27832889931E+03  0.00000000000E+00 0.  1.
         21   -1    0    0  501  503 -0.00000000000E+00 -0.00000000000E+00 -0.51311468551E+03  0.51311468551E+03  0.00000000000E+00 0. -1.
          6    1    1    2  501    0 -0.11167489282E+03 -0.10728277767E+03 -0.42961677896E+03  0.48834460459E+03  0.17300000000E+03 0. -1.
         -6    1    1    2    0  502  0.11167489282E+03  0.10728277767E+03  0.19483099277E+03  0.30309898022E+03  0.17300000000E+03 0.  1.
</event>
<event>
 4    1  0.6197496E+000  0.1000000E+03  0.7546771E-02  0.1280296E+00
         21   -1    0    0  503  502  0.00000000000E+00  0.00000000000E+00  0.73492059704E+03  0.73492059704E+03  0.00000000000E+00 0.  1.
         21   -1    0    0  501  503 -0.00000000000E+00 -0.00000000000E+00 -0.10943141009E+03  0.10943141009E+03  0.00000000000E+00 0. -1.
          6    1    1    2  501    0  0.60931348487E+02 -0.18913895240E+02 -0.80106526902E+01  0.18456309278E+03  0.17300000000E+03 0. -1.
         -6    1    1    2    0  502 -0.60931348487E+02  0.18913895240E+02  0.63349983965E+03  0.65978891435E+03  0.17300000000E+03 0.  1.
</event>
<event>
 4    1  0.6197496E+000  0.1000000E+03  0.7546771E-02  0.1280296E+00
         21   -1    0    0  503  502  0.00000000000E+00  0.00000000000E+00  0.15843131903E+03  0.15843131903E+03  0.00000000000E+00 0.  1.
         21   -1    0    0  501  503 -0.00000000000E+00 -0.00000000000E+00 -0.49726304010E+03  0.49726304010E+03  0.00000000000E+00 0. -1.
          6    1    1    2  501    0  0.16646737031E+03 -0.11785157513E+03 -0.26888915648E+03  0.37925025723E+03  0.17300000000E+03 0. -1.
         -6    1    1    2    0  502 -0.16646737031E+03  0.11785157513E+03 -0.69942564587E+02  0.27644410190E+03  0.17300000000E+03 0.  1.
</event>
<event>
 4    1  0.6197496E+000  0.1000000E+03  0.7546771E-02  0.1280296E+00
         21   -1    0    0  501  502  0.00000000000E+00  0.00000000000E+00  0.39108871546E+02  0.39108871546E+02  0.00000000000E+00 0.  1.
         21   -1    0    0  502  503 -0.00000000000E+00 -0.00000000000E+00 -0.12977942246E+04  0.12977942246E+04  0.00000000000E+00 0. -1.
          6    1    1    2  501    0  0.12293525813E+03  0.38442014573E+02 -0.43624517132E+03  0.48665153414E+03  0.17300000000E+03 0.  1.
         -6    1    1    2    0  503 -0.12293525813E+03 -0.38442014573E+02 -0.82244018176E+03  0.85025156204E+03  0.17300000000E+03 0. -1.
</event>
<event>
 4    1  0.6197496E+000  0.1000000E+03  0.7546771E-02  0.1280296E+00
         21   -1    0    0  501  502  0.00000000000E+00  0.00000000000E+00  0.82210811140E+03  0.82210811140E+03  0.00000000000E+00 0.  1.
         21   -1    0    0  502  503 -0.00000000000E+00 -0.00000000000E+00 -0.62752006897E+02  0.62752006897E+02  0.00000000000E+00 0. -1.
          6    1    1    2  501    0 -0.11556495375E+03 -0.13968518123E+02  0.55509230736E+03  0.59296445739E+03  0.17300000000E+03 0.  1.
         -6    1    1    2    0  503  0.11556495375E+03  0.13968518123E+02  0.20426379714E+03  0.29189566091E+03  0.17300000000E+03 0. -1.
</event>
<event>
 4    1  0.6197496E+000  0.1000000E+03  0.7546771E-02  0.1280296E+00
         21   -1    0    0  501  502  0.00000000000E+00  0.00000000000E+00  0.45507158376E+02  0.45507158376E+02  0.00000000000E+00 0.  1.
         21   -1    0    0  502  503 -0.00000000000E+00 -0.00000000000E+00 -0.68908734627E+03  0.68908734627E+03  0.00000000000E+00 0. -1.
          6    1    1    2  501    0  0.13422372025E+02 -0.34795540548E+02 -0.33466276103E+03  0.37857502999E+03  0.17300000000E+03 0.  1.
         -6    1    1    2    0  503 -0.13422372025E+02  0.34795540548E+02 -0.30891742687E+03  0.35601947466E+03  0.17300000000E+03 0. -1.
</event>
<event>
 4    1  0.6197496E+000  0.1000000E+03  0.7546771E-02  0.1280296E+00
         21   -1    0    0  501  502  0.00000000000E+00  0.00000000000E+00  0.13144813309E+03  0.13144813309E+03  0.00000000000E+00 0. -1.
         21   -1    0    0  502  503 -0.00000000000E+00 -0.00000000000E+00 -0.11903618322E+04  0.11903618322E+04  0.00000000000E+00 0. -1.
          6    1    1    2  501    0 -0.18170949758E+03  0.99832365572E+02 -0.46493992433E+02  0.27399914974E+03  0.17300000000E+03 0. -1.
         -6    1    1    2    0  503  0.18170949758E+03 -0.99832365572E+02 -0.10124197066E+04  0.10478108155E+04  0.17300000000E+03 0. -1.
</event>
<event>
 4    1  0.6197496E+000  0.1000000E+03  0.7546771E-02  0.1280296E+00
         21   -1    0    0  501  502  0.00000000000E+00  0.00000000000E+00  0.64056619802E+02  0.64056619802E+02  0.00000000000E+00 0. -1.
         21   -1    0    0  502  503 -0.00000000000E+00 -0.00000000000E+00 -0.10270552154E+04  0.10270552154E+04  0.00000000000E+00 0. -1.
          6    1    1    2  501    0  0.96020333915E+02  0.27613282481E+02 -0.82365842783E+03  0.84754032567E+03  0.17300000000E+03 0. -1.
         -6    1    1    2    0  503 -0.96020333915E+02 -0.27613282481E+02 -0.13934016772E+03  0.24357150949E+03  0.17300000000E+03 0. -1.
</event>
<event>
 4    1  0.6197496E+000  0.1000000E+03  0.7546771E-02  0.1280296E+00
         21   -1    0    0  503  502  0.00000000000E+00  0.00000000000E+00  0.21690278966E+03  0.21690278966E+03  0.00000000000E+00 0. -1.
         21   -1    0    0  501  503 -0.00000000000E+00 -0.00000000000E+00 -0.27230877218E+03  0.27230877218E+03  0.00000000000E+00 0.  1.
          6    1    1    2  501    0  0.39254585822E+02 -0.14777116530E+03  0.48671827720E+02  0.23595589973E+03  0.17300000000E+03 0. -1.
         -6    1    1    2    0  502 -0.39254585822E+02  0.14777116530E+03 -0.10407781024E+03  0.25325566210E+03  0.17300000000E+03 0.  1.
</event>
<event>
 4    1  0.6197496E+000  0.1000000E+03  0.7546771E-02  0.1280296E+00
         21   -1    0    0  503  502  0.00000000000E+00  0.00000000000E+00  0.39311173751E+03  0.39311173751E+03  0.00000000000E+00 0.  1.
         21   -1    0    0  501  503 -0.00000000000E+00 -0.00000000000E+00 -0.12686823768E+03  0.12686823768E+03  0.00000000000E+00 0.  1.
          6    1    1    2  501    0 -0.15192489280E+02 -0.42716423417E+01 -0.30260114174E+02  0.17633415202E+03  0.17300000000E+03 0.  1.
         -6    1    1    2    0  502  0.15192489280E+02  0.42716423417E+01  0.29650361400E+03  0.34364582316E+03  0.17300000000E+03 0.  1.
</event>
<event>
 4    1  0.6197496E+000  0.1000000E+03  0.7546771E-02  0.1280296E+00
         21   -1    0    0  503  502  0.00000000000E+00  0.00000000000E+00  0.42267392359E+03  0.42267392359E+03  0.00000000000E+00 0.  1.
         21   -1    0    0  501  503 -0.00000000000E+00 -0.00000000000E+00 -0.18040459859E+03  0.18040459859E+03  0.00000000000E+00 0. -1.
          6    1    1    2  501    0  0.15834358041E+03  0.62011827830E+02 -0.22929642208E+02  0.24366560024E+03  0.17300000000E+03 0.  1.
         -6    1    1    2    0  502 -0.15834358041E+03 -0.62011827830E+02  0.26519896721E+03  0.35941292194E+03  0.17300000000E+03 0. -1.
</event>
<event>
 4    1  0.6197496E+000  0.1000000E+03  0.7546771E-02  0.1280296E+00
         21   -1    0    0  503  502  0.00000000000E+00  0.00000000000E+00  0.12464022477E+04  0.12464022477E+04  0.00000000000E+00 0.  1.
         21   -1    0    0  501  503 -0.00000000000E+00 -0.00000000000E+00 -0.40413722047E+02  0.40413722047E+02  0.00000000000E+00 0. -1.
          6    1    1    2  501    0 -0.12702291940E+02  0.87925795213E+02  0.28183331067E+03  0.34241978431E+03  0.17300000000E+03 0.  1.
         -6    1    1    2    0  502  0.12702291940E+02 -0.87925795213E+02  0.92415521497E+03  0.94439618543E+03  0.17300000000E+03 0. -1.
</event>
<event>
 4    1  0.6197496E+000  0.1000000E+03  0.7546771E-02  0.1280296E+00
         21   -1    0    0  501  502  0.00000000000E+00  0.00000000000E+00  0.72667014427E+02  0.72667014427E+02  0.00000000000E+00 0.  1.
         21   -1    0    0  502  503 -0.00000000000E+00 -0.00000000000E+00 -0.44804627151E+03  0.44804627151E+03  0.00000000000E+00 0.  1.
          6    1    1    2  501    0  0.45818454310E+02  0.15417257911E+02 -0.21235289770E+03  0.27813625394E+03  0.17300000000E+03 0.  1.
         -6    1    1    2    0  503 -0.45818454310E+02 -0.15417257911E+02 -0.16302635939E+03  0.24257703199E+03  0.17300000000E+03 0.  1.
</event>
<event>
 4    1  0.6197496E+000  0.1000000E+03  0.7546771E-02  0.1280296E+00
         21   -1    0    0  501  502  0.00000000000E+00  0.00000000000E+00  0.35930170247E+03  0.35930170247E+03  0.00000000000E+00 0.  1.
         21   -1    0    0  502  503 -0.00000000000E+00 -0.00000000000E+00 -0.58156961882E+03  0.58156961882E+03  0.00000000000E+00 0. -1.
          6    1    1    2  501    0  0.35441496121E+03  0.18273777448E+03  0.34504661754E+02  0.43603053865E+03  0.17300000000E+03 0. -1.
         -6    1    1    2    0  503 -0.35441496121E+03 -0.18273777448E+03 -0.25677257810E+03  0.50484078264E+03  0.17300000000E+03 0.  1.
</event>
<event>
 4    1  0.6197496E+000  0.1000000E+03  0.7546771E-02  0.1280296E+00
         21   -1    0    0  503  502  0.00000000000E+00  0.00000000000E+00  0.38034461122E+03  0.38034461122E+03  0.00000000000E+00 0. -1.
         21   -1    0    0  501  503 -0.00000000000E+00 -0.00000000000E+00 -0.89630325953E+03  0.89630325953E+03  0.00000000000E+00 0.  1.
          6    1    1    2  501    0  0.13054996225E+03 -0.19002682861E+03 -0.81309651903E+03  0.86267516337E+03  0.17300000000E+03 0.  1.
         -6    1    1    2    0  502 -0.13054996225E+03  0.19002682861E+03  0.29713787073E+03  0.41397270738E+03  0.17300000000E+03 0. -1.
</event>
<event>
 4    1  0.6197496E+000  0.1000000E+03  0.7546771E-02  0.1280296E+00
         21   -1    0    0  503  502  0.00000000000E+00  0.00000000000E+00  0.11910791483E+03  0.11910791483E+03  0.00000000000E+00 0. -1.
         21   -1    0    0  501  503 -0.00000000000E+00 -0.00000000000E+00 -0.32567349929E+03  0.32567349929E+03  0.00000000000E+00 0.  1.
          6    1    1    2  501    0 -0.22816804590E+02  0.86917354420E+02 -0.71624862837E+02  0.20768811725E+03  0.17300000000E+03 0.  1.
         -6    1    1    2    0  502  0.22816804590E+02 -0.86917354420E+02 -0.13494072162E+03  0.23709329688E+03  0.17300000000E+03 0. -1.
</event>
<event>
 4    1  0.6197496E+000  0.1000000E+03  0.7546771E-02  0.1280296E+00
         21   -1    0    0  503  502  0.00000000000E+00  0.00000000000E+00  0.86909927814E+03  0.86909927814E+03  0.00000000000E+00 0.  1.
         21   -1    0    0  501  503 -0.00000000000E+00 -0.00000000000E+00 -0.81217036782E+02  0.81217036782E+02  0.00000000000E+00 0.  1.
          6    1    1    2  501    0 -0.92516587501E+02  0.12405680202E+03  0.62511168164E+03  0.66681558441E+03  0.17300000000E+03 0.  1.
         -6    1    1    2    0  502  0.92516587501E+02 -0.12405680202E+03  0.16277055972E+03  0.28350073051E+03  0.17300000000E+03 0.  1.
</event>
<event>
 4    1  0.6197496E+000  0.1000000E+03  0.7546771E-02  0.1280296E+00
         21   -1    0    0  503  502  0.00000000000E+00  0.00000000000E+00  0.14445079241E+04  0.14445079241E+04  0.00000000000E+00 0.  1.
         21   -1    0    0  501  503 -0.00000000000E+00 -0.00000000000E+00 -0.52665505397E+02  0.52665505397E+02  0.00000000000E+00 0.  1.
          6    1    1    2  501    0  0.80898569582E+02 -0.35151310620E+02  0.16430847164E+03  0.25437465882E+03  0.17300000000E+03 0.  1.
         -6    1    1    2    0  502 -0.80898569582E+02  0.35151310620E+02  0.12275339471E+04  0.12427987707E+04  0.17300000000E+03 0.  1.
</event>
<event>
 4    1  0.6197496E+000  0.1000000E+03  0.7546771E-02  0.1280296E+00
         21   -1    0    0  503  502  0.00000000000E+00  0.00000000000E+00  0.13659715803E+03  0.13659715803E+03  0.00000000000E+00 0. -1.
         21   -1    0    0  501  503 -0.00000000000E+00 -0.00000000000E+00 -0.32432799697E+03  0.32432799697E+03  0.00000000000E+00 0.  1.
          6    1    1    2  501    0  0.70726258716E+02 -0.87135414051E+02 -0.14004118742E+03  0.24926956940E+03  0.17300000000E+03 0.  1.
         -6    1    1    2    0  502 -0.70726258716E+02  0.87135414051E+02 -0.47689651526E+02  0.21165558560E+03  0.17300000000E+03 0. -1.
</event>
<event>
 4    1  0.6197496E+000  0.1000000E+03  0.7546771E-02  0.1280296E+00
         21   -1    0    0  503  502  0.00000000000E+00  0.00000000000E+00  0.60383845655E+03  0.60383845655E+03  0.00000000000E+00 0. -1.
         21   -1    0    0  501  503 -0.00000000000E+00 -0.00000000000E+00 -0.76009380609E+02  0.76009380609E+02  0.00000000000E+00 0.  1.
          6    1    1    2  501    0  0.76270153594E+01 -0.58370990640E+02  0.86497383794E+02  0.20217848875E+03  0.17300000000E+03 0.  1.
         -6    1    1    2    0  502 -0.76270153594E+01  0.58370990640E+02  0.44133169215E+03  0.47766934840E+03  0.17300000000E+03 0. -1.
</event>
<event>
 4    1  0.6197496E+000  0.1000000E+03  0.7546771E-02  0.1280296E+00
         21   -1    0    0  501  502  0.00000000000E+00  0.00000000000E+00  0.60517636930E+02  0.60517636930E+02  0.00000000000E+00 0. -1.
         21   -1    0    0  502  503 -0.00000000000E+00 -0.00000000000E+00 -0.54190559348E+03  0.54190559348E+03  0.00000000000E+00 0. -1.
          6    1    1    2  501    0  0.28893227865E+02 -0.41021093929E+02 -0.27173556441E+03  0.32601651144E+03  0.17300000000E+03 0. -1.
         -6    1    1    2    0  503 -0.28893227865E+02  0.41021093929E+02 -0.20965239214E+03  0.27640671897E+03  0.17300000000E+03 0. -1.
</event>
<event>
 4    1  0.6197496E+000  0.1000000E+03  0.7546771E-02  0.1280296E+00
         21   -1    0    0  501  502  0.00000000000E+00  0.00000000000E+00  0.16092999988E+03  0.16092999988E+03  0.00000000000E+00 0. -1.
         21   -1    0    0  502  503 -0.00000000000E+00 -0.00000000000E+00 -0.50843917808E+03  0.50843917808E+03  0.00000000000E+00 0. -1.
          6    1    1    2  501    0 -0.20944541776E+01  0.44863794765E+02  0.87550421232E+02  0.19902568447E+03  0.17300000000E+03 0. -1.
         -6    1    1    2    0  503  0.20944541776E+01 -0.44863794765E+02 -0.43505959943E+03  0.47034349350E+03  0.17300000000E+03 0. -1.
</event>
<event>
 4    1  0.6197496E+000  0.1000000E+03  0.7546771E-02  0.1280296E+00
         21   -1    0    0  501  502  0.00000000000E+00  0.00000000000E+00  0.15926480752E+03  0.15926480752E+03  0.00000000000E+00 0. -1.
         21   -1    0    0  502  503 -0.00000000000E+00 -0.00000000000E+00 -0.58537855925E+03  0.58537855925E+03  0.00000000000E+00 0. -1.
          6    1    1    2  501    0 -0.84428852521E+02  0.88871446589E+01  0.75743785778E+02  0.20705876838E+03  0.17300000000E+03 0. -1.
         -6    1    1    2    0  503  0.84428852521E+02 -0.88871446589E+01 -0.50185753751E+03  0.53758459839E+03  0.17300000000E+03 0. -1.
</event>
<event>
 4    1  0.6197496E+000  0.1000000E+03  0.7546771E-02  0.1280296E+00
         21   -1    0    0  501  502  0.00000000000E+00  0.00000000000E+00  0.23161802407E+04  0.23161802407E+04  0.00000000000E+00 0. -1.
         21   -1    0    0  502  503 -0.00000000000E+00 -0.00000000000E+00 -0.59612106588E+02  0.59612106588E+02  0.00000000000E+00 0. -1.
          6    1    1    2  501    0  0.21087115734E+03 -0.21135264149E+03  0.15690211240E+04  0.16065157551E+04  0.17300000000E+03 0. -1.
         -6    1    1    2    0  503 -0.21087115734E+03  0.21135264149E+03  0.68754701012E+03  0.76927659212E+03  0.17300000000E+03 0. -1.
</event>
<event>
 4    1  0.6197496E+000  0.1000000E+03  0.7546771E-02  0.1280296E+00
         21   -1    0    0  503  502  0.00000000000E+00  0.00000000000E+00  0.12143896997E+03  0.12143896997E+03  0.00000000000E+00 0.  1.
         21   -1    0    0  501  503 -0.00000000000E+00 -0.00000000000E+00 -0.69022319131E+03  0.69022319131E+03  0.00000000000E+00 0.  1.
          6    1    1    2  501    0 -0.20680501089E+03 -0.27294584881E+02 -0.42718999303E+03  0.50589880118E+03  0.17300000000E+03 0.  1.
         -6    1    1    2    0  502  0.20680501089E+03  0.27294584881E+02 -0.14159422831E+03  0.30576336010E+03  0.17300000000E+03 0.  1.
</event>
<event>
 4    1  0.6197496E+000  0.1000000E+03  0.7546771E-02  0.1280296E+00
         21   -1    0    0  503  502  0.00000000000E+00  0.00000000000E+00  0.51794874721E+03  0.51794874721E+03  0.00000000000E+00 0.  1.
         21   -1    0    0  501  503 -0.00000000000E+00 -0.00000000000E+00 -0.74012418980E+03  0.74012418980E+03  0.00000000000E+00 0.  1.
          6    1    1    2  501    0 -0.17937932164E+03  0.50357885467E+03 -0.37533477744E+03  0.67570244861E+03  0.17300000000E+03 0.  1.
         -6    1    1    2    0  502  0.17937932164E+03 -0.50357885467E+03  0.15315933485E+03  0.58237048840E+03  0.17300000000E+03 0.  1.
</event>
<event>
 4    1  0.6197496E+000  0.1000000E+03  0.7546771E-02  0.1280296E+00
         21   -1    0    0  503  502  0.00000000000E+00  0.00000000000E+00  0.55087240325E+03  0.55087240325E+03  0.00000000000E+00 0.  1.
         21   -1    0    0  501  503 -0.00000000000E+00 -0.00000000000E+00 -0.10073216979E+03  0.10073216979E+03  0.00000000000E+00 0.  1.
          6    1    1    2  501    0  0.37101683993E+02  0.11000609662E+03  0.73034820555E+02  0.22077355200E+03  0.17300000000E+03 0.  1.
         -6    1    1    2    0  502 -0.37101683993E+02 -0.11000609662E+03  0.37710541290E+03  0.43083102104E+03  0.17300000000E+03 0.  1.
</event>
<event>
 4    1  0.6197496E+000  0.1000000E+03  0.7546771E-02  0.1280296E+00
         21   -1    0    0  503  502  0.00000000000E+00  0.00000000000E+00  0.69256250376E+02  0.69256250376E+02  0.00000000000E+00 0.  1.
         21   -1    0    0  501  503 -0.00000000000E+00 -0.00000000000E+00 -0.11978585477E+04  0.11978585477E+04  0.00000000000E+00 0.  1.
          6    1    1    2  501    0 -0.54485869482E+02  0.71664835426E+02 -0.10305317913E+04  0.10488228313E+04  0.17300000000E+03 0.  1.
         -6    1    1    2    0  502  0.54485869482E+02 -0.71664835426E+02 -0.98070506065E+02  0.21829196680E+03  0.17300000000E+03 0.  1.
</event>
<event>
 4    1  0.6197496E+000  0.1000000E+03  0.7546771E-02  0.1280296E+00
         21   -1    0    0  503  502  0.00000000000E+00  0.00000000000E+00  0.18183864544E+04  0.18183864544E+04  0.00000000000E+00 0.  1.
         21   -1    0    0  501  503 -0.00000000000E+00 -0.00000000000E+00 -0.33257369131E+02  0.33257369131E+02  0.00000000000E+00 0.  1.
          6    1    1    2  501    0  0.20498160272E+02  0.75896428421E+02  0.30490423121E+03  0.35927153051E+03  0.17300000000E+03 0.  1.
         -6    1    1    2    0  502 -0.20498160272E+02 -0.75896428421E+02  0.14802248541E+04  0.14923722931E+04  0.17300000000E+03 0.  1.
</event>
<event>
 4    1  0.6197496E+000  0.1000000E+03  0.7546771E-02  0.1280296E+00
         21   -1    0    0  503  502  0.00000000000E+00  0.00000000000E+00  0.51311264610E+03  0.51311264610E+03  0.00000000000E+00 0. -1.
         21   -1    0    0  501  503 -0.00000000000E+00 -0.00000000000E+00 -0.76187844160E+02  0.76187844160E+02  0.00000000000E+00 0.  1.
          6    1    1    2  501    0  0.64860833555E+02 -0.30430105419E+02  0.12384620716E+03  0.22449900239E+03  0.17300000000E+03 0.  1.
         -6    1    1    2    0  502 -0.64860833555E+02  0.30430105419E+02  0.31307859478E+03  0.36480148787E+03  0.17300000000E+03 0. -1.
</event>
<event>
 4    1  0.6197496E+000  0.1000000E+03  0.7546771E-02  0.1280296E+00
         21   -1    0    0  503  502  0.00000000000E+00  0.00000000000E+00  0.30372675853E+03  0.30372675853E+03  0.00000000000E+00 0. -1.
         21   -1    0    0  501  503 -0.00000000000E+00 -0.00000000000E+00 -0.14768844054E+03  0.14768844054E+03  0.00000000000E+00 0.  1.
          6    1    1    2  501    0 -0.10541799754E+03  0.57448324202E+02  0.53842592132E+02  0.21735061280E+03  0.17300000000E+03 0.  1.
         -6    1    1    2    0  502  0.10541799754E+03 -0.57448324202E+02  0.10219572586E+03  0.23406458627E+03  0.17300000000E+03 0. -1.
</event>
<event>
 4    1  0.6197496E+000  0.1000000E+03  0.7546771E-02  0.1280296E+00
         21   -1    0    0  503  502  0.00000000000E+00  0.00000000000E+00  0.84897429324E+03  0.84897429324E+03  0.00000000000E+00 0. -1.
         21   -1    0    0  501  503 -0.00000000000E+00 -0.00000000000E+00 -0.22723214181E+03  0.22723214181E+03  0.00000000000E+00 0.  1.
          6    1    1    2  501    0 -0.16805582771E+03 -0.14972458668E+02 -0.13846795183E+03  0.27851267373E+03  0.17300000000E+03 0.  1.
         -6    1    1    2    0  502  0.16805582771E+03  0.14972458668E+02  0.76021010326E+03  0.79769376132E+03  0.17300000000E+03 0. -1.
</event>
<event>
 4    1  0.6197496E+000  0.1000000E+03  0.7546771E-02  0.1280296E+00
         21   -1    0    0  503  502  0.00000000000E+00  0.00000000000E+00  0.73140764860E+02  0.73140764860E+02  0.00000000000E+00 0. -1.
         21   -1    0    0  501  503 -0.00000000000E+00 -0.00000000000E+00 -0.86350734261E+03  0.86350734261E+03  0.00000000000E+00 0.  1.
          6    1    1    2  501    0  0.15926207761E+03  0.86601764495E+02 -0.43075221454E+03  0.49833798301E+03  0.17300000000E+03 0.  1.
         -6    1    1    2    0  502 -0.15926207761E+03 -0.86601764495E+02 -0.35961436321E+03  0.43831012446E+03  0.17300000000E+03 0. -1.
</event>
<event>
 4    1  0.6197496E+000  0.1000000E+03  0.7546771E-02  0.1280296E+00
         21   -1    0    0  503  502  0.00000000000E+00  0.00000000000E+00  0.32345783427E+03  0.32345783427E+03  0.00000000000E+00 0. -1.
         21   -1    0    0  501  503 -0.00000000000E+00 -0.00000000000E+00 -0.13814543569E+03  0.13814543569E+03  0.00000000000E+00 0. -1.
          6    1    1    2  501    0 -0.10718315146E+03 -0.56740522429E+02  0.10018191633E+03  0.23382286287E+03  0.17300000000E+03 0. -1.
         -6    1    1    2    0  502  0.10718315146E+03  0.56740522429E+02  0.85130482256E+02  0.22778040708E+03  0.17300000000E+03 0. -1.
</event>
<event>
 4    1  0.6197496E+000  0.1000000E+03  0.7546771E-02  0.1280296E+00
         21   -1    0    0  503  502  0.00000000000E+00  0.00000000000E+00  0.32575906008E+03  0.32575906008E+03  0.00000000000E+00 0. -1.
         21   -1    0    0  501  503 -0.00000000000E+00 -0.00000000000E+00 -0.14856257649E+03  0.14856257649E+03  0.00000000000E+00 0. -1.
          6    1    1    2  501    0  0.11204838104E+02 -0.11784410009E+03  0.16652259011E+02  0.21028332804E+03  0.17300000000E+03 0. -1.
         -6    1    1    2    0  502 -0.11204838104E+02  0.11784410009E+03  0.16054422458E+03  0.26403830852E+03  0.17300000000E+03 0. -1.
</event>
<event>
 4    1  0.6197496E+000  0.1000000E+03  0.7546771E-02  0.1280296E+00
         21   -1    0    0  503  502  0.00000000000E+00  0.00000000000E+00  0.30363339532E+03  0.30363339532E+03  0.00000000000E+00 0. -1.
         21   -1    0    0  501  503 -0.00000000000E+00 -0.00000000000E+00 -0.27330623900E+03  0.27330623900E+03  0.00000000000E+00 0. -1.
          6    1    1    2  501    0 -0.10325840033E+03 -0.15899204639E+03  0.14616951609E+03  0.29535621796E+03  0.17300000000E+03 0. -1.
         -6    1    1    2    0  502  0.10325840033E+03  0.15899204639E+03 -0.11584235977E+03  0.28158341636E+03  0.17300000000E+03 0. -1.
</event>
<event>
 4    1  0.6197496E+000  0.1000000E+03  0.7546771E-02  0.1280296E+00
         21   -1    0    0  503  502  0.00000000000E+00  0.00000000000E+00  0.17913343766E+03  0.17913343766E+03  0.00000000000E+00 0. -1.
         21   -1    0    0  501  503 -0.00000000000E+00 -0.00000000000E+00 -0.27113690749E+03  0.27113690749E+03  0.00000000000E+00 0. -1.
          6    1    1    2  501    0 -0.78011073828E+02  0.13850470776E+02 -0.15958773277E+03  0.24834413146E+03  0.17300000000E+03 0. -1.
         -6    1    1    2    0  502  0.78011073828E+02 -0.13850470776E+02  0.67584262939E+02  0.20192621370E+03  0.17300000000E+03 0. -1.
</event>
<event>
 4    1  0.6197496E+000  0.1000000E+03  0.7546771E-02  0.1280296E+00
         21   -1    0    0  503  502  0.00000000000E+00  0.00000000000E+00  0.10920047374E+03  0.10920047374E+03  0.00000000000E+00 0. -1.
         21   -1    0    0  501  503 -0.00000000000E+00 -0.00000000000E+00 -0.49082178581E+03  0.49082178581E+03  0.00000000000E+00 0. -1.
          6    1    1    2  501    0  0.10750987916E+03 -0.73578412985E+02 -0.29685739693E+03  0.36745812154E+03  0.17300000000E+03 0. -1.
         -6    1    1    2    0  502 -0.10750987916E+03  0.73578412985E+02 -0.84763915139E+02  0.23256413800E+03  0.17300000000E+03 0. -1.
</event>
<event>
 4    1  0.6197496E+000  0.1000000E+03  0.7546771E-02  0.1280296E+00
         21   -1    0    0  501  502  0.00000000000E+00  0.00000000000E+00  0.12720126975E+03  0.12720126975E+03  0.00000000000E+00 0. -1.
         21   -1    0    0  502  503 -0.00000000000E+00 -0.00000000000E+00 -0.83505555537E+03  0.83505555537E+03  0.00000000000E+00 0. -1.
          6    1    1    2  501    0  0.25789930014E+03  0.46486603929E+02 -0.22507840207E+03  0.38634484652E+03  0.17300000000E+03 0. -1.
         -6    1    1    2    0  503 -0.25789930014E+03 -0.46486603929E+02 -0.48277588354E+03  0.57591197859E+03  0.17300000000E+03 0. -1.
</event>
<event>
 4    1  0.6197496E+000  0.1000000E+03  0.7546771E-02  0.1280296E+00
         21   -1    0    0  501  502  0.00000000000E+00  0.00000000000E+00  0.10470293188E+03  0.10470293188E+03  0.00000000000E+00 0. -1.
         21   -1    0    0  502  503 -0.00000000000E+00 -0.00000000000E+00 -0.73417840958E+03  0.73417840958E+03  0.00000000000E+00 0. -1.
          6    1    1    2  501    0 -0.40444257334E+02  0.18935275857E+03 -0.16766268956E+03  0.30907924970E+03  0.17300000000E+03 0. -1.
         -6    1    1    2    0  503  0.40444257334E+02 -0.18935275857E+03 -0.46181278815E+03  0.52980209175E+03  0.17300000000E+03 0. -1.
</event>
<event>
 4    1  0.6197496E+000  0.1000000E+03  0.7546771E-02  0.1280296E+00
         21   -1    0    0  501  502  0.00000000000E+00  0.00000000000E+00  0.20862086770E+03  0.20862086770E+03  0.00000000000E+00 0. -1.
         21   -1    0    0  502  503 -0.00000000000E+00 -0.00000000000E+00 -0.33318368628E+03  0.33318368628E+03  0.00000000000E+00 0. -1.
          6    1    1    2  501    0 -0.16027015124E+02  0.38636810269E+02  0.13757238231E+03  0.22495517042E+03  0.17300000000E+03 0. -1.
         -6    1    1    2    0  503  0.16027015124E+02 -0.38636810269E+02 -0.26213520088E+03  0.31684938356E+03  0.17300000000E+03 0. -1.
</event>
<event>
 4    1  0.6197496E+000  0.1000000E+03  0.7546771E-02  0.1280296E+00
         21   -1    0    0  503  502  0.00000000000E+00  0.00000000000E+00  0.64965435494E+03  0.64965435494E+03  0.00000000000E+00 0.  1.
         21   -1    0    0  501  503 -0.00000000000E+00 -0.00000000000E+00 -0.96715217569E+02  0.96715217569E+02  0.00000000000E+00 0.  1.
          6    1    1    2  501    0 -0.14228785679E+03 -0.94308539828E+02  0.18514761731E+03  0.30552999046E+03  0.17300000000E+03 0.  1.
         -6    1    1    2    0  502  0.14228785679E+03  0.94308539828E+02  0.36779152005E+03  0.44083958204E+03  0.17300000000E+03 0.  1.
</event>
<event>
 4    1  0.6197496E+000  0.1000000E+03  0.7546771E-02  0.1280296E+00
         21   -1    0    0  503  502  0.00000000000E+00  0.00000000000E+00  0.28838199899E+03  0.28838199899E+03  0.00000000000E+00 0.  1.
         21   -1    0    0  501  503 -0.00000000000E+00 -0.00000000000E+00 -0.28941284822E+03  0.28941284822E+03  0.00000000000E+00 0.  1.
          6    1    1    2  501    0 -0.49830773965E+02  0.14880283373E+03 -0.17053647730E+03  0.28920075977E+03  0.17300000000E+03 0.  1.
         -6    1    1    2    0  502  0.49830773965E+02 -0.14880283373E+03  0.16950562807E+03  0.28859408745E+03  0.17300000000E+03 0.  1.
</event>
<event>
 4    1  0.6197496E+000  0.1000000E+03  0.7546771E-02  0.1280296E+00
         21   -1    0    0  503  502  0.00000000000E+00  0.00000000000E+00  0.32418055501E+03  0.32418055501E+03  0.00000000000E+00 0.  1.
         21   -1    0    0  501  503 -0.00000000000E+00 -0.00000000000E+00 -0.20363212895E+03  0.20363212895E+03  0.00000000000E+00 0.  1.
          6    1    1    2  501    0 -0.14821625307E+03  0.63247969605E+02 -0.43035744534E+02  0.24031112883E+03  0.17300000000E+03 0.  1.
         -6    1    1    2    0  502  0.14821625307E+03 -0.63247969605E+02  0.16358417059E+03  0.28750155513E+03  0.17300000000E+03 0.  1.
</event>
<event>
 4    1  0.6197496E+000  0.1000000E+03  0.7546771E-02  0.1280296E+00
         21   -1    0    0  503  502  0.00000000000E+00  0.00000000000E+00  0.43616831337E+03  0.43616831337E+03  0.00000000000E+00 0. -1.
         21   -1    0    0  501  503 -0.00000000000E+00 -0.00000000000E+00 -0.83061697849E+02  0.83061697849E+02  0.00000000000E+00 0. -1.
          6    1    1    2  501    0 -0.51411536116E+02 -0.57897501970E+02  0.15274781506E+03  0.24342588561E+03  0.17300000000E+03 0. -1.
         -6    1    1    2    0  502  0.51411536116E+02  0.57897501970E+02  0.20035880047E+03  0.27580412561E+03  0.17300000000E+03 0. -1.
</event>
<event>
 4    1  0.6197496E+000  0.1000000E+03  0.7546771E-02  0.1280296E+00
         21   -1    0    0  501  502  0.00000000000E+00  0.00000000000E+00  0.73828535828E+02  0.73828535828E+02  0.00000000000E+00 0. -1.
         21   -1    0    0  502  503 -0.00000000000E+00 -0.00000000000E+00 -0.59661778642E+03  0.59661778642E+03  0.00000000000E+00 0. -1.
          6    1    1    2  501    0  0.48002136396E+02 -0.63496633967E+02 -0.40230088486E+03  0.44509665196E+03  0.17300000000E+03 0. -1.
         -6    1    1    2    0  503 -0.48002136396E+02  0.63496633967E+02 -0.12048836573E+03  0.22534967029E+03  0.17300000000E+03 0. -1.
</event>
<event>
 4    1  0.6197496E+000  0.1000000E+03  0.7546771E-02  0.1280296E+00
         21   -1    0    0  501  502  0.00000000000E+00  0.00000000000E+00  0.27309214286E+03  0.27309214286E+03  0.00000000000E+00 0. -1.
         21   -1    0    0  502  503 -0.00000000000E+00 -0.00000000000E+00 -0.48552846831E+03  0.48552846831E+03  0.00000000000E+00 0. -1.
          6    1    1    2  501    0 -0.17151986501E+03 -0.18854634719E+03  0.96028607919E+02  0.32267519686E+03  0.17300000000E+03 0. -1.
         -6    1    1    2    0  503  0.17151986501E+03  0.18854634719E+03 -0.30846493337E+03  0.43594541430E+03  0.17300000000E+03 0. -1.
</event>
<event>
 4    1  0.6197496E+000  0.1000000E+03  0.7546771E-02  0.1280296E+00
         21   -1    0    0  503  502  0.00000000000E+00  0.00000000000E+00  0.12775699089E+03  0.12775699089E+03  0.00000000000E+00 0. -1.
         21   -1    0    0  501  503 -0.00000000000E+00 -0.00000000000E+00 -0.23958403952E+03  0.23958403952E+03  0.00000000000E+00 0. -1.
          6    1    1    2  501    0  0.98155783947E+01 -0.23770616677E+02 -0.51441188268E+02  0.18230903337E+03  0.17300000000E+03 0.  1.
         -6    1    1    2    0  502 -0.98155783947E+01  0.23770616677E+02 -0.60385860365E+02  0.18503199704E+03  0.17300000000E+03 0.  1.
</event>
<event>
 4    1  0.6197496E+000  0.1000000E+03  0.7546771E-02  0.1280296E+00
         21   -1    0    0  503  502  0.00000000000E+00  0.00000000000E+00  0.82590348951E+02  0.82590348951E+02  0.00000000000E+00 0. -1.
         21   -1    0    0  501  503 -0.00000000000E+00 -0.00000000000E+00 -0.51922807796E+03  0.51922807796E+03  0.00000000000E+00 0. -1.
          6    1    1    2  501    0  0.60058609782E+02 -0.17867972621E+02 -0.35638455578E+03  0.40108010753E+03  0.17300000000E+03 0.  1.
         -6    1    1    2    0  502 -0.60058609782E+02  0.17867972621E+02 -0.80253173224E+02  0.20073831938E+03  0.17300000000E+03 0.  1.
</event>
<event>
 4    1  0.6197496E+000  0.1000000E+03  0.7546771E-02  0.1280296E+00
         21   -1    0    0  503  502  0.00000000000E+00  0.00000000000E+00  0.28438773664E+03  0.28438773664E+03  0.00000000000E+00 0. -1.
         21   -1    0    0  501  503 -0.00000000000E+00 -0.00000000000E+00 -0.35064562633E+03  0.35064562633E+03  0.00000000000E+00 0. -1.
          6    1    1    2  501    0  0.16302116534E+03 -0.50715620908E+02 -0.23583478515E+03  0.33866653280E+03  0.17300000000E+03 0. -1.
         -6    1    1    2    0  502 -0.16302116534E+03  0.50715620908E+02  0.16957689545E+03  0.29636683017E+03  0.17300000000E+03 0. -1.
</event>
<event>
 4    1  0.6197496E+000  0.1000000E+03  0.7546771E-02  0.1280296E+00
         21   -1    0    0  503  502  0.00000000000E+00  0.00000000000E+00  0.58381638263E+03  0.58381638263E+03  0.00000000000E+00 0. -1.
         21   -1    0    0  501  503 -0.00000000000E+00 -0.00000000000E+00 -0.11901461834E+03  0.11901461834E+03  0.00000000000E+00 0. -1.
          6    1    1    2  501    0  0.25572387318E+02 -0.24229467245E+02 -0.28547031911E+02  0.17884335914E+03  0.17300000000E+03 0. -1.
         -6    1    1    2    0  502 -0.25572387318E+02  0.24229467245E+02  0.49334879621E+03  0.52398764183E+03  0.17300000000E+03 0. -1.
</event>
<event>
 4    1  0.6197496E+000  0.1000000E+03  0.7546771E-02  0.1280296E+00
         21   -1    0    0  503  502  0.00000000000E+00  0.00000000000E+00  0.49127909745E+02  0.49127909745E+02  0.00000000000E+00 0. -1.
         21   -1    0    0  501  503 -0.00000000000E+00 -0.00000000000E+00 -0.15747239719E+04  0.15747239719E+04  0.00000000000E+00 0. -1.
          6    1    1    2  501    0 -0.15816396027E+03 -0.91073019793E+02 -0.11097147890E+04  0.11378515045E+04  0.17300000000E+03 0. -1.
         -6    1    1    2    0  502  0.15816396027E+03  0.91073019793E+02 -0.41588127310E+03  0.48600037714E+03  0.17300000000E+03 0. -1.
</event>
<event>
 4    1  0.6197496E+000  0.1000000E+03  0.7546771E-02  0.1280296E+00
         21   -1    0    0  503  502  0.00000000000E+00  0.00000000000E+00  0.22958796372E+04  0.22958796372E+04  0.00000000000E+00 0.  1.
         21   -1    0    0  501  503 -0.00000000000E+00 -0.00000000000E+00 -0.17540980911E+03  0.17540980911E+03  0.00000000000E+00 0. -1.
          6    1    1    2  501    0 -0.51863543961E+00 -0.32112474288E+03  0.49102602184E+02  0.36805085927E+03  0.17300000000E+03 0. -1.
         -6    1    1    2    0  502  0.51863543961E+00  0.32112474288E+03  0.20713672259E+04  0.21032385870E+04  0.17300000000E+03 0.  1.
</event>
<event>
 4    1  0.6197496E+000  0.1000000E+03  0.7546771E-02  0.1280296E+00
         21   -1    0    0  503  502  0.00000000000E+00  0.00000000000E+00  0.25756178705E+03  0.25756178705E+03  0.00000000000E+00 0.  1.
         21   -1    0    0  501  503 -0.00000000000E+00 -0.00000000000E+00 -0.15650183783E+03  0.15650183783E+03  0.00000000000E+00 0. -1.
          6    1    1    2  501    0  0.81414319305E+02  0.26900034703E+02 -0.62132288378E+01  0.19318257548E+03  0.17300000000E+03 0. -1.
         -6    1    1    2    0  502 -0.81414319305E+02 -0.26900034703E+02  0.10727317806E+03  0.22088104940E+03  0.17300000000E+03 0.  1.
</event>
<event>
 4    1  0.6197496E+000  0.1000000E+03  0.7546771E-02  0.1280296E+00
         21   -1    0    0  503  502  0.00000000000E+00  0.00000000000E+00  0.15670234283E+03  0.15670234283E+03  0.00000000000E+00 0.  1.
         21   -1    0    0  501  503 -0.00000000000E+00 -0.00000000000E+00 -0.22526716594E+03  0.22526716594E+03  0.00000000000E+00 0. -1.
          6    1    1    2  501    0  0.57472756051E+02  0.37353140568E+02 -0.60643535400E+02  0.19571666558E+03  0.17300000000E+03 0.  1.
         -6    1    1    2    0  502 -0.57472756051E+02 -0.37353140568E+02 -0.79212877066E+01  0.18625284319E+03  0.17300000000E+03 0.  1.
</event>
<event>
 4    1  0.6197496E+000  0.1000000E+03  0.7546771E-02  0.1280296E+00
         21   -1    0    0  503  502  0.00000000000E+00  0.00000000000E+00  0.52580799825E+03  0.52580799825E+03  0.00000000000E+00 0.  1.
         21   -1    0    0  501  503 -0.00000000000E+00 -0.00000000000E+00 -0.47305063791E+03  0.47305063791E+03  0.00000000000E+00 0. -1.
          6    1    1    2  501    0  0.11884028467E+01 -0.26843270822E+02 -0.44126747232E+03  0.47472934986E+03  0.17300000000E+03 0.  1.
         -6    1    1    2    0  502 -0.11884028467E+01  0.26843270822E+02  0.49402483265E+03  0.52412928631E+03  0.17300000000E+03 0.  1.
</event>
<event>
 4    1  0.6197496E+000  0.1000000E+03  0.7546771E-02  0.1280296E+00
         21   -1    0    0  503  502  0.00000000000E+00  0.00000000000E+00  0.40344762997E+03  0.40344762997E+03  0.00000000000E+00 0.  1.
         21   -1    0    0  501  503 -0.00000000000E+00 -0.00000000000E+00 -0.23680245151E+03  0.23680245151E+03  0.00000000000E+00 0. -1.
          6    1    1    2  501    0 -0.13916395971E+03 -0.50842650322E+02 -0.13307824974E+03  0.26379993049E+03  0.17300000000E+03 0.  1.
         -6    1    1    2    0  502  0.13916395971E+03  0.50842650322E+02  0.29972342820E+03  0.37645015099E+03  0.17300000000E+03 0.  1.
</event>
<event>
 4    1  0.6197496E+000  0.1000000E+03  0.7546771E-02  0.1280296E+00
         21   -1    0    0  501  502  0.00000000000E+00  0.00000000000E+00  0.28355758221E+03  0.28355758221E+03  0.00000000000E+00 0.  1.
         21   -1    0    0  502  503 -0.00000000000E+00 -0.00000000000E+00 -0.13838124652E+03  0.13838124652E+03  0.00000000000E+00 0.  1.
          6    1    1    2  501    0 -0.45540409765E+02 -0.39944838882E+01 -0.17908765599E+02  0.17983216817E+03  0.17300000000E+03 0.  1.
         -6    1    1    2    0  503  0.45540409765E+02  0.39944838882E+01  0.16308510129E+03  0.24210666056E+03  0.17300000000E+03 0.  1.
</event>
<event>
 4    1  0.6197496E+000  0.1000000E+03  0.7546771E-02  0.1280296E+00
         21   -1    0    0  501  502  0.00000000000E+00  0.00000000000E+00  0.21544680588E+04  0.21544680588E+04  0.00000000000E+00 0.  1.
         21   -1    0    0  502  503 -0.00000000000E+00 -0.00000000000E+00 -0.30390150602E+02  0.30390150602E+02  0.00000000000E+00 0.  1.
          6    1    1    2  501    0 -0.10165903951E+03 -0.14256664514E+03  0.13604567069E+04  0.13825452108E+04  0.17300000000E+03 0.  1.
         -6    1    1    2    0  503  0.10165903951E+03  0.14256664514E+03  0.76362120128E+03  0.80231299856E+03  0.17300000000E+03 0.  1.
</event>
<event>
 4    1  0.6197496E+000  0.1000000E+03  0.7546771E-02  0.1280296E+00
         21   -1    0    0  501  502  0.00000000000E+00  0.00000000000E+00  0.28341381622E+02  0.28341381622E+02  0.00000000000E+00 0.  1.
         21   -1    0    0  502  503 -0.00000000000E+00 -0.00000000000E+00 -0.20305276804E+04  0.20305276804E+04  0.00000000000E+00 0.  1.
          6    1    1    2  501    0  0.10468989642E+03 -0.88107423804E+02 -0.59634693377E+03  0.63583139114E+03  0.17300000000E+03 0.  1.
         -6    1    1    2    0  503 -0.10468989642E+03  0.88107423804E+02 -0.14058393651E+04  0.14230376709E+04  0.17300000000E+03 0.  1.
</event>
<event>
 4    1  0.6197496E+000  0.1000000E+03  0.7546771E-02  0.1280296E+00
         21   -1    0    0  501  502  0.00000000000E+00  0.00000000000E+00  0.50938264728E+03  0.50938264728E+03  0.00000000000E+00 0.  1.
         21   -1    0    0  502  503 -0.00000000000E+00 -0.00000000000E+00 -0.97879644828E+02  0.97879644828E+02  0.00000000000E+00 0.  1.
          6    1    1    2  501    0 -0.17390727998E+02 -0.45986661815E+02  0.38569895501E+03  0.42557008163E+03  0.17300000000E+03 0.  1.
         -6    1    1    2    0  503  0.17390727998E+02  0.45986661815E+02  0.25804047448E+02  0.18169221048E+03  0.17300000000E+03 0.  1.
</event>
<event>
 4    1  0.6197496E+000  0.1000000E+03  0.7546771E-02  0.1280296E+00
         21   -1    0    0  501  502  0.00000000000E+00  0.00000000000E+00  0.60534191897E+03  0.60534191897E+03  0.00000000000E+00 0.  1.
         21   -1    0    0  502  503 -0.00000000000E+00 -0.00000000000E+00 -0.14433133375E+03  0.14433133375E+03  0.00000000000E+00 0.  1.
          6    1    1    2  501    0 -0.22024764268E+03 -0.76181247364E+02  0.30143180219E+03  0.41845279056E+03  0.17300000000E+03 0.  1.
         -6    1    1    2    0  503  0.22024764268E+03  0.76181247364E+02  0.15957878304E+03  0.33122046216E+03  0.17300000000E+03 0.  1.
</event>
<event>
 4    1  0.6197496E+000  0.1000000E+03  0.7546771E-02  0.1280296E+00
         21   -1    0    0  503  502  0.00000000000E+00  0.00000000000E+00  0.68555799829E+03  0.68555799829E+03  0.00000000000E+00 0.  1.
         21   -1    0    0  501  503 -0.00000000000E+00 -0.00000000000E+00 -0.67627347684E+02  0.67627347684E+02  0.00000000000E+00 0. -1.
          6    1    1    2  501    0 -0.10019524575E+03 -0.79066569091E+02  0.32986998654E+03  0.39374333980E+03  0.17300000000E+03 0.  1.
         -6    1    1    2    0  502  0.10019524575E+03  0.79066569091E+02  0.28806066406E+03  0.35944200617E+03  0.17300000000E+03 0. -1.
</event>
<event>
 4    1  0.6197496E+000  0.1000000E+03  0.7546771E-02  0.1280296E+00
         21   -1    0    0  501  502  0.00000000000E+00  0.00000000000E+00  0.12919738816E+04  0.12919738816E+04  0.00000000000E+00 0. -1.
         21   -1    0    0  502  503 -0.00000000000E+00 -0.00000000000E+00 -0.33800694445E+02  0.33800694445E+02  0.00000000000E+00 0. -1.
          6    1    1    2  501    0  0.95951040661E+02  0.60677166442E+02  0.53647941695E+03  0.57500216134E+03  0.17300000000E+03 0. -1.
         -6    1    1    2    0  503 -0.95951040661E+02 -0.60677166442E+02  0.72169377016E+03  0.75077241466E+03  0.17300000000E+03 0. -1.
</event>
<event>
 4    1  0.6197496E+000  0.1000000E+03  0.7546771E-02  0.1280296E+00
         21   -1    0    0  501  502  0.00000000000E+00  0.00000000000E+00  0.24765615549E+03  0.24765615549E+03  0.00000000000E+00 0. -1.
         21   -1    0    0  502  503 -0.00000000000E+00 -0.00000000000E+00 -0.29523914390E+03  0.29523914390E+03  0.00000000000E+00 0. -1.
          6    1    1    2  501    0 -0.18830320271E+02 -0.19136591007E+03  0.55337505254E+02  0.26451225300E+03  0.17300000000E+03 0. -1.
         -6    1    1    2    0  503  0.18830320271E+02  0.19136591007E+03 -0.10292049367E+03  0.27838304639E+03  0.17300000000E+03 0. -1.
</event>
<event>
 4    1  0.6197496E+000  0.1000000E+03  0.7546771E-02  0.1280296E+00
         21   -1    0    0  501  502  0.00000000000E+00  0.00000000000E+00  0.40187016453E+02  0.40187016453E+02  0.00000000000E+00 0. -1.
         21   -1    0    0  502  503 -0.00000000000E+00 -0.00000000000E+00 -0.16499486169E+04  0.16499486169E+04  0.00000000000E+00 0. -1.
          6    1    1    2  501    0 -0.17178518953E+03 -0.34317523686E+02 -0.55733420929E+03  0.60929325010E+03  0.17300000000E+03 0. -1.
         -6    1    1    2    0  503  0.17178518953E+03  0.34317523686E+02 -0.10524273912E+04  0.10808423833E+04  0.17300000000E+03 0. -1.
</event>
<event>
 4    1  0.6197496E+000  0.1000000E+03  0.7546771E-02  0.1280296E+00
         21   -1    0    0  503  502  0.00000000000E+00  0.00000000000E+00  0.77118061605E+02  0.77118061605E+02  0.00000000000E+00 0.  1.
         21   -1    0    0  501  503 -0.00000000000E+00 -0.00000000000E+00 -0.95168192784E+03  0.95168192784E+03  0.00000000000E+00 0.  1.
          6    1    1    2  501    0 -0.16732404766E+03  0.12056091837E+03 -0.37935813695E+03  0.46516004561E+03  0.17300000000E+03 0.  1.
         -6    1    1    2    0  502  0.16732404766E+03 -0.12056091837E+03 -0.49520572929E+03  0.56363994383E+03  0.17300000000E+03 0.  1.
</event>
<event>
 4    1  0.6197496E+000  0.1000000E+03  0.7546771E-02  0.1280296E+00
         21   -1    0    0  501  502  0.00000000000E+00  0.00000000000E+00  0.13069874611E+03  0.13069874611E+03  0.00000000000E+00 0.  1.
         21   -1    0    0  502  503 -0.00000000000E+00 -0.00000000000E+00 -0.26991668192E+03  0.26991668192E+03  0.00000000000E+00 0.  1.
          6    1    1    2  501    0  0.14954534023E+02 -0.15623045532E+02  0.48992057057E+01  0.17441536588E+03  0.17300000000E+03 0.  1.
         -6    1    1    2    0  503 -0.14954534023E+02  0.15623045532E+02 -0.14411714151E+03  0.22620006215E+03  0.17300000000E+03 0.  1.
</event>
<event>
 4    1  0.6197496E+000  0.1000000E+03  0.7546771E-02  0.1280296E+00
         21   -1    0    0  501  502  0.00000000000E+00  0.00000000000E+00  0.17913492704E+03  0.17913492704E+03  0.00000000000E+00 0.  1.
         21   -1    0    0  502  503 -0.00000000000E+00 -0.00000000000E+00 -0.40413279557E+03  0.40413279557E+03  0.00000000000E+00 0.  1.
          6    1    1    2  501    0 -0.16198876527E+03 -0.69248687097E+02  0.33789307421E+01  0.24693350909E+03  0.17300000000E+03 0.  1.
         -6    1    1    2    0  503  0.16198876527E+03  0.69248687097E+02 -0.22837679927E+03  0.33633421352E+03  0.17300000000E+03 0.  1.
</event>
<event>
 4    1  0.6197496E+000  0.1000000E+03  0.7546771E-02  0.1280296E+00
         21   -1    0    0  501  502  0.00000000000E+00  0.00000000000E+00  0.26600612512E+04  0.26600612512E+04  0.00000000000E+00 0. -1.
         21   -1    0    0  502  503 -0.00000000000E+00 -0.00000000000E+00 -0.32661893841E+02  0.32661893841E+02  0.00000000000E+00 0. -1.
          6    1    1    2  501    0 -0.16827942751E+03  0.10596327401E+03  0.19163465049E+04  0.19343885618E+04  0.17300000000E+03 0. -1.
         -6    1    1    2    0  503  0.16827942751E+03 -0.10596327401E+03  0.71105285252E+03  0.75833458330E+03  0.17300000000E+03 0. -1.
</event>
<event>
 4    1  0.6197496E+000  0.1000000E+03  0.7546771E-02  0.1280296E+00
         21   -1    0    0  503  502  0.00000000000E+00  0.00000000000E+00  0.10462101821E+04  0.10462101821E+04  0.00000000000E+00 0.  1.
         21   -1    0    0  501  503 -0.00000000000E+00 -0.00000000000E+00 -0.22806355110E+03  0.22806355110E+03  0.00000000000E+00 0. -1.
          6    1    1    2  501    0 -0.49770546101E+02  0.22983095273E+03 -0.10175062740E+03  0.30916268253E+03  0.17300000000E+03 0. -1.
         -6    1    1    2    0  502  0.49770546101E+02 -0.22983095273E+03  0.91989725837E+03  0.96511105063E+03  0.17300000000E+03 0.  1.
</event>
<event>
 4    1  0.6197496E+000  0.1000000E+03  0.7546771E-02  0.1280296E+00
         21   -1    0    0  503  502  0.00000000000E+00  0.00000000000E+00  0.92549233382E+03  0.92549233382E+03  0.00000000000E+00 0.  1.
         21   -1    0    0  501  503 -0.00000000000E+00 -0.00000000000E+00 -0.97606194287E+02  0.97606194287E+02  0.00000000000E+00 0. -1.
          6    1    1    2  501    0  0.13649145834E+03  0.12438617651E+03  0.13790781465E+03  0.28818293574E+03  0.17300000000E+03 0. -1.
         -6    1    1    2    0  502 -0.13649145834E+03 -0.12438617651E+03  0.68997832488E+03  0.73491559237E+03  0.17300000000E+03 0.  1.
</event>
<event>
 4    1  0.6197496E+000  0.1000000E+03  0.7546771E-02  0.1280296E+00
         21   -1    0    0  503  502  0.00000000000E+00  0.00000000000E+00  0.11179178060E+03  0.11179178060E+03  0.00000000000E+00 0.  1.
         21   -1    0    0  501  503 -0.00000000000E+00 -0.00000000000E+00 -0.37710114571E+03  0.37710114571E+03  0.00000000000E+00 0. -1.
          6    1    1    2  501    0  0.29322100505E+02 -0.37528872922E+02 -0.13839760146E+02  0.17996872184E+03  0.17300000000E+03 0. -1.
         -6    1    1    2    0  502 -0.29322100505E+02  0.37528872922E+02 -0.25146960497E+03  0.30892420447E+03  0.17300000000E+03 0.  1.
</event>
<event>
 4    1  0.6197496E+000  0.1000000E+03  0.7546771E-02  0.1280296E+00
         21   -1    0    0  503  502  0.00000000000E+00  0.00000000000E+00  0.30883337022E+03  0.30883337022E+03  0.00000000000E+00 0.  1.
         21   -1    0    0  501  503 -0.00000000000E+00 -0.00000000000E+00 -0.14370428270E+03  0.14370428270E+03  0.00000000000E+00 0. -1.
          6    1    1    2  501    0 -0.10451646127E+03 -0.54259978580E+02  0.56612269573E+02  0.21679895069E+03  0.17300000000E+03 0. -1.
         -6    1    1    2    0  502  0.10451646127E+03  0.54259978580E+02  0.10851681794E+03  0.23573870223E+03  0.17300000000E+03 0.  1.
</event>
<event>
 4    1  0.6197496E+000  0.1000000E+03  0.7546771E-02  0.1280296E+00
         21   -1    0    0  503  502  0.00000000000E+00  0.00000000000E+00  0.23967285626E+03  0.23967285626E+03  0.00000000000E+00 0.  1.
         21   -1    0    0  501  503 -0.00000000000E+00 -0.00000000000E+00 -0.17804218939E+03  0.17804218939E+03  0.00000000000E+00 0.  1.
          6    1    1    2  501    0  0.14625321115E+02  0.36348130870E+02 -0.76222988709E+02  0.19306483534E+03  0.17300000000E+03 0.  1.
         -6    1    1    2    0  502 -0.14625321115E+02 -0.36348130870E+02  0.13785365559E+03  0.22465021031E+03  0.17300000000E+03 0.  1.
</event>
<event>
 4    1  0.6197496E+000  0.1000000E+03  0.7546771E-02  0.1280296E+00
         21   -1    0    0  503  502  0.00000000000E+00  0.00000000000E+00  0.10559599320E+04  0.10559599320E+04  0.00000000000E+00 0.  1.
         21   -1    0    0  501  503 -0.00000000000E+00 -0.00000000000E+00 -0.70505006890E+02  0.70505006890E+02  0.00000000000E+00 0.  1.
          6    1    1    2  501    0  0.66327645509E+02 -0.12917717375E+03  0.17672546279E+03  0.28678735672E+03  0.17300000000E+03 0.  1.
         -6    1    1    2    0  502 -0.66327645509E+02  0.12917717375E+03  0.80872946229E+03  0.83967758214E+03  0.17300000000E+03 0.  1.
</event>
<event>
 4    1  0.6197496E+000  0.1000000E+03  0.7546771E-02  0.1280296E+00
         21   -1    0    0  501  502  0.00000000000E+00  0.00000000000E+00  0.37335705645E+02  0.37335705645E+02  0.00000000000E+00 0. -1.
         21   -1    0    0  502  503 -0.00000000000E+00 -0.00000000000E+00 -0.10124146808E+04  0.10124146808E+04  0.00000000000E+00 0.  1.
          6    1    1    2  501    0  0.44284370038E+02 -0.66226390690E+02 -0.59290287614E+03  0.62274381634E+03  0.17300000000E+03 0. -1.
         -6    1    1    2    0  503 -0.44284370038E+02  0.66226390690E+02 -0.38217609900E+03  0.42700657009E+03  0.17300000000E+03 0.  1.
</event>
<event>
 4    1  0.6197496E+000  0.1000000E+03  0.7546771E-02  0.1280296E+00
         21   -1    0    0  501  502  0.00000000000E+00  0.00000000000E+00  0.15063975890E+03  0.15063975890E+03  0.00000000000E+00 0. -1.
         21   -1    0    0  502  503 -0.00000000000E+00 -0.00000000000E+00 -0.40212634060E+03  0.40212634060E+03  0.00000000000E+00 0.  1.
          6    1    1    2  501    0  0.12394154032E+03 -0.63777096355E+01  0.12908199533E+02  0.21330213832E+03  0.17300000000E+03 0. -1.
         -6    1    1    2    0  503 -0.12394154032E+03  0.63777096355E+01 -0.26439478123E+03  0.33946396118E+03  0.17300000000E+03 0.  1.
</event>
<event>
 4    1  0.6197496E+000  0.1000000E+03  0.7546771E-02  0.1280296E+00
         21   -1    0    0  501  502  0.00000000000E+00  0.00000000000E+00  0.19670079648E+03  0.19670079648E+03  0.00000000000E+00 0.  1.
         21   -1    0    0  502  503 -0.00000000000E+00 -0.00000000000E+00 -0.38171088815E+03  0.38171088815E+03  0.00000000000E+00 0.  1.
          6    1    1    2  501    0 -0.45969512660E+02 -0.32892709801E+02  0.12369102096E+03  0.22005361874E+03  0.17300000000E+03 0.  1.
         -6    1    1    2    0  503  0.45969512660E+02  0.32892709801E+02 -0.30870111263E+03  0.35835806589E+03  0.17300000000E+03 0.  1.
</event>
<event>
 4    1  0.6197496E+000  0.1000000E+03  0.7546771E-02  0.1280296E+00
         21   -1    0    0  501  502  0.00000000000E+00  0.00000000000E+00  0.11825690642E+03  0.11825690642E+03  0.00000000000E+00 0.  1.
         21   -1    0    0  502  503 -0.00000000000E+00 -0.00000000000E+00 -0.62132860864E+03  0.62132860864E+03  0.00000000000E+00 0.  1.
          6    1    1    2  501    0  0.51707401845E+02  0.16067284812E+03 -0.84131083978E+02  0.25592275948E+03  0.17300000000E+03 0.  1.
         -6    1    1    2    0  503 -0.51707401845E+02 -0.16067284812E+03 -0.41894061824E+03  0.48366275558E+03  0.17300000000E+03 0.  1.
</event>
<event>
 4    1  0.6197496E+000  0.1000000E+03  0.7546771E-02  0.1280296E+00
         21   -1    0    0  501  502  0.00000000000E+00  0.00000000000E+00  0.59106502420E+03  0.59106502420E+03  0.00000000000E+00 0. -1.
         21   -1    0    0  502  503 -0.00000000000E+00 -0.00000000000E+00 -0.53959998816E+02  0.53959998816E+02  0.00000000000E+00 0.  1.
          6    1    1    2  501    0 -0.38509761826E+02  0.20757884117E+02  0.25565880074E+03  0.31177606371E+03  0.17300000000E+03 0. -1.
         -6    1    1    2    0  503  0.38509761826E+02 -0.20757884117E+02  0.28144622464E+03  0.33324895930E+03  0.17300000000E+03 0.  1.
</event>
<event>
 4    1  0.6197496E+000  0.1000000E+03  0.7546771E-02  0.1280296E+00
         21   -1    0    0  501  502  0.00000000000E+00  0.00000000000E+00  0.52273804066E+03  0.52273804066E+03  0.00000000000E+00 0. -1.
         21   -1    0    0  502  503 -0.00000000000E+00 -0.00000000000E+00 -0.50655113802E+03  0.50655113802E+03  0.00000000000E+00 0.  1.
          6    1    1    2  501    0  0.17046569815E+03  0.11109347692E+03  0.44799354590E+03  0.52156258687E+03  0.17300000000E+03 0. -1.
         -6    1    1    2    0  503 -0.17046569815E+03 -0.11109347692E+03 -0.43180664326E+03  0.50772659180E+03  0.17300000000E+03 0.  1.
</event>
<event>
 4    1  0.6197496E+000  0.1000000E+03  0.7546771E-02  0.1280296E+00
         21   -1    0    0  501  502  0.00000000000E+00  0.00000000000E+00  0.10155975177E+03  0.10155975177E+03  0.00000000000E+00 0. -1.
         21   -1    0    0  502  503 -0.00000000000E+00 -0.00000000000E+00 -0.44961109623E+03  0.44961109623E+03  0.00000000000E+00 0.  1.
          6    1    1    2  501    0 -0.25840259248E+02 -0.82193607339E+02 -0.56461665582E+02  0.20134653651E+03  0.17300000000E+03 0. -1.
         -6    1    1    2    0  503  0.25840259248E+02  0.82193607339E+02 -0.29158967887E+03  0.34982431149E+03  0.17300000000E+03 0.  1.
</event>
<event>
 4    1  0.6197496E+000  0.1000000E+03  0.7546771E-02  0.1280296E+00
         21   -1    0    0  503  502  0.00000000000E+00  0.00000000000E+00  0.19760659798E+03  0.19760659798E+03  0.00000000000E+00 0. -1.
         21   -1    0    0  501  503 -0.00000000000E+00 -0.00000000000E+00 -0.20784384697E+03  0.20784384697E+03  0.00000000000E+00 0. -1.
          6    1    1    2  501    0  0.14723673887E+01 -0.10104792904E+03 -0.35615453985E+02  0.20349523923E+03  0.17300000000E+03 0. -1.
         -6    1    1    2    0  502 -0.14723673887E+01  0.10104792904E+03  0.25378204991E+02  0.20195520572E+03  0.17300000000E+03 0. -1.
</event>
<event>
 4    1  0.6197496E+000  0.1000000E+03  0.7546771E-02  0.1280296E+00
         21   -1    0    0  501  502  0.00000000000E+00  0.00000000000E+00  0.93780563106E+02  0.93780563106E+02  0.00000000000E+00 0. -1.
         21   -1    0    0  502  503 -0.00000000000E+00 -0.00000000000E+00 -0.40676714790E+03  0.40676714790E+03  0.00000000000E+00 0.  1.
          6    1    1    2  501    0  0.37859651557E+02  0.80501864164E+02 -0.13415312766E+03  0.23630481377E+03  0.17300000000E+03 0.  1.
         -6    1    1    2    0  503 -0.37859651557E+02 -0.80501864164E+02 -0.17883345713E+03  0.26424289724E+03  0.17300000000E+03 0.  1.
</event>
<event>
 4    1  0.6197496E+000  0.1000000E+03  0.7546771E-02  0.1280296E+00
         21   -1    0    0  501  502  0.00000000000E+00  0.00000000000E+00  0.15906348631E+03  0.15906348631E+03  0.00000000000E+00 0. -1.
         21   -1    0    0  502  503 -0.00000000000E+00 -0.00000000000E+00 -0.59926482979E+03  0.59926482979E+03  0.00000000000E+00 0.  1.
          6    1    1    2  501    0  0.12508557237E+03 -0.51444834576E+02  0.46425164246E+02  0.22444880774E+03  0.17300000000E+03 0.  1.
         -6    1    1    2    0  503 -0.12508557237E+03  0.51444834576E+02 -0.48662650773E+03  0.53387950836E+03  0.17300000000E+03 0.  1.
</event>
<event>
 4    1  0.6197496E+000  0.1000000E+03  0.7546771E-02  0.1280296E+00
         21   -1    0    0  503  502  0.00000000000E+00  0.00000000000E+00  0.35883809946E+03  0.35883809946E+03  0.00000000000E+00 0.  1.
         21   -1    0    0  501  503 -0.00000000000E+00 -0.00000000000E+00 -0.15573540713E+03  0.15573540713E+03  0.00000000000E+00 0.  1.
          6    1    1    2  501    0 -0.52122005510E+02 -0.12183999876E+03  0.18419934715E+01  0.21793136923E+03  0.17300000000E+03 0.  1.
         -6    1    1    2    0  502  0.52122005510E+02  0.12183999876E+03  0.20126069886E+03  0.29664213736E+03  0.17300000000E+03 0.  1.
</event>
<event>
 4    1  0.6197496E+000  0.1000000E+03  0.7546771E-02  0.1280296E+00
         21   -1    0    0  503  502  0.00000000000E+00  0.00000000000E+00  0.15221491902E+04  0.15221491902E+04  0.00000000000E+00 0. -1.
         21   -1    0    0  501  503 -0.00000000000E+00 -0.00000000000E+00 -0.59610586238E+02  0.59610586238E+02  0.00000000000E+00 0. -1.
          6    1    1    2  501    0  0.38901870196E+02  0.13837540409E+02  0.92972479691E+02  0.20069308660E+03  0.17300000000E+03 0.  1.
         -6    1    1    2    0  502 -0.38901870196E+02 -0.13837540409E+02  0.13695661243E+04  0.13810666898E+04  0.17300000000E+03 0.  1.
</event>
<event>
 4    1  0.6197496E+000  0.1000000E+03  0.7546771E-02  0.1280296E+00
         21   -1    0    0  503  502  0.00000000000E+00  0.00000000000E+00  0.23088928292E+03  0.23088928292E+03  0.00000000000E+00 0. -1.
         21   -1    0    0  501  503 -0.00000000000E+00 -0.00000000000E+00 -0.23179561976E+03  0.23179561976E+03  0.00000000000E+00 0. -1.
          6    1    1    2  501    0  0.90143225846E+02  0.12423492579E+03  0.50246591538E+01  0.23133172102E+03  0.17300000000E+03 0.  1.
         -6    1    1    2    0  502 -0.90143225846E+02 -0.12423492579E+03 -0.59309959875E+01  0.23135318166E+03  0.17300000000E+03 0.  1.
</event>
<event>
 4    1  0.6197496E+000  0.1000000E+03  0.7546771E-02  0.1280296E+00
         21   -1    0    0  503  502  0.00000000000E+00  0.00000000000E+00  0.50576861258E+03  0.50576861258E+03  0.00000000000E+00 0. -1.
         21   -1    0    0  501  503 -0.00000000000E+00 -0.00000000000E+00 -0.60604615120E+02  0.60604615120E+02  0.00000000000E+00 0. -1.
          6    1    1    2  501    0  0.18199384293E+02  0.11688686504E+02  0.19674911553E+03  0.26288221211E+03  0.17300000000E+03 0.  1.
         -6    1    1    2    0  502 -0.18199384293E+02 -0.11688686504E+02  0.24841488193E+03  0.30349101559E+03  0.17300000000E+03 0.  1.
</event>
<event>
 4    1  0.6197496E+000  0.1000000E+03  0.7546771E-02  0.1280296E+00
         21   -1    0    0  503  502  0.00000000000E+00  0.00000000000E+00  0.26032239825E+03  0.26032239825E+03  0.00000000000E+00 0.  1.
         21   -1    0    0  501  503 -0.00000000000E+00 -0.00000000000E+00 -0.25996779760E+03  0.25996779760E+03  0.00000000000E+00 0. -1.
          6    1    1    2  501    0 -0.11414195154E+02 -0.51929312889E+02 -0.18669035169E+03  0.26001773940E+03  0.17300000000E+03 0. -1.
         -6    1    1    2    0  502  0.11414195154E+02  0.51929312889E+02  0.18704495235E+03  0.26027245645E+03  0.17300000000E+03 0.  1.
</event>
<event>
 4    1  0.6197496E+000  0.1000000E+03  0.7546771E-02  0.1280296E+00
         21   -1    0    0  503  502  0.00000000000E+00  0.00000000000E+00  0.44507236906E+02  0.44507236906E+02  0.00000000000E+00 0.  1.
         21   -1    0    0  501  503 -0.00000000000E+00 -0.00000000000E+00 -0.15824690429E+04  0.15824690429E+04  0.00000000000E+00 0. -1.
          6    1    1    2  501    0 -0.16832296979E+03 -0.95958975040E+02 -0.60216791889E+03  0.65580176089E+03  0.17300000000E+03 0. -1.
         -6    1    1    2    0  502  0.16832296979E+03  0.95958975040E+02 -0.93579388710E+03  0.97117451891E+03  0.17300000000E+03 0.  1.
</event>
<event>
 4    1  0.6197496E+000  0.1000000E+03  0.7546771E-02  0.1280296E+00
         21   -1    0    0  501  502  0.00000000000E+00  0.00000000000E+00  0.48074158318E+03  0.48074158318E+03  0.00000000000E+00 0. -1.
         21   -1    0    0  502  503 -0.00000000000E+00 -0.00000000000E+00 -0.74515996855E+02  0.74515996855E+02  0.00000000000E+00 0. -1.
          6    1    1    2  501    0  0.28020306407E+02 -0.21877005187E+02  0.30292499817E+03  0.35065124474E+03  0.17300000000E+03 0. -1.
         -6    1    1    2    0  503 -0.28020306407E+02  0.21877005187E+02  0.10330058816E+03  0.20460633529E+03  0.17300000000E+03 0. -1.
</event>
<event>
 4    1  0.6197496E+000  0.1000000E+03  0.7546771E-02  0.1280296E+00
         21   -1    0    0  501  502  0.00000000000E+00  0.00000000000E+00  0.39960968102E+03  0.39960968102E+03  0.00000000000E+00 0. -1.
         21   -1    0    0  502  503 -0.00000000000E+00 -0.00000000000E+00 -0.37822734025E+03  0.37822734025E+03  0.00000000000E+00 0. -1.
          6    1    1    2  501    0 -0.22536066634E+03  0.54070967611E+02 -0.24922084583E+03  0.38177366261E+03  0.17300000000E+03 0. -1.
         -6    1    1    2    0  503  0.22536066634E+03 -0.54070967611E+02  0.27060318660E+03  0.39606335866E+03  0.17300000000E+03 0. -1.
</event>
<event>
 4    1  0.6197496E+000  0.1000000E+03  0.7546771E-02  0.1280296E+00
         21   -1    0    0  501  502  0.00000000000E+00  0.00000000000E+00  0.10983889838E+03  0.10983889838E+03  0.00000000000E+00 0. -1.
         21   -1    0    0  502  503 -0.00000000000E+00 -0.00000000000E+00 -0.19819674500E+04  0.19819674500E+04  0.00000000000E+00 0. -1.
          6    1    1    2  501    0  0.16640640617E+02  0.24252575583E+03 -0.13196817959E+03  0.32625182541E+03  0.17300000000E+03 0. -1.
         -6    1    1    2    0  503 -0.16640640617E+02 -0.24252575583E+03 -0.17401603721E+04  0.17655545230E+04  0.17300000000E+03 0. -1.
</event>
<event>
 4    1  0.6197496E+000  0.1000000E+03  0.7546771E-02  0.1280296E+00
         21   -1    0    0  501  502  0.00000000000E+00  0.00000000000E+00  0.60302613528E+02  0.60302613528E+02  0.00000000000E+00 0. -1.
         21   -1    0    0  502  503 -0.00000000000E+00 -0.00000000000E+00 -0.75550933970E+03  0.75550933970E+03  0.00000000000E+00 0. -1.
          6    1    1    2  501    0 -0.29255100999E+02  0.81879714566E+02 -0.17592723777E+03  0.26160952120E+03  0.17300000000E+03 0.  1.
         -6    1    1    2    0  503  0.29255100999E+02 -0.81879714566E+02 -0.51927948840E+03  0.55420243203E+03  0.17300000000E+03 0.  1.
</event>
<event>
 4    1  0.6197496E+000  0.1000000E+03  0.7546771E-02  0.1280296E+00
         21   -1    0    0  501  502  0.00000000000E+00  0.00000000000E+00  0.31744186838E+03  0.31744186838E+03  0.00000000000E+00 0. -1.
         21   -1    0    0  502  503 -0.00000000000E+00 -0.00000000000E+00 -0.11958124054E+03  0.11958124054E+03  0.00000000000E+00 0. -1.
          6    1    1    2  501    0 -0.15003800237E+02  0.88088024021E+02  0.91284275582E+02  0.21504983833E+03  0.17300000000E+03 0.  1.
         -6    1    1    2    0  503  0.15003800237E+02 -0.88088024021E+02  0.10657635226E+03  0.22197327060E+03  0.17300000000E+03 0.  1.
</event>
<event>
 4    1  0.6197496E+000  0.1000000E+03  0.7546771E-02  0.1280296E+00
         21   -1    0    0  501  502  0.00000000000E+00  0.00000000000E+00  0.90058553329E+02  0.90058553329E+02  0.00000000000E+00 0. -1.
         21   -1    0    0  502  503 -0.00000000000E+00 -0.00000000000E+00 -0.31587024477E+04  0.31587024477E+04  0.00000000000E+00 0. -1.
          6    1    1    2  501    0 -0.13424342385E+03  0.16130511195E+03 -0.13700326198E+03  0.30453165645E+03  0.17300000000E+03 0. -1.
         -6    1    1    2    0  503  0.13424342385E+03 -0.16130511195E+03 -0.29316406324E+04  0.29442293446E+04  0.17300000000E+03 0. -1.
</event>
<event>
 4    1  0.6197496E+000  0.1000000E+03  0.7546771E-02  0.1280296E+00
         21   -1    0    0  501  502  0.00000000000E+00  0.00000000000E+00  0.97465180229E+03  0.97465180229E+03  0.00000000000E+00 0. -1.
         21   -1    0    0  502  503 -0.00000000000E+00 -0.00000000000E+00 -0.37962737318E+02  0.37962737318E+02  0.00000000000E+00 0. -1.
          6    1    1    2  501    0 -0.49895696383E+02  0.31039174300E+02  0.62667748680E+03  0.65276847605E+03  0.17300000000E+03 0. -1.
         -6    1    1    2    0  503  0.49895696383E+02 -0.31039174300E+02  0.31001157817E+03  0.35984606355E+03  0.17300000000E+03 0. -1.
</event>
<event>
 4    1  0.6197496E+000  0.1000000E+03  0.7546771E-02  0.1280296E+00
         21   -1    0    0  503  502  0.00000000000E+00  0.00000000000E+00  0.11465577672E+04  0.11465577672E+04  0.00000000000E+00 0.  1.
         21   -1    0    0  501  503 -0.00000000000E+00 -0.00000000000E+00 -0.45974291487E+02  0.45974291487E+02  0.00000000000E+00 0.  1.
          6    1    1    2  501    0 -0.10536494622E+03  0.10605598877E+03  0.49621663759E+03  0.54636031706E+03  0.17300000000E+03 0.  1.
         -6    1    1    2    0  502  0.10536494622E+03 -0.10605598877E+03  0.60436683812E+03  0.64617174162E+03  0.17300000000E+03 0.  1.
</event>
<event>
 4    1  0.6197496E+000  0.1000000E+03  0.7546771E-02  0.1280296E+00
         21   -1    0    0  501  502  0.00000000000E+00  0.00000000000E+00  0.14345942878E+03  0.14345942878E+03  0.00000000000E+00 0.  1.
         21   -1    0    0  502  503 -0.00000000000E+00 -0.00000000000E+00 -0.38465885399E+03  0.38465885399E+03  0.00000000000E+00 0.  1.
          6    1    1    2  501    0 -0.12341736923E+03 -0.99696092440E+02 -0.11037230235E+03  0.25938813196E+03  0.17300000000E+03 0.  1.
         -6    1    1    2    0  503  0.12341736923E+03  0.99696092440E+02 -0.13082712287E+03  0.26873015081E+03  0.17300000000E+03 0.  1.
</event>
<event>
 4    1  0.6197496E+000  0.1000000E+03  0.7546771E-02  0.1280296E+00
         21   -1    0    0  501  502  0.00000000000E+00  0.00000000000E+00  0.87714405687E+03  0.87714405687E+03  0.00000000000E+00 0.  1.
         21   -1    0    0  502  503 -0.00000000000E+00 -0.00000000000E+00 -0.62144707829E+02  0.62144707829E+02  0.00000000000E+00 0.  1.
          6    1    1    2  501    0  0.59185540194E+01  0.51844824647E+02  0.70489645901E+03  0.72768876112E+03  0.17300000000E+03 0.  1.
         -6    1    1    2    0  503 -0.59185540194E+01 -0.51844824647E+02  0.11010289003E+03  0.21160000359E+03  0.17300000000E+03 0.  1.
</event>
<event>
 4    1  0.6197496E+000  0.1000000E+03  0.7546771E-02  0.1280296E+00
         21   -1    0    0  503  502  0.00000000000E+00  0.00000000000E+00  0.13300377823E+03  0.13300377823E+03  0.00000000000E+00 0.  1.
         21   -1    0    0  501  503 -0.00000000000E+00 -0.00000000000E+00 -0.50600387854E+03  0.50600387854E+03  0.00000000000E+00 0.  1.
          6    1    1    2  501    0 -0.55164349659E+02 -0.17149591274E+03 -0.10013496721E+03  0.26909099802E+03  0.17300000000E+03 0.  1.
         -6    1    1    2    0  502  0.55164349659E+02  0.17149591274E+03 -0.27286513310E+03  0.36991665875E+03  0.17300000000E+03 0.  1.
</event>
<event>
 4    1  0.6197496E+000  0.1000000E+03  0.7546771E-02  0.1280296E+00
         21   -1    0    0  501  502  0.00000000000E+00  0.00000000000E+00  0.39112791342E+02  0.39112791342E+02  0.00000000000E+00 0.  1.
         21   -1    0    0  502  503 -0.00000000000E+00 -0.00000000000E+00 -0.15806796612E+04  0.15806796612E+04  0.00000000000E+00 0. -1.
          6    1    1    2  501    0 -0.12650436128E+03 -0.73123398880E+02 -0.43629604555E+03  0.49156243169E+03  0.17300000000E+03 0.  1.
         -6    1    1    2    0  503  0.12650436128E+03  0.73123398880E+02 -0.11052708243E+04  0.11282300208E+04  0.17300000000E+03 0. -1.
</event>
<event>
 4    1  0.6197496E+000  0.1000000E+03  0.7546771E-02  0.1280296E+00
         21   -1    0    0  503  502  0.00000000000E+00  0.00000000000E+00  0.44662840849E+03  0.44662840849E+03  0.00000000000E+00 0.  1.
         21   -1    0    0  501  503 -0.00000000000E+00 -0.00000000000E+00 -0.84269342879E+02  0.84269342879E+02  0.00000000000E+00 0.  1.
          6    1    1    2  501    0  0.86752139135E+02  0.53110799214E+01  0.16420294275E+03  0.25386167025E+03  0.17300000000E+03 0.  1.
         -6    1    1    2    0  502 -0.86752139135E+02 -0.53110799214E+01  0.19815612286E+03  0.27703608112E+03  0.17300000000E+03 0.  1.
</event>
<event>
 4    1  0.6197496E+000  0.1000000E+03  0.7546771E-02  0.1280296E+00
         21   -1    0    0  501  502  0.00000000000E+00  0.00000000000E+00  0.19399479490E+03  0.19399479490E+03  0.00000000000E+00 0. -1.
         21   -1    0    0  502  503 -0.00000000000E+00 -0.00000000000E+00 -0.31723153961E+03  0.31723153961E+03  0.00000000000E+00 0.  1.
          6    1    1    2  501    0 -0.27963993148E+02 -0.16972134708E+03 -0.10798514015E+03  0.26679038787E+03  0.17300000000E+03 0.  1.
         -6    1    1    2    0  503  0.27963993148E+02  0.16972134708E+03 -0.15251604559E+02  0.24443594664E+03  0.17300000000E+03 0.  1.
</event>
<event>
 4    1  0.6197496E+000  0.1000000E+03  0.7546771E-02  0.1280296E+00
         21   -1    0    0  503  502  0.00000000000E+00  0.00000000000E+00  0.13506348809E+03  0.13506348809E+03  0.00000000000E+00 0.  1.
         21   -1    0    0  501  503 -0.00000000000E+00 -0.00000000000E+00 -0.23412783605E+03  0.23412783605E+03  0.00000000000E+00 0. -1.
          6    1    1    2  501    0 -0.27902522090E+02 -0.30173721617E+02 -0.51638706202E+02  0.18516090352E+03  0.17300000000E+03 0. -1.
         -6    1    1    2    0  502  0.27902522090E+02  0.30173721617E+02 -0.47425641766E+02  0.18403042062E+03  0.17300000000E+03 0.  1.
</event>
<event>
 4    1  0.6197496E+000  0.1000000E+03  0.7546771E-02  0.1280296E+00
         21   -1    0    0  503  502  0.00000000000E+00  0.00000000000E+00  0.24238889738E+03  0.24238889738E+03  0.00000000000E+00 0.  1.
         21   -1    0    0  501  503 -0.00000000000E+00 -0.00000000000E+00 -0.23371258001E+03  0.23371258001E+03  0.00000000000E+00 0. -1.
          6    1    1    2  501    0 -0.12212209476E+03 -0.58954248249E+02 -0.86950903062E+02  0.23638711674E+03  0.17300000000E+03 0. -1.
         -6    1    1    2    0  502  0.12212209476E+03  0.58954248249E+02  0.95627220435E+02  0.23971436065E+03  0.17300000000E+03 0.  1.
</event>
<event>
 4    1  0.6197496E+000  0.1000000E+03  0.7546771E-02  0.1280296E+00
         21   -1    0    0  501  502  0.00000000000E+00  0.00000000000E+00  0.14961672414E+03  0.14961672414E+03  0.00000000000E+00 0. -1.
         21   -1    0    0  502  503 -0.00000000000E+00 -0.00000000000E+00 -0.34149133313E+03  0.34149133313E+03  0.00000000000E+00 0.  1.
          6    1    1    2  501    0  0.75386153413E+02 -0.84232840988E+02  0.35421669316E+01  0.20668766430E+03  0.17300000000E+03 0. -1.
         -6    1    1    2    0  503 -0.75386153413E+02  0.84232840988E+02 -0.19541677592E+03  0.28442039297E+03  0.17300000000E+03 0.  1.
</event>
<event>
 4    1  0.6197496E+000  0.1000000E+03  0.7546771E-02  0.1280296E+00
         21   -1    0    0  503  502  0.00000000000E+00  0.00000000000E+00  0.10252212680E+04  0.10252212680E+04  0.00000000000E+00 0.  1.
         21   -1    0    0  501  503 -0.00000000000E+00 -0.00000000000E+00 -0.31582655598E+02  0.31582655598E+02  0.00000000000E+00 0.  1.
          6    1    1    2  501    0  0.19234573673E+02  0.73177073997E+01  0.36462120069E+03  0.40410535465E+03  0.17300000000E+03 0.  1.
         -6    1    1    2    0  502 -0.19234573673E+02 -0.73177073997E+01  0.62901741172E+03  0.65269856895E+03  0.17300000000E+03 0.  1.
</event>
<event>
 4    1  0.6197496E+000  0.1000000E+03  0.7546771E-02  0.1280296E+00
         21   -1    0    0  503  502  0.00000000000E+00  0.00000000000E+00  0.57745022865E+03  0.57745022865E+03  0.00000000000E+00 0.  1.
         21   -1    0    0  501  503 -0.00000000000E+00 -0.00000000000E+00 -0.10465509234E+03  0.10465509234E+03  0.00000000000E+00 0.  1.
          6    1    1    2  501    0  0.40761181915E+02  0.40493336068E+01  0.85036665039E+00  0.17778524736E+03  0.17300000000E+03 0.  1.
         -6    1    1    2    0  502 -0.40761181915E+02 -0.40493336068E+01  0.47194476967E+03  0.50432007363E+03  0.17300000000E+03 0.  1.
</event>
<event>
 4    1  0.6197496E+000  0.1000000E+03  0.7546771E-02  0.1280296E+00
         21   -1    0    0  503  502  0.00000000000E+00  0.00000000000E+00  0.81190852108E+03  0.81190852108E+03  0.00000000000E+00 0.  1.
         21   -1    0    0  501  503 -0.00000000000E+00 -0.00000000000E+00 -0.60060291203E+02  0.60060291203E+02  0.00000000000E+00 0.  1.
          6    1    1    2  501    0 -0.11730730480E+03 -0.59889516718E+01  0.23579281920E+03  0.31515730181E+03  0.17300000000E+03 0.  1.
         -6    1    1    2    0  502  0.11730730480E+03  0.59889516718E+01  0.51605541068E+03  0.55681151047E+03  0.17300000000E+03 0.  1.
</event>
<event>
 4    1  0.6197496E+000  0.1000000E+03  0.7546771E-02  0.1280296E+00
         21   -1    0    0  503  502  0.00000000000E+00  0.00000000000E+00  0.12927206331E+03  0.12927206331E+03  0.00000000000E+00 0.  1.
         21   -1    0    0  501  503 -0.00000000000E+00 -0.00000000000E+00 -0.63738125471E+03  0.63738125471E+03  0.00000000000E+00 0.  1.
          6    1    1    2  501    0 -0.16213429903E+03 -0.96342570443E+02 -0.80464875696E+02  0.26827787464E+03  0.17300000000E+03 0.  1.
         -6    1    1    2    0  502  0.16213429903E+03  0.96342570443E+02 -0.42764431571E+03  0.49837544338E+03  0.17300000000E+03 0.  1.
</event>
<event>
 4    1  0.6197496E+000  0.1000000E+03  0.7546771E-02  0.1280296E+00
         21   -1    0    0  503  502  0.00000000000E+00  0.00000000000E+00  0.55140616153E+03  0.55140616153E+03  0.00000000000E+00 0.  1.
         21   -1    0    0  501  503 -0.00000000000E+00 -0.00000000000E+00 -0.11890538946E+03  0.11890538946E+03  0.00000000000E+00 0.  1.
          6    1    1    2  501    0  0.22366531856E+02  0.99485580871E+02  0.83084475284E+01  0.20098674794E+03  0.17300000000E+03 0.  1.
         -6    1    1    2    0  502 -0.22366531856E+02 -0.99485580871E+02  0.42419232454E+03  0.46932480304E+03  0.17300000000E+03 0.  1.
</event>
<event>
 4    1  0.6197496E+000  0.1000000E+03  0.7546771E-02  0.1280296E+00
         21   -1    0    0  503  502  0.00000000000E+00  0.00000000000E+00  0.55405401213E+02  0.55405401213E+02  0.00000000000E+00 0. -1.
         21   -1    0    0  501  503 -0.00000000000E+00 -0.00000000000E+00 -0.60035007217E+03  0.60035007217E+03  0.00000000000E+00 0.  1.
          6    1    1    2  501    0  0.10506593395E+02 -0.20344529187E+02 -0.36775993395E+03  0.40706345622E+03  0.17300000000E+03 0.  1.
         -6    1    1    2    0  502 -0.10506593395E+02  0.20344529187E+02 -0.17718473701E+03  0.24869201717E+03  0.17300000000E+03 0. -1.
</event>
<event>
 4    1  0.6197496E+000  0.1000000E+03  0.7546771E-02  0.1280296E+00
         21   -1    0    0  501  502  0.00000000000E+00  0.00000000000E+00  0.17005782228E+03  0.17005782228E+03  0.00000000000E+00 0. -1.
         21   -1    0    0  502  503 -0.00000000000E+00 -0.00000000000E+00 -0.24042508169E+03  0.24042508169E+03  0.00000000000E+00 0. -1.
          6    1    1    2  501    0 -0.10381247922E+03  0.13247501317E+02 -0.37369749837E+02  0.20561620884E+03  0.17300000000E+03 0. -1.
         -6    1    1    2    0  503  0.10381247922E+03 -0.13247501317E+02 -0.32997509573E+02  0.20486669513E+03  0.17300000000E+03 0. -1.
</event>
<event>
 4    1  0.6197496E+000  0.1000000E+03  0.7546771E-02  0.1280296E+00
         21   -1    0    0  501  502  0.00000000000E+00  0.00000000000E+00  0.46579461529E+03  0.46579461529E+03  0.00000000000E+00 0. -1.
         21   -1    0    0  502  503 -0.00000000000E+00 -0.00000000000E+00 -0.18343203010E+03  0.18343203010E+03  0.00000000000E+00 0. -1.
          6    1    1    2  501    0 -0.13611651084E+03 -0.49588229332E+02  0.34753124416E+03  0.41435934004E+03  0.17300000000E+03 0. -1.
         -6    1    1    2    0  503  0.13611651084E+03  0.49588229332E+02 -0.65168658974E+02  0.23486730535E+03  0.17300000000E+03 0. -1.
</event>
<event>
 4    1  0.6197496E+000  0.1000000E+03  0.7546771E-02  0.1280296E+00
         21   -1    0    0  501  502  0.00000000000E+00  0.00000000000E+00  0.27258955046E+03  0.27258955046E+03  0.00000000000E+00 0. -1.
         21   -1    0    0  502  503 -0.00000000000E+00 -0.00000000000E+00 -0.17415440473E+03  0.17415440473E+03  0.00000000000E+00 0. -1.
          6    1    1    2  501    0  0.27916321903E+02  0.28054337650E+02  0.17880372827E+03  0.25192487001E+03  0.17300000000E+03 0. -1.
         -6    1    1    2    0  503 -0.27916321903E+02 -0.28054337650E+02 -0.80368582533E+02  0.19481908517E+03  0.17300000000E+03 0. -1.
</event>
<event>
 4    1  0.6197496E+000  0.1000000E+03  0.7546771E-02  0.1280296E+00
         21   -1    0    0  501  502  0.00000000000E+00  0.00000000000E+00  0.35559071120E+02  0.35559071120E+02  0.00000000000E+00 0. -1.
         21   -1    0    0  502  503 -0.00000000000E+00 -0.00000000000E+00 -0.11168160082E+04  0.11168160082E+04  0.00000000000E+00 0. -1.
          6    1    1    2  501    0  0.93040638089E+02 -0.33554986173E+02 -0.53715594534E+03  0.57292932116E+03  0.17300000000E+03 0. -1.
         -6    1    1    2    0  503 -0.93040638089E+02  0.33554986173E+02 -0.54410099170E+03  0.57944575812E+03  0.17300000000E+03 0. -1.
</event>
<event>
 4    1  0.6197496E+000  0.1000000E+03  0.7546771E-02  0.1280296E+00
         21   -1    0    0  501  502  0.00000000000E+00  0.00000000000E+00  0.21140628920E+04  0.21140628920E+04  0.00000000000E+00 0. -1.
         21   -1    0    0  502  503 -0.00000000000E+00 -0.00000000000E+00 -0.13882525087E+03  0.13882525087E+03  0.00000000000E+00 0.  1.
          6    1    1    2  501    0  0.39297063477E+03 -0.32826162947E+03  0.10647126281E+04  0.11940366818E+04  0.17300000000E+03 0. -1.
         -6    1    1    2    0  503 -0.39297063477E+03  0.32826162947E+03  0.91052501308E+03  0.10588514611E+04  0.17300000000E+03 0. -1.
</event>
<event>
 4    1  0.6197496E+000  0.1000000E+03  0.7546771E-02  0.1280296E+00
         21   -1    0    0  501  502  0.00000000000E+00  0.00000000000E+00  0.21218454201E+03  0.21218454201E+03  0.00000000000E+00 0. -1.
         21   -1    0    0  502  503 -0.00000000000E+00 -0.00000000000E+00 -0.57670385549E+03  0.57670385549E+03  0.00000000000E+00 0.  1.
          6    1    1    2  501    0 -0.56389155766E+02 -0.80076371355E+01  0.15450150935E+03  0.23883796920E+03  0.17300000000E+03 0. -1.
         -6    1    1    2    0  503  0.56389155766E+02  0.80076371355E+01 -0.51902082283E+03  0.55005042829E+03  0.17300000000E+03 0. -1.
</event>
<event>
 4    1  0.6197496E+000  0.1000000E+03  0.7546771E-02  0.1280296E+00
         21   -1    0    0  501  502  0.00000000000E+00  0.00000000000E+00  0.62555094320E+03  0.62555094320E+03  0.00000000000E+00 0.  1.
         21   -1    0    0  502  503 -0.00000000000E+00 -0.00000000000E+00 -0.13317156223E+03  0.13317156223E+03  0.00000000000E+00 0.  1.
          6    1    1    2  501    0 -0.12236741577E+03  0.32683349032E+02  0.50015341930E+03  0.54417316048E+03  0.17300000000E+03 0.  1.
         -6    1    1    2    0  503  0.12236741577E+03 -0.32683349032E+02 -0.77740383347E+01  0.21454934495E+03  0.17300000000E+03 0.  1.
</event>
<event>
 4    1  0.6197496E+000  0.1000000E+03  0.7546771E-02  0.1280296E+00
         21   -1    0    0  501  502  0.00000000000E+00  0.00000000000E+00  0.39768071290E+03  0.39768071290E+03  0.00000000000E+00 0.  1.
         21   -1    0    0  502  503 -0.00000000000E+00 -0.00000000000E+00 -0.12385908829E+03  0.12385908829E+03  0.00000000000E+00 0.  1.
          6    1    1    2  501    0 -0.65698740413E+02 -0.57749254170E+02  0.26387305833E+03  0.32742830019E+03  0.17300000000E+03 0.  1.
         -6    1    1    2    0  503  0.65698740413E+02  0.57749254170E+02  0.99485662762E+01  0.19411150100E+03  0.17300000000E+03 0.  1.
</event>
<event>
 4    1  0.6197496E+000  0.1000000E+03  0.7546771E-02  0.1280296E+00
         21   -1    0    0  503  502  0.00000000000E+00  0.00000000000E+00  0.21445159461E+03  0.21445159461E+03  0.00000000000E+00 0.  1.
         21   -1    0    0  501  503 -0.00000000000E+00 -0.00000000000E+00 -0.34480617213E+03  0.34480617213E+03  0.00000000000E+00 0.  1.
          6    1    1    2  501    0  0.17063731772E+03 -0.34547674051E+02 -0.18555969359E+03  0.30768821210E+03  0.17300000000E+03 0.  1.
         -6    1    1    2    0  502 -0.17063731772E+03  0.34547674051E+02  0.55205116064E+02  0.25156955464E+03  0.17300000000E+03 0.  1.
</event>
<event>
 4    1  0.6197496E+000  0.1000000E+03  0.7546771E-02  0.1280296E+00
         21   -1    0    0  501  502  0.00000000000E+00  0.00000000000E+00  0.47912648135E+03  0.47912648135E+03  0.00000000000E+00 0. -1.
         21   -1    0    0  502  503 -0.00000000000E+00 -0.00000000000E+00 -0.80182695125E+02  0.80182695125E+02  0.00000000000E+00 0.  1.
          6    1    1    2  501    0 -0.23339411349E+02 -0.85771494866E+02  0.23404515548E+03  0.30431498855E+03  0.17300000000E+03 0. -1.
         -6    1    1    2    0  503  0.23339411349E+02  0.85771494866E+02  0.16489863075E+03  0.25499418793E+03  0.17300000000E+03 0. -1.
</event>
<event>
 4    1  0.6197496E+000  0.1000000E+03  0.7546771E-02  0.1280296E+00
         21   -1    0    0  501  502  0.00000000000E+00  0.00000000000E+00  0.40002045662E+03  0.40002045662E+03  0.00000000000E+00 0. -1.
         21   -1    0    0  502  503 -0.00000000000E+00 -0.00000000000E+00 -0.15799991658E+03  0.15799991658E+03  0.00000000000E+00 0.  1.
          6    1    1    2  501    0  0.11521599013E+03  0.21828291582E+02  0.27607884937E+03  0.34626540365E+03  0.17300000000E+03 0. -1.
         -6    1    1    2    0  503 -0.11521599013E+03 -0.21828291582E+02 -0.34058309320E+02  0.21175496955E+03  0.17300000000E+03 0. -1.
</event>
<event>
 4    1  0.6197496E+000  0.1000000E+03  0.7546771E-02  0.1280296E+00
         21   -1    0    0  501  502  0.00000000000E+00  0.00000000000E+00  0.24265535956E+04  0.24265535956E+04  0.00000000000E+00 0. -1.
         21   -1    0    0  502  503 -0.00000000000E+00 -0.00000000000E+00 -0.14624228469E+03  0.14624228469E+03  0.00000000000E+00 0.  1.
          6    1    1    2  501    0  0.30508877119E+02 -0.19632348964E+03  0.22939225967E+04  0.23090005595E+04  0.17300000000E+03 0. -1.
         -6    1    1    2    0  503 -0.30508877119E+02  0.19632348964E+03 -0.13611285787E+02  0.26379532078E+03  0.17300000000E+03 0. -1.
</event>
<event>
 4    1  0.6197496E+000  0.1000000E+03  0.7546771E-02  0.1280296E+00
         21   -1    0    0  503  502  0.00000000000E+00  0.00000000000E+00  0.17698579977E+03  0.17698579977E+03  0.00000000000E+00 0.  1.
         21   -1    0    0  501  503 -0.00000000000E+00 -0.00000000000E+00 -0.22484518676E+03  0.22484518676E+03  0.00000000000E+00 0. -1.
          6    1    1    2  501    0 -0.74963477703E+02  0.39019193642E+02 -0.76489882597E+02  0.20717558399E+03  0.17300000000E+03 0. -1.
         -6    1    1    2    0  502  0.74963477703E+02 -0.39019193642E+02  0.28630495607E+02  0.19465540255E+03  0.17300000000E+03 0.  1.
</event>
<event>
 4    1  0.6197496E+000  0.1000000E+03  0.7546771E-02  0.1280296E+00
         21   -1    0    0  503  502  0.00000000000E+00  0.00000000000E+00  0.22722254809E+04  0.22722254809E+04  0.00000000000E+00 0. -1.
         21   -1    0    0  501  503 -0.00000000000E+00 -0.00000000000E+00 -0.33095005838E+03  0.33095005838E+03  0.00000000000E+00 0.  1.
          6    1    1    2  501    0  0.10610906529E+03 -0.56212070678E+03  0.27513225557E+02  0.59826816755E+03  0.17300000000E+03 0.  1.
         -6    1    1    2    0  502 -0.10610906529E+03  0.56212070678E+03  0.19137621969E+04  0.20049073717E+04  0.17300000000E+03 0. -1.
</event>
<event>
 4    1  0.6197496E+000  0.1000000E+03  0.7546771E-02  0.1280296E+00
         21   -1    0    0  503  502  0.00000000000E+00  0.00000000000E+00  0.63464974647E+02  0.63464974647E+02  0.00000000000E+00 0. -1.
         21   -1    0    0  501  503 -0.00000000000E+00 -0.00000000000E+00 -0.11681291220E+04  0.11681291220E+04  0.00000000000E+00 0.  1.
          6    1    1    2  501    0 -0.35503348804E+02 -0.12364133772E+03 -0.92846413285E+03  0.95316436891E+03  0.17300000000E+03 0.  1.
         -6    1    1    2    0  502  0.35503348804E+02  0.12364133772E+03 -0.17620001447E+03  0.27842972770E+03  0.17300000000E+03 0. -1.
</event>
<event>
 4    1  0.6197496E+000  0.1000000E+03  0.7546771E-02  0.1280296E+00
         21   -1    0    0  503  502  0.00000000000E+00  0.00000000000E+00  0.75149725092E+03  0.75149725092E+03  0.00000000000E+00 0. -1.
         21   -1    0    0  501  503 -0.00000000000E+00 -0.00000000000E+00 -0.76588951258E+02  0.76588951258E+02  0.00000000000E+00 0. -1.
          6    1    1    2  501    0  0.13800370333E+03  0.48032032259E+02  0.20073931988E+03  0.30261753552E+03  0.17300000000E+03 0. -1.
         -6    1    1    2    0  502 -0.13800370333E+03 -0.48032032259E+02  0.47416897978E+03  0.52546866666E+03  0.17300000000E+03 0. -1.
</event>
<event>
 4    1  0.6197496E+000  0.1000000E+03  0.7546771E-02  0.1280296E+00
         21   -1    0    0  503  502  0.00000000000E+00  0.00000000000E+00  0.12823277746E+04  0.12823277746E+04  0.00000000000E+00 0. -1.
         21   -1    0    0  501  503 -0.00000000000E+00 -0.00000000000E+00 -0.28403834453E+02  0.28403834453E+02  0.00000000000E+00 0. -1.
          6    1    1    2  501    0  0.21070177507E+01 -0.21731214360E+02  0.36058414762E+03  0.40053291090E+03  0.17300000000E+03 0. -1.
         -6    1    1    2    0  502 -0.21070177507E+01  0.21731214360E+02  0.89333979250E+03  0.91019869812E+03  0.17300000000E+03 0. -1.
</event>
<event>
 4    1  0.6197496E+000  0.1000000E+03  0.7546771E-02  0.1280296E+00
         21   -1    0    0  503  502  0.00000000000E+00  0.00000000000E+00  0.25307934246E+02  0.25307934246E+02  0.00000000000E+00 0. -1.
         21   -1    0    0  501  503 -0.00000000000E+00 -0.00000000000E+00 -0.15878310248E+04  0.15878310248E+04  0.00000000000E+00 0. -1.
          6    1    1    2  501    0  0.86892402129E+00 -0.41561519321E+02 -0.11528180892E+04  0.11664675999E+04  0.17300000000E+03 0. -1.
         -6    1    1    2    0  502 -0.86892402129E+00  0.41561519321E+02 -0.40970500141E+03  0.44667135916E+03  0.17300000000E+03 0. -1.
</event>
<event>
 4    1  0.6197496E+000  0.1000000E+03  0.7546771E-02  0.1280296E+00
         21   -1    0    0  503  502  0.00000000000E+00  0.00000000000E+00  0.13781963765E+03  0.13781963765E+03  0.00000000000E+00 0. -1.
         21   -1    0    0  501  503 -0.00000000000E+00 -0.00000000000E+00 -0.30250073006E+03  0.30250073006E+03  0.00000000000E+00 0. -1.
          6    1    1    2  501    0  0.44649673165E+02  0.13728889257E+02 -0.18787412062E+03  0.25963004624E+03  0.17300000000E+03 0. -1.
         -6    1    1    2    0  502 -0.44649673165E+02 -0.13728889257E+02  0.23193028219E+02  0.18069032147E+03  0.17300000000E+03 0. -1.
</event>
<event>
 4    1  0.6197496E+000  0.1000000E+03  0.7546771E-02  0.1280296E+00
         21   -1    0    0  503  502  0.00000000000E+00  0.00000000000E+00  0.11576953146E+04  0.11576953146E+04  0.00000000000E+00 0. -1.
         21   -1    0    0  501  503 -0.00000000000E+00 -0.00000000000E+00 -0.82284317174E+03  0.82284317174E+03  0.00000000000E+00 0. -1.
          6    1    1    2  501    0 -0.32298533621E+03 -0.97569090992E+02 -0.74506193360E+03  0.83599374389E+03  0.17300000000E+03 0. -1.
         -6    1    1    2    0  502  0.32298533621E+03  0.97569090992E+02  0.10799140764E+04  0.11445447424E+04  0.17300000000E+03 0. -1.
</event>
<event>
 4    1  0.6197496E+000  0.1000000E+03  0.7546771E-02  0.1280296E+00
         21   -1    0    0  503  502  0.00000000000E+00  0.00000000000E+00  0.95412521666E+03  0.95412521666E+03  0.00000000000E+00 0. -1.
         21   -1    0    0  501  503 -0.00000000000E+00 -0.00000000000E+00 -0.82724411556E+02  0.82724411556E+02  0.00000000000E+00 0. -1.
          6    1    1    2  501    0  0.19562151271E+03 -0.92724625996E+02  0.52096059964E+03  0.59008014615E+03  0.17300000000E+03 0. -1.
         -6    1    1    2    0  502 -0.19562151271E+03  0.92724625996E+02  0.35044020547E+03  0.44676948207E+03  0.17300000000E+03 0. -1.
</event>
<event>
 4    1  0.6197496E+000  0.1000000E+03  0.7546771E-02  0.1280296E+00
         21   -1    0    0  503  502  0.00000000000E+00  0.00000000000E+00  0.46819986603E+03  0.46819986603E+03  0.00000000000E+00 0.  1.
         21   -1    0    0  501  503 -0.00000000000E+00 -0.00000000000E+00 -0.48465735595E+03  0.48465735595E+03  0.00000000000E+00 0. -1.
          6    1    1    2  501    0 -0.23235226492E+03  0.84320791248E+01 -0.38634444728E+03  0.48295932222E+03  0.17300000000E+03 0.  1.
         -6    1    1    2    0  502  0.23235226492E+03 -0.84320791248E+01  0.36988695736E+03  0.46989789976E+03  0.17300000000E+03 0. -1.
</event>
<event>
 4    1  0.6197496E+000  0.1000000E+03  0.7546771E-02  0.1280296E+00
         21   -1    0    0  503  502  0.00000000000E+00  0.00000000000E+00  0.25893243262E+04  0.25893243262E+04  0.00000000000E+00 0.  1.
         21   -1    0    0  501  503 -0.00000000000E+00 -0.00000000000E+00 -0.39517029570E+02  0.39517029570E+02  0.00000000000E+00 0. -1.
          6    1    1    2  501    0  0.20773975385E+03 -0.20057629710E+02  0.57713542326E+03  0.63763030874E+03  0.17300000000E+03 0.  1.
         -6    1    1    2    0  502 -0.20773975385E+03  0.20057629710E+02  0.19726718733E+04  0.19912110470E+04  0.17300000000E+03 0. -1.
</event>
<event>
 4    1  0.6197496E+000  0.1000000E+03  0.7546771E-02  0.1280296E+00
         21   -1    0    0  503  502  0.00000000000E+00  0.00000000000E+00  0.13179183979E+03  0.13179183979E+03  0.00000000000E+00 0.  1.
         21   -1    0    0  501  503 -0.00000000000E+00 -0.00000000000E+00 -0.10056618224E+04  0.10056618224E+04  0.00000000000E+00 0.  1.
          6    1    1    2  501    0 -0.27782435326E+03 -0.25251252342E+02 -0.68287441679E+03  0.75767438000E+03  0.17300000000E+03 0.  1.
         -6    1    1    2    0  502  0.27782435326E+03  0.25251252342E+02 -0.19099556581E+03  0.37977928217E+03  0.17300000000E+03 0.  1.
</event>
<event>
 4    1  0.6197496E+000  0.1000000E+03  0.7546771E-02  0.1280296E+00
         21   -1    0    0  503  502  0.00000000000E+00  0.00000000000E+00  0.87238640834E+03  0.87238640834E+03  0.00000000000E+00 0.  1.
         21   -1    0    0  501  503 -0.00000000000E+00 -0.00000000000E+00 -0.61027025322E+02  0.61027025322E+02  0.00000000000E+00 0.  1.
          6    1    1    2  501    0  0.97043907067E+02  0.11725896360E+03  0.42986436978E+03  0.48772898299E+03  0.17300000000E+03 0.  1.
         -6    1    1    2    0  502 -0.97043907067E+02 -0.11725896360E+03  0.38149501324E+03  0.44568445067E+03  0.17300000000E+03 0.  1.
</event>
<event>
 4    1  0.6197496E+000  0.1000000E+03  0.7546771E-02  0.1280296E+00
         21   -1    0    0  501  502  0.00000000000E+00  0.00000000000E+00  0.28722664577E+03  0.28722664577E+03  0.00000000000E+00 0.  1.
         21   -1    0    0  502  503 -0.00000000000E+00 -0.00000000000E+00 -0.14549244957E+03  0.14549244957E+03  0.00000000000E+00 0.  1.
          6    1    1    2  501    0  0.22303410773E+02  0.13467115368E+02  0.18278345508E+03  0.25301698912E+03  0.17300000000E+03 0.  1.
         -6    1    1    2    0  503 -0.22303410773E+02 -0.13467115368E+02 -0.41049258885E+02  0.17970210623E+03  0.17300000000E+03 0.  1.
</event>
<event>
 4    1  0.6197496E+000  0.1000000E+03  0.7546771E-02  0.1280296E+00
         21   -1    0    0  503  502  0.00000000000E+00  0.00000000000E+00  0.27620970881E+03  0.27620970881E+03  0.00000000000E+00 0.  1.
         21   -1    0    0  501  503 -0.00000000000E+00 -0.00000000000E+00 -0.20110205962E+03  0.20110205962E+03  0.00000000000E+00 0.  1.
          6    1    1    2  501    0  0.91011932729E+02 -0.12444219103E+03  0.81088156624E+02  0.24550625237E+03  0.17300000000E+03 0.  1.
         -6    1    1    2    0  502 -0.91011932729E+02  0.12444219103E+03 -0.59805074347E+01  0.23180551606E+03  0.17300000000E+03 0.  1.
</event>
<event>
 4    1  0.6197496E+000  0.1000000E+03  0.7546771E-02  0.1280296E+00
         21   -1    0    0  503  502  0.00000000000E+00  0.00000000000E+00  0.46730859323E+03  0.46730859323E+03  0.00000000000E+00 0.  1.
         21   -1    0    0  501  503 -0.00000000000E+00 -0.00000000000E+00 -0.11566826967E+03  0.11566826967E+03  0.00000000000E+00 0.  1.
          6    1    1    2  501    0  0.56543903235E+01  0.95541272836E+02  0.32918696773E+03  0.38399631075E+03  0.17300000000E+03 0.  1.
         -6    1    1    2    0  502 -0.56543903235E+01 -0.95541272836E+02  0.22453355823E+02  0.19898055215E+03  0.17300000000E+03 0.  1.
</event>
<event>
 4    1  0.6197496E+000  0.1000000E+03  0.7546771E-02  0.1280296E+00
         21   -1    0    0  503  502  0.00000000000E+00  0.00000000000E+00  0.67911368303E+03  0.67911368303E+03  0.00000000000E+00 0.  1.
         21   -1    0    0  501  503 -0.00000000000E+00 -0.00000000000E+00 -0.10866301264E+03  0.10866301264E+03  0.00000000000E+00 0.  1.
          6    1    1    2  501    0  0.10102067574E+03 -0.14257495410E+03  0.11780014662E+03  0.27265118560E+03  0.17300000000E+03 0.  1.
         -6    1    1    2    0  502 -0.10102067574E+03  0.14257495410E+03  0.45265052377E+03  0.51512551008E+03  0.17300000000E+03 0.  1.
</event>
<event>
 4    1  0.6197496E+000  0.1000000E+03  0.7546771E-02  0.1280296E+00
         21   -1    0    0  503  502  0.00000000000E+00  0.00000000000E+00  0.78670791441E+03  0.78670791441E+03  0.00000000000E+00 0.  1.
         21   -1    0    0  501  503 -0.00000000000E+00 -0.00000000000E+00 -0.48979619403E+02  0.48979619403E+02  0.00000000000E+00 0.  1.
          6    1    1    2  501    0  0.63691502714E+02 -0.46570971480E+01  0.22566977724E+03  0.29143463149E+03  0.17300000000E+03 0.  1.
         -6    1    1    2    0  502 -0.63691502714E+02  0.46570971480E+01  0.51205851776E+03  0.54425290232E+03  0.17300000000E+03 0.  1.
</event>
<event>
 4    1  0.6197496E+000  0.1000000E+03  0.7546771E-02  0.1280296E+00
         21   -1    0    0  503  502  0.00000000000E+00  0.00000000000E+00  0.54767756660E+03  0.54767756660E+03  0.00000000000E+00 0.  1.
         21   -1    0    0  501  503 -0.00000000000E+00 -0.00000000000E+00 -0.14184313357E+03  0.14184313357E+03  0.00000000000E+00 0. -1.
          6    1    1    2  501    0  0.16337277660E+03 -0.81632546257E+02  0.54479772491E+02  0.25739382734E+03  0.17300000000E+03 0. -1.
         -6    1    1    2    0  502 -0.16337277660E+03  0.81632546257E+02  0.35135466054E+03  0.43212687283E+03  0.17300000000E+03 0.  1.
</event>
<event>
 4    1  0.6197496E+000  0.1000000E+03  0.7546771E-02  0.1280296E+00
         21   -1    0    0  503  502  0.00000000000E+00  0.00000000000E+00  0.83491095983E+02  0.83491095983E+02  0.00000000000E+00 0.  1.
         21   -1    0    0  501  503 -0.00000000000E+00 -0.00000000000E+00 -0.10964861440E+04  0.10964861440E+04  0.00000000000E+00 0. -1.
          6    1    1    2  501    0  0.21766104233E+03 -0.95409523176E+02 -0.64627627346E+03  0.70998685065E+03  0.17300000000E+03 0. -1.
         -6    1    1    2    0  502 -0.21766104233E+03  0.95409523176E+02 -0.36671877459E+03  0.46999038937E+03  0.17300000000E+03 0.  1.
</event>
<event>
 4    1  0.6197496E+000  0.1000000E+03  0.7546771E-02  0.1280296E+00
         21   -1    0    0  503  502  0.00000000000E+00  0.00000000000E+00  0.11443172285E+03  0.11443172285E+03  0.00000000000E+00 0. -1.
         21   -1    0    0  501  503 -0.00000000000E+00 -0.00000000000E+00 -0.35319522076E+03  0.35319522076E+03  0.00000000000E+00 0. -1.
          6    1    1    2  501    0 -0.53756639463E+02  0.39999090534E+02 -0.29309010270E+02  0.18782364498E+03  0.17300000000E+03 0. -1.
         -6    1    1    2    0  502  0.53756639463E+02 -0.39999090534E+02 -0.20945448765E+03  0.27980329863E+03  0.17300000000E+03 0. -1.
</event>
<event>
 4    1  0.6197496E+000  0.1000000E+03  0.7546771E-02  0.1280296E+00
         21   -1    0    0  503  502  0.00000000000E+00  0.00000000000E+00  0.30587035879E+03  0.30587035879E+03  0.00000000000E+00 0. -1.
         21   -1    0    0  501  503 -0.00000000000E+00 -0.00000000000E+00 -0.17677333234E+04  0.17677333234E+04  0.00000000000E+00 0. -1.
          6    1    1    2  501    0  0.47339535301E+03  0.30409512817E+02 -0.14846417955E+04  0.15681575685E+04  0.17300000000E+03 0. -1.
         -6    1    1    2    0  502 -0.47339535301E+03 -0.30409512817E+02  0.22778830858E+02  0.50544611371E+03  0.17300000000E+03 0. -1.
</event>
<event>
 4    1  0.6197496E+000  0.1000000E+03  0.7546771E-02  0.1280296E+00
         21   -1    0    0  503  502  0.00000000000E+00  0.00000000000E+00  0.92940850844E+03  0.92940850844E+03  0.00000000000E+00 0. -1.
         21   -1    0    0  501  503 -0.00000000000E+00 -0.00000000000E+00 -0.45345914172E+02  0.45345914172E+02  0.00000000000E+00 0. -1.
          6    1    1    2  501    0 -0.86018502556E+02 -0.66024940209E+02  0.49280540404E+03  0.53342726004E+03  0.17300000000E+03 0. -1.
         -6    1    1    2    0  502  0.86018502556E+02  0.66024940209E+02  0.39125719023E+03  0.44132716257E+03  0.17300000000E+03 0. -1.
</event>
<event>
 4    1  0.6197496E+000  0.1000000E+03  0.7546771E-02  0.1280296E+00
         21   -1    0    0  503  502  0.00000000000E+00  0.00000000000E+00  0.12748717554E+03  0.12748717554E+03  0.00000000000E+00 0. -1.
         21   -1    0    0  501  503 -0.00000000000E+00 -0.00000000000E+00 -0.37816855521E+03  0.37816855521E+03  0.00000000000E+00 0. -1.
          6    1    1    2  501    0  0.75327734778E+02 -0.12815759517E+02 -0.25378984283E+03  0.31650718102E+03  0.17300000000E+03 0. -1.
         -6    1    1    2    0  502 -0.75327734778E+02  0.12815759517E+02  0.31084631555E+01  0.18914854972E+03  0.17300000000E+03 0. -1.
</event>
<event>
 4    1  0.6197496E+000  0.1000000E+03  0.7546771E-02  0.1280296E+00
         21   -1    0    0  503  502  0.00000000000E+00  0.00000000000E+00  0.31790433230E+03  0.31790433230E+03  0.00000000000E+00 0. -1.
         21   -1    0    0  501  503 -0.00000000000E+00 -0.00000000000E+00 -0.40797843518E+03  0.40797843518E+03  0.00000000000E+00 0. -1.
          6    1    1    2  501    0 -0.63591844907E+02  0.17578942605E+02 -0.35633815030E+03  0.40157044130E+03  0.17300000000E+03 0. -1.
         -6    1    1    2    0  502  0.63591844907E+02 -0.17578942605E+02  0.26626404742E+03  0.32431232618E+03  0.17300000000E+03 0. -1.
</event>
<event>
 4    1  0.6197496E+000  0.1000000E+03  0.7546771E-02  0.1280296E+00
         21   -1    0    0  501  502  0.00000000000E+00  0.00000000000E+00  0.46708918868E+03  0.46708918868E+03  0.00000000000E+00 0. -1.
         21   -1    0    0  502  503 -0.00000000000E+00 -0.00000000000E+00 -0.14552994992E+03  0.14552994992E+03  0.00000000000E+00 0.  1.
          6    1    1    2  501    0 -0.56396127344E+02 -0.11936430702E+03  0.32947719582E+03  0.39485767504E+03  0.17300000000E+03 0. -1.
         -6    1    1    2    0  503  0.56396127344E+02  0.11936430702E+03 -0.79179570651E+01  0.21776146357E+03  0.17300000000E+03 0.  1.
</event>
<event>
 4    1  0.6197496E+000  0.1000000E+03  0.7546771E-02  0.1280296E+00
         21   -1    0    0  501  502  0.00000000000E+00  0.00000000000E+00  0.32462332808E+03  0.32462332808E+03  0.00000000000E+00 0. -1.
         21   -1    0    0  502  503 -0.00000000000E+00 -0.00000000000E+00 -0.41156042895E+03  0.41156042895E+03  0.00000000000E+00 0.  1.
          6    1    1    2  501    0  0.90539566261E+02  0.80623885962E+02  0.25692096215E+03  0.33261840725E+03  0.17300000000E+03 0. -1.
         -6    1    1    2    0  503 -0.90539566261E+02 -0.80623885962E+02 -0.34385806302E+03  0.40356534979E+03  0.17300000000E+03 0.  1.
</event>
<event>
 4    1  0.6197496E+000  0.1000000E+03  0.7546771E-02  0.1280296E+00
         21   -1    0    0  501  502  0.00000000000E+00  0.00000000000E+00  0.24928921819E+03  0.24928921819E+03  0.00000000000E+00 0.  1.
         21   -1    0    0  502  503 -0.00000000000E+00 -0.00000000000E+00 -0.23715204581E+03  0.23715204581E+03  0.00000000000E+00 0. -1.
          6    1    1    2  501    0  0.22241280784E+02  0.10185307816E+03 -0.12933132992E+03  0.23984227526E+03  0.17300000000E+03 0. -1.
         -6    1    1    2    0  503 -0.22241280784E+02 -0.10185307816E+03  0.14146850230E+03  0.24659898874E+03  0.17300000000E+03 0. -1.
</event>
<event>
 4    1  0.6197496E+000  0.1000000E+03  0.7546771E-02  0.1280296E+00
         21   -1    0    0  501  502  0.00000000000E+00  0.00000000000E+00  0.77595920598E+03  0.77595920598E+03  0.00000000000E+00 0.  1.
         21   -1    0    0  502  503 -0.00000000000E+00 -0.00000000000E+00 -0.26359649749E+03  0.26359649749E+03  0.00000000000E+00 0. -1.
          6    1    1    2  501    0  0.33257840618E+03  0.14304535012E+02  0.54647158702E+03  0.66285233001E+03  0.17300000000E+03 0. -1.
         -6    1    1    2    0  503 -0.33257840618E+03 -0.14304535012E+02 -0.34108878525E+02  0.37670337346E+03  0.17300000000E+03 0. -1.
</event>
<event>
 4    1  0.6197496E+000  0.1000000E+03  0.7546771E-02  0.1280296E+00
         21   -1    0    0  501  502  0.00000000000E+00  0.00000000000E+00  0.40074422764E+03  0.40074422764E+03  0.00000000000E+00 0.  1.
         21   -1    0    0  502  503 -0.00000000000E+00 -0.00000000000E+00 -0.10867487222E+03  0.10867487222E+03  0.00000000000E+00 0. -1.
          6    1    1    2  501    0 -0.24062921020E+02 -0.31445653991E+01  0.28537211143E+03  0.33459700303E+03  0.17300000000E+03 0. -1.
         -6    1    1    2    0  503  0.24062921020E+02  0.31445653991E+01  0.66972439927E+01  0.17482209682E+03  0.17300000000E+03 0. -1.
</event>
<event>
 4    1  0.6197496E+000  0.1000000E+03  0.7546771E-02  0.1280296E+00
         21   -1    0    0  501  502  0.00000000000E+00  0.00000000000E+00  0.35746475292E+03  0.35746475292E+03  0.00000000000E+00 0.  1.
         21   -1    0    0  502  503 -0.00000000000E+00 -0.00000000000E+00 -0.94056111027E+03  0.94056111027E+03  0.00000000000E+00 0. -1.
          6    1    1    2  501    0  0.29124367498E+02 -0.17090599075E+03  0.29672590782E+03  0.38474972492E+03  0.17300000000E+03 0. -1.
         -6    1    1    2    0  503 -0.29124367498E+02  0.17090599075E+03 -0.87982226516E+03  0.91327613827E+03  0.17300000000E+03 0. -1.
</event>
<event>
 4    1  0.6197496E+000  0.1000000E+03  0.7546771E-02  0.1280296E+00
         21   -1    0    0  503  502  0.00000000000E+00  0.00000000000E+00  0.14115986635E+03  0.14115986635E+03  0.00000000000E+00 0.  1.
         21   -1    0    0  501  503 -0.00000000000E+00 -0.00000000000E+00 -0.55176967222E+03  0.55176967222E+03  0.00000000000E+00 0.  1.
          6    1    1    2  501    0 -0.20194882299E+03  0.84652675516E+02 -0.20909699960E+03  0.34871185501E+03  0.17300000000E+03 0.  1.
         -6    1    1    2    0  502  0.20194882299E+03 -0.84652675516E+02 -0.20151280628E+03  0.34421768356E+03  0.17300000000E+03 0.  1.
</event>
<event>
 4    1  0.6197496E+000  0.1000000E+03  0.7546771E-02  0.1280296E+00
         21   -1    0    0  503  502  0.00000000000E+00  0.00000000000E+00  0.11000197082E+02  0.11000197082E+02  0.00000000000E+00 0.  1.
         21   -1    0    0  501  503 -0.00000000000E+00 -0.00000000000E+00 -0.30810992920E+04  0.30810992920E+04  0.00000000000E+00 0.  1.
          6    1    1    2  501    0  0.43591284189E+02  0.35965092019E+02 -0.17680833921E+04  0.17774255453E+04  0.17300000000E+03 0.  1.
         -6    1    1    2    0  502 -0.43591284189E+02 -0.35965092019E+02 -0.13020157028E+04  0.13146739437E+04  0.17300000000E+03 0.  1.
</event>
<event>
 4    1  0.6197496E+000  0.1000000E+03  0.7546771E-02  0.1280296E+00
         21   -1    0    0  503  502  0.00000000000E+00  0.00000000000E+00  0.15386513098E+03  0.15386513098E+03  0.00000000000E+00 0.  1.
         21   -1    0    0  501  503 -0.00000000000E+00 -0.00000000000E+00 -0.24692852432E+03  0.24692852432E+03  0.00000000000E+00 0.  1.
          6    1    1    2  501    0  0.36071271314E+02 -0.78218948831E+02 -0.72649249563E+02  0.20646126521E+03  0.17300000000E+03 0.  1.
         -6    1    1    2    0  502 -0.36071271314E+02  0.78218948831E+02 -0.20414143777E+02  0.19433239009E+03  0.17300000000E+03 0.  1.
</event>
<event>
 4    1  0.6197496E+000  0.1000000E+03  0.7546771E-02  0.1280296E+00
         21   -1    0    0  503  502  0.00000000000E+00  0.00000000000E+00  0.62368061515E+02  0.62368061515E+02  0.00000000000E+00 0.  1.
         21   -1    0    0  501  503 -0.00000000000E+00 -0.00000000000E+00 -0.29795321374E+04  0.29795321374E+04  0.00000000000E+00 0.  1.
          6    1    1    2  501    0 -0.20254357753E+03 -0.22045664914E+03 -0.55028036264E+03  0.64989423175E+03  0.17300000000E+03 0.  1.
         -6    1    1    2    0  502  0.20254357753E+03  0.22045664914E+03 -0.23668837133E+04  0.23920059672E+04  0.17300000000E+03 0.  1.
</event>
<event>
 4    1  0.6197496E+000  0.1000000E+03  0.7546771E-02  0.1280296E+00
         21   -1    0    0  501  502  0.00000000000E+00  0.00000000000E+00  0.84688365470E+02  0.84688365470E+02  0.00000000000E+00 0.  1.
         21   -1    0    0  502  503 -0.00000000000E+00 -0.00000000000E+00 -0.84193191882E+03  0.84193191882E+03  0.00000000000E+00 0. -1.
          6    1    1    2  501    0  0.17922068425E+03 -0.51634971752E+02 -0.23780559844E+03  0.34823372413E+03  0.17300000000E+03 0.  1.
         -6    1    1    2    0  503 -0.17922068425E+03  0.51634971752E+02 -0.51943795491E+03  0.57838656016E+03  0.17300000000E+03 0. -1.
</event>
<event>
 4    1  0.6197496E+000  0.1000000E+03  0.7546771E-02  0.1280296E+00
         21   -1    0    0  501  502  0.00000000000E+00  0.00000000000E+00  0.26459651585E+03  0.26459651585E+03  0.00000000000E+00 0.  1.
         21   -1    0    0  502  503 -0.00000000000E+00 -0.00000000000E+00 -0.16661732867E+03  0.16661732867E+03  0.00000000000E+00 0. -1.
          6    1    1    2  501    0 -0.24153262702E+02 -0.58547799601E+02  0.15242303507E+03  0.23910877558E+03  0.17300000000E+03 0.  1.
         -6    1    1    2    0  503  0.24153262702E+02  0.58547799601E+02 -0.54443847893E+02  0.19210506894E+03  0.17300000000E+03 0. -1.
</event>
<event>
 4    1  0.6197496E+000  0.1000000E+03  0.7546771E-02  0.1280296E+00
         21   -1    0    0  501  502  0.00000000000E+00  0.00000000000E+00  0.73510382410E+03  0.73510382410E+03  0.00000000000E+00 0.  1.
         21   -1    0    0  502  503 -0.00000000000E+00 -0.00000000000E+00 -0.38656523265E+03  0.38656523265E+03  0.00000000000E+00 0. -1.
          6    1    1    2  501    0  0.20306476672E+03  0.23091430297E+03  0.59468031108E+03  0.69146972977E+03  0.17300000000E+03 0.  1.
         -6    1    1    2    0  503 -0.20306476672E+03 -0.23091430297E+03 -0.24614171962E+03  0.43019932699E+03  0.17300000000E+03 0. -1.
</event>
<event>
 4    1  0.6197496E+000  0.1000000E+03  0.7546771E-02  0.1280296E+00
         21   -1    0    0  503  502  0.00000000000E+00  0.00000000000E+00  0.16932577671E+04  0.16932577671E+04  0.00000000000E+00 0.  1.
         21   -1    0    0  501  503 -0.00000000000E+00 -0.00000000000E+00 -0.25202562205E+02  0.25202562205E+02  0.00000000000E+00 0.  1.
          6    1    1    2  501    0  0.16348240876E+02 -0.71043532698E+01  0.37034482604E+03  0.40914792800E+03  0.17300000000E+03 0.  1.
         -6    1    1    2    0  502 -0.16348240876E+02  0.71043532698E+01  0.12977103789E+04  0.13093124013E+04  0.17300000000E+03 0.  1.
</event>
<event>
 4    1  0.6197496E+000  0.1000000E+03  0.7546771E-02  0.1280296E+00
         21   -1    0    0  501  502  0.00000000000E+00  0.00000000000E+00  0.59532547701E+02  0.59532547701E+02  0.00000000000E+00 0. -1.
         21   -1    0    0  502  503 -0.00000000000E+00 -0.00000000000E+00 -0.60973035676E+03  0.60973035676E+03  0.00000000000E+00 0. -1.
          6    1    1    2  501    0  0.34379844736E+01 -0.23140467875E+02 -0.14107712371E+03  0.22445279198E+03  0.17300000000E+03 0. -1.
         -6    1    1    2    0  503 -0.34379844736E+01  0.23140467875E+02 -0.40912068534E+03  0.44481011248E+03  0.17300000000E+03 0. -1.
</event>
<event>
 4    1  0.6197496E+000  0.1000000E+03  0.7546771E-02  0.1280296E+00
         21   -1    0    0  501  502  0.00000000000E+00  0.00000000000E+00  0.13645925449E+03  0.13645925449E+03  0.00000000000E+00 0. -1.
         21   -1    0    0  502  503 -0.00000000000E+00 -0.00000000000E+00 -0.35691317530E+03  0.35691317530E+03  0.00000000000E+00 0. -1.
          6    1    1    2  501    0 -0.34190527105E+01  0.30131571286E+01 -0.26330502032E+03  0.31508618307E+03  0.17300000000E+03 0. -1.
         -6    1    1    2    0  503  0.34190527105E+01 -0.30131571286E+01  0.42851099513E+02  0.17828624671E+03  0.17300000000E+03 0. -1.
</event>
<event>
 4    1  0.6197496E+000  0.1000000E+03  0.7546771E-02  0.1280296E+00
         21   -1    0    0  501  502  0.00000000000E+00  0.00000000000E+00  0.61616033056E+02  0.61616033056E+02  0.00000000000E+00 0. -1.
         21   -1    0    0  502  503 -0.00000000000E+00 -0.00000000000E+00 -0.99492313390E+03  0.99492313390E+03  0.00000000000E+00 0. -1.
          6    1    1    2  501    0 -0.60704303195E+02 -0.12427390564E+03 -0.23055303939E+03  0.31970724111E+03  0.17300000000E+03 0. -1.
         -6    1    1    2    0  503  0.60704303195E+02  0.12427390564E+03 -0.70275406146E+03  0.73683192585E+03  0.17300000000E+03 0. -1.
</event>
<event>
 4    1  0.6197496E+000  0.1000000E+03  0.7546771E-02  0.1280296E+00
         21   -1    0    0  501  502  0.00000000000E+00  0.00000000000E+00  0.21597684239E+03  0.21597684239E+03  0.00000000000E+00 0. -1.
         21   -1    0    0  502  503 -0.00000000000E+00 -0.00000000000E+00 -0.26639361199E+03  0.26639361199E+03  0.00000000000E+00 0. -1.
          6    1    1    2  501    0 -0.12113938680E+03 -0.80400149297E+02  0.55651630649E+02  0.23273383732E+03  0.17300000000E+03 0. -1.
         -6    1    1    2    0  503  0.12113938680E+03  0.80400149297E+02 -0.10606840025E+03  0.24963661705E+03  0.17300000000E+03 0. -1.
</event>
<event>
 4    1  0.6197496E+000  0.1000000E+03  0.7546771E-02  0.1280296E+00
         21   -1    0    0  503  502  0.00000000000E+00  0.00000000000E+00  0.53668493405E+02  0.53668493405E+02  0.00000000000E+00 0. -1.
         21   -1    0    0  501  503 -0.00000000000E+00 -0.00000000000E+00 -0.80016251315E+03  0.80016251315E+03  0.00000000000E+00 0. -1.
          6    1    1    2  501    0  0.69291574534E+02 -0.83356314385E+02 -0.44651672463E+03  0.49097431992E+03  0.17300000000E+03 0. -1.
         -6    1    1    2    0  502 -0.69291574534E+02  0.83356314385E+02 -0.29997729512E+03  0.36285668663E+03  0.17300000000E+03 0. -1.
</event>
<event>
 4    1  0.6197496E+000  0.1000000E+03  0.7546771E-02  0.1280296E+00
         21   -1    0    0  501  502  0.00000000000E+00  0.00000000000E+00  0.63913179691E+02  0.63913179691E+02  0.00000000000E+00 0.  1.
         21   -1    0    0  502  503 -0.00000000000E+00 -0.00000000000E+00 -0.10280228302E+04  0.10280228302E+04  0.00000000000E+00 0.  1.
          6    1    1    2  501    0 -0.26172134042E+01 -0.17520108882E+03 -0.33034967819E+03  0.41202206398E+03  0.17300000000E+03 0.  1.
         -6    1    1    2    0  503  0.26172134042E+01  0.17520108882E+03 -0.63375997237E+03  0.67991394595E+03  0.17300000000E+03 0.  1.
</event>
<event>
 4    1  0.6197496E+000  0.1000000E+03  0.7546771E-02  0.1280296E+00
         21   -1    0    0  501  502  0.00000000000E+00  0.00000000000E+00  0.12140222078E+04  0.12140222078E+04  0.00000000000E+00 0. -1.
         21   -1    0    0  502  503 -0.00000000000E+00 -0.00000000000E+00 -0.30739236856E+02  0.30739236856E+02  0.00000000000E+00 0. -1.
          6    1    1    2  501    0 -0.42991391218E+02 -0.34806451740E+02  0.80362812822E+03  0.82389739486E+03  0.17300000000E+03 0. -1.
         -6    1    1    2    0  503  0.42991391218E+02  0.34806451740E+02  0.37965484273E+03  0.42086404979E+03  0.17300000000E+03 0. -1.
</event>
<event>
 4    1  0.6197496E+000  0.1000000E+03  0.7546771E-02  0.1280296E+00
         21   -1    0    0  503  502  0.00000000000E+00  0.00000000000E+00  0.20325802528E+03  0.20325802528E+03  0.00000000000E+00 0. -1.
         21   -1    0    0  501  503 -0.00000000000E+00 -0.00000000000E+00 -0.59271488935E+03  0.59271488935E+03  0.00000000000E+00 0. -1.
          6    1    1    2  501    0  0.10753650777E+02 -0.23984799286E+03 -0.40271487694E+03  0.49975091075E+03  0.17300000000E+03 0.  1.
         -6    1    1    2    0  502 -0.10753650777E+02  0.23984799286E+03  0.13258012874E+02  0.29622200389E+03  0.17300000000E+03 0.  1.
</event>
<event>
 4    1  0.6197496E+000  0.1000000E+03  0.7546771E-02  0.1280296E+00
         21   -1    0    0  503  502  0.00000000000E+00  0.00000000000E+00  0.13556182400E+03  0.13556182400E+03  0.00000000000E+00 0. -1.
         21   -1    0    0  501  503 -0.00000000000E+00 -0.00000000000E+00 -0.49288243746E+03  0.49288243746E+03  0.00000000000E+00 0. -1.
          6    1    1    2  501    0 -0.10080981038E+03 -0.38022416793E+02 -0.37193453019E+03  0.42411391960E+03  0.17300000000E+03 0.  1.
         -6    1    1    2    0  502  0.10080981038E+03  0.38022416793E+02  0.14613916733E+02  0.20433034187E+03  0.17300000000E+03 0.  1.
</event>
<event>
 4    1  0.6197496E+000  0.1000000E+03  0.7546771E-02  0.1280296E+00
         21   -1    0    0  503  502  0.00000000000E+00  0.00000000000E+00  0.10482620451E+04  0.10482620451E+04  0.00000000000E+00 0. -1.
         21   -1    0    0  501  503 -0.00000000000E+00 -0.00000000000E+00 -0.36469674434E+02  0.36469674434E+02  0.00000000000E+00 0. -1.
          6    1    1    2  501    0 -0.47825016904E+02  0.36187708999E+02  0.69614624561E+03  0.71982315731E+03  0.17300000000E+03 0.  1.
         -6    1    1    2    0  502  0.47825016904E+02 -0.36187708999E+02  0.31564612510E+03  0.36490856227E+03  0.17300000000E+03 0.  1.
</event>
<event>
 4    1  0.6197496E+000  0.1000000E+03  0.7546771E-02  0.1280296E+00
         21   -1    0    0  503  502  0.00000000000E+00  0.00000000000E+00  0.32348635876E+02  0.32348635876E+02  0.00000000000E+00 0. -1.
         21   -1    0    0  501  503 -0.00000000000E+00 -0.00000000000E+00 -0.11487399463E+04  0.11487399463E+04  0.00000000000E+00 0. -1.
          6    1    1    2  501    0  0.52270200388E+02  0.66053352754E+02 -0.52247620205E+03  0.55678146608E+03  0.17300000000E+03 0.  1.
         -6    1    1    2    0  502 -0.52270200388E+02 -0.66053352754E+02 -0.59391510838E+03  0.62430711611E+03  0.17300000000E+03 0.  1.
</event>
<event>
 4    1  0.6197496E+000  0.1000000E+03  0.7546771E-02  0.1280296E+00
         21   -1    0    0  503  502  0.00000000000E+00  0.00000000000E+00  0.54620170142E+03  0.54620170142E+03  0.00000000000E+00 0. -1.
         21   -1    0    0  501  503 -0.00000000000E+00 -0.00000000000E+00 -0.86247485060E+02  0.86247485060E+02  0.00000000000E+00 0. -1.
          6    1    1    2  501    0  0.71627467889E+02 -0.35386440373E+02  0.78588218052E+02  0.20612569548E+03  0.17300000000E+03 0.  1.
         -6    1    1    2    0  502 -0.71627467889E+02  0.35386440373E+02  0.38136599831E+03  0.42632349101E+03  0.17300000000E+03 0.  1.
</event>
<event>
 4    1  0.6197496E+000  0.1000000E+03  0.7546771E-02  0.1280296E+00
         21   -1    0    0  503  502  0.00000000000E+00  0.00000000000E+00  0.16436202098E+03  0.16436202098E+03  0.00000000000E+00 0. -1.
         21   -1    0    0  501  503 -0.00000000000E+00 -0.00000000000E+00 -0.12141850552E+04  0.12141850552E+04  0.00000000000E+00 0. -1.
          6    1    1    2  501    0 -0.17570290463E+03 -0.30852047113E+03 -0.84701440647E+03  0.93456877573E+03  0.17300000000E+03 0.  1.
         -6    1    1    2    0  502  0.17570290463E+03  0.30852047113E+03 -0.20280862779E+03  0.44397830050E+03  0.17300000000E+03 0.  1.
</event>
<event>
 4    1  0.6197496E+000  0.1000000E+03  0.7546771E-02  0.1280296E+00
         21   -1    0    0  501  502  0.00000000000E+00  0.00000000000E+00  0.10950081174E+03  0.10950081174E+03  0.00000000000E+00 0.  1.
         21   -1    0    0  502  503 -0.00000000000E+00 -0.00000000000E+00 -0.54924081418E+03  0.54924081418E+03  0.00000000000E+00 0.  1.
          6    1    1    2  501    0  0.10664963389E+03  0.88411992245E+02 -0.78864874834E+02  0.23524347656E+03  0.17300000000E+03 0.  1.
         -6    1    1    2    0  503 -0.10664963389E+03 -0.88411992245E+02 -0.36087512761E+03  0.42349814935E+03  0.17300000000E+03 0.  1.
</event>
<event>
 4    1  0.6197496E+000  0.1000000E+03  0.7546771E-02  0.1280296E+00
         21   -1    0    0  503  502  0.00000000000E+00  0.00000000000E+00  0.99363549583E+02  0.99363549583E+02  0.00000000000E+00 0. -1.
         21   -1    0    0  501  503 -0.00000000000E+00 -0.00000000000E+00 -0.35634407972E+03  0.35634407972E+03  0.00000000000E+00 0. -1.
          6    1    1    2  501    0 -0.40978969705E+02  0.58072222278E+02 -0.15351090191E+03  0.24196333599E+03  0.17300000000E+03 0. -1.
         -6    1    1    2    0  502  0.40978969705E+02 -0.58072222278E+02 -0.10346962823E+03  0.21374429331E+03  0.17300000000E+03 0. -1.
</event>
<event>
 4    1  0.6197496E+000  0.1000000E+03  0.7546771E-02  0.1280296E+00
         21   -1    0    0  501  502  0.00000000000E+00  0.00000000000E+00  0.61438870083E+02  0.61438870083E+02  0.00000000000E+00 0.  1.
         21   -1    0    0  502  503 -0.00000000000E+00 -0.00000000000E+00 -0.11777585098E+04  0.11777585098E+04  0.00000000000E+00 0. -1.
          6    1    1    2  501    0  0.76796772494E+02 -0.71891033023E+02 -0.15023136079E+03  0.25212006398E+03  0.17300000000E+03 0. -1.
         -6    1    1    2    0  503 -0.76796772494E+02  0.71891033023E+02 -0.96608827889E+03  0.98707731587E+03  0.17300000000E+03 0.  1.
</event>
<event>
 4    1  0.6197496E+000  0.1000000E+03  0.7546771E-02  0.1280296E+00
         21   -1    0    0  501  502  0.00000000000E+00  0.00000000000E+00  0.24817405178E+03  0.24817405178E+03  0.00000000000E+00 0.  1.
         21   -1    0    0  502  503 -0.00000000000E+00 -0.00000000000E+00 -0.39356427753E+03  0.39356427753E+03  0.00000000000E+00 0. -1.
          6    1    1    2  501    0  0.12021453793E+03 -0.11789536439E+03  0.13107910090E+03  0.27470271707E+03  0.17300000000E+03 0. -1.
         -6    1    1    2    0  503 -0.12021453793E+03  0.11789536439E+03 -0.27646932665E+03  0.36703561224E+03  0.17300000000E+03 0.  1.
</event>
<event>
 4    1  0.6197496E+000  0.1000000E+03  0.7546771E-02  0.1280296E+00
         21   -1    0    0  501  502  0.00000000000E+00  0.00000000000E+00  0.35470848733E+02  0.35470848733E+02  0.00000000000E+00 0.  1.
         21   -1    0    0  502  503 -0.00000000000E+00 -0.00000000000E+00 -0.18452533444E+04  0.18452533444E+04  0.00000000000E+00 0. -1.
          6    1    1    2  501    0  0.81847308184E+02  0.15938348394E+03 -0.68988674360E+03  0.73346765151E+03  0.17300000000E+03 0. -1.
         -6    1    1    2    0  503 -0.81847308184E+02 -0.15938348394E+03 -0.11198957520E+04  0.11472565416E+04  0.17300000000E+03 0.  1.
</event>
<event>
 4    1  0.6197496E+000  0.1000000E+03  0.7546771E-02  0.1280296E+00
         21   -1    0    0  501  502  0.00000000000E+00  0.00000000000E+00  0.11032057043E+04  0.11032057043E+04  0.00000000000E+00 0.  1.
         21   -1    0    0  502  503 -0.00000000000E+00 -0.00000000000E+00 -0.86204201083E+02  0.86204201083E+02  0.00000000000E+00 0. -1.
          6    1    1    2  501    0 -0.91142666417E+02  0.20652734708E+03  0.73839497911E+03  0.79127534772E+03  0.17300000000E+03 0. -1.
         -6    1    1    2    0  503  0.91142666417E+02 -0.20652734708E+03  0.27860652412E+03  0.39813455768E+03  0.17300000000E+03 0.  1.
</event>
<event>
 4    1  0.6197496E+000  0.1000000E+03  0.7546771E-02  0.1280296E+00
         21   -1    0    0  503  502  0.00000000000E+00  0.00000000000E+00  0.11819452638E+03  0.11819452638E+03  0.00000000000E+00 0.  1.
         21   -1    0    0  501  503 -0.00000000000E+00 -0.00000000000E+00 -0.14115316133E+04  0.14115316133E+04  0.00000000000E+00 0.  1.
          6    1    1    2  501    0  0.13144776829E+03 -0.63781567265E+02 -0.12832337836E+04  0.13030596868E+04  0.17300000000E+03 0.  1.
         -6    1    1    2    0  502 -0.13144776829E+03  0.63781567265E+02 -0.10103303348E+02  0.22666645286E+03  0.17300000000E+03 0.  1.
</event>
<event>
 4    1  0.6197496E+000  0.1000000E+03  0.7546771E-02  0.1280296E+00
         21   -1    0    0  503  502  0.00000000000E+00  0.00000000000E+00  0.11003529611E+04  0.11003529611E+04  0.00000000000E+00 0.  1.
         21   -1    0    0  501  503 -0.00000000000E+00 -0.00000000000E+00 -0.15201626425E+03  0.15201626425E+03  0.00000000000E+00 0.  1.
          6    1    1    2  501    0 -0.36978267303E+02 -0.16497573587E+03 -0.30751313456E+02  0.24384222144E+03  0.17300000000E+03 0.  1.
         -6    1    1    2    0  502  0.36978267303E+02  0.16497573587E+03  0.97908801026E+03  0.10085270039E+04  0.17300000000E+03 0.  1.
</event>
<event>
 4    1  0.6197496E+000  0.1000000E+03  0.7546771E-02  0.1280296E+00
         21   -1    0    0  501  502  0.00000000000E+00  0.00000000000E+00  0.93714423862E+03  0.93714423862E+03  0.00000000000E+00 0.  1.
         21   -1    0    0  502  503 -0.00000000000E+00 -0.00000000000E+00 -0.89073093582E+02  0.89073093582E+02  0.00000000000E+00 0.  1.
          6    1    1    2  501    0 -0.78297870872E+01  0.22008170562E+03  0.55021707882E+03  0.61738569512E+03  0.17300000000E+03 0.  1.
         -6    1    1    2    0  503  0.78297870872E+01 -0.22008170562E+03  0.29785406622E+03  0.40883163708E+03  0.17300000000E+03 0.  1.
</event>
<event>
 4    1  0.6197496E+000  0.1000000E+03  0.7546771E-02  0.1280296E+00
         21   -1    0    0  501  502  0.00000000000E+00  0.00000000000E+00  0.15113534373E+04  0.15113534373E+04  0.00000000000E+00 0.  1.
         21   -1    0    0  502  503 -0.00000000000E+00 -0.00000000000E+00 -0.44034896594E+02  0.44034896594E+02  0.00000000000E+00 0.  1.
          6    1    1    2  501    0 -0.10944382610E+03  0.66526889864E+02  0.11623190046E+04  0.11820821658E+04  0.17300000000E+03 0.  1.
         -6    1    1    2    0  503  0.10944382610E+03 -0.66526889864E+02  0.30499953611E+03  0.37330616814E+03  0.17300000000E+03 0.  1.
</event>
<event>
 4    1  0.6197496E+000  0.1000000E+03  0.7546771E-02  0.1280296E+00
         21   -1    0    0  503  502  0.00000000000E+00  0.00000000000E+00  0.10952473103E+03  0.10952473103E+03  0.00000000000E+00 0. -1.
         21   -1    0    0  501  503 -0.00000000000E+00 -0.00000000000E+00 -0.64293830019E+03  0.64293830019E+03  0.00000000000E+00 0. -1.
          6    1    1    2  501    0  0.17538642593E+03 -0.18867296786E+02 -0.40396452562E+03  0.47353216495E+03  0.17300000000E+03 0. -1.
         -6    1    1    2    0  502 -0.17538642593E+03  0.18867296786E+02 -0.12944904354E+03  0.27893086627E+03  0.17300000000E+03 0. -1.
</event>
<event>
 4    1  0.6197496E+000  0.1000000E+03  0.7546771E-02  0.1280296E+00
         21   -1    0    0  503  502  0.00000000000E+00  0.00000000000E+00  0.76842580984E+02  0.76842580984E+02  0.00000000000E+00 0. -1.
         21   -1    0    0  501  503 -0.00000000000E+00 -0.00000000000E+00 -0.96396224459E+03  0.96396224459E+03  0.00000000000E+00 0. -1.
          6    1    1    2  501    0 -0.18558880817E+03  0.42256266122E+02 -0.61367727278E+03  0.66540032527E+03  0.17300000000E+03 0. -1.
         -6    1    1    2    0  502  0.18558880817E+03 -0.42256266122E+02 -0.27344239082E+03  0.37540450030E+03  0.17300000000E+03 0. -1.
</event>
<event>
 4    1  0.6197496E+000  0.1000000E+03  0.7546771E-02  0.1280296E+00
         21   -1    0    0  501  502  0.00000000000E+00  0.00000000000E+00  0.10105340875E+03  0.10105340875E+03  0.00000000000E+00 0. -1.
         21   -1    0    0  502  503 -0.00000000000E+00 -0.00000000000E+00 -0.49745946483E+03  0.49745946483E+03  0.00000000000E+00 0. -1.
          6    1    1    2  501    0 -0.76350004201E+02  0.84106367905E+02 -0.83093691563E+02  0.22301741152E+03  0.17300000000E+03 0. -1.
         -6    1    1    2    0  503  0.76350004201E+02 -0.84106367905E+02 -0.31331236452E+03  0.37549546206E+03  0.17300000000E+03 0. -1.
</event>
<event>
 4    1  0.6197496E+000  0.1000000E+03  0.7546771E-02  0.1280296E+00
         21   -1    0    0  501  502  0.00000000000E+00  0.00000000000E+00  0.42960393254E+03  0.42960393254E+03  0.00000000000E+00 0. -1.
         21   -1    0    0  502  503 -0.00000000000E+00 -0.00000000000E+00 -0.14172735197E+03  0.14172735197E+03  0.00000000000E+00 0. -1.
          6    1    1    2  501    0 -0.11882288588E+03  0.11306219433E+03  0.21766577405E+03  0.32281469482E+03  0.17300000000E+03 0. -1.
         -6    1    1    2    0  503  0.11882288588E+03 -0.11306219433E+03  0.70210806521E+02  0.24851658969E+03  0.17300000000E+03 0. -1.
</event>
<event>
 4    1  0.6197496E+000  0.1000000E+03  0.7546771E-02  0.1280296E+00
         21   -1    0    0  501  502  0.00000000000E+00  0.00000000000E+00  0.47532678403E+03  0.47532678403E+03  0.00000000000E+00 0. -1.
         21   -1    0    0  502  503 -0.00000000000E+00 -0.00000000000E+00 -0.79567496764E+02  0.79567496764E+02  0.00000000000E+00 0. -1.
          6    1    1    2  501    0 -0.55707992159E+01 -0.53535158123E+02  0.97055871935E+02  0.20553804815E+03  0.17300000000E+03 0. -1.
         -6    1    1    2    0  503  0.55707992159E+01  0.53535158123E+02  0.29870341533E+03  0.34935623265E+03  0.17300000000E+03 0. -1.
</event>
<event>
 4    1  0.6197496E+000  0.1000000E+03  0.7546771E-02  0.1280296E+00
         21   -1    0    0  501  502  0.00000000000E+00  0.00000000000E+00  0.28472806477E+03  0.28472806477E+03  0.00000000000E+00 0. -1.
         21   -1    0    0  502  503 -0.00000000000E+00 -0.00000000000E+00 -0.54203378134E+03  0.54203378134E+03  0.00000000000E+00 0.  1.
          6    1    1    2  501    0 -0.33792608460E+03 -0.76424466518E+01 -0.22636737805E+02  0.38038647129E+03  0.17300000000E+03 0. -1.
         -6    1    1    2    0  503  0.33792608460E+03  0.76424466518E+01 -0.23466897877E+03  0.44637537481E+03  0.17300000000E+03 0.  1.
</event>
<event>
 4    1  0.6197496E+000  0.1000000E+03  0.7546771E-02  0.1280296E+00
         21   -1    0    0  503  502  0.00000000000E+00  0.00000000000E+00  0.25478615980E+03  0.25478615980E+03  0.00000000000E+00 0. -1.
         21   -1    0    0  501  503 -0.00000000000E+00 -0.00000000000E+00 -0.41124770179E+03  0.41124770179E+03  0.00000000000E+00 0. -1.
          6    1    1    2  501    0 -0.18714397643E+03 -0.92565403550E+01 -0.28332582268E+03  0.38119689565E+03  0.17300000000E+03 0. -1.
         -6    1    1    2    0  502  0.18714397643E+03  0.92565403550E+01  0.12686428070E+03  0.28483696595E+03  0.17300000000E+03 0. -1.
</event>
<event>
 4    1  0.6197496E+000  0.1000000E+03  0.7546771E-02  0.1280296E+00
         21   -1    0    0  503  502  0.00000000000E+00  0.00000000000E+00  0.39708129421E+02  0.39708129421E+02  0.00000000000E+00 0. -1.
         21   -1    0    0  501  503 -0.00000000000E+00 -0.00000000000E+00 -0.13080586282E+04  0.13080586282E+04  0.00000000000E+00 0. -1.
          6    1    1    2  501    0  0.26309403236E+02 -0.10288628376E+03 -0.94051824635E+03  0.96217531864E+03  0.17300000000E+03 0. -1.
         -6    1    1    2    0  502 -0.26309403236E+02  0.10288628376E+03 -0.32783225246E+03  0.38559143901E+03  0.17300000000E+03 0. -1.
</event>
<event>
 4    1  0.6197496E+000  0.1000000E+03  0.7546771E-02  0.1280296E+00
         21   -1    0    0  501  502  0.00000000000E+00  0.00000000000E+00  0.12313993924E+03  0.12313993924E+03  0.00000000000E+00 0. -1.
         21   -1    0    0  502  503 -0.00000000000E+00 -0.00000000000E+00 -0.31415874500E+03  0.31415874500E+03  0.00000000000E+00 0. -1.
          6    1    1    2  501    0  0.63680099417E+02 -0.23125432559E+02 -0.23752724071E+02  0.18730491876E+03  0.17300000000E+03 0. -1.
         -6    1    1    2    0  503 -0.63680099417E+02  0.23125432559E+02 -0.16726608169E+03  0.24999376548E+03  0.17300000000E+03 0. -1.
</event>
<event>
 4    1  0.6197496E+000  0.1000000E+03  0.7546771E-02  0.1280296E+00
         21   -1    0    0  501  502  0.00000000000E+00  0.00000000000E+00  0.87495695331E+02  0.87495695331E+02  0.00000000000E+00 0. -1.
         21   -1    0    0  502  503 -0.00000000000E+00 -0.00000000000E+00 -0.43043356046E+03  0.43043356046E+03  0.00000000000E+00 0. -1.
          6    1    1    2  501    0 -0.42057794110E+02 -0.47911593589E+01 -0.68620625079E+02  0.19086540661E+03  0.17300000000E+03 0. -1.
         -6    1    1    2    0  503  0.42057794110E+02  0.47911593589E+01 -0.27431724005E+03  0.32706384918E+03  0.17300000000E+03 0. -1.
</event>
<event>
 4    1  0.6197496E+000  0.1000000E+03  0.7546771E-02  0.1280296E+00
         21   -1    0    0  501  502  0.00000000000E+00  0.00000000000E+00  0.13488667648E+04  0.13488667648E+04  0.00000000000E+00 0.  1.
         21   -1    0    0  502  503 -0.00000000000E+00 -0.00000000000E+00 -0.60779706069E+02  0.60779706069E+02  0.00000000000E+00 0.  1.
          6    1    1    2  501    0  0.20003763092E+03  0.73558201187E+02  0.84446114966E+03  0.88795804858E+03  0.17300000000E+03 0.  1.
         -6    1    1    2    0  503 -0.20003763092E+03 -0.73558201187E+02  0.44362590902E+03  0.52168842224E+03  0.17300000000E+03 0.  1.
</event>
<event>
 4    1  0.6197496E+000  0.1000000E+03  0.7546771E-02  0.1280296E+00
         21   -1    0    0  501  502  0.00000000000E+00  0.00000000000E+00  0.14375273734E+04  0.14375273734E+04  0.00000000000E+00 0.  1.
         21   -1    0    0  502  503 -0.00000000000E+00 -0.00000000000E+00 -0.59116653770E+02  0.59116653770E+02  0.00000000000E+00 0.  1.
          6    1    1    2  501    0  0.48093015251E+02  0.12693730973E+03  0.11804806976E+04  0.12007871152E+04  0.17300000000E+03 0.  1.
         -6    1    1    2    0  503 -0.48093015251E+02 -0.12693730973E+03  0.19793002203E+03  0.29585691193E+03  0.17300000000E+03 0.  1.
</event>
<event>
 4    1  0.6197496E+000  0.1000000E+03  0.7546771E-02  0.1280296E+00
         21   -1    0    0  501  502  0.00000000000E+00  0.00000000000E+00  0.90963976487E+02  0.90963976487E+02  0.00000000000E+00 0.  1.
         21   -1    0    0  502  503 -0.00000000000E+00 -0.00000000000E+00 -0.41763009257E+03  0.41763009257E+03  0.00000000000E+00 0.  1.
          6    1    1    2  501    0 -0.35204198993E+02  0.18602569650E+02 -0.58348044642E+02  0.18686595607E+03  0.17300000000E+03 0.  1.
         -6    1    1    2    0  503  0.35204198993E+02 -0.18602569650E+02 -0.26831807144E+03  0.32172811298E+03  0.17300000000E+03 0.  1.
</event>
<event>
 4    1  0.6197496E+000  0.1000000E+03  0.7546771E-02  0.1280296E+00
         21   -1    0    0  503  502  0.00000000000E+00  0.00000000000E+00  0.96642452507E+03  0.96642452507E+03  0.00000000000E+00 0. -1.
         21   -1    0    0  501  503 -0.00000000000E+00 -0.00000000000E+00 -0.12481219863E+03  0.12481219863E+03  0.00000000000E+00 0.  1.
          6    1    1    2  501    0 -0.11270337715E+03  0.94470982304E+02  0.83367096749E+03  0.86403883000E+03  0.17300000000E+03 0.  1.
         -6    1    1    2    0  502  0.11270337715E+03 -0.94470982304E+02  0.79413589565E+01  0.22719789370E+03  0.17300000000E+03 0.  1.
</event>
<event>
 4    1  0.6197496E+000  0.1000000E+03  0.7546771E-02  0.1280296E+00
         21   -1    0    0  503  502  0.00000000000E+00  0.00000000000E+00  0.69006867002E+03  0.69006867002E+03  0.00000000000E+00 0. -1.
         21   -1    0    0  501  503 -0.00000000000E+00 -0.00000000000E+00 -0.18979013855E+03  0.18979013855E+03  0.00000000000E+00 0.  1.
          6    1    1    2  501    0  0.59290660581E+02 -0.71595890970E+02 -0.11937482527E+03  0.22982755044E+03  0.17300000000E+03 0.  1.
         -6    1    1    2    0  502 -0.59290660581E+02  0.71595890970E+02  0.61965335673E+03  0.65003125813E+03  0.17300000000E+03 0.  1.
</event>
<event>
 4    1  0.6197496E+000  0.1000000E+03  0.7546771E-02  0.1280296E+00
         21   -1    0    0  503  502  0.00000000000E+00  0.00000000000E+00  0.14126227966E+04  0.14126227966E+04  0.00000000000E+00 0. -1.
         21   -1    0    0  501  503 -0.00000000000E+00 -0.00000000000E+00 -0.29016775652E+02  0.29016775652E+02  0.00000000000E+00 0.  1.
          6    1    1    2  501    0  0.89576661437E+02  0.45180867960E+02  0.57947112897E+03  0.61300985181E+03  0.17300000000E+03 0.  1.
         -6    1    1    2    0  502 -0.89576661437E+02 -0.45180867960E+02  0.80413489193E+03  0.82862972040E+03  0.17300000000E+03 0.  1.
</event>
<event>
 4    1  0.6197496E+000  0.1000000E+03  0.7546771E-02  0.1280296E+00
         21   -1    0    0  503  502  0.00000000000E+00  0.00000000000E+00  0.10623466256E+04  0.10623466256E+04  0.00000000000E+00 0. -1.
         21   -1    0    0  501  503 -0.00000000000E+00 -0.00000000000E+00 -0.46579922209E+02  0.46579922209E+02  0.00000000000E+00 0. -1.
          6    1    1    2  501    0  0.88752382635E+02  0.10152009133E+03  0.41556856964E+03  0.46990376721E+03  0.17300000000E+03 0. -1.
         -6    1    1    2    0  502 -0.88752382635E+02 -0.10152009133E+03  0.60019813377E+03  0.63902278062E+03  0.17300000000E+03 0. -1.
</event>
<event>
 4    1  0.6197496E+000  0.1000000E+03  0.7546771E-02  0.1280296E+00
         21   -1    0    0  503  502  0.00000000000E+00  0.00000000000E+00  0.25087108453E+03  0.25087108453E+03  0.00000000000E+00 0. -1.
         21   -1    0    0  501  503 -0.00000000000E+00 -0.00000000000E+00 -0.13340400683E+03  0.13340400683E+03  0.00000000000E+00 0. -1.
          6    1    1    2  501    0 -0.87965439291E+01  0.14584337053E+02 -0.11240086517E+01  0.17383999962E+03  0.17300000000E+03 0. -1.
         -6    1    1    2    0  502  0.87965439291E+01 -0.14584337053E+02  0.11859108636E+03  0.21043509174E+03  0.17300000000E+03 0. -1.
</event>
<event>
 4    1  0.6197496E+000  0.1000000E+03  0.7546771E-02  0.1280296E+00
         21   -1    0    0  503  502  0.00000000000E+00  0.00000000000E+00  0.32633042234E+03  0.32633042234E+03  0.00000000000E+00 0.  1.
         21   -1    0    0  501  503 -0.00000000000E+00 -0.00000000000E+00 -0.16073608306E+03  0.16073608306E+03  0.00000000000E+00 0.  1.
          6    1    1    2  501    0  0.86572348740E+02 -0.11971609511E+03  0.54716920018E+02  0.23398644476E+03  0.17300000000E+03 0.  1.
         -6    1    1    2    0  502 -0.86572348740E+02  0.11971609511E+03  0.11087741926E+03  0.25308006065E+03  0.17300000000E+03 0.  1.
</event>
<event>
 4    1  0.6197496E+000  0.1000000E+03  0.7546771E-02  0.1280296E+00
         21   -1    0    0  503  502  0.00000000000E+00  0.00000000000E+00  0.10493431197E+03  0.10493431197E+03  0.00000000000E+00 0.  1.
         21   -1    0    0  501  503 -0.00000000000E+00 -0.00000000000E+00 -0.37886822633E+03  0.37886822633E+03  0.00000000000E+00 0.  1.
          6    1    1    2  501    0  0.26640841491E+02  0.70075822509E+02 -0.21565658476E+03  0.28645613606E+03  0.17300000000E+03 0.  1.
         -6    1    1    2    0  502 -0.26640841491E+02 -0.70075822509E+02 -0.58277329600E+02  0.19734640225E+03  0.17300000000E+03 0.  1.
</event>
<event>
 4    1  0.6197496E+000  0.1000000E+03  0.7546771E-02  0.1280296E+00
         21   -1    0    0  503  502  0.00000000000E+00  0.00000000000E+00  0.15039362555E+03  0.15039362555E+03  0.00000000000E+00 0.  1.
         21   -1    0    0  501  503 -0.00000000000E+00 -0.00000000000E+00 -0.76616976915E+03  0.76616976915E+03  0.00000000000E+00 0.  1.
          6    1    1    2  501    0  0.52342072099E+02 -0.23158708050E+03 -0.53750179426E+03  0.61254342475E+03  0.17300000000E+03 0.  1.
         -6    1    1    2    0  502 -0.52342072099E+02  0.23158708050E+03 -0.78274349335E+02  0.30401996996E+03  0.17300000000E+03 0.  1.
</event>
<event>
 4    1  0.6197496E+000  0.1000000E+03  0.7546771E-02  0.1280296E+00
         21   -1    0    0  501  502  0.00000000000E+00  0.00000000000E+00  0.39054778866E+03  0.39054778866E+03  0.00000000000E+00 0.  1.
         21   -1    0    0  502  503 -0.00000000000E+00 -0.00000000000E+00 -0.82049573469E+02  0.82049573469E+02  0.00000000000E+00 0. -1.
          6    1    1    2  501    0  0.26394360824E+02 -0.36490957246E+02  0.16656351834E+03  0.24433718073E+03  0.17300000000E+03 0.  1.
         -6    1    1    2    0  503 -0.26394360824E+02  0.36490957246E+02  0.14193469685E+03  0.22826018140E+03  0.17300000000E+03 0. -1.
</event>
<event>
 4    1  0.6197496E+000  0.1000000E+03  0.7546771E-02  0.1280296E+00
         21   -1    0    0  501  502  0.00000000000E+00  0.00000000000E+00  0.28218518867E+03  0.28218518867E+03  0.00000000000E+00 0.  1.
         21   -1    0    0  502  503 -0.00000000000E+00 -0.00000000000E+00 -0.23556977806E+03  0.23556977806E+03  0.00000000000E+00 0. -1.
          6    1    1    2  501    0  0.11328301195E+03 -0.12228618995E+03  0.11727538716E+03  0.26733774421E+03  0.17300000000E+03 0.  1.
         -6    1    1    2    0  503 -0.11328301195E+03  0.12228618995E+03 -0.70659976543E+02  0.25041722252E+03  0.17300000000E+03 0. -1.
</event>
<event>
 4    1  0.6197496E+000  0.1000000E+03  0.7546771E-02  0.1280296E+00
         21   -1    0    0  501  502  0.00000000000E+00  0.00000000000E+00  0.46142887743E+03  0.46142887743E+03  0.00000000000E+00 0.  1.
         21   -1    0    0  502  503 -0.00000000000E+00 -0.00000000000E+00 -0.97788054276E+02  0.97788054276E+02  0.00000000000E+00 0. -1.
          6    1    1    2  501    0  0.17681278993E+02  0.14517118800E+01  0.34237937666E+03  0.38401480786E+03  0.17300000000E+03 0.  1.
         -6    1    1    2    0  503 -0.17681278993E+02 -0.14517118800E+01  0.21261446498E+02  0.17520212385E+03  0.17300000000E+03 0. -1.
</event>
<event>
 4    1  0.6197496E+000  0.1000000E+03  0.7546771E-02  0.1280296E+00
         21   -1    0    0  501  502  0.00000000000E+00  0.00000000000E+00  0.40817234123E+03  0.40817234123E+03  0.00000000000E+00 0. -1.
         21   -1    0    0  502  503 -0.00000000000E+00 -0.00000000000E+00 -0.45347800347E+03  0.45347800347E+03  0.00000000000E+00 0.  1.
          6    1    1    2  501    0  0.64225951127E+01 -0.30917115590E+03  0.22169362368E+03  0.41797741105E+03  0.17300000000E+03 0.  1.
         -6    1    1    2    0  503 -0.64225951127E+01  0.30917115590E+03 -0.26699928592E+03  0.44367293365E+03  0.17300000000E+03 0. -1.
</event>
<event>
 4    1  0.6197496E+000  0.1000000E+03  0.7546771E-02  0.1280296E+00
         21   -1    0    0  501  502  0.00000000000E+00  0.00000000000E+00  0.51551432407E+02  0.51551432407E+02  0.00000000000E+00 0.  1.
         21   -1    0    0  502  503 -0.00000000000E+00 -0.00000000000E+00 -0.77246169203E+03  0.77246169203E+03  0.00000000000E+00 0.  1.
          6    1    1    2  501    0 -0.30230636748E+02  0.91194692544E+02 -0.41358286497E+03  0.45848680411E+03  0.17300000000E+03 0.  1.
         -6    1    1    2    0  503  0.30230636748E+02 -0.91194692544E+02 -0.30732739465E+03  0.36552632032E+03  0.17300000000E+03 0.  1.
</event>
<event>
 4    1  0.6197496E+000  0.1000000E+03  0.7546771E-02  0.1280296E+00
         21   -1    0    0  501  502  0.00000000000E+00  0.00000000000E+00  0.15902265985E+02  0.15902265985E+02  0.00000000000E+00 0.  1.
         21   -1    0    0  502  503 -0.00000000000E+00 -0.00000000000E+00 -0.20439894162E+04  0.20439894162E+04  0.00000000000E+00 0.  1.
          6    1    1    2  501    0 -0.25456919373E+01  0.25159963944E+02 -0.76271100571E+03  0.78249382270E+03  0.17300000000E+03 0.  1.
         -6    1    1    2    0  503  0.25456919373E+01 -0.25159963944E+02 -0.12653761445E+04  0.12773978595E+04  0.17300000000E+03 0.  1.
</event>
<event>
 4    1  0.6197496E+000  0.1000000E+03  0.7546771E-02  0.1280296E+00
         21   -1    0    0  503  502  0.00000000000E+00  0.00000000000E+00  0.15409111495E+03  0.15409111495E+03  0.00000000000E+00 0. -1.
         21   -1    0    0  501  503 -0.00000000000E+00 -0.00000000000E+00 -0.82942277134E+03  0.82942277134E+03  0.00000000000E+00 0. -1.
          6    1    1    2  501    0 -0.12703983689E+03 -0.49724418602E+02 -0.72493890861E+03  0.75767873084E+03  0.17300000000E+03 0. -1.
         -6    1    1    2    0  502  0.12703983689E+03  0.49724418602E+02  0.49607252213E+02  0.22583515544E+03  0.17300000000E+03 0. -1.
</event>
<event>
 4    1  0.6197496E+000  0.1000000E+03  0.7546771E-02  0.1280296E+00
         21   -1    0    0  501  502  0.00000000000E+00  0.00000000000E+00  0.61345912601E+02  0.61345912601E+02  0.00000000000E+00 0. -1.
         21   -1    0    0  502  503 -0.00000000000E+00 -0.00000000000E+00 -0.23046021744E+04  0.23046021744E+04  0.00000000000E+00 0.  1.
          6    1    1    2  501    0  0.28010527075E+02 -0.19427977560E+03 -0.27204308226E+03  0.37744623384E+03  0.17300000000E+03 0. -1.
         -6    1    1    2    0  503 -0.28010527075E+02  0.19427977560E+03 -0.19712131796E+04  0.19885018532E+04  0.17300000000E+03 0.  1.
</event>
<event>
 4    1  0.6197496E+000  0.1000000E+03  0.7546771E-02  0.1280296E+00
         21   -1    0    0  501  502  0.00000000000E+00  0.00000000000E+00  0.45047110554E+03  0.45047110554E+03  0.00000000000E+00 0. -1.
         21   -1    0    0  502  503 -0.00000000000E+00 -0.00000000000E+00 -0.25634407862E+03  0.25634407862E+03  0.00000000000E+00 0.  1.
          6    1    1    2  501    0  0.99633572784E+01 -0.82940300432E+02  0.38857405801E+03  0.43347106072E+03  0.17300000000E+03 0. -1.
         -6    1    1    2    0  503 -0.99633572784E+01  0.82940300432E+02 -0.19444703109E+03  0.27334412345E+03  0.17300000000E+03 0.  1.
</event>
<event>
 4    1  0.6197496E+000  0.1000000E+03  0.7546771E-02  0.1280296E+00
         21   -1    0    0  501  502  0.00000000000E+00  0.00000000000E+00  0.86163178873E+03  0.86163178873E+03  0.00000000000E+00 0. -1.
         21   -1    0    0  502  503 -0.00000000000E+00 -0.00000000000E+00 -0.50690127050E+02  0.50690127050E+02  0.00000000000E+00 0.  1.
          6    1    1    2  501    0 -0.11012649050E+02 -0.18448734203E+02  0.65705655740E+03  0.67978963941E+03  0.17300000000E+03 0. -1.
         -6    1    1    2    0  503  0.11012649050E+02  0.18448734203E+02  0.15388510428E+03  0.23253227637E+03  0.17300000000E+03 0.  1.
</event>
<event>
 4    1  0.6197496E+000  0.1000000E+03  0.7546771E-02  0.1280296E+00
         21   -1    0    0  501  502  0.00000000000E+00  0.00000000000E+00  0.19930275565E+03  0.19930275565E+03  0.00000000000E+00 0. -1.
         21   -1    0    0  502  503 -0.00000000000E+00 -0.00000000000E+00 -0.38535420233E+03  0.38535420233E+03  0.00000000000E+00 0.  1.
          6    1    1    2  501    0 -0.13869295783E+02  0.15931767421E+03  0.60917553369E+02  0.24334014669E+03  0.17300000000E+03 0. -1.
         -6    1    1    2    0  503  0.13869295783E+02 -0.15931767421E+03 -0.24696900005E+03  0.34131681129E+03  0.17300000000E+03 0.  1.
</event>
<event>
 4    1  0.6197496E+000  0.1000000E+03  0.7546771E-02  0.1280296E+00
         21   -1    0    0  501  502  0.00000000000E+00  0.00000000000E+00  0.36288706771E+03  0.36288706771E+03  0.00000000000E+00 0. -1.
         21   -1    0    0  502  503 -0.00000000000E+00 -0.00000000000E+00 -0.13472941628E+03  0.13472941628E+03  0.00000000000E+00 0.  1.
          6    1    1    2  501    0  0.93208219388E+01  0.13555091932E+03  0.13928117389E+03  0.26036354363E+03  0.17300000000E+03 0. -1.
         -6    1    1    2    0  503 -0.93208219388E+01 -0.13555091932E+03  0.88876477540E+02  0.23725294036E+03  0.17300000000E+03 0.  1.
</event>
<event>
 4    1  0.6197496E+000  0.1000000E+03  0.7546771E-02  0.1280296E+00
         21   -1    0    0  501  502  0.00000000000E+00  0.00000000000E+00  0.50673016329E+03  0.50673016329E+03  0.00000000000E+00 0.  1.
         21   -1    0    0  502  503 -0.00000000000E+00 -0.00000000000E+00 -0.32694219931E+03  0.32694219931E+03  0.00000000000E+00 0. -1.
          6    1    1    2  501    0 -0.10461252779E+03  0.23311320492E+03  0.36172773953E+03  0.47545925675E+03  0.17300000000E+03 0. -1.
         -6    1    1    2    0  503  0.10461252779E+03 -0.23311320492E+03 -0.18193977555E+03  0.35821310586E+03  0.17300000000E+03 0.  1.
</event>
<event>
 4    1  0.6197496E+000  0.1000000E+03  0.7546771E-02  0.1280296E+00
         21   -1    0    0  503  502  0.00000000000E+00  0.00000000000E+00  0.37456547973E+03  0.37456547973E+03  0.00000000000E+00 0. -1.
         21   -1    0    0  501  503 -0.00000000000E+00 -0.00000000000E+00 -0.36476435007E+03  0.36476435007E+03  0.00000000000E+00 0. -1.
          6    1    1    2  501    0 -0.13102737102E+03  0.12755229743E+03 -0.26579160464E+03  0.36607640955E+03  0.17300000000E+03 0. -1.
         -6    1    1    2    0  502  0.13102737102E+03 -0.12755229743E+03  0.27559273429E+03  0.37325342025E+03  0.17300000000E+03 0. -1.
</event>
<event>
 4    1  0.6197496E+000  0.1000000E+03  0.7546771E-02  0.1280296E+00
         21   -1    0    0  503  502  0.00000000000E+00  0.00000000000E+00  0.47185474133E+03  0.47185474133E+03  0.00000000000E+00 0. -1.
         21   -1    0    0  501  503 -0.00000000000E+00 -0.00000000000E+00 -0.30892798190E+03  0.30892798190E+03  0.00000000000E+00 0. -1.
          6    1    1    2  501    0  0.20898263757E+03  0.81612724186E+02 -0.18023867773E+03  0.33578171556E+03  0.17300000000E+03 0. -1.
         -6    1    1    2    0  502 -0.20898263757E+03 -0.81612724186E+02  0.34316543716E+03  0.44500100766E+03  0.17300000000E+03 0. -1.
</event>
<event>
 4    1  0.6197496E+000  0.1000000E+03  0.7546771E-02  0.1280296E+00
         21   -1    0    0  503  502  0.00000000000E+00  0.00000000000E+00  0.45474786592E+03  0.45474786592E+03  0.00000000000E+00 0. -1.
         21   -1    0    0  501  503 -0.00000000000E+00 -0.00000000000E+00 -0.75144667449E+02  0.75144667449E+02  0.00000000000E+00 0. -1.
          6    1    1    2  501    0  0.37171628569E+02  0.46425100712E+02  0.15172292548E+03  0.23766755366E+03  0.17300000000E+03 0. -1.
         -6    1    1    2    0  502 -0.37171628569E+02 -0.46425100712E+02  0.22788027299E+03  0.29222497971E+03  0.17300000000E+03 0. -1.
</event>
<event>
 4    1  0.6197496E+000  0.1000000E+03  0.7546771E-02  0.1280296E+00
         21   -1    0    0  503  502  0.00000000000E+00  0.00000000000E+00  0.21338664376E+03  0.21338664376E+03  0.00000000000E+00 0. -1.
         21   -1    0    0  501  503 -0.00000000000E+00 -0.00000000000E+00 -0.27596449356E+03  0.27596449356E+03  0.00000000000E+00 0. -1.
          6    1    1    2  501    0 -0.13188415898E+03 -0.65691473942E+01 -0.13951598913E+03  0.25851556300E+03  0.17300000000E+03 0. -1.
         -6    1    1    2    0  502  0.13188415898E+03  0.65691473942E+01  0.76938139335E+02  0.23083557432E+03  0.17300000000E+03 0. -1.
</event>
<event>
 4    1  0.6197496E+000  0.1000000E+03  0.7546771E-02  0.1280296E+00
         21   -1    0    0  503  502  0.00000000000E+00  0.00000000000E+00  0.59400085469E+03  0.59400085469E+03  0.00000000000E+00 0. -1.
         21   -1    0    0  501  503 -0.00000000000E+00 -0.00000000000E+00 -0.22139434412E+03  0.22139434412E+03  0.00000000000E+00 0. -1.
          6    1    1    2  501    0  0.54020488948E+02 -0.80475648550E+02 -0.15503991736E+03  0.25171594946E+03  0.17300000000E+03 0. -1.
         -6    1    1    2    0  502 -0.54020488948E+02  0.80475648550E+02  0.52764642793E+03  0.56367924935E+03  0.17300000000E+03 0. -1.
</event>
<event>
 4    1  0.6197496E+000  0.1000000E+03  0.7546771E-02  0.1280296E+00
         21   -1    0    0  503  502  0.00000000000E+00  0.00000000000E+00  0.15553206224E+03  0.15553206224E+03  0.00000000000E+00 0. -1.
         21   -1    0    0  501  503 -0.00000000000E+00 -0.00000000000E+00 -0.25640641882E+03  0.25640641882E+03  0.00000000000E+00 0.  1.
          6    1    1    2  501    0  0.64936780440E+02  0.75303850451E+02 -0.58621321610E+02  0.20797335092E+03  0.17300000000E+03 0.  1.
         -6    1    1    2    0  502 -0.64936780440E+02 -0.75303850451E+02 -0.42253034966E+02  0.20396513013E+03  0.17300000000E+03 0. -1.
</event>
<event>
 4    1  0.6197496E+000  0.1000000E+03  0.7546771E-02  0.1280296E+00
         21   -1    0    0  501  502  0.00000000000E+00  0.00000000000E+00  0.91243089169E+02  0.91243089169E+02  0.00000000000E+00 0. -1.
         21   -1    0    0  502  503 -0.00000000000E+00 -0.00000000000E+00 -0.10346437144E+04  0.10346437144E+04  0.00000000000E+00 0. -1.
          6    1    1    2  501    0 -0.72818743321E+02 -0.23728235438E+03 -0.56984804868E+03  0.64518313963E+03  0.17300000000E+03 0. -1.
         -6    1    1    2    0  503  0.72818743321E+02  0.23728235438E+03 -0.37355257657E+03  0.48070366396E+03  0.17300000000E+03 0. -1.
</event>
<event>
 4    1  0.6197496E+000  0.1000000E+03  0.7546771E-02  0.1280296E+00
         21   -1    0    0  503  502  0.00000000000E+00  0.00000000000E+00  0.68511930672E+02  0.68511930672E+02  0.00000000000E+00 0. -1.
         21   -1    0    0  501  503 -0.00000000000E+00 -0.00000000000E+00 -0.13896321147E+04  0.13896321147E+04  0.00000000000E+00 0. -1.
          6    1    1    2  501    0 -0.18055037442E+03 -0.15075363862E+03 -0.42483883842E+03  0.51550182918E+03  0.17300000000E+03 0. -1.
         -6    1    1    2    0  502  0.18055037442E+03  0.15075363862E+03 -0.89628134565E+03  0.94264221623E+03  0.17300000000E+03 0. -1.
</event>
<event>
 4    1  0.6197496E+000  0.1000000E+03  0.7546771E-02  0.1280296E+00
         21   -1    0    0  501  502  0.00000000000E+00  0.00000000000E+00  0.12748614660E+03  0.12748614660E+03  0.00000000000E+00 0. -1.
         21   -1    0    0  502  503 -0.00000000000E+00 -0.00000000000E+00 -0.33731679353E+03  0.33731679353E+03  0.00000000000E+00 0. -1.
          6    1    1    2  501    0 -0.10798299884E+03 -0.12114064990E+02 -0.65021963018E+02  0.21439201077E+03  0.17300000000E+03 0. -1.
         -6    1    1    2    0  503  0.10798299884E+03  0.12114064990E+02 -0.14480868390E+03  0.25041092936E+03  0.17300000000E+03 0. -1.
</event>
<event>
 4    1  0.6197496E+000  0.1000000E+03  0.7546771E-02  0.1280296E+00
         21   -1    0    0  501  502  0.00000000000E+00  0.00000000000E+00  0.47990738389E+03  0.47990738389E+03  0.00000000000E+00 0. -1.
         21   -1    0    0  502  503 -0.00000000000E+00 -0.00000000000E+00 -0.17025173857E+03  0.17025173857E+03  0.00000000000E+00 0. -1.
          6    1    1    2  501    0 -0.29844936596E+02 -0.22057507364E+02  0.41014223041E+03  0.44667986639E+03  0.17300000000E+03 0. -1.
         -6    1    1    2    0  503  0.29844936596E+02  0.22057507364E+02 -0.10048658509E+03  0.20347925608E+03  0.17300000000E+03 0. -1.
</event>
<event>
 4    1  0.6197496E+000  0.1000000E+03  0.7546771E-02  0.1280296E+00
         21   -1    0    0  501  502  0.00000000000E+00  0.00000000000E+00  0.17645489007E+03  0.17645489007E+03  0.00000000000E+00 0.  1.
         21   -1    0    0  502  503 -0.00000000000E+00 -0.00000000000E+00 -0.45958503005E+03  0.45958503005E+03  0.00000000000E+00 0. -1.
          6    1    1    2  501    0  0.58079110250E+02 -0.38051227717E+02  0.98849327693E+02  0.21100063641E+03  0.17300000000E+03 0.  1.
         -6    1    1    2    0  503 -0.58079110250E+02  0.38051227717E+02 -0.38197946767E+03  0.42503928372E+03  0.17300000000E+03 0. -1.
</event>
<event>
 4    1  0.6197496E+000  0.1000000E+03  0.7546771E-02  0.1280296E+00
         21   -1    0    0  501  502  0.00000000000E+00  0.00000000000E+00  0.39023504151E+02  0.39023504151E+02  0.00000000000E+00 0.  1.
         21   -1    0    0  502  503 -0.00000000000E+00 -0.00000000000E+00 -0.90171926548E+03  0.90171926548E+03  0.00000000000E+00 0. -1.
          6    1    1    2  501    0 -0.66183746461E+02  0.22434704431E+02 -0.38274872545E+03  0.42580416988E+03  0.17300000000E+03 0.  1.
         -6    1    1    2    0  503  0.66183746461E+02 -0.22434704431E+02 -0.47994703589E+03  0.51493859975E+03  0.17300000000E+03 0. -1.
</event>
<event>
 4    1  0.6197496E+000  0.1000000E+03  0.7546771E-02  0.1280296E+00
         21   -1    0    0  501  502  0.00000000000E+00  0.00000000000E+00  0.12385242421E+04  0.12385242421E+04  0.00000000000E+00 0. -1.
         21   -1    0    0  502  503 -0.00000000000E+00 -0.00000000000E+00 -0.11078757671E+03  0.11078757671E+03  0.00000000000E+00 0. -1.
          6    1    1    2  501    0 -0.19649713668E+03  0.23853244750E+03  0.36623074681E+03  0.50947307401E+03  0.17300000000E+03 0. -1.
         -6    1    1    2    0  503  0.19649713668E+03 -0.23853244750E+03  0.76150591861E+03  0.83983874483E+03  0.17300000000E+03 0. -1.
</event>
<event>
 4    1  0.6197496E+000  0.1000000E+03  0.7546771E-02  0.1280296E+00
         21   -1    0    0  503  502  0.00000000000E+00  0.00000000000E+00  0.48176788769E+03  0.48176788769E+03  0.00000000000E+00 0.  1.
         21   -1    0    0  501  503 -0.00000000000E+00 -0.00000000000E+00 -0.59292483261E+03  0.59292483261E+03  0.00000000000E+00 0. -1.
          6    1    1    2  501    0 -0.41514675999E+02  0.85722325638E+02 -0.55489658867E+03  0.58899151908E+03  0.17300000000E+03 0.  1.
         -6    1    1    2    0  502  0.41514675999E+02 -0.85722325638E+02  0.44373964375E+03  0.48570120122E+03  0.17300000000E+03 0.  1.
</event>
<event>
 4    1  0.6197496E+000  0.1000000E+03  0.7546771E-02  0.1280296E+00
         21   -1    0    0  503  502  0.00000000000E+00  0.00000000000E+00  0.29709970307E+03  0.29709970307E+03  0.00000000000E+00 0.  1.
         21   -1    0    0  501  503 -0.00000000000E+00 -0.00000000000E+00 -0.23057364646E+03  0.23057364646E+03  0.00000000000E+00 0. -1.
          6    1    1    2  501    0  0.73228741929E+02 -0.18034613491E+03  0.59688090568E+02  0.26716819642E+03  0.17300000000E+03 0.  1.
         -6    1    1    2    0  502 -0.73228741929E+02  0.18034613491E+03  0.68379660435E+01  0.26050515312E+03  0.17300000000E+03 0.  1.
</event>
<event>
 4    1  0.6197496E+000  0.1000000E+03  0.7546771E-02  0.1280296E+00
         21   -1    0    0  503  502  0.00000000000E+00  0.00000000000E+00  0.55287713431E+03  0.55287713431E+03  0.00000000000E+00 0. -1.
         21   -1    0    0  501  503 -0.00000000000E+00 -0.00000000000E+00 -0.12180679359E+03  0.12180679359E+03  0.00000000000E+00 0.  1.
          6    1    1    2  501    0  0.36523042513E+02  0.16208914802E+03  0.86793648005E+02  0.25508618519E+03  0.17300000000E+03 0. -1.
         -6    1    1    2    0  502 -0.36523042513E+02 -0.16208914802E+03  0.34427669272E+03  0.41959774271E+03  0.17300000000E+03 0.  1.
</event>
<event>
 4    1  0.6197496E+000  0.1000000E+03  0.7546771E-02  0.1280296E+00
         21   -1    0    0  501  502  0.00000000000E+00  0.00000000000E+00  0.10296528418E+04  0.10296528418E+04  0.00000000000E+00 0.  1.
         21   -1    0    0  502  503 -0.00000000000E+00 -0.00000000000E+00 -0.17529345151E+03  0.17529345151E+03  0.00000000000E+00 0.  1.
          6    1    1    2  501    0  0.95558761911E+02  0.94417895251E+02  0.94341047866E+03  0.96850325098E+03  0.17300000000E+03 0.  1.
         -6    1    1    2    0  503 -0.95558761911E+02 -0.94417895251E+02 -0.89051088373E+02  0.23644304232E+03  0.17300000000E+03 0.  1.
</event>
<event>
 4    1  0.6197496E+000  0.1000000E+03  0.7546771E-02  0.1280296E+00
         21   -1    0    0  501  502  0.00000000000E+00  0.00000000000E+00  0.13843256476E+03  0.13843256476E+03  0.00000000000E+00 0.  1.
         21   -1    0    0  502  503 -0.00000000000E+00 -0.00000000000E+00 -0.47962202942E+03  0.47962202942E+03  0.00000000000E+00 0.  1.
          6    1    1    2  501    0  0.43131753690E+02 -0.18223789959E+03 -0.21539319410E+03  0.33375773892E+03  0.17300000000E+03 0.  1.
         -6    1    1    2    0  503 -0.43131753690E+02  0.18223789959E+03 -0.12579627056E+03  0.28429685526E+03  0.17300000000E+03 0.  1.
</event>
<event>
 4    1  0.6197496E+000  0.1000000E+03  0.7546771E-02  0.1280296E+00
         21   -1    0    0  503  502  0.00000000000E+00  0.00000000000E+00  0.29601178252E+02  0.29601178252E+02  0.00000000000E+00 0. -1.
         21   -1    0    0  501  503 -0.00000000000E+00 -0.00000000000E+00 -0.12141184831E+04  0.12141184831E+04  0.00000000000E+00 0. -1.
          6    1    1    2  501    0 -0.55133171617E+02 -0.29323006950E+02 -0.44155133686E+03  0.47832634094E+03  0.17300000000E+03 0.  1.
         -6    1    1    2    0  502  0.55133171617E+02  0.29323006950E+02 -0.74296596794E+03  0.76539332037E+03  0.17300000000E+03 0.  1.
</event>
<event>
 4    1  0.6197496E+000  0.1000000E+03  0.7546771E-02  0.1280296E+00
         21   -1    0    0  501  502  0.00000000000E+00  0.00000000000E+00  0.21134113258E+03  0.21134113258E+03  0.00000000000E+00 0. -1.
         21   -1    0    0  502  503 -0.00000000000E+00 -0.00000000000E+00 -0.23030827530E+03  0.23030827530E+03  0.00000000000E+00 0.  1.
          6    1    1    2  501    0  0.11391912571E+03  0.43116504562E+02  0.53088249143E+02  0.21813748501E+03  0.17300000000E+03 0.  1.
         -6    1    1    2    0  503 -0.11391912571E+03 -0.43116504562E+02 -0.72055391857E+02  0.22351192287E+03  0.17300000000E+03 0. -1.
</event>
<event>
 4    1  0.6197496E+000  0.1000000E+03  0.7546771E-02  0.1280296E+00
         21   -1    0    0  503  502  0.00000000000E+00  0.00000000000E+00  0.27083432932E+03  0.27083432932E+03  0.00000000000E+00 0. -1.
         21   -1    0    0  501  503 -0.00000000000E+00 -0.00000000000E+00 -0.21557091350E+03  0.21557091350E+03  0.00000000000E+00 0.  1.
          6    1    1    2  501    0  0.11337718602E+03  0.63807568901E+02 -0.80442265808E+02  0.23092368931E+03  0.17300000000E+03 0. -1.
         -6    1    1    2    0  502 -0.11337718602E+03 -0.63807568901E+02  0.13570568163E+03  0.25548155351E+03  0.17300000000E+03 0.  1.
</event>
<event>
 4    1  0.6197496E+000  0.1000000E+03  0.7546771E-02  0.1280296E+00
         21   -1    0    0  503  502  0.00000000000E+00  0.00000000000E+00  0.30461348767E+03  0.30461348767E+03  0.00000000000E+00 0. -1.
         21   -1    0    0  501  503 -0.00000000000E+00 -0.00000000000E+00 -0.20532261366E+03  0.20532261366E+03  0.00000000000E+00 0.  1.
          6    1    1    2  501    0 -0.16244023798E+03  0.20738251375E+02 -0.27985858903E+02  0.23985227596E+03  0.17300000000E+03 0. -1.
         -6    1    1    2    0  502  0.16244023798E+03 -0.20738251375E+02  0.12727673291E+03  0.27008382537E+03  0.17300000000E+03 0.  1.
</event>
<event>
 4    1  0.6197496E+000  0.1000000E+03  0.7546771E-02  0.1280296E+00
         21   -1    0    0  501  502  0.00000000000E+00  0.00000000000E+00  0.19560112470E+03  0.19560112470E+03  0.00000000000E+00 0.  1.
         21   -1    0    0  502  503 -0.00000000000E+00 -0.00000000000E+00 -0.24834698448E+03  0.24834698448E+03  0.00000000000E+00 0.  1.
          6    1    1    2  501    0  0.39969365817E+02 -0.43088166438E+02  0.97769553719E+02  0.20722457848E+03  0.17300000000E+03 0.  1.
         -6    1    1    2    0  503 -0.39969365817E+02  0.43088166438E+02 -0.15051541350E+03  0.23672353071E+03  0.17300000000E+03 0.  1.
</event>
<event>
 4    1  0.6197496E+000  0.1000000E+03  0.7546771E-02  0.1280296E+00
         21   -1    0    0  501  502  0.00000000000E+00  0.00000000000E+00  0.21087897883E+02  0.21087897883E+02  0.00000000000E+00 0.  1.
         21   -1    0    0  502  503 -0.00000000000E+00 -0.00000000000E+00 -0.17804543558E+04  0.17804543558E+04  0.00000000000E+00 0.  1.
          6    1    1    2  501    0 -0.53252077400E+02 -0.65774856481E+02 -0.78053113610E+03  0.80394027758E+03  0.17300000000E+03 0.  1.
         -6    1    1    2    0  503  0.53252077400E+02  0.65774856481E+02 -0.97883532186E+03  0.99760197615E+03  0.17300000000E+03 0.  1.
</event>
<event>
 4    1  0.6197496E+000  0.1000000E+03  0.7546771E-02  0.1280296E+00
         21   -1    0    0  501  502  0.00000000000E+00  0.00000000000E+00  0.61142159391E+02  0.61142159391E+02  0.00000000000E+00 0.  1.
         21   -1    0    0  502  503 -0.00000000000E+00 -0.00000000000E+00 -0.98672487832E+03  0.98672487832E+03  0.00000000000E+00 0.  1.
          6    1    1    2  501    0  0.12288968832E+02 -0.13039727924E+03 -0.21728267243E+03  0.30707528218E+03  0.17300000000E+03 0.  1.
         -6    1    1    2    0  503 -0.12288968832E+02  0.13039727924E+03 -0.70830004650E+03  0.74079175553E+03  0.17300000000E+03 0.  1.
</event>
<event>
 4    1  0.6197496E+000  0.1000000E+03  0.7546771E-02  0.1280296E+00
         21   -1    0    0  501  502  0.00000000000E+00  0.00000000000E+00  0.16747589528E+03  0.16747589528E+03  0.00000000000E+00 0.  1.
         21   -1    0    0  502  503 -0.00000000000E+00 -0.00000000000E+00 -0.22379764346E+03  0.22379764346E+03  0.00000000000E+00 0.  1.
          6    1    1    2  501    0 -0.54349576153E+02  0.35208056167E+02  0.30399197887E+02  0.18720735797E+03  0.17300000000E+03 0.  1.
         -6    1    1    2    0  503  0.54349576153E+02 -0.35208056167E+02 -0.86720946062E+02  0.20406618077E+03  0.17300000000E+03 0.  1.
</event>
<event>
 4    1  0.6197496E+000  0.1000000E+03  0.7546771E-02  0.1280296E+00
         21   -1    0    0  501  502  0.00000000000E+00  0.00000000000E+00  0.20069839215E+03  0.20069839215E+03  0.00000000000E+00 0.  1.
         21   -1    0    0  502  503 -0.00000000000E+00 -0.00000000000E+00 -0.24297179266E+03  0.24297179266E+03  0.00000000000E+00 0.  1.
          6    1    1    2  501    0  0.67123464669E+01  0.59223971915E+02  0.10305076700E+03  0.21000236909E+03  0.17300000000E+03 0.  1.
         -6    1    1    2    0  503 -0.67123464669E+01 -0.59223971915E+02 -0.14532416750E+03  0.23366781572E+03  0.17300000000E+03 0.  1.
</event>
<event>
 4    1  0.6197496E+000  0.1000000E+03  0.7546771E-02  0.1280296E+00
         21   -1    0    0  503  502  0.00000000000E+00  0.00000000000E+00  0.18649002446E+03  0.18649002446E+03  0.00000000000E+00 0. -1.
         21   -1    0    0  501  503 -0.00000000000E+00 -0.00000000000E+00 -0.32500738622E+03  0.32500738622E+03  0.00000000000E+00 0.  1.
          6    1    1    2  501    0 -0.19522845484E+02 -0.58988611631E+02 -0.23938644474E+03  0.30182058864E+03  0.17300000000E+03 0. -1.
         -6    1    1    2    0  502  0.19522845484E+02  0.58988611631E+02  0.10086908299E+03  0.20967682204E+03  0.17300000000E+03 0.  1.
</event>
<event>
 4    1  0.6197496E+000  0.1000000E+03  0.7546771E-02  0.1280296E+00
         21   -1    0    0  503  502  0.00000000000E+00  0.00000000000E+00  0.92268578542E+03  0.92268578542E+03  0.00000000000E+00 0. -1.
         21   -1    0    0  501  503 -0.00000000000E+00 -0.00000000000E+00 -0.97624943628E+02  0.97624943628E+02  0.00000000000E+00 0.  1.
          6    1    1    2  501    0  0.14308517886E+03  0.73058874346E+02  0.97554424163E+02  0.25545417046E+03  0.17300000000E+03 0. -1.
         -6    1    1    2    0  502 -0.14308517886E+03 -0.73058874346E+02  0.72750641763E+03  0.76485655859E+03  0.17300000000E+03 0.  1.
</event>
<event>
 4    1  0.6197496E+000  0.1000000E+03  0.7546771E-02  0.1280296E+00
         21   -1    0    0  503  502  0.00000000000E+00  0.00000000000E+00  0.82078574421E+03  0.82078574421E+03  0.00000000000E+00 0. -1.
         21   -1    0    0  501  503 -0.00000000000E+00 -0.00000000000E+00 -0.78913621770E+02  0.78913621770E+02  0.00000000000E+00 0.  1.
          6    1    1    2  501    0 -0.15131937299E+03 -0.16609156259E+01  0.17777810669E+03  0.29057592209E+03  0.17300000000E+03 0. -1.
         -6    1    1    2    0  502  0.15131937299E+03  0.16609156259E+01  0.56409401575E+03  0.60912344388E+03  0.17300000000E+03 0.  1.
</event>
<event>
 4    1  0.6197496E+000  0.1000000E+03  0.7546771E-02  0.1280296E+00
         21   -1    0    0  503  502  0.00000000000E+00  0.00000000000E+00  0.94296166499E+02  0.94296166499E+02  0.00000000000E+00 0. -1.
         21   -1    0    0  501  503 -0.00000000000E+00 -0.00000000000E+00 -0.51487737484E+03  0.51487737484E+03  0.00000000000E+00 0.  1.
          6    1    1    2  501    0  0.94924766122E+02  0.60192696186E+02 -0.31725920151E+03  0.37843925912E+03  0.17300000000E+03 0. -1.
         -6    1    1    2    0  502 -0.94924766122E+02 -0.60192696186E+02 -0.10332200683E+03  0.23073428222E+03  0.17300000000E+03 0.  1.
</event>
<event>
 4    1  0.6197496E+000  0.1000000E+03  0.7546771E-02  0.1280296E+00
         21   -1    0    0  503  502  0.00000000000E+00  0.00000000000E+00  0.15513268143E+03  0.15513268143E+03  0.00000000000E+00 0. -1.
         21   -1    0    0  501  503 -0.00000000000E+00 -0.00000000000E+00 -0.62312738549E+03  0.62312738549E+03  0.00000000000E+00 0.  1.
          6    1    1    2  501    0 -0.17756030036E+03  0.18572434236E+03 -0.26751581391E+03  0.40928584425E+03  0.17300000000E+03 0. -1.
         -6    1    1    2    0  502  0.17756030036E+03 -0.18572434236E+03 -0.20047889014E+03  0.36897422268E+03  0.17300000000E+03 0.  1.
</event>
<event>
 4    1  0.6197496E+000  0.1000000E+03  0.7546771E-02  0.1280296E+00
         21   -1    0    0  501  502  0.00000000000E+00  0.00000000000E+00  0.86608020725E+02  0.86608020725E+02  0.00000000000E+00 0.  1.
         21   -1    0    0  502  503 -0.00000000000E+00 -0.00000000000E+00 -0.68229066344E+03  0.68229066344E+03  0.00000000000E+00 0. -1.
          6    1    1    2  501    0 -0.27946383334E+02  0.12945905453E+03 -0.12734325295E+03  0.25236075609E+03  0.17300000000E+03 0.  1.
         -6    1    1    2    0  503  0.27946383334E+02 -0.12945905453E+03 -0.46833938976E+03  0.51653792808E+03  0.17300000000E+03 0. -1.
</event>
<event>
 4    1  0.6197496E+000  0.1000000E+03  0.7546771E-02  0.1280296E+00
         21   -1    0    0  501  502  0.00000000000E+00  0.00000000000E+00  0.62986771647E+03  0.62986771647E+03  0.00000000000E+00 0.  1.
         21   -1    0    0  502  503 -0.00000000000E+00 -0.00000000000E+00 -0.25986172357E+03  0.25986172357E+03  0.00000000000E+00 0. -1.
          6    1    1    2  501    0 -0.11055595028E+02 -0.36347662923E+03  0.22776041838E+03  0.46264597087E+03  0.17300000000E+03 0.  1.
         -6    1    1    2    0  503  0.11055595028E+02  0.36347662923E+03  0.14224557452E+03  0.42708346918E+03  0.17300000000E+03 0. -1.
</event>
<event>
 4    1  0.6197496E+000  0.1000000E+03  0.7546771E-02  0.1280296E+00
         21   -1    0    0  501  502  0.00000000000E+00  0.00000000000E+00  0.84877156774E+02  0.84877156774E+02  0.00000000000E+00 0. -1.
         21   -1    0    0  502  503 -0.00000000000E+00 -0.00000000000E+00 -0.48139826992E+03  0.48139826992E+03  0.00000000000E+00 0. -1.
          6    1    1    2  501    0  0.36277089991E+02 -0.64654733835E+01 -0.33530817989E+03  0.37910210380E+03  0.17300000000E+03 0. -1.
         -6    1    1    2    0  503 -0.36277089991E+02  0.64654733835E+01 -0.61212933251E+02  0.18717332289E+03  0.17300000000E+03 0. -1.
</event>
<event>
 4    1  0.6197496E+000  0.1000000E+03  0.7546771E-02  0.1280296E+00
         21   -1    0    0  501  502  0.00000000000E+00  0.00000000000E+00  0.18871335750E+03  0.18871335750E+03  0.00000000000E+00 0. -1.
         21   -1    0    0  502  503 -0.00000000000E+00 -0.00000000000E+00 -0.19857056165E+03  0.19857056165E+03  0.00000000000E+00 0. -1.
          6    1    1    2  501    0  0.76866259128E+02  0.30359690406E+02  0.21796807074E+02  0.19296174075E+03  0.17300000000E+03 0. -1.
         -6    1    1    2    0  503 -0.76866259128E+02 -0.30359690406E+02 -0.31654011226E+02  0.19432217841E+03  0.17300000000E+03 0. -1.
</event>
<event>
 4    1  0.6197496E+000  0.1000000E+03  0.7546771E-02  0.1280296E+00
         21   -1    0    0  501  502  0.00000000000E+00  0.00000000000E+00  0.30594717886E+03  0.30594717886E+03  0.00000000000E+00 0. -1.
         21   -1    0    0  502  503 -0.00000000000E+00 -0.00000000000E+00 -0.30309366686E+03  0.30309366686E+03  0.00000000000E+00 0. -1.
          6    1    1    2  501    0 -0.84971496201E+02 -0.21770292547E+03  0.91909423390E+02  0.30494435728E+03  0.17300000000E+03 0. -1.
         -6    1    1    2    0  503  0.84971496201E+02  0.21770292547E+03 -0.89055911396E+02  0.30409648844E+03  0.17300000000E+03 0. -1.
</event>
<event>
 4    1  0.6197496E+000  0.1000000E+03  0.7546771E-02  0.1280296E+00
         21   -1    0    0  501  502  0.00000000000E+00  0.00000000000E+00  0.15747613911E+04  0.15747613911E+04  0.00000000000E+00 0. -1.
         21   -1    0    0  502  503 -0.00000000000E+00 -0.00000000000E+00 -0.24177160775E+02  0.24177160775E+02  0.00000000000E+00 0. -1.
          6    1    1    2  501    0  0.28200865672E+02  0.68070578800E+02  0.98879610862E+03  0.10065165855E+04  0.17300000000E+03 0. -1.
         -6    1    1    2    0  503 -0.28200865672E+02 -0.68070578800E+02  0.56178812173E+03  0.59242196637E+03  0.17300000000E+03 0. -1.
</event>
<event>
 4    1  0.6197496E+000  0.1000000E+03  0.7546771E-02  0.1280296E+00
         21   -1    0    0  503  502  0.00000000000E+00  0.00000000000E+00  0.45754788882E+03  0.45754788882E+03  0.00000000000E+00 0.  1.
         21   -1    0    0  501  503 -0.00000000000E+00 -0.00000000000E+00 -0.92301922071E+02  0.92301922071E+02  0.00000000000E+00 0.  1.
          6    1    1    2  501    0 -0.14142491783E+02  0.51548926782E+02  0.52600008679E+02  0.18855519839E+03  0.17300000000E+03 0.  1.
         -6    1    1    2    0  502  0.14142491783E+02 -0.51548926782E+02  0.31264595807E+03  0.36129461250E+03  0.17300000000E+03 0.  1.
</event>
<event>
 4    1  0.6197496E+000  0.1000000E+03  0.7546771E-02  0.1280296E+00
         21   -1    0    0  503  502  0.00000000000E+00  0.00000000000E+00  0.36091255667E+03  0.36091255667E+03  0.00000000000E+00 0.  1.
         21   -1    0    0  501  503 -0.00000000000E+00 -0.00000000000E+00 -0.54042522803E+03  0.54042522803E+03  0.00000000000E+00 0.  1.
          6    1    1    2  501    0 -0.26532173448E+03 -0.21562868778E+03 -0.31384966833E+03  0.49529987694E+03  0.17300000000E+03 0.  1.
         -6    1    1    2    0  502  0.26532173448E+03  0.21562868778E+03  0.13433699698E+03  0.40603790776E+03  0.17300000000E+03 0.  1.
</event>
<event>
 4    1  0.6197496E+000  0.1000000E+03  0.7546771E-02  0.1280296E+00
         21   -1    0    0  503  502  0.00000000000E+00  0.00000000000E+00  0.21439575319E+03  0.21439575319E+03  0.00000000000E+00 0.  1.
         21   -1    0    0  501  503 -0.00000000000E+00 -0.00000000000E+00 -0.75415857145E+03  0.75415857145E+03  0.00000000000E+00 0.  1.
          6    1    1    2  501    0 -0.28278526207E+03 -0.22211704420E+03 -0.32956579307E+03  0.51753849879E+03  0.17300000000E+03 0.  1.
         -6    1    1    2    0  502  0.28278526207E+03  0.22211704420E+03 -0.21019702518E+03  0.45101582585E+03  0.17300000000E+03 0.  1.
</event>
<event>
 4    1  0.6197496E+000  0.1000000E+03  0.7546771E-02  0.1280296E+00
         21   -1    0    0  503  502  0.00000000000E+00  0.00000000000E+00  0.25951772087E+02  0.25951772087E+02  0.00000000000E+00 0.  1.
         21   -1    0    0  501  503 -0.00000000000E+00 -0.00000000000E+00 -0.13030126921E+04  0.13030126921E+04  0.00000000000E+00 0.  1.
          6    1    1    2  501    0 -0.57470952603E+02  0.15762294364E+02 -0.70468062913E+03  0.72804886470E+03  0.17300000000E+03 0.  1.
         -6    1    1    2    0  502  0.57470952603E+02 -0.15762294364E+02 -0.57238029088E+03  0.60091559948E+03  0.17300000000E+03 0.  1.
</event>
<event>
 4    1  0.6197496E+000  0.1000000E+03  0.7546771E-02  0.1280296E+00
         21   -1    0    0  501  502  0.00000000000E+00  0.00000000000E+00  0.11949329243E+03  0.11949329243E+03  0.00000000000E+00 0. -1.
         21   -1    0    0  502  503 -0.00000000000E+00 -0.00000000000E+00 -0.21242409977E+04  0.21242409977E+04  0.00000000000E+00 0. -1.
          6    1    1    2  501    0  0.29161996415E+03 -0.31802412329E+03 -0.56989472504E+03  0.73545261174E+03  0.17300000000E+03 0. -1.
         -6    1    1    2    0  503 -0.29161996415E+03  0.31802412329E+03 -0.14348529802E+04  0.15082816784E+04  0.17300000000E+03 0. -1.
</event>
<event>
 4    1  0.6197496E+000  0.1000000E+03  0.7546771E-02  0.1280296E+00
         21   -1    0    0  501  502  0.00000000000E+00  0.00000000000E+00  0.15524774876E+03  0.15524774876E+03  0.00000000000E+00 0.  1.
         21   -1    0    0  502  503 -0.00000000000E+00 -0.00000000000E+00 -0.24009587216E+03  0.24009587216E+03  0.00000000000E+00 0.  1.
          6    1    1    2  501    0 -0.30699045676E+01  0.33733311972E+02  0.38181484932E+02  0.18037235498E+03  0.17300000000E+03 0.  1.
         -6    1    1    2    0  503  0.30699045676E+01 -0.33733311972E+02 -0.12302960834E+03  0.21497126594E+03  0.17300000000E+03 0.  1.
</event>
<event>
 4    1  0.6197496E+000  0.1000000E+03  0.7546771E-02  0.1280296E+00
         21   -1    0    0  501  502  0.00000000000E+00  0.00000000000E+00  0.66480545559E+03  0.66480545559E+03  0.00000000000E+00 0.  1.
         21   -1    0    0  502  503 -0.00000000000E+00 -0.00000000000E+00 -0.11926324130E+03  0.11926324130E+03  0.00000000000E+00 0. -1.
          6    1    1    2  501    0 -0.70232827118E+02 -0.20583405650E+02  0.56482123572E+03  0.59523806574E+03  0.17300000000E+03 0. -1.
         -6    1    1    2    0  503  0.70232827118E+02  0.20583405650E+02 -0.19279021430E+02  0.18883063115E+03  0.17300000000E+03 0. -1.
</event>
<event>
 4    1  0.6197496E+000  0.1000000E+03  0.7546771E-02  0.1280296E+00
         21   -1    0    0  501  502  0.00000000000E+00  0.00000000000E+00  0.12174207797E+03  0.12174207797E+03  0.00000000000E+00 0.  1.
         21   -1    0    0  502  503 -0.00000000000E+00 -0.00000000000E+00 -0.80487973356E+03  0.80487973356E+03  0.00000000000E+00 0.  1.
          6    1    1    2  501    0 -0.22031451053E+03  0.13422834986E+03 -0.39894952861E+03  0.50561394348E+03  0.17300000000E+03 0.  1.
         -6    1    1    2    0  503  0.22031451053E+03 -0.13422834986E+03 -0.28418812698E+03  0.42100786806E+03  0.17300000000E+03 0.  1.
</event>
<event>
 4    1  0.6197496E+000  0.1000000E+03  0.7546771E-02  0.1280296E+00
         21   -1    0    0  501  502  0.00000000000E+00  0.00000000000E+00  0.64609523118E+03  0.64609523118E+03  0.00000000000E+00 0.  1.
         21   -1    0    0  502  503 -0.00000000000E+00 -0.00000000000E+00 -0.36785160964E+03  0.36785160964E+03  0.00000000000E+00 0.  1.
          6    1    1    2  501    0  0.26258964642E+03 -0.27444858104E+03  0.40109707793E+03  0.57886372487E+03  0.17300000000E+03 0.  1.
         -6    1    1    2    0  503 -0.26258964642E+03  0.27444858104E+03 -0.12285345639E+03  0.43508311596E+03  0.17300000000E+03 0.  1.
</event>
<event>
 4    1  0.6197496E+000  0.1000000E+03  0.7546771E-02  0.1280296E+00
         21   -1    0    0  503  502  0.00000000000E+00  0.00000000000E+00  0.11084920215E+03  0.11084920215E+03  0.00000000000E+00 0.  1.
         21   -1    0    0  501  503 -0.00000000000E+00 -0.00000000000E+00 -0.96433252782E+03  0.96433252782E+03  0.00000000000E+00 0.  1.
          6    1    1    2  501    0  0.10467023358E+03  0.15860763905E+03 -0.75908793321E+03  0.80140859198E+03  0.17300000000E+03 0.  1.
         -6    1    1    2    0  502 -0.10467023358E+03 -0.15860763905E+03 -0.94395392467E+02  0.27377313799E+03  0.17300000000E+03 0.  1.
</event>
<event>
 4    1  0.6197496E+000  0.1000000E+03  0.7546771E-02  0.1280296E+00
         21   -1    0    0  501  502  0.00000000000E+00  0.00000000000E+00  0.54251202384E+03  0.54251202384E+03  0.00000000000E+00 0. -1.
         21   -1    0    0  502  503 -0.00000000000E+00 -0.00000000000E+00 -0.91163395252E+02  0.91163395252E+02  0.00000000000E+00 0.  1.
          6    1    1    2  501    0  0.12445910206E+03  0.53475248710E+02  0.27458448871E+03  0.35167500871E+03  0.17300000000E+03 0. -1.
         -6    1    1    2    0  503 -0.12445910206E+03 -0.53475248710E+02  0.17676413988E+03  0.28200041038E+03  0.17300000000E+03 0.  1.
</event>
<event>
 4    1  0.6197496E+000  0.1000000E+03  0.7546771E-02  0.1280296E+00
         21   -1    0    0  501  502  0.00000000000E+00  0.00000000000E+00  0.20539694792E+03  0.20539694792E+03  0.00000000000E+00 0. -1.
         21   -1    0    0  502  503 -0.00000000000E+00 -0.00000000000E+00 -0.22527585297E+03  0.22527585297E+03  0.00000000000E+00 0.  1.
          6    1    1    2  501    0 -0.12275153686E+03 -0.35693575687E+02 -0.99781343130E+01  0.21533818591E+03  0.17300000000E+03 0. -1.
         -6    1    1    2    0  503  0.12275153686E+03  0.35693575687E+02 -0.99007707343E+01  0.21533461498E+03  0.17300000000E+03 0.  1.
</event>
<event>
 4    1  0.6197496E+000  0.1000000E+03  0.7546771E-02  0.1280296E+00
         21   -1    0    0  503  502  0.00000000000E+00  0.00000000000E+00  0.60525857444E+03  0.60525857444E+03  0.00000000000E+00 0.  1.
         21   -1    0    0  501  503 -0.00000000000E+00 -0.00000000000E+00 -0.10987020175E+03  0.10987020175E+03  0.00000000000E+00 0. -1.
          6    1    1    2  501    0  0.10002369589E+03  0.54379793132E+02  0.34643746768E+02  0.20997878662E+03  0.17300000000E+03 0. -1.
         -6    1    1    2    0  502 -0.10002369589E+03 -0.54379793132E+02  0.46074462593E+03  0.50514998957E+03  0.17300000000E+03 0.  1.
</event>
<event>
 4    1  0.6197496E+000  0.1000000E+03  0.7546771E-02  0.1280296E+00
         21   -1    0    0  503  502  0.00000000000E+00  0.00000000000E+00  0.10349524598E+04  0.10349524598E+04  0.00000000000E+00 0.  1.
         21   -1    0    0  501  503 -0.00000000000E+00 -0.00000000000E+00 -0.89281056757E+02  0.89281056757E+02  0.00000000000E+00 0. -1.
          6    1    1    2  501    0  0.78518135659E+02 -0.45026367746E+02  0.42004346763E+02  0.19971438748E+03  0.17300000000E+03 0. -1.
         -6    1    1    2    0  502 -0.78518135659E+02  0.45026367746E+02  0.90366705627E+03  0.92451912906E+03  0.17300000000E+03 0.  1.
</event>
<event>
 4    1  0.6197496E+000  0.1000000E+03  0.7546771E-02  0.1280296E+00
         21   -1    0    0  501  502  0.00000000000E+00  0.00000000000E+00  0.98113442664E+02  0.98113442664E+02  0.00000000000E+00 0.  1.
         21   -1    0    0  502  503 -0.00000000000E+00 -0.00000000000E+00 -0.61178169622E+03  0.61178169622E+03  0.00000000000E+00 0. -1.
          6    1    1    2  501    0  0.74272580760E+01 -0.13731219044E+03 -0.10361121397E+03  0.24407803151E+03  0.17300000000E+03 0.  1.
         -6    1    1    2    0  503 -0.74272580760E+01  0.13731219044E+03 -0.41005703958E+03  0.46581710737E+03  0.17300000000E+03 0. -1.
</event>
<event>
 4    1  0.6197496E+000  0.1000000E+03  0.7546771E-02  0.1280296E+00
         21   -1    0    0  503  502  0.00000000000E+00  0.00000000000E+00  0.35312412057E+03  0.35312412057E+03  0.00000000000E+00 0. -1.
         21   -1    0    0  501  503 -0.00000000000E+00 -0.00000000000E+00 -0.96057887534E+02  0.96057887534E+02  0.00000000000E+00 0. -1.
          6    1    1    2  501    0 -0.22708773708E+02 -0.58944739079E+02  0.12720487822E+03  0.22383085514E+03  0.17300000000E+03 0. -1.
         -6    1    1    2    0  502  0.22708773708E+02  0.58944739079E+02  0.12986135481E+03  0.22535115296E+03  0.17300000000E+03 0. -1.
</event>
<event>
 4    1  0.6197496E+000  0.1000000E+03  0.7546771E-02  0.1280296E+00
         21   -1    0    0  503  502  0.00000000000E+00  0.00000000000E+00  0.80829596109E+02  0.80829596109E+02  0.00000000000E+00 0. -1.
         21   -1    0    0  501  503 -0.00000000000E+00 -0.00000000000E+00 -0.56632164078E+03  0.56632164078E+03  0.00000000000E+00 0. -1.
          6    1    1    2  501    0  0.21574821271E+02  0.27740405131E+02 -0.42555903221E+03  0.46072170872E+03  0.17300000000E+03 0. -1.
         -6    1    1    2    0  502 -0.21574821271E+02 -0.27740405131E+02 -0.59933012457E+02  0.18642952817E+03  0.17300000000E+03 0. -1.
</event>
<event>
 4    1  0.6197496E+000  0.1000000E+03  0.7546771E-02  0.1280296E+00
         21   -1    0    0  503  502  0.00000000000E+00  0.00000000000E+00  0.42045545630E+03  0.42045545630E+03  0.00000000000E+00 0. -1.
         21   -1    0    0  501  503 -0.00000000000E+00 -0.00000000000E+00 -0.57666314446E+03  0.57666314446E+03  0.00000000000E+00 0. -1.
          6    1    1    2  501    0 -0.19979827593E+03 -0.41523290839E+03 -0.63985117311E+02  0.49634747356E+03  0.17300000000E+03 0. -1.
         -6    1    1    2    0  502  0.19979827593E+03  0.41523290839E+03 -0.92222570852E+02  0.50077112721E+03  0.17300000000E+03 0. -1.
</event>
<event>
 4    1  0.6197496E+000  0.1000000E+03  0.7546771E-02  0.1280296E+00
         21   -1    0    0  503  502  0.00000000000E+00  0.00000000000E+00  0.73093738378E+02  0.73093738378E+02  0.00000000000E+00 0. -1.
         21   -1    0    0  501  503 -0.00000000000E+00 -0.00000000000E+00 -0.96204125744E+03  0.96204125744E+03  0.00000000000E+00 0.  1.
          6    1    1    2  501    0 -0.12212476680E+03  0.13626510241E+02 -0.75486175563E+03  0.78412078825E+03  0.17300000000E+03 0.  1.
         -6    1    1    2    0  502  0.12212476680E+03 -0.13626510241E+02 -0.13408576343E+03  0.25101420757E+03  0.17300000000E+03 0. -1.
</event>
<event>
 4    1  0.6197496E+000  0.1000000E+03  0.7546771E-02  0.1280296E+00
         21   -1    0    0  503  502  0.00000000000E+00  0.00000000000E+00  0.81381140493E+03  0.81381140493E+03  0.00000000000E+00 0. -1.
         21   -1    0    0  501  503 -0.00000000000E+00 -0.00000000000E+00 -0.79863994389E+02  0.79863994389E+02  0.00000000000E+00 0.  1.
          6    1    1    2  501    0 -0.79740518291E+02 -0.68695689375E+02  0.95513833800E+02  0.22389627162E+03  0.17300000000E+03 0.  1.
         -6    1    1    2    0  502  0.79740518291E+02  0.68695689375E+02  0.63843357674E+03  0.66977912770E+03  0.17300000000E+03 0. -1.
</event>
<event>
 4    1  0.6197496E+000  0.1000000E+03  0.7546771E-02  0.1280296E+00
         21   -1    0    0  503  502  0.00000000000E+00  0.00000000000E+00  0.22989794430E+03  0.22989794430E+03  0.00000000000E+00 0. -1.
         21   -1    0    0  501  503 -0.00000000000E+00 -0.00000000000E+00 -0.36807643783E+03  0.36807643783E+03  0.00000000000E+00 0.  1.
          6    1    1    2  501    0  0.68385009915E+02  0.82329199062E+02 -0.28280711951E+03  0.34837260719E+03  0.17300000000E+03 0.  1.
         -6    1    1    2    0  502 -0.68385009915E+02 -0.82329199062E+02  0.14462862598E+03  0.24960177494E+03  0.17300000000E+03 0. -1.
</event>
<event>
 4    1  0.6197496E+000  0.1000000E+03  0.7546771E-02  0.1280296E+00
         21   -1    0    0  501  502  0.00000000000E+00  0.00000000000E+00  0.52641085090E+03  0.52641085090E+03  0.00000000000E+00 0. -1.
         21   -1    0    0  502  503 -0.00000000000E+00 -0.00000000000E+00 -0.10924290039E+03  0.10924290039E+03  0.00000000000E+00 0. -1.
          6    1    1    2  501    0 -0.15900551256E+02  0.16377630584E+03  0.17888475965E+03  0.29833582272E+03  0.17300000000E+03 0. -1.
         -6    1    1    2    0  503  0.15900551256E+02 -0.16377630584E+03  0.23828319086E+03  0.33731792856E+03  0.17300000000E+03 0. -1.
</event>
<event>
 4    1  0.6197496E+000  0.1000000E+03  0.7546771E-02  0.1280296E+00
         21   -1    0    0  501  502  0.00000000000E+00  0.00000000000E+00  0.29855932250E+03  0.29855932250E+03  0.00000000000E+00 0. -1.
         21   -1    0    0  502  503 -0.00000000000E+00 -0.00000000000E+00 -0.22555655489E+03  0.22555655489E+03  0.00000000000E+00 0. -1.
          6    1    1    2  501    0 -0.44372768610E+02  0.14134961528E+03  0.16208130140E+03  0.27954964603E+03  0.17300000000E+03 0. -1.
         -6    1    1    2    0  503  0.44372768610E+02 -0.14134961528E+03 -0.89078533790E+02  0.24456623135E+03  0.17300000000E+03 0. -1.
</event>
<event>
 4    1  0.6197496E+000  0.1000000E+03  0.7546771E-02  0.1280296E+00
         21   -1    0    0  503  502  0.00000000000E+00  0.00000000000E+00  0.47890932009E+03  0.47890932009E+03  0.00000000000E+00 0.  1.
         21   -1    0    0  501  503 -0.00000000000E+00 -0.00000000000E+00 -0.11385706352E+04  0.11385706352E+04  0.00000000000E+00 0.  1.
          6    1    1    2  501    0 -0.10870218974E+02  0.13726545974E+03 -0.11014636358E+04  0.11234371852E+04  0.17300000000E+03 0.  1.
         -6    1    1    2    0  502  0.10870218974E+02 -0.13726545974E+03  0.44180232070E+03  0.49404277008E+03  0.17300000000E+03 0.  1.
</event>
<event>
 4    1  0.6197496E+000  0.1000000E+03  0.7546771E-02  0.1280296E+00
         21   -1    0    0  503  502  0.00000000000E+00  0.00000000000E+00  0.51513997416E+03  0.51513997416E+03  0.00000000000E+00 0.  1.
         21   -1    0    0  501  503 -0.00000000000E+00 -0.00000000000E+00 -0.11207346349E+03  0.11207346349E+03  0.00000000000E+00 0.  1.
          6    1    1    2  501    0  0.13865356671E+03 -0.33194214637E+02  0.88668117525E+02  0.24107613427E+03  0.17300000000E+03 0.  1.
         -6    1    1    2    0  502 -0.13865356671E+03  0.33194214637E+02  0.31439839315E+03  0.38613730338E+03  0.17300000000E+03 0.  1.
</event>
<event>
 4    1  0.6197496E+000  0.1000000E+03  0.7546771E-02  0.1280296E+00
         21   -1    0    0  501  502  0.00000000000E+00  0.00000000000E+00  0.42531708825E+03  0.42531708825E+03  0.00000000000E+00 0. -1.
         21   -1    0    0  502  503 -0.00000000000E+00 -0.00000000000E+00 -0.10147390456E+03  0.10147390456E+03  0.00000000000E+00 0.  1.
          6    1    1    2  501    0 -0.73606611380E+02  0.73529308557E+02  0.22410015690E+03  0.30161958288E+03  0.17300000000E+03 0. -1.
         -6    1    1    2    0  503  0.73606611380E+02 -0.73529308557E+02  0.99743026790E+02  0.22517140993E+03  0.17300000000E+03 0.  1.
</event>
<event>
 4    1  0.6197496E+000  0.1000000E+03  0.7546771E-02  0.1280296E+00
         21   -1    0    0  501  502  0.00000000000E+00  0.00000000000E+00  0.48947263867E+03  0.48947263867E+03  0.00000000000E+00 0. -1.
         21   -1    0    0  502  503 -0.00000000000E+00 -0.00000000000E+00 -0.68106440600E+02  0.68106440600E+02  0.00000000000E+00 0.  1.
          6    1    1    2  501    0  0.47526848956E+02 -0.24545181887E+02  0.24636132934E+03  0.30575181426E+03  0.17300000000E+03 0. -1.
         -6    1    1    2    0  503 -0.47526848956E+02  0.24545181887E+02  0.17500486873E+03  0.25182726501E+03  0.17300000000E+03 0.  1.
</event>
<event>
 4    1  0.6197496E+000  0.1000000E+03  0.7546771E-02  0.1280296E+00
         21   -1    0    0  501  502  0.00000000000E+00  0.00000000000E+00  0.37842056421E+03  0.37842056421E+03  0.00000000000E+00 0.  1.
         21   -1    0    0  502  503 -0.00000000000E+00 -0.00000000000E+00 -0.21743184419E+03  0.21743184419E+03  0.00000000000E+00 0.  1.
          6    1    1    2  501    0  0.14311457077E+03 -0.17069128147E+02  0.26506211371E+03  0.34779312763E+03  0.17300000000E+03 0.  1.
         -6    1    1    2    0  503 -0.14311457077E+03  0.17069128147E+02 -0.10407339369E+03  0.24805928077E+03  0.17300000000E+03 0.  1.
</event>
<event>
 4    1  0.6197496E+000  0.1000000E+03  0.7546771E-02  0.1280296E+00
         21   -1    0    0  503  502  0.00000000000E+00  0.00000000000E+00  0.11739321886E+03  0.11739321886E+03  0.00000000000E+00 0.  1.
         21   -1    0    0  501  503 -0.00000000000E+00 -0.00000000000E+00 -0.87494270913E+03  0.87494270913E+03  0.00000000000E+00 0.  1.
          6    1    1    2  501    0  0.22956542928E+03 -0.13747161537E+03 -0.43205975229E+03  0.53684575150E+03  0.17300000000E+03 0.  1.
         -6    1    1    2    0  502 -0.22956542928E+03  0.13747161537E+03 -0.32548973798E+03  0.45549017649E+03  0.17300000000E+03 0.  1.
</event>
<event>
 4    1  0.6197496E+000  0.1000000E+03  0.7546771E-02  0.1280296E+00
         21   -1    0    0  503  502  0.00000000000E+00  0.00000000000E+00  0.54244778418E+03  0.54244778418E+03  0.00000000000E+00 0.  1.
         21   -1    0    0  501  503 -0.00000000000E+00 -0.00000000000E+00 -0.11662560686E+03  0.11662560686E+03  0.00000000000E+00 0.  1.
          6    1    1    2  501    0  0.27208751228E+02  0.17144940472E+03  0.13880721449E+03  0.28165876041E+03  0.17300000000E+03 0.  1.
         -6    1    1    2    0  502 -0.27208751228E+02 -0.17144940472E+03  0.28701496284E+03  0.37741463063E+03  0.17300000000E+03 0.  1.
</event>
<event>
 4    1  0.6197496E+000  0.1000000E+03  0.7546771E-02  0.1280296E+00
         21   -1    0    0  503  502  0.00000000000E+00  0.00000000000E+00  0.57482322577E+03  0.57482322577E+03  0.00000000000E+00 0. -1.
         21   -1    0    0  501  503 -0.00000000000E+00 -0.00000000000E+00 -0.77259084735E+02  0.77259084735E+02  0.00000000000E+00 0.  1.
          6    1    1    2  501    0  0.19344201872E+02 -0.23946060428E+02  0.68796026078E+02  0.18870480958E+03  0.17300000000E+03 0.  1.
         -6    1    1    2    0  502 -0.19344201872E+02  0.23946060428E+02  0.42876811496E+03  0.46337750092E+03  0.17300000000E+03 0. -1.
</event>
<event>
 4    1  0.6197496E+000  0.1000000E+03  0.7546771E-02  0.1280296E+00
         21   -1    0    0  503  502  0.00000000000E+00  0.00000000000E+00  0.90165069382E+03  0.90165069382E+03  0.00000000000E+00 0. -1.
         21   -1    0    0  501  503 -0.00000000000E+00 -0.00000000000E+00 -0.12323899788E+03  0.12323899788E+03  0.00000000000E+00 0.  1.
          6    1    1    2  501    0 -0.12494463783E+03 -0.25236779765E+03  0.32239395295E+03  0.46170069169E+03  0.17300000000E+03 0.  1.
         -6    1    1    2    0  502  0.12494463783E+03  0.25236779765E+03  0.45601774298E+03  0.56318900001E+03  0.17300000000E+03 0. -1.
</event>
<event>
 4    1  0.6197496E+000  0.1000000E+03  0.7546771E-02  0.1280296E+00
         21   -1    0    0  503  502  0.00000000000E+00  0.00000000000E+00  0.16851762188E+03  0.16851762188E+03  0.00000000000E+00 0. -1.
         21   -1    0    0  501  503 -0.00000000000E+00 -0.00000000000E+00 -0.27486695465E+03  0.27486695465E+03  0.00000000000E+00 0. -1.
          6    1    1    2  501    0  0.12186427337E+03  0.26346110987E+02 -0.83133708886E+02  0.22887820394E+03  0.17300000000E+03 0. -1.
         -6    1    1    2    0  502 -0.12186427337E+03 -0.26346110987E+02 -0.23215623881E+02  0.21450637259E+03  0.17300000000E+03 0. -1.
</event>
<event>
 4    1  0.6197496E+000  0.1000000E+03  0.7546771E-02  0.1280296E+00
         21   -1    0    0  503  502  0.00000000000E+00  0.00000000000E+00  0.55380091182E+03  0.55380091182E+03  0.00000000000E+00 0. -1.
         21   -1    0    0  501  503 -0.00000000000E+00 -0.00000000000E+00 -0.10676500134E+03  0.10676500134E+03  0.00000000000E+00 0. -1.
          6    1    1    2  501    0 -0.30199195553E+02  0.11103617635E+03  0.51938960680E+02  0.21416741000E+03  0.17300000000E+03 0. -1.
         -6    1    1    2    0  502  0.30199195553E+02 -0.11103617635E+03  0.39509694981E+03  0.44639850316E+03  0.17300000000E+03 0. -1.
</event>
<event>
 4    1  0.6197496E+000  0.1000000E+03  0.7546771E-02  0.1280296E+00
         21   -1    0    0  503  502  0.00000000000E+00  0.00000000000E+00  0.27007294030E+04  0.27007294030E+04  0.00000000000E+00 0. -1.
         21   -1    0    0  501  503 -0.00000000000E+00 -0.00000000000E+00 -0.13448129016E+02  0.13448129016E+02  0.00000000000E+00 0. -1.
          6    1    1    2  501    0  0.47025676252E+02 -0.55383804081E+02  0.11061837449E+04  0.11219849631E+04  0.17300000000E+03 0. -1.
         -6    1    1    2    0  502 -0.47025676252E+02  0.55383804081E+02  0.15810975291E+04  0.15921925689E+04  0.17300000000E+03 0. -1.
</event>
<event>
 4    1  0.6197496E+000  0.1000000E+03  0.7546771E-02  0.1280296E+00
         21   -1    0    0  501  502  0.00000000000E+00  0.00000000000E+00  0.30037266840E+03  0.30037266840E+03  0.00000000000E+00 0.  1.
         21   -1    0    0  502  503 -0.00000000000E+00 -0.00000000000E+00 -0.75427670489E+03  0.75427670489E+03  0.00000000000E+00 0. -1.
          6    1    1    2  501    0 -0.50720602530E+02 -0.85935849237E+02  0.25170959870E+03  0.32131646672E+03  0.17300000000E+03 0.  1.
         -6    1    1    2    0  503  0.50720602530E+02  0.85935849237E+02 -0.70561363519E+03  0.73333290658E+03  0.17300000000E+03 0. -1.
</event>
<event>
 4    1  0.6197496E+000  0.1000000E+03  0.7546771E-02  0.1280296E+00
         21   -1    0    0  501  502  0.00000000000E+00  0.00000000000E+00  0.79542744115E+02  0.79542744115E+02  0.00000000000E+00 0.  1.
         21   -1    0    0  502  503 -0.00000000000E+00 -0.00000000000E+00 -0.73737670189E+03  0.73737670189E+03  0.00000000000E+00 0. -1.
          6    1    1    2  501    0 -0.35914965180E+02 -0.85627832754E+02 -0.56804111023E+03  0.60101723218E+03  0.17300000000E+03 0.  1.
         -6    1    1    2    0  503  0.35914965180E+02  0.85627832754E+02 -0.89792847552E+02  0.21590221383E+03  0.17300000000E+03 0. -1.
</event>
<event>
 4    1  0.6197496E+000  0.1000000E+03  0.7546771E-02  0.1280296E+00
         21   -1    0    0  503  502  0.00000000000E+00  0.00000000000E+00  0.32825227843E+03  0.32825227843E+03  0.00000000000E+00 0. -1.
         21   -1    0    0  501  503 -0.00000000000E+00 -0.00000000000E+00 -0.17085785372E+03  0.17085785372E+03  0.00000000000E+00 0. -1.
          6    1    1    2  501    0  0.15552932546E+02 -0.35166981612E+02 -0.86837879697E+02  0.19735356003E+03  0.17300000000E+03 0. -1.
         -6    1    1    2    0  502 -0.15552932546E+02  0.35166981612E+02  0.24423230440E+03  0.30175657212E+03  0.17300000000E+03 0. -1.
</event>
<event>
 4    1  0.6197496E+000  0.1000000E+03  0.7546771E-02  0.1280296E+00
         21   -1    0    0  503  502  0.00000000000E+00  0.00000000000E+00  0.34618090409E+03  0.34618090409E+03  0.00000000000E+00 0. -1.
         21   -1    0    0  501  503 -0.00000000000E+00 -0.00000000000E+00 -0.10815984749E+03  0.10815984749E+03  0.00000000000E+00 0. -1.
          6    1    1    2  501    0  0.21704713919E+02  0.83378990692E+02  0.10782835965E+03  0.22131223608E+03  0.17300000000E+03 0. -1.
         -6    1    1    2    0  502 -0.21704713919E+02 -0.83378990692E+02  0.13019269694E+03  0.23302851549E+03  0.17300000000E+03 0. -1.
</event>
<event>
 4    1  0.6197496E+000  0.1000000E+03  0.7546771E-02  0.1280296E+00
         21   -1    0    0  503  502  0.00000000000E+00  0.00000000000E+00  0.15834054611E+04  0.15834054611E+04  0.00000000000E+00 0. -1.
         21   -1    0    0  501  503 -0.00000000000E+00 -0.00000000000E+00 -0.35035217110E+02  0.35035217110E+02  0.00000000000E+00 0. -1.
          6    1    1    2  501    0  0.12532156375E+03  0.37807500948E+02  0.45908868709E+03  0.50776601313E+03  0.17300000000E+03 0. -1.
         -6    1    1    2    0  502 -0.12532156375E+03 -0.37807500948E+02  0.10892815569E+04  0.11106746651E+04  0.17300000000E+03 0. -1.
</event>
<event>
 4    1  0.6197496E+000  0.1000000E+03  0.7546771E-02  0.1280296E+00
         21   -1    0    0  501  502  0.00000000000E+00  0.00000000000E+00  0.17349447989E+03  0.17349447989E+03  0.00000000000E+00 0.  1.
         21   -1    0    0  502  503 -0.00000000000E+00 -0.00000000000E+00 -0.20967429132E+03  0.20967429132E+03  0.00000000000E+00 0. -1.
          6    1    1    2  501    0 -0.30086645911E+02  0.64055537742E+02  0.20027912657E+02  0.18798520012E+03  0.17300000000E+03 0.  1.
         -6    1    1    2    0  503  0.30086645911E+02 -0.64055537742E+02 -0.56207724092E+02  0.19518357109E+03  0.17300000000E+03 0. -1.
</event>
<event>
 4    1  0.6197496E+000  0.1000000E+03  0.7546771E-02  0.1280296E+00
         21   -1    0    0  501  502  0.00000000000E+00  0.00000000000E+00  0.23721838822E+04  0.23721838822E+04  0.00000000000E+00 0.  1.
         21   -1    0    0  502  503 -0.00000000000E+00 -0.00000000000E+00 -0.27982508432E+02  0.27982508432E+02  0.00000000000E+00 0. -1.
          6    1    1    2  501    0  0.48294136380E+02  0.16807467830E+03  0.15289497692E+04  0.15486115774E+04  0.17300000000E+03 0.  1.
         -6    1    1    2    0  503 -0.48294136380E+02 -0.16807467830E+03  0.81525160461E+03  0.85155481322E+03  0.17300000000E+03 0. -1.
</event>
<event>
 4    1  0.6197496E+000  0.1000000E+03  0.7546771E-02  0.1280296E+00
         21   -1    0    0  503  502  0.00000000000E+00  0.00000000000E+00  0.63751246643E+03  0.63751246643E+03  0.00000000000E+00 0.  1.
         21   -1    0    0  501  503 -0.00000000000E+00 -0.00000000000E+00 -0.61095389728E+03  0.61095389728E+03  0.00000000000E+00 0.  1.
          6    1    1    2  501    0 -0.94502267948E+02 -0.44444155816E+02 -0.57732516507E+03  0.61166927980E+03  0.17300000000E+03 0.  1.
         -6    1    1    2    0  502  0.94502267948E+02  0.44444155816E+02  0.60388373421E+03  0.63679708391E+03  0.17300000000E+03 0.  1.
</event>
<event>
 4    1  0.6197496E+000  0.1000000E+03  0.7546771E-02  0.1280296E+00
         21   -1    0    0  503  502  0.00000000000E+00  0.00000000000E+00  0.44960226227E+02  0.44960226227E+02  0.00000000000E+00 0.  1.
         21   -1    0    0  501  503 -0.00000000000E+00 -0.00000000000E+00 -0.15115751950E+04  0.15115751950E+04  0.00000000000E+00 0.  1.
          6    1    1    2  501    0 -0.72711670619E+02 -0.15055760872E+03 -0.10329955471E+04  0.10606429093E+04  0.17300000000E+03 0.  1.
         -6    1    1    2    0  502  0.72711670619E+02  0.15055760872E+03 -0.43361942159E+03  0.49589251191E+03  0.17300000000E+03 0.  1.
</event>
<event>
 4    1  0.6197496E+000  0.1000000E+03  0.7546771E-02  0.1280296E+00
         21   -1    0    0  501  502  0.00000000000E+00  0.00000000000E+00  0.71753177612E+03  0.71753177612E+03  0.00000000000E+00 0. -1.
         21   -1    0    0  502  503 -0.00000000000E+00 -0.00000000000E+00 -0.21578947293E+03  0.21578947293E+03  0.00000000000E+00 0. -1.
          6    1    1    2  501    0 -0.52603774832E+02  0.10668800159E+03  0.64555710894E+03  0.67883905878E+03  0.17300000000E+03 0.  1.
         -6    1    1    2    0  503  0.52603774832E+02 -0.10668800159E+03 -0.14381480575E+03  0.25448219027E+03  0.17300000000E+03 0.  1.
</event>
<event>
 4    1  0.6197496E+000  0.1000000E+03  0.7546771E-02  0.1280296E+00
         21   -1    0    0  503  502  0.00000000000E+00  0.00000000000E+00  0.30177278113E+03  0.30177278113E+03  0.00000000000E+00 0.  1.
         21   -1    0    0  501  503 -0.00000000000E+00 -0.00000000000E+00 -0.19467822196E+03  0.19467822196E+03  0.00000000000E+00 0. -1.
          6    1    1    2  501    0 -0.11431226678E+02 -0.16831426921E+03  0.34137110154E+02  0.24403833398E+03  0.17300000000E+03 0. -1.
         -6    1    1    2    0  502  0.11431226678E+02  0.16831426921E+03  0.72957449014E+02  0.25241266911E+03  0.17300000000E+03 0.  1.
</event>
<event>
 4    1  0.6197496E+000  0.1000000E+03  0.7546771E-02  0.1280296E+00
         21   -1    0    0  501  502  0.00000000000E+00  0.00000000000E+00  0.55490936798E+02  0.55490936798E+02  0.00000000000E+00 0. -1.
         21   -1    0    0  502  503 -0.00000000000E+00 -0.00000000000E+00 -0.20923260606E+04  0.20923260606E+04  0.00000000000E+00 0.  1.
          6    1    1    2  501    0 -0.63637199497E+02  0.32510081774E+02 -0.12104991282E+03  0.22290957801E+03  0.17300000000E+03 0. -1.
         -6    1    1    2    0  503  0.63637199497E+02 -0.32510081774E+02 -0.19157852110E+04  0.19249074194E+04  0.17300000000E+03 0.  1.
</event>
<event>
 4    1  0.6197496E+000  0.1000000E+03  0.7546771E-02  0.1280296E+00
         21   -1    0    0  501  502  0.00000000000E+00  0.00000000000E+00  0.13593605638E+03  0.13593605638E+03  0.00000000000E+00 0.  1.
         21   -1    0    0  502  503 -0.00000000000E+00 -0.00000000000E+00 -0.52354379995E+03  0.52354379995E+03  0.00000000000E+00 0. -1.
          6    1    1    2  501    0  0.68069295898E+02  0.15529346385E+03 -0.55667275665E+02  0.24855046679E+03  0.17300000000E+03 0.  1.
         -6    1    1    2    0  503 -0.68069295898E+02 -0.15529346385E+03 -0.33194046790E+03  0.41092938954E+03  0.17300000000E+03 0. -1.
</event>
<event>
 4    1  0.6197496E+000  0.1000000E+03  0.7546771E-02  0.1280296E+00
         21   -1    0    0  501  502  0.00000000000E+00  0.00000000000E+00  0.16202576893E+03  0.16202576893E+03  0.00000000000E+00 0. -1.
         21   -1    0    0  502  503 -0.00000000000E+00 -0.00000000000E+00 -0.46671306547E+03  0.46671306547E+03  0.00000000000E+00 0. -1.
          6    1    1    2  501    0  0.11975643803E+03  0.17699281349E+03 -0.14692303148E+03  0.31174258236E+03  0.17300000000E+03 0. -1.
         -6    1    1    2    0  503 -0.11975643803E+03 -0.17699281349E+03 -0.15776426506E+03  0.31699625204E+03  0.17300000000E+03 0. -1.
</event>
<event>
 4    1  0.6197496E+000  0.1000000E+03  0.7546771E-02  0.1280296E+00
         21   -1    0    0  501  502  0.00000000000E+00  0.00000000000E+00  0.93953240395E+03  0.93953240395E+03  0.00000000000E+00 0. -1.
         21   -1    0    0  502  503 -0.00000000000E+00 -0.00000000000E+00 -0.40059097218E+02  0.40059097218E+02  0.00000000000E+00 0. -1.
          6    1    1    2  501    0  0.22754645043E+02  0.15732586914E+02  0.66009874949E+03  0.68295288801E+03  0.17300000000E+03 0. -1.
         -6    1    1    2    0  503 -0.22754645043E+02 -0.15732586914E+02  0.23937455724E+03  0.29663861316E+03  0.17300000000E+03 0. -1.
</event>
<event>
 4    1  0.6197496E+000  0.1000000E+03  0.7546771E-02  0.1280296E+00
         21   -1    0    0  501  502  0.00000000000E+00  0.00000000000E+00  0.55545086539E+03  0.55545086539E+03  0.00000000000E+00 0. -1.
         21   -1    0    0  502  503 -0.00000000000E+00 -0.00000000000E+00 -0.88875386036E+02  0.88875386036E+02  0.00000000000E+00 0.  1.
          6    1    1    2  501    0  0.36342742066E+02  0.19912766235E+02  0.42630190169E+03  0.46193032434E+03  0.17300000000E+03 0. -1.
         -6    1    1    2    0  503 -0.36342742066E+02 -0.19912766235E+02  0.40273577665E+02  0.18239592709E+03  0.17300000000E+03 0.  1.
</event>
<event>
 4    1  0.6197496E+000  0.1000000E+03  0.7546771E-02  0.1280296E+00
         21   -1    0    0  501  502  0.00000000000E+00  0.00000000000E+00  0.72198213374E+03  0.72198213374E+03  0.00000000000E+00 0. -1.
         21   -1    0    0  502  503 -0.00000000000E+00 -0.00000000000E+00 -0.10033431206E+03  0.10033431206E+03  0.00000000000E+00 0.  1.
          6    1    1    2  501    0  0.29008338439E+02 -0.10034855558E+03  0.58237997326E+03  0.61644687489E+03  0.17300000000E+03 0. -1.
         -6    1    1    2    0  503 -0.29008338439E+02  0.10034855558E+03  0.39267848428E+02  0.20586957091E+03  0.17300000000E+03 0.  1.
</event>
<event>
 4    1  0.6197496E+000  0.1000000E+03  0.7546771E-02  0.1280296E+00
         21   -1    0    0  503  502  0.00000000000E+00  0.00000000000E+00  0.17179320309E+03  0.17179320309E+03  0.00000000000E+00 0. -1.
         21   -1    0    0  501  503 -0.00000000000E+00 -0.00000000000E+00 -0.64021220791E+03  0.64021220791E+03  0.00000000000E+00 0.  1.
          6    1    1    2  501    0 -0.20674756250E+03 -0.59897545341E+02 -0.45902487490E+03  0.53569124159E+03  0.17300000000E+03 0.  1.
         -6    1    1    2    0  502  0.20674756250E+03  0.59897545341E+02 -0.93941299217E+01  0.27631416941E+03  0.17300000000E+03 0. -1.
</event>
<event>
 4    1  0.6197496E+000  0.1000000E+03  0.7546771E-02  0.1280296E+00
         21   -1    0    0  503  502  0.00000000000E+00  0.00000000000E+00  0.51201557837E+03  0.51201557837E+03  0.00000000000E+00 0. -1.
         21   -1    0    0  501  503 -0.00000000000E+00 -0.00000000000E+00 -0.68300450220E+02  0.68300450220E+02  0.00000000000E+00 0.  1.
          6    1    1    2  501    0  0.47034832035E+02 -0.14072361705E+02  0.14226176876E+03  0.22929831582E+03  0.17300000000E+03 0.  1.
         -6    1    1    2    0  502 -0.47034832035E+02  0.14072361705E+02  0.30145335939E+03  0.35101771277E+03  0.17300000000E+03 0. -1.
</event>
<event>
 4    1  0.6197496E+000  0.1000000E+03  0.7546771E-02  0.1280296E+00
         21   -1    0    0  503  502  0.00000000000E+00  0.00000000000E+00  0.28914026447E+03  0.28914026447E+03  0.00000000000E+00 0. -1.
         21   -1    0    0  501  503 -0.00000000000E+00 -0.00000000000E+00 -0.38825613394E+03  0.38825613394E+03  0.00000000000E+00 0.  1.
          6    1    1    2  501    0  0.88557179857E+02 -0.96649775811E+02 -0.30757577851E+03  0.37645107623E+03  0.17300000000E+03 0.  1.
         -6    1    1    2    0  502 -0.88557179857E+02  0.96649775811E+02  0.20845990903E+03  0.30094532218E+03  0.17300000000E+03 0. -1.
</event>
<event>
 4    1  0.6197496E+000  0.1000000E+03  0.7546771E-02  0.1280296E+00
         21   -1    0    0  501  502  0.00000000000E+00  0.00000000000E+00  0.27246514593E+03  0.27246514593E+03  0.00000000000E+00 0.  1.
         21   -1    0    0  502  503 -0.00000000000E+00 -0.00000000000E+00 -0.33365780821E+03  0.33365780821E+03  0.00000000000E+00 0.  1.
          6    1    1    2  501    0 -0.15115658933E+03  0.63977182566E+02  0.15484974947E+03  0.28433930312E+03  0.17300000000E+03 0.  1.
         -6    1    1    2    0  503  0.15115658933E+03 -0.63977182566E+02 -0.21604241175E+03  0.32178365102E+03  0.17300000000E+03 0.  1.
</event>
<event>
 4    1  0.6197496E+000  0.1000000E+03  0.7546771E-02  0.1280296E+00
         21   -1    0    0  501  502  0.00000000000E+00  0.00000000000E+00  0.32715938495E+03  0.32715938495E+03  0.00000000000E+00 0.  1.
         21   -1    0    0  502  503 -0.00000000000E+00 -0.00000000000E+00 -0.19013471446E+03  0.19013471446E+03  0.00000000000E+00 0.  1.
          6    1    1    2  501    0 -0.60699748085E+01  0.47129407697E+02  0.24818547745E+03  0.30624019475E+03  0.17300000000E+03 0.  1.
         -6    1    1    2    0  503  0.60699748085E+01 -0.47129407697E+02 -0.11116080696E+03  0.21105390465E+03  0.17300000000E+03 0.  1.
</event>
<event>
 4    1  0.6197496E+000  0.1000000E+03  0.7546771E-02  0.1280296E+00
         21   -1    0    0  501  502  0.00000000000E+00  0.00000000000E+00  0.13623390148E+03  0.13623390148E+03  0.00000000000E+00 0.  1.
         21   -1    0    0  502  503 -0.00000000000E+00 -0.00000000000E+00 -0.12449473314E+04  0.12449473314E+04  0.00000000000E+00 0.  1.
          6    1    1    2  501    0  0.79900749215E+02 -0.60451572917E+02  0.49405946532E+02  0.20593316864E+03  0.17300000000E+03 0.  1.
         -6    1    1    2    0  503 -0.79900749215E+02  0.60451572917E+02 -0.11581193764E+04  0.11752480642E+04  0.17300000000E+03 0.  1.
</event>
<event>
 4    1  0.6197496E+000  0.1000000E+03  0.7546771E-02  0.1280296E+00
         21   -1    0    0  503  502  0.00000000000E+00  0.00000000000E+00  0.31109329892E+02  0.31109329892E+02  0.00000000000E+00 0. -1.
         21   -1    0    0  501  503 -0.00000000000E+00 -0.00000000000E+00 -0.11716014468E+04  0.11716014468E+04  0.00000000000E+00 0.  1.
          6    1    1    2  501    0 -0.21536141853E+02 -0.63546144013E+02 -0.71170463798E+03  0.73549602959E+03  0.17300000000E+03 0.  1.
         -6    1    1    2    0  502  0.21536141853E+02  0.63546144013E+02 -0.42878747897E+03  0.46721474714E+03  0.17300000000E+03 0. -1.
</event>
<event>
 4    1  0.6197496E+000  0.1000000E+03  0.7546771E-02  0.1280296E+00
         21   -1    0    0  501  502  0.00000000000E+00  0.00000000000E+00  0.92938847768E+02  0.92938847768E+02  0.00000000000E+00 0. -1.
         21   -1    0    0  502  503 -0.00000000000E+00 -0.00000000000E+00 -0.49623468161E+03  0.49623468161E+03  0.00000000000E+00 0. -1.
          6    1    1    2  501    0 -0.30238855107E+02  0.12096814466E+03 -0.16686959055E+03  0.27078061347E+03  0.17300000000E+03 0. -1.
         -6    1    1    2    0  503  0.30238855107E+02 -0.12096814466E+03 -0.23642624330E+03  0.31839291591E+03  0.17300000000E+03 0. -1.
</event>
<event>
 4    1  0.6197496E+000  0.1000000E+03  0.7546771E-02  0.1280296E+00
         21   -1    0    0  501  502  0.00000000000E+00  0.00000000000E+00  0.30342214512E+03  0.30342214512E+03  0.00000000000E+00 0. -1.
         21   -1    0    0  502  503 -0.00000000000E+00 -0.00000000000E+00 -0.95885057745E+03  0.95885057745E+03  0.00000000000E+00 0. -1.
          6    1    1    2  501    0 -0.45514390428E+03 -0.20547099753E+03 -0.20151007831E+03  0.56560553047E+03  0.17300000000E+03 0. -1.
         -6    1    1    2    0  503  0.45514390428E+03  0.20547099753E+03 -0.45391835403E+03  0.69666719211E+03  0.17300000000E+03 0. -1.
</event>
<event>
 4    1  0.6197496E+000  0.1000000E+03  0.7546771E-02  0.1280296E+00
         21   -1    0    0  501  502  0.00000000000E+00  0.00000000000E+00  0.45618365237E+03  0.45618365237E+03  0.00000000000E+00 0. -1.
         21   -1    0    0  502  503 -0.00000000000E+00 -0.00000000000E+00 -0.68423875774E+02  0.68423875774E+02  0.00000000000E+00 0. -1.
          6    1    1    2  501    0  0.28897292328E+02  0.13963460657E+02  0.21757993148E+03  0.27982147580E+03  0.17300000000E+03 0. -1.
         -6    1    1    2    0  503 -0.28897292328E+02 -0.13963460657E+02  0.17017984512E+03  0.24478605234E+03  0.17300000000E+03 0. -1.
</event>
<event>
 4    1  0.6197496E+000  0.1000000E+03  0.7546771E-02  0.1280296E+00
         21   -1    0    0  501  502  0.00000000000E+00  0.00000000000E+00  0.86369613961E+03  0.86369613961E+03  0.00000000000E+00 0. -1.
         21   -1    0    0  502  503 -0.00000000000E+00 -0.00000000000E+00 -0.90423318376E+02  0.90423318376E+02  0.00000000000E+00 0.  1.
          6    1    1    2  501    0 -0.10445297283E+03 -0.23139746316E+02  0.71376875558E+03  0.74218643738E+03  0.17300000000E+03 0. -1.
         -6    1    1    2    0  503  0.10445297283E+03  0.23139746316E+02  0.59504065656E+02  0.21193302061E+03  0.17300000000E+03 0.  1.
</event>
<event>
 4    1  0.6197496E+000  0.1000000E+03  0.7546771E-02  0.1280296E+00
         21   -1    0    0  501  502  0.00000000000E+00  0.00000000000E+00  0.82854405896E+02  0.82854405896E+02  0.00000000000E+00 0. -1.
         21   -1    0    0  502  503 -0.00000000000E+00 -0.00000000000E+00 -0.70920383242E+03  0.70920383242E+03  0.00000000000E+00 0.  1.
          6    1    1    2  501    0 -0.11759071609E+03 -0.48489121159E+01 -0.11321246897E+03  0.23790155861E+03  0.17300000000E+03 0. -1.
         -6    1    1    2    0  503  0.11759071609E+03  0.48489121159E+01 -0.51313695755E+03  0.55415667970E+03  0.17300000000E+03 0.  1.
</event>
<event>
 4    1  0.6197496E+000  0.1000000E+03  0.7546771E-02  0.1280296E+00
         21   -1    0    0  501  502  0.00000000000E+00  0.00000000000E+00  0.29589184226E+03  0.29589184226E+03  0.00000000000E+00 0. -1.
         21   -1    0    0  502  503 -0.00000000000E+00 -0.00000000000E+00 -0.25325084862E+03  0.25325084862E+03  0.00000000000E+00 0. -1.
          6    1    1    2  501    0 -0.12490504399E+03 -0.51602536185E+02  0.18534484586E+03  0.28730785517E+03  0.17300000000E+03 0. -1.
         -6    1    1    2    0  503  0.12490504399E+03  0.51602536185E+02 -0.14270385222E+03  0.26183483571E+03  0.17300000000E+03 0. -1.
</event>
<event>
 4    1  0.6197496E+000  0.1000000E+03  0.7546771E-02  0.1280296E+00
         21   -1    0    0  501  502  0.00000000000E+00  0.00000000000E+00  0.83007044487E+03  0.83007044487E+03  0.00000000000E+00 0.  1.
         21   -1    0    0  502  503 -0.00000000000E+00 -0.00000000000E+00 -0.82880238317E+02  0.82880238317E+02  0.00000000000E+00 0.  1.
          6    1    1    2  501    0 -0.23268723813E+02 -0.41878301433E+02  0.70641551811E+03  0.72886700423E+03  0.17300000000E+03 0.  1.
         -6    1    1    2    0  503  0.23268723813E+02  0.41878301433E+02  0.40774688446E+02  0.18408367895E+03  0.17300000000E+03 0.  1.
</event>
<event>
 4    1  0.6197496E+000  0.1000000E+03  0.7546771E-02  0.1280296E+00
         21   -1    0    0  501  502  0.00000000000E+00  0.00000000000E+00  0.22980972867E+03  0.22980972867E+03  0.00000000000E+00 0. -1.
         21   -1    0    0  502  503 -0.00000000000E+00 -0.00000000000E+00 -0.19668979051E+03  0.19668979051E+03  0.00000000000E+00 0.  1.
          6    1    1    2  501    0  0.28825876276E+02  0.32772248250E+02  0.13252709497E+03  0.22225521883E+03  0.17300000000E+03 0. -1.
         -6    1    1    2    0  503 -0.28825876276E+02 -0.32772248250E+02 -0.99407156811E+02  0.20424430035E+03  0.17300000000E+03 0.  1.
</event>
<event>
 4    1  0.6197496E+000  0.1000000E+03  0.7546771E-02  0.1280296E+00
         21   -1    0    0  501  502  0.00000000000E+00  0.00000000000E+00  0.57242732377E+02  0.57242732377E+02  0.00000000000E+00 0. -1.
         21   -1    0    0  502  503 -0.00000000000E+00 -0.00000000000E+00 -0.75843772608E+03  0.75843772608E+03  0.00000000000E+00 0.  1.
          6    1    1    2  501    0 -0.47123763056E+02  0.88212902375E+02 -0.23506566068E+03  0.30852395373E+03  0.17300000000E+03 0. -1.
         -6    1    1    2    0  503  0.47123763056E+02 -0.88212902375E+02 -0.46612933302E+03  0.50715650473E+03  0.17300000000E+03 0.  1.
</event>
<event>
 4    1  0.6197496E+000  0.1000000E+03  0.7546771E-02  0.1280296E+00
         21   -1    0    0  501  502  0.00000000000E+00  0.00000000000E+00  0.17581912557E+03  0.17581912557E+03  0.00000000000E+00 0. -1.
         21   -1    0    0  502  503 -0.00000000000E+00 -0.00000000000E+00 -0.33994336366E+03  0.33994336366E+03  0.00000000000E+00 0.  1.
          6    1    1    2  501    0 -0.13791958758E+03  0.81699051265E+02 -0.14166657881E+02  0.23627577491E+03  0.17300000000E+03 0. -1.
         -6    1    1    2    0  503  0.13791958758E+03 -0.81699051265E+02 -0.14995758021E+03  0.27948671431E+03  0.17300000000E+03 0.  1.
</event>
<event>
 4    1  0.6197496E+000  0.1000000E+03  0.7546771E-02  0.1280296E+00
         21   -1    0    0  501  502  0.00000000000E+00  0.00000000000E+00  0.27633994237E+03  0.27633994237E+03  0.00000000000E+00 0. -1.
         21   -1    0    0  502  503 -0.00000000000E+00 -0.00000000000E+00 -0.14091014523E+03  0.14091014523E+03  0.00000000000E+00 0.  1.
          6    1    1    2  501    0 -0.54132242737E+02 -0.34366950205E+02  0.14171197141E+03  0.23264279445E+03  0.17300000000E+03 0. -1.
         -6    1    1    2    0  503  0.54132242737E+02  0.34366950205E+02 -0.62821742770E+01  0.18460729315E+03  0.17300000000E+03 0.  1.
</event>
<event>
 4    1  0.6197496E+000  0.1000000E+03  0.7546771E-02  0.1280296E+00
         21   -1    0    0  503  502  0.00000000000E+00  0.00000000000E+00  0.70934544372E+02  0.70934544372E+02  0.00000000000E+00 0.  1.
         21   -1    0    0  501  503 -0.00000000000E+00 -0.00000000000E+00 -0.97494813119E+03  0.97494813119E+03  0.00000000000E+00 0.  1.
          6    1    1    2  501    0  0.14021410644E+03 -0.13987437243E+03 -0.44819950688E+03  0.51965049185E+03  0.17300000000E+03 0.  1.
         -6    1    1    2    0  502 -0.14021410644E+03  0.13987437243E+03 -0.45581407993E+03  0.52623218371E+03  0.17300000000E+03 0.  1.
</event>
<event>
 4    1  0.6197496E+000  0.1000000E+03  0.7546771E-02  0.1280296E+00
         21   -1    0    0  503  502  0.00000000000E+00  0.00000000000E+00  0.76735896954E+02  0.76735896954E+02  0.00000000000E+00 0.  1.
         21   -1    0    0  501  503 -0.00000000000E+00 -0.00000000000E+00 -0.84268877188E+03  0.84268877188E+03  0.00000000000E+00 0.  1.
          6    1    1    2  501    0 -0.56292764631E+02  0.17425395154E+03 -0.44565731761E+03  0.51193042468E+03  0.17300000000E+03 0.  1.
         -6    1    1    2    0  502  0.56292764631E+02 -0.17425395154E+03 -0.32029555732E+03  0.40749424415E+03  0.17300000000E+03 0.  1.
</event>
<event>
 4    1  0.6197496E+000  0.1000000E+03  0.7546771E-02  0.1280296E+00
         21   -1    0    0  503  502  0.00000000000E+00  0.00000000000E+00  0.44199970739E+03  0.44199970739E+03  0.00000000000E+00 0.  1.
         21   -1    0    0  501  503 -0.00000000000E+00 -0.00000000000E+00 -0.16575589796E+03  0.16575589796E+03  0.00000000000E+00 0.  1.
          6    1    1    2  501    0  0.10954912996E+03 -0.15726471750E+03  0.46902656870E+02  0.26241581977E+03  0.17300000000E+03 0.  1.
         -6    1    1    2    0  502 -0.10954912996E+03  0.15726471750E+03  0.22934115256E+03  0.34533978558E+03  0.17300000000E+03 0.  1.
</event>
<event>
 4    1  0.6197496E+000  0.1000000E+03  0.7546771E-02  0.1280296E+00
         21   -1    0    0  503  502  0.00000000000E+00  0.00000000000E+00  0.35867169788E+03  0.35867169788E+03  0.00000000000E+00 0. -1.
         21   -1    0    0  501  503 -0.00000000000E+00 -0.00000000000E+00 -0.17107602373E+03  0.17107602373E+03  0.00000000000E+00 0.  1.
          6    1    1    2  501    0  0.14256631114E+03  0.26483563337E+02 -0.15272982952E+02  0.22624941151E+03  0.17300000000E+03 0. -1.
         -6    1    1    2    0  502 -0.14256631114E+03 -0.26483563337E+02  0.20286865710E+03  0.30349831010E+03  0.17300000000E+03 0.  1.
</event>
<event>
 4    1  0.6197496E+000  0.1000000E+03  0.7546771E-02  0.1280296E+00
         21   -1    0    0  503  502  0.00000000000E+00  0.00000000000E+00  0.73978325274E+02  0.73978325274E+02  0.00000000000E+00 0. -1.
         21   -1    0    0  501  503 -0.00000000000E+00 -0.00000000000E+00 -0.43403742267E+03  0.43403742267E+03  0.00000000000E+00 0.  1.
          6    1    1    2  501    0  0.21200825661E+02  0.63775624431E+01 -0.12175188885E+03  0.21270324574E+03  0.17300000000E+03 0. -1.
         -6    1    1    2    0  502 -0.21200825661E+02 -0.63775624431E+01 -0.23830720855E+03  0.29531250220E+03  0.17300000000E+03 0.  1.
</event>
<event>
 4    1  0.6197496E+000  0.1000000E+03  0.7546771E-02  0.1280296E+00
         21   -1    0    0  501  502  0.00000000000E+00  0.00000000000E+00  0.10480031452E+03  0.10480031452E+03  0.00000000000E+00 0. -1.
         21   -1    0    0  502  503 -0.00000000000E+00 -0.00000000000E+00 -0.77019227969E+03  0.77019227969E+03  0.00000000000E+00 0.  1.
          6    1    1    2  501    0 -0.90679740414E+02  0.15190303996E+03 -0.11771506067E+03  0.27401310987E+03  0.17300000000E+03 0.  1.
         -6    1    1    2    0  503  0.90679740414E+02 -0.15190303996E+03 -0.54767690450E+03  0.60097948434E+03  0.17300000000E+03 0. -1.
</event>
<event>
 4    1  0.6197496E+000  0.1000000E+03  0.7546771E-02  0.1280296E+00
         21   -1    0    0  501  502  0.00000000000E+00  0.00000000000E+00  0.26024431591E+03  0.26024431591E+03  0.00000000000E+00 0. -1.
         21   -1    0    0  502  503 -0.00000000000E+00 -0.00000000000E+00 -0.15094508149E+03  0.15094508149E+03  0.00000000000E+00 0.  1.
          6    1    1    2  501    0  0.50501546804E+02  0.81906723751E+02  0.44566704842E+02  0.20291453572E+03  0.17300000000E+03 0.  1.
         -6    1    1    2    0  503 -0.50501546804E+02 -0.81906723751E+02  0.64732529575E+02  0.20827486169E+03  0.17300000000E+03 0. -1.
</event>
<event>
 4    1  0.6197496E+000  0.1000000E+03  0.7546771E-02  0.1280296E+00
         21   -1    0    0  501  502  0.00000000000E+00  0.00000000000E+00  0.55646092018E+02  0.55646092018E+02  0.00000000000E+00 0. -1.
         21   -1    0    0  502  503 -0.00000000000E+00 -0.00000000000E+00 -0.59311371370E+03  0.59311371370E+03  0.00000000000E+00 0.  1.
          6    1    1    2  501    0  0.11699822152E+02 -0.32718309325E+02 -0.19156067735E+03  0.26044551582E+03  0.17300000000E+03 0.  1.
         -6    1    1    2    0  503 -0.11699822152E+02  0.32718309325E+02 -0.34590694434E+03  0.38831428990E+03  0.17300000000E+03 0. -1.
</event>
<event>
 4    1  0.6197496E+000  0.1000000E+03  0.7546771E-02  0.1280296E+00
         21   -1    0    0  501  502  0.00000000000E+00  0.00000000000E+00  0.29798137903E+03  0.29798137903E+03  0.00000000000E+00 0.  1.
         21   -1    0    0  502  503 -0.00000000000E+00 -0.00000000000E+00 -0.35778485373E+03  0.35778485373E+03  0.00000000000E+00 0. -1.
          6    1    1    2  501    0  0.11348457553E+03 -0.11902978030E+03  0.19382504144E+03  0.30748005491E+03  0.17300000000E+03 0.  1.
         -6    1    1    2    0  503 -0.11348457553E+03  0.11902978030E+03 -0.25362851614E+03  0.34828617785E+03  0.17300000000E+03 0.  1.
</event>
<event>
 4    1  0.6197496E+000  0.1000000E+03  0.7546771E-02  0.1280296E+00
         21   -1    0    0  503  502  0.00000000000E+00  0.00000000000E+00  0.37559869199E+04  0.37559869199E+04  0.00000000000E+00 0.  1.
         21   -1    0    0  501  503 -0.00000000000E+00 -0.00000000000E+00 -0.42155056609E+02  0.42155056609E+02  0.00000000000E+00 0. -1.
          6    1    1    2  501    0  0.12246893923E+03  0.11412764624E+03  0.34481681991E+03  0.42053703761E+03  0.17300000000E+03 0. -1.
         -6    1    1    2    0  502 -0.12246893923E+03 -0.11412764624E+03  0.33690150434E+04  0.33776049389E+04  0.17300000000E+03 0.  1.
</event>
<event>
 4    1  0.6197496E+000  0.1000000E+03  0.7546771E-02  0.1280296E+00
         21   -1    0    0  503  502  0.00000000000E+00  0.00000000000E+00  0.12008075855E+04  0.12008075855E+04  0.00000000000E+00 0.  1.
         21   -1    0    0  501  503 -0.00000000000E+00 -0.00000000000E+00 -0.47230434704E+02  0.47230434704E+02  0.00000000000E+00 0.  1.
          6    1    1    2  501    0  0.55732749368E+02  0.67313742136E+02  0.21419824906E+03  0.28887223670E+03  0.17300000000E+03 0.  1.
         -6    1    1    2    0  502 -0.55732749368E+02 -0.67313742136E+02  0.93937890174E+03  0.95916578352E+03  0.17300000000E+03 0.  1.
</event>
<event>
 4    1  0.6197496E+000  0.1000000E+03  0.7546771E-02  0.1280296E+00
         21   -1    0    0  501  502  0.00000000000E+00  0.00000000000E+00  0.29334090892E+02  0.29334090892E+02  0.00000000000E+00 0.  1.
         21   -1    0    0  502  503 -0.00000000000E+00 -0.00000000000E+00 -0.19119595119E+04  0.19119595119E+04  0.00000000000E+00 0.  1.
          6    1    1    2  501    0  0.17196749220E+02 -0.22770372821E+02 -0.28884468931E+03  0.33789713317E+03  0.17300000000E+03 0.  1.
         -6    1    1    2    0  503 -0.17196749220E+02  0.22770372821E+02 -0.15937807317E+04  0.16033964697E+04  0.17300000000E+03 0.  1.
</event>
<event>
 4    1  0.6197496E+000  0.1000000E+03  0.7546771E-02  0.1280296E+00
         21   -1    0    0  501  502  0.00000000000E+00  0.00000000000E+00  0.48989466571E+03  0.48989466571E+03  0.00000000000E+00 0.  1.
         21   -1    0    0  502  503 -0.00000000000E+00 -0.00000000000E+00 -0.75748727674E+02  0.75748727674E+02  0.00000000000E+00 0.  1.
          6    1    1    2  501    0 -0.42290214466E+02 -0.73399057869E+02  0.20413162778E+03  0.28066814104E+03  0.17300000000E+03 0.  1.
         -6    1    1    2    0  503  0.42290214466E+02  0.73399057869E+02  0.21001431026E+03  0.28497525234E+03  0.17300000000E+03 0.  1.
</event>
<event>
 4    1  0.6197496E+000  0.1000000E+03  0.7546771E-02  0.1280296E+00
         21   -1    0    0  501  502  0.00000000000E+00  0.00000000000E+00  0.10379371756E+03  0.10379371756E+03  0.00000000000E+00 0.  1.
         21   -1    0    0  502  503 -0.00000000000E+00 -0.00000000000E+00 -0.93288135938E+03  0.93288135938E+03  0.00000000000E+00 0.  1.
          6    1    1    2  501    0  0.65221535262E+02  0.12645243721E+03 -0.54745532491E+02  0.23058651493E+03  0.17300000000E+03 0.  1.
         -6    1    1    2    0  503 -0.65221535262E+02 -0.12645243721E+03 -0.77434210933E+03  0.80608856202E+03  0.17300000000E+03 0.  1.
</event>
<event>
 4    1  0.6197496E+000  0.1000000E+03  0.7546771E-02  0.1280296E+00
         21   -1    0    0  501  502  0.00000000000E+00  0.00000000000E+00  0.13648105977E+03  0.13648105977E+03  0.00000000000E+00 0.  1.
         21   -1    0    0  502  503 -0.00000000000E+00 -0.00000000000E+00 -0.35648237038E+03  0.35648237038E+03  0.00000000000E+00 0.  1.
          6    1    1    2  501    0 -0.83739834071E+01 -0.35654729715E+02  0.37328333293E+02  0.18073125855E+03  0.17300000000E+03 0.  1.
         -6    1    1    2    0  503  0.83739834071E+01  0.35654729715E+02 -0.25732964391E+03  0.31223217160E+03  0.17300000000E+03 0.  1.
</event>
<event>
 4    1  0.6197496E+000  0.1000000E+03  0.7546771E-02  0.1280296E+00
         21   -1    0    0  503  502  0.00000000000E+00  0.00000000000E+00  0.45767760033E+02  0.45767760033E+02  0.00000000000E+00 0. -1.
         21   -1    0    0  501  503 -0.00000000000E+00 -0.00000000000E+00 -0.15831185730E+04  0.15831185730E+04  0.00000000000E+00 0. -1.
          6    1    1    2  501    0  0.39184943191E+02 -0.55016507545E+02 -0.13582152495E+04  0.13708537266E+04  0.17300000000E+03 0. -1.
         -6    1    1    2    0  502 -0.39184943191E+02  0.55016507545E+02 -0.17913556356E+03  0.25803260648E+03  0.17300000000E+03 0. -1.
</event>
<event>
 4    1  0.6197496E+000  0.1000000E+03  0.7546771E-02  0.1280296E+00
         21   -1    0    0  503  502  0.00000000000E+00  0.00000000000E+00  0.57716596966E+03  0.57716596966E+03  0.00000000000E+00 0. -1.
         21   -1    0    0  501  503 -0.00000000000E+00 -0.00000000000E+00 -0.79453323620E+02  0.79453323620E+02  0.00000000000E+00 0. -1.
          6    1    1    2  501    0  0.11317833110E+03  0.15176583856E+02  0.16645050406E+03  0.26584663554E+03  0.17300000000E+03 0. -1.
         -6    1    1    2    0  502 -0.11317833110E+03 -0.15176583856E+02  0.33126214198E+03  0.39077265774E+03  0.17300000000E+03 0. -1.
</event>
<event>
 4    1  0.6197496E+000  0.1000000E+03  0.7546771E-02  0.1280296E+00
         21   -1    0    0  503  502  0.00000000000E+00  0.00000000000E+00  0.44018268141E+03  0.44018268141E+03  0.00000000000E+00 0. -1.
         21   -1    0    0  501  503 -0.00000000000E+00 -0.00000000000E+00 -0.23288830138E+03  0.23288830138E+03  0.00000000000E+00 0. -1.
          6    1    1    2  501    0  0.22025425209E+03 -0.42504524649E+02 -0.53193943673E+02  0.28823109794E+03  0.17300000000E+03 0. -1.
         -6    1    1    2    0  502 -0.22025425209E+03  0.42504524649E+02  0.26048832371E+03  0.38483988485E+03  0.17300000000E+03 0. -1.
</event>
<event>
 4    1  0.6197496E+000  0.1000000E+03  0.7546771E-02  0.1280296E+00
         21   -1    0    0  503  502  0.00000000000E+00  0.00000000000E+00  0.78161052895E+02  0.78161052895E+02  0.00000000000E+00 0. -1.
         21   -1    0    0  501  503 -0.00000000000E+00 -0.00000000000E+00 -0.23825871374E+04  0.23825871374E+04  0.00000000000E+00 0. -1.
          6    1    1    2  501    0 -0.15244487164E+03  0.88414018330E+02 -0.21612084360E+04  0.21752717948E+04  0.17300000000E+03 0. -1.
         -6    1    1    2    0  502  0.15244487164E+03 -0.88414018330E+02 -0.14321764850E+03  0.28547639547E+03  0.17300000000E+03 0. -1.
</event>
<event>
 4    1  0.6197496E+000  0.1000000E+03  0.7546771E-02  0.1280296E+00
         21   -1    0    0  503  502  0.00000000000E+00  0.00000000000E+00  0.11898829282E+03  0.11898829282E+03  0.00000000000E+00 0. -1.
         21   -1    0    0  501  503 -0.00000000000E+00 -0.00000000000E+00 -0.31679657704E+03  0.31679657704E+03  0.00000000000E+00 0.  1.
          6    1    1    2  501    0  0.71805548013E+02 -0.31454043557E+02 -0.14408451495E+03  0.23840037968E+03  0.17300000000E+03 0.  1.
         -6    1    1    2    0  502 -0.71805548013E+02  0.31454043557E+02 -0.53723769262E+02  0.19738449018E+03  0.17300000000E+03 0. -1.
</event>
<event>
 4    1  0.6197496E+000  0.1000000E+03  0.7546771E-02  0.1280296E+00
         21   -1    0    0  503  502  0.00000000000E+00  0.00000000000E+00  0.91946918116E+03  0.91946918116E+03  0.00000000000E+00 0. -1.
         21   -1    0    0  501  503 -0.00000000000E+00 -0.00000000000E+00 -0.56982009271E+02  0.56982009271E+02  0.00000000000E+00 0.  1.
          6    1    1    2  501    0  0.62853096646E+02 -0.28223366508E+02  0.14733418294E+03  0.23745195648E+03  0.17300000000E+03 0.  1.
         -6    1    1    2    0  502 -0.62853096646E+02  0.28223366508E+02  0.71515298895E+03  0.73899923395E+03  0.17300000000E+03 0. -1.
</event>
<event>
 4    1  0.6197496E+000  0.1000000E+03  0.7546771E-02  0.1280296E+00
         21   -1    0    0  503  502  0.00000000000E+00  0.00000000000E+00  0.16014887031E+03  0.16014887031E+03  0.00000000000E+00 0. -1.
         21   -1    0    0  501  503 -0.00000000000E+00 -0.00000000000E+00 -0.32017553883E+03  0.32017553883E+03  0.00000000000E+00 0. -1.
          6    1    1    2  501    0 -0.58654759220E+02  0.11740468181E+03 -0.14811057985E+03  0.26284973645E+03  0.17300000000E+03 0. -1.
         -6    1    1    2    0  502  0.58654759220E+02 -0.11740468181E+03 -0.11916088671E+02  0.21747467268E+03  0.17300000000E+03 0. -1.
</event>
<event>
 4    1  0.6197496E+000  0.1000000E+03  0.7546771E-02  0.1280296E+00
         21   -1    0    0  503  502  0.00000000000E+00  0.00000000000E+00  0.55664490663E+03  0.55664490663E+03  0.00000000000E+00 0. -1.
         21   -1    0    0  501  503 -0.00000000000E+00 -0.00000000000E+00 -0.12919229960E+03  0.12919229960E+03  0.00000000000E+00 0. -1.
          6    1    1    2  501    0  0.94459457240E+02 -0.10648756957E+03  0.25255556063E+02  0.22545295440E+03  0.17300000000E+03 0. -1.
         -6    1    1    2    0  502 -0.94459457240E+02  0.10648756957E+03  0.40219705096E+03  0.46038425183E+03  0.17300000000E+03 0. -1.
</event>
<event>
 4    1  0.6197496E+000  0.1000000E+03  0.7546771E-02  0.1280296E+00
         21   -1    0    0  501  502  0.00000000000E+00  0.00000000000E+00  0.93226088242E+03  0.93226088242E+03  0.00000000000E+00 0. -1.
         21   -1    0    0  502  503 -0.00000000000E+00 -0.00000000000E+00 -0.73095280026E+02  0.73095280026E+02  0.00000000000E+00 0. -1.
          6    1    1    2  501    0 -0.14338483261E+03  0.92261787843E+02  0.61371551152E+03  0.66003573903E+03  0.17300000000E+03 0. -1.
         -6    1    1    2    0  503  0.14338483261E+03 -0.92261787843E+02  0.24545009088E+03  0.34532042342E+03  0.17300000000E+03 0. -1.
</event>
<event>
 4    1  0.6197496E+000  0.1000000E+03  0.7546771E-02  0.1280296E+00
         21   -1    0    0  501  502  0.00000000000E+00  0.00000000000E+00  0.64974267950E+02  0.64974267950E+02  0.00000000000E+00 0. -1.
         21   -1    0    0  502  503 -0.00000000000E+00 -0.00000000000E+00 -0.58461959079E+03  0.58461959079E+03  0.00000000000E+00 0. -1.
          6    1    1    2  501    0 -0.22152424530E+02 -0.43910167273E+02 -0.13469772953E+03  0.22470271703E+03  0.17300000000E+03 0. -1.
         -6    1    1    2    0  503  0.22152424530E+02  0.43910167273E+02 -0.38494759331E+03  0.42489114170E+03  0.17300000000E+03 0. -1.
</event>
<event>
 4    1  0.6197496E+000  0.1000000E+03  0.7546771E-02  0.1280296E+00
         21   -1    0    0  503  502  0.00000000000E+00  0.00000000000E+00  0.10996920286E+03  0.10996920286E+03  0.00000000000E+00 0. -1.
         21   -1    0    0  501  503 -0.00000000000E+00 -0.00000000000E+00 -0.70463824054E+03  0.70463824054E+03  0.00000000000E+00 0. -1.
          6    1    1    2  501    0 -0.14144348603E+02  0.11069328920E+03 -0.57148759529E+03  0.60743735351E+03  0.17300000000E+03 0. -1.
         -6    1    1    2    0  502  0.14144348603E+02 -0.11069328920E+03 -0.23181442388E+02  0.20717008988E+03  0.17300000000E+03 0. -1.
</event>
<event>
 4    1  0.6197496E+000  0.1000000E+03  0.7546771E-02  0.1280296E+00
         21   -1    0    0  503  502  0.00000000000E+00  0.00000000000E+00  0.14782553979E+03  0.14782553979E+03  0.00000000000E+00 0.  1.
         21   -1    0    0  501  503 -0.00000000000E+00 -0.00000000000E+00 -0.29616632300E+03  0.29616632300E+03  0.00000000000E+00 0. -1.
          6    1    1    2  501    0 -0.11143724179E+03  0.31806927074E+02 -0.52375118264E+02  0.21471397831E+03  0.17300000000E+03 0.  1.
         -6    1    1    2    0  502  0.11143724179E+03 -0.31806927074E+02 -0.95965664946E+02  0.22927788449E+03  0.17300000000E+03 0. -1.
</event>
<event>
 4    1  0.6197496E+000  0.1000000E+03  0.7546771E-02  0.1280296E+00
         21   -1    0    0  503  502  0.00000000000E+00  0.00000000000E+00  0.26021954114E+03  0.26021954114E+03  0.00000000000E+00 0.  1.
         21   -1    0    0  501  503 -0.00000000000E+00 -0.00000000000E+00 -0.13731935879E+03  0.13731935879E+03  0.00000000000E+00 0. -1.
          6    1    1    2  501    0  0.31550783152E+02  0.63867389376E+02  0.33045956396E+02  0.18998823800E+03  0.17300000000E+03 0.  1.
         -6    1    1    2    0  502 -0.31550783152E+02 -0.63867389376E+02  0.89854225956E+02  0.20755066192E+03  0.17300000000E+03 0. -1.
</event>
<event>
 4    1  0.6197496E+000  0.1000000E+03  0.7546771E-02  0.1280296E+00
         21   -1    0    0  503  502  0.00000000000E+00  0.00000000000E+00  0.58020453298E+03  0.58020453298E+03  0.00000000000E+00 0.  1.
         21   -1    0    0  501  503 -0.00000000000E+00 -0.00000000000E+00 -0.27041069280E+03  0.27041069280E+03  0.00000000000E+00 0. -1.
          6    1    1    2  501    0  0.25044051294E+02 -0.19494712236E+03 -0.16422892101E+03  0.30908206599E+03  0.17300000000E+03 0.  1.
         -6    1    1    2    0  502 -0.25044051294E+02  0.19494712236E+03  0.47402276120E+03  0.54153315979E+03  0.17300000000E+03 0. -1.
</event>
<event>
 4    1  0.6197496E+000  0.1000000E+03  0.7546771E-02  0.1280296E+00
         21   -1    0    0  501  502  0.00000000000E+00  0.00000000000E+00  0.17641721429E+03  0.17641721429E+03  0.00000000000E+00 0.  1.
         21   -1    0    0  502  503 -0.00000000000E+00 -0.00000000000E+00 -0.40948591900E+03  0.40948591900E+03  0.00000000000E+00 0.  1.
          6    1    1    2  501    0 -0.12048848957E+03  0.13043828637E+03 -0.33698934712E+01  0.24793543283E+03  0.17300000000E+03 0.  1.
         -6    1    1    2    0  503  0.12048848957E+03 -0.13043828637E+03 -0.22969881124E+03  0.33796770046E+03  0.17300000000E+03 0.  1.
</event>
<event>
 4    1  0.6197496E+000  0.1000000E+03  0.7546771E-02  0.1280296E+00
         21   -1    0    0  501  502  0.00000000000E+00  0.00000000000E+00  0.10393899703E+04  0.10393899703E+04  0.00000000000E+00 0.  1.
         21   -1    0    0  502  503 -0.00000000000E+00 -0.00000000000E+00 -0.87136488543E+02  0.87136488543E+02  0.00000000000E+00 0.  1.
          6    1    1    2  501    0 -0.13440359489E+03  0.34585452488E+02  0.85685380295E+03  0.88509204011E+03  0.17300000000E+03 0.  1.
         -6    1    1    2    0  503  0.13440359489E+03 -0.34585452488E+02  0.95399678854E+02  0.24143441878E+03  0.17300000000E+03 0.  1.
</event>
<event>
 4    1  0.6197496E+000  0.1000000E+03  0.7546771E-02  0.1280296E+00
         21   -1    0    0  503  502  0.00000000000E+00  0.00000000000E+00  0.51916030199E+03  0.51916030199E+03  0.00000000000E+00 0.  1.
         21   -1    0    0  501  503 -0.00000000000E+00 -0.00000000000E+00 -0.90929600737E+02  0.90929600737E+02  0.00000000000E+00 0. -1.
          6    1    1    2  501    0 -0.17699966422E+02 -0.11575303789E+03  0.13027556097E+03  0.24619662138E+03  0.17300000000E+03 0. -1.
         -6    1    1    2    0  502  0.17699966422E+02  0.11575303789E+03  0.29795514029E+03  0.36389328136E+03  0.17300000000E+03 0.  1.
</event>
<event>
 4    1  0.6197496E+000  0.1000000E+03  0.7546771E-02  0.1280296E+00
         21   -1    0    0  501  502  0.00000000000E+00  0.00000000000E+00  0.37704904890E+03  0.37704904890E+03  0.00000000000E+00 0.  1.
         21   -1    0    0  502  503 -0.00000000000E+00 -0.00000000000E+00 -0.27835608013E+03  0.27835608013E+03  0.00000000000E+00 0. -1.
          6    1    1    2  501    0  0.43812154780E+02  0.45150688469E+00  0.32284479870E+03  0.36888680217E+03  0.17300000000E+03 0.  1.
         -6    1    1    2    0  503 -0.43812154780E+02 -0.45150688469E+00 -0.22415182993E+03  0.28651832686E+03  0.17300000000E+03 0. -1.
</event>
<event>
 4    1  0.6197496E+000  0.1000000E+03  0.7546771E-02  0.1280296E+00
         21   -1    0    0  501  502  0.00000000000E+00  0.00000000000E+00  0.27449352799E+03  0.27449352799E+03  0.00000000000E+00 0.  1.
         21   -1    0    0  502  503 -0.00000000000E+00 -0.00000000000E+00 -0.22776692692E+03  0.22776692692E+03  0.00000000000E+00 0. -1.
          6    1    1    2  501    0  0.37361033789E+02 -0.53136922377E+02  0.19253739692E+03  0.26686893521E+03  0.17300000000E+03 0.  1.
         -6    1    1    2    0  503 -0.37361033789E+02  0.53136922377E+02 -0.14581079585E+03  0.23539151971E+03  0.17300000000E+03 0. -1.
</event>
<event>
 4    1  0.6197496E+000  0.1000000E+03  0.7546771E-02  0.1280296E+00
         21   -1    0    0  503  502  0.00000000000E+00  0.00000000000E+00  0.13297035547E+04  0.13297035547E+04  0.00000000000E+00 0. -1.
         21   -1    0    0  501  503 -0.00000000000E+00 -0.00000000000E+00 -0.34282096826E+02  0.34282096826E+02  0.00000000000E+00 0.  1.
          6    1    1    2  501    0 -0.47957371092E+02  0.51441801326E+02  0.31714292566E+03  0.36804185042E+03  0.17300000000E+03 0. -1.
         -6    1    1    2    0  502  0.47957371092E+02 -0.51441801326E+02  0.97827853220E+03  0.99594380109E+03  0.17300000000E+03 0. -1.
</event>
<event>
 4    1  0.6197496E+000  0.1000000E+03  0.7546771E-02  0.1280296E+00
         21   -1    0    0  503  502  0.00000000000E+00  0.00000000000E+00  0.24626208857E+03  0.24626208857E+03  0.00000000000E+00 0.  1.
         21   -1    0    0  501  503 -0.00000000000E+00 -0.00000000000E+00 -0.18379528168E+03  0.18379528168E+03  0.00000000000E+00 0.  1.
          6    1    1    2  501    0 -0.55754107886E+02 -0.42686913829E+02 -0.71850606337E+02  0.20005549927E+03  0.17300000000E+03 0.  1.
         -6    1    1    2    0  502  0.55754107886E+02  0.42686913829E+02  0.13431741322E+03  0.23000187098E+03  0.17300000000E+03 0.  1.
</event>
<event>
 4    1  0.6197496E+000  0.1000000E+03  0.7546771E-02  0.1280296E+00
         21   -1    0    0  501  502  0.00000000000E+00  0.00000000000E+00  0.76456894195E+03  0.76456894195E+03  0.00000000000E+00 0.  1.
         21   -1    0    0  502  503 -0.00000000000E+00 -0.00000000000E+00 -0.71198188463E+02  0.71198188463E+02  0.00000000000E+00 0.  1.
          6    1    1    2  501    0 -0.51755129285E+02  0.51207216450E+02  0.59490302981E+03  0.62381037768E+03  0.17300000000E+03 0.  1.
         -6    1    1    2    0  503  0.51755129285E+02 -0.51207216450E+02  0.98467723681E+02  0.21195675274E+03  0.17300000000E+03 0.  1.
</event>
<event>
 4    1  0.6197496E+000  0.1000000E+03  0.7546771E-02  0.1280296E+00
         21   -1    0    0  501  502  0.00000000000E+00  0.00000000000E+00  0.75706041237E+03  0.75706041237E+03  0.00000000000E+00 0.  1.
         21   -1    0    0  502  503 -0.00000000000E+00 -0.00000000000E+00 -0.49542381340E+02  0.49542381340E+02  0.00000000000E+00 0.  1.
          6    1    1    2  501    0 -0.42909599562E+02  0.15260122810E+02  0.50824687036E+03  0.53881164270E+03  0.17300000000E+03 0.  1.
         -6    1    1    2    0  503  0.42909599562E+02 -0.15260122810E+02  0.19927116067E+03  0.26779115101E+03  0.17300000000E+03 0.  1.
</event>
<event>
 4    1  0.6197496E+000  0.1000000E+03  0.7546771E-02  0.1280296E+00
         21   -1    0    0  501  502  0.00000000000E+00  0.00000000000E+00  0.18351324592E+03  0.18351324592E+03  0.00000000000E+00 0. -1.
         21   -1    0    0  502  503 -0.00000000000E+00 -0.00000000000E+00 -0.25555029272E+03  0.25555029272E+03  0.00000000000E+00 0. -1.
          6    1    1    2  501    0  0.82339814502E+02  0.38209542874E+02  0.58688912325E+02  0.20399314363E+03  0.17300000000E+03 0. -1.
         -6    1    1    2    0  503 -0.82339814502E+02 -0.38209542874E+02 -0.13072595913E+03  0.23507039501E+03  0.17300000000E+03 0. -1.
</event>
<event>
 4    1  0.6197496E+000  0.1000000E+03  0.7546771E-02  0.1280296E+00
         21   -1    0    0  501  502  0.00000000000E+00  0.00000000000E+00  0.54353548405E+03  0.54353548405E+03  0.00000000000E+00 0. -1.
         21   -1    0    0  502  503 -0.00000000000E+00 -0.00000000000E+00 -0.12978813293E+03  0.12978813293E+03  0.00000000000E+00 0. -1.
          6    1    1    2  501    0  0.14138029047E+03  0.12636748657E+03  0.29338588743E+03  0.38982227635E+03  0.17300000000E+03 0. -1.
         -6    1    1    2    0  503 -0.14138029047E+03 -0.12636748657E+03  0.12036146370E+03  0.28350134063E+03  0.17300000000E+03 0. -1.
</event>
<event>
 4    1  0.6197496E+000  0.1000000E+03  0.7546771E-02  0.1280296E+00
         21   -1    0    0  503  502  0.00000000000E+00  0.00000000000E+00  0.15101285491E+03  0.15101285491E+03  0.00000000000E+00 0.  1.
         21   -1    0    0  501  503 -0.00000000000E+00 -0.00000000000E+00 -0.32345406194E+03  0.32345406194E+03  0.00000000000E+00 0.  1.
          6    1    1    2  501    0 -0.15843524019E+02  0.20594146149E+02 -0.23119588631E+03  0.28992356572E+03  0.17300000000E+03 0.  1.
         -6    1    1    2    0  502  0.15843524019E+02 -0.20594146149E+02  0.58754679287E+02  0.18454335113E+03  0.17300000000E+03 0.  1.
</event>
<event>
 4    1  0.6197496E+000  0.1000000E+03  0.7546771E-02  0.1280296E+00
         21   -1    0    0  503  502  0.00000000000E+00  0.00000000000E+00  0.93975126191E+03  0.93975126191E+03  0.00000000000E+00 0.  1.
         21   -1    0    0  501  503 -0.00000000000E+00 -0.00000000000E+00 -0.54652893759E+02  0.54652893759E+02  0.00000000000E+00 0.  1.
          6    1    1    2  501    0  0.80332416090E+01  0.54860190897E+02  0.14530033235E+03  0.23262708375E+03  0.17300000000E+03 0.  1.
         -6    1    1    2    0  502 -0.80332416090E+01 -0.54860190897E+02  0.73979803581E+03  0.76177707192E+03  0.17300000000E+03 0.  1.
</event>
<event>
 4    1  0.6197496E+000  0.1000000E+03  0.7546771E-02  0.1280296E+00
         21   -1    0    0  503  502  0.00000000000E+00  0.00000000000E+00  0.11878170951E+04  0.11878170951E+04  0.00000000000E+00 0. -1.
         21   -1    0    0  501  503 -0.00000000000E+00 -0.00000000000E+00 -0.14638506717E+03  0.14638506717E+03  0.00000000000E+00 0. -1.
          6    1    1    2  501    0 -0.18873531589E+01 -0.11670470139E+03 -0.56826860367E+02  0.21629110358E+03  0.17300000000E+03 0. -1.
         -6    1    1    2    0  502  0.18873531589E+01  0.11670470139E+03  0.10982588883E+04  0.11179110587E+04  0.17300000000E+03 0. -1.
</event>
<event>
 4    1  0.6197496E+000  0.1000000E+03  0.7546771E-02  0.1280296E+00
         21   -1    0    0  503  502  0.00000000000E+00  0.00000000000E+00  0.80880297023E+02  0.80880297023E+02  0.00000000000E+00 0. -1.
         21   -1    0    0  501  503 -0.00000000000E+00 -0.00000000000E+00 -0.75128511467E+03  0.75128511467E+03  0.00000000000E+00 0. -1.
          6    1    1    2  501    0  0.45338397139E+02 -0.12419424804E+03 -0.53026952206E+03  0.57323167003E+03  0.17300000000E+03 0. -1.
         -6    1    1    2    0  502 -0.45338397139E+02  0.12419424804E+03 -0.14013529559E+03  0.25893374166E+03  0.17300000000E+03 0. -1.
</event>
<event>
 4    1  0.6197496E+000  0.1000000E+03  0.7546771E-02  0.1280296E+00
         21   -1    0    0  503  502  0.00000000000E+00  0.00000000000E+00  0.30377520877E+03  0.30377520877E+03  0.00000000000E+00 0. -1.
         21   -1    0    0  501  503 -0.00000000000E+00 -0.00000000000E+00 -0.15813267535E+03  0.15813267535E+03  0.00000000000E+00 0. -1.
          6    1    1    2  501    0  0.27306456079E+02 -0.44469292117E+02  0.20352315964E+03  0.27216509143E+03  0.17300000000E+03 0. -1.
         -6    1    1    2    0  502 -0.27306456079E+02  0.44469292117E+02 -0.57880626227E+02  0.18974279269E+03  0.17300000000E+03 0. -1.
</event>
<event>
 4    1  0.6197496E+000  0.1000000E+03  0.7546771E-02  0.1280296E+00
         21   -1    0    0  501  502  0.00000000000E+00  0.00000000000E+00  0.78693702829E+03  0.78693702829E+03  0.00000000000E+00 0. -1.
         21   -1    0    0  502  503 -0.00000000000E+00 -0.00000000000E+00 -0.91200263009E+02  0.91200263009E+02  0.00000000000E+00 0. -1.
          6    1    1    2  501    0  0.13648217407E+03  0.90833664521E+01  0.59712801364E+03  0.63655381238E+03  0.17300000000E+03 0. -1.
         -6    1    1    2    0  503 -0.13648217407E+03 -0.90833664521E+01  0.98608751647E+02  0.24158347892E+03  0.17300000000E+03 0. -1.
</event>
<event>
 4    1  0.6197496E+000  0.1000000E+03  0.7546771E-02  0.1280296E+00
         21   -1    0    0  501  502  0.00000000000E+00  0.00000000000E+00  0.35865591488E+03  0.35865591488E+03  0.00000000000E+00 0. -1.
         21   -1    0    0  502  503 -0.00000000000E+00 -0.00000000000E+00 -0.10727171156E+03  0.10727171156E+03  0.00000000000E+00 0. -1.
          6    1    1    2  501    0 -0.14825811096E+02 -0.12170857037E+02  0.23309002380E+03  0.29090873763E+03  0.17300000000E+03 0. -1.
         -6    1    1    2    0  503  0.14825811096E+02  0.12170857037E+02  0.18294179520E+02  0.17501888881E+03  0.17300000000E+03 0. -1.
</event>
<event>
 4    1  0.6197496E+000  0.1000000E+03  0.7546771E-02  0.1280296E+00
         21   -1    0    0  503  502  0.00000000000E+00  0.00000000000E+00  0.23232736501E+03  0.23232736501E+03  0.00000000000E+00 0. -1.
         21   -1    0    0  501  503 -0.00000000000E+00 -0.00000000000E+00 -0.27069250265E+03  0.27069250265E+03  0.00000000000E+00 0. -1.
          6    1    1    2  501    0 -0.35140589656E+02  0.38153977914E+02 -0.19367268182E+03  0.26481822965E+03  0.17300000000E+03 0. -1.
         -6    1    1    2    0  502  0.35140589656E+02 -0.38153977914E+02  0.15530754418E+03  0.23820163801E+03  0.17300000000E+03 0. -1.
</event>
<event>
 4    1  0.6197496E+000  0.1000000E+03  0.7546771E-02  0.1280296E+00
         21   -1    0    0  501  502  0.00000000000E+00  0.00000000000E+00  0.35831738528E+03  0.35831738528E+03  0.00000000000E+00 0. -1.
         21   -1    0    0  502  503 -0.00000000000E+00 -0.00000000000E+00 -0.13225590981E+03  0.13225590981E+03  0.00000000000E+00 0.  1.
          6    1    1    2  501    0  0.26360851474E+02  0.95643157855E+01  0.25852812762E+03  0.31233341703E+03  0.17300000000E+03 0.  1.
         -6    1    1    2    0  503 -0.26360851474E+02 -0.95643157855E+01 -0.32466652149E+02  0.17823987805E+03  0.17300000000E+03 0.  1.
</event>
<event>
 4    1  0.6197496E+000  0.1000000E+03  0.7546771E-02  0.1280296E+00
         21   -1    0    0  501  502  0.00000000000E+00  0.00000000000E+00  0.14807382526E+03  0.14807382526E+03  0.00000000000E+00 0. -1.
         21   -1    0    0  502  503 -0.00000000000E+00 -0.00000000000E+00 -0.36514470745E+03  0.36514470745E+03  0.00000000000E+00 0.  1.
          6    1    1    2  501    0  0.33342125319E+02  0.89255749571E+02  0.26898914949E+02  0.19932595861E+03  0.17300000000E+03 0.  1.
         -6    1    1    2    0  503 -0.33342125319E+02 -0.89255749571E+02 -0.24396979715E+03  0.31389257409E+03  0.17300000000E+03 0.  1.
</event>
<event>
 4    1  0.6197496E+000  0.1000000E+03  0.7546771E-02  0.1280296E+00
         21   -1    0    0  503  502  0.00000000000E+00  0.00000000000E+00  0.37342061400E+03  0.37342061400E+03  0.00000000000E+00 0. -1.
         21   -1    0    0  501  503 -0.00000000000E+00 -0.00000000000E+00 -0.13226906343E+03  0.13226906343E+03  0.00000000000E+00 0.  1.
          6    1    1    2  501    0  0.56965017379E+02 -0.12731039528E+03  0.11696999501E+03  0.25112532665E+03  0.17300000000E+03 0.  1.
         -6    1    1    2    0  502 -0.56965017379E+02  0.12731039528E+03  0.12418155556E+03  0.25456435079E+03  0.17300000000E+03 0. -1.
</event>
<event>
 4    1  0.6197496E+000  0.1000000E+03  0.7546771E-02  0.1280296E+00
         21   -1    0    0  503  502  0.00000000000E+00  0.00000000000E+00  0.28316555495E+02  0.28316555495E+02  0.00000000000E+00 0. -1.
         21   -1    0    0  501  503 -0.00000000000E+00 -0.00000000000E+00 -0.10971704531E+04  0.10971704531E+04  0.00000000000E+00 0.  1.
          6    1    1    2  501    0  0.31840809760E+02 -0.68430011312E+01 -0.50615353464E+03  0.53589277329E+03  0.17300000000E+03 0.  1.
         -6    1    1    2    0  502 -0.31840809760E+02  0.68430011312E+01 -0.56270036298E+03  0.58959423532E+03  0.17300000000E+03 0. -1.
</event>
<event>
 4    1  0.6197496E+000  0.1000000E+03  0.7546771E-02  0.1280296E+00
         21   -1    0    0  503  502  0.00000000000E+00  0.00000000000E+00  0.31980333742E+03  0.31980333742E+03  0.00000000000E+00 0. -1.
         21   -1    0    0  501  503 -0.00000000000E+00 -0.00000000000E+00 -0.36388396329E+03  0.36388396329E+03  0.00000000000E+00 0.  1.
          6    1    1    2  501    0  0.12252138552E+03 -0.14573121561E+03 -0.24654588802E+03  0.35631861025E+03  0.17300000000E+03 0.  1.
         -6    1    1    2    0  502 -0.12252138552E+03  0.14573121561E+03  0.20246526215E+03  0.32736869046E+03  0.17300000000E+03 0. -1.
</event>
<event>
 4    1  0.6197496E+000  0.1000000E+03  0.7546771E-02  0.1280296E+00
         21   -1    0    0  503  502  0.00000000000E+00  0.00000000000E+00  0.31360126721E+03  0.31360126721E+03  0.00000000000E+00 0. -1.
         21   -1    0    0  501  503 -0.00000000000E+00 -0.00000000000E+00 -0.14264702781E+03  0.14264702781E+03  0.00000000000E+00 0.  1.
          6    1    1    2  501    0 -0.22064070510E+02  0.10848676667E+02 -0.43053607144E+02  0.17996424667E+03  0.17300000000E+03 0.  1.
         -6    1    1    2    0  502  0.22064070510E+02 -0.10848676667E+02  0.21400784654E+03  0.27628404835E+03  0.17300000000E+03 0. -1.
</event>
<event>
 4    1  0.6197496E+000  0.1000000E+03  0.7546771E-02  0.1280296E+00
         21   -1    0    0  503  502  0.00000000000E+00  0.00000000000E+00  0.14385712225E+04  0.14385712225E+04  0.00000000000E+00 0. -1.
         21   -1    0    0  501  503 -0.00000000000E+00 -0.00000000000E+00 -0.10109478306E+03  0.10109478306E+03  0.00000000000E+00 0.  1.
          6    1    1    2  501    0  0.60900271228E+02  0.14641532808E+03  0.61936531939E+02  0.24271675946E+03  0.17300000000E+03 0.  1.
         -6    1    1    2    0  502 -0.60900271228E+02 -0.14641532808E+03  0.12755399075E+04  0.12969492461E+04  0.17300000000E+03 0. -1.
</event>
<event>
 4    1  0.6197496E+000  0.1000000E+03  0.7546771E-02  0.1280296E+00
         21   -1    0    0  503  502  0.00000000000E+00  0.00000000000E+00  0.13851731649E+04  0.13851731649E+04  0.00000000000E+00 0.  1.
         21   -1    0    0  501  503 -0.00000000000E+00 -0.00000000000E+00 -0.38133426196E+02  0.38133426196E+02  0.00000000000E+00 0.  1.
          6    1    1    2  501    0  0.65301272180E+02  0.90163731810E+02  0.35624905698E+03  0.41138320977E+03  0.17300000000E+03 0.  1.
         -6    1    1    2    0  502 -0.65301272180E+02 -0.90163731810E+02  0.99079068172E+03  0.10119233813E+04  0.17300000000E+03 0.  1.
</event>
<event>
 4    1  0.6197496E+000  0.1000000E+03  0.7546771E-02  0.1280296E+00
         21   -1    0    0  503  502  0.00000000000E+00  0.00000000000E+00  0.99179723031E+02  0.99179723031E+02  0.00000000000E+00 0.  1.
         21   -1    0    0  501  503 -0.00000000000E+00 -0.00000000000E+00 -0.17036843066E+04  0.17036843066E+04  0.00000000000E+00 0.  1.
          6    1    1    2  501    0 -0.50303918637E+02  0.23663994065E+03 -0.14244951976E+04  0.14552128758E+04  0.17300000000E+03 0.  1.
         -6    1    1    2    0  502  0.50303918637E+02 -0.23663994065E+03 -0.18000938590E+03  0.34765115382E+03  0.17300000000E+03 0.  1.
</event>
<event>
 4    1  0.6197496E+000  0.1000000E+03  0.7546771E-02  0.1280296E+00
         21   -1    0    0  503  502  0.00000000000E+00  0.00000000000E+00  0.57755875110E+03  0.57755875110E+03  0.00000000000E+00 0.  1.
         21   -1    0    0  501  503 -0.00000000000E+00 -0.00000000000E+00 -0.10277969914E+03  0.10277969914E+03  0.00000000000E+00 0.  1.
          6    1    1    2  501    0 -0.82199581469E+02 -0.87733153605E+02  0.66515316904E+02  0.22092343655E+03  0.17300000000E+03 0.  1.
         -6    1    1    2    0  502  0.82199581469E+02  0.87733153605E+02  0.40826373506E+03  0.45941501368E+03  0.17300000000E+03 0.  1.
</event>
<event>
 4    1  0.6197496E+000  0.1000000E+03  0.7546771E-02  0.1280296E+00
         21   -1    0    0  503  502  0.00000000000E+00  0.00000000000E+00  0.89225396844E+03  0.89225396844E+03  0.00000000000E+00 0. -1.
         21   -1    0    0  501  503 -0.00000000000E+00 -0.00000000000E+00 -0.14529928919E+03  0.14529928919E+03  0.00000000000E+00 0.  1.
          6    1    1    2  501    0  0.20165073803E+03  0.21954336850E+03  0.52357379743E+03  0.62683397495E+03  0.17300000000E+03 0.  1.
         -6    1    1    2    0  502 -0.20165073803E+03 -0.21954336850E+03  0.22338088183E+03  0.41071928268E+03  0.17300000000E+03 0. -1.
</event>
<event>
 4    1  0.6197496E+000  0.1000000E+03  0.7546771E-02  0.1280296E+00
         21   -1    0    0  503  502  0.00000000000E+00  0.00000000000E+00  0.34556826649E+02  0.34556826649E+02  0.00000000000E+00 0. -1.
         21   -1    0    0  501  503 -0.00000000000E+00 -0.00000000000E+00 -0.11911878673E+04  0.11911878673E+04  0.00000000000E+00 0. -1.
          6    1    1    2  501    0  0.50312498582E+02  0.19737182243E+02 -0.85374596224E+03  0.87277263472E+03  0.17300000000E+03 0. -1.
         -6    1    1    2    0  502 -0.50312498582E+02 -0.19737182243E+02 -0.30288507845E+03  0.35297205927E+03  0.17300000000E+03 0. -1.
</event>
<event>
 4    1  0.6197496E+000  0.1000000E+03  0.7546771E-02  0.1280296E+00
         21   -1    0    0  501  502  0.00000000000E+00  0.00000000000E+00  0.13867200408E+03  0.13867200408E+03  0.00000000000E+00 0. -1.
         21   -1    0    0  502  503 -0.00000000000E+00 -0.00000000000E+00 -0.33464851236E+03  0.33464851236E+03  0.00000000000E+00 0. -1.
          6    1    1    2  501    0  0.27528719960E+01  0.12131638366E+03 -0.52002800816E+02  0.21762016116E+03  0.17300000000E+03 0. -1.
         -6    1    1    2    0  503 -0.27528719960E+01 -0.12131638366E+03 -0.14397370746E+03  0.25570035528E+03  0.17300000000E+03 0. -1.
</event>
<event>
 4    1  0.6197496E+000  0.1000000E+03  0.7546771E-02  0.1280296E+00
         21   -1    0    0  503  502  0.00000000000E+00  0.00000000000E+00  0.26532131045E+02  0.26532131045E+02  0.00000000000E+00 0. -1.
         21   -1    0    0  501  503 -0.00000000000E+00 -0.00000000000E+00 -0.24207844985E+04  0.24207844985E+04  0.00000000000E+00 0. -1.
          6    1    1    2  501    0 -0.16857357317E+03  0.65598162115E+02 -0.13890118467E+04  0.14113833919E+04  0.17300000000E+03 0. -1.
         -6    1    1    2    0  502  0.16857357317E+03 -0.65598162115E+02 -0.10052405207E+04  0.10359332377E+04  0.17300000000E+03 0. -1.
</event>
<event>
 4    1  0.6197496E+000  0.1000000E+03  0.7546771E-02  0.1280296E+00
         21   -1    0    0  501  502  0.00000000000E+00  0.00000000000E+00  0.16827521415E+03  0.16827521415E+03  0.00000000000E+00 0. -1.
         21   -1    0    0  502  503 -0.00000000000E+00 -0.00000000000E+00 -0.29178876435E+03  0.29178876435E+03  0.00000000000E+00 0. -1.
          6    1    1    2  501    0  0.78684408446E+02 -0.64013277217E+02  0.36084206045E+02  0.20376458406E+03  0.17300000000E+03 0. -1.
         -6    1    1    2    0  503 -0.78684408446E+02  0.64013277217E+02 -0.15959775624E+03  0.25629939444E+03  0.17300000000E+03 0. -1.
</event>
<event>
 4    1  0.6197496E+000  0.1000000E+03  0.7546771E-02  0.1280296E+00
         21   -1    0    0  501  502  0.00000000000E+00  0.00000000000E+00  0.89776957092E+03  0.89776957092E+03  0.00000000000E+00 0.  1.
         21   -1    0    0  502  503 -0.00000000000E+00 -0.00000000000E+00 -0.87244752112E+02  0.87244752112E+02  0.00000000000E+00 0. -1.
          6    1    1    2  501    0 -0.20167242243E+03  0.51206137790E+02  0.53097153854E+03  0.59594765648E+03  0.17300000000E+03 0.  1.
         -6    1    1    2    0  503  0.20167242243E+03 -0.51206137790E+02  0.27955328027E+03  0.38906666656E+03  0.17300000000E+03 0. -1.
</event>
<event>
 4    1  0.6197496E+000  0.1000000E+03  0.7546771E-02  0.1280296E+00
         21   -1    0    0  501  502  0.00000000000E+00  0.00000000000E+00  0.49700259984E+03  0.49700259984E+03  0.00000000000E+00 0.  1.
         21   -1    0    0  502  503 -0.00000000000E+00 -0.00000000000E+00 -0.11769586515E+03  0.11769586515E+03  0.00000000000E+00 0. -1.
          6    1    1    2  501    0 -0.54132894967E+02  0.70360343868E+02  0.37242217979E+03  0.42012882347E+03  0.17300000000E+03 0.  1.
         -6    1    1    2    0  503  0.54132894967E+02 -0.70360343868E+02  0.68845548978E+01  0.19456964152E+03  0.17300000000E+03 0. -1.
</event>
<event>
 4    1  0.6197496E+000  0.1000000E+03  0.7546771E-02  0.1280296E+00
         21   -1    0    0  503  502  0.00000000000E+00  0.00000000000E+00  0.28315962647E+03  0.28315962647E+03  0.00000000000E+00 0.  1.
         21   -1    0    0  501  503 -0.00000000000E+00 -0.00000000000E+00 -0.59385391908E+03  0.59385391908E+03  0.00000000000E+00 0.  1.
          6    1    1    2  501    0  0.12869695813E+03 -0.33002746535E+02 -0.52666712718E+03  0.57005206005E+03  0.17300000000E+03 0.  1.
         -6    1    1    2    0  502 -0.12869695813E+03  0.33002746535E+02  0.21597283457E+03  0.30696148550E+03  0.17300000000E+03 0.  1.
</event>
<event>
 4    1  0.6197496E+000  0.1000000E+03  0.7546771E-02  0.1280296E+00
         21   -1    0    0  501  502  0.00000000000E+00  0.00000000000E+00  0.34163130802E+03  0.34163130802E+03  0.00000000000E+00 0.  1.
         21   -1    0    0  502  503 -0.00000000000E+00 -0.00000000000E+00 -0.15605059148E+03  0.15605059148E+03  0.00000000000E+00 0. -1.
          6    1    1    2  501    0 -0.14819659919E+03  0.52140373718E+01  0.52561256098E+02  0.23383991071E+03  0.17300000000E+03 0.  1.
         -6    1    1    2    0  503  0.14819659919E+03 -0.52140373718E+01  0.13301946043E+03  0.26384198879E+03  0.17300000000E+03 0. -1.
</event>
<event>
 4    1  0.6197496E+000  0.1000000E+03  0.7546771E-02  0.1280296E+00
         21   -1    0    0  501  502  0.00000000000E+00  0.00000000000E+00  0.78309776001E+03  0.78309776001E+03  0.00000000000E+00 0.  1.
         21   -1    0    0  502  503 -0.00000000000E+00 -0.00000000000E+00 -0.10070153087E+03  0.10070153087E+03  0.00000000000E+00 0. -1.
          6    1    1    2  501    0 -0.15799510977E+03  0.79672874921E+02  0.55007943829E+03  0.60318041259E+03  0.17300000000E+03 0.  1.
         -6    1    1    2    0  503  0.15799510977E+03 -0.79672874921E+02  0.13231679086E+03  0.28061887829E+03  0.17300000000E+03 0. -1.
</event>
<event>
 4    1  0.6197496E+000  0.1000000E+03  0.7546771E-02  0.1280296E+00
         21   -1    0    0  501  502  0.00000000000E+00  0.00000000000E+00  0.15751137348E+03  0.15751137348E+03  0.00000000000E+00 0.  1.
         21   -1    0    0  502  503 -0.00000000000E+00 -0.00000000000E+00 -0.88356666859E+03  0.88356666859E+03  0.00000000000E+00 0.  1.
          6    1    1    2  501    0 -0.94379094421E+01  0.92395521042E+02  0.79573876585E+02  0.21186554292E+03  0.17300000000E+03 0.  1.
         -6    1    1    2    0  503  0.94379094421E+01 -0.92395521042E+02 -0.80562917170E+03  0.82921249914E+03  0.17300000000E+03 0.  1.
</event>
<event>
 4    1  0.6197496E+000  0.1000000E+03  0.7546771E-02  0.1280296E+00
         21   -1    0    0  501  502  0.00000000000E+00  0.00000000000E+00  0.74681950282E+03  0.74681950282E+03  0.00000000000E+00 0.  1.
         21   -1    0    0  502  503 -0.00000000000E+00 -0.00000000000E+00 -0.18182407416E+03  0.18182407416E+03  0.00000000000E+00 0.  1.
          6    1    1    2  501    0  0.19661442141E+03  0.12575141587E+03  0.56814186956E+03  0.63811036134E+03  0.17300000000E+03 0.  1.
         -6    1    1    2    0  503 -0.19661442141E+03 -0.12575141587E+03 -0.31464408994E+01  0.29053321564E+03  0.17300000000E+03 0.  1.
</event>
<event>
 4    1  0.6197496E+000  0.1000000E+03  0.7546771E-02  0.1280296E+00
         21   -1    0    0  503  502  0.00000000000E+00  0.00000000000E+00  0.68979374437E+02  0.68979374437E+02  0.00000000000E+00 0.  1.
         21   -1    0    0  501  503 -0.00000000000E+00 -0.00000000000E+00 -0.70981235489E+03  0.70981235489E+03  0.00000000000E+00 0.  1.
          6    1    1    2  501    0  0.97275120171E+02 -0.16647616718E+02 -0.49006773950E+03  0.52899431135E+03  0.17300000000E+03 0.  1.
         -6    1    1    2    0  502 -0.97275120171E+02  0.16647616718E+02 -0.15076524095E+03  0.24979741797E+03  0.17300000000E+03 0.  1.
</event>
<event>
 4    1  0.6197496E+000  0.1000000E+03  0.7546771E-02  0.1280296E+00
         21   -1    0    0  503  502  0.00000000000E+00  0.00000000000E+00  0.35543009601E+03  0.35543009601E+03  0.00000000000E+00 0.  1.
         21   -1    0    0  501  503 -0.00000000000E+00 -0.00000000000E+00 -0.11725379199E+03  0.11725379199E+03  0.00000000000E+00 0. -1.
          6    1    1    2  501    0  0.10380348087E+03 -0.30937522366E+02  0.12345590300E+03  0.23854276958E+03  0.17300000000E+03 0.  1.
         -6    1    1    2    0  502 -0.10380348087E+03  0.30937522366E+02  0.11472040102E+03  0.23414111843E+03  0.17300000000E+03 0.  1.
</event>
<event>
 4    1  0.6197496E+000  0.1000000E+03  0.7546771E-02  0.1280296E+00
         21   -1    0    0  503  502  0.00000000000E+00  0.00000000000E+00  0.33501788510E+02  0.33501788510E+02  0.00000000000E+00 0.  1.
         21   -1    0    0  501  503 -0.00000000000E+00 -0.00000000000E+00 -0.19700554439E+04  0.19700554439E+04  0.00000000000E+00 0. -1.
          6    1    1    2  501    0  0.10228069715E+02  0.10643741755E+02 -0.17066300645E+04  0.17154396170E+04  0.17300000000E+03 0.  1.
         -6    1    1    2    0  502 -0.10228069715E+02 -0.10643741755E+02 -0.22992359097E+03  0.28811761545E+03  0.17300000000E+03 0.  1.
</event>
<event>
 4    1  0.6197496E+000  0.1000000E+03  0.7546771E-02  0.1280296E+00
         21   -1    0    0  501  502  0.00000000000E+00  0.00000000000E+00  0.25521068672E+03  0.25521068672E+03  0.00000000000E+00 0. -1.
         21   -1    0    0  502  503 -0.00000000000E+00 -0.00000000000E+00 -0.23501283151E+03  0.23501283151E+03  0.00000000000E+00 0.  1.
          6    1    1    2  501    0 -0.29874926241E+02 -0.17049348431E+03  0.19500882972E+02  0.24549913207E+03  0.17300000000E+03 0. -1.
         -6    1    1    2    0  503  0.29874926241E+02  0.17049348431E+03  0.69697224075E+00  0.24472438616E+03  0.17300000000E+03 0.  1.
</event>
<event>
 4    1  0.6197496E+000  0.1000000E+03  0.7546771E-02  0.1280296E+00
         21   -1    0    0  501  502  0.00000000000E+00  0.00000000000E+00  0.20293867337E+03  0.20293867337E+03  0.00000000000E+00 0.  1.
         21   -1    0    0  502  503 -0.00000000000E+00 -0.00000000000E+00 -0.33694903374E+03  0.33694903374E+03  0.00000000000E+00 0. -1.
          6    1    1    2  501    0 -0.14159471047E+03 -0.16151552935E+01  0.73021181094E+02  0.23518665704E+03  0.17300000000E+03 0.  1.
         -6    1    1    2    0  503  0.14159471047E+03  0.16151552935E+01 -0.20703154147E+03  0.30470105008E+03  0.17300000000E+03 0. -1.
</event>
<event>
 4    1  0.6197496E+000  0.1000000E+03  0.7546771E-02  0.1280296E+00
         21   -1    0    0  501  502  0.00000000000E+00  0.00000000000E+00  0.21652957529E+03  0.21652957529E+03  0.00000000000E+00 0.  1.
         21   -1    0    0  502  503 -0.00000000000E+00 -0.00000000000E+00 -0.10289522833E+04  0.10289522833E+04  0.00000000000E+00 0. -1.
          6    1    1    2  501    0 -0.88538637602E+02 -0.33779962528E+02  0.15954515319E+03  0.25370028010E+03  0.17300000000E+03 0.  1.
         -6    1    1    2    0  503  0.88538637602E+02  0.33779962528E+02 -0.97196786124E+03  0.99178157853E+03  0.17300000000E+03 0. -1.
</event>
<event>
 4    1  0.6197496E+000  0.1000000E+03  0.7546771E-02  0.1280296E+00
         21   -1    0    0  503  502  0.00000000000E+00  0.00000000000E+00  0.71074592938E+02  0.71074592938E+02  0.00000000000E+00 0. -1.
         21   -1    0    0  501  503 -0.00000000000E+00 -0.00000000000E+00 -0.12446692648E+04  0.12446692648E+04  0.00000000000E+00 0. -1.
          6    1    1    2  501    0 -0.19244251470E+03 -0.10344778112E+03 -0.81665816434E+03  0.86289925384E+03  0.17300000000E+03 0. -1.
         -6    1    1    2    0  502  0.19244251470E+03  0.10344778112E+03 -0.35693650752E+03  0.45284460390E+03  0.17300000000E+03 0. -1.
</event>
<event>
 4    1  0.6197496E+000  0.1000000E+03  0.7546771E-02  0.1280296E+00
         21   -1    0    0  503  502  0.00000000000E+00  0.00000000000E+00  0.21660337431E+03  0.21660337431E+03  0.00000000000E+00 0. -1.
         21   -1    0    0  501  503 -0.00000000000E+00 -0.00000000000E+00 -0.67821188746E+03  0.67821188746E+03  0.00000000000E+00 0. -1.
          6    1    1    2  501    0  0.25887227993E+02  0.32843321834E+03 -0.33801599973E+03  0.50271497248E+03  0.17300000000E+03 0. -1.
         -6    1    1    2    0  502 -0.25887227993E+02 -0.32843321834E+03 -0.12359251342E+03  0.39210028928E+03  0.17300000000E+03 0. -1.
</event>
<event>
 4    1  0.6197496E+000  0.1000000E+03  0.7546771E-02  0.1280296E+00
         21   -1    0    0  503  502  0.00000000000E+00  0.00000000000E+00  0.30738305191E+03  0.30738305191E+03  0.00000000000E+00 0. -1.
         21   -1    0    0  501  503 -0.00000000000E+00 -0.00000000000E+00 -0.22019515079E+03  0.22019515079E+03  0.00000000000E+00 0. -1.
          6    1    1    2  501    0  0.91511726885E+02 -0.75703558488E+02 -0.11233510518E+03  0.23802016885E+03  0.17300000000E+03 0. -1.
         -6    1    1    2    0  502 -0.91511726885E+02  0.75703558488E+02  0.19952300630E+03  0.28955803385E+03  0.17300000000E+03 0. -1.
</event>
<event>
 4    1  0.6197496E+000  0.1000000E+03  0.7546771E-02  0.1280296E+00
         21   -1    0    0  503  502  0.00000000000E+00  0.00000000000E+00  0.26213475776E+03  0.26213475776E+03  0.00000000000E+00 0. -1.
         21   -1    0    0  501  503 -0.00000000000E+00 -0.00000000000E+00 -0.15893298959E+03  0.15893298959E+03  0.00000000000E+00 0. -1.
          6    1    1    2  501    0  0.10709195843E+03 -0.90845535772E+01  0.37699333603E+02  0.20712666759E+03  0.17300000000E+03 0. -1.
         -6    1    1    2    0  502 -0.10709195843E+03  0.90845535772E+01  0.65502434570E+02  0.21394107976E+03  0.17300000000E+03 0. -1.
</event>
<event>
 4    1  0.6197496E+000  0.1000000E+03  0.7546771E-02  0.1280296E+00
         21   -1    0    0  501  502  0.00000000000E+00  0.00000000000E+00  0.63812087920E+02  0.63812087920E+02  0.00000000000E+00 0.  1.
         21   -1    0    0  502  503 -0.00000000000E+00 -0.00000000000E+00 -0.58623464963E+03  0.58623464963E+03  0.00000000000E+00 0. -1.
          6    1    1    2  501    0 -0.16137188115E+01 -0.70824201779E+02 -0.17784325276E+03  0.25802304974E+03  0.17300000000E+03 0.  1.
         -6    1    1    2    0  503  0.16137188115E+01  0.70824201779E+02 -0.34457930895E+03  0.39202368781E+03  0.17300000000E+03 0. -1.
</event>
<event>
 4    1  0.6197496E+000  0.1000000E+03  0.7546771E-02  0.1280296E+00
         21   -1    0    0  503  502  0.00000000000E+00  0.00000000000E+00  0.12384436639E+03  0.12384436639E+03  0.00000000000E+00 0. -1.
         21   -1    0    0  501  503 -0.00000000000E+00 -0.00000000000E+00 -0.33933253339E+03  0.33933253339E+03  0.00000000000E+00 0. -1.
          6    1    1    2  501    0 -0.74747219575E+01 -0.43513849594E+01 -0.23160360292E+03  0.28921278483E+03  0.17300000000E+03 0. -1.
         -6    1    1    2    0  502  0.74747219575E+01  0.43513849594E+01  0.16115435923E+02  0.17396411496E+03  0.17300000000E+03 0. -1.
</event>
<event>
 4    1  0.6197496E+000  0.1000000E+03  0.7546771E-02  0.1280296E+00
         21   -1    0    0  501  502  0.00000000000E+00  0.00000000000E+00  0.20848787151E+03  0.20848787151E+03  0.00000000000E+00 0.  1.
         21   -1    0    0  502  503 -0.00000000000E+00 -0.00000000000E+00 -0.17160356613E+03  0.17160356613E+03  0.00000000000E+00 0.  1.
          6    1    1    2  501    0  0.76395898757E+02  0.34448333164E+01  0.18692375682E+02  0.19007000061E+03  0.17300000000E+03 0.  1.
         -6    1    1    2    0  503 -0.76395898757E+02 -0.34448333164E+01  0.18191929696E+02  0.19002143703E+03  0.17300000000E+03 0.  1.
</event>
<event>
 4    1  0.6197496E+000  0.1000000E+03  0.7546771E-02  0.1280296E+00
         21   -1    0    0  501  502  0.00000000000E+00  0.00000000000E+00  0.81473100569E+03  0.81473100569E+03  0.00000000000E+00 0.  1.
         21   -1    0    0  502  503 -0.00000000000E+00 -0.00000000000E+00 -0.58735169515E+02  0.58735169515E+02  0.00000000000E+00 0.  1.
          6    1    1    2  501    0 -0.43403336166E+02  0.10407866533E+03  0.52207716092E+03  0.56143546390E+03  0.17300000000E+03 0.  1.
         -6    1    1    2    0  503  0.43403336166E+02 -0.10407866533E+03  0.23391867525E+03  0.31203071130E+03  0.17300000000E+03 0.  1.
</event>
<event>
 4    1  0.6197496E+000  0.1000000E+03  0.7546771E-02  0.1280296E+00
         21   -1    0    0  503  502  0.00000000000E+00  0.00000000000E+00  0.28540539333E+03  0.28540539333E+03  0.00000000000E+00 0.  1.
         21   -1    0    0  501  503 -0.00000000000E+00 -0.00000000000E+00 -0.20011959565E+03  0.20011959565E+03  0.00000000000E+00 0.  1.
          6    1    1    2  501    0 -0.27021548727E+02  0.11774594068E+03 -0.71343239271E+02  0.22274004676E+03  0.17300000000E+03 0.  1.
         -6    1    1    2    0  502  0.27021548727E+02 -0.11774594068E+03  0.15662903695E+03  0.26278494222E+03  0.17300000000E+03 0.  1.
</event>
<event>
 4    1  0.6197496E+000  0.1000000E+03  0.7546771E-02  0.1280296E+00
         21   -1    0    0  503  502  0.00000000000E+00  0.00000000000E+00  0.26529354978E+03  0.26529354978E+03  0.00000000000E+00 0.  1.
         21   -1    0    0  501  503 -0.00000000000E+00 -0.00000000000E+00 -0.20367977176E+03  0.20367977176E+03  0.00000000000E+00 0.  1.
          6    1    1    2  501    0  0.88957257757E+02  0.12710880052E+03  0.24763782283E+02  0.23369271660E+03  0.17300000000E+03 0.  1.
         -6    1    1    2    0  502 -0.88957257757E+02 -0.12710880052E+03  0.36849995744E+02  0.23528060495E+03  0.17300000000E+03 0.  1.
</event>
<event>
 4    1  0.6197496E+000  0.1000000E+03  0.7546771E-02  0.1280296E+00
         21   -1    0    0  501  502  0.00000000000E+00  0.00000000000E+00  0.42083068099E+03  0.42083068099E+03  0.00000000000E+00 0.  1.
         21   -1    0    0  502  503 -0.00000000000E+00 -0.00000000000E+00 -0.94529929869E+02  0.94529929869E+02  0.00000000000E+00 0. -1.
          6    1    1    2  501    0  0.44380177080E+02  0.22154258596E+02  0.27422492029E+03  0.32800719229E+03  0.17300000000E+03 0.  1.
         -6    1    1    2    0  503 -0.44380177080E+02 -0.22154258596E+02  0.52075830840E+02  0.18735341857E+03  0.17300000000E+03 0. -1.
</event>
<event>
 4    1  0.6197496E+000  0.1000000E+03  0.7546771E-02  0.1280296E+00
         21   -1    0    0  501  502  0.00000000000E+00  0.00000000000E+00  0.19503443865E+03  0.19503443865E+03  0.00000000000E+00 0.  1.
         21   -1    0    0  502  503 -0.00000000000E+00 -0.00000000000E+00 -0.30956691645E+03  0.30956691645E+03  0.00000000000E+00 0.  1.
          6    1    1    2  501    0  0.14781812660E+03 -0.44369025735E+02  0.26330603502E+02  0.23332618729E+03  0.17300000000E+03 0.  1.
         -6    1    1    2    0  503 -0.14781812660E+03  0.44369025735E+02 -0.14086308129E+03  0.27127516781E+03  0.17300000000E+03 0.  1.
</event>
<event>
 4    1  0.6197496E+000  0.1000000E+03  0.7546771E-02  0.1280296E+00
         21   -1    0    0  501  502  0.00000000000E+00  0.00000000000E+00  0.12658194680E+03  0.12658194680E+03  0.00000000000E+00 0.  1.
         21   -1    0    0  502  503 -0.00000000000E+00 -0.00000000000E+00 -0.27322551950E+03  0.27322551950E+03  0.00000000000E+00 0. -1.
          6    1    1    2  501    0 -0.64089174200E+02 -0.12819773531E+02 -0.52240025585E+02  0.19217124945E+03  0.17300000000E+03 0.  1.
         -6    1    1    2    0  503  0.64089174200E+02  0.12819773531E+02 -0.94403547115E+02  0.20763621686E+03  0.17300000000E+03 0. -1.
</event>
<event>
 4    1  0.6197496E+000  0.1000000E+03  0.7546771E-02  0.1280296E+00
         21   -1    0    0  501  502  0.00000000000E+00  0.00000000000E+00  0.49085669895E+03  0.49085669895E+03  0.00000000000E+00 0.  1.
         21   -1    0    0  502  503 -0.00000000000E+00 -0.00000000000E+00 -0.10689748223E+04  0.10689748223E+04  0.00000000000E+00 0. -1.
          6    1    1    2  501    0 -0.11928535710E+03  0.66197449534E+02  0.45390728399E+03  0.50455120772E+03  0.17300000000E+03 0.  1.
         -6    1    1    2    0  503  0.11928535710E+03 -0.66197449534E+02 -0.10320254073E+04  0.10552803135E+04  0.17300000000E+03 0. -1.
</event>
<event>
 4    1  0.6197496E+000  0.1000000E+03  0.7546771E-02  0.1280296E+00
         21   -1    0    0  501  502  0.00000000000E+00  0.00000000000E+00  0.19211078960E+04  0.19211078960E+04  0.00000000000E+00 0.  1.
         21   -1    0    0  502  503 -0.00000000000E+00 -0.00000000000E+00 -0.77759586879E+02  0.77759586879E+02  0.00000000000E+00 0. -1.
          6    1    1    2  501    0  0.60708125500E+02 -0.28812881278E+03  0.13896454209E+04  0.14309951380E+04  0.17300000000E+03 0.  1.
         -6    1    1    2    0  503 -0.60708125500E+02  0.28812881278E+03  0.45370288822E+03  0.56787234484E+03  0.17300000000E+03 0. -1.
</event>
<event>
 4    1  0.6197496E+000  0.1000000E+03  0.7546771E-02  0.1280296E+00
         21   -1    0    0  501  502  0.00000000000E+00  0.00000000000E+00  0.64794567663E+03  0.64794567663E+03  0.00000000000E+00 0. -1.
         21   -1    0    0  502  503 -0.00000000000E+00 -0.00000000000E+00 -0.92898979940E+02  0.92898979940E+02  0.00000000000E+00 0.  1.
          6    1    1    2  501    0 -0.17143363545E+03 -0.27857179328E+02  0.29254414845E+03  0.38167603094E+03  0.17300000000E+03 0. -1.
         -6    1    1    2    0  503  0.17143363545E+03  0.27857179328E+02  0.26250254823E+03  0.35916862562E+03  0.17300000000E+03 0.  1.
</event>
<event>
 4    1  0.6197496E+000  0.1000000E+03  0.7546771E-02  0.1280296E+00
         21   -1    0    0  501  502  0.00000000000E+00  0.00000000000E+00  0.19751316243E+03  0.19751316243E+03  0.00000000000E+00 0. -1.
         21   -1    0    0  502  503 -0.00000000000E+00 -0.00000000000E+00 -0.22151296920E+03  0.22151296920E+03  0.00000000000E+00 0. -1.
          6    1    1    2  501    0  0.11748331146E+03  0.44974042027E+01 -0.11584554547E+02  0.20948927662E+03  0.17300000000E+03 0. -1.
         -6    1    1    2    0  503 -0.11748331146E+03 -0.44974042027E+01 -0.12415252227E+02  0.20953685500E+03  0.17300000000E+03 0. -1.
</event>
<event>
 4    1  0.6197496E+000  0.1000000E+03  0.7546771E-02  0.1280296E+00
         21   -1    0    0  501  502  0.00000000000E+00  0.00000000000E+00  0.11638123028E+03  0.11638123028E+03  0.00000000000E+00 0. -1.
         21   -1    0    0  502  503 -0.00000000000E+00 -0.00000000000E+00 -0.55810871115E+03  0.55810871115E+03  0.00000000000E+00 0. -1.
          6    1    1    2  501    0  0.11601574064E+03 -0.13731069820E+03 -0.15197167641E+03  0.29212714757E+03  0.17300000000E+03 0. -1.
         -6    1    1    2    0  503 -0.11601574064E+03  0.13731069820E+03 -0.28975580446E+03  0.38236279386E+03  0.17300000000E+03 0. -1.
</event>
<event>
 4    1  0.6197496E+000  0.1000000E+03  0.7546771E-02  0.1280296E+00
         21   -1    0    0  503  502  0.00000000000E+00  0.00000000000E+00  0.18530866921E+03  0.18530866921E+03  0.00000000000E+00 0. -1.
         21   -1    0    0  501  503 -0.00000000000E+00 -0.00000000000E+00 -0.85706188825E+03  0.85706188825E+03  0.00000000000E+00 0. -1.
          6    1    1    2  501    0 -0.27991495574E+02 -0.17123014007E+02 -0.80342822500E+03  0.82249780192E+03  0.17300000000E+03 0. -1.
         -6    1    1    2    0  502  0.27991495574E+02  0.17123014007E+02  0.13167500596E+03  0.21987275554E+03  0.17300000000E+03 0. -1.
</event>
<event>
 4    1  0.6197496E+000  0.1000000E+03  0.7546771E-02  0.1280296E+00
         21   -1    0    0  503  502  0.00000000000E+00  0.00000000000E+00  0.17079195042E+03  0.17079195042E+03  0.00000000000E+00 0. -1.
         21   -1    0    0  501  503 -0.00000000000E+00 -0.00000000000E+00 -0.20158897402E+03  0.20158897402E+03  0.00000000000E+00 0. -1.
          6    1    1    2  501    0  0.76324961900E+01 -0.60675766845E+02  0.12282006560E+02  0.18390120001E+03  0.17300000000E+03 0. -1.
         -6    1    1    2    0  502 -0.76324961900E+01  0.60675766845E+02 -0.43079030166E+02  0.18847972443E+03  0.17300000000E+03 0. -1.
</event>
<event>
 4    1  0.6197496E+000  0.1000000E+03  0.7546771E-02  0.1280296E+00
         21   -1    0    0  503  502  0.00000000000E+00  0.00000000000E+00  0.18257275941E+03  0.18257275941E+03  0.00000000000E+00 0.  1.
         21   -1    0    0  501  503 -0.00000000000E+00 -0.00000000000E+00 -0.23440756776E+03  0.23440756776E+03  0.00000000000E+00 0.  1.
          6    1    1    2  501    0  0.10666885063E+03  0.30370379804E+02 -0.49911768893E+02  0.21147290213E+03  0.17300000000E+03 0.  1.
         -6    1    1    2    0  502 -0.10666885063E+03 -0.30370379804E+02 -0.19230394530E+01  0.20550742503E+03  0.17300000000E+03 0.  1.
</event>
<event>
 4    1  0.6197496E+000  0.1000000E+03  0.7546771E-02  0.1280296E+00
         21   -1    0    0  503  502  0.00000000000E+00  0.00000000000E+00  0.34124691665E+03  0.34124691665E+03  0.00000000000E+00 0.  1.
         21   -1    0    0  501  503 -0.00000000000E+00 -0.00000000000E+00 -0.16887257289E+03  0.16887257289E+03  0.00000000000E+00 0.  1.
          6    1    1    2  501    0  0.40789315465E+02  0.80164184029E+02 -0.62593541531E+02  0.20478529268E+03  0.17300000000E+03 0.  1.
         -6    1    1    2    0  502 -0.40789315465E+02 -0.80164184029E+02  0.23496788529E+03  0.30533419686E+03  0.17300000000E+03 0.  1.
</event>
<event>
 4    1  0.6197496E+000  0.1000000E+03  0.7546771E-02  0.1280296E+00
         21   -1    0    0  503  502  0.00000000000E+00  0.00000000000E+00  0.15867835014E+04  0.15867835014E+04  0.00000000000E+00 0.  1.
         21   -1    0    0  501  503 -0.00000000000E+00 -0.00000000000E+00 -0.12865911964E+03  0.12865911964E+03  0.00000000000E+00 0.  1.
          6    1    1    2  501    0 -0.17700413081E+02 -0.10622204753E+03 -0.36473994461E+02  0.20701637683E+03  0.17300000000E+03 0.  1.
         -6    1    1    2    0  502  0.17700413081E+02  0.10622204753E+03  0.14945983762E+04  0.15084262442E+04  0.17300000000E+03 0.  1.
</event>
<event>
 4    1  0.6197496E+000  0.1000000E+03  0.7546771E-02  0.1280296E+00
         21   -1    0    0  503  502  0.00000000000E+00  0.00000000000E+00  0.61050257503E+02  0.61050257503E+02  0.00000000000E+00 0.  1.
         21   -1    0    0  501  503 -0.00000000000E+00 -0.00000000000E+00 -0.99588839016E+03  0.99588839016E+03  0.00000000000E+00 0.  1.
          6    1    1    2  501    0 -0.15727889617E+03  0.50692799865E+02 -0.33947230991E+03  0.41530333533E+03  0.17300000000E+03 0.  1.
         -6    1    1    2    0  502  0.15727889617E+03 -0.50692799865E+02 -0.59536582274E+03  0.64163531233E+03  0.17300000000E+03 0.  1.
</event>
<event>
 4    1  0.6197496E+000  0.1000000E+03  0.7546771E-02  0.1280296E+00
         21   -1    0    0  503  502  0.00000000000E+00  0.00000000000E+00  0.16595842316E+03  0.16595842316E+03  0.00000000000E+00 0.  1.
         21   -1    0    0  501  503 -0.00000000000E+00 -0.00000000000E+00 -0.19605967792E+03  0.19605967792E+03  0.00000000000E+00 0.  1.
          6    1    1    2  501    0  0.46872701939E+02 -0.19605304638E+02 -0.98039951186E+01  0.18057280105E+03  0.17300000000E+03 0.  1.
         -6    1    1    2    0  502 -0.46872701939E+02  0.19605304638E+02 -0.20297259639E+02  0.18144530004E+03  0.17300000000E+03 0.  1.
</event>
<event>
 4    1  0.6197496E+000  0.1000000E+03  0.7546771E-02  0.1280296E+00
         21   -1    0    0  501  502  0.00000000000E+00  0.00000000000E+00  0.62633819535E+03  0.62633819535E+03  0.00000000000E+00 0. -1.
         21   -1    0    0  502  503 -0.00000000000E+00 -0.00000000000E+00 -0.14224939285E+03  0.14224939285E+03  0.00000000000E+00 0.  1.
          6    1    1    2  501    0 -0.19203272561E+03 -0.86121727183E+02  0.39906019672E+03  0.48318894876E+03  0.17300000000E+03 0. -1.
         -6    1    1    2    0  503  0.19203272561E+03  0.86121727183E+02  0.85028605780E+02  0.28539863945E+03  0.17300000000E+03 0. -1.
</event>
<event>
 4    1  0.6197496E+000  0.1000000E+03  0.7546771E-02  0.1280296E+00
         21   -1    0    0  501  502  0.00000000000E+00  0.00000000000E+00  0.20380216141E+03  0.20380216141E+03  0.00000000000E+00 0. -1.
         21   -1    0    0  502  503 -0.00000000000E+00 -0.00000000000E+00 -0.97988195685E+03  0.97988195685E+03  0.00000000000E+00 0.  1.
          6    1    1    2  501    0  0.96506608740E+02  0.37706075973E+03 -0.20895511140E+03  0.47442552697E+03  0.17300000000E+03 0. -1.
         -6    1    1    2    0  503 -0.96506608740E+02 -0.37706075973E+03 -0.56712468405E+03  0.70925859129E+03  0.17300000000E+03 0. -1.
</event>
<event>
 4    1  0.6197496E+000  0.1000000E+03  0.7546771E-02  0.1280296E+00
         21   -1    0    0  501  502  0.00000000000E+00  0.00000000000E+00  0.27336185237E+03  0.27336185237E+03  0.00000000000E+00 0. -1.
         21   -1    0    0  502  503 -0.00000000000E+00 -0.00000000000E+00 -0.14650839182E+03  0.14650839182E+03  0.00000000000E+00 0.  1.
          6    1    1    2  501    0  0.32852039544E+02 -0.79676002951E+02  0.11786770928E+03  0.22638312401E+03  0.17300000000E+03 0. -1.
         -6    1    1    2    0  503 -0.32852039544E+02  0.79676002951E+02  0.89857512676E+01  0.19348712018E+03  0.17300000000E+03 0. -1.
</event>
<event>
 4    1  0.6197496E+000  0.1000000E+03  0.7546771E-02  0.1280296E+00
         21   -1    0    0  503  502  0.00000000000E+00  0.00000000000E+00  0.11274703880E+04  0.11274703880E+04  0.00000000000E+00 0. -1.
         21   -1    0    0  501  503 -0.00000000000E+00 -0.00000000000E+00 -0.48504493592E+02  0.48504493592E+02  0.00000000000E+00 0.  1.
          6    1    1    2  501    0  0.81749297698E+02 -0.70454692057E+02  0.25157621445E+03  0.32383082464E+03  0.17300000000E+03 0.  1.
         -6    1    1    2    0  502 -0.81749297698E+02  0.70454692057E+02  0.82738967993E+03  0.85214405693E+03  0.17300000000E+03 0. -1.
</event>
<event>
 4    1  0.6197496E+000  0.1000000E+03  0.7546771E-02  0.1280296E+00
         21   -1    0    0  501  502  0.00000000000E+00  0.00000000000E+00  0.11656429885E+03  0.11656429885E+03  0.00000000000E+00 0.  1.
         21   -1    0    0  502  503 -0.00000000000E+00 -0.00000000000E+00 -0.54642474060E+03  0.54642474060E+03  0.00000000000E+00 0.  1.
          6    1    1    2  501    0 -0.33883605856E+02 -0.10184216843E+03 -0.19026996545E+02  0.20447726674E+03  0.17300000000E+03 0.  1.
         -6    1    1    2    0  503  0.33883605856E+02  0.10184216843E+03 -0.41083344520E+03  0.45851177271E+03  0.17300000000E+03 0.  1.
</event>
<event>
 4    1  0.6197496E+000  0.1000000E+03  0.7546771E-02  0.1280296E+00
         21   -1    0    0  501  502  0.00000000000E+00  0.00000000000E+00  0.68762120292E+02  0.68762120292E+02  0.00000000000E+00 0.  1.
         21   -1    0    0  502  503 -0.00000000000E+00 -0.00000000000E+00 -0.75281210393E+03  0.75281210393E+03  0.00000000000E+00 0.  1.
          6    1    1    2  501    0 -0.30274150098E+02 -0.12599725175E+03 -0.21379435579E+03  0.30402114759E+03  0.17300000000E+03 0.  1.
         -6    1    1    2    0  503  0.30274150098E+02  0.12599725175E+03 -0.47025562785E+03  0.51755307664E+03  0.17300000000E+03 0.  1.
</event>
<event>
 4    1  0.6197496E+000  0.1000000E+03  0.7546771E-02  0.1280296E+00
         21   -1    0    0  501  502  0.00000000000E+00  0.00000000000E+00  0.62484485403E+03  0.62484485403E+03  0.00000000000E+00 0.  1.
         21   -1    0    0  502  503 -0.00000000000E+00 -0.00000000000E+00 -0.10691934515E+03  0.10691934515E+03  0.00000000000E+00 0.  1.
          6    1    1    2  501    0  0.13003911288E+01  0.19117873289E+03  0.23332580885E+03  0.34773687179E+03  0.17300000000E+03 0.  1.
         -6    1    1    2    0  503 -0.13003911288E+01 -0.19117873289E+03  0.28459970003E+03  0.38402732739E+03  0.17300000000E+03 0.  1.
</event>
<event>
 4    1  0.6197496E+000  0.1000000E+03  0.7546771E-02  0.1280296E+00
         21   -1    0    0  501  502  0.00000000000E+00  0.00000000000E+00  0.14603072599E+03  0.14603072599E+03  0.00000000000E+00 0.  1.
         21   -1    0    0  502  503 -0.00000000000E+00 -0.00000000000E+00 -0.32017594535E+03  0.32017594535E+03  0.00000000000E+00 0.  1.
          6    1    1    2  501    0  0.61795291403E+02 -0.10061102690E+03 -0.29166195310E+02  0.21147317495E+03  0.17300000000E+03 0.  1.
         -6    1    1    2    0  503 -0.61795291403E+02  0.10061102690E+03 -0.14497902405E+03  0.25473349640E+03  0.17300000000E+03 0.  1.
</event>
<event>
 4    1  0.6197496E+000  0.1000000E+03  0.7546771E-02  0.1280296E+00
         21   -1    0    0  501  502  0.00000000000E+00  0.00000000000E+00  0.21014387465E+04  0.21014387465E+04  0.00000000000E+00 0. -1.
         21   -1    0    0  502  503 -0.00000000000E+00 -0.00000000000E+00 -0.20075875768E+02  0.20075875768E+02  0.00000000000E+00 0.  1.
          6    1    1    2  501    0 -0.77663302949E+02 -0.60351131236E+02  0.13032738848E+04  0.13183799401E+04  0.17300000000E+03 0. -1.
         -6    1    1    2    0  503  0.77663302949E+02  0.60351131236E+02  0.77808898591E+03  0.80313468214E+03  0.17300000000E+03 0.  1.
</event>
<event>
 4    1  0.6197496E+000  0.1000000E+03  0.7546771E-02  0.1280296E+00
         21   -1    0    0  501  502  0.00000000000E+00  0.00000000000E+00  0.76469648118E+03  0.76469648118E+03  0.00000000000E+00 0. -1.
         21   -1    0    0  502  503 -0.00000000000E+00 -0.00000000000E+00 -0.28404448063E+03  0.28404448063E+03  0.00000000000E+00 0.  1.
          6    1    1    2  501    0 -0.33403179051E+02 -0.12052636745E+03  0.70645407124E+03  0.73800320622E+03  0.17300000000E+03 0. -1.
         -6    1    1    2    0  503  0.33403179051E+02  0.12052636745E+03 -0.22580207069E+03  0.31073775559E+03  0.17300000000E+03 0.  1.
</event>
<event>
 4    1  0.6197496E+000  0.1000000E+03  0.7546771E-02  0.1280296E+00
         21   -1    0    0  501  502  0.00000000000E+00  0.00000000000E+00  0.54517954513E+03  0.54517954513E+03  0.00000000000E+00 0. -1.
         21   -1    0    0  502  503 -0.00000000000E+00 -0.00000000000E+00 -0.99811650739E+02  0.99811650739E+02  0.00000000000E+00 0.  1.
          6    1    1    2  501    0  0.15636922509E+03 -0.87274948559E+00  0.23076581899E+03  0.32807614887E+03  0.17300000000E+03 0. -1.
         -6    1    1    2    0  503 -0.15636922509E+03  0.87274948559E+00  0.21460207540E+03  0.31691504700E+03  0.17300000000E+03 0.  1.
</event>
<event>
 4    1  0.6197496E+000  0.1000000E+03  0.7546771E-02  0.1280296E+00
         21   -1    0    0  503  502  0.00000000000E+00  0.00000000000E+00  0.93853530154E+03  0.93853530154E+03  0.00000000000E+00 0.  1.
         21   -1    0    0  501  503 -0.00000000000E+00 -0.00000000000E+00 -0.13477244055E+03  0.13477244055E+03  0.00000000000E+00 0.  1.
          6    1    1    2  501    0  0.23256846778E+03 -0.18332869156E+03  0.25983216722E+03  0.43027811526E+03  0.17300000000E+03 0.  1.
         -6    1    1    2    0  502 -0.23256846778E+03  0.18332869156E+03  0.54393069377E+03  0.64302962682E+03  0.17300000000E+03 0.  1.
</event>
<event>
 4    1  0.6197496E+000  0.1000000E+03  0.7546771E-02  0.1280296E+00
         21   -1    0    0  503  502  0.00000000000E+00  0.00000000000E+00  0.48849441295E+03  0.48849441295E+03  0.00000000000E+00 0.  1.
         21   -1    0    0  501  503 -0.00000000000E+00 -0.00000000000E+00 -0.10729894719E+03  0.10729894719E+03  0.00000000000E+00 0.  1.
          6    1    1    2  501    0 -0.24040516694E+02  0.22553590141E+02  0.25417921010E+00  0.17611267836E+03  0.17300000000E+03 0.  1.
         -6    1    1    2    0  502  0.24040516694E+02 -0.22553590141E+02  0.38094128654E+03  0.41968068179E+03  0.17300000000E+03 0.  1.
</event>
<event>
 4    1  0.6197496E+000  0.1000000E+03  0.7546771E-02  0.1280296E+00
         21   -1    0    0  501  502  0.00000000000E+00  0.00000000000E+00  0.59194828506E+03  0.59194828506E+03  0.00000000000E+00 0. -1.
         21   -1    0    0  502  503 -0.00000000000E+00 -0.00000000000E+00 -0.36047479104E+03  0.36047479104E+03  0.00000000000E+00 0. -1.
          6    1    1    2  501    0  0.37762530518E+02 -0.33492026320E+03  0.38820879105E+03  0.54243216798E+03  0.17300000000E+03 0. -1.
         -6    1    1    2    0  503 -0.37762530518E+02  0.33492026320E+03 -0.15673529703E+03  0.40999090813E+03  0.17300000000E+03 0. -1.
</event>
<event>
 4    1  0.6197496E+000  0.1000000E+03  0.7546771E-02  0.1280296E+00
         21   -1    0    0  501  502  0.00000000000E+00  0.00000000000E+00  0.37597328104E+03  0.37597328104E+03  0.00000000000E+00 0. -1.
         21   -1    0    0  502  503 -0.00000000000E+00 -0.00000000000E+00 -0.10490998419E+03  0.10490998419E+03  0.00000000000E+00 0. -1.
          6    1    1    2  501    0 -0.94300696592E+02  0.18390804801E+02  0.15591639614E+03  0.25193206557E+03  0.17300000000E+03 0. -1.
         -6    1    1    2    0  503  0.94300696592E+02 -0.18390804801E+02  0.11514690071E+03  0.22895119965E+03  0.17300000000E+03 0. -1.
</event>
<event>
 4    1  0.6197496E+000  0.1000000E+03  0.7546771E-02  0.1280296E+00
         21   -1    0    0  501  502  0.00000000000E+00  0.00000000000E+00  0.23570539266E+03  0.23570539266E+03  0.00000000000E+00 0. -1.
         21   -1    0    0  502  503 -0.00000000000E+00 -0.00000000000E+00 -0.56957749542E+03  0.56957749542E+03  0.00000000000E+00 0. -1.
          6    1    1    2  501    0 -0.25977675552E+02  0.10254586487E+02  0.18666920034E+03  0.25603590866E+03  0.17300000000E+03 0. -1.
         -6    1    1    2    0  503  0.25977675552E+02 -0.10254586487E+02 -0.52054130309E+03  0.54924697941E+03  0.17300000000E+03 0. -1.
</event>
<event>
 4    1  0.6197496E+000  0.1000000E+03  0.7546771E-02  0.1280296E+00
         21   -1    0    0  501  502  0.00000000000E+00  0.00000000000E+00  0.70814803068E+02  0.70814803068E+02  0.00000000000E+00 0. -1.
         21   -1    0    0  502  503 -0.00000000000E+00 -0.00000000000E+00 -0.61637647137E+03  0.61637647137E+03  0.00000000000E+00 0. -1.
          6    1    1    2  501    0  0.82165665705E+02  0.80550844944E+02 -0.30881027378E+03  0.37219943637E+03  0.17300000000E+03 0. -1.
         -6    1    1    2    0  503 -0.82165665705E+02 -0.80550844944E+02 -0.23675139453E+03  0.31499183807E+03  0.17300000000E+03 0. -1.
</event>
<event>
 4    1  0.6197496E+000  0.1000000E+03  0.7546771E-02  0.1280296E+00
         21   -1    0    0  501  502  0.00000000000E+00  0.00000000000E+00  0.11389251777E+04  0.11389251777E+04  0.00000000000E+00 0. -1.
         21   -1    0    0  502  503 -0.00000000000E+00 -0.00000000000E+00 -0.13580933027E+03  0.13580933027E+03  0.00000000000E+00 0. -1.
          6    1    1    2  501    0 -0.29551255932E+01 -0.10880145465E+02  0.10736582393E+04  0.10875652280E+04  0.17300000000E+03 0. -1.
         -6    1    1    2    0  503  0.29551255932E+01  0.10880145465E+02 -0.70542391831E+02  0.18716928001E+03  0.17300000000E+03 0. -1.
</event>
<event>
 4    1  0.6197496E+000  0.1000000E+03  0.7546771E-02  0.1280296E+00
         21   -1    0    0  501  502  0.00000000000E+00  0.00000000000E+00  0.13318483309E+04  0.13318483309E+04  0.00000000000E+00 0. -1.
         21   -1    0    0  502  503 -0.00000000000E+00 -0.00000000000E+00 -0.80575357152E+02  0.80575357152E+02  0.00000000000E+00 0. -1.
          6    1    1    2  501    0 -0.61618006978E+02 -0.12436928392E+03  0.11453592644E+04  0.11666367653E+04  0.17300000000E+03 0. -1.
         -6    1    1    2    0  503  0.61618006978E+02  0.12436928392E+03  0.10591370932E+03  0.24578692274E+03  0.17300000000E+03 0. -1.
</event>
<event>
 4    1  0.6197496E+000  0.1000000E+03  0.7546771E-02  0.1280296E+00
         21   -1    0    0  503  502  0.00000000000E+00  0.00000000000E+00  0.47644149145E+03  0.47644149145E+03  0.00000000000E+00 0.  1.
         21   -1    0    0  501  503 -0.00000000000E+00 -0.00000000000E+00 -0.20031065356E+03  0.20031065356E+03  0.00000000000E+00 0.  1.
          6    1    1    2  501    0  0.16978367180E+03 -0.42840036894E+02 -0.66398391007E+02  0.25495001530E+03  0.17300000000E+03 0.  1.
         -6    1    1    2    0  502 -0.16978367180E+03  0.42840036894E+02  0.34252922890E+03  0.42180212970E+03  0.17300000000E+03 0.  1.
</event>
<event>
 4    1  0.6197496E+000  0.1000000E+03  0.7546771E-02  0.1280296E+00
         21   -1    0    0  501  502  0.00000000000E+00  0.00000000000E+00  0.19551424054E+03  0.19551424054E+03  0.00000000000E+00 0.  1.
         21   -1    0    0  502  503 -0.00000000000E+00 -0.00000000000E+00 -0.20389582567E+03  0.20389582567E+03  0.00000000000E+00 0.  1.
          6    1    1    2  501    0 -0.21095201256E+02 -0.25245757821E+01  0.93217291551E+02  0.19766093302E+03  0.17300000000E+03 0.  1.
         -6    1    1    2    0  503  0.21095201256E+02  0.25245757821E+01 -0.10159887668E+03  0.20174913319E+03  0.17300000000E+03 0.  1.
</event>
<event>
 4    1  0.6197496E+000  0.1000000E+03  0.7546771E-02  0.1280296E+00
         21   -1    0    0  503  502  0.00000000000E+00  0.00000000000E+00  0.24632374289E+03  0.24632374289E+03  0.00000000000E+00 0. -1.
         21   -1    0    0  501  503 -0.00000000000E+00 -0.00000000000E+00 -0.25576076049E+03  0.25576076049E+03  0.00000000000E+00 0.  1.
          6    1    1    2  501    0  0.24150684006E+00 -0.62860633424E+02 -0.17539282181E+03  0.25425019076E+03  0.17300000000E+03 0. -1.
         -6    1    1    2    0  502 -0.24150684006E+00  0.62860633424E+02  0.16595580421E+03  0.24783431262E+03  0.17300000000E+03 0. -1.
</event>
<event>
 4    1  0.6197496E+000  0.1000000E+03  0.7546771E-02  0.1280296E+00
         21   -1    0    0  503  502  0.00000000000E+00  0.00000000000E+00  0.13655707579E+03  0.13655707579E+03  0.00000000000E+00 0. -1.
         21   -1    0    0  501  503 -0.00000000000E+00 -0.00000000000E+00 -0.26289786702E+03  0.26289786702E+03  0.00000000000E+00 0. -1.
          6    1    1    2  501    0 -0.18736716083E+02 -0.73045899986E+02 -0.45381292663E+02  0.19410108129E+03  0.17300000000E+03 0. -1.
         -6    1    1    2    0  502  0.18736716083E+02  0.73045899986E+02 -0.80959498561E+02  0.20535386152E+03  0.17300000000E+03 0. -1.
</event>
<event>
 4    1  0.6197496E+000  0.1000000E+03  0.7546771E-02  0.1280296E+00
         21   -1    0    0  503  502  0.00000000000E+00  0.00000000000E+00  0.58867360893E+03  0.58867360893E+03  0.00000000000E+00 0. -1.
         21   -1    0    0  501  503 -0.00000000000E+00 -0.00000000000E+00 -0.23461913686E+03  0.23461913686E+03  0.00000000000E+00 0. -1.
          6    1    1    2  501    0 -0.32643873964E+03 -0.17826953324E+02  0.13701270724E+03  0.39443824986E+03  0.17300000000E+03 0. -1.
         -6    1    1    2    0  502  0.32643873964E+03  0.17826953324E+02  0.21704176483E+03  0.42885449594E+03  0.17300000000E+03 0. -1.
</event>
<event>
 4    1  0.6197496E+000  0.1000000E+03  0.7546771E-02  0.1280296E+00
         21   -1    0    0  503  502  0.00000000000E+00  0.00000000000E+00  0.55020449493E+03  0.55020449493E+03  0.00000000000E+00 0. -1.
         21   -1    0    0  501  503 -0.00000000000E+00 -0.00000000000E+00 -0.28723619670E+03  0.28723619670E+03  0.00000000000E+00 0.  1.
          6    1    1    2  501    0 -0.14543285977E+03  0.11338688241E+03 -0.19162007479E+03  0.31726102009E+03  0.17300000000E+03 0. -1.
         -6    1    1    2    0  502  0.14543285977E+03 -0.11338688241E+03  0.45458837302E+03  0.52017967154E+03  0.17300000000E+03 0.  1.
</event>
<event>
 4    1  0.6197496E+000  0.1000000E+03  0.7546771E-02  0.1280296E+00
         21   -1    0    0  503  502  0.00000000000E+00  0.00000000000E+00  0.12199806279E+03  0.12199806279E+03  0.00000000000E+00 0. -1.
         21   -1    0    0  501  503 -0.00000000000E+00 -0.00000000000E+00 -0.41520519481E+03  0.41520519481E+03  0.00000000000E+00 0.  1.
          6    1    1    2  501    0  0.20712378123E+02 -0.11530448709E+03 -0.46745306967E+02  0.21409869471E+03  0.17300000000E+03 0. -1.
         -6    1    1    2    0  502 -0.20712378123E+02  0.11530448709E+03 -0.24646182506E+03  0.32310456289E+03  0.17300000000E+03 0.  1.
</event>
<event>
 4    1  0.6197496E+000  0.1000000E+03  0.7546771E-02  0.1280296E+00
         21   -1    0    0  501  502  0.00000000000E+00  0.00000000000E+00  0.19386270156E+03  0.19386270156E+03  0.00000000000E+00 0. -1.
         21   -1    0    0  502  503 -0.00000000000E+00 -0.00000000000E+00 -0.16694060190E+03  0.16694060190E+03  0.00000000000E+00 0. -1.
          6    1    1    2  501    0  0.30739891572E+02 -0.40227043312E+01 -0.25031580422E+02  0.17752944292E+03  0.17300000000E+03 0. -1.
         -6    1    1    2    0  503 -0.30739891572E+02  0.40227043312E+01  0.51953680086E+02  0.18327386054E+03  0.17300000000E+03 0. -1.
</event>
<event>
 4    1  0.6197496E+000  0.1000000E+03  0.7546771E-02  0.1280296E+00
         21   -1    0    0  501  502  0.00000000000E+00  0.00000000000E+00  0.78849333674E+02  0.78849333674E+02  0.00000000000E+00 0. -1.
         21   -1    0    0  502  503 -0.00000000000E+00 -0.00000000000E+00 -0.67430784524E+03  0.67430784524E+03  0.00000000000E+00 0. -1.
          6    1    1    2  501    0  0.10667714516E+03  0.17486654402E+02 -0.12218269275E+03  0.23778857582E+03  0.17300000000E+03 0. -1.
         -6    1    1    2    0  503 -0.10667714516E+03 -0.17486654402E+02 -0.47327581881E+03  0.51536860309E+03  0.17300000000E+03 0. -1.
</event>
<event>
 4    1  0.6197496E+000  0.1000000E+03  0.7546771E-02  0.1280296E+00
         21   -1    0    0  501  502  0.00000000000E+00  0.00000000000E+00  0.91881406502E+02  0.91881406502E+02  0.00000000000E+00 0. -1.
         21   -1    0    0  502  503 -0.00000000000E+00 -0.00000000000E+00 -0.60231588738E+03  0.60231588738E+03  0.00000000000E+00 0. -1.
          6    1    1    2  501    0  0.10126648305E+03 -0.88150694883E+02 -0.12840346268E+03  0.25385408176E+03  0.17300000000E+03 0. -1.
         -6    1    1    2    0  503 -0.10126648305E+03  0.88150694883E+02 -0.38203101819E+03  0.44034321212E+03  0.17300000000E+03 0. -1.
</event>
<event>
 4    1  0.6197496E+000  0.1000000E+03  0.7546771E-02  0.1280296E+00
         21   -1    0    0  501  502  0.00000000000E+00  0.00000000000E+00  0.20042671707E+03  0.20042671707E+03  0.00000000000E+00 0. -1.
         21   -1    0    0  502  503 -0.00000000000E+00 -0.00000000000E+00 -0.76345763335E+03  0.76345763335E+03  0.00000000000E+00 0. -1.
          6    1    1    2  501    0  0.39868998392E+02 -0.15367844592E+03  0.10394108274E+03  0.25678658543E+03  0.17300000000E+03 0. -1.
         -6    1    1    2    0  503 -0.39868998392E+02  0.15367844592E+03 -0.66697199902E+03  0.70709776499E+03  0.17300000000E+03 0. -1.
</event>
<event>
 4    1  0.6197496E+000  0.1000000E+03  0.7546771E-02  0.1280296E+00
         21   -1    0    0  501  502  0.00000000000E+00  0.00000000000E+00  0.49547459460E+03  0.49547459460E+03  0.00000000000E+00 0. -1.
         21   -1    0    0  502  503 -0.00000000000E+00 -0.00000000000E+00 -0.30646160988E+03  0.30646160988E+03  0.00000000000E+00 0. -1.
          6    1    1    2  501    0 -0.38105072061E+02 -0.73961789661E+02  0.44344269884E+03  0.48321089599E+03  0.17300000000E+03 0. -1.
         -6    1    1    2    0  503  0.38105072061E+02  0.73961789661E+02 -0.25442971411E+03  0.31872530849E+03  0.17300000000E+03 0. -1.
</event>
<event>
 4    1  0.6197496E+000  0.1000000E+03  0.7546771E-02  0.1280296E+00
         21   -1    0    0  503  502  0.00000000000E+00  0.00000000000E+00  0.59183457697E+02  0.59183457697E+02  0.00000000000E+00 0.  1.
         21   -1    0    0  501  503 -0.00000000000E+00 -0.00000000000E+00 -0.11852095151E+04  0.11852095151E+04  0.00000000000E+00 0. -1.
          6    1    1    2  501    0 -0.16412567997E+02 -0.50305861313E+02 -0.10174325936E+04  0.10333915689E+04  0.17300000000E+03 0. -1.
         -6    1    1    2    0  502  0.16412567997E+02  0.50305861313E+02 -0.10859346374E+03  0.21100140388E+03  0.17300000000E+03 0.  1.
</event>
<event>
 4    1  0.6197496E+000  0.1000000E+03  0.7546771E-02  0.1280296E+00
         21   -1    0    0  503  502  0.00000000000E+00  0.00000000000E+00  0.94254444993E+02  0.94254444993E+02  0.00000000000E+00 0.  1.
         21   -1    0    0  501  503 -0.00000000000E+00 -0.00000000000E+00 -0.34991333348E+03  0.34991333348E+03  0.00000000000E+00 0. -1.
          6    1    1    2  501    0  0.34074923541E+02  0.33998732328E+02 -0.16098008927E+03  0.24116509564E+03  0.17300000000E+03 0. -1.
         -6    1    1    2    0  502 -0.34074923541E+02 -0.33998732328E+02 -0.94678799210E+02  0.20300268282E+03  0.17300000000E+03 0.  1.
</event>
<event>
 4    1  0.6197496E+000  0.1000000E+03  0.7546771E-02  0.1280296E+00
         21   -1    0    0  501  502  0.00000000000E+00  0.00000000000E+00  0.16279679723E+04  0.16279679723E+04  0.00000000000E+00 0.  1.
         21   -1    0    0  502  503 -0.00000000000E+00 -0.00000000000E+00 -0.27211952349E+02  0.27211952349E+02  0.00000000000E+00 0. -1.
          6    1    1    2  501    0 -0.10594072759E+03 -0.46928960843E+02  0.67947830738E+03  0.71066555800E+03  0.17300000000E+03 0. -1.
         -6    1    1    2    0  503  0.10594072759E+03  0.46928960843E+02  0.92127771258E+03  0.94451436666E+03  0.17300000000E+03 0.  1.
</event>
<event>
 4    1  0.6197496E+000  0.1000000E+03  0.7546771E-02  0.1280296E+00
         21   -1    0    0  501  502  0.00000000000E+00  0.00000000000E+00  0.61976647664E+02  0.61976647664E+02  0.00000000000E+00 0.  1.
         21   -1    0    0  502  503 -0.00000000000E+00 -0.00000000000E+00 -0.28109007109E+04  0.28109007109E+04  0.00000000000E+00 0. -1.
          6    1    1    2  501    0 -0.17951116214E+03  0.74575196892E+02 -0.25136857549E+03  0.36180226377E+03  0.17300000000E+03 0. -1.
         -6    1    1    2    0  503  0.17951116214E+03 -0.74575196892E+02 -0.24975554878E+04  0.25110750948E+04  0.17300000000E+03 0.  1.
</event>
<event>
 4    1  0.6197496E+000  0.1000000E+03  0.7546771E-02  0.1280296E+00
         21   -1    0    0  501  502  0.00000000000E+00  0.00000000000E+00  0.73764870500E+03  0.73764870500E+03  0.00000000000E+00 0.  1.
         21   -1    0    0  502  503 -0.00000000000E+00 -0.00000000000E+00 -0.17454508412E+03  0.17454508412E+03  0.00000000000E+00 0. -1.
          6    1    1    2  501    0 -0.29205677893E+03 -0.11062900821E+02  0.13438757152E+03  0.36525137819E+03  0.17300000000E+03 0. -1.
         -6    1    1    2    0  503  0.29205677893E+03  0.11062900821E+02  0.42871604936E+03  0.54694241093E+03  0.17300000000E+03 0.  1.
</event>
<event>
 4    1  0.6197496E+000  0.1000000E+03  0.7546771E-02  0.1280296E+00
         21   -1    0    0  501  502  0.00000000000E+00  0.00000000000E+00  0.68747274237E+03  0.68747274237E+03  0.00000000000E+00 0.  1.
         21   -1    0    0  502  503 -0.00000000000E+00 -0.00000000000E+00 -0.76663460110E+02  0.76663460110E+02  0.00000000000E+00 0. -1.
          6    1    1    2  501    0  0.61301192699E+02 -0.13728880827E+03  0.32703901189E+03  0.39936145082E+03  0.17300000000E+03 0.  1.
         -6    1    1    2    0  503 -0.61301192699E+02  0.13728880827E+03  0.28377027037E+03  0.36477475166E+03  0.17300000000E+03 0.  1.
</event>
<event>
 4    1  0.6197496E+000  0.1000000E+03  0.7546771E-02  0.1280296E+00
         21   -1    0    0  501  502  0.00000000000E+00  0.00000000000E+00  0.19833707078E+03  0.19833707078E+03  0.00000000000E+00 0.  1.
         21   -1    0    0  502  503 -0.00000000000E+00 -0.00000000000E+00 -0.19506891728E+03  0.19506891728E+03  0.00000000000E+00 0. -1.
          6    1    1    2  501    0  0.34591017311E+02 -0.63811455282E+02  0.60728901847E+02  0.19719391427E+03  0.17300000000E+03 0.  1.
         -6    1    1    2    0  503 -0.34591017311E+02  0.63811455282E+02 -0.57460748347E+02  0.19621207380E+03  0.17300000000E+03 0.  1.
</event>
<event>
 4    1  0.6197496E+000  0.1000000E+03  0.7546771E-02  0.1280296E+00
         21   -1    0    0  501  502  0.00000000000E+00  0.00000000000E+00  0.16886724693E+03  0.16886724693E+03  0.00000000000E+00 0. -1.
         21   -1    0    0  502  503 -0.00000000000E+00 -0.00000000000E+00 -0.19419202451E+03  0.19419202451E+03  0.00000000000E+00 0. -1.
          6    1    1    2  501    0  0.37738322016E+02 -0.37902066001E+02 -0.10947949837E+02  0.18141004702E+03  0.17300000000E+03 0. -1.
         -6    1    1    2    0  503 -0.37738322016E+02  0.37902066001E+02 -0.14376827746E+02  0.18164922442E+03  0.17300000000E+03 0. -1.
</event>
<event>
 4    1  0.6197496E+000  0.1000000E+03  0.7546771E-02  0.1280296E+00
         21   -1    0    0  501  502  0.00000000000E+00  0.00000000000E+00  0.13650289043E+04  0.13650289043E+04  0.00000000000E+00 0. -1.
         21   -1    0    0  502  503 -0.00000000000E+00 -0.00000000000E+00 -0.41847886070E+02  0.41847886070E+02  0.00000000000E+00 0. -1.
          6    1    1    2  501    0  0.10218010207E+02  0.12116083770E+03  0.98946534328E+03  0.10118077989E+04  0.17300000000E+03 0. -1.
         -6    1    1    2    0  503 -0.10218010207E+02 -0.12116083770E+03  0.33371567491E+03  0.39506899145E+03  0.17300000000E+03 0. -1.
</event>
<event>
 4    1  0.6197496E+000  0.1000000E+03  0.7546771E-02  0.1280296E+00
         21   -1    0    0  503  502  0.00000000000E+00  0.00000000000E+00  0.32541232322E+03  0.32541232322E+03  0.00000000000E+00 0.  1.
         21   -1    0    0  501  503 -0.00000000000E+00 -0.00000000000E+00 -0.13699768317E+03  0.13699768317E+03  0.00000000000E+00 0.  1.
          6    1    1    2  501    0  0.45205251977E+02 -0.16748213764E+02 -0.27373465429E+02  0.18166541795E+03  0.17300000000E+03 0.  1.
         -6    1    1    2    0  502 -0.45205251977E+02  0.16748213764E+02  0.21578810548E+03  0.28074458844E+03  0.17300000000E+03 0.  1.
</event>
<event>
 4    1  0.6197496E+000  0.1000000E+03  0.7546771E-02  0.1280296E+00
         21   -1    0    0  503  502  0.00000000000E+00  0.00000000000E+00  0.19216196240E+04  0.19216196240E+04  0.00000000000E+00 0.  1.
         21   -1    0    0  501  503 -0.00000000000E+00 -0.00000000000E+00 -0.26519660063E+02  0.26519660063E+02  0.00000000000E+00 0.  1.
          6    1    1    2  501    0 -0.75717159297E+02  0.90022034298E+02  0.58155343853E+03  0.61803758522E+03  0.17300000000E+03 0. -1.
         -6    1    1    2    0  502  0.75717159297E+02 -0.90022034298E+02  0.13135465254E+04  0.13301016988E+04  0.17300000000E+03 0. -1.
</event>
<event>
 4    1  0.6197496E+000  0.1000000E+03  0.7546771E-02  0.1280296E+00
         21   -1    0    0  503  502  0.00000000000E+00  0.00000000000E+00  0.78772948428E+03  0.78772948428E+03  0.00000000000E+00 0.  1.
         21   -1    0    0  501  503 -0.00000000000E+00 -0.00000000000E+00 -0.57003359839E+02  0.57003359839E+02  0.00000000000E+00 0.  1.
          6    1    1    2  501    0  0.76984825795E+02 -0.77582092530E+02  0.25567223031E+03  0.32747966935E+03  0.17300000000E+03 0. -1.
         -6    1    1    2    0  502 -0.76984825795E+02  0.77582092530E+02  0.47505389413E+03  0.51725317477E+03  0.17300000000E+03 0. -1.
</event>
<event>
 4    1  0.6197496E+000  0.1000000E+03  0.7546771E-02  0.1280296E+00
         21   -1    0    0  503  502  0.00000000000E+00  0.00000000000E+00  0.66662575458E+02  0.66662575458E+02  0.00000000000E+00 0.  1.
         21   -1    0    0  501  503 -0.00000000000E+00 -0.00000000000E+00 -0.90046643598E+03  0.90046643598E+03  0.00000000000E+00 0.  1.
          6    1    1    2  501    0  0.10859033058E+02  0.56466332171E+02 -0.73996145552E+03  0.76208813199E+03  0.17300000000E+03 0. -1.
         -6    1    1    2    0  502 -0.10859033058E+02 -0.56466332171E+02 -0.93842405005E+02  0.20504087945E+03  0.17300000000E+03 0. -1.
</event>
<event>
 4    1  0.6197496E+000  0.1000000E+03  0.7546771E-02  0.1280296E+00
         21   -1    0    0  503  502  0.00000000000E+00  0.00000000000E+00  0.40752072140E+03  0.40752072140E+03  0.00000000000E+00 0.  1.
         21   -1    0    0  501  503 -0.00000000000E+00 -0.00000000000E+00 -0.11320692380E+03  0.11320692380E+03  0.00000000000E+00 0.  1.
          6    1    1    2  501    0 -0.58732879553E+01  0.12713375709E+03  0.14379768834E+03  0.25846520632E+03  0.17300000000E+03 0. -1.
         -6    1    1    2    0  502  0.58732879553E+01 -0.12713375709E+03  0.15051610925E+03  0.26226243888E+03  0.17300000000E+03 0. -1.
</event>
<event>
 4    1  0.6197496E+000  0.1000000E+03  0.7546771E-02  0.1280296E+00
         21   -1    0    0  503  502  0.00000000000E+00  0.00000000000E+00  0.25257111178E+03  0.25257111178E+03  0.00000000000E+00 0.  1.
         21   -1    0    0  501  503 -0.00000000000E+00 -0.00000000000E+00 -0.50038726991E+03  0.50038726991E+03  0.00000000000E+00 0.  1.
          6    1    1    2  501    0 -0.12473841644E+03  0.53220140337E+02 -0.41978883558E+03  0.47386044607E+03  0.17300000000E+03 0. -1.
         -6    1    1    2    0  502  0.12473841644E+03 -0.53220140337E+02  0.17197267745E+03  0.27909793561E+03  0.17300000000E+03 0. -1.
</event>
<event>
 4    1  0.6197496E+000  0.1000000E+03  0.7546771E-02  0.1280296E+00
         21   -1    0    0  503  502  0.00000000000E+00  0.00000000000E+00  0.74414930579E+03  0.74414930579E+03  0.00000000000E+00 0.  1.
         21   -1    0    0  501  503 -0.00000000000E+00 -0.00000000000E+00 -0.28444708727E+03  0.28444708727E+03  0.00000000000E+00 0.  1.
          6    1    1    2  501    0  0.36293236739E+01 -0.12691987237E+03 -0.22507511047E+03  0.31098172188E+03  0.17300000000E+03 0.  1.
         -6    1    1    2    0  502 -0.36293236739E+01  0.12691987237E+03  0.68477732898E+03  0.71761467117E+03  0.17300000000E+03 0.  1.
</event>
<event>
 4    1  0.6197496E+000  0.1000000E+03  0.7546771E-02  0.1280296E+00
         21   -1    0    0  503  502  0.00000000000E+00  0.00000000000E+00  0.99454260727E+02  0.99454260727E+02  0.00000000000E+00 0.  1.
         21   -1    0    0  501  503 -0.00000000000E+00 -0.00000000000E+00 -0.10401318388E+04  0.10401318388E+04  0.00000000000E+00 0.  1.
          6    1    1    2  501    0  0.10962221358E+03  0.52883782510E+02 -0.89956944674E+03  0.92410384355E+03  0.17300000000E+03 0.  1.
         -6    1    1    2    0  502 -0.10962221358E+03 -0.52883782510E+02 -0.41108131289E+02  0.21548225593E+03  0.17300000000E+03 0.  1.
</event>
<event>
 4    1  0.6197496E+000  0.1000000E+03  0.7546771E-02  0.1280296E+00
         21   -1    0    0  503  502  0.00000000000E+00  0.00000000000E+00  0.60878524080E+03  0.60878524080E+03  0.00000000000E+00 0.  1.
         21   -1    0    0  501  503 -0.00000000000E+00 -0.00000000000E+00 -0.96892098891E+02  0.96892098891E+02  0.00000000000E+00 0.  1.
          6    1    1    2  501    0 -0.14222522114E+03 -0.93727433852E+02  0.26565244476E+03  0.35987923918E+03  0.17300000000E+03 0.  1.
         -6    1    1    2    0  502  0.14222522114E+03  0.93727433852E+02  0.24624069715E+03  0.34579810051E+03  0.17300000000E+03 0.  1.
</event>
<event>
 4    1  0.6197496E+000  0.1000000E+03  0.7546771E-02  0.1280296E+00
         21   -1    0    0  501  502  0.00000000000E+00  0.00000000000E+00  0.85402756508E+03  0.85402756508E+03  0.00000000000E+00 0. -1.
         21   -1    0    0  502  503 -0.00000000000E+00 -0.00000000000E+00 -0.71105819594E+02  0.71105819594E+02  0.00000000000E+00 0. -1.
          6    1    1    2  501    0 -0.79631331308E+02  0.15238809206E+03  0.45740138186E+03  0.51837081675E+03  0.17300000000E+03 0. -1.
         -6    1    1    2    0  503  0.79631331308E+02 -0.15238809206E+03  0.32552036362E+03  0.40676256792E+03  0.17300000000E+03 0. -1.
</event>
<event>
 4    1  0.6197496E+000  0.1000000E+03  0.7546771E-02  0.1280296E+00
         21   -1    0    0  501  502  0.00000000000E+00  0.00000000000E+00  0.13970758783E+03  0.13970758783E+03  0.00000000000E+00 0. -1.
         21   -1    0    0  502  503 -0.00000000000E+00 -0.00000000000E+00 -0.30352074120E+03  0.30352074120E+03  0.00000000000E+00 0. -1.
          6    1    1    2  501    0 -0.10661581442E+03  0.19669167549E+02 -0.53002166405E+02  0.21093135774E+03  0.17300000000E+03 0. -1.
         -6    1    1    2    0  503  0.10661581442E+03 -0.19669167549E+02 -0.11081098697E+03  0.23229697129E+03  0.17300000000E+03 0. -1.
</event>
<event>
 4    1  0.6197496E+000  0.1000000E+03  0.7546771E-02  0.1280296E+00
         21   -1    0    0  501  502  0.00000000000E+00  0.00000000000E+00  0.68569905975E+03  0.68569905975E+03  0.00000000000E+00 0. -1.
         21   -1    0    0  502  503 -0.00000000000E+00 -0.00000000000E+00 -0.12515987041E+03  0.12515987041E+03  0.00000000000E+00 0. -1.
          6    1    1    2  501    0  0.21166556429E+03 -0.72166970459E+02  0.38641506783E+03  0.47880683723E+03  0.17300000000E+03 0. -1.
         -6    1    1    2    0  503 -0.21166556429E+03  0.72166970459E+02  0.17412412151E+03  0.33205209293E+03  0.17300000000E+03 0. -1.
</event>
<event>
 4    1  0.6197496E+000  0.1000000E+03  0.7546771E-02  0.1280296E+00
         21   -1    0    0  501  502  0.00000000000E+00  0.00000000000E+00  0.11254275281E+03  0.11254275281E+03  0.00000000000E+00 0. -1.
         21   -1    0    0  502  503 -0.00000000000E+00 -0.00000000000E+00 -0.52548928504E+03  0.52548928504E+03  0.00000000000E+00 0.  1.
          6    1    1    2  501    0 -0.25317982580E+02 -0.64966225359E+02 -0.17741704516E+01  0.18653085096E+03  0.17300000000E+03 0.  1.
         -6    1    1    2    0  503  0.25317982580E+02  0.64966225359E+02 -0.41117236177E+03  0.45150118689E+03  0.17300000000E+03 0.  1.
</event>
<event>
 4    1  0.6197496E+000  0.1000000E+03  0.7546771E-02  0.1280296E+00
         21   -1    0    0  501  502  0.00000000000E+00  0.00000000000E+00  0.31782086911E+02  0.31782086911E+02  0.00000000000E+00 0. -1.
         21   -1    0    0  502  503 -0.00000000000E+00 -0.00000000000E+00 -0.19250605038E+04  0.19250605038E+04  0.00000000000E+00 0.  1.
          6    1    1    2  501    0 -0.84446785464E+02 -0.22336789426E+02 -0.33866898623E+03  0.39019978725E+03  0.17300000000E+03 0.  1.
         -6    1    1    2    0  503  0.84446785464E+02  0.22336789426E+02 -0.15546094306E+04  0.15666428034E+04  0.17300000000E+03 0.  1.
</event>
<event>
 4    1  0.6197496E+000  0.1000000E+03  0.7546771E-02  0.1280296E+00
         21   -1    0    0  501  502  0.00000000000E+00  0.00000000000E+00  0.31679372007E+02  0.31679372007E+02  0.00000000000E+00 0.  1.
         21   -1    0    0  502  503 -0.00000000000E+00 -0.00000000000E+00 -0.18565372373E+04  0.18565372373E+04  0.00000000000E+00 0.  1.
          6    1    1    2  501    0 -0.11763349332E+03  0.12543712894E+02 -0.43739095890E+03  0.48501013847E+03  0.17300000000E+03 0.  1.
         -6    1    1    2    0  503  0.11763349332E+03 -0.12543712894E+02 -0.13874669064E+04  0.14032064709E+04  0.17300000000E+03 0.  1.
</event>
<event>
 4    1  0.6197496E+000  0.1000000E+03  0.7546771E-02  0.1280296E+00
         21   -1    0    0  503  502  0.00000000000E+00  0.00000000000E+00  0.93584475150E+02  0.93584475150E+02  0.00000000000E+00 0.  1.
         21   -1    0    0  501  503 -0.00000000000E+00 -0.00000000000E+00 -0.42766380264E+03  0.42766380264E+03  0.00000000000E+00 0. -1.
          6    1    1    2  501    0 -0.37840318103E+02 -0.69457501081E+02 -0.24774148306E+03  0.31234768537E+03  0.17300000000E+03 0. -1.
         -6    1    1    2    0  502  0.37840318103E+02  0.69457501081E+02 -0.86337844432E+02  0.20890059242E+03  0.17300000000E+03 0.  1.
</event>
<event>
 4    1  0.6197496E+000  0.1000000E+03  0.7546771E-02  0.1280296E+00
         21   -1    0    0  503  502  0.00000000000E+00  0.00000000000E+00  0.21215098431E+03  0.21215098431E+03  0.00000000000E+00 0.  1.
         21   -1    0    0  501  503 -0.00000000000E+00 -0.00000000000E+00 -0.42941543996E+03  0.42941543996E+03  0.00000000000E+00 0. -1.
          6    1    1    2  501    0  0.38465288301E+01 -0.14562777779E+02 -0.37100541714E+03  0.40963506909E+03  0.17300000000E+03 0. -1.
         -6    1    1    2    0  502 -0.38465288301E+01  0.14562777779E+02  0.15374096148E+03  0.23193135518E+03  0.17300000000E+03 0.  1.
</event>
<event>
 4    1  0.6197496E+000  0.1000000E+03  0.7546771E-02  0.1280296E+00
         21   -1    0    0  503  502  0.00000000000E+00  0.00000000000E+00  0.80422833130E+02  0.80422833130E+02  0.00000000000E+00 0. -1.
         21   -1    0    0  501  503 -0.00000000000E+00 -0.00000000000E+00 -0.10112798546E+04  0.10112798546E+04  0.00000000000E+00 0. -1.
          6    1    1    2  501    0 -0.20831298720E+03  0.83102712392E+02 -0.40192911295E+03  0.49170760954E+03  0.17300000000E+03 0. -1.
         -6    1    1    2    0  502  0.20831298720E+03 -0.83102712392E+02 -0.52892790853E+03  0.59999507820E+03  0.17300000000E+03 0. -1.
</event>
<event>
 4    1  0.6197496E+000  0.1000000E+03  0.7546771E-02  0.1280296E+00
         21   -1    0    0  503  502  0.00000000000E+00  0.00000000000E+00  0.32251585978E+03  0.32251585978E+03  0.00000000000E+00 0. -1.
         21   -1    0    0  501  503 -0.00000000000E+00 -0.00000000000E+00 -0.27491718465E+03  0.27491718465E+03  0.00000000000E+00 0. -1.
          6    1    1    2  501    0  0.54769100777E+02 -0.23478882314E+03 -0.99194321719E+00  0.29674135172E+03  0.17300000000E+03 0. -1.
         -6    1    1    2    0  502 -0.54769100777E+02  0.23478882314E+03  0.48590618341E+02  0.30069169270E+03  0.17300000000E+03 0. -1.
</event>
<event>
 4    1  0.6197496E+000  0.1000000E+03  0.7546771E-02  0.1280296E+00
         21   -1    0    0  503  502  0.00000000000E+00  0.00000000000E+00  0.25211614041E+03  0.25211614041E+03  0.00000000000E+00 0.  1.
         21   -1    0    0  501  503 -0.00000000000E+00 -0.00000000000E+00 -0.19131642335E+03  0.19131642335E+03  0.00000000000E+00 0.  1.
          6    1    1    2  501    0 -0.42576780778E+02 -0.28017232399E+02 -0.96123487839E+02  0.20436847234E+03  0.17300000000E+03 0.  1.
         -6    1    1    2    0  502  0.42576780778E+02  0.28017232399E+02  0.15692320490E+03  0.23906409142E+03  0.17300000000E+03 0.  1.
</event>
<event>
 4    1  0.6197496E+000  0.1000000E+03  0.7546771E-02  0.1280296E+00
         21   -1    0    0  501  502  0.00000000000E+00  0.00000000000E+00  0.69741012227E+02  0.69741012227E+02  0.00000000000E+00 0. -1.
         21   -1    0    0  502  503 -0.00000000000E+00 -0.00000000000E+00 -0.99651902482E+03  0.99651902482E+03  0.00000000000E+00 0. -1.
          6    1    1    2  501    0 -0.60483906878E+02  0.45000526618E+02 -0.91121013752E+02  0.20955999030E+03  0.17300000000E+03 0. -1.
         -6    1    1    2    0  503  0.60483906878E+02 -0.45000526618E+02 -0.83565699884E+03  0.85670004675E+03  0.17300000000E+03 0. -1.
</event>
<event>
 4    1  0.6197496E+000  0.1000000E+03  0.7546771E-02  0.1280296E+00
         21   -1    0    0  501  502  0.00000000000E+00  0.00000000000E+00  0.67339360218E+03  0.67339360218E+03  0.00000000000E+00 0. -1.
         21   -1    0    0  502  503 -0.00000000000E+00 -0.00000000000E+00 -0.27311567062E+03  0.27311567062E+03  0.00000000000E+00 0. -1.
          6    1    1    2  501    0  0.15302829141E+03  0.56182736794E+02  0.59404338771E+03  0.63983646689E+03  0.17300000000E+03 0. -1.
         -6    1    1    2    0  503 -0.15302829141E+03 -0.56182736794E+02 -0.19376545615E+03  0.30667280590E+03  0.17300000000E+03 0. -1.
</event>
<event>
 4    1  0.6197496E+000  0.1000000E+03  0.7546771E-02  0.1280296E+00
         21   -1    0    0  503  502  0.00000000000E+00  0.00000000000E+00  0.33029147619E+03  0.33029147619E+03  0.00000000000E+00 0.  1.
         21   -1    0    0  501  503 -0.00000000000E+00 -0.00000000000E+00 -0.21839134952E+03  0.21839134952E+03  0.00000000000E+00 0. -1.
          6    1    1    2  501    0  0.19291539784E+03  0.40746950014E+02  0.11486973052E+03  0.28635767783E+03  0.17300000000E+03 0. -1.
         -6    1    1    2    0  502 -0.19291539784E+03 -0.40746950014E+02 -0.29696038536E+01  0.26232514788E+03  0.17300000000E+03 0.  1.
</event>
<event>
 4    1  0.6197496E+000  0.1000000E+03  0.7546771E-02  0.1280296E+00
         21   -1    0    0  503  502  0.00000000000E+00  0.00000000000E+00  0.33544612524E+03  0.33544612524E+03  0.00000000000E+00 0. -1.
         21   -1    0    0  501  503 -0.00000000000E+00 -0.00000000000E+00 -0.12171956778E+03  0.12171956778E+03  0.00000000000E+00 0. -1.
          6    1    1    2  501    0  0.54385775000E+02 -0.74538681447E+02  0.51588571793E+02  0.20274172805E+03  0.17300000000E+03 0. -1.
         -6    1    1    2    0  502 -0.54385775000E+02  0.74538681447E+02  0.16213798567E+03  0.25442396497E+03  0.17300000000E+03 0. -1.
</event>
<event>
 4    1  0.6197496E+000  0.1000000E+03  0.7546771E-02  0.1280296E+00
         21   -1    0    0  503  502  0.00000000000E+00  0.00000000000E+00  0.42463027105E+03  0.42463027105E+03  0.00000000000E+00 0. -1.
         21   -1    0    0  501  503 -0.00000000000E+00 -0.00000000000E+00 -0.97806155192E+02  0.97806155192E+02  0.00000000000E+00 0. -1.
          6    1    1    2  501    0 -0.75055827672E+02  0.21034966829E+02  0.68122748321E+02  0.20160743026E+03  0.17300000000E+03 0. -1.
         -6    1    1    2    0  502  0.75055827672E+02 -0.21034966829E+02  0.25870136753E+03  0.32082899598E+03  0.17300000000E+03 0. -1.
</event>
<event>
 4    1  0.6197496E+000  0.1000000E+03  0.7546771E-02  0.1280296E+00
         21   -1    0    0  503  502  0.00000000000E+00  0.00000000000E+00  0.50905753829E+02  0.50905753829E+02  0.00000000000E+00 0. -1.
         21   -1    0    0  501  503 -0.00000000000E+00 -0.00000000000E+00 -0.74998754016E+03  0.74998754016E+03  0.00000000000E+00 0. -1.
          6    1    1    2  501    0  0.61907954342E+02  0.56377923315E+02 -0.42166867092E+03  0.46340536584E+03  0.17300000000E+03 0. -1.
         -6    1    1    2    0  502 -0.61907954342E+02 -0.56377923315E+02 -0.27741311541E+03  0.33748792815E+03  0.17300000000E+03 0. -1.
</event>
<event>
 4    1  0.6197496E+000  0.1000000E+03  0.7546771E-02  0.1280296E+00
         21   -1    0    0  501  502  0.00000000000E+00  0.00000000000E+00  0.80557857474E+02  0.80557857474E+02  0.00000000000E+00 0.  1.
         21   -1    0    0  502  503 -0.00000000000E+00 -0.00000000000E+00 -0.71852857595E+03  0.71852857595E+03  0.00000000000E+00 0. -1.
          6    1    1    2  501    0 -0.13058621188E+03  0.89248128985E+02 -0.40897154045E+03  0.47138594396E+03  0.17300000000E+03 0.  1.
         -6    1    1    2    0  503  0.13058621188E+03 -0.89248128985E+02 -0.22899917803E+03  0.32770048947E+03  0.17300000000E+03 0. -1.
</event>
<event>
 4    1  0.6197496E+000  0.1000000E+03  0.7546771E-02  0.1280296E+00
         21   -1    0    0  503  502  0.00000000000E+00  0.00000000000E+00  0.70675461228E+03  0.70675461228E+03  0.00000000000E+00 0.  1.
         21   -1    0    0  501  503 -0.00000000000E+00 -0.00000000000E+00 -0.92356607750E+02  0.92356607750E+02  0.00000000000E+00 0.  1.
          6    1    1    2  501    0  0.66601279220E+02  0.13054692782E+02  0.33010736260E+02  0.18874550089E+03  0.17300000000E+03 0.  1.
         -6    1    1    2    0  502 -0.66601279220E+02 -0.13054692782E+02  0.58138726827E+03  0.61036571914E+03  0.17300000000E+03 0.  1.
</event>
<event>
 4    1  0.6197496E+000  0.1000000E+03  0.7546771E-02  0.1280296E+00
         21   -1    0    0  503  502  0.00000000000E+00  0.00000000000E+00  0.52231320533E+03  0.52231320533E+03  0.00000000000E+00 0.  1.
         21   -1    0    0  501  503 -0.00000000000E+00 -0.00000000000E+00 -0.10722673454E+03  0.10722673454E+03  0.00000000000E+00 0.  1.
          6    1    1    2  501    0  0.73494425364E+02  0.37878042803E+02  0.39203942091E+03  0.43641732806E+03  0.17300000000E+03 0.  1.
         -6    1    1    2    0  502 -0.73494425364E+02 -0.37878042803E+02  0.23047049881E+02  0.19312261182E+03  0.17300000000E+03 0.  1.
</event>
<event>
 4    1  0.6197496E+000  0.1000000E+03  0.7546771E-02  0.1280296E+00
         21   -1    0    0  503  502  0.00000000000E+00  0.00000000000E+00  0.51565424107E+02  0.51565424107E+02  0.00000000000E+00 0.  1.
         21   -1    0    0  501  503 -0.00000000000E+00 -0.00000000000E+00 -0.14562499696E+04  0.14562499696E+04  0.00000000000E+00 0.  1.
          6    1    1    2  501    0 -0.54559235908E+02 -0.36942622952E+02 -0.12582034600E+04  0.12717493521E+04  0.17300000000E+03 0.  1.
         -6    1    1    2    0  502  0.54559235908E+02  0.36942622952E+02 -0.14648108540E+03  0.23606604159E+03  0.17300000000E+03 0.  1.
</event>
<event>
 4    1  0.6197496E+000  0.1000000E+03  0.7546771E-02  0.1280296E+00
         21   -1    0    0  503  502  0.00000000000E+00  0.00000000000E+00  0.63952179003E+03  0.63952179003E+03  0.00000000000E+00 0.  1.
         21   -1    0    0  501  503 -0.00000000000E+00 -0.00000000000E+00 -0.30272711513E+03  0.30272711513E+03  0.00000000000E+00 0.  1.
          6    1    1    2  501    0  0.16658558979E+03 -0.34306546321E+03  0.23840411252E+02  0.41945445042E+03  0.17300000000E+03 0.  1.
         -6    1    1    2    0  502 -0.16658558979E+03  0.34306546321E+03  0.31295426364E+03  0.52279445474E+03  0.17300000000E+03 0.  1.
</event>
<event>
 4    1  0.6197496E+000  0.1000000E+03  0.7546771E-02  0.1280296E+00
         21   -1    0    0  503  502  0.00000000000E+00  0.00000000000E+00  0.83437844833E+02  0.83437844833E+02  0.00000000000E+00 0.  1.
         21   -1    0    0  501  503 -0.00000000000E+00 -0.00000000000E+00 -0.70510071201E+03  0.70510071201E+03  0.00000000000E+00 0.  1.
          6    1    1    2  501    0 -0.31953499556E+02 -0.14943014129E+03 -0.43195748438E+03  0.48976184168E+03  0.17300000000E+03 0.  1.
         -6    1    1    2    0  502  0.31953499556E+02  0.14943014129E+03 -0.18970538280E+03  0.29877671516E+03  0.17300000000E+03 0.  1.
</event>
<event>
 4    1  0.6197496E+000  0.1000000E+03  0.7546771E-02  0.1280296E+00
         21   -1    0    0  503  502  0.00000000000E+00  0.00000000000E+00  0.16588556871E+03  0.16588556871E+03  0.00000000000E+00 0.  1.
         21   -1    0    0  501  503 -0.00000000000E+00 -0.00000000000E+00 -0.22805011890E+03  0.22805011890E+03  0.00000000000E+00 0.  1.
          6    1    1    2  501    0 -0.40147076727E+02  0.77548837936E+02 -0.47894539969E+02  0.19962088316E+03  0.17300000000E+03 0.  1.
         -6    1    1    2    0  502  0.40147076727E+02 -0.77548837936E+02 -0.14270010220E+02  0.19431480445E+03  0.17300000000E+03 0.  1.
</event>
<event>
 4    1  0.6197496E+000  0.1000000E+03  0.7546771E-02  0.1280296E+00
         21   -1    0    0  503  502  0.00000000000E+00  0.00000000000E+00  0.24692577823E+03  0.24692577823E+03  0.00000000000E+00 0.  1.
         21   -1    0    0  501  503 -0.00000000000E+00 -0.00000000000E+00 -0.10557430410E+04  0.10557430410E+04  0.00000000000E+00 0. -1.
          6    1    1    2  501    0 -0.16221142725E+03  0.62400783182E+02 -0.97570069082E+03  0.10060453484E+04  0.17300000000E+03 0.  1.
         -6    1    1    2    0  502  0.16221142725E+03 -0.62400783182E+02  0.16688342810E+03  0.29662347083E+03  0.17300000000E+03 0. -1.
</event>
<event>
 4    1  0.6197496E+000  0.1000000E+03  0.7546771E-02  0.1280296E+00
         21   -1    0    0  503  502  0.00000000000E+00  0.00000000000E+00  0.59528178025E+03  0.59528178025E+03  0.00000000000E+00 0.  1.
         21   -1    0    0  501  503 -0.00000000000E+00 -0.00000000000E+00 -0.93522337610E+02  0.93522337610E+02  0.00000000000E+00 0.  1.
          6    1    1    2  501    0 -0.87923706573E+02  0.12833069148E+03  0.19352856813E+03  0.30262460448E+03  0.17300000000E+03 0.  1.
         -6    1    1    2    0  502  0.87923706573E+02 -0.12833069148E+03  0.30823087451E+03  0.38617951338E+03  0.17300000000E+03 0.  1.
</event>
<event>
 4    1  0.6197496E+000  0.1000000E+03  0.7546771E-02  0.1280296E+00
         21   -1    0    0  503  502  0.00000000000E+00  0.00000000000E+00  0.36700829291E+03  0.36700829291E+03  0.00000000000E+00 0.  1.
         21   -1    0    0  501  503 -0.00000000000E+00 -0.00000000000E+00 -0.11903396031E+03  0.11903396031E+03  0.00000000000E+00 0.  1.
          6    1    1    2  501    0 -0.46230978905E+02 -0.67128322474E+02  0.25919551935E+02  0.19298792258E+03  0.17300000000E+03 0.  1.
         -6    1    1    2    0  502  0.46230978905E+02  0.67128322474E+02  0.22205478067E+03  0.29305433064E+03  0.17300000000E+03 0.  1.
</event>
<event>
 4    1  0.6197496E+000  0.1000000E+03  0.7546771E-02  0.1280296E+00
         21   -1    0    0  503  502  0.00000000000E+00  0.00000000000E+00  0.51514618560E+03  0.51514618560E+03  0.00000000000E+00 0.  1.
         21   -1    0    0  501  503 -0.00000000000E+00 -0.00000000000E+00 -0.10991516032E+03  0.10991516032E+03  0.00000000000E+00 0. -1.
          6    1    1    2  501    0 -0.57395945223E+02  0.12176923522E+03  0.32421250235E+03  0.39136273181E+03  0.17300000000E+03 0.  1.
         -6    1    1    2    0  502  0.57395945223E+02 -0.12176923522E+03  0.81018522932E+02  0.23369861410E+03  0.17300000000E+03 0. -1.
</event>
<event>
 4    1  0.6197496E+000  0.1000000E+03  0.7546771E-02  0.1280296E+00
         21   -1    0    0  503  502  0.00000000000E+00  0.00000000000E+00  0.55692474406E+03  0.55692474406E+03  0.00000000000E+00 0.  1.
         21   -1    0    0  501  503 -0.00000000000E+00 -0.00000000000E+00 -0.12958159577E+03  0.12958159577E+03  0.00000000000E+00 0. -1.
          6    1    1    2  501    0  0.12178031307E+03  0.21093589178E+02  0.38610654381E+01  0.21264828234E+03  0.17300000000E+03 0.  1.
         -6    1    1    2    0  502 -0.12178031307E+03 -0.21093589178E+02  0.42348208285E+03  0.47385805749E+03  0.17300000000E+03 0. -1.
</event>
<event>
 4    1  0.6197496E+000  0.1000000E+03  0.7546771E-02  0.1280296E+00
         21   -1    0    0  501  502  0.00000000000E+00  0.00000000000E+00  0.99514149394E+02  0.99514149394E+02  0.00000000000E+00 0. -1.
         21   -1    0    0  502  503 -0.00000000000E+00 -0.00000000000E+00 -0.78450352590E+03  0.78450352590E+03  0.00000000000E+00 0. -1.
          6    1    1    2  501    0  0.10219876495E+03 -0.65322155304E+02 -0.53260003755E+02  0.21789263303E+03  0.17300000000E+03 0. -1.
         -6    1    1    2    0  503 -0.10219876495E+03  0.65322155304E+02 -0.63172937275E+03  0.66612504226E+03  0.17300000000E+03 0. -1.
</event>
<event>
 4    1  0.6197496E+000  0.1000000E+03  0.7546771E-02  0.1280296E+00
         21   -1    0    0  501  502  0.00000000000E+00  0.00000000000E+00  0.15066825441E+03  0.15066825441E+03  0.00000000000E+00 0. -1.
         21   -1    0    0  502  503 -0.00000000000E+00 -0.00000000000E+00 -0.44403051116E+03  0.44403051116E+03  0.00000000000E+00 0. -1.
          6    1    1    2  501    0  0.89655691611E+02 -0.12859890906E+03 -0.18684378858E+02  0.23420915538E+03  0.17300000000E+03 0. -1.
         -6    1    1    2    0  503 -0.89655691611E+02  0.12859890906E+03 -0.27467787790E+03  0.36048961019E+03  0.17300000000E+03 0. -1.
</event>
<event>
 4    1  0.6197496E+000  0.1000000E+03  0.7546771E-02  0.1280296E+00
         21   -1    0    0  501  502  0.00000000000E+00  0.00000000000E+00  0.34198623630E+04  0.34198623630E+04  0.00000000000E+00 0.  1.
         21   -1    0    0  502  503 -0.00000000000E+00 -0.00000000000E+00 -0.49685049612E+02  0.49685049612E+02  0.00000000000E+00 0. -1.
          6    1    1    2  501    0 -0.31599588524E+02  0.12575272657E+03  0.31621090651E+04  0.31694912875E+04  0.17300000000E+03 0.  1.
         -6    1    1    2    0  503  0.31599588524E+02 -0.12575272657E+03  0.20806824824E+03  0.30005612502E+03  0.17300000000E+03 0.  1.
</event>
<event>
 4    1  0.6197496E+000  0.1000000E+03  0.7546771E-02  0.1280296E+00
         21   -1    0    0  501  502  0.00000000000E+00  0.00000000000E+00  0.39593705308E+03  0.39593705308E+03  0.00000000000E+00 0.  1.
         21   -1    0    0  502  503 -0.00000000000E+00 -0.00000000000E+00 -0.10532501179E+03  0.10532501179E+03  0.00000000000E+00 0. -1.
          6    1    1    2  501    0 -0.87484505282E+02  0.42437917663E+02  0.86209064535E+02  0.21636894030E+03  0.17300000000E+03 0.  1.
         -6    1    1    2    0  503  0.87484505282E+02 -0.42437917663E+02  0.20440297675E+03  0.28489312457E+03  0.17300000000E+03 0.  1.
</event>
<event>
 4    1  0.6197496E+000  0.1000000E+03  0.7546771E-02  0.1280296E+00
         21   -1    0    0  501  502  0.00000000000E+00  0.00000000000E+00  0.39142508331E+03  0.39142508331E+03  0.00000000000E+00 0.  1.
         21   -1    0    0  502  503 -0.00000000000E+00 -0.00000000000E+00 -0.37920540513E+03  0.37920540513E+03  0.00000000000E+00 0.  1.
          6    1    1    2  501    0  0.44214479918E+02 -0.42008719670E+02  0.34494714822E+03  0.39068809532E+03  0.17300000000E+03 0.  1.
         -6    1    1    2    0  503 -0.44214479918E+02  0.42008719670E+02 -0.33272747004E+03  0.37994239311E+03  0.17300000000E+03 0.  1.
</event>
<event>
 4    1  0.6197496E+000  0.1000000E+03  0.7546771E-02  0.1280296E+00
         21   -1    0    0  501  502  0.00000000000E+00  0.00000000000E+00  0.13549380540E+03  0.13549380540E+03  0.00000000000E+00 0.  1.
         21   -1    0    0  502  503 -0.00000000000E+00 -0.00000000000E+00 -0.47326597073E+03  0.47326597073E+03  0.00000000000E+00 0. -1.
          6    1    1    2  501    0  0.55990594803E+02 -0.34776475576E+02  0.38789246782E+02  0.18915061624E+03  0.17300000000E+03 0. -1.
         -6    1    1    2    0  503 -0.55990594803E+02  0.34776475576E+02 -0.37656141211E+03  0.41960915988E+03  0.17300000000E+03 0. -1.
</event>
<event>
 4    1  0.6197496E+000  0.1000000E+03  0.7546771E-02  0.1280296E+00
         21   -1    0    0  501  502  0.00000000000E+00  0.00000000000E+00  0.28321243380E+03  0.28321243380E+03  0.00000000000E+00 0.  1.
         21   -1    0    0  502  503 -0.00000000000E+00 -0.00000000000E+00 -0.26485154421E+03  0.26485154421E+03  0.00000000000E+00 0. -1.
          6    1    1    2  501    0  0.20034021323E+03 -0.55540918850E+02 -0.33962860505E+02  0.27258662953E+03  0.17300000000E+03 0. -1.
         -6    1    1    2    0  503 -0.20034021323E+03  0.55540918850E+02  0.52323750103E+02  0.27547734848E+03  0.17300000000E+03 0. -1.
</event>
<event>
 4    1  0.6197496E+000  0.1000000E+03  0.7546771E-02  0.1280296E+00
         21   -1    0    0  501  502  0.00000000000E+00  0.00000000000E+00  0.12168135746E+04  0.12168135746E+04  0.00000000000E+00 0.  1.
         21   -1    0    0  502  503 -0.00000000000E+00 -0.00000000000E+00 -0.78436936770E+02  0.78436936770E+02  0.00000000000E+00 0. -1.
          6    1    1    2  501    0  0.54485293671E+02  0.66675061195E+02  0.10744765729E+04  0.10917156758E+04  0.17300000000E+03 0. -1.
         -6    1    1    2    0  503 -0.54485293671E+02 -0.66675061195E+02  0.63900064956E+02  0.20353483563E+03  0.17300000000E+03 0. -1.
</event>
<event>
 4    1  0.6197496E+000  0.1000000E+03  0.7546771E-02  0.1280296E+00
         21   -1    0    0  503  502  0.00000000000E+00  0.00000000000E+00  0.90130808135E+03  0.90130808135E+03  0.00000000000E+00 0. -1.
         21   -1    0    0  501  503 -0.00000000000E+00 -0.00000000000E+00 -0.39308649890E+02  0.39308649890E+02  0.00000000000E+00 0.  1.
          6    1    1    2  501    0 -0.19875120522E+02  0.71380229879E+02  0.43891930162E+03  0.47756602787E+03  0.17300000000E+03 0. -1.
         -6    1    1    2    0  502  0.19875120522E+02 -0.71380229879E+02  0.42308012984E+03  0.46305070338E+03  0.17300000000E+03 0. -1.
</event>
<event>
 4    1  0.6197496E+000  0.1000000E+03  0.7546771E-02  0.1280296E+00
         21   -1    0    0  503  502  0.00000000000E+00  0.00000000000E+00  0.99413062185E+03  0.99413062185E+03  0.00000000000E+00 0. -1.
         21   -1    0    0  501  503 -0.00000000000E+00 -0.00000000000E+00 -0.11381093222E+03  0.11381093222E+03  0.00000000000E+00 0.  1.
          6    1    1    2  501    0  0.21731230414E+03 -0.18427748971E+03  0.36593675759E+03  0.49499650636E+03  0.17300000000E+03 0. -1.
         -6    1    1    2    0  502 -0.21731230414E+03  0.18427748971E+03  0.51438293204E+03  0.61294504772E+03  0.17300000000E+03 0. -1.
</event>
<event>
 4    1  0.6197496E+000  0.1000000E+03  0.7546771E-02  0.1280296E+00
         21   -1    0    0  503  502  0.00000000000E+00  0.00000000000E+00  0.51727741914E+03  0.51727741914E+03  0.00000000000E+00 0. -1.
         21   -1    0    0  501  503 -0.00000000000E+00 -0.00000000000E+00 -0.13507204851E+03  0.13507204851E+03  0.00000000000E+00 0. -1.
          6    1    1    2  501    0  0.15725529492E+03 -0.10927582398E+03  0.12053615596E+03  0.28483047305E+03  0.17300000000E+03 0. -1.
         -6    1    1    2    0  502 -0.15725529492E+03  0.10927582398E+03  0.26166921466E+03  0.36751899460E+03  0.17300000000E+03 0. -1.
</event>
<event>
 4    1  0.6197496E+000  0.1000000E+03  0.7546771E-02  0.1280296E+00
         21   -1    0    0  503  502  0.00000000000E+00  0.00000000000E+00  0.53061488199E+02  0.53061488199E+02  0.00000000000E+00 0. -1.
         21   -1    0    0  501  503 -0.00000000000E+00 -0.00000000000E+00 -0.92734701601E+03  0.92734701601E+03  0.00000000000E+00 0.  1.
          6    1    1    2  501    0  0.30263281469E+02 -0.53648985557E+02 -0.71212107934E+03  0.73541791622E+03  0.17300000000E+03 0. -1.
         -6    1    1    2    0  502 -0.30263281469E+02  0.53648985557E+02 -0.16216444848E+03  0.24499058800E+03  0.17300000000E+03 0.  1.
</event>
<event>
 4    1  0.6197496E+000  0.1000000E+03  0.7546771E-02  0.1280296E+00
         21   -1    0    0  503  502  0.00000000000E+00  0.00000000000E+00  0.63464846359E+03  0.63464846359E+03  0.00000000000E+00 0. -1.
         21   -1    0    0  501  503 -0.00000000000E+00 -0.00000000000E+00 -0.10870599176E+03  0.10870599176E+03  0.00000000000E+00 0.  1.
          6    1    1    2  501    0  0.90250818812E+01  0.22729194120E+01 -0.16387796386E+02  0.17402349880E+03  0.17300000000E+03 0. -1.
         -6    1    1    2    0  502 -0.90250818812E+01 -0.22729194120E+01  0.54233026822E+03  0.56933095655E+03  0.17300000000E+03 0.  1.
</event>
<event>
 4    1  0.6197496E+000  0.1000000E+03  0.7546771E-02  0.1280296E+00
         21   -1    0    0  503  502  0.00000000000E+00  0.00000000000E+00  0.95868773656E+02  0.95868773656E+02  0.00000000000E+00 0.  1.
         21   -1    0    0  501  503 -0.00000000000E+00 -0.00000000000E+00 -0.14309067030E+04  0.14309067030E+04  0.00000000000E+00 0. -1.
          6    1    1    2  501    0  0.11888187172E+03 -0.20857558759E+03 -0.11266126153E+04  0.11648268799E+04  0.17300000000E+03 0. -1.
         -6    1    1    2    0  502 -0.11888187172E+03  0.20857558759E+03 -0.20842531404E+03  0.36194859676E+03  0.17300000000E+03 0.  1.
</event>
<event>
 4    1  0.6197496E+000  0.1000000E+03  0.7546771E-02  0.1280296E+00
         21   -1    0    0  503  502  0.00000000000E+00  0.00000000000E+00  0.25029222099E+02  0.25029222099E+02  0.00000000000E+00 0.  1.
         21   -1    0    0  501  503 -0.00000000000E+00 -0.00000000000E+00 -0.12534287385E+04  0.12534287385E+04  0.00000000000E+00 0. -1.
          6    1    1    2  501    0 -0.26825664857E+02  0.26475196356E+02 -0.63143005974E+03  0.65578462369E+03  0.17300000000E+03 0. -1.
         -6    1    1    2    0  502  0.26825664857E+02 -0.26475196356E+02 -0.59696945664E+03  0.62267333689E+03  0.17300000000E+03 0.  1.
</event>
<event>
 4    1  0.6197496E+000  0.1000000E+03  0.7546771E-02  0.1280296E+00
         21   -1    0    0  501  502  0.00000000000E+00  0.00000000000E+00  0.68170112420E+03  0.68170112420E+03  0.00000000000E+00 0.  1.
         21   -1    0    0  502  503 -0.00000000000E+00 -0.00000000000E+00 -0.14787243510E+03  0.14787243510E+03  0.00000000000E+00 0.  1.
          6    1    1    2  501    0  0.20068476865E+03 -0.63339479441E+02  0.47994381808E+03  0.55187075891E+03  0.17300000000E+03 0.  1.
         -6    1    1    2    0  503 -0.20068476865E+03  0.63339479441E+02  0.53884871017E+02  0.27770280040E+03  0.17300000000E+03 0.  1.
</event>
<event>
 4    1  0.6197496E+000  0.1000000E+03  0.7546771E-02  0.1280296E+00
         21   -1    0    0  501  502  0.00000000000E+00  0.00000000000E+00  0.13211427584E+04  0.13211427584E+04  0.00000000000E+00 0.  1.
         21   -1    0    0  502  503 -0.00000000000E+00 -0.00000000000E+00 -0.10627246004E+03  0.10627246004E+03  0.00000000000E+00 0.  1.
          6    1    1    2  501    0 -0.17030520361E+03  0.27543819104E+03  0.74999848887E+03  0.83504298857E+03  0.17300000000E+03 0.  1.
         -6    1    1    2    0  503  0.17030520361E+03 -0.27543819104E+03  0.46487180954E+03  0.59237222991E+03  0.17300000000E+03 0.  1.
</event>
<event>
 4    1  0.6197496E+000  0.1000000E+03  0.7546771E-02  0.1280296E+00
         21   -1    0    0  503  502  0.00000000000E+00  0.00000000000E+00  0.14587328471E+04  0.14587328471E+04  0.00000000000E+00 0. -1.
         21   -1    0    0  501  503 -0.00000000000E+00 -0.00000000000E+00 -0.33535027818E+02  0.33535027818E+02  0.00000000000E+00 0.  1.
          6    1    1    2  501    0 -0.26359206822E+02  0.11496867485E+03  0.47222629793E+03  0.51656488502E+03  0.17300000000E+03 0.  1.
         -6    1    1    2    0  502  0.26359206822E+02 -0.11496867485E+03  0.95297152132E+03  0.97570298987E+03  0.17300000000E+03 0. -1.
</event>
<event>
 4    1  0.6197496E+000  0.1000000E+03  0.7546771E-02  0.1280296E+00
         21   -1    0    0  503  502  0.00000000000E+00  0.00000000000E+00  0.45184154428E+03  0.45184154428E+03  0.00000000000E+00 0. -1.
         21   -1    0    0  501  503 -0.00000000000E+00 -0.00000000000E+00 -0.16682675241E+03  0.16682675241E+03  0.00000000000E+00 0.  1.
          6    1    1    2  501    0  0.28459495042E+02 -0.18855324069E+03  0.24991520522E+03  0.35881593782E+03  0.17300000000E+03 0.  1.
         -6    1    1    2    0  502 -0.28459495042E+02  0.18855324069E+03  0.35099586646E+02  0.25985235888E+03  0.17300000000E+03 0. -1.
</event>
<event>
 4    1  0.6197496E+000  0.1000000E+03  0.7546771E-02  0.1280296E+00
         21   -1    0    0  503  502  0.00000000000E+00  0.00000000000E+00  0.57778388289E+02  0.57778388289E+02  0.00000000000E+00 0. -1.
         21   -1    0    0  501  503 -0.00000000000E+00 -0.00000000000E+00 -0.59091826673E+03  0.59091826673E+03  0.00000000000E+00 0.  1.
          6    1    1    2  501    0 -0.42692013481E+01 -0.57095479192E+02 -0.32025013177E+03  0.36846609983E+03  0.17300000000E+03 0.  1.
         -6    1    1    2    0  502  0.42692013481E+01  0.57095479192E+02 -0.21288974667E+03  0.28023055519E+03  0.17300000000E+03 0. -1.
</event>
<event>
 4    1  0.6197496E+000  0.1000000E+03  0.7546771E-02  0.1280296E+00
         21   -1    0    0  503  502  0.00000000000E+00  0.00000000000E+00  0.32520435369E+03  0.32520435369E+03  0.00000000000E+00 0. -1.
         21   -1    0    0  501  503 -0.00000000000E+00 -0.00000000000E+00 -0.40902051161E+03  0.40902051161E+03  0.00000000000E+00 0.  1.
          6    1    1    2  501    0  0.16883404134E+02 -0.19683402936E+03 -0.29666945848E+03  0.39619496721E+03  0.17300000000E+03 0.  1.
         -6    1    1    2    0  502 -0.16883404134E+02  0.19683402936E+03  0.21285330056E+03  0.33802989810E+03  0.17300000000E+03 0. -1.
</event>
<event>
 4    1  0.6197496E+000  0.1000000E+03  0.7546771E-02  0.1280296E+00
         21   -1    0    0  501  502  0.00000000000E+00  0.00000000000E+00  0.17465120580E+03  0.17465120580E+03  0.00000000000E+00 0. -1.
         21   -1    0    0  502  503 -0.00000000000E+00 -0.00000000000E+00 -0.24449377862E+03  0.24449377862E+03  0.00000000000E+00 0. -1.
          6    1    1    2  501    0 -0.75068782436E+02  0.62818072452E+02  0.22365917614E+02  0.20002666471E+03  0.17300000000E+03 0. -1.
         -6    1    1    2    0  503  0.75068782436E+02 -0.62818072452E+02 -0.92208490431E+02  0.21911831971E+03  0.17300000000E+03 0. -1.
</event>
<event>
 4    1  0.6197496E+000  0.1000000E+03  0.7546771E-02  0.1280296E+00
         21   -1    0    0  501  502  0.00000000000E+00  0.00000000000E+00  0.26299998422E+02  0.26299998422E+02  0.00000000000E+00 0. -1.
         21   -1    0    0  502  503 -0.00000000000E+00 -0.00000000000E+00 -0.13325567493E+04  0.13325567493E+04  0.00000000000E+00 0. -1.
          6    1    1    2  501    0  0.48816486829E+02  0.18554647717E+02 -0.47570359106E+03  0.50887152689E+03  0.17300000000E+03 0. -1.
         -6    1    1    2    0  503 -0.48816486829E+02 -0.18554647717E+02 -0.83055315982E+03  0.84998522083E+03  0.17300000000E+03 0. -1.
</event>
<event>
 4    1  0.6197496E+000  0.1000000E+03  0.7546771E-02  0.1280296E+00
         21   -1    0    0  501  502  0.00000000000E+00  0.00000000000E+00  0.31346704701E+03  0.31346704701E+03  0.00000000000E+00 0. -1.
         21   -1    0    0  502  503 -0.00000000000E+00 -0.00000000000E+00 -0.18648658107E+03  0.18648658107E+03  0.00000000000E+00 0. -1.
          6    1    1    2  501    0 -0.10791330273E+03  0.31847577729E+02  0.19373272562E+03  0.28305638677E+03  0.17300000000E+03 0. -1.
         -6    1    1    2    0  503  0.10791330273E+03 -0.31847577729E+02 -0.66752259678E+02  0.21689724131E+03  0.17300000000E+03 0. -1.
</event>
<event>
 4    1  0.6197496E+000  0.1000000E+03  0.7546771E-02  0.1280296E+00
         21   -1    0    0  501  502  0.00000000000E+00  0.00000000000E+00  0.20853599054E+03  0.20853599054E+03  0.00000000000E+00 0. -1.
         21   -1    0    0  502  503 -0.00000000000E+00 -0.00000000000E+00 -0.23986600113E+03  0.23986600113E+03  0.00000000000E+00 0. -1.
          6    1    1    2  501    0 -0.10911989660E+03 -0.90329751738E+02 -0.10644916789E+02  0.22385024042E+03  0.17300000000E+03 0. -1.
         -6    1    1    2    0  503  0.10911989660E+03  0.90329751738E+02 -0.20685093800E+02  0.22455175125E+03  0.17300000000E+03 0. -1.
</event>
<event>
 4    1  0.6197496E+000  0.1000000E+03  0.7546771E-02  0.1280296E+00
         21   -1    0    0  501  502  0.00000000000E+00  0.00000000000E+00  0.22803143193E+04  0.22803143193E+04  0.00000000000E+00 0. -1.
         21   -1    0    0  502  503 -0.00000000000E+00 -0.00000000000E+00 -0.16130555600E+03  0.16130555600E+03  0.00000000000E+00 0. -1.
          6    1    1    2  501    0 -0.46012824759E+02  0.35111148565E+02  0.22237792195E+04  0.22312491994E+04  0.17300000000E+03 0. -1.
         -6    1    1    2    0  503  0.46012824759E+02 -0.35111148565E+02 -0.10477045618E+03  0.21037067591E+03  0.17300000000E+03 0. -1.
</event>
<event>
 4    1  0.6197496E+000  0.1000000E+03  0.7546771E-02  0.1280296E+00
         21   -1    0    0  503  502  0.00000000000E+00  0.00000000000E+00  0.20205215467E+03  0.20205215467E+03  0.00000000000E+00 0. -1.
         21   -1    0    0  501  503 -0.00000000000E+00 -0.00000000000E+00 -0.22682002002E+03  0.22682002002E+03  0.00000000000E+00 0.  1.
          6    1    1    2  501    0  0.66328865199E+02  0.73332662396E+01 -0.11955428754E+03  0.22062529960E+03  0.17300000000E+03 0.  1.
         -6    1    1    2    0  502 -0.66328865199E+02 -0.73332662396E+01  0.94786422200E+02  0.20824687509E+03  0.17300000000E+03 0. -1.
</event>
<event>
 4    1  0.6197496E+000  0.1000000E+03  0.7546771E-02  0.1280296E+00
         21   -1    0    0  503  502  0.00000000000E+00  0.00000000000E+00  0.82804444524E+02  0.82804444524E+02  0.00000000000E+00 0. -1.
         21   -1    0    0  501  503 -0.00000000000E+00 -0.00000000000E+00 -0.57753011906E+03  0.57753011906E+03  0.00000000000E+00 0.  1.
          6    1    1    2  501    0 -0.36287786337E+02 -0.12501286185E+03 -0.29385005964E+03  0.36499572136E+03  0.17300000000E+03 0.  1.
         -6    1    1    2    0  502  0.36287786337E+02  0.12501286185E+03 -0.20087561490E+03  0.29533884222E+03  0.17300000000E+03 0. -1.
</event>
<event>
 4    1  0.6197496E+000  0.1000000E+03  0.7546771E-02  0.1280296E+00
         21   -1    0    0  503  502  0.00000000000E+00  0.00000000000E+00  0.10399409239E+04  0.10399409239E+04  0.00000000000E+00 0. -1.
         21   -1    0    0  501  503 -0.00000000000E+00 -0.00000000000E+00 -0.82654653942E+02  0.82654653942E+02  0.00000000000E+00 0.  1.
          6    1    1    2  501    0  0.15499706613E+03 -0.40891025721E+02  0.14521886650E+03  0.27697235545E+03  0.17300000000E+03 0.  1.
         -6    1    1    2    0  502 -0.15499706613E+03  0.40891025721E+02  0.81206740341E+03  0.84562322235E+03  0.17300000000E+03 0. -1.
</event>
<event>
 4    1  0.6197496E+000  0.1000000E+03  0.7546771E-02  0.1280296E+00
         21   -1    0    0  501  502  0.00000000000E+00  0.00000000000E+00  0.13632478535E+03  0.13632478535E+03  0.00000000000E+00 0.  1.
         21   -1    0    0  502  503 -0.00000000000E+00 -0.00000000000E+00 -0.58340805486E+03  0.58340805486E+03  0.00000000000E+00 0. -1.
          6    1    1    2  501    0  0.14690310228E+02  0.52777495097E+02  0.51927713581E+02  0.18875051428E+03  0.17300000000E+03 0. -1.
         -6    1    1    2    0  503 -0.14690310228E+02 -0.52777495097E+02 -0.49901098309E+03  0.53098232593E+03  0.17300000000E+03 0.  1.
</event>
<event>
 4    1  0.6197496E+000  0.1000000E+03  0.7546771E-02  0.1280296E+00
         21   -1    0    0  501  502  0.00000000000E+00  0.00000000000E+00  0.55948677029E+03  0.55948677029E+03  0.00000000000E+00 0. -1.
         21   -1    0    0  502  503 -0.00000000000E+00 -0.00000000000E+00 -0.13811247999E+03  0.13811247999E+03  0.00000000000E+00 0. -1.
          6    1    1    2  501    0  0.14270703365E+03  0.16375691105E+03  0.19474206556E+03  0.33916824066E+03  0.17300000000E+03 0. -1.
         -6    1    1    2    0  503 -0.14270703365E+03 -0.16375691105E+03  0.22663222474E+03  0.35843100963E+03  0.17300000000E+03 0. -1.
</event>
<event>
 4    1  0.6197496E+000  0.1000000E+03  0.7546771E-02  0.1280296E+00
         21   -1    0    0  501  502  0.00000000000E+00  0.00000000000E+00  0.13554299395E+03  0.13554299395E+03  0.00000000000E+00 0. -1.
         21   -1    0    0  502  503 -0.00000000000E+00 -0.00000000000E+00 -0.50520928489E+03  0.50520928489E+03  0.00000000000E+00 0. -1.
          6    1    1    2  501    0  0.17536335176E+02 -0.16886281081E+02  0.53687329822E+02  0.18276760907E+03  0.17300000000E+03 0. -1.
         -6    1    1    2    0  503 -0.17536335176E+02  0.16886281081E+02 -0.42335362076E+03  0.45798466978E+03  0.17300000000E+03 0. -1.
</event>
<event>
 4    1  0.6197496E+000  0.1000000E+03  0.7546771E-02  0.1280296E+00
         21   -1    0    0  501  502  0.00000000000E+00  0.00000000000E+00  0.15770335708E+03  0.15770335708E+03  0.00000000000E+00 0. -1.
         21   -1    0    0  502  503 -0.00000000000E+00 -0.00000000000E+00 -0.31689292949E+03  0.31689292949E+03  0.00000000000E+00 0. -1.
          6    1    1    2  501    0  0.30065435445E+02 -0.49976128189E+02  0.57352499797E+02  0.19136314439E+03  0.17300000000E+03 0. -1.
         -6    1    1    2    0  503 -0.30065435445E+02  0.49976128189E+02 -0.21654207221E+03  0.28323314219E+03  0.17300000000E+03 0. -1.
</event>
<event>
 4    1  0.6197496E+000  0.1000000E+03  0.7546771E-02  0.1280296E+00
         21   -1    0    0  501  502  0.00000000000E+00  0.00000000000E+00  0.65321614941E+03  0.65321614941E+03  0.00000000000E+00 0. -1.
         21   -1    0    0  502  503 -0.00000000000E+00 -0.00000000000E+00 -0.11043526765E+03  0.11043526765E+03  0.00000000000E+00 0. -1.
          6    1    1    2  501    0 -0.54946023410E+02 -0.49908714306E+02  0.54373007412E+03  0.57539667948E+03  0.17300000000E+03 0. -1.
         -6    1    1    2    0  503  0.54946023410E+02  0.49908714306E+02 -0.94919236521E+00  0.18825473757E+03  0.17300000000E+03 0. -1.
</event>
<event>
 4    1  0.6197496E+000  0.1000000E+03  0.7546771E-02  0.1280296E+00
         21   -1    0    0  503  502  0.00000000000E+00  0.00000000000E+00  0.16793232359E+04  0.16793232359E+04  0.00000000000E+00 0.  1.
         21   -1    0    0  501  503 -0.00000000000E+00 -0.00000000000E+00 -0.87118278751E+02  0.87118278751E+02  0.00000000000E+00 0. -1.
          6    1    1    2  501    0 -0.19333819045E+03 -0.64308611924E+02  0.16433200814E+03  0.31376625432E+03  0.17300000000E+03 0. -1.
         -6    1    1    2    0  502  0.19333819045E+03  0.64308611924E+02  0.14278729490E+04  0.14526752604E+04  0.17300000000E+03 0.  1.
</event>
<event>
 4    1  0.6197496E+000  0.1000000E+03  0.7546771E-02  0.1280296E+00
         21   -1    0    0  503  502  0.00000000000E+00  0.00000000000E+00  0.13748150524E+03  0.13748150524E+03  0.00000000000E+00 0. -1.
         21   -1    0    0  501  503 -0.00000000000E+00 -0.00000000000E+00 -0.48252302616E+03  0.48252302616E+03  0.00000000000E+00 0. -1.
          6    1    1    2  501    0  0.40717034500E+01 -0.35942707078E+02 -0.39801766016E+03  0.43549456341E+03  0.17300000000E+03 0. -1.
         -6    1    1    2    0  502 -0.40717034500E+01  0.35942707078E+02  0.52976139229E+02  0.18450996799E+03  0.17300000000E+03 0. -1.
</event>
<event>
 4    1  0.6197496E+000  0.1000000E+03  0.7546771E-02  0.1280296E+00
         21   -1    0    0  501  502  0.00000000000E+00  0.00000000000E+00  0.29393414759E+03  0.29393414759E+03  0.00000000000E+00 0. -1.
         21   -1    0    0  502  503 -0.00000000000E+00 -0.00000000000E+00 -0.21912218734E+03  0.21912218734E+03  0.00000000000E+00 0.  1.
          6    1    1    2  501    0  0.11916630389E+02 -0.70883467268E+02  0.21046320860E+03  0.28176272675E+03  0.17300000000E+03 0.  1.
         -6    1    1    2    0  503 -0.11916630389E+02  0.70883467268E+02 -0.13565124835E+03  0.23129360819E+03  0.17300000000E+03 0.  1.
</event>
<event>
 4    1  0.6197496E+000  0.1000000E+03  0.7546771E-02  0.1280296E+00
         21   -1    0    0  501  502  0.00000000000E+00  0.00000000000E+00  0.67644232636E+03  0.67644232636E+03  0.00000000000E+00 0.  1.
         21   -1    0    0  502  503 -0.00000000000E+00 -0.00000000000E+00 -0.10955308044E+03  0.10955308044E+03  0.00000000000E+00 0. -1.
          6    1    1    2  501    0  0.16448053835E+02 -0.64530868599E+02 -0.43550509189E+01  0.18542582869E+03  0.17300000000E+03 0.  1.
         -6    1    1    2    0  503 -0.16448053835E+02  0.64530868599E+02  0.57124429684E+03  0.60056957811E+03  0.17300000000E+03 0. -1.
</event>
<event>
 4    1  0.6197496E+000  0.1000000E+03  0.7546771E-02  0.1280296E+00
         21   -1    0    0  501  502  0.00000000000E+00  0.00000000000E+00  0.97601820879E+02  0.97601820879E+02  0.00000000000E+00 0.  1.
         21   -1    0    0  502  503 -0.00000000000E+00 -0.00000000000E+00 -0.15658702861E+04  0.15658702861E+04  0.00000000000E+00 0. -1.
          6    1    1    2  501    0 -0.18284585535E+03  0.27880433015E+03 -0.50362844704E+03  0.62827945534E+03  0.17300000000E+03 0.  1.
         -6    1    1    2    0  503  0.18284585535E+03 -0.27880433015E+03 -0.96464001815E+03  0.10351926516E+04  0.17300000000E+03 0. -1.
</event>
<event>
 4    1  0.6197496E+000  0.1000000E+03  0.7546771E-02  0.1280296E+00
         21   -1    0    0  501  502  0.00000000000E+00  0.00000000000E+00  0.21914099172E+03  0.21914099172E+03  0.00000000000E+00 0.  1.
         21   -1    0    0  502  503 -0.00000000000E+00 -0.00000000000E+00 -0.21676378506E+03  0.21676378506E+03  0.00000000000E+00 0.  1.
          6    1    1    2  501    0 -0.60335822129E+01  0.35110925947E+02  0.12887624755E+03  0.21864873294E+03  0.17300000000E+03 0.  1.
         -6    1    1    2    0  503  0.60335822129E+01 -0.35110925947E+02 -0.12649904089E+03  0.21725604383E+03  0.17300000000E+03 0.  1.
</event>
<event>
 4    1  0.6197496E+000  0.1000000E+03  0.7546771E-02  0.1280296E+00
         21   -1    0    0  501  502  0.00000000000E+00  0.00000000000E+00  0.35230116924E+02  0.35230116924E+02  0.00000000000E+00 0.  1.
         21   -1    0    0  502  503 -0.00000000000E+00 -0.00000000000E+00 -0.16464659357E+04  0.16464659357E+04  0.00000000000E+00 0. -1.
          6    1    1    2  501    0  0.11144344960E+02  0.40610513538E+02 -0.23939831418E+03  0.29835207904E+03  0.17300000000E+03 0. -1.
         -6    1    1    2    0  503 -0.11144344960E+02 -0.40610513538E+02 -0.13718375046E+04  0.13833439736E+04  0.17300000000E+03 0.  1.
</event>
<event>
 4    1  0.6197496E+000  0.1000000E+03  0.7546771E-02  0.1280296E+00
         21   -1    0    0  501  502  0.00000000000E+00  0.00000000000E+00  0.79905933195E+02  0.79905933195E+02  0.00000000000E+00 0.  1.
         21   -1    0    0  502  503 -0.00000000000E+00 -0.00000000000E+00 -0.45460592966E+03  0.45460592966E+03  0.00000000000E+00 0. -1.
          6    1    1    2  501    0 -0.10271423625E+02 -0.61454847115E+02 -0.11703515192E+03  0.21796427955E+03  0.17300000000E+03 0. -1.
         -6    1    1    2    0  503  0.10271423625E+02  0.61454847115E+02 -0.25766484454E+03  0.31654758330E+03  0.17300000000E+03 0.  1.
</event>
<event>
 4    1  0.6197496E+000  0.1000000E+03  0.7546771E-02  0.1280296E+00
         21   -1    0    0  501  502  0.00000000000E+00  0.00000000000E+00  0.14442406842E+03  0.14442406842E+03  0.00000000000E+00 0.  1.
         21   -1    0    0  502  503 -0.00000000000E+00 -0.00000000000E+00 -0.59751850549E+03  0.59751850549E+03  0.00000000000E+00 0. -1.
          6    1    1    2  501    0  0.15468978531E+03 -0.11092978634E+03 -0.47364587775E+02  0.26154684351E+03  0.17300000000E+03 0. -1.
         -6    1    1    2    0  503 -0.15468978531E+03  0.11092978634E+03 -0.40572984929E+03  0.48039573039E+03  0.17300000000E+03 0.  1.
</event>
<event>
 4    1  0.6197496E+000  0.1000000E+03  0.7546771E-02  0.1280296E+00
         21   -1    0    0  503  502  0.00000000000E+00  0.00000000000E+00  0.22146642336E+03  0.22146642336E+03  0.00000000000E+00 0. -1.
         21   -1    0    0  501  503 -0.00000000000E+00 -0.00000000000E+00 -0.29493784073E+03  0.29493784073E+03  0.00000000000E+00 0. -1.
          6    1    1    2  501    0 -0.29949150440E+02 -0.10040512408E+03 -0.19458387331E+03  0.28065997988E+03  0.17300000000E+03 0. -1.
         -6    1    1    2    0  502  0.29949150440E+02  0.10040512408E+03  0.12111245594E+03  0.23574428421E+03  0.17300000000E+03 0. -1.
</event>
<event>
 4    1  0.6197496E+000  0.1000000E+03  0.7546771E-02  0.1280296E+00
         21   -1    0    0  501  502  0.00000000000E+00  0.00000000000E+00  0.14111219490E+03  0.14111219490E+03  0.00000000000E+00 0. -1.
         21   -1    0    0  502  503 -0.00000000000E+00 -0.00000000000E+00 -0.42041351854E+03  0.42041351854E+03  0.00000000000E+00 0.  1.
          6    1    1    2  501    0  0.82207936602E+02  0.13989065795E+03 -0.75793035530E+02  0.24900025152E+03  0.17300000000E+03 0. -1.
         -6    1    1    2    0  503 -0.82207936602E+02 -0.13989065795E+03 -0.20350828810E+03  0.31252546192E+03  0.17300000000E+03 0.  1.
</event>
<event>
 4    1  0.6197496E+000  0.1000000E+03  0.7546771E-02  0.1280296E+00
         21   -1    0    0  501  502  0.00000000000E+00  0.00000000000E+00  0.46696830040E+03  0.46696830040E+03  0.00000000000E+00 0. -1.
         21   -1    0    0  502  503 -0.00000000000E+00 -0.00000000000E+00 -0.86963288066E+02  0.86963288066E+02  0.00000000000E+00 0.  1.
          6    1    1    2  501    0  0.10932677132E+02  0.18033147149E+02  0.32905105698E+03  0.37235509387E+03  0.17300000000E+03 0. -1.
         -6    1    1    2    0  503 -0.10932677132E+02 -0.18033147149E+02  0.50953955349E+02  0.18157649460E+03  0.17300000000E+03 0.  1.
</event>
<event>
 4    1  0.6197496E+000  0.1000000E+03  0.7546771E-02  0.1280296E+00
         21   -1    0    0  501  502  0.00000000000E+00  0.00000000000E+00  0.14820155601E+03  0.14820155601E+03  0.00000000000E+00 0.  1.
         21   -1    0    0  502  503 -0.00000000000E+00 -0.00000000000E+00 -0.81970527975E+03  0.81970527975E+03  0.00000000000E+00 0.  1.
          6    1    1    2  501    0  0.87557066247E+02 -0.62470439210E+02  0.56937681052E+02  0.21151760009E+03  0.17300000000E+03 0.  1.
         -6    1    1    2    0  503 -0.87557066247E+02  0.62470439210E+02 -0.72844140479E+03  0.75638923567E+03  0.17300000000E+03 0.  1.
</event>
<event>
 4    1  0.6197496E+000  0.1000000E+03  0.7546771E-02  0.1280296E+00
         21   -1    0    0  501  502  0.00000000000E+00  0.00000000000E+00  0.24074097959E+03  0.24074097959E+03  0.00000000000E+00 0.  1.
         21   -1    0    0  502  503 -0.00000000000E+00 -0.00000000000E+00 -0.69177841420E+03  0.69177841420E+03  0.00000000000E+00 0.  1.
          6    1    1    2  501    0  0.89628968780E+02 -0.13531636184E+03  0.15387596742E+03  0.28275551838E+03  0.17300000000E+03 0.  1.
         -6    1    1    2    0  503 -0.89628968780E+02  0.13531636184E+03 -0.60491340203E+03  0.64976387541E+03  0.17300000000E+03 0.  1.
</event>
<event>
 4    1  0.6197496E+000  0.1000000E+03  0.7546771E-02  0.1280296E+00
         21   -1    0    0  503  502  0.00000000000E+00  0.00000000000E+00  0.47610571359E+03  0.47610571359E+03  0.00000000000E+00 0. -1.
         21   -1    0    0  501  503 -0.00000000000E+00 -0.00000000000E+00 -0.13005081658E+03  0.13005081658E+03  0.00000000000E+00 0. -1.
          6    1    1    2  501    0  0.71357764488E+02 -0.63101619954E+02 -0.11350213158E+02  0.19781701730E+03  0.17300000000E+03 0. -1.
         -6    1    1    2    0  502 -0.71357764488E+02  0.63101619954E+02  0.35740511018E+03  0.40833951287E+03  0.17300000000E+03 0. -1.
</event>
<event>
 4    1  0.6197496E+000  0.1000000E+03  0.7546771E-02  0.1280296E+00
         21   -1    0    0  501  502  0.00000000000E+00  0.00000000000E+00  0.61860382847E+03  0.61860382847E+03  0.00000000000E+00 0. -1.
         21   -1    0    0  502  503 -0.00000000000E+00 -0.00000000000E+00 -0.91087588825E+02  0.91087588825E+02  0.00000000000E+00 0.  1.
          6    1    1    2  501    0 -0.38772288896E+02 -0.97423348792E+02  0.44940838361E+03  0.49284023226E+03  0.17300000000E+03 0. -1.
         -6    1    1    2    0  503  0.38772288896E+02  0.97423348792E+02  0.78107856035E+02  0.21685118503E+03  0.17300000000E+03 0.  1.
</event>
<event>
 4    1  0.6197496E+000  0.1000000E+03  0.7546771E-02  0.1280296E+00
         21   -1    0    0  501  502  0.00000000000E+00  0.00000000000E+00  0.18116490814E+03  0.18116490814E+03  0.00000000000E+00 0. -1.
         21   -1    0    0  502  503 -0.00000000000E+00 -0.00000000000E+00 -0.30056637908E+03  0.30056637908E+03  0.00000000000E+00 0.  1.
          6    1    1    2  501    0 -0.12623226983E+03 -0.10102269577E+01 -0.15535411869E+03  0.26457420263E+03  0.17300000000E+03 0. -1.
         -6    1    1    2    0  503  0.12623226983E+03  0.10102269577E+01  0.35952647755E+02  0.21715708458E+03  0.17300000000E+03 0.  1.
</event>
<event>
 4    1  0.6197496E+000  0.1000000E+03  0.7546771E-02  0.1280296E+00
         21   -1    0    0  501  502  0.00000000000E+00  0.00000000000E+00  0.12743382570E+02  0.12743382570E+02  0.00000000000E+00 0. -1.
         21   -1    0    0  502  503 -0.00000000000E+00 -0.00000000000E+00 -0.29343797459E+04  0.29343797459E+04  0.00000000000E+00 0. -1.
          6    1    1    2  501    0 -0.30957442334E+02 -0.32055985985E+01 -0.84663165100E+03  0.86468652792E+03  0.17300000000E+03 0. -1.
         -6    1    1    2    0  503  0.30957442334E+02  0.32055985985E+01 -0.20750047123E+04  0.20824366006E+04  0.17300000000E+03 0. -1.
</event>
<event>
 4    1  0.6197496E+000  0.1000000E+03  0.7546771E-02  0.1280296E+00
         21   -1    0    0  501  502  0.00000000000E+00  0.00000000000E+00  0.20246164121E+04  0.20246164121E+04  0.00000000000E+00 0.  1.
         21   -1    0    0  502  503 -0.00000000000E+00 -0.00000000000E+00 -0.22690789268E+02  0.22690789268E+02  0.00000000000E+00 0. -1.
          6    1    1    2  501    0 -0.11927072570E+02 -0.49466218189E+02  0.15542685514E+04  0.15646945043E+04  0.17300000000E+03 0.  1.
         -6    1    1    2    0  503  0.11927072570E+02  0.49466218189E+02  0.44765707142E+03  0.48261269709E+03  0.17300000000E+03 0.  1.
</event>
<event>
 4    1  0.6197496E+000  0.1000000E+03  0.7546771E-02  0.1280296E+00
         21   -1    0    0  501  502  0.00000000000E+00  0.00000000000E+00  0.33015581024E+03  0.33015581024E+03  0.00000000000E+00 0.  1.
         21   -1    0    0  502  503 -0.00000000000E+00 -0.00000000000E+00 -0.15442513557E+03  0.15442513557E+03  0.00000000000E+00 0. -1.
          6    1    1    2  501    0 -0.96556568006E+02  0.69256456270E+02  0.17722960533E+03  0.27469794424E+03  0.17300000000E+03 0.  1.
         -6    1    1    2    0  503  0.96556568006E+02 -0.69256456270E+02 -0.14989306629E+01  0.20988300158E+03  0.17300000000E+03 0.  1.
</event>
<event>
 4    1  0.6197496E+000  0.1000000E+03  0.7546771E-02  0.1280296E+00
         21   -1    0    0  501  502  0.00000000000E+00  0.00000000000E+00  0.51062855109E+03  0.51062855109E+03  0.00000000000E+00 0.  1.
         21   -1    0    0  502  503 -0.00000000000E+00 -0.00000000000E+00 -0.14503524835E+03  0.14503524835E+03  0.00000000000E+00 0. -1.
          6    1    1    2  501    0 -0.20643714522E+03  0.97012299136E+01  0.13740617385E+03  0.30252250396E+03  0.17300000000E+03 0.  1.
         -6    1    1    2    0  503  0.20643714522E+03 -0.97012299136E+01  0.22818712889E+03  0.35314129549E+03  0.17300000000E+03 0.  1.
</event>
<event>
 4    1  0.6197496E+000  0.1000000E+03  0.7546771E-02  0.1280296E+00
         21   -1    0    0  503  502  0.00000000000E+00  0.00000000000E+00  0.29541104736E+03  0.29541104736E+03  0.00000000000E+00 0.  1.
         21   -1    0    0  501  503 -0.00000000000E+00 -0.00000000000E+00 -0.32215796565E+03  0.32215796565E+03  0.00000000000E+00 0.  1.
          6    1    1    2  501    0 -0.23861093603E+02  0.40295733764E+02 -0.26470074982E+03  0.31966949323E+03  0.17300000000E+03 0.  1.
         -6    1    1    2    0  502  0.23861093603E+02 -0.40295733764E+02  0.23795383153E+03  0.29789951978E+03  0.17300000000E+03 0.  1.
</event>
<event>
 4    1  0.6197496E+000  0.1000000E+03  0.7546771E-02  0.1280296E+00
         21   -1    0    0  503  502  0.00000000000E+00  0.00000000000E+00  0.10416638066E+03  0.10416638066E+03  0.00000000000E+00 0.  1.
         21   -1    0    0  501  503 -0.00000000000E+00 -0.00000000000E+00 -0.62921911710E+03  0.62921911710E+03  0.00000000000E+00 0.  1.
          6    1    1    2  501    0 -0.98725053353E+02 -0.28315059388E+02 -0.48929394459E+03  0.52904247746E+03  0.17300000000E+03 0.  1.
         -6    1    1    2    0  502  0.98725053353E+02  0.28315059388E+02 -0.35758791852E+02  0.20434302029E+03  0.17300000000E+03 0.  1.
</event>
<event>
 4    1  0.6197496E+000  0.1000000E+03  0.7546771E-02  0.1280296E+00
         21   -1    0    0  503  502  0.00000000000E+00  0.00000000000E+00  0.13419815824E+04  0.13419815824E+04  0.00000000000E+00 0.  1.
         21   -1    0    0  501  503 -0.00000000000E+00 -0.00000000000E+00 -0.29725391288E+02  0.29725391288E+02  0.00000000000E+00 0.  1.
          6    1    1    2  501    0  0.55240377932E+02  0.65159355193E+02  0.83339079609E+03  0.85543349241E+03  0.17300000000E+03 0.  1.
         -6    1    1    2    0  502 -0.55240377932E+02 -0.65159355193E+02  0.47886539501E+03  0.51627348127E+03  0.17300000000E+03 0.  1.
</event>
<event>
 4    1  0.6197496E+000  0.1000000E+03  0.7546771E-02  0.1280296E+00
         21   -1    0    0  503  502  0.00000000000E+00  0.00000000000E+00  0.84263890221E+03  0.84263890221E+03  0.00000000000E+00 0.  1.
         21   -1    0    0  501  503 -0.00000000000E+00 -0.00000000000E+00 -0.14317044695E+03  0.14317044695E+03  0.00000000000E+00 0.  1.
          6    1    1    2  501    0 -0.48850991129E+02  0.14418629378E+03 -0.19058866940E+02  0.23123223620E+03  0.17300000000E+03 0.  1.
         -6    1    1    2    0  502  0.48850991129E+02 -0.14418629378E+03  0.71852732220E+03  0.75457711296E+03  0.17300000000E+03 0.  1.
</event>
<event>
 4    1  0.6197496E+000  0.1000000E+03  0.7546771E-02  0.1280296E+00
         21   -1    0    0  503  502  0.00000000000E+00  0.00000000000E+00  0.56054368437E+03  0.56054368437E+03  0.00000000000E+00 0.  1.
         21   -1    0    0  501  503 -0.00000000000E+00 -0.00000000000E+00 -0.32676179767E+03  0.32676179767E+03  0.00000000000E+00 0.  1.
          6    1    1    2  501    0 -0.33776933575E+03  0.19563602615E+03  0.86250167320E+02  0.43557969450E+03  0.17300000000E+03 0.  1.
         -6    1    1    2    0  502  0.33776933575E+03 -0.19563602615E+03  0.14753171938E+03  0.45172578753E+03  0.17300000000E+03 0.  1.
</event>
<event>
 4    1  0.6197496E+000  0.1000000E+03  0.7546771E-02  0.1280296E+00
         21   -1    0    0  501  502  0.00000000000E+00  0.00000000000E+00  0.26938304567E+03  0.26938304567E+03  0.00000000000E+00 0.  1.
         21   -1    0    0  502  503 -0.00000000000E+00 -0.00000000000E+00 -0.14305187857E+03  0.14305187857E+03  0.00000000000E+00 0. -1.
          6    1    1    2  501    0 -0.42151616848E+02 -0.42856749475E+02  0.13739686575E+03  0.22895492678E+03  0.17300000000E+03 0. -1.
         -6    1    1    2    0  503  0.42151616848E+02  0.42856749475E+02 -0.11065698651E+02  0.18347999745E+03  0.17300000000E+03 0.  1.
</event>
<event>
 4    1  0.6197496E+000  0.1000000E+03  0.7546771E-02  0.1280296E+00
         21   -1    0    0  501  502  0.00000000000E+00  0.00000000000E+00  0.24804107997E+04  0.24804107997E+04  0.00000000000E+00 0.  1.
         21   -1    0    0  502  503 -0.00000000000E+00 -0.00000000000E+00 -0.55355640223E+02  0.55355640223E+02  0.00000000000E+00 0. -1.
          6    1    1    2  501    0 -0.49653084923E+02 -0.29399304883E+03  0.16776513433E+04  0.17126997318E+04  0.17300000000E+03 0. -1.
         -6    1    1    2    0  503  0.49653084923E+02  0.29399304883E+03  0.74740381619E+03  0.82306670815E+03  0.17300000000E+03 0.  1.
</event>
<event>
 4    1  0.6197496E+000  0.1000000E+03  0.7546771E-02  0.1280296E+00
         21   -1    0    0  503  502  0.00000000000E+00  0.00000000000E+00  0.19030808337E+02  0.19030808337E+02  0.00000000000E+00 0. -1.
         21   -1    0    0  501  503 -0.00000000000E+00 -0.00000000000E+00 -0.23737579274E+04  0.23737579274E+04  0.00000000000E+00 0. -1.
          6    1    1    2  501    0  0.10106440010E+03 -0.37264692999E+02 -0.15171052775E+04  0.15307318816E+04  0.17300000000E+03 0. -1.
         -6    1    1    2    0  502 -0.10106440010E+03  0.37264692999E+02 -0.83762184159E+03  0.86205685417E+03  0.17300000000E+03 0. -1.
</event>
<event>
 4    1  0.6197496E+000  0.1000000E+03  0.7546771E-02  0.1280296E+00
         21   -1    0    0  501  502  0.00000000000E+00  0.00000000000E+00  0.17430335044E+03  0.17430335044E+03  0.00000000000E+00 0. -1.
         21   -1    0    0  502  503 -0.00000000000E+00 -0.00000000000E+00 -0.15511002649E+04  0.15511002649E+04  0.00000000000E+00 0. -1.
          6    1    1    2  501    0 -0.23572801121E+03  0.83285554276E+02  0.11461300810E+02  0.30424421151E+03  0.17300000000E+03 0. -1.
         -6    1    1    2    0  503  0.23572801121E+03 -0.83285554276E+02 -0.13882582152E+04  0.14211594038E+04  0.17300000000E+03 0. -1.
</event>
<event>
 4    1  0.6197496E+000  0.1000000E+03  0.7546771E-02  0.1280296E+00
         21   -1    0    0  503  502  0.00000000000E+00  0.00000000000E+00  0.26706819946E+03  0.26706819946E+03  0.00000000000E+00 0.  1.
         21   -1    0    0  501  503 -0.00000000000E+00 -0.00000000000E+00 -0.21922531944E+03  0.21922531944E+03  0.00000000000E+00 0.  1.
          6    1    1    2  501    0  0.35886739477E+02 -0.16391073019E+03  0.45579370634E+02  0.24527752561E+03  0.17300000000E+03 0.  1.
         -6    1    1    2    0  502 -0.35886739477E+02  0.16391073019E+03  0.22635093855E+01  0.24101599328E+03  0.17300000000E+03 0.  1.
</event>
<event>
 4    1  0.6197496E+000  0.1000000E+03  0.7546771E-02  0.1280296E+00
         21   -1    0    0  503  502  0.00000000000E+00  0.00000000000E+00  0.79180754182E+02  0.79180754182E+02  0.00000000000E+00 0.  1.
         21   -1    0    0  501  503 -0.00000000000E+00 -0.00000000000E+00 -0.80484671011E+03  0.80484671011E+03  0.00000000000E+00 0.  1.
          6    1    1    2  501    0 -0.19419758854E+02 -0.19286102228E+01 -0.68291625417E+03  0.70475843860E+03  0.17300000000E+03 0.  1.
         -6    1    1    2    0  502  0.19419758854E+02  0.19286102228E+01 -0.42749701759E+02  0.17926902569E+03  0.17300000000E+03 0.  1.
</event>
<event>
 4    1  0.6197496E+000  0.1000000E+03  0.7546771E-02  0.1280296E+00
         21   -1    0    0  501  502  0.00000000000E+00  0.00000000000E+00  0.11523434273E+03  0.11523434273E+03  0.00000000000E+00 0.  1.
         21   -1    0    0  502  503 -0.00000000000E+00 -0.00000000000E+00 -0.47838545871E+03  0.47838545871E+03  0.00000000000E+00 0.  1.
          6    1    1    2  501    0  0.64799556553E+02  0.21077294870E+01  0.15909737238E+01  0.18475647824E+03  0.17300000000E+03 0.  1.
         -6    1    1    2    0  503 -0.64799556553E+02 -0.21077294870E+01 -0.36474208971E+03  0.40886332320E+03  0.17300000000E+03 0.  1.
</event>
<event>
 4    1  0.6197496E+000  0.1000000E+03  0.7546771E-02  0.1280296E+00
         21   -1    0    0  501  502  0.00000000000E+00  0.00000000000E+00  0.15334318454E+04  0.15334318454E+04  0.00000000000E+00 0.  1.
         21   -1    0    0  502  503 -0.00000000000E+00 -0.00000000000E+00 -0.13084055802E+03  0.13084055802E+03  0.00000000000E+00 0.  1.
          6    1    1    2  501    0  0.14358060321E+03 -0.13846611046E+02  0.14205629052E+04  0.14383098018E+04  0.17300000000E+03 0.  1.
         -6    1    1    2    0  503 -0.14358060321E+03  0.13846611046E+02 -0.17971617899E+02  0.22596260157E+03  0.17300000000E+03 0.  1.
</event>
<event>
 4    1  0.6197496E+000  0.1000000E+03  0.7546771E-02  0.1280296E+00
         21   -1    0    0  501  502  0.00000000000E+00  0.00000000000E+00  0.67036871151E+03  0.67036871151E+03  0.00000000000E+00 0.  1.
         21   -1    0    0  502  503 -0.00000000000E+00 -0.00000000000E+00 -0.93147577207E+02  0.93147577207E+02  0.00000000000E+00 0.  1.
          6    1    1    2  501    0 -0.17588833802E+03 -0.37745943063E+02  0.26972860436E+03  0.36748331075E+03  0.17300000000E+03 0.  1.
         -6    1    1    2    0  503  0.17588833802E+03  0.37745943063E+02  0.30749252994E+03  0.39603297797E+03  0.17300000000E+03 0.  1.
</event>
<event>
 4    1  0.6197496E+000  0.1000000E+03  0.7546771E-02  0.1280296E+00
         21   -1    0    0  503  502  0.00000000000E+00  0.00000000000E+00  0.98720712921E+02  0.98720712921E+02  0.00000000000E+00 0. -1.
         21   -1    0    0  501  503 -0.00000000000E+00 -0.00000000000E+00 -0.81688006897E+03  0.81688006897E+03  0.00000000000E+00 0.  1.
          6    1    1    2  501    0  0.47063268078E+02  0.10216520774E+02 -0.71372281811E+03  0.73596779113E+03  0.17300000000E+03 0.  1.
         -6    1    1    2    0  502 -0.47063268078E+02 -0.10216520774E+02 -0.44365379397E+01  0.17963299076E+03  0.17300000000E+03 0. -1.
</event>
<event>
 4    1  0.6197496E+000  0.1000000E+03  0.7546771E-02  0.1280296E+00
         21   -1    0    0  501  502  0.00000000000E+00  0.00000000000E+00  0.13421646684E+03  0.13421646684E+03  0.00000000000E+00 0. -1.
         21   -1    0    0  502  503 -0.00000000000E+00 -0.00000000000E+00 -0.57248332256E+03  0.57248332256E+03  0.00000000000E+00 0. -1.
          6    1    1    2  501    0  0.60491708069E+02  0.26747663514E+02  0.43762389827E+02  0.19031245627E+03  0.17300000000E+03 0. -1.
         -6    1    1    2    0  503 -0.60491708069E+02 -0.26747663514E+02 -0.48202924555E+03  0.51638733312E+03  0.17300000000E+03 0. -1.
</event>
<event>
 4    1  0.6197496E+000  0.1000000E+03  0.7546771E-02  0.1280296E+00
         21   -1    0    0  501  502  0.00000000000E+00  0.00000000000E+00  0.61445394190E+02  0.61445394190E+02  0.00000000000E+00 0.  1.
         21   -1    0    0  502  503 -0.00000000000E+00 -0.00000000000E+00 -0.67600957021E+03  0.67600957021E+03  0.00000000000E+00 0.  1.
          6    1    1    2  501    0 -0.85929032218E+02  0.63966618945E+02 -0.28640590524E+03  0.35133014313E+03  0.17300000000E+03 0.  1.
         -6    1    1    2    0  503  0.85929032218E+02 -0.63966618945E+02 -0.32815827078E+03  0.38612482126E+03  0.17300000000E+03 0.  1.
</event>
<event>
 4    1  0.6197496E+000  0.1000000E+03  0.7546771E-02  0.1280296E+00
         21   -1    0    0  501  502  0.00000000000E+00  0.00000000000E+00  0.22999175604E+03  0.22999175604E+03  0.00000000000E+00 0. -1.
         21   -1    0    0  502  503 -0.00000000000E+00 -0.00000000000E+00 -0.21261877647E+03  0.21261877647E+03  0.00000000000E+00 0.  1.
          6    1    1    2  501    0  0.59354688700E+02 -0.15168847822E+02  0.13214488506E+03  0.22615115225E+03  0.17300000000E+03 0. -1.
         -6    1    1    2    0  503 -0.59354688700E+02  0.15168847822E+02 -0.11477190549E+03  0.21645938026E+03  0.17300000000E+03 0. -1.
</event>
<event>
 4    1  0.6197496E+000  0.1000000E+03  0.7546771E-02  0.1280296E+00
         21   -1    0    0  501  502  0.00000000000E+00  0.00000000000E+00  0.42752030807E+03  0.42752030807E+03  0.00000000000E+00 0. -1.
         21   -1    0    0  502  503 -0.00000000000E+00 -0.00000000000E+00 -0.98082708332E+02  0.98082708332E+02  0.00000000000E+00 0.  1.
          6    1    1    2  501    0 -0.80011391544E+02  0.43536086043E+02  0.24284810051E+03  0.31177141224E+03  0.17300000000E+03 0. -1.
         -6    1    1    2    0  503  0.80011391544E+02 -0.43536086043E+02  0.86589499229E+02  0.21383160417E+03  0.17300000000E+03 0. -1.
</event>
<event>
 4    1  0.6197496E+000  0.1000000E+03  0.7546771E-02  0.1280296E+00
         21   -1    0    0  501  502  0.00000000000E+00  0.00000000000E+00  0.51387048399E+03  0.51387048399E+03  0.00000000000E+00 0. -1.
         21   -1    0    0  502  503 -0.00000000000E+00 -0.00000000000E+00 -0.21420851979E+03  0.21420851979E+03  0.00000000000E+00 0.  1.
          6    1    1    2  501    0 -0.20161476640E+02  0.18703181945E+03  0.38196764162E+03  0.45958205564E+03  0.17300000000E+03 0. -1.
         -6    1    1    2    0  503  0.20161476640E+02 -0.18703181945E+03 -0.82305677422E+02  0.26849694814E+03  0.17300000000E+03 0. -1.
</event>
<event>
 4    1  0.6197496E+000  0.1000000E+03  0.7546771E-02  0.1280296E+00
         21   -1    0    0  501  502  0.00000000000E+00  0.00000000000E+00  0.20570154951E+03  0.20570154951E+03  0.00000000000E+00 0.  1.
         21   -1    0    0  502  503 -0.00000000000E+00 -0.00000000000E+00 -0.43464718357E+03  0.43464718357E+03  0.00000000000E+00 0.  1.
          6    1    1    2  501    0  0.79026630506E+02 -0.16896304318E+03  0.53761604889E+02  0.26002505350E+03  0.17300000000E+03 0.  1.
         -6    1    1    2    0  503 -0.79026630506E+02  0.16896304318E+03 -0.28270723895E+03  0.38032367957E+03  0.17300000000E+03 0.  1.
</event>
<event>
 4    1  0.6197496E+000  0.1000000E+03  0.7546771E-02  0.1280296E+00
         21   -1    0    0  501  502  0.00000000000E+00  0.00000000000E+00  0.41717634171E+03  0.41717634171E+03  0.00000000000E+00 0.  1.
         21   -1    0    0  502  503 -0.00000000000E+00 -0.00000000000E+00 -0.12398137884E+03  0.12398137884E+03  0.00000000000E+00 0.  1.
          6    1    1    2  501    0  0.40108043436E+01 -0.89427649617E+02  0.28625868746E+03  0.34624619451E+03  0.17300000000E+03 0.  1.
         -6    1    1    2    0  503 -0.40108043436E+01  0.89427649617E+02  0.69362754053E+01  0.19491152604E+03  0.17300000000E+03 0.  1.
</event>
<event>
 4    1  0.6197496E+000  0.1000000E+03  0.7546771E-02  0.1280296E+00
         21   -1    0    0  503  502  0.00000000000E+00  0.00000000000E+00  0.69018085302E+03  0.69018085302E+03  0.00000000000E+00 0. -1.
         21   -1    0    0  501  503 -0.00000000000E+00 -0.00000000000E+00 -0.64287935060E+02  0.64287935060E+02  0.00000000000E+00 0. -1.
          6    1    1    2  501    0 -0.10350829365E+02 -0.79860105411E+02  0.15320162324E+03  0.24471312484E+03  0.17300000000E+03 0. -1.
         -6    1    1    2    0  502  0.10350829365E+02  0.79860105411E+02  0.47269129472E+03  0.50975566324E+03  0.17300000000E+03 0. -1.
</event>
<event>
 4    1  0.6197496E+000  0.1000000E+03  0.7546771E-02  0.1280296E+00
         21   -1    0    0  503  502  0.00000000000E+00  0.00000000000E+00  0.24853568574E+03  0.24853568574E+03  0.00000000000E+00 0. -1.
         21   -1    0    0  501  503 -0.00000000000E+00 -0.00000000000E+00 -0.86587531590E+03  0.86587531590E+03  0.00000000000E+00 0. -1.
          6    1    1    2  501    0 -0.17350451883E+03 -0.74627557945E+02 -0.77324651978E+03  0.81456262547E+03  0.17300000000E+03 0. -1.
         -6    1    1    2    0  502  0.17350451883E+03  0.74627557945E+02  0.15590688962E+03  0.29984837617E+03  0.17300000000E+03 0. -1.
</event>
<event>
 4    1  0.6197496E+000  0.1000000E+03  0.7546771E-02  0.1280296E+00
         21   -1    0    0  501  502  0.00000000000E+00  0.00000000000E+00  0.15873497754E+03  0.15873497754E+03  0.00000000000E+00 0. -1.
         21   -1    0    0  502  503 -0.00000000000E+00 -0.00000000000E+00 -0.29135807218E+03  0.29135807218E+03  0.00000000000E+00 0. -1.
          6    1    1    2  501    0 -0.10177030076E+03 -0.60715159660E+02 -0.11623756688E+03  0.23975757899E+03  0.17300000000E+03 0.  1.
         -6    1    1    2    0  503  0.10177030076E+03  0.60715159660E+02 -0.16385527767E+02  0.21033547074E+03  0.17300000000E+03 0.  1.
</event>
<event>
 4    1  0.6197496E+000  0.1000000E+03  0.7546771E-02  0.1280296E+00
         21   -1    0    0  501  502  0.00000000000E+00  0.00000000000E+00  0.33675908875E+03  0.33675908875E+03  0.00000000000E+00 0. -1.
         21   -1    0    0  502  503 -0.00000000000E+00 -0.00000000000E+00 -0.37374198690E+03  0.37374198690E+03  0.00000000000E+00 0. -1.
          6    1    1    2  501    0  0.23775887265E+02 -0.72514886283E+01  0.29065751065E+03  0.33915876135E+03  0.17300000000E+03 0.  1.
         -6    1    1    2    0  503 -0.23775887265E+02  0.72514886283E+01 -0.32764040881E+03  0.37134231429E+03  0.17300000000E+03 0.  1.
</event>
<event>
 4    1  0.6197496E+000  0.1000000E+03  0.7546771E-02  0.1280296E+00
         21   -1    0    0  501  502  0.00000000000E+00  0.00000000000E+00  0.56259962005E+03  0.56259962005E+03  0.00000000000E+00 0.  1.
         21   -1    0    0  502  503 -0.00000000000E+00 -0.00000000000E+00 -0.10593563231E+03  0.10593563231E+03  0.00000000000E+00 0. -1.
          6    1    1    2  501    0 -0.32429928167E+02  0.22620565674E+01  0.45994304793E+03  0.49247682633E+03  0.17300000000E+03 0.  1.
         -6    1    1    2    0  503  0.32429928167E+02 -0.22620565674E+01 -0.32790601894E+01  0.17605842603E+03  0.17300000000E+03 0. -1.
</event>
<event>
 4    1  0.6197496E+000  0.1000000E+03  0.7546771E-02  0.1280296E+00
         21   -1    0    0  501  502  0.00000000000E+00  0.00000000000E+00  0.26019094605E+03  0.26019094605E+03  0.00000000000E+00 0.  1.
         21   -1    0    0  502  503 -0.00000000000E+00 -0.00000000000E+00 -0.14851195011E+03  0.14851195011E+03  0.00000000000E+00 0. -1.
          6    1    1    2  501    0 -0.40137249077E+02 -0.84202369627E+02  0.52325376617E+02  0.20339120643E+03  0.17300000000E+03 0.  1.
         -6    1    1    2    0  503  0.40137249077E+02  0.84202369627E+02  0.59353619330E+02  0.20531168973E+03  0.17300000000E+03 0. -1.
</event>
<event>
 4    1  0.6197496E+000  0.1000000E+03  0.7546771E-02  0.1280296E+00
         21   -1    0    0  503  502  0.00000000000E+00  0.00000000000E+00  0.40524010455E+03  0.40524010455E+03  0.00000000000E+00 0. -1.
         21   -1    0    0  501  503 -0.00000000000E+00 -0.00000000000E+00 -0.10682496614E+03  0.10682496614E+03  0.00000000000E+00 0.  1.
          6    1    1    2  501    0 -0.76685293941E+02 -0.35817991005E+02  0.52335128996E+02  0.19957837687E+03  0.17300000000E+03 0.  1.
         -6    1    1    2    0  502  0.76685293941E+02  0.35817991005E+02  0.24608000941E+03  0.31248669383E+03  0.17300000000E+03 0. -1.
</event>
<event>
 4    1  0.6197496E+000  0.1000000E+03  0.7546771E-02  0.1280296E+00
         21   -1    0    0  503  502  0.00000000000E+00  0.00000000000E+00  0.11642415009E+04  0.11642415009E+04  0.00000000000E+00 0. -1.
         21   -1    0    0  501  503 -0.00000000000E+00 -0.00000000000E+00 -0.12127344923E+03  0.12127344923E+03  0.00000000000E+00 0. -1.
          6    1    1    2  501    0  0.76653945124E+02 -0.17381105783E+03  0.52472298992E+02  0.26223739872E+03  0.17300000000E+03 0. -1.
         -6    1    1    2    0  502 -0.76653945124E+02  0.17381105783E+03  0.99049575267E+03  0.10232775514E+04  0.17300000000E+03 0. -1.
</event>
<event>
 4    1  0.6197496E+000  0.1000000E+03  0.7546771E-02  0.1280296E+00
         21   -1    0    0  503  502  0.00000000000E+00  0.00000000000E+00  0.51944516111E+03  0.51944516111E+03  0.00000000000E+00 0. -1.
         21   -1    0    0  501  503 -0.00000000000E+00 -0.00000000000E+00 -0.36545626745E+03  0.36545626745E+03  0.00000000000E+00 0. -1.
          6    1    1    2  501    0 -0.64606763798E+02 -0.15459965722E+03 -0.29171573337E+03  0.37828845744E+03  0.17300000000E+03 0. -1.
         -6    1    1    2    0  502  0.64606763798E+02  0.15459965722E+03  0.44570462703E+03  0.50661297111E+03  0.17300000000E+03 0. -1.
</event>
<event>
 4    1  0.6197496E+000  0.1000000E+03  0.7546771E-02  0.1280296E+00
         21   -1    0    0  503  502  0.00000000000E+00  0.00000000000E+00  0.15181802536E+04  0.15181802536E+04  0.00000000000E+00 0.  1.
         21   -1    0    0  501  503 -0.00000000000E+00 -0.00000000000E+00 -0.36128196816E+02  0.36128196816E+02  0.00000000000E+00 0.  1.
          6    1    1    2  501    0  0.38604139165E+01  0.13314823740E+03  0.45990936846E+03  0.50910606274E+03  0.17300000000E+03 0.  1.
         -6    1    1    2    0  502 -0.38604139165E+01 -0.13314823740E+03  0.10221426884E+04  0.10452023877E+04  0.17300000000E+03 0.  1.
</event>
<event>
 4    1  0.6197496E+000  0.1000000E+03  0.7546771E-02  0.1280296E+00
         21   -1    0    0  501  502  0.00000000000E+00  0.00000000000E+00  0.43855295515E+02  0.43855295515E+02  0.00000000000E+00 0. -1.
         21   -1    0    0  502  503 -0.00000000000E+00 -0.00000000000E+00 -0.11557115418E+04  0.11557115418E+04  0.00000000000E+00 0. -1.
          6    1    1    2  501    0  0.58513525166E+02 -0.11414340675E+03 -0.38117690096E+03  0.43780975293E+03  0.17300000000E+03 0. -1.
         -6    1    1    2    0  503 -0.58513525166E+02  0.11414340675E+03 -0.73067934528E+03  0.76175708434E+03  0.17300000000E+03 0. -1.
</event>
<event>
 4    1  0.6197496E+000  0.1000000E+03  0.7546771E-02  0.1280296E+00
         21   -1    0    0  501  502  0.00000000000E+00  0.00000000000E+00  0.68190442099E+03  0.68190442099E+03  0.00000000000E+00 0. -1.
         21   -1    0    0  502  503 -0.00000000000E+00 -0.00000000000E+00 -0.80290285340E+02  0.80290285340E+02  0.00000000000E+00 0. -1.
          6    1    1    2  501    0 -0.11521005821E+03  0.10155507149E+03  0.35803263016E+03  0.42626652967E+03  0.17300000000E+03 0. -1.
         -6    1    1    2    0  503  0.11521005821E+03 -0.10155507149E+03  0.24358150549E+03  0.33592817666E+03  0.17300000000E+03 0. -1.
</event>
<event>
 4    1  0.6197496E+000  0.1000000E+03  0.7546771E-02  0.1280296E+00
         21   -1    0    0  501  502  0.00000000000E+00  0.00000000000E+00  0.18789314505E+03  0.18789314505E+03  0.00000000000E+00 0. -1.
         21   -1    0    0  502  503 -0.00000000000E+00 -0.00000000000E+00 -0.22522842698E+03  0.22522842698E+03  0.00000000000E+00 0. -1.
          6    1    1    2  501    0 -0.10656097011E+03  0.13216106403E+02 -0.48113408735E+02  0.20922190593E+03  0.17300000000E+03 0. -1.
         -6    1    1    2    0  503  0.10656097011E+03 -0.13216106403E+02  0.10778126811E+02  0.20389966610E+03  0.17300000000E+03 0. -1.
</event>
<event>
 4    1  0.6197496E+000  0.1000000E+03  0.7546771E-02  0.1280296E+00
         21   -1    0    0  503  502  0.00000000000E+00  0.00000000000E+00  0.14605882866E+04  0.14605882866E+04  0.00000000000E+00 0.  1.
         21   -1    0    0  501  503 -0.00000000000E+00 -0.00000000000E+00 -0.38643811423E+02  0.38643811423E+02  0.00000000000E+00 0.  1.
          6    1    1    2  501    0  0.13314900368E+03 -0.42856737338E+02  0.44796023961E+03  0.50016270692E+03  0.17300000000E+03 0.  1.
         -6    1    1    2    0  502 -0.13314900368E+03  0.42856737338E+02  0.97398423553E+03  0.99906939107E+03  0.17300000000E+03 0.  1.
</event>
<event>
 4    1  0.6197496E+000  0.1000000E+03  0.7546771E-02  0.1280296E+00
         21   -1    0    0  503  502  0.00000000000E+00  0.00000000000E+00  0.16848815066E+03  0.16848815066E+03  0.00000000000E+00 0.  1.
         21   -1    0    0  501  503 -0.00000000000E+00 -0.00000000000E+00 -0.22538755495E+03  0.22538755495E+03  0.00000000000E+00 0.  1.
          6    1    1    2  501    0 -0.43125213291E+02  0.36800730651E+02 -0.98699562199E+02  0.20708616896E+03  0.17300000000E+03 0.  1.
         -6    1    1    2    0  502  0.43125213291E+02 -0.36800730651E+02  0.41800157908E+02  0.18678953664E+03  0.17300000000E+03 0.  1.
</event>
<event>
 4    1  0.6197496E+000  0.1000000E+03  0.7546771E-02  0.1280296E+00
         21   -1    0    0  501  502  0.00000000000E+00  0.00000000000E+00  0.30889523174E+03  0.30889523174E+03  0.00000000000E+00 0. -1.
         21   -1    0    0  502  503 -0.00000000000E+00 -0.00000000000E+00 -0.28600227524E+04  0.28600227524E+04  0.00000000000E+00 0. -1.
          6    1    1    2  501    0 -0.52516679530E+03 -0.29631276899E+03 -0.95645562616E+02  0.63456953409E+03  0.17300000000E+03 0. -1.
         -6    1    1    2    0  503  0.52516679530E+03  0.29631276899E+03 -0.24554819580E+04  0.25343484500E+04  0.17300000000E+03 0. -1.
</event>
<event>
 4    1  0.6197496E+000  0.1000000E+03  0.7546771E-02  0.1280296E+00
         21   -1    0    0  501  502  0.00000000000E+00  0.00000000000E+00  0.10009160139E+03  0.10009160139E+03  0.00000000000E+00 0. -1.
         21   -1    0    0  502  503 -0.00000000000E+00 -0.00000000000E+00 -0.79798329943E+03  0.79798329943E+03  0.00000000000E+00 0. -1.
          6    1    1    2  501    0 -0.14718433793E+03  0.70715048721E+02 -0.10652773106E+03  0.26065495378E+03  0.17300000000E+03 0. -1.
         -6    1    1    2    0  503  0.14718433793E+03 -0.70715048721E+02 -0.59136396698E+03  0.63741994704E+03  0.17300000000E+03 0. -1.
</event>
<event>
 4    1  0.6197496E+000  0.1000000E+03  0.7546771E-02  0.1280296E+00
         21   -1    0    0  501  502  0.00000000000E+00  0.00000000000E+00  0.68562507467E+02  0.68562507467E+02  0.00000000000E+00 0.  1.
         21   -1    0    0  502  503 -0.00000000000E+00 -0.00000000000E+00 -0.56853301492E+03  0.56853301492E+03  0.00000000000E+00 0. -1.
          6    1    1    2  501    0  0.56465297620E+02  0.73047531084E+02 -0.28701638274E+03  0.34760850910E+03  0.17300000000E+03 0.  1.
         -6    1    1    2    0  503 -0.56465297620E+02 -0.73047531084E+02 -0.21295412471E+03  0.28948701329E+03  0.17300000000E+03 0. -1.
</event>
<event>
 4    1  0.6197496E+000  0.1000000E+03  0.7546771E-02  0.1280296E+00
         21   -1    0    0  501  502  0.00000000000E+00  0.00000000000E+00  0.24578217529E+04  0.24578217529E+04  0.00000000000E+00 0.  1.
         21   -1    0    0  502  503 -0.00000000000E+00 -0.00000000000E+00 -0.22968646434E+02  0.22968646434E+02  0.00000000000E+00 0. -1.
          6    1    1    2  501    0  0.56627744241E+02  0.64010229291E+02  0.19411821445E+04  0.19507488636E+04  0.17300000000E+03 0.  1.
         -6    1    1    2    0  503 -0.56627744241E+02 -0.64010229291E+02  0.49367096197E+03  0.53004153570E+03  0.17300000000E+03 0. -1.
</event>
<event>
 4    1  0.6197496E+000  0.1000000E+03  0.7546771E-02  0.1280296E+00
         21   -1    0    0  501  502  0.00000000000E+00  0.00000000000E+00  0.50215242990E+03  0.50215242990E+03  0.00000000000E+00 0.  1.
         21   -1    0    0  502  503 -0.00000000000E+00 -0.00000000000E+00 -0.32141537814E+03  0.32141537814E+03  0.00000000000E+00 0. -1.
          6    1    1    2  501    0  0.29584901204E+02  0.21706200871E+03  0.38651579820E+03  0.47677525551E+03  0.17300000000E+03 0.  1.
         -6    1    1    2    0  503 -0.29584901204E+02 -0.21706200871E+03 -0.20577874644E+03  0.34679255253E+03  0.17300000000E+03 0. -1.
</event>
<event>
 4    1  0.6197496E+000  0.1000000E+03  0.7546771E-02  0.1280296E+00
         21   -1    0    0  503  502  0.00000000000E+00  0.00000000000E+00  0.17502709402E+03  0.17502709402E+03  0.00000000000E+00 0.  1.
         21   -1    0    0  501  503 -0.00000000000E+00 -0.00000000000E+00 -0.65088711115E+03  0.65088711115E+03  0.00000000000E+00 0.  1.
          6    1    1    2  501    0 -0.14510042100E+03  0.19326863417E+03 -0.43363819788E+03  0.52571663831E+03  0.17300000000E+03 0. -1.
         -6    1    1    2    0  502  0.14510042100E+03 -0.19326863417E+03 -0.42221819239E+02  0.30019756686E+03  0.17300000000E+03 0. -1.
</event>
<event>
 4    1  0.6197496E+000  0.1000000E+03  0.7546771E-02  0.1280296E+00
         21   -1    0    0  503  502  0.00000000000E+00  0.00000000000E+00  0.38024114077E+03  0.38024114077E+03  0.00000000000E+00 0.  1.
         21   -1    0    0  501  503 -0.00000000000E+00 -0.00000000000E+00 -0.10634117053E+03  0.10634117053E+03  0.00000000000E+00 0.  1.
          6    1    1    2  501    0  0.76808808730E+02 -0.65471464159E+02  0.11530064347E+03  0.23110461723E+03  0.17300000000E+03 0.  1.
         -6    1    1    2    0  502 -0.76808808730E+02  0.65471464159E+02  0.15859932677E+03  0.25547769408E+03  0.17300000000E+03 0.  1.
</event>
<event>
 4    1  0.6197496E+000  0.1000000E+03  0.7546771E-02  0.1280296E+00
         21   -1    0    0  503  502  0.00000000000E+00  0.00000000000E+00  0.76421155463E+02  0.76421155463E+02  0.00000000000E+00 0.  1.
         21   -1    0    0  501  503 -0.00000000000E+00 -0.00000000000E+00 -0.10011776659E+04  0.10011776659E+04  0.00000000000E+00 0. -1.
          6    1    1    2  501    0  0.92504852565E+02 -0.95539180224E+02 -0.79350415677E+03  0.82295973748E+03  0.17300000000E+03 0. -1.
         -6    1    1    2    0  502 -0.92504852565E+02  0.95539180224E+02 -0.13125235371E+03  0.25463908392E+03  0.17300000000E+03 0.  1.
</event>
<event>
 4    1  0.6197496E+000  0.1000000E+03  0.7546771E-02  0.1280296E+00
         21   -1    0    0  503  502  0.00000000000E+00  0.00000000000E+00  0.78223569392E+03  0.78223569392E+03  0.00000000000E+00 0.  1.
         21   -1    0    0  501  503 -0.00000000000E+00 -0.00000000000E+00 -0.53010084118E+02  0.53010084118E+02  0.00000000000E+00 0. -1.
          6    1    1    2  501    0  0.47952237411E+02 -0.93630319784E+02  0.32008851853E+03  0.37875019940E+03  0.17300000000E+03 0. -1.
         -6    1    1    2    0  502 -0.47952237411E+02  0.93630319784E+02  0.40913709127E+03  0.45649557863E+03  0.17300000000E+03 0.  1.
</event>
<event>
 4    1  0.6197496E+000  0.1000000E+03  0.7546771E-02  0.1280296E+00
         21   -1    0    0  501  502  0.00000000000E+00  0.00000000000E+00  0.10868170349E+03  0.10868170349E+03  0.00000000000E+00 0.  1.
         21   -1    0    0  502  503 -0.00000000000E+00 -0.00000000000E+00 -0.43338918634E+03  0.43338918634E+03  0.00000000000E+00 0.  1.
          6    1    1    2  501    0 -0.24522434059E+02  0.12866427908E+03 -0.15726118082E+03  0.26798493517E+03  0.17300000000E+03 0.  1.
         -6    1    1    2    0  503  0.24522434059E+02 -0.12866427908E+03 -0.16744630202E+03  0.27408595466E+03  0.17300000000E+03 0.  1.
</event>
<event>
 4    1  0.6197496E+000  0.1000000E+03  0.7546771E-02  0.1280296E+00
         21   -1    0    0  501  502  0.00000000000E+00  0.00000000000E+00  0.52462824100E+03  0.52462824100E+03  0.00000000000E+00 0.  1.
         21   -1    0    0  502  503 -0.00000000000E+00 -0.00000000000E+00 -0.13964057347E+03  0.13964057347E+03  0.00000000000E+00 0.  1.
          6    1    1    2  501    0  0.68769816081E+02  0.43293742552E+02  0.42765926898E+03  0.46842831479E+03  0.17300000000E+03 0.  1.
         -6    1    1    2    0  503 -0.68769816081E+02 -0.43293742552E+02 -0.42671601455E+02  0.19584049969E+03  0.17300000000E+03 0.  1.
</event>
<event>
 4    1  0.6197496E+000  0.1000000E+03  0.7546771E-02  0.1280296E+00
         21   -1    0    0  501  502  0.00000000000E+00  0.00000000000E+00  0.19938430510E+03  0.19938430510E+03  0.00000000000E+00 0.  1.
         21   -1    0    0  502  503 -0.00000000000E+00 -0.00000000000E+00 -0.18133526447E+03  0.18133526447E+03  0.00000000000E+00 0.  1.
          6    1    1    2  501    0 -0.62059432319E+02 -0.44828352129E+02 -0.10113781603E+02  0.18945248183E+03  0.17300000000E+03 0.  1.
         -6    1    1    2    0  503  0.62059432319E+02  0.44828352129E+02  0.28162822238E+02  0.19126708774E+03  0.17300000000E+03 0.  1.
</event>
<event>
 4    1  0.6197496E+000  0.1000000E+03  0.7546771E-02  0.1280296E+00
         21   -1    0    0  501  502  0.00000000000E+00  0.00000000000E+00  0.81201540622E+03  0.81201540622E+03  0.00000000000E+00 0.  1.
         21   -1    0    0  502  503 -0.00000000000E+00 -0.00000000000E+00 -0.47383373921E+02  0.47383373921E+02  0.00000000000E+00 0.  1.
          6    1    1    2  501    0 -0.86123707675E+02  0.21292616838E+02  0.43928768120E+03  0.48038873364E+03  0.17300000000E+03 0.  1.
         -6    1    1    2    0  503  0.86123707675E+02 -0.21292616838E+02  0.32534435109E+03  0.37901004650E+03  0.17300000000E+03 0.  1.
</event>
<event>
 4    1  0.6197496E+000  0.1000000E+03  0.7546771E-02  0.1280296E+00
         21   -1    0    0  501  502  0.00000000000E+00  0.00000000000E+00  0.26595063625E+03  0.26595063625E+03  0.00000000000E+00 0. -1.
         21   -1    0    0  502  503 -0.00000000000E+00 -0.00000000000E+00 -0.37018903945E+03  0.37018903945E+03  0.00000000000E+00 0.  1.
          6    1    1    2  501    0 -0.23579709121E+03 -0.66168637763E+02  0.41583549911E+02  0.30271562310E+03  0.17300000000E+03 0. -1.
         -6    1    1    2    0  503  0.23579709121E+03  0.66168637763E+02 -0.14582195310E+03  0.33342405260E+03  0.17300000000E+03 0.  1.
</event>
<event>
 4    1  0.6197496E+000  0.1000000E+03  0.7546771E-02  0.1280296E+00
         21   -1    0    0  501  502  0.00000000000E+00  0.00000000000E+00  0.54252436611E+02  0.54252436611E+02  0.00000000000E+00 0. -1.
         21   -1    0    0  502  503 -0.00000000000E+00 -0.00000000000E+00 -0.10250293458E+04  0.10250293458E+04  0.00000000000E+00 0.  1.
          6    1    1    2  501    0 -0.89042327488E+02  0.47848199411E+02 -0.20082513599E+03  0.28368595580E+03  0.17300000000E+03 0. -1.
         -6    1    1    2    0  503  0.89042327488E+02 -0.47848199411E+02 -0.76995177316E+03  0.79559582658E+03  0.17300000000E+03 0.  1.
</event>
<event>
 4    1  0.6197496E+000  0.1000000E+03  0.7546771E-02  0.1280296E+00
         21   -1    0    0  501  502  0.00000000000E+00  0.00000000000E+00  0.22323838281E+03  0.22323838281E+03  0.00000000000E+00 0. -1.
         21   -1    0    0  502  503 -0.00000000000E+00 -0.00000000000E+00 -0.47949665735E+03  0.47949665735E+03  0.00000000000E+00 0.  1.
          6    1    1    2  501    0  0.46913678653E+02  0.27021336170E+03 -0.81354859091E+02  0.33431088403E+03  0.17300000000E+03 0. -1.
         -6    1    1    2    0  503 -0.46913678653E+02 -0.27021336170E+03 -0.17490341545E+03  0.36842415613E+03  0.17300000000E+03 0.  1.
</event>
<event>
 4    1  0.6197496E+000  0.1000000E+03  0.7546771E-02  0.1280296E+00
         21   -1    0    0  501  502  0.00000000000E+00  0.00000000000E+00  0.11553225309E+03  0.11553225309E+03  0.00000000000E+00 0.  1.
         21   -1    0    0  502  503 -0.00000000000E+00 -0.00000000000E+00 -0.27492636106E+03  0.27492636106E+03  0.00000000000E+00 0.  1.
          6    1    1    2  501    0  0.26633023717E+00  0.30129384522E+02 -0.11303150560E+03  0.20883719018E+03  0.17300000000E+03 0.  1.
         -6    1    1    2    0  503 -0.26633023717E+00 -0.30129384522E+02 -0.46362602366E+02  0.18162142396E+03  0.17300000000E+03 0.  1.
</event>
<event>
 4    1  0.6197496E+000  0.1000000E+03  0.7546771E-02  0.1280296E+00
         21   -1    0    0  501  502  0.00000000000E+00  0.00000000000E+00  0.14477085762E+03  0.14477085762E+03  0.00000000000E+00 0.  1.
         21   -1    0    0  502  503 -0.00000000000E+00 -0.00000000000E+00 -0.78859182369E+03  0.78859182369E+03  0.00000000000E+00 0.  1.
          6    1    1    2  501    0 -0.13259559353E+03 -0.20589978286E+03 -0.10678227491E+03  0.31828880948E+03  0.17300000000E+03 0.  1.
         -6    1    1    2    0  503  0.13259559353E+03  0.20589978286E+03 -0.53703869115E+03  0.61507387182E+03  0.17300000000E+03 0.  1.
</event>
<event>
 4    1  0.6197496E+000  0.1000000E+03  0.7546771E-02  0.1280296E+00
         21   -1    0    0  503  502  0.00000000000E+00  0.00000000000E+00  0.54265537000E+03  0.54265537000E+03  0.00000000000E+00 0. -1.
         21   -1    0    0  501  503 -0.00000000000E+00 -0.00000000000E+00 -0.27596380051E+03  0.27596380051E+03  0.00000000000E+00 0. -1.
          6    1    1    2  501    0  0.29906174396E+02  0.74022730183E+02 -0.22291416342E+03  0.29324642897E+03  0.17300000000E+03 0. -1.
         -6    1    1    2    0  502 -0.29906174396E+02 -0.74022730183E+02  0.48960573291E+03  0.52537274153E+03  0.17300000000E+03 0. -1.
</event>
<event>
 4    1  0.6197496E+000  0.1000000E+03  0.7546771E-02  0.1280296E+00
         21   -1    0    0  503  502  0.00000000000E+00  0.00000000000E+00  0.29805069102E+03  0.29805069102E+03  0.00000000000E+00 0. -1.
         21   -1    0    0  501  503 -0.00000000000E+00 -0.00000000000E+00 -0.21111338227E+03  0.21111338227E+03  0.00000000000E+00 0. -1.
          6    1    1    2  501    0  0.17863486293E+03  0.31534422274E+02  0.53024683663E+02  0.25621368254E+03  0.17300000000E+03 0. -1.
         -6    1    1    2    0  502 -0.17863486293E+03 -0.31534422274E+02  0.33912625080E+02  0.25295039075E+03  0.17300000000E+03 0. -1.
</event>
<event>
 4    1  0.6197496E+000  0.1000000E+03  0.7546771E-02  0.1280296E+00
         21   -1    0    0  503  502  0.00000000000E+00  0.00000000000E+00  0.10620958403E+04  0.10620958403E+04  0.00000000000E+00 0.  1.
         21   -1    0    0  501  503 -0.00000000000E+00 -0.00000000000E+00 -0.52778480566E+02  0.52778480566E+02  0.00000000000E+00 0. -1.
          6    1    1    2  501    0 -0.13926854191E+03 -0.98931529375E+01  0.31290342273E+03  0.38383740463E+03  0.17300000000E+03 0. -1.
         -6    1    1    2    0  502  0.13926854191E+03  0.98931529375E+01  0.69641393698E+03  0.73103691621E+03  0.17300000000E+03 0.  1.
</event>
<event>
 4    1  0.6197496E+000  0.1000000E+03  0.7546771E-02  0.1280296E+00
         21   -1    0    0  503  502  0.00000000000E+00  0.00000000000E+00  0.12542477247E+03  0.12542477247E+03  0.00000000000E+00 0. -1.
         21   -1    0    0  501  503 -0.00000000000E+00 -0.00000000000E+00 -0.28564288631E+03  0.28564288631E+03  0.00000000000E+00 0.  1.
          6    1    1    2  501    0 -0.19897275795E+02 -0.43769026232E+02 -0.14513535220E+03  0.23087853885E+03  0.17300000000E+03 0. -1.
         -6    1    1    2    0  502  0.19897275795E+02  0.43769026232E+02 -0.15082761641E+02  0.18018911993E+03  0.17300000000E+03 0.  1.
</event>
<event>
 4    1  0.6197496E+000  0.1000000E+03  0.7546771E-02  0.1280296E+00
         21   -1    0    0  503  502  0.00000000000E+00  0.00000000000E+00  0.12127519445E+03  0.12127519445E+03  0.00000000000E+00 0. -1.
         21   -1    0    0  501  503 -0.00000000000E+00 -0.00000000000E+00 -0.79156492209E+03  0.79156492209E+03  0.00000000000E+00 0.  1.
          6    1    1    2  501    0  0.61241951971E+02 -0.24792111879E+03 -0.29212770236E+03  0.42483296990E+03  0.17300000000E+03 0. -1.
         -6    1    1    2    0  502 -0.61241951971E+02  0.24792111879E+03 -0.37816202527E+03  0.48800714665E+03  0.17300000000E+03 0.  1.
</event>
<event>
 4    1  0.6197496E+000  0.1000000E+03  0.7546771E-02  0.1280296E+00
         21   -1    0    0  503  502  0.00000000000E+00  0.00000000000E+00  0.56274988129E+03  0.56274988129E+03  0.00000000000E+00 0.  1.
         21   -1    0    0  501  503 -0.00000000000E+00 -0.00000000000E+00 -0.44312677433E+03  0.44312677433E+03  0.00000000000E+00 0. -1.
          6    1    1    2  501    0 -0.19998992378E+03  0.94233502656E+01 -0.36671955243E+03  0.45221344438E+03  0.17300000000E+03 0. -1.
         -6    1    1    2    0  502  0.19998992378E+03 -0.94233502656E+01  0.48634265939E+03  0.55366321125E+03  0.17300000000E+03 0.  1.
</event>
<event>
 4    1  0.6197496E+000  0.1000000E+03  0.7546771E-02  0.1280296E+00
         21   -1    0    0  503  502  0.00000000000E+00  0.00000000000E+00  0.17503578684E+03  0.17503578684E+03  0.00000000000E+00 0.  1.
         21   -1    0    0  501  503 -0.00000000000E+00 -0.00000000000E+00 -0.62739082044E+03  0.62739082044E+03  0.00000000000E+00 0. -1.
          6    1    1    2  501    0  0.98867467030E+02 -0.24754955117E+03 -0.33995462269E+03  0.46535330858E+03  0.17300000000E+03 0. -1.
         -6    1    1    2    0  502 -0.98867467030E+02  0.24754955117E+03 -0.11240041092E+03  0.33707329870E+03  0.17300000000E+03 0.  1.
</event>
<event>
 4    1  0.6197496E+000  0.1000000E+03  0.7546771E-02  0.1280296E+00
         21   -1    0    0  503  502  0.00000000000E+00  0.00000000000E+00  0.80298261818E+03  0.80298261818E+03  0.00000000000E+00 0.  1.
         21   -1    0    0  501  503 -0.00000000000E+00 -0.00000000000E+00 -0.94679346517E+02  0.94679346517E+02  0.00000000000E+00 0. -1.
          6    1    1    2  501    0  0.20146311537E+02  0.28859363755E+02  0.93869884420E+01  0.17679324732E+03  0.17300000000E+03 0. -1.
         -6    1    1    2    0  502 -0.20146311537E+02 -0.28859363755E+02  0.69891628322E+03  0.72086871738E+03  0.17300000000E+03 0.  1.
</event>
<event>
 4    1  0.6197496E+000  0.1000000E+03  0.7546771E-02  0.1280296E+00
         21   -1    0    0  503  502  0.00000000000E+00  0.00000000000E+00  0.86690575697E+02  0.86690575697E+02  0.00000000000E+00 0. -1.
         21   -1    0    0  501  503 -0.00000000000E+00 -0.00000000000E+00 -0.43412948795E+03  0.43412948795E+03  0.00000000000E+00 0.  1.
          6    1    1    2  501    0  0.40882670850E+02  0.14572455626E+02 -0.27614426492E+03  0.32873759184E+03  0.17300000000E+03 0.  1.
         -6    1    1    2    0  502 -0.40882670850E+02 -0.14572455626E+02 -0.71294647334E+02  0.19208247181E+03  0.17300000000E+03 0. -1.
</event>
<event>
 4    1  0.6197496E+000  0.1000000E+03  0.7546771E-02  0.1280296E+00
         21   -1    0    0  503  502  0.00000000000E+00  0.00000000000E+00  0.13477237450E+04  0.13477237450E+04  0.00000000000E+00 0. -1.
         21   -1    0    0  501  503 -0.00000000000E+00 -0.00000000000E+00 -0.93414866479E+02  0.93414866479E+02  0.00000000000E+00 0.  1.
          6    1    1    2  501    0 -0.43276639760E+02  0.30217557137E+03  0.51997335710E+03  0.62728321799E+03  0.17300000000E+03 0.  1.
         -6    1    1    2    0  502  0.43276639760E+02 -0.30217557137E+03  0.73433552137E+03  0.81385539344E+03  0.17300000000E+03 0. -1.
</event>
<event>
 4    1  0.6197496E+000  0.1000000E+03  0.7546771E-02  0.1280296E+00
         21   -1    0    0  503  502  0.00000000000E+00  0.00000000000E+00  0.12687419040E+04  0.12687419040E+04  0.00000000000E+00 0. -1.
         21   -1    0    0  501  503 -0.00000000000E+00 -0.00000000000E+00 -0.13333402593E+03  0.13333402593E+03  0.00000000000E+00 0.  1.
          6    1    1    2  501    0 -0.11041701355E+02  0.80608711004E+02 -0.53001113521E+02  0.19838800743E+03  0.17300000000E+03 0.  1.
         -6    1    1    2    0  502  0.11041701355E+02 -0.80608711004E+02  0.11884089916E+04  0.12036879225E+04  0.17300000000E+03 0. -1.
</event>
<event>
 4    1  0.6197496E+000  0.1000000E+03  0.7546771E-02  0.1280296E+00
         21   -1    0    0  503  502  0.00000000000E+00  0.00000000000E+00  0.13092440634E+04  0.13092440634E+04  0.00000000000E+00 0. -1.
         21   -1    0    0  501  503 -0.00000000000E+00 -0.00000000000E+00 -0.38868903329E+02  0.38868903329E+02  0.00000000000E+00 0.  1.
          6    1    1    2  501    0 -0.78702917585E+00  0.70822311901E+02  0.25789683613E+03  0.31852189464E+03  0.17300000000E+03 0. -1.
         -6    1    1    2    0  502  0.78702917585E+00 -0.70822311901E+02  0.10124783239E+04  0.10295910721E+04  0.17300000000E+03 0.  1.
</event>
<event>
 4    1  0.6197496E+000  0.1000000E+03  0.7546771E-02  0.1280296E+00
         21   -1    0    0  501  502  0.00000000000E+00  0.00000000000E+00  0.31698723514E+03  0.31698723514E+03  0.00000000000E+00 0. -1.
         21   -1    0    0  502  503 -0.00000000000E+00 -0.00000000000E+00 -0.10940209055E+03  0.10940209055E+03  0.00000000000E+00 0.  1.
          6    1    1    2  501    0  0.49875230738E+02  0.14276671275E+02  0.15573707682E+03  0.23848354048E+03  0.17300000000E+03 0. -1.
         -6    1    1    2    0  503 -0.49875230738E+02 -0.14276671275E+02  0.51848067776E+02  0.18790578521E+03  0.17300000000E+03 0.  1.
</event>
<event>
 4    1  0.6197496E+000  0.1000000E+03  0.7546771E-02  0.1280296E+00
         21   -1    0    0  503  502  0.00000000000E+00  0.00000000000E+00  0.11178318613E+03  0.11178318613E+03  0.00000000000E+00 0.  1.
         21   -1    0    0  501  503 -0.00000000000E+00 -0.00000000000E+00 -0.83502495346E+03  0.83502495346E+03  0.00000000000E+00 0. -1.
          6    1    1    2  501    0  0.10052202213E+03 -0.22551596176E+03 -0.43832741533E+03  0.53199816633E+03  0.17300000000E+03 0. -1.
         -6    1    1    2    0  502 -0.10052202213E+03  0.22551596176E+03 -0.28491435200E+03  0.41480997327E+03  0.17300000000E+03 0.  1.
</event>
<event>
 4    1  0.6197496E+000  0.1000000E+03  0.7546771E-02  0.1280296E+00
         21   -1    0    0  503  502  0.00000000000E+00  0.00000000000E+00  0.13904894980E+03  0.13904894980E+03  0.00000000000E+00 0.  1.
         21   -1    0    0  501  503 -0.00000000000E+00 -0.00000000000E+00 -0.49118958615E+03  0.49118958615E+03  0.00000000000E+00 0. -1.
          6    1    1    2  501    0 -0.77735245762E+01 -0.17807393977E+03 -0.27402533039E+03  0.36985083129E+03  0.17300000000E+03 0. -1.
         -6    1    1    2    0  502  0.77735245762E+01  0.17807393977E+03 -0.78115305963E+02  0.26038770465E+03  0.17300000000E+03 0. -1.
</event>
<event>
 4    1  0.6197496E+000  0.1000000E+03  0.7546771E-02  0.1280296E+00
         21   -1    0    0  503  502  0.00000000000E+00  0.00000000000E+00  0.37129014139E+03  0.37129014139E+03  0.00000000000E+00 0.  1.
         21   -1    0    0  501  503 -0.00000000000E+00 -0.00000000000E+00 -0.12078520328E+03  0.12078520328E+03  0.00000000000E+00 0. -1.
          6    1    1    2  501    0  0.61576800180E+02 -0.62204867289E+02  0.26284906049E+02  0.19565542190E+03  0.17300000000E+03 0. -1.
         -6    1    1    2    0  502 -0.61576800180E+02  0.62204867289E+02  0.22422003206E+03  0.29641992277E+03  0.17300000000E+03 0. -1.
</event>
<event>
 4    1  0.6197496E+000  0.1000000E+03  0.7546771E-02  0.1280296E+00
         21   -1    0    0  501  502  0.00000000000E+00  0.00000000000E+00  0.64560842916E+02  0.64560842916E+02  0.00000000000E+00 0. -1.
         21   -1    0    0  502  503 -0.00000000000E+00 -0.00000000000E+00 -0.14773921955E+04  0.14773921955E+04  0.00000000000E+00 0.  1.
          6    1    1    2  501    0  0.19706420302E+03 -0.36315516404E+02 -0.30934737927E+03  0.40715834500E+03  0.17300000000E+03 0. -1.
         -6    1    1    2    0  503 -0.19706420302E+03  0.36315516404E+02 -0.11034839733E+04  0.11347946934E+04  0.17300000000E+03 0.  1.
</event>
<event>
 4    1  0.6197496E+000  0.1000000E+03  0.7546771E-02  0.1280296E+00
         21   -1    0    0  503  502  0.00000000000E+00  0.00000000000E+00  0.15566498512E+04  0.15566498512E+04  0.00000000000E+00 0. -1.
         21   -1    0    0  501  503 -0.00000000000E+00 -0.00000000000E+00 -0.37514781417E+02  0.37514781417E+02  0.00000000000E+00 0.  1.
          6    1    1    2  501    0 -0.10094052042E+03  0.87383009180E+02  0.41927629575E+03  0.47280692797E+03  0.17300000000E+03 0. -1.
         -6    1    1    2    0  502  0.10094052042E+03 -0.87383009180E+02  0.10998587740E+04  0.11213577046E+04  0.17300000000E+03 0. -1.
</event>
<event>
 4    1  0.6197496E+000  0.1000000E+03  0.7546771E-02  0.1280296E+00
         21   -1    0    0  503  502  0.00000000000E+00  0.00000000000E+00  0.52832384502E+02  0.52832384502E+02  0.00000000000E+00 0. -1.
         21   -1    0    0  501  503 -0.00000000000E+00 -0.00000000000E+00 -0.10107247448E+04  0.10107247448E+04  0.00000000000E+00 0.  1.
          6    1    1    2  501    0 -0.17997711781E+02  0.10013166142E+03 -0.21535750999E+03  0.29437752013E+03  0.17300000000E+03 0. -1.
         -6    1    1    2    0  502  0.17997711781E+02 -0.10013166142E+03 -0.74253485030E+03  0.76917960917E+03  0.17300000000E+03 0. -1.
</event>
<event>
 4    1  0.6197496E+000  0.1000000E+03  0.7546771E-02  0.1280296E+00
         21   -1    0    0  503  502  0.00000000000E+00  0.00000000000E+00  0.89761540758E+03  0.89761540758E+03  0.00000000000E+00 0.  1.
         21   -1    0    0  501  503 -0.00000000000E+00 -0.00000000000E+00 -0.90283342640E+02  0.90283342640E+02  0.00000000000E+00 0.  1.
          6    1    1    2  501    0  0.46743427552E+02 -0.10559622687E+03  0.66427718271E+02  0.21835098558E+03  0.17300000000E+03 0.  1.
         -6    1    1    2    0  502 -0.46743427552E+02  0.10559622687E+03  0.74090434667E+03  0.76954776464E+03  0.17300000000E+03 0.  1.
</event>
<event>
 4    1  0.6197496E+000  0.1000000E+03  0.7546771E-02  0.1280296E+00
         21   -1    0    0  503  502  0.00000000000E+00  0.00000000000E+00  0.13968193352E+04  0.13968193352E+04  0.00000000000E+00 0. -1.
         21   -1    0    0  501  503 -0.00000000000E+00 -0.00000000000E+00 -0.22697145242E+02  0.22697145242E+02  0.00000000000E+00 0. -1.
          6    1    1    2  501    0  0.32890891476E+02 -0.11929680792E+02  0.59351930859E+03  0.61920779848E+03  0.17300000000E+03 0. -1.
         -6    1    1    2    0  502 -0.32890891476E+02  0.11929680792E+02  0.78060288133E+03  0.80030868193E+03  0.17300000000E+03 0. -1.
</event>
<event>
 4    1  0.6197496E+000  0.1000000E+03  0.7546771E-02  0.1280296E+00
         21   -1    0    0  503  502  0.00000000000E+00  0.00000000000E+00  0.55647299968E+02  0.55647299968E+02  0.00000000000E+00 0. -1.
         21   -1    0    0  501  503 -0.00000000000E+00 -0.00000000000E+00 -0.58399356267E+03  0.58399356267E+03  0.00000000000E+00 0. -1.
          6    1    1    2  501    0  0.31640467987E+02  0.56511703833E+01 -0.19465139749E+03  0.26239516285E+03  0.17300000000E+03 0. -1.
         -6    1    1    2    0  502 -0.31640467987E+02 -0.56511703833E+01 -0.33369486521E+03  0.37724569979E+03  0.17300000000E+03 0. -1.
</event>
<event>
 4    1  0.6197496E+000  0.1000000E+03  0.7546771E-02  0.1280296E+00
         21   -1    0    0  501  502  0.00000000000E+00  0.00000000000E+00  0.33257405428E+03  0.33257405428E+03  0.00000000000E+00 0.  1.
         21   -1    0    0  502  503 -0.00000000000E+00 -0.00000000000E+00 -0.13183003214E+03  0.13183003214E+03  0.00000000000E+00 0. -1.
          6    1    1    2  501    0  0.34456049181E+02 -0.10948122549E+03  0.70186981735E+02  0.21915421617E+03  0.17300000000E+03 0.  1.
         -6    1    1    2    0  503 -0.34456049181E+02  0.10948122549E+03  0.13055704040E+03  0.24524987025E+03  0.17300000000E+03 0. -1.
</event>
<event>
 4    1  0.6197496E+000  0.1000000E+03  0.7546771E-02  0.1280296E+00
         21   -1    0    0  503  502  0.00000000000E+00  0.00000000000E+00  0.82606129695E+02  0.82606129695E+02  0.00000000000E+00 0.  1.
         21   -1    0    0  501  503 -0.00000000000E+00 -0.00000000000E+00 -0.54550729755E+03  0.54550729755E+03  0.00000000000E+00 0. -1.
          6    1    1    2  501    0  0.26216445541E+02  0.11263583723E+01 -0.40926033031E+03  0.44509728000E+03  0.17300000000E+03 0. -1.
         -6    1    1    2    0  502 -0.26216445541E+02 -0.11263583723E+01 -0.53640837548E+02  0.18301614725E+03  0.17300000000E+03 0.  1.
</event>
<event>
 4    1  0.6197496E+000  0.1000000E+03  0.7546771E-02  0.1280296E+00
         21   -1    0    0  501  502  0.00000000000E+00  0.00000000000E+00  0.62320315164E+03  0.62320315164E+03  0.00000000000E+00 0. -1.
         21   -1    0    0  502  503 -0.00000000000E+00 -0.00000000000E+00 -0.18859470743E+03  0.18859470743E+03  0.00000000000E+00 0. -1.
          6    1    1    2  501    0 -0.40548638500E+02  0.47523544177E+02  0.55983847996E+03  0.58927990207E+03  0.17300000000E+03 0. -1.
         -6    1    1    2    0  503  0.40548638500E+02 -0.47523544177E+02 -0.12523003575E+03  0.22251795701E+03  0.17300000000E+03 0. -1.
</event>
<event>
 4    1  0.6197496E+000  0.1000000E+03  0.7546771E-02  0.1280296E+00
         21   -1    0    0  501  502  0.00000000000E+00  0.00000000000E+00  0.36885047242E+02  0.36885047242E+02  0.00000000000E+00 0. -1.
         21   -1    0    0  502  503 -0.00000000000E+00 -0.00000000000E+00 -0.12955019137E+04  0.12955019137E+04  0.00000000000E+00 0. -1.
          6    1    1    2  501    0  0.12606454106E+03 -0.44255733275E+02 -0.62262396257E+03  0.65987910802E+03  0.17300000000E+03 0. -1.
         -6    1    1    2    0  503 -0.12606454106E+03  0.44255733275E+02 -0.63599290392E+03  0.67250785295E+03  0.17300000000E+03 0. -1.
</event>
<event>
 4    1  0.6197496E+000  0.1000000E+03  0.7546771E-02  0.1280296E+00
         21   -1    0    0  503  502  0.00000000000E+00  0.00000000000E+00  0.91296875483E+03  0.91296875483E+03  0.00000000000E+00 0.  1.
         21   -1    0    0  501  503 -0.00000000000E+00 -0.00000000000E+00 -0.52720016533E+02  0.52720016533E+02  0.00000000000E+00 0.  1.
          6    1    1    2  501    0  0.41928922256E+02 -0.98825027245E+02  0.60998025708E+03  0.64306246552E+03  0.17300000000E+03 0.  1.
         -6    1    1    2    0  502 -0.41928922256E+02  0.98825027245E+02  0.25026848121E+03  0.32262630584E+03  0.17300000000E+03 0.  1.
</event>
<event>
 4    1  0.6197496E+000  0.1000000E+03  0.7546771E-02  0.1280296E+00
         21   -1    0    0  503  502  0.00000000000E+00  0.00000000000E+00  0.19918507488E+03  0.19918507488E+03  0.00000000000E+00 0. -1.
         21   -1    0    0  501  503 -0.00000000000E+00 -0.00000000000E+00 -0.21868317667E+03  0.21868317667E+03  0.00000000000E+00 0. -1.
          6    1    1    2  501    0  0.11626620505E+03 -0.85362688441E+01 -0.35191955959E+01  0.20864343522E+03  0.17300000000E+03 0. -1.
         -6    1    1    2    0  502 -0.11626620505E+03  0.85362688441E+01 -0.15978906194E+02  0.20922481632E+03  0.17300000000E+03 0. -1.
</event>
<event>
 4    1  0.6197496E+000  0.1000000E+03  0.7546771E-02  0.1280296E+00
         21   -1    0    0  503  502  0.00000000000E+00  0.00000000000E+00  0.36007057091E+03  0.36007057091E+03  0.00000000000E+00 0. -1.
         21   -1    0    0  501  503 -0.00000000000E+00 -0.00000000000E+00 -0.44588368679E+03  0.44588368679E+03  0.00000000000E+00 0. -1.
          6    1    1    2  501    0 -0.39253194673E+02  0.32391251381E+03 -0.19923155389E+03  0.41962166527E+03  0.17300000000E+03 0. -1.
         -6    1    1    2    0  502  0.39253194673E+02 -0.32391251381E+03  0.11341843801E+03  0.38633259243E+03  0.17300000000E+03 0. -1.
</event>
<event>
 4    1  0.6197496E+000  0.1000000E+03  0.7546771E-02  0.1280296E+00
         21   -1    0    0  501  502  0.00000000000E+00  0.00000000000E+00  0.61104331184E+03  0.61104331184E+03  0.00000000000E+00 0.  1.
         21   -1    0    0  502  503 -0.00000000000E+00 -0.00000000000E+00 -0.11538105738E+03  0.11538105738E+03  0.00000000000E+00 0. -1.
          6    1    1    2  501    0  0.17595399257E+03  0.90624391588E+02  0.29903616981E+03  0.39815099988E+03  0.17300000000E+03 0. -1.
         -6    1    1    2    0  503 -0.17595399257E+03 -0.90624391588E+02  0.19662608466E+03  0.32827336934E+03  0.17300000000E+03 0.  1.
</event>
<event>
 4    1  0.6197496E+000  0.1000000E+03  0.7546771E-02  0.1280296E+00
         21   -1    0    0  501  502  0.00000000000E+00  0.00000000000E+00  0.43871167705E+03  0.43871167705E+03  0.00000000000E+00 0. -1.
         21   -1    0    0  502  503 -0.00000000000E+00 -0.00000000000E+00 -0.22018555242E+03  0.22018555242E+03  0.00000000000E+00 0. -1.
          6    1    1    2  501    0 -0.92702155738E+02 -0.21493348164E+02  0.36369119330E+03  0.41383080816E+03  0.17300000000E+03 0. -1.
         -6    1    1    2    0  503  0.92702155738E+02  0.21493348164E+02 -0.14516506867E+03  0.24506642132E+03  0.17300000000E+03 0. -1.
</event>
<event>
 4    1  0.6197496E+000  0.1000000E+03  0.7546771E-02  0.1280296E+00
         21   -1    0    0  501  502  0.00000000000E+00  0.00000000000E+00  0.11324007391E+04  0.11324007391E+04  0.00000000000E+00 0. -1.
         21   -1    0    0  502  503 -0.00000000000E+00 -0.00000000000E+00 -0.71043539293E+02  0.71043539293E+02  0.00000000000E+00 0. -1.
          6    1    1    2  501    0  0.10262187237E+03 -0.19580110720E+03  0.61688991153E+03  0.67775473825E+03  0.17300000000E+03 0. -1.
         -6    1    1    2    0  503 -0.10262187237E+03  0.19580110720E+03  0.44446728825E+03  0.52568954012E+03  0.17300000000E+03 0. -1.
</event>
<event>
 4    1  0.6197496E+000  0.1000000E+03  0.7546771E-02  0.1280296E+00
         21   -1    0    0  501  502  0.00000000000E+00  0.00000000000E+00  0.12755116982E+03  0.12755116982E+03  0.00000000000E+00 0. -1.
         21   -1    0    0  502  503 -0.00000000000E+00 -0.00000000000E+00 -0.10087387018E+04  0.10087387018E+04  0.00000000000E+00 0. -1.
          6    1    1    2  501    0  0.17496538957E+03 -0.75492618253E+01 -0.27360160050E+02  0.24768418856E+03  0.17300000000E+03 0. -1.
         -6    1    1    2    0  503 -0.17496538957E+03  0.75492618253E+01 -0.85382737198E+03  0.88860568311E+03  0.17300000000E+03 0. -1.
</event>
<event>
 4    1  0.6197496E+000  0.1000000E+03  0.7546771E-02  0.1280296E+00
         21   -1    0    0  501  502  0.00000000000E+00  0.00000000000E+00  0.17561197237E+03  0.17561197237E+03  0.00000000000E+00 0. -1.
         21   -1    0    0  502  503 -0.00000000000E+00 -0.00000000000E+00 -0.28148542014E+03  0.28148542014E+03  0.00000000000E+00 0. -1.
          6    1    1    2  501    0 -0.12469107716E+03  0.60428310411E+02 -0.35020677707E+02  0.22439896009E+03  0.17300000000E+03 0. -1.
         -6    1    1    2    0  503  0.12469107716E+03 -0.60428310411E+02 -0.70852770066E+02  0.23269843242E+03  0.17300000000E+03 0. -1.
</event>
<event>
 4    1  0.6197496E+000  0.1000000E+03  0.7546771E-02  0.1280296E+00
         21   -1    0    0  503  502  0.00000000000E+00  0.00000000000E+00  0.33211285714E+03  0.33211285714E+03  0.00000000000E+00 0.  1.
         21   -1    0    0  501  503 -0.00000000000E+00 -0.00000000000E+00 -0.35843749202E+03  0.35843749202E+03  0.00000000000E+00 0.  1.
          6    1    1    2  501    0  0.26651046752E+03 -0.79664109931E+02 -0.12158548575E+03  0.34940840009E+03  0.17300000000E+03 0.  1.
         -6    1    1    2    0  502 -0.26651046752E+03  0.79664109931E+02  0.95260850857E+02  0.34114194907E+03  0.17300000000E+03 0.  1.
</event>
<event>
 4    1  0.6197496E+000  0.1000000E+03  0.7546771E-02  0.1280296E+00
         21   -1    0    0  501  502  0.00000000000E+00  0.00000000000E+00  0.17782887766E+04  0.17782887766E+04  0.00000000000E+00 0. -1.
         21   -1    0    0  502  503 -0.00000000000E+00 -0.00000000000E+00 -0.30034243423E+02  0.30034243423E+02  0.00000000000E+00 0. -1.
          6    1    1    2  501    0  0.15438088141E+02  0.86698050074E+02  0.13647426070E+04  0.13784796952E+04  0.17300000000E+03 0.  1.
         -6    1    1    2    0  503 -0.15438088141E+02 -0.86698050074E+02  0.38351192612E+03  0.42984332486E+03  0.17300000000E+03 0.  1.
</event>
<event>
 4    1  0.6197496E+000  0.1000000E+03  0.7546771E-02  0.1280296E+00
         21   -1    0    0  501  502  0.00000000000E+00  0.00000000000E+00  0.18698575865E+03  0.18698575865E+03  0.00000000000E+00 0. -1.
         21   -1    0    0  502  503 -0.00000000000E+00 -0.00000000000E+00 -0.47127275731E+03  0.47127275731E+03  0.00000000000E+00 0. -1.
          6    1    1    2  501    0 -0.20694003175E+03 -0.61583573672E+02 -0.22855308375E+02  0.27761138018E+03  0.17300000000E+03 0.  1.
         -6    1    1    2    0  503  0.20694003175E+03  0.61583573672E+02 -0.26143169029E+03  0.38064713578E+03  0.17300000000E+03 0.  1.
</event>
<event>
 4    1  0.6197496E+000  0.1000000E+03  0.7546771E-02  0.1280296E+00
         21   -1    0    0  501  502  0.00000000000E+00  0.00000000000E+00  0.16078256162E+03  0.16078256162E+03  0.00000000000E+00 0. -1.
         21   -1    0    0  502  503 -0.00000000000E+00 -0.00000000000E+00 -0.24752598063E+03  0.24752598063E+03  0.00000000000E+00 0. -1.
          6    1    1    2  501    0  0.31724932804E+02  0.92596201996E+02 -0.25994662924E+02  0.20046259124E+03  0.17300000000E+03 0.  1.
         -6    1    1    2    0  503 -0.31724932804E+02 -0.92596201996E+02 -0.60748756084E+02  0.20784595101E+03  0.17300000000E+03 0.  1.
</event>
<event>
 4    1  0.6197496E+000  0.1000000E+03  0.7546771E-02  0.1280296E+00
         21   -1    0    0  501  502  0.00000000000E+00  0.00000000000E+00  0.23044401376E+02  0.23044401376E+02  0.00000000000E+00 0. -1.
         21   -1    0    0  502  503 -0.00000000000E+00 -0.00000000000E+00 -0.19960519780E+04  0.19960519780E+04  0.00000000000E+00 0. -1.
          6    1    1    2  501    0  0.59942493076E+02 -0.82066270935E+02 -0.62985034074E+03  0.66103587424E+03  0.17300000000E+03 0.  1.
         -6    1    1    2    0  503 -0.59942493076E+02  0.82066270935E+02 -0.13431572359E+04  0.13580605052E+04  0.17300000000E+03 0.  1.
</event>
<event>
 4    1  0.6197496E+000  0.1000000E+03  0.7546771E-02  0.1280296E+00
         21   -1    0    0  501  502  0.00000000000E+00  0.00000000000E+00  0.11575258937E+03  0.11575258937E+03  0.00000000000E+00 0. -1.
         21   -1    0    0  502  503 -0.00000000000E+00 -0.00000000000E+00 -0.34663918819E+03  0.34663918819E+03  0.00000000000E+00 0. -1.
          6    1    1    2  501    0 -0.19846035055E+02 -0.25083589426E+02 -0.22598236882E+03  0.28639148483E+03  0.17300000000E+03 0.  1.
         -6    1    1    2    0  503  0.19846035055E+02  0.25083589426E+02 -0.49042299982E+01  0.17600029272E+03  0.17300000000E+03 0.  1.
</event>
<event>
 4    1  0.6197496E+000  0.1000000E+03  0.7546771E-02  0.1280296E+00
         21   -1    0    0  501  502  0.00000000000E+00  0.00000000000E+00  0.81419651283E+03  0.81419651283E+03  0.00000000000E+00 0. -1.
         21   -1    0    0  502  503 -0.00000000000E+00 -0.00000000000E+00 -0.69112821717E+02  0.69112821717E+02  0.00000000000E+00 0.  1.
          6    1    1    2  501    0  0.77059549309E+02 -0.47637675487E+02  0.62326614684E+03  0.65314409747E+03  0.17300000000E+03 0.  1.
         -6    1    1    2    0  503 -0.77059549309E+02  0.47637675487E+02  0.12181754427E+03  0.23016523708E+03  0.17300000000E+03 0.  1.
</event>
<event>
 4    1  0.6197496E+000  0.1000000E+03  0.7546771E-02  0.1280296E+00
         21   -1    0    0  501  502  0.00000000000E+00  0.00000000000E+00  0.12639244772E+03  0.12639244772E+03  0.00000000000E+00 0. -1.
         21   -1    0    0  502  503 -0.00000000000E+00 -0.00000000000E+00 -0.39766045081E+03  0.39766045081E+03  0.00000000000E+00 0.  1.
          6    1    1    2  501    0 -0.83848931983E+02  0.88571870477E+02 -0.22196996521E+03  0.30671694621E+03  0.17300000000E+03 0.  1.
         -6    1    1    2    0  503  0.83848931983E+02 -0.88571870477E+02 -0.49298037882E+02  0.21733595233E+03  0.17300000000E+03 0.  1.
</event>
<event>
 4    1  0.6197496E+000  0.1000000E+03  0.7546771E-02  0.1280296E+00
         21   -1    0    0  501  502  0.00000000000E+00  0.00000000000E+00  0.26318721957E+03  0.26318721957E+03  0.00000000000E+00 0. -1.
         21   -1    0    0  502  503 -0.00000000000E+00 -0.00000000000E+00 -0.91607200541E+03  0.91607200541E+03  0.00000000000E+00 0.  1.
          6    1    1    2  501    0 -0.38583765999E+03  0.19665096194E+03 -0.14186109698E+03  0.48743806943E+03  0.17300000000E+03 0.  1.
         -6    1    1    2    0  503  0.38583765999E+03 -0.19665096194E+03 -0.51102368886E+03  0.69182115555E+03  0.17300000000E+03 0.  1.
</event>
