<event>
 4    1  0.5876320E+000  0.1000000E+03  0.7546771E-02  0.1280296E+00
         21   -1    0    0  501  502  0.00000000000E+00  0.00000000000E+00  0.12071031062E+03  0.12071031062E+03  0.00000000000E+00 0.  1.
         21   -1    0    0  502  503 -0.00000000000E+00 -0.00000000000E+00 -0.30244194543E+03  0.30244194543E+03  0.00000000000E+00 0.  1.
          6    1    1    2  501    0 -0.37010129470E+02 -0.15770510230E+02 -0.12877072958E+02  0.17808222170E+03  0.17300000000E+03 0.  1.
         -6    1    1    2    0  503  0.37010129470E+02  0.15770510230E+02 -0.16885456186E+03  0.24507003435E+03  0.17300000000E+03 0.  1.
</event>
<event>
 4    1  0.5876320E+000  0.1000000E+03  0.7546771E-02  0.1280296E+00
         21   -1    0    0  503  502  0.00000000000E+00  0.00000000000E+00  0.21667294387E+04  0.21667294387E+04  0.00000000000E+00 0.  1.
         21   -1    0    0  501  503 -0.00000000000E+00 -0.00000000000E+00 -0.24630960962E+02  0.24630960962E+02  0.00000000000E+00 0. -1.
          6    1    1    2  501    0 -0.11247610147E+02 -0.14168535097E+03  0.80114807833E+03  0.83184643464E+03  0.17300000000E+03 0.  1.
         -6    1    1    2    0  502  0.11247610147E+02  0.14168535097E+03  0.13409503994E+04  0.13595139650E+04  0.17300000000E+03 0.  1.
</event>
<event>
 4    1  0.5876320E+000  0.1000000E+03  0.7546771E-02  0.1280296E+00
         21   -1    0    0  501  502  0.00000000000E+00  0.00000000000E+00  0.21478458709E+03  0.21478458709E+03  0.00000000000E+00 0. -1.
         21   -1    0    0  502  503 -0.00000000000E+00 -0.00000000000E+00 -0.22157127312E+03  0.22157127312E+03  0.00000000000E+00 0.  1.
          6    1    1    2  501    0  0.86523236487E+02 -0.93944738578E+02 -0.40129381174E+02  0.21874928935E+03  0.17300000000E+03 0.  1.
         -6    1    1    2    0  503 -0.86523236487E+02  0.93944738578E+02  0.33342695148E+02  0.21760657085E+03  0.17300000000E+03 0. -1.
</event>
<event>
 4    1  0.5876320E+000  0.1000000E+03  0.7546771E-02  0.1280296E+00
         21   -1    0    0  503  502  0.00000000000E+00  0.00000000000E+00  0.81325258596E+02  0.81325258596E+02  0.00000000000E+00 0. -1.
         21   -1    0    0  501  503 -0.00000000000E+00 -0.00000000000E+00 -0.47213767834E+03  0.47213767834E+03  0.00000000000E+00 0. -1.
          6    1    1    2  501    0  0.28245777481E+02 -0.55246887146E+02 -0.29137350050E+03  0.34449609472E+03  0.17300000000E+03 0.  1.
         -6    1    1    2    0  502 -0.28245777481E+02  0.55246887146E+02 -0.99438919244E+02  0.20896684222E+03  0.17300000000E+03 0.  1.
</event>
<event>
 4    1  0.5876320E+000  0.1000000E+03  0.7546771E-02  0.1280296E+00
         21   -1    0    0  503  502  0.00000000000E+00  0.00000000000E+00  0.87647318343E+02  0.87647318343E+02  0.00000000000E+00 0. -1.
         21   -1    0    0  501  503 -0.00000000000E+00 -0.00000000000E+00 -0.12744279570E+04  0.12744279570E+04  0.00000000000E+00 0. -1.
          6    1    1    2  501    0 -0.11633394801E+03  0.13658836165E+03 -0.10471258388E+04  0.10763788786E+04  0.17300000000E+03 0.  1.
         -6    1    1    2    0  502  0.11633394801E+03 -0.13658836165E+03 -0.13965479987E+03  0.28569639677E+03  0.17300000000E+03 0.  1.
</event>
<event>
 4    1  0.5876320E+000  0.1000000E+03  0.7546771E-02  0.1280296E+00
         21   -1    0    0  503  502  0.00000000000E+00  0.00000000000E+00  0.54284292239E+03  0.54284292239E+03  0.00000000000E+00 0. -1.
         21   -1    0    0  501  503 -0.00000000000E+00 -0.00000000000E+00 -0.26347428573E+03  0.26347428573E+03  0.00000000000E+00 0. -1.
          6    1    1    2  501    0  0.20640688233E+03  0.25179066632E+03  0.49898133718E+02  0.37204994889E+03  0.17300000000E+03 0.  1.
         -6    1    1    2    0  502 -0.20640688233E+03 -0.25179066632E+03  0.22947050294E+03  0.43426725923E+03  0.17300000000E+03 0.  1.
</event>
<event>
 4    1  0.5876320E+000  0.1000000E+03  0.7546771E-02  0.1280296E+00
         21   -1    0    0  501  502  0.00000000000E+00  0.00000000000E+00  0.36095848172E+04  0.36095848172E+04  0.00000000000E+00 0.  1.
         21   -1    0    0  502  503 -0.00000000000E+00 -0.00000000000E+00 -0.14356045767E+02  0.14356045767E+02  0.00000000000E+00 0.  1.
          6    1    1    2  501    0  0.12045895047E+03 -0.83399634996E+02  0.19616157557E+04  0.19746724364E+04  0.17300000000E+03 0.  1.
         -6    1    1    2    0  503 -0.12045895047E+03  0.83399634996E+02  0.16336130157E+04  0.16492684266E+04  0.17300000000E+03 0.  1.
</event>
<event>
 4    1  0.5876320E+000  0.1000000E+03  0.7546771E-02  0.1280296E+00
         21   -1    0    0  501  502  0.00000000000E+00  0.00000000000E+00  0.12364654682E+04  0.12364654682E+04  0.00000000000E+00 0.  1.
         21   -1    0    0  502  503 -0.00000000000E+00 -0.00000000000E+00 -0.50198479355E+03  0.50198479355E+03  0.00000000000E+00 0.  1.
          6    1    1    2  501    0  0.25055873802E+03  0.18581122571E+03  0.11422705219E+04  0.11966688924E+04  0.17300000000E+03 0.  1.
         -6    1    1    2    0  503 -0.25055873802E+03 -0.18581122571E+03 -0.40778984718E+03  0.54178136943E+03  0.17300000000E+03 0.  1.
</event>
<event>
 4    1  0.5876320E+000  0.1000000E+03  0.7546771E-02  0.1280296E+00
         21   -1    0    0  501  502  0.00000000000E+00  0.00000000000E+00  0.15192706610E+03  0.15192706610E+03  0.00000000000E+00 0.  1.
         21   -1    0    0  502  503 -0.00000000000E+00 -0.00000000000E+00 -0.22053820047E+03  0.22053820047E+03  0.00000000000E+00 0.  1.
          6    1    1    2  501    0  0.50996824241E+01  0.59413066820E+02 -0.29665182660E+02  0.18537783668E+03  0.17300000000E+03 0.  1.
         -6    1    1    2    0  503 -0.50996824241E+01 -0.59413066820E+02 -0.38945951710E+02  0.18708742989E+03  0.17300000000E+03 0.  1.
</event>
<event>
 4    1  0.5876320E+000  0.1000000E+03  0.7546771E-02  0.1280296E+00
         21   -1    0    0  503  502  0.00000000000E+00  0.00000000000E+00  0.37124464329E+03  0.37124464329E+03  0.00000000000E+00 0. -1.
         21   -1    0    0  501  503 -0.00000000000E+00 -0.00000000000E+00 -0.13116801755E+03  0.13116801755E+03  0.00000000000E+00 0. -1.
          6    1    1    2  501    0  0.12431543038E+03  0.30724748822E+01  0.54617147424E+02  0.21994499113E+03  0.17300000000E+03 0. -1.
         -6    1    1    2    0  502 -0.12431543038E+03 -0.30724748822E+01  0.18545947832E+03  0.28246766971E+03  0.17300000000E+03 0. -1.
</event>
<event>
 4    1  0.5876320E+000  0.1000000E+03  0.7546771E-02  0.1280296E+00
         21   -1    0    0  503  502  0.00000000000E+00  0.00000000000E+00  0.49539674884E+03  0.49539674884E+03  0.00000000000E+00 0. -1.
         21   -1    0    0  501  503 -0.00000000000E+00 -0.00000000000E+00 -0.39305012328E+03  0.39305012328E+03  0.00000000000E+00 0. -1.
          6    1    1    2  501    0 -0.26692271578E+03  0.13017602490E+03 -0.22743629263E+03  0.41212837910E+03  0.17300000000E+03 0. -1.
         -6    1    1    2    0  502  0.26692271578E+03 -0.13017602490E+03  0.32978291819E+03  0.47631849302E+03  0.17300000000E+03 0. -1.
</event>
<event>
 4    1  0.5876320E+000  0.1000000E+03  0.7546771E-02  0.1280296E+00
         21   -1    0    0  501  502  0.00000000000E+00  0.00000000000E+00  0.20170710965E+04  0.20170710965E+04  0.00000000000E+00 0. -1.
         21   -1    0    0  502  503 -0.00000000000E+00 -0.00000000000E+00 -0.19936104294E+02  0.19936104294E+02  0.00000000000E+00 0. -1.
          6    1    1    2  501    0  0.47765795472E+02 -0.13568649031E+02  0.14476496217E+04  0.14587954300E+04  0.17300000000E+03 0. -1.
         -6    1    1    2    0  503 -0.47765795472E+02  0.13568649031E+02  0.54948537045E+03  0.57821177071E+03  0.17300000000E+03 0. -1.
</event>
<event>
 4    1  0.5876320E+000  0.1000000E+03  0.7546771E-02  0.1280296E+00
         21   -1    0    0  501  502  0.00000000000E+00  0.00000000000E+00  0.14116384466E+03  0.14116384466E+03  0.00000000000E+00 0. -1.
         21   -1    0    0  502  503 -0.00000000000E+00 -0.00000000000E+00 -0.62221662526E+03  0.62221662526E+03  0.00000000000E+00 0. -1.
          6    1    1    2  501    0 -0.50851095317E+02 -0.51886282433E+02  0.54924126725E+02  0.19550877192E+03  0.17300000000E+03 0. -1.
         -6    1    1    2    0  503  0.50851095317E+02  0.51886282433E+02 -0.53597690733E+03  0.56787169800E+03  0.17300000000E+03 0. -1.
</event>
<event>
 4    1  0.5876320E+000  0.1000000E+03  0.7546771E-02  0.1280296E+00
         21   -1    0    0  501  502  0.00000000000E+00  0.00000000000E+00  0.11787998790E+03  0.11787998790E+03  0.00000000000E+00 0.  1.
         21   -1    0    0  502  503 -0.00000000000E+00 -0.00000000000E+00 -0.25724295587E+04  0.25724295587E+04  0.00000000000E+00 0.  1.
          6    1    1    2  501    0  0.69275999585E+02 -0.48853320166E+03 -0.80527029058E+03  0.96013181081E+03  0.17300000000E+03 0.  1.
         -6    1    1    2    0  503 -0.69275999585E+02  0.48853320166E+03 -0.16492792802E+04  0.17301777358E+04  0.17300000000E+03 0.  1.
</event>
<event>
 4    1  0.5876320E+000  0.1000000E+03  0.7546771E-02  0.1280296E+00
         21   -1    0    0  501  502  0.00000000000E+00  0.00000000000E+00  0.48573845743E+03  0.48573845743E+03  0.00000000000E+00 0.  1.
         21   -1    0    0  502  503 -0.00000000000E+00 -0.00000000000E+00 -0.20631765032E+03  0.20631765032E+03  0.00000000000E+00 0.  1.
          6    1    1    2  501    0 -0.11469908757E+03  0.18563191083E+03  0.30429529032E+03  0.41247995190E+03  0.17300000000E+03 0.  1.
         -6    1    1    2    0  503  0.11469908757E+03 -0.18563191083E+03 -0.24874483215E+02  0.27957615585E+03  0.17300000000E+03 0.  1.
</event>
<event>
 4    1  0.5876320E+000  0.1000000E+03  0.7546771E-02  0.1280296E+00
         21   -1    0    0  503  502  0.00000000000E+00  0.00000000000E+00  0.59946855762E+02  0.59946855762E+02  0.00000000000E+00 0. -1.
         21   -1    0    0  501  503 -0.00000000000E+00 -0.00000000000E+00 -0.10815497122E+04  0.10815497122E+04  0.00000000000E+00 0. -1.
          6    1    1    2  501    0  0.12260352509E+03 -0.12618762751E+03 -0.65170519914E+03  0.69685264460E+03  0.17300000000E+03 0. -1.
         -6    1    1    2    0  502 -0.12260352509E+03  0.12618762751E+03 -0.36989765725E+03  0.44464392332E+03  0.17300000000E+03 0. -1.
</event>
<event>
 4    1  0.5876320E+000  0.1000000E+03  0.7546771E-02  0.1280296E+00
         21   -1    0    0  503  502  0.00000000000E+00  0.00000000000E+00  0.79898363706E+03  0.79898363706E+03  0.00000000000E+00 0. -1.
         21   -1    0    0  501  503 -0.00000000000E+00 -0.00000000000E+00 -0.67238278747E+02  0.67238278747E+02  0.00000000000E+00 0. -1.
          6    1    1    2  501    0 -0.12747986972E+03  0.14765112221E+02  0.20595340467E+03  0.29801833940E+03  0.17300000000E+03 0. -1.
         -6    1    1    2    0  502  0.12747986972E+03 -0.14765112221E+02  0.52579195364E+03  0.56820357641E+03  0.17300000000E+03 0. -1.
</event>
<event>
 4    1  0.5876320E+000  0.1000000E+03  0.7546771E-02  0.1280296E+00
         21   -1    0    0  503  502  0.00000000000E+00  0.00000000000E+00  0.24713469102E+03  0.24713469102E+03  0.00000000000E+00 0. -1.
         21   -1    0    0  501  503 -0.00000000000E+00 -0.00000000000E+00 -0.48393176005E+03  0.48393176005E+03  0.00000000000E+00 0. -1.
          6    1    1    2  501    0  0.25191716098E+02 -0.29831264160E+03 -0.11152641455E+03  0.36330730221E+03  0.17300000000E+03 0. -1.
         -6    1    1    2    0  502 -0.25191716098E+02  0.29831264160E+03 -0.12527065447E+03  0.36775914886E+03  0.17300000000E+03 0. -1.
</event>
<event>
 4    1  0.5876320E+000  0.1000000E+03  0.7546771E-02  0.1280296E+00
         21   -1    0    0  503  502  0.00000000000E+00  0.00000000000E+00  0.17073277620E+04  0.17073277620E+04  0.00000000000E+00 0.  1.
         21   -1    0    0  501  503 -0.00000000000E+00 -0.00000000000E+00 -0.26485184972E+02  0.26485184972E+02  0.00000000000E+00 0.  1.
          6    1    1    2  501    0 -0.11408661122E+03  0.21199944867E+02  0.66627752978E+03  0.69808304607E+03  0.17300000000E+03 0.  1.
         -6    1    1    2    0  502  0.11408661122E+03 -0.21199944867E+02  0.10145650472E+04  0.10357299009E+04  0.17300000000E+03 0.  1.
</event>
<event>
 4    1  0.5876320E+000  0.1000000E+03  0.7546771E-02  0.1280296E+00
         21   -1    0    0  503  502  0.00000000000E+00  0.00000000000E+00  0.14724690748E+04  0.14724690748E+04  0.00000000000E+00 0.  1.
         21   -1    0    0  501  503 -0.00000000000E+00 -0.00000000000E+00 -0.17157707376E+03  0.17157707376E+03  0.00000000000E+00 0.  1.
          6    1    1    2  501    0 -0.56319218133E+02 -0.10338767542E+03 -0.96949846240E+02  0.23062770529E+03  0.17300000000E+03 0.  1.
         -6    1    1    2    0  502  0.56319218133E+02  0.10338767542E+03  0.13978418473E+04  0.14134184433E+04  0.17300000000E+03 0.  1.
</event>
<event>
 4    1  0.5876320E+000  0.1000000E+03  0.7546771E-02  0.1280296E+00
         21   -1    0    0  503  502  0.00000000000E+00  0.00000000000E+00  0.16841330491E+03  0.16841330491E+03  0.00000000000E+00 0.  1.
         21   -1    0    0  501  503 -0.00000000000E+00 -0.00000000000E+00 -0.26200918388E+03  0.26200918388E+03  0.00000000000E+00 0.  1.
          6    1    1    2  501    0  0.14985034005E+02 -0.96460652194E+02 -0.11679284475E+03  0.23043171928E+03  0.17300000000E+03 0.  1.
         -6    1    1    2    0  502 -0.14985034005E+02  0.96460652194E+02  0.23196965781E+02  0.19999076951E+03  0.17300000000E+03 0.  1.
</event>
<event>
 4    1  0.5876320E+000  0.1000000E+03  0.7546771E-02  0.1280296E+00
         21   -1    0    0  503  502  0.00000000000E+00  0.00000000000E+00  0.12030609032E+03  0.12030609032E+03  0.00000000000E+00 0.  1.
         21   -1    0    0  501  503 -0.00000000000E+00 -0.00000000000E+00 -0.59390460394E+03  0.59390460394E+03  0.00000000000E+00 0.  1.
          6    1    1    2  501    0  0.52067000401E+02  0.78760525995E+02  0.44414584413E+01  0.19713680412E+03  0.17300000000E+03 0.  1.
         -6    1    1    2    0  502 -0.52067000401E+02 -0.78760525995E+02 -0.47803997206E+03  0.51707389015E+03  0.17300000000E+03 0.  1.
</event>
<event>
 4    1  0.5876320E+000  0.1000000E+03  0.7546771E-02  0.1280296E+00
         21   -1    0    0  501  502  0.00000000000E+00  0.00000000000E+00  0.26660384313E+03  0.26660384313E+03  0.00000000000E+00 0.  1.
         21   -1    0    0  502  503 -0.00000000000E+00 -0.00000000000E+00 -0.17984951570E+03  0.17984951570E+03  0.00000000000E+00 0.  1.
          6    1    1    2  501    0 -0.10760383639E+03  0.34903478036E+02  0.11704996789E+03  0.23754269799E+03  0.17300000000E+03 0.  1.
         -6    1    1    2    0  503  0.10760383639E+03 -0.34903478036E+02 -0.30295640458E+02  0.20891066085E+03  0.17300000000E+03 0.  1.
</event>
<event>
 4    1  0.5876320E+000  0.1000000E+03  0.7546771E-02  0.1280296E+00
         21   -1    0    0  501  502  0.00000000000E+00  0.00000000000E+00  0.23803425557E+02  0.23803425557E+02  0.00000000000E+00 0.  1.
         21   -1    0    0  502  503 -0.00000000000E+00 -0.00000000000E+00 -0.30174403273E+04  0.30174403273E+04  0.00000000000E+00 0.  1.
          6    1    1    2  501    0  0.22035412292E+02 -0.11750847779E+03 -0.55415369900E+03  0.59271335725E+03  0.17300000000E+03 0.  1.
         -6    1    1    2    0  503 -0.22035412292E+02  0.11750847779E+03 -0.24394832027E+04  0.24485303956E+04  0.17300000000E+03 0.  1.
</event>
<event>
 4    1  0.5876320E+000  0.1000000E+03  0.7546771E-02  0.1280296E+00
         21   -1    0    0  501  502  0.00000000000E+00  0.00000000000E+00  0.18035423620E+03  0.18035423620E+03  0.00000000000E+00 0.  1.
         21   -1    0    0  502  503 -0.00000000000E+00 -0.00000000000E+00 -0.17169334369E+03  0.17169334369E+03  0.00000000000E+00 0.  1.
          6    1    1    2  501    0  0.74945393644E+01  0.19245108137E+02  0.29037712740E+02  0.17663162534E+03  0.17300000000E+03 0.  1.
         -6    1    1    2    0  503 -0.74945393644E+01 -0.19245108137E+02 -0.20376820234E+02  0.17541595455E+03  0.17300000000E+03 0.  1.
</event>
<event>
 4    1  0.5876320E+000  0.1000000E+03  0.7546771E-02  0.1280296E+00
         21   -1    0    0  501  502  0.00000000000E+00  0.00000000000E+00  0.85411888963E+02  0.85411888963E+02  0.00000000000E+00 0.  1.
         21   -1    0    0  502  503 -0.00000000000E+00 -0.00000000000E+00 -0.76942485223E+03  0.76942485223E+03  0.00000000000E+00 0.  1.
          6    1    1    2  501    0 -0.83801100340E+02 -0.10861004527E+03 -0.12480878695E+03  0.25362373638E+03  0.17300000000E+03 0.  1.
         -6    1    1    2    0  503  0.83801100340E+02  0.10861004527E+03 -0.55920417632E+03  0.60121300482E+03  0.17300000000E+03 0.  1.
</event>
<event>
 4    1  0.5876320E+000  0.1000000E+03  0.7546771E-02  0.1280296E+00
         21   -1    0    0  503  502  0.00000000000E+00  0.00000000000E+00  0.13496684950E+04  0.13496684950E+04  0.00000000000E+00 0.  1.
         21   -1    0    0  501  503 -0.00000000000E+00 -0.00000000000E+00 -0.28870999303E+02  0.28870999303E+02  0.00000000000E+00 0.  1.
          6    1    1    2  501    0  0.18353951959E+02 -0.64047102257E+02  0.42361758421E+03  0.46240648408E+03  0.17300000000E+03 0.  1.
         -6    1    1    2    0  502 -0.18353951959E+02  0.64047102257E+02  0.89717991152E+03  0.91613301026E+03  0.17300000000E+03 0.  1.
</event>
<event>
 4    1  0.5876320E+000  0.1000000E+03  0.7546771E-02  0.1280296E+00
         21   -1    0    0  503  502  0.00000000000E+00  0.00000000000E+00  0.11681900224E+04  0.11681900224E+04  0.00000000000E+00 0.  1.
         21   -1    0    0  501  503 -0.00000000000E+00 -0.00000000000E+00 -0.11161229036E+03  0.11161229036E+03  0.00000000000E+00 0.  1.
          6    1    1    2  501    0 -0.34741531159E+02  0.14849985972E+03  0.35911536788E+02  0.23340484313E+03  0.17300000000E+03 0.  1.
         -6    1    1    2    0  502  0.34741531159E+02 -0.14849985972E+03  0.10206661953E+04  0.10463974696E+04  0.17300000000E+03 0.  1.
</event>
<event>
 4    1  0.5876320E+000  0.1000000E+03  0.7546771E-02  0.1280296E+00
         21   -1    0    0  501  502  0.00000000000E+00  0.00000000000E+00  0.12219463463E+03  0.12219463463E+03  0.00000000000E+00 0. -1.
         21   -1    0    0  502  503 -0.00000000000E+00 -0.00000000000E+00 -0.43128238038E+03  0.43128238038E+03  0.00000000000E+00 0.  1.
          6    1    1    2  501    0  0.86314812200E+02 -0.11268054798E+02 -0.30313786785E+03  0.35972042309E+03  0.17300000000E+03 0. -1.
         -6    1    1    2    0  503 -0.86314812200E+02  0.11268054798E+02 -0.59498779068E+01  0.19375659192E+03  0.17300000000E+03 0.  1.
</event>
<event>
 4    1  0.5876320E+000  0.1000000E+03  0.7546771E-02  0.1280296E+00
         21   -1    0    0  501  502  0.00000000000E+00  0.00000000000E+00  0.11227677251E+03  0.11227677251E+03  0.00000000000E+00 0. -1.
         21   -1    0    0  502  503 -0.00000000000E+00 -0.00000000000E+00 -0.60436431676E+03  0.60436431676E+03  0.00000000000E+00 0.  1.
          6    1    1    2  501    0  0.23815052007E+02 -0.10442977718E+03 -0.22312956204E+02  0.20469392536E+03  0.17300000000E+03 0. -1.
         -6    1    1    2    0  503 -0.23815052007E+02  0.10442977718E+03 -0.46977458804E+03  0.51194716391E+03  0.17300000000E+03 0.  1.
</event>
<event>
 4    1  0.5876320E+000  0.1000000E+03  0.7546771E-02  0.1280296E+00
         21   -1    0    0  501  502  0.00000000000E+00  0.00000000000E+00  0.36327997886E+03  0.36327997886E+03  0.00000000000E+00 0.  1.
         21   -1    0    0  502  503 -0.00000000000E+00 -0.00000000000E+00 -0.41042404218E+03  0.41042404218E+03  0.00000000000E+00 0. -1.
          6    1    1    2  501    0  0.12704881395E+03  0.62240620524E+02  0.29190230432E+03  0.36762923066E+03  0.17300000000E+03 0. -1.
         -6    1    1    2    0  503 -0.12704881395E+03 -0.62240620524E+02 -0.33904636764E+03  0.40607479038E+03  0.17300000000E+03 0.  1.
</event>
<event>
 4    1  0.5876320E+000  0.1000000E+03  0.7546771E-02  0.1280296E+00
         21   -1    0    0  501  502  0.00000000000E+00  0.00000000000E+00  0.31578679557E+03  0.31578679557E+03  0.00000000000E+00 0.  1.
         21   -1    0    0  502  503 -0.00000000000E+00 -0.00000000000E+00 -0.16093838261E+03  0.16093838261E+03  0.00000000000E+00 0. -1.
          6    1    1    2  501    0  0.50745220102E+02 -0.12161647109E+03  0.14022270827E+03  0.25876060619E+03  0.17300000000E+03 0. -1.
         -6    1    1    2    0  503 -0.50745220102E+02  0.12161647109E+03  0.14625704683E+02  0.21796457198E+03  0.17300000000E+03 0.  1.
</event>
<event>
 4    1  0.5876320E+000  0.1000000E+03  0.7546771E-02  0.1280296E+00
         21   -1    0    0  501  502  0.00000000000E+00  0.00000000000E+00  0.54792685480E+02  0.54792685480E+02  0.00000000000E+00 0.  1.
         21   -1    0    0  502  503 -0.00000000000E+00 -0.00000000000E+00 -0.10681498400E+04  0.10681498400E+04  0.00000000000E+00 0. -1.
          6    1    1    2  501    0  0.14154605928E+03  0.88686685138E+02 -0.44539789242E+03  0.50617081858E+03  0.17300000000E+03 0. -1.
         -6    1    1    2    0  503 -0.14154605928E+03 -0.88686685138E+02 -0.56795926211E+03  0.61677170690E+03  0.17300000000E+03 0.  1.
</event>
<event>
 4    1  0.5876320E+000  0.1000000E+03  0.7546771E-02  0.1280296E+00
         21   -1    0    0  501  502  0.00000000000E+00  0.00000000000E+00  0.66268099577E+03  0.66268099577E+03  0.00000000000E+00 0. -1.
         21   -1    0    0  502  503 -0.00000000000E+00 -0.00000000000E+00 -0.98443490323E+02  0.98443490323E+02  0.00000000000E+00 0. -1.
          6    1    1    2  501    0 -0.85978691463E+02 -0.73209681711E+02  0.50589165252E+03  0.54644977534E+03  0.17300000000E+03 0. -1.
         -6    1    1    2    0  503  0.85978691463E+02  0.73209681711E+02  0.58345852927E+02  0.21467471075E+03  0.17300000000E+03 0. -1.
</event>
<event>
 4    1  0.5876320E+000  0.1000000E+03  0.7546771E-02  0.1280296E+00
         21   -1    0    0  501  502  0.00000000000E+00  0.00000000000E+00  0.22992361095E+03  0.22992361095E+03  0.00000000000E+00 0. -1.
         21   -1    0    0  502  503 -0.00000000000E+00 -0.00000000000E+00 -0.26269250317E+03  0.26269250317E+03  0.00000000000E+00 0. -1.
          6    1    1    2  501    0 -0.43117930153E+02 -0.36066686645E+02  0.14924052219E+03  0.23529066120E+03  0.17300000000E+03 0. -1.
         -6    1    1    2    0  503  0.43117930153E+02  0.36066686645E+02 -0.18200941441E+03  0.25732545292E+03  0.17300000000E+03 0. -1.
</event>
<event>
 4    1  0.5876320E+000  0.1000000E+03  0.7546771E-02  0.1280296E+00
         21   -1    0    0  503  502  0.00000000000E+00  0.00000000000E+00  0.11756289649E+03  0.11756289649E+03  0.00000000000E+00 0.  1.
         21   -1    0    0  501  503 -0.00000000000E+00 -0.00000000000E+00 -0.67413757234E+03  0.67413757234E+03  0.00000000000E+00 0.  1.
          6    1    1    2  501    0  0.11464475173E+03 -0.63331320210E+02 -0.53048960841E+03  0.57315137603E+03  0.17300000000E+03 0.  1.
         -6    1    1    2    0  502 -0.11464475173E+03  0.63331320210E+02 -0.26085067438E+02  0.21854909279E+03  0.17300000000E+03 0.  1.
</event>
<event>
 4    1  0.5876320E+000  0.1000000E+03  0.7546771E-02  0.1280296E+00
         21   -1    0    0  503  502  0.00000000000E+00  0.00000000000E+00  0.83062656162E+03  0.83062656162E+03  0.00000000000E+00 0. -1.
         21   -1    0    0  501  503 -0.00000000000E+00 -0.00000000000E+00 -0.99290859446E+02  0.99290859446E+02  0.00000000000E+00 0. -1.
          6    1    1    2  501    0 -0.16434996377E+02 -0.41252912003E+02  0.15726344390E+01  0.17861518702E+03  0.17300000000E+03 0. -1.
         -6    1    1    2    0  502  0.16434996377E+02  0.41252912003E+02  0.72976306773E+03  0.75130223405E+03  0.17300000000E+03 0. -1.
</event>
<event>
 4    1  0.5876320E+000  0.1000000E+03  0.7546771E-02  0.1280296E+00
         21   -1    0    0  503  502  0.00000000000E+00  0.00000000000E+00  0.24483145959E+03  0.24483145959E+03  0.00000000000E+00 0. -1.
         21   -1    0    0  501  503 -0.00000000000E+00 -0.00000000000E+00 -0.59108353566E+03  0.59108353566E+03  0.00000000000E+00 0. -1.
          6    1    1    2  501    0 -0.19268348291E+03  0.81175961373E+02 -0.46602538789E+03  0.53928204443E+03  0.17300000000E+03 0. -1.
         -6    1    1    2    0  502  0.19268348291E+03 -0.81175961373E+02  0.11977331182E+03  0.29663295082E+03  0.17300000000E+03 0. -1.
</event>
<event>
 4    1  0.5876320E+000  0.1000000E+03  0.7546771E-02  0.1280296E+00
         21   -1    0    0  501  502  0.00000000000E+00  0.00000000000E+00  0.96584706260E+02  0.96584706260E+02  0.00000000000E+00 0. -1.
         21   -1    0    0  502  503 -0.00000000000E+00 -0.00000000000E+00 -0.42706431749E+03  0.42706431749E+03  0.00000000000E+00 0. -1.
          6    1    1    2  501    0 -0.90990019583E+02 -0.19603183332E+02 -0.98808080194E+02  0.21989885214E+03  0.17300000000E+03 0. -1.
         -6    1    1    2    0  503  0.90990019583E+02  0.19603183332E+02 -0.23167153104E+03  0.30375017161E+03  0.17300000000E+03 0. -1.
</event>
<event>
 4    1  0.5876320E+000  0.1000000E+03  0.7546771E-02  0.1280296E+00
         21   -1    0    0  503  502  0.00000000000E+00  0.00000000000E+00  0.13490837077E+03  0.13490837077E+03  0.00000000000E+00 0.  1.
         21   -1    0    0  501  503 -0.00000000000E+00 -0.00000000000E+00 -0.39780354888E+03  0.39780354888E+03  0.00000000000E+00 0. -1.
          6    1    1    2  501    0  0.40122416443E+02 -0.37763818933E+02 -0.29687824618E+03  0.34799656230E+03  0.17300000000E+03 0.  1.
         -6    1    1    2    0  502 -0.40122416443E+02  0.37763818933E+02  0.33983068070E+02  0.18471535734E+03  0.17300000000E+03 0. -1.
</event>
<event>
 4    1  0.5876320E+000  0.1000000E+03  0.7546771E-02  0.1280296E+00
         21   -1    0    0  501  502  0.00000000000E+00  0.00000000000E+00  0.58309938015E+03  0.58309938015E+03  0.00000000000E+00 0.  1.
         21   -1    0    0  502  503 -0.00000000000E+00 -0.00000000000E+00 -0.10972524519E+03  0.10972524519E+03  0.00000000000E+00 0.  1.
          6    1    1    2  501    0 -0.43802764880E+02 -0.14801138584E+03  0.37517586191E+03  0.44103512322E+03  0.17300000000E+03 0.  1.
         -6    1    1    2    0  503  0.43802764880E+02  0.14801138584E+03  0.98198273042E+02  0.25178950212E+03  0.17300000000E+03 0.  1.
</event>
<event>
 4    1  0.5876320E+000  0.1000000E+03  0.7546771E-02  0.1280296E+00
         21   -1    0    0  501  502  0.00000000000E+00  0.00000000000E+00  0.38407619229E+03  0.38407619229E+03  0.00000000000E+00 0.  1.
         21   -1    0    0  502  503 -0.00000000000E+00 -0.00000000000E+00 -0.36506528713E+03  0.36506528713E+03  0.00000000000E+00 0.  1.
          6    1    1    2  501    0 -0.19526174464E+03 -0.26672545684E+03 -0.22352368596E+02  0.37376228626E+03  0.17300000000E+03 0.  1.
         -6    1    1    2    0  503  0.19526174464E+03  0.26672545684E+03  0.41363273752E+02  0.37537919317E+03  0.17300000000E+03 0.  1.
</event>
<event>
 4    1  0.5876320E+000  0.1000000E+03  0.7546771E-02  0.1280296E+00
         21   -1    0    0  503  502  0.00000000000E+00  0.00000000000E+00  0.94111450117E+02  0.94111450117E+02  0.00000000000E+00 0. -1.
         21   -1    0    0  501  503 -0.00000000000E+00 -0.00000000000E+00 -0.41395094841E+03  0.41395094841E+03  0.00000000000E+00 0.  1.
          6    1    1    2  501    0  0.93858245929E+02  0.81481843155E+01 -0.14401241733E+03  0.24401708871E+03  0.17300000000E+03 0. -1.
         -6    1    1    2    0  502 -0.93858245929E+02 -0.81481843155E+01 -0.17582708096E+03  0.26404530981E+03  0.17300000000E+03 0. -1.
</event>
<event>
 4    1  0.5876320E+000  0.1000000E+03  0.7546771E-02  0.1280296E+00
         21   -1    0    0  503  502  0.00000000000E+00  0.00000000000E+00  0.10149113108E+03  0.10149113108E+03  0.00000000000E+00 0. -1.
         21   -1    0    0  501  503 -0.00000000000E+00 -0.00000000000E+00 -0.19592861248E+04  0.19592861248E+04  0.00000000000E+00 0.  1.
          6    1    1    2  501    0  0.24847531632E+03  0.33870705047E+02 -0.16813179013E+04  0.17086971916E+04  0.17300000000E+03 0. -1.
         -6    1    1    2    0  502 -0.24847531632E+03 -0.33870705047E+02 -0.17647709240E+03  0.35208006422E+03  0.17300000000E+03 0. -1.
</event>
<event>
 4    1  0.5876320E+000  0.1000000E+03  0.7546771E-02  0.1280296E+00
         21   -1    0    0  503  502  0.00000000000E+00  0.00000000000E+00  0.30623842741E+03  0.30623842741E+03  0.00000000000E+00 0. -1.
         21   -1    0    0  501  503 -0.00000000000E+00 -0.00000000000E+00 -0.13342294870E+03  0.13342294870E+03  0.00000000000E+00 0.  1.
          6    1    1    2  501    0 -0.33673095126E+02 -0.88798534630E+02  0.13395151339E+03  0.23851847943E+03  0.17300000000E+03 0. -1.
         -6    1    1    2    0  502  0.33673095126E+02  0.88798534630E+02  0.38863965319E+02  0.20114289669E+03  0.17300000000E+03 0. -1.
</event>
<event>
 4    1  0.5876320E+000  0.1000000E+03  0.7546771E-02  0.1280296E+00
         21   -1    0    0  503  502  0.00000000000E+00  0.00000000000E+00  0.45814991412E+03  0.45814991412E+03  0.00000000000E+00 0.  1.
         21   -1    0    0  501  503 -0.00000000000E+00 -0.00000000000E+00 -0.81985493589E+02  0.81985493589E+02  0.00000000000E+00 0.  1.
          6    1    1    2  501    0  0.79400332858E+02  0.38299940410E+00  0.13729976006E+03  0.23470147775E+03  0.17300000000E+03 0.  1.
         -6    1    1    2    0  502 -0.79400332858E+02 -0.38299940410E+00  0.23886466047E+03  0.30543392995E+03  0.17300000000E+03 0.  1.
</event>
<event>
 4    1  0.5876320E+000  0.1000000E+03  0.7546771E-02  0.1280296E+00
         21   -1    0    0  503  502  0.00000000000E+00  0.00000000000E+00  0.11267961919E+04  0.11267961919E+04  0.00000000000E+00 0.  1.
         21   -1    0    0  501  503 -0.00000000000E+00 -0.00000000000E+00 -0.28521003744E+02  0.28521003744E+02  0.00000000000E+00 0.  1.
          6    1    1    2  501    0 -0.28307404018E+01  0.25826151135E+02  0.67531672846E+03  0.69760783175E+03  0.17300000000E+03 0.  1.
         -6    1    1    2    0  502  0.28307404018E+01 -0.25826151135E+02  0.42295845972E+03  0.45770936392E+03  0.17300000000E+03 0.  1.
</event>
<event>
 4    1  0.5876320E+000  0.1000000E+03  0.7546771E-02  0.1280296E+00
         21   -1    0    0  503  502  0.00000000000E+00  0.00000000000E+00  0.62473612082E+03  0.62473612082E+03  0.00000000000E+00 0.  1.
         21   -1    0    0  501  503 -0.00000000000E+00 -0.00000000000E+00 -0.20690743497E+03  0.20690743497E+03  0.00000000000E+00 0.  1.
          6    1    1    2  501    0 -0.40873171491E+02  0.14448303109E+03 -0.11157705783E+03  0.25480267317E+03  0.17300000000E+03 0.  1.
         -6    1    1    2    0  502  0.40873171491E+02 -0.14448303109E+03  0.52940574368E+03  0.57684088262E+03  0.17300000000E+03 0.  1.
</event>
<event>
 4    1  0.5876320E+000  0.1000000E+03  0.7546771E-02  0.1280296E+00
         21   -1    0    0  503  502  0.00000000000E+00  0.00000000000E+00  0.17535950551E+03  0.17535950551E+03  0.00000000000E+00 0.  1.
         21   -1    0    0  501  503 -0.00000000000E+00 -0.00000000000E+00 -0.25991993096E+03  0.25991993096E+03  0.00000000000E+00 0.  1.
          6    1    1    2  501    0  0.47539799114E+02 -0.12424727532E+02 -0.15956251532E+03  0.24042379801E+03  0.17300000000E+03 0.  1.
         -6    1    1    2    0  502 -0.47539799114E+02  0.12424727532E+02  0.75002089872E+02  0.19485563846E+03  0.17300000000E+03 0.  1.
</event>
<event>
 4    1  0.5876320E+000  0.1000000E+03  0.7546771E-02  0.1280296E+00
         21   -1    0    0  501  502  0.00000000000E+00  0.00000000000E+00  0.15271156731E+04  0.15271156731E+04  0.00000000000E+00 0.  1.
         21   -1    0    0  502  503 -0.00000000000E+00 -0.00000000000E+00 -0.29141293505E+02  0.29141293505E+02  0.00000000000E+00 0.  1.
          6    1    1    2  501    0  0.78583026266E+02  0.48441842378E+02  0.10359214945E+04  0.10543169575E+04  0.17300000000E+03 0.  1.
         -6    1    1    2    0  503 -0.78583026266E+02 -0.48441842378E+02  0.46205288507E+03  0.50194000908E+03  0.17300000000E+03 0.  1.
</event>
<event>
 4    1  0.5876320E+000  0.1000000E+03  0.7546771E-02  0.1280296E+00
         21   -1    0    0  501  502  0.00000000000E+00  0.00000000000E+00  0.14760004265E+03  0.14760004265E+03  0.00000000000E+00 0.  1.
         21   -1    0    0  502  503 -0.00000000000E+00 -0.00000000000E+00 -0.25529233671E+03  0.25529233671E+03  0.00000000000E+00 0.  1.
          6    1    1    2  501    0  0.43741320648E+02  0.60996045948E+02 -0.60828100919E+01  0.18867914917E+03  0.17300000000E+03 0.  1.
         -6    1    1    2    0  503 -0.43741320648E+02 -0.60996045948E+02 -0.10160948397E+03  0.21421323018E+03  0.17300000000E+03 0.  1.
</event>
<event>
 4    1  0.5876320E+000  0.1000000E+03  0.7546771E-02  0.1280296E+00
         21   -1    0    0  501  502  0.00000000000E+00  0.00000000000E+00  0.28792642739E+03  0.28792642739E+03  0.00000000000E+00 0.  1.
         21   -1    0    0  502  503 -0.00000000000E+00 -0.00000000000E+00 -0.21373069863E+03  0.21373069863E+03  0.00000000000E+00 0. -1.
          6    1    1    2  501    0  0.74650487666E+02 -0.21126026317E+02  0.19884774147E+03  0.27475157613E+03  0.17300000000E+03 0.  1.
         -6    1    1    2    0  503 -0.74650487666E+02  0.21126026317E+02 -0.12465201271E+03  0.22690554989E+03  0.17300000000E+03 0. -1.
</event>
<event>
 4    1  0.5876320E+000  0.1000000E+03  0.7546771E-02  0.1280296E+00
         21   -1    0    0  501  502  0.00000000000E+00  0.00000000000E+00  0.20641616880E+03  0.20641616880E+03  0.00000000000E+00 0.  1.
         21   -1    0    0  502  503 -0.00000000000E+00 -0.00000000000E+00 -0.21500423638E+03  0.21500423638E+03  0.00000000000E+00 0. -1.
          6    1    1    2  501    0 -0.26805824997E+02  0.10799020188E+03  0.41222723541E+02  0.20978262295E+03  0.17300000000E+03 0.  1.
         -6    1    1    2    0  503  0.26805824997E+02 -0.10799020188E+03 -0.49810791116E+02  0.21163778223E+03  0.17300000000E+03 0. -1.
</event>
<event>
 4    1  0.5876320E+000  0.1000000E+03  0.7546771E-02  0.1280296E+00
         21   -1    0    0  501  502  0.00000000000E+00  0.00000000000E+00  0.21379471305E+04  0.21379471305E+04  0.00000000000E+00 0. -1.
         21   -1    0    0  502  503 -0.00000000000E+00 -0.00000000000E+00 -0.23126707354E+02  0.23126707354E+02  0.00000000000E+00 0. -1.
          6    1    1    2  501    0  0.28161625123E+02 -0.10491167148E+03  0.14842414338E+04  0.14982326821E+04  0.17300000000E+03 0. -1.
         -6    1    1    2    0  503 -0.28161625123E+02  0.10491167148E+03  0.63057898936E+03  0.66284115576E+03  0.17300000000E+03 0. -1.
</event>
<event>
 4    1  0.5876320E+000  0.1000000E+03  0.7546771E-02  0.1280296E+00
         21   -1    0    0  501  502  0.00000000000E+00  0.00000000000E+00  0.18945145831E+03  0.18945145831E+03  0.00000000000E+00 0. -1.
         21   -1    0    0  502  503 -0.00000000000E+00 -0.00000000000E+00 -0.39198229605E+03  0.39198229605E+03  0.00000000000E+00 0.  1.
          6    1    1    2  501    0 -0.99849892967E+02 -0.20196706303E+01  0.96479519867E+02  0.22183637652E+03  0.17300000000E+03 0. -1.
         -6    1    1    2    0  503  0.99849892967E+02  0.20196706303E+01 -0.29901035760E+03  0.35959737784E+03  0.17300000000E+03 0.  1.
</event>
<event>
 4    1  0.5876320E+000  0.1000000E+03  0.7546771E-02  0.1280296E+00
         21   -1    0    0  503  502  0.00000000000E+00  0.00000000000E+00  0.66450852572E+02  0.66450852572E+02  0.00000000000E+00 0.  1.
         21   -1    0    0  501  503 -0.00000000000E+00 -0.00000000000E+00 -0.81530393985E+03  0.81530393985E+03  0.00000000000E+00 0.  1.
          6    1    1    2  501    0 -0.25213924339E+02 -0.94229177019E+02 -0.60434011676E+03  0.63613745095E+03  0.17300000000E+03 0.  1.
         -6    1    1    2    0  502  0.25213924339E+02  0.94229177019E+02 -0.14451297052E+03  0.24561734147E+03  0.17300000000E+03 0.  1.
</event>
<event>
 4    1  0.5876320E+000  0.1000000E+03  0.7546771E-02  0.1280296E+00
         21   -1    0    0  501  502  0.00000000000E+00  0.00000000000E+00  0.27340152093E+03  0.27340152093E+03  0.00000000000E+00 0. -1.
         21   -1    0    0  502  503 -0.00000000000E+00 -0.00000000000E+00 -0.12955111397E+03  0.12955111397E+03  0.00000000000E+00 0. -1.
          6    1    1    2  501    0 -0.50378465910E+02  0.52971375780E+02  0.58967018256E+02  0.19685036378E+03  0.17300000000E+03 0. -1.
         -6    1    1    2    0  503  0.50378465910E+02 -0.52971375780E+02  0.84883388709E+02  0.20610227111E+03  0.17300000000E+03 0. -1.
</event>
<event>
 4    1  0.5876320E+000  0.1000000E+03  0.7546771E-02  0.1280296E+00
         21   -1    0    0  501  502  0.00000000000E+00  0.00000000000E+00  0.20086010511E+03  0.20086010511E+03  0.00000000000E+00 0. -1.
         21   -1    0    0  502  503 -0.00000000000E+00 -0.00000000000E+00 -0.20449293037E+03  0.20449293037E+03  0.00000000000E+00 0. -1.
          6    1    1    2  501    0 -0.95220316797E+02  0.37575948632E+02  0.24003432194E+02  0.20244511702E+03  0.17300000000E+03 0. -1.
         -6    1    1    2    0  503  0.95220316797E+02 -0.37575948632E+02 -0.27636257455E+02  0.20290791846E+03  0.17300000000E+03 0. -1.
</event>
<event>
 4    1  0.5876320E+000  0.1000000E+03  0.7546771E-02  0.1280296E+00
         21   -1    0    0  501  502  0.00000000000E+00  0.00000000000E+00  0.38298648207E+03  0.38298648207E+03  0.00000000000E+00 0.  1.
         21   -1    0    0  502  503 -0.00000000000E+00 -0.00000000000E+00 -0.19640830486E+03  0.19640830486E+03  0.00000000000E+00 0.  1.
          6    1    1    2  501    0 -0.21159903841E+03 -0.14556361074E+02  0.11178685232E+03  0.29565409020E+03  0.17300000000E+03 0.  1.
         -6    1    1    2    0  503  0.21159903841E+03  0.14556361074E+02  0.74791324892E+02  0.28374069673E+03  0.17300000000E+03 0.  1.
</event>
<event>
 4    1  0.5876320E+000  0.1000000E+03  0.7546771E-02  0.1280296E+00
         21   -1    0    0  501  502  0.00000000000E+00  0.00000000000E+00  0.60985237113E+02  0.60985237113E+02  0.00000000000E+00 0.  1.
         21   -1    0    0  502  503 -0.00000000000E+00 -0.00000000000E+00 -0.51958825912E+03  0.51958825912E+03  0.00000000000E+00 0.  1.
          6    1    1    2  501    0 -0.22993439124E+02 -0.33644080009E+02 -0.21319172862E+03  0.27756140855E+03  0.17300000000E+03 0.  1.
         -6    1    1    2    0  503  0.22993439124E+02  0.33644080009E+02 -0.24541129339E+03  0.30301208769E+03  0.17300000000E+03 0.  1.
</event>
<event>
 4    1  0.5876320E+000  0.1000000E+03  0.7546771E-02  0.1280296E+00
         21   -1    0    0  503  502  0.00000000000E+00  0.00000000000E+00  0.12225682917E+04  0.12225682917E+04  0.00000000000E+00 0.  1.
         21   -1    0    0  501  503 -0.00000000000E+00 -0.00000000000E+00 -0.21618683410E+03  0.21618683410E+03  0.00000000000E+00 0.  1.
          6    1    1    2  501    0  0.45390302209E+03 -0.16483708977E+03  0.55115470512E+03  0.75292743913E+03  0.17300000000E+03 0. -1.
         -6    1    1    2    0  502 -0.45390302209E+03  0.16483708977E+03  0.45522675252E+03  0.68582768670E+03  0.17300000000E+03 0. -1.
</event>
<event>
 4    1  0.5876320E+000  0.1000000E+03  0.7546771E-02  0.1280296E+00
         21   -1    0    0  501  502  0.00000000000E+00  0.00000000000E+00  0.29483835298E+02  0.29483835298E+02  0.00000000000E+00 0.  1.
         21   -1    0    0  502  503 -0.00000000000E+00 -0.00000000000E+00 -0.17075556203E+04  0.17075556203E+04  0.00000000000E+00 0.  1.
          6    1    1    2  501    0 -0.66302820336E+02 -0.95054790181E+02 -0.51553341083E+03  0.55599925791E+03  0.17300000000E+03 0. -1.
         -6    1    1    2    0  503  0.66302820336E+02  0.95054790181E+02 -0.11625383742E+04  0.11810401977E+04  0.17300000000E+03 0. -1.
</event>
<event>
 4    1  0.5876320E+000  0.1000000E+03  0.7546771E-02  0.1280296E+00
         21   -1    0    0  501  502  0.00000000000E+00  0.00000000000E+00  0.22895809585E+03  0.22895809585E+03  0.00000000000E+00 0.  1.
         21   -1    0    0  502  503 -0.00000000000E+00 -0.00000000000E+00 -0.13659630298E+03  0.13659630298E+03  0.00000000000E+00 0.  1.
          6    1    1    2  501    0  0.16655653479E+02  0.10050639163E+02  0.78326998819E+02  0.19089930562E+03  0.17300000000E+03 0. -1.
         -6    1    1    2    0  503 -0.16655653479E+02 -0.10050639163E+02  0.14034794047E+02  0.17465509321E+03  0.17300000000E+03 0. -1.
</event>
<event>
 4    1  0.5876320E+000  0.1000000E+03  0.7546771E-02  0.1280296E+00
         21   -1    0    0  501  502  0.00000000000E+00  0.00000000000E+00  0.71518343096E+02  0.71518343096E+02  0.00000000000E+00 0.  1.
         21   -1    0    0  502  503 -0.00000000000E+00 -0.00000000000E+00 -0.85905732533E+03  0.85905732533E+03  0.00000000000E+00 0. -1.
          6    1    1    2  501    0  0.15260844045E+03 -0.76371174972E+02 -0.30204816517E+03  0.38766478631E+03  0.17300000000E+03 0.  1.
         -6    1    1    2    0  503 -0.15260844045E+03  0.76371174972E+02 -0.48549081707E+03  0.54291088212E+03  0.17300000000E+03 0.  1.
</event>
<event>
 4    1  0.5876320E+000  0.1000000E+03  0.7546771E-02  0.1280296E+00
         21   -1    0    0  501  502  0.00000000000E+00  0.00000000000E+00  0.61753192703E+03  0.61753192703E+03  0.00000000000E+00 0.  1.
         21   -1    0    0  502  503 -0.00000000000E+00 -0.00000000000E+00 -0.11889398403E+03  0.11889398403E+03  0.00000000000E+00 0. -1.
          6    1    1    2  501    0 -0.99031191527E+02  0.90421163186E+02  0.46635573414E+03  0.51516971419E+03  0.17300000000E+03 0. -1.
         -6    1    1    2    0  503  0.99031191527E+02 -0.90421163186E+02  0.32282208850E+02  0.22125619687E+03  0.17300000000E+03 0.  1.
</event>
<event>
 4    1  0.5876320E+000  0.1000000E+03  0.7546771E-02  0.1280296E+00
         21   -1    0    0  503  502  0.00000000000E+00  0.00000000000E+00  0.95723913635E+02  0.95723913635E+02  0.00000000000E+00 0.  1.
         21   -1    0    0  501  503 -0.00000000000E+00 -0.00000000000E+00 -0.40927798149E+03  0.40927798149E+03  0.00000000000E+00 0. -1.
          6    1    1    2  501    0 -0.69493402347E+01 -0.95750818833E+02 -0.14954067907E+03  0.24800791789E+03  0.17300000000E+03 0.  1.
         -6    1    1    2    0  502  0.69493402347E+01  0.95750818833E+02 -0.16401338878E+03  0.25699397724E+03  0.17300000000E+03 0. -1.
</event>
<event>
 4    1  0.5876320E+000  0.1000000E+03  0.7546771E-02  0.1280296E+00
         21   -1    0    0  503  502  0.00000000000E+00  0.00000000000E+00  0.14622131087E+03  0.14622131087E+03  0.00000000000E+00 0.  1.
         21   -1    0    0  501  503 -0.00000000000E+00 -0.00000000000E+00 -0.54513109881E+03  0.54513109881E+03  0.00000000000E+00 0. -1.
          6    1    1    2  501    0 -0.13255284216E+03  0.12846865751E+03 -0.46010489754E+02  0.25713890623E+03  0.17300000000E+03 0.  1.
         -6    1    1    2    0  502  0.13255284216E+03 -0.12846865751E+03 -0.35289929818E+03  0.43421350346E+03  0.17300000000E+03 0. -1.
</event>
<event>
 4    1  0.5876320E+000  0.1000000E+03  0.7546771E-02  0.1280296E+00
         21   -1    0    0  501  502  0.00000000000E+00  0.00000000000E+00  0.25136724352E+03  0.25136724352E+03  0.00000000000E+00 0.  1.
         21   -1    0    0  502  503 -0.00000000000E+00 -0.00000000000E+00 -0.70324222884E+03  0.70324222884E+03  0.00000000000E+00 0.  1.
          6    1    1    2  501    0 -0.53288482829E+02 -0.29045533454E+03  0.51301594699E+02  0.34607053816E+03  0.17300000000E+03 0. -1.
         -6    1    1    2    0  503  0.53288482829E+02  0.29045533454E+03 -0.50317658002E+03  0.60853893420E+03  0.17300000000E+03 0. -1.
</event>
<event>
 4    1  0.5876320E+000  0.1000000E+03  0.7546771E-02  0.1280296E+00
         21   -1    0    0  501  502  0.00000000000E+00  0.00000000000E+00  0.47573209255E+03  0.47573209255E+03  0.00000000000E+00 0.  1.
         21   -1    0    0  502  503 -0.00000000000E+00 -0.00000000000E+00 -0.23987695445E+03  0.23987695445E+03  0.00000000000E+00 0.  1.
          6    1    1    2  501    0 -0.74599722004E+02  0.10737122866E+03  0.39228308108E+03  0.44822841829E+03  0.17300000000E+03 0.  1.
         -6    1    1    2    0  503  0.74599722004E+02 -0.10737122866E+03 -0.15642794298E+03  0.26738062871E+03  0.17300000000E+03 0.  1.
</event>
<event>
 4    1  0.5876320E+000  0.1000000E+03  0.7546771E-02  0.1280296E+00
         21   -1    0    0  501  502  0.00000000000E+00  0.00000000000E+00  0.17902759794E+03  0.17902759794E+03  0.00000000000E+00 0.  1.
         21   -1    0    0  502  503 -0.00000000000E+00 -0.00000000000E+00 -0.18134091148E+03  0.18134091148E+03  0.00000000000E+00 0.  1.
          6    1    1    2  501    0  0.11841337640E+02 -0.21485379624E+02  0.42823664775E+02  0.17990193184E+03  0.17300000000E+03 0.  1.
         -6    1    1    2    0  503 -0.11841337640E+02  0.21485379624E+02 -0.45136978313E+02  0.18046657759E+03  0.17300000000E+03 0.  1.
</event>
<event>
 4    1  0.5876320E+000  0.1000000E+03  0.7546771E-02  0.1280296E+00
         21   -1    0    0  501  502  0.00000000000E+00  0.00000000000E+00  0.71952123959E+03  0.71952123959E+03  0.00000000000E+00 0.  1.
         21   -1    0    0  502  503 -0.00000000000E+00 -0.00000000000E+00 -0.60361277666E+02  0.60361277666E+02  0.00000000000E+00 0.  1.
          6    1    1    2  501    0  0.23443797325E+02 -0.93402444064E+02  0.45125351387E+03  0.49278023699E+03  0.17300000000E+03 0.  1.
         -6    1    1    2    0  503 -0.23443797325E+02  0.93402444064E+02  0.20790644805E+03  0.28710228026E+03  0.17300000000E+03 0.  1.
</event>
<event>
 4    1  0.5876320E+000  0.1000000E+03  0.7546771E-02  0.1280296E+00
         21   -1    0    0  501  502  0.00000000000E+00  0.00000000000E+00  0.87165242910E+02  0.87165242910E+02  0.00000000000E+00 0.  1.
         21   -1    0    0  502  503 -0.00000000000E+00 -0.00000000000E+00 -0.10429717005E+04  0.10429717005E+04  0.00000000000E+00 0.  1.
          6    1    1    2  501    0 -0.34981953155E+02  0.27283489372E+02 -0.22632457569E+02  0.18002598139E+03  0.17300000000E+03 0.  1.
         -6    1    1    2    0  503  0.34981953155E+02 -0.27283489372E+02 -0.93317399999E+03  0.95011096199E+03  0.17300000000E+03 0.  1.
</event>
<event>
 4    1  0.5876320E+000  0.1000000E+03  0.7546771E-02  0.1280296E+00
         21   -1    0    0  503  502  0.00000000000E+00  0.00000000000E+00  0.23907892870E+02  0.23907892870E+02  0.00000000000E+00 0. -1.
         21   -1    0    0  501  503 -0.00000000000E+00 -0.00000000000E+00 -0.20721680965E+04  0.20721680965E+04  0.00000000000E+00 0.  1.
          6    1    1    2  501    0 -0.97785431778E+02  0.93681147874E+02 -0.11921972432E+04  0.12122711804E+04  0.17300000000E+03 0. -1.
         -6    1    1    2    0  502  0.97785431778E+02 -0.93681147874E+02 -0.85606296036E+03  0.88380480890E+03  0.17300000000E+03 0.  1.
</event>
<event>
 4    1  0.5876320E+000  0.1000000E+03  0.7546771E-02  0.1280296E+00
         21   -1    0    0  503  502  0.00000000000E+00  0.00000000000E+00  0.10272085597E+03  0.10272085597E+03  0.00000000000E+00 0. -1.
         21   -1    0    0  501  503 -0.00000000000E+00 -0.00000000000E+00 -0.33205707039E+03  0.33205707039E+03  0.00000000000E+00 0. -1.
          6    1    1    2  501    0 -0.36615885996E+01 -0.39439810493E+02 -0.17481713096E+03  0.24911630850E+03  0.17300000000E+03 0.  1.
         -6    1    1    2    0  502  0.36615885996E+01  0.39439810493E+02 -0.54519083458E+02  0.18566161785E+03  0.17300000000E+03 0.  1.
</event>
<event>
 4    1  0.5876320E+000  0.1000000E+03  0.7546771E-02  0.1280296E+00
         21   -1    0    0  503  502  0.00000000000E+00  0.00000000000E+00  0.76205384164E+03  0.76205384164E+03  0.00000000000E+00 0. -1.
         21   -1    0    0  501  503 -0.00000000000E+00 -0.00000000000E+00 -0.29735477419E+03  0.29735477419E+03  0.00000000000E+00 0. -1.
          6    1    1    2  501    0  0.71289082887E+02  0.80705115532E+02 -0.24636669715E+03  0.31972018778E+03  0.17300000000E+03 0.  1.
         -6    1    1    2    0  502 -0.71289082887E+02 -0.80705115532E+02  0.71106576460E+03  0.73968842805E+03  0.17300000000E+03 0.  1.
</event>
<event>
 4    1  0.5876320E+000  0.1000000E+03  0.7546771E-02  0.1280296E+00
         21   -1    0    0  501  502  0.00000000000E+00  0.00000000000E+00  0.22141422927E+02  0.22141422927E+02  0.00000000000E+00 0. -1.
         21   -1    0    0  502  503 -0.00000000000E+00 -0.00000000000E+00 -0.24785513934E+04  0.24785513934E+04  0.00000000000E+00 0. -1.
          6    1    1    2  501    0 -0.52492795159E+01 -0.48723265867E+02 -0.42674099595E+03  0.46307492827E+03  0.17300000000E+03 0. -1.
         -6    1    1    2    0  503  0.52492795159E+01  0.48723265867E+02 -0.20296689745E+04  0.20376178881E+04  0.17300000000E+03 0. -1.
</event>
<event>
 4    1  0.5876320E+000  0.1000000E+03  0.7546771E-02  0.1280296E+00
         21   -1    0    0  501  502  0.00000000000E+00  0.00000000000E+00  0.17865097837E+03  0.17865097837E+03  0.00000000000E+00 0. -1.
         21   -1    0    0  502  503 -0.00000000000E+00 -0.00000000000E+00 -0.64038210472E+03  0.64038210472E+03  0.00000000000E+00 0. -1.
          6    1    1    2  501    0  0.19535385142E+03  0.14455896351E+02  0.29100984510E+02  0.26296001122E+03  0.17300000000E+03 0. -1.
         -6    1    1    2    0  503 -0.19535385142E+03 -0.14455896351E+02 -0.49083211086E+03  0.55607307186E+03  0.17300000000E+03 0. -1.
</event>
<event>
 4    1  0.5876320E+000  0.1000000E+03  0.7546771E-02  0.1280296E+00
         21   -1    0    0  501  502  0.00000000000E+00  0.00000000000E+00  0.28261191608E+03  0.28261191608E+03  0.00000000000E+00 0.  1.
         21   -1    0    0  502  503 -0.00000000000E+00 -0.00000000000E+00 -0.29297215476E+03  0.29297215476E+03  0.00000000000E+00 0. -1.
          6    1    1    2  501    0  0.74475171472E+02  0.51130486928E+02  0.20629572638E+03  0.28398557108E+03  0.17300000000E+03 0.  1.
         -6    1    1    2    0  503 -0.74475171472E+02 -0.51130486928E+02 -0.21665596507E+03  0.29159849975E+03  0.17300000000E+03 0. -1.
</event>
<event>
 4    1  0.5876320E+000  0.1000000E+03  0.7546771E-02  0.1280296E+00
         21   -1    0    0  501  502  0.00000000000E+00  0.00000000000E+00  0.97429794557E+02  0.97429794557E+02  0.00000000000E+00 0.  1.
         21   -1    0    0  502  503 -0.00000000000E+00 -0.00000000000E+00 -0.48918432569E+03  0.48918432569E+03  0.00000000000E+00 0. -1.
          6    1    1    2  501    0 -0.93687648023E+02  0.63468578899E+02 -0.10157779208E+03  0.23033168202E+03  0.17300000000E+03 0.  1.
         -6    1    1    2    0  503  0.93687648023E+02 -0.63468578899E+02 -0.29017673905E+03  0.35628243822E+03  0.17300000000E+03 0. -1.
</event>
<event>
 4    1  0.5876320E+000  0.1000000E+03  0.7546771E-02  0.1280296E+00
         21   -1    0    0  501  502  0.00000000000E+00  0.00000000000E+00  0.80806724528E+03  0.80806724528E+03  0.00000000000E+00 0.  1.
         21   -1    0    0  502  503 -0.00000000000E+00 -0.00000000000E+00 -0.87211508500E+02  0.87211508500E+02  0.00000000000E+00 0. -1.
          6    1    1    2  501    0 -0.11949825765E+03  0.11596286984E+03  0.55132661437E+03  0.60134620351E+03  0.17300000000E+03 0.  1.
         -6    1    1    2    0  503  0.11949825765E+03 -0.11596286984E+03  0.16952912241E+03  0.29393255027E+03  0.17300000000E+03 0. -1.
</event>
<event>
 4    1  0.5876320E+000  0.1000000E+03  0.7546771E-02  0.1280296E+00
         21   -1    0    0  501  502  0.00000000000E+00  0.00000000000E+00  0.17454812006E+03  0.17454812006E+03  0.00000000000E+00 0.  1.
         21   -1    0    0  502  503 -0.00000000000E+00 -0.00000000000E+00 -0.45115512811E+03  0.45115512811E+03  0.00000000000E+00 0. -1.
          6    1    1    2  501    0  0.10888809665E+03 -0.12580033284E+03  0.23780036597E+02  0.24119873854E+03  0.17300000000E+03 0.  1.
         -6    1    1    2    0  503 -0.10888809665E+03  0.12580033284E+03 -0.30038704465E+03  0.38450450963E+03  0.17300000000E+03 0. -1.
</event>
<event>
 4    1  0.5876320E+000  0.1000000E+03  0.7546771E-02  0.1280296E+00
         21   -1    0    0  501  502  0.00000000000E+00  0.00000000000E+00  0.56797303771E+02  0.56797303771E+02  0.00000000000E+00 0. -1.
         21   -1    0    0  502  503 -0.00000000000E+00 -0.00000000000E+00 -0.62670122189E+03  0.62670122189E+03  0.00000000000E+00 0.  1.
          6    1    1    2  501    0 -0.24456551945E+01  0.39970380505E+02 -0.16950010752E+03  0.24548502805E+03  0.17300000000E+03 0. -1.
         -6    1    1    2    0  503  0.24456551945E+01 -0.39970380505E+02 -0.40040381061E+03  0.43801349762E+03  0.17300000000E+03 0.  1.
</event>
<event>
 4    1  0.5876320E+000  0.1000000E+03  0.7546771E-02  0.1280296E+00
         21   -1    0    0  501  502  0.00000000000E+00  0.00000000000E+00  0.43347578356E+03  0.43347578356E+03  0.00000000000E+00 0. -1.
         21   -1    0    0  502  503 -0.00000000000E+00 -0.00000000000E+00 -0.54278543231E+03  0.54278543231E+03  0.00000000000E+00 0.  1.
          6    1    1    2  501    0 -0.16818226490E+03  0.18923159503E+03  0.32357118386E+03  0.44578154045E+03  0.17300000000E+03 0. -1.
         -6    1    1    2    0  503  0.16818226490E+03 -0.18923159503E+03 -0.43288083261E+03  0.53047967541E+03  0.17300000000E+03 0.  1.
</event>
<event>
 4    1  0.5876320E+000  0.1000000E+03  0.7546771E-02  0.1280296E+00
         21   -1    0    0  503  502  0.00000000000E+00  0.00000000000E+00  0.88798852287E+03  0.88798852287E+03  0.00000000000E+00 0. -1.
         21   -1    0    0  501  503 -0.00000000000E+00 -0.00000000000E+00 -0.14071639212E+03  0.14071639212E+03  0.00000000000E+00 0.  1.
          6    1    1    2  501    0  0.16125054512E+03 -0.17602405386E+03  0.89843341101E+02  0.30819966220E+03  0.17300000000E+03 0.  1.
         -6    1    1    2    0  502 -0.16125054512E+03  0.17602405386E+03  0.65742878965E+03  0.72050525279E+03  0.17300000000E+03 0. -1.
</event>
<event>
 4    1  0.5876320E+000  0.1000000E+03  0.7546771E-02  0.1280296E+00
         21   -1    0    0  503  502  0.00000000000E+00  0.00000000000E+00  0.15996044992E+03  0.15996044992E+03  0.00000000000E+00 0. -1.
         21   -1    0    0  501  503 -0.00000000000E+00 -0.00000000000E+00 -0.41230149897E+03  0.41230149897E+03  0.00000000000E+00 0.  1.
          6    1    1    2  501    0  0.15177985361E+03  0.81214619571E+02 -0.21523435384E+03  0.32540400346E+03  0.17300000000E+03 0.  1.
         -6    1    1    2    0  502 -0.15177985361E+03 -0.81214619571E+02 -0.37106695214E+02  0.24685794543E+03  0.17300000000E+03 0. -1.
</event>
<event>
 4    1  0.5876320E+000  0.1000000E+03  0.7546771E-02  0.1280296E+00
         21   -1    0    0  501  502  0.00000000000E+00  0.00000000000E+00  0.15175795172E+03  0.15175795172E+03  0.00000000000E+00 0.  1.
         21   -1    0    0  502  503 -0.00000000000E+00 -0.00000000000E+00 -0.25248505021E+03  0.25248505021E+03  0.00000000000E+00 0.  1.
          6    1    1    2  501    0 -0.29701926067E+02  0.72657248681E+01  0.38776610674E+02  0.17991003503E+03  0.17300000000E+03 0.  1.
         -6    1    1    2    0  503  0.29701926067E+02 -0.72657248681E+01 -0.13950370916E+03  0.22433296690E+03  0.17300000000E+03 0.  1.
</event>
<event>
 4    1  0.5876320E+000  0.1000000E+03  0.7546771E-02  0.1280296E+00
         21   -1    0    0  501  502  0.00000000000E+00  0.00000000000E+00  0.72285788962E+02  0.72285788962E+02  0.00000000000E+00 0.  1.
         21   -1    0    0  502  503 -0.00000000000E+00 -0.00000000000E+00 -0.43475687723E+03  0.43475687723E+03  0.00000000000E+00 0.  1.
          6    1    1    2  501    0  0.26707003871E+02  0.25148629409E+02 -0.16360262875E+03  0.24091603880E+03  0.17300000000E+03 0.  1.
         -6    1    1    2    0  503 -0.26707003871E+02 -0.25148629409E+02 -0.19886845952E+03  0.26612662739E+03  0.17300000000E+03 0.  1.
</event>
<event>
 4    1  0.5876320E+000  0.1000000E+03  0.7546771E-02  0.1280296E+00
         21   -1    0    0  503  502  0.00000000000E+00  0.00000000000E+00  0.42237394137E+02  0.42237394137E+02  0.00000000000E+00 0. -1.
         21   -1    0    0  501  503 -0.00000000000E+00 -0.00000000000E+00 -0.12516866258E+04  0.12516866258E+04  0.00000000000E+00 0.  1.
          6    1    1    2  501    0 -0.62774097457E+02 -0.11805139803E+03 -0.40452893589E+03  0.45983625331E+03  0.17300000000E+03 0. -1.
         -6    1    1    2    0  502  0.62774097457E+02  0.11805139803E+03 -0.80492029579E+03  0.83408776664E+03  0.17300000000E+03 0.  1.
</event>
<event>
 4    1  0.5876320E+000  0.1000000E+03  0.7546771E-02  0.1280296E+00
         21   -1    0    0  503  502  0.00000000000E+00  0.00000000000E+00  0.17448176614E+03  0.17448176614E+03  0.00000000000E+00 0. -1.
         21   -1    0    0  501  503 -0.00000000000E+00 -0.00000000000E+00 -0.28693010608E+03  0.28693010608E+03  0.00000000000E+00 0.  1.
          6    1    1    2  501    0 -0.13853187169E+01 -0.68814067956E+02  0.71721234836E+02  0.19952501242E+03  0.17300000000E+03 0. -1.
         -6    1    1    2    0  502  0.13853187169E+01  0.68814067956E+02 -0.18416957478E+03  0.26188685979E+03  0.17300000000E+03 0.  1.
</event>
<event>
 4    1  0.5876320E+000  0.1000000E+03  0.7546771E-02  0.1280296E+00
         21   -1    0    0  503  502  0.00000000000E+00  0.00000000000E+00  0.15038992618E+03  0.15038992618E+03  0.00000000000E+00 0. -1.
         21   -1    0    0  501  503 -0.00000000000E+00 -0.00000000000E+00 -0.28822533150E+03  0.28822533150E+03  0.00000000000E+00 0.  1.
          6    1    1    2  501    0  0.15216738205E+02  0.11138827289E+03 -0.98304278240E+02  0.22854239777E+03  0.17300000000E+03 0. -1.
         -6    1    1    2    0  502 -0.15216738205E+02 -0.11138827289E+03 -0.39531127078E+02  0.21007285990E+03  0.17300000000E+03 0.  1.
</event>
<event>
 4    1  0.5876320E+000  0.1000000E+03  0.7546771E-02  0.1280296E+00
         21   -1    0    0  503  502  0.00000000000E+00  0.00000000000E+00  0.19257958473E+03  0.19257958473E+03  0.00000000000E+00 0.  1.
         21   -1    0    0  501  503 -0.00000000000E+00 -0.00000000000E+00 -0.61180623252E+03  0.61180623252E+03  0.00000000000E+00 0.  1.
          6    1    1    2  501    0  0.22909010569E+02  0.99047788757E+02 -0.53592538522E+03  0.57225894991E+03  0.17300000000E+03 0.  1.
         -6    1    1    2    0  502 -0.22909010569E+02 -0.99047788757E+02  0.11669873744E+03  0.23212686734E+03  0.17300000000E+03 0.  1.
</event>
<event>
 4    1  0.5876320E+000  0.1000000E+03  0.7546771E-02  0.1280296E+00
         21   -1    0    0  501  502  0.00000000000E+00  0.00000000000E+00  0.21136579882E+02  0.21136579882E+02  0.00000000000E+00 0.  1.
         21   -1    0    0  502  503 -0.00000000000E+00 -0.00000000000E+00 -0.18516925387E+04  0.18516925387E+04  0.00000000000E+00 0.  1.
          6    1    1    2  501    0  0.59501837263E+02 -0.48559879188E+02 -0.64291975612E+03  0.67020395651E+03  0.17300000000E+03 0.  1.
         -6    1    1    2    0  503 -0.59501837263E+02  0.48559879188E+02 -0.11876362027E+04  0.12026251621E+04  0.17300000000E+03 0.  1.
</event>
<event>
 4    1  0.5876320E+000  0.1000000E+03  0.7546771E-02  0.1280296E+00
         21   -1    0    0  501  502  0.00000000000E+00  0.00000000000E+00  0.10159174532E+03  0.10159174532E+03  0.00000000000E+00 0.  1.
         21   -1    0    0  502  503 -0.00000000000E+00 -0.00000000000E+00 -0.86442363784E+03  0.86442363784E+03  0.00000000000E+00 0.  1.
          6    1    1    2  501    0 -0.23490335124E+03  0.37581956196E+02 -0.32270963730E+03  0.43664917023E+03  0.17300000000E+03 0.  1.
         -6    1    1    2    0  503  0.23490335124E+03 -0.37581956196E+02 -0.44012225523E+03  0.52936621294E+03  0.17300000000E+03 0.  1.
</event>
<event>
 4    1  0.5876320E+000  0.1000000E+03  0.7546771E-02  0.1280296E+00
         21   -1    0    0  501  502  0.00000000000E+00  0.00000000000E+00  0.23818990760E+04  0.23818990760E+04  0.00000000000E+00 0.  1.
         21   -1    0    0  502  503 -0.00000000000E+00 -0.00000000000E+00 -0.25571088022E+02  0.25571088022E+02  0.00000000000E+00 0.  1.
          6    1    1    2  501    0  0.12468382524E+03 -0.49263076970E+02  0.17344061568E+04  0.17481609262E+04  0.17300000000E+03 0.  1.
         -6    1    1    2    0  503 -0.12468382524E+03  0.49263076970E+02  0.62192183121E+03  0.65930923789E+03  0.17300000000E+03 0.  1.
</event>
<event>
 4    1  0.5876320E+000  0.1000000E+03  0.7546771E-02  0.1280296E+00
         21   -1    0    0  501  502  0.00000000000E+00  0.00000000000E+00  0.18766693636E+02  0.18766693636E+02  0.00000000000E+00 0.  1.
         21   -1    0    0  502  503 -0.00000000000E+00 -0.00000000000E+00 -0.24075375237E+04  0.24075375237E+04  0.00000000000E+00 0.  1.
          6    1    1    2  501    0  0.47441910016E+02  0.49240013057E+02 -0.60740945850E+03  0.63525629787E+03  0.17300000000E+03 0.  1.
         -6    1    1    2    0  503 -0.47441910016E+02 -0.49240013057E+02 -0.17813613716E+04  0.17910479195E+04  0.17300000000E+03 0.  1.
</event>
<event>
 4    1  0.5876320E+000  0.1000000E+03  0.7546771E-02  0.1280296E+00
         21   -1    0    0  501  502  0.00000000000E+00  0.00000000000E+00  0.69425713960E+03  0.69425713960E+03  0.00000000000E+00 0. -1.
         21   -1    0    0  502  503 -0.00000000000E+00 -0.00000000000E+00 -0.49841291393E+02  0.49841291393E+02  0.00000000000E+00 0.  1.
          6    1    1    2  501    0 -0.96144031952E+01  0.40651830958E+02  0.43044607599E+03  0.46578732534E+03  0.17300000000E+03 0. -1.
         -6    1    1    2    0  503  0.96144031952E+01 -0.40651830958E+02  0.21396977221E+03  0.27831110565E+03  0.17300000000E+03 0.  1.
</event>
<event>
 4    1  0.5876320E+000  0.1000000E+03  0.7546771E-02  0.1280296E+00
         21   -1    0    0  501  502  0.00000000000E+00  0.00000000000E+00  0.45074863864E+03  0.45074863864E+03  0.00000000000E+00 0. -1.
         21   -1    0    0  502  503 -0.00000000000E+00 -0.00000000000E+00 -0.11538787003E+03  0.11538787003E+03  0.00000000000E+00 0.  1.
          6    1    1    2  501    0  0.28037758022E+02  0.16003094522E+02  0.34771820841E+03  0.38971677840E+03  0.17300000000E+03 0. -1.
         -6    1    1    2    0  503 -0.28037758022E+02 -0.16003094522E+02 -0.12357439801E+02  0.17641973027E+03  0.17300000000E+03 0.  1.
</event>
<event>
 4    1  0.5876320E+000  0.1000000E+03  0.7546771E-02  0.1280296E+00
         21   -1    0    0  501  502  0.00000000000E+00  0.00000000000E+00  0.32117724801E+03  0.32117724801E+03  0.00000000000E+00 0. -1.
         21   -1    0    0  502  503 -0.00000000000E+00 -0.00000000000E+00 -0.31483104043E+03  0.31483104043E+03  0.00000000000E+00 0.  1.
          6    1    1    2  501    0  0.12669131304E+03 -0.14001078809E+03  0.19168675270E+03  0.31988516805E+03  0.17300000000E+03 0. -1.
         -6    1    1    2    0  503 -0.12669131304E+03  0.14001078809E+03 -0.18534054511E+03  0.31612312039E+03  0.17300000000E+03 0.  1.
</event>
<event>
 4    1  0.5876320E+000  0.1000000E+03  0.7546771E-02  0.1280296E+00
         21   -1    0    0  501  502  0.00000000000E+00  0.00000000000E+00  0.24899963167E+03  0.24899963167E+03  0.00000000000E+00 0. -1.
         21   -1    0    0  502  503 -0.00000000000E+00 -0.00000000000E+00 -0.22247749226E+03  0.22247749226E+03  0.00000000000E+00 0.  1.
          6    1    1    2  501    0  0.86193988046E+02 -0.11201928752E+03 -0.60951580454E+02  0.23156385623E+03  0.17300000000E+03 0. -1.
         -6    1    1    2    0  503 -0.86193988046E+02  0.11201928752E+03  0.87473719872E+02  0.23991326770E+03  0.17300000000E+03 0.  1.
</event>
<event>
 4    1  0.5876320E+000  0.1000000E+03  0.7546771E-02  0.1280296E+00
         21   -1    0    0  501  502  0.00000000000E+00  0.00000000000E+00  0.13065507564E+03  0.13065507564E+03  0.00000000000E+00 0. -1.
         21   -1    0    0  502  503 -0.00000000000E+00 -0.00000000000E+00 -0.30817430184E+03  0.30817430184E+03  0.00000000000E+00 0.  1.
          6    1    1    2  501    0  0.49110614627E+02  0.80568464490E+02 -0.13014409558E+03  0.23615591365E+03  0.17300000000E+03 0. -1.
         -6    1    1    2    0  503 -0.49110614627E+02 -0.80568464490E+02 -0.47375130626E+02  0.20267346383E+03  0.17300000000E+03 0.  1.
</event>
<event>
 4    1  0.5876320E+000  0.1000000E+03  0.7546771E-02  0.1280296E+00
         21   -1    0    0  501  502  0.00000000000E+00  0.00000000000E+00  0.19146271761E+04  0.19146271761E+04  0.00000000000E+00 0.  1.
         21   -1    0    0  502  503 -0.00000000000E+00 -0.00000000000E+00 -0.28942164338E+02  0.28942164338E+02  0.00000000000E+00 0. -1.
          6    1    1    2  501    0  0.11946161588E+03 -0.93249022643E+02  0.11499949164E+04  0.11727675668E+04  0.17300000000E+03 0. -1.
         -6    1    1    2    0  503 -0.11946161588E+03  0.93249022643E+02  0.73569009532E+03  0.77080177364E+03  0.17300000000E+03 0.  1.
</event>
<event>
 4    1  0.5876320E+000  0.1000000E+03  0.7546771E-02  0.1280296E+00
         21   -1    0    0  503  502  0.00000000000E+00  0.00000000000E+00  0.27893987529E+04  0.27893987529E+04  0.00000000000E+00 0. -1.
         21   -1    0    0  501  503 -0.00000000000E+00 -0.00000000000E+00 -0.21580216376E+02  0.21580216376E+02  0.00000000000E+00 0. -1.
          6    1    1    2  501    0 -0.95183756221E+02 -0.10217358494E+03  0.78947939486E+03  0.82018662743E+03  0.17300000000E+03 0. -1.
         -6    1    1    2    0  502  0.95183756221E+02  0.10217358494E+03  0.19783391416E+04  0.19907923418E+04  0.17300000000E+03 0. -1.
</event>
<event>
 4    1  0.5876320E+000  0.1000000E+03  0.7546771E-02  0.1280296E+00
         21   -1    0    0  503  502  0.00000000000E+00  0.00000000000E+00  0.21167446191E+03  0.21167446191E+03  0.00000000000E+00 0. -1.
         21   -1    0    0  501  503 -0.00000000000E+00 -0.00000000000E+00 -0.75009731352E+03  0.75009731352E+03  0.00000000000E+00 0. -1.
          6    1    1    2  501    0  0.62434182314E+02  0.12575793843E+02 -0.69553671268E+03  0.71955298373E+03  0.17300000000E+03 0. -1.
         -6    1    1    2    0  502 -0.62434182314E+02 -0.12575793843E+02  0.15711386107E+03  0.24221879170E+03  0.17300000000E+03 0. -1.
</event>
<event>
 4    1  0.5876320E+000  0.1000000E+03  0.7546771E-02  0.1280296E+00
         21   -1    0    0  503  502  0.00000000000E+00  0.00000000000E+00  0.14343677323E+04  0.14343677323E+04  0.00000000000E+00 0. -1.
         21   -1    0    0  501  503 -0.00000000000E+00 -0.00000000000E+00 -0.28081350902E+02  0.28081350902E+02  0.00000000000E+00 0. -1.
          6    1    1    2  501    0  0.12095583777E+02  0.10101244638E+03  0.70165809160E+03  0.72979647504E+03  0.17300000000E+03 0. -1.
         -6    1    1    2    0  502 -0.12095583777E+02 -0.10101244638E+03  0.70462828984E+03  0.73265260821E+03  0.17300000000E+03 0. -1.
</event>
<event>
 4    1  0.5876320E+000  0.1000000E+03  0.7546771E-02  0.1280296E+00
         21   -1    0    0  503  502  0.00000000000E+00  0.00000000000E+00  0.49771186309E+02  0.49771186309E+02  0.00000000000E+00 0. -1.
         21   -1    0    0  501  503 -0.00000000000E+00 -0.00000000000E+00 -0.10993264826E+04  0.10993264826E+04  0.00000000000E+00 0. -1.
          6    1    1    2  501    0 -0.56986119544E+02  0.19681978541E+02 -0.88200105339E+03  0.90082720667E+03  0.17300000000E+03 0. -1.
         -6    1    1    2    0  502  0.56986119544E+02 -0.19681978541E+02 -0.16755424287E+03  0.24827046221E+03  0.17300000000E+03 0. -1.
</event>
<event>
 4    1  0.5876320E+000  0.1000000E+03  0.7546771E-02  0.1280296E+00
         21   -1    0    0  503  502  0.00000000000E+00  0.00000000000E+00  0.62406204234E+02  0.62406204234E+02  0.00000000000E+00 0. -1.
         21   -1    0    0  501  503 -0.00000000000E+00 -0.00000000000E+00 -0.48863787197E+03  0.48863787197E+03  0.00000000000E+00 0. -1.
          6    1    1    2  501    0 -0.80586388737E+01  0.22290573984E+02 -0.21028306094E+03  0.27333089300E+03  0.17300000000E+03 0.  1.
         -6    1    1    2    0  502  0.80586388737E+01 -0.22290573984E+02 -0.21594860679E+03  0.27771318320E+03  0.17300000000E+03 0.  1.
</event>
<event>
 4    1  0.5876320E+000  0.1000000E+03  0.7546771E-02  0.1280296E+00
         21   -1    0    0  503  502  0.00000000000E+00  0.00000000000E+00  0.79283786516E+03  0.79283786516E+03  0.00000000000E+00 0. -1.
         21   -1    0    0  501  503 -0.00000000000E+00 -0.00000000000E+00 -0.54024782153E+02  0.54024782153E+02  0.00000000000E+00 0.  1.
          6    1    1    2  501    0  0.36792731420E+02 -0.83309074878E+02  0.23049617533E+03  0.30224426196E+03  0.17300000000E+03 0.  1.
         -6    1    1    2    0  502 -0.36792731420E+02  0.83309074878E+02  0.50831690768E+03  0.54461838536E+03  0.17300000000E+03 0. -1.
</event>
<event>
 4    1  0.5876320E+000  0.1000000E+03  0.7546771E-02  0.1280296E+00
         21   -1    0    0  501  502  0.00000000000E+00  0.00000000000E+00  0.27697112894E+03  0.27697112894E+03  0.00000000000E+00 0.  1.
         21   -1    0    0  502  503 -0.00000000000E+00 -0.00000000000E+00 -0.29369718528E+03  0.29369718528E+03  0.00000000000E+00 0.  1.
          6    1    1    2  501    0 -0.16705974075E+03 -0.98182440885E+02  0.10944960181E+03  0.28188111681E+03  0.17300000000E+03 0.  1.
         -6    1    1    2    0  503  0.16705974075E+03  0.98182440885E+02 -0.12617565814E+03  0.28878719741E+03  0.17300000000E+03 0.  1.
</event>
<event>
 4    1  0.5876320E+000  0.1000000E+03  0.7546771E-02  0.1280296E+00
         21   -1    0    0  503  502  0.00000000000E+00  0.00000000000E+00  0.25765421240E+03  0.25765421240E+03  0.00000000000E+00 0.  1.
         21   -1    0    0  501  503 -0.00000000000E+00 -0.00000000000E+00 -0.29444557015E+03  0.29444557015E+03  0.00000000000E+00 0. -1.
          6    1    1    2  501    0 -0.15632172629E+03 -0.11774506909E+03 -0.10597317497E+03  0.28188596492E+03  0.17300000000E+03 0.  1.
         -6    1    1    2    0  502  0.15632172629E+03  0.11774506909E+03  0.69181817212E+02  0.27021381763E+03  0.17300000000E+03 0. -1.
</event>
<event>
 4    1  0.5876320E+000  0.1000000E+03  0.7546771E-02  0.1280296E+00
         21   -1    0    0  503  502  0.00000000000E+00  0.00000000000E+00  0.48905834350E+03  0.48905834350E+03  0.00000000000E+00 0.  1.
         21   -1    0    0  501  503 -0.00000000000E+00 -0.00000000000E+00 -0.18455582772E+03  0.18455582772E+03  0.00000000000E+00 0. -1.
          6    1    1    2  501    0  0.15629981887E+03 -0.13940343985E+03  0.83915524255E+01  0.27177632452E+03  0.17300000000E+03 0.  1.
         -6    1    1    2    0  502 -0.15629981887E+03  0.13940343985E+03  0.29611096336E+03  0.40183784670E+03  0.17300000000E+03 0. -1.
</event>
<event>
 4    1  0.5876320E+000  0.1000000E+03  0.7546771E-02  0.1280296E+00
         21   -1    0    0  501  502  0.00000000000E+00  0.00000000000E+00  0.42225948027E+03  0.42225948027E+03  0.00000000000E+00 0. -1.
         21   -1    0    0  502  503 -0.00000000000E+00 -0.00000000000E+00 -0.53971518449E+03  0.53971518449E+03  0.00000000000E+00 0.  1.
          6    1    1    2  501    0  0.18404576161E+02  0.12068122412E+03  0.37236223105E+03  0.42835186166E+03  0.17300000000E+03 0. -1.
         -6    1    1    2    0  503 -0.18404576161E+02 -0.12068122412E+03 -0.48981793527E+03  0.53362280310E+03  0.17300000000E+03 0.  1.
</event>
<event>
 4    1  0.5876320E+000  0.1000000E+03  0.7546771E-02  0.1280296E+00
         21   -1    0    0  501  502  0.00000000000E+00  0.00000000000E+00  0.14204088850E+04  0.14204088850E+04  0.00000000000E+00 0. -1.
         21   -1    0    0  502  503 -0.00000000000E+00 -0.00000000000E+00 -0.40791806164E+02  0.40791806164E+02  0.00000000000E+00 0.  1.
          6    1    1    2  501    0  0.11791676002E+03  0.25316899309E+02  0.10420316859E+04  0.10631577221E+04  0.17300000000E+03 0. -1.
         -6    1    1    2    0  503 -0.11791676002E+03 -0.25316899309E+02  0.33758539297E+03  0.39804296908E+03  0.17300000000E+03 0.  1.
</event>
<event>
 4    1  0.5876320E+000  0.1000000E+03  0.7546771E-02  0.1280296E+00
         21   -1    0    0  501  502  0.00000000000E+00  0.00000000000E+00  0.14836631518E+03  0.14836631518E+03  0.00000000000E+00 0.  1.
         21   -1    0    0  502  503 -0.00000000000E+00 -0.00000000000E+00 -0.35078820897E+03  0.35078820897E+03  0.00000000000E+00 0.  1.
          6    1    1    2  501    0  0.84573199249E+01  0.10718200375E+03  0.11192037429E+02  0.20399453397E+03  0.17300000000E+03 0.  1.
         -6    1    1    2    0  503 -0.84573199249E+01 -0.10718200375E+03 -0.21361393122E+03  0.29515999018E+03  0.17300000000E+03 0.  1.
</event>
<event>
 4    1  0.5876320E+000  0.1000000E+03  0.7546771E-02  0.1280296E+00
         21   -1    0    0  501  502  0.00000000000E+00  0.00000000000E+00  0.54805880944E+03  0.54805880944E+03  0.00000000000E+00 0.  1.
         21   -1    0    0  502  503 -0.00000000000E+00 -0.00000000000E+00 -0.86688263683E+02  0.86688263683E+02  0.00000000000E+00 0.  1.
          6    1    1    2  501    0  0.30075376554E+02 -0.34652742762E+02  0.41182149103E+03  0.44903371959E+03  0.17300000000E+03 0.  1.
         -6    1    1    2    0  503 -0.30075376554E+02  0.34652742762E+02  0.49549054728E+02  0.18571335353E+03  0.17300000000E+03 0.  1.
</event>
<event>
 4    1  0.5876320E+000  0.1000000E+03  0.7546771E-02  0.1280296E+00
         21   -1    0    0  503  502  0.00000000000E+00  0.00000000000E+00  0.62651927646E+03  0.62651927646E+03  0.00000000000E+00 0.  1.
         21   -1    0    0  501  503 -0.00000000000E+00 -0.00000000000E+00 -0.60708587761E+03  0.60708587761E+03  0.00000000000E+00 0. -1.
          6    1    1    2  501    0 -0.83004249719E+02  0.18418421262E+03 -0.54677708223E+03  0.60803594244E+03  0.17300000000E+03 0. -1.
         -6    1    1    2    0  502  0.83004249719E+02 -0.18418421262E+03  0.56621048108E+03  0.62556921162E+03  0.17300000000E+03 0.  1.
</event>
<event>
 4    1  0.5876320E+000  0.1000000E+03  0.7546771E-02  0.1280296E+00
         21   -1    0    0  503  502  0.00000000000E+00  0.00000000000E+00  0.11022978260E+03  0.11022978260E+03  0.00000000000E+00 0.  1.
         21   -1    0    0  501  503 -0.00000000000E+00 -0.00000000000E+00 -0.15050664157E+04  0.15050664157E+04  0.00000000000E+00 0. -1.
          6    1    1    2  501    0 -0.45503194481E+02 -0.58396752306E+02 -0.14137087948E+04  0.14261775057E+04  0.17300000000E+03 0. -1.
         -6    1    1    2    0  502  0.45503194481E+02  0.58396752306E+02  0.18872161705E+02  0.18911869256E+03  0.17300000000E+03 0.  1.
</event>
<event>
 4    1  0.5876320E+000  0.1000000E+03  0.7546771E-02  0.1280296E+00
         21   -1    0    0  503  502  0.00000000000E+00  0.00000000000E+00  0.31376583283E+03  0.31376583283E+03  0.00000000000E+00 0.  1.
         21   -1    0    0  501  503 -0.00000000000E+00 -0.00000000000E+00 -0.16664469952E+03  0.16664469952E+03  0.00000000000E+00 0. -1.
          6    1    1    2  501    0 -0.10553596245E+03 -0.62688737708E+00 -0.37710914854E+02  0.20612943860E+03  0.17300000000E+03 0. -1.
         -6    1    1    2    0  502  0.10553596245E+03  0.62688737708E+00  0.18483204817E+03  0.27428109375E+03  0.17300000000E+03 0.  1.
</event>
<event>
 4    1  0.5876320E+000  0.1000000E+03  0.7546771E-02  0.1280296E+00
         21   -1    0    0  503  502  0.00000000000E+00  0.00000000000E+00  0.14371112678E+03  0.14371112678E+03  0.00000000000E+00 0.  1.
         21   -1    0    0  501  503 -0.00000000000E+00 -0.00000000000E+00 -0.30697599883E+03  0.30697599883E+03  0.00000000000E+00 0. -1.
          6    1    1    2  501    0  0.10513223990E+02 -0.11291732578E+03 -0.12070052674E+03  0.23949627867E+03  0.17300000000E+03 0. -1.
         -6    1    1    2    0  502 -0.10513223990E+02  0.11291732578E+03 -0.42564345310E+02  0.21119084694E+03  0.17300000000E+03 0.  1.
</event>
<event>
 4    1  0.5876320E+000  0.1000000E+03  0.7546771E-02  0.1280296E+00
         21   -1    0    0  503  502  0.00000000000E+00  0.00000000000E+00  0.16926479441E+03  0.16926479441E+03  0.00000000000E+00 0.  1.
         21   -1    0    0  501  503 -0.00000000000E+00 -0.00000000000E+00 -0.22145121895E+03  0.22145121895E+03  0.00000000000E+00 0. -1.
          6    1    1    2  501    0 -0.80790028597E+02  0.19699055440E+02 -0.51616438637E+02  0.19876704516E+03  0.17300000000E+03 0. -1.
         -6    1    1    2    0  502  0.80790028597E+02 -0.19699055440E+02 -0.56998589748E+00  0.19194896819E+03  0.17300000000E+03 0.  1.
</event>
<event>
 4    1  0.5876320E+000  0.1000000E+03  0.7546771E-02  0.1280296E+00
         21   -1    0    0  503  502  0.00000000000E+00  0.00000000000E+00  0.11711465809E+03  0.11711465809E+03  0.00000000000E+00 0. -1.
         21   -1    0    0  501  503 -0.00000000000E+00 -0.00000000000E+00 -0.35248312239E+03  0.35248312239E+03  0.00000000000E+00 0. -1.
          6    1    1    2  501    0 -0.60597899044E+02 -0.75488897782E+02 -0.16912318603E+03  0.26058075737E+03  0.17300000000E+03 0. -1.
         -6    1    1    2    0  502  0.60597899044E+02  0.75488897782E+02 -0.66245278259E+02  0.20901702311E+03  0.17300000000E+03 0. -1.
</event>
<event>
 4    1  0.5876320E+000  0.1000000E+03  0.7546771E-02  0.1280296E+00
         21   -1    0    0  503  502  0.00000000000E+00  0.00000000000E+00  0.17479176433E+03  0.17479176433E+03  0.00000000000E+00 0. -1.
         21   -1    0    0  501  503 -0.00000000000E+00 -0.00000000000E+00 -0.39764129754E+03  0.39764129754E+03  0.00000000000E+00 0. -1.
          6    1    1    2  501    0 -0.62488890647E+01  0.55656032867E+02 -0.31866325291E+03  0.36689495958E+03  0.17300000000E+03 0. -1.
         -6    1    1    2    0  502  0.62488890647E+01 -0.55656032867E+02  0.95813719698E+02  0.20553810229E+03  0.17300000000E+03 0. -1.
</event>
<event>
 4    1  0.5876320E+000  0.1000000E+03  0.7546771E-02  0.1280296E+00
         21   -1    0    0  501  502  0.00000000000E+00  0.00000000000E+00  0.11471079979E+04  0.11471079979E+04  0.00000000000E+00 0.  1.
         21   -1    0    0  502  503 -0.00000000000E+00 -0.00000000000E+00 -0.75702432036E+02  0.75702432036E+02  0.00000000000E+00 0.  1.
          6    1    1    2  501    0 -0.43126539152E+02  0.60271869412E+02  0.10061669707E+04  0.10236178826E+04  0.17300000000E+03 0.  1.
         -6    1    1    2    0  503  0.43126539152E+02 -0.60271869412E+02  0.65238595166E+02  0.19919254735E+03  0.17300000000E+03 0.  1.
</event>
<event>
 4    1  0.5876320E+000  0.1000000E+03  0.7546771E-02  0.1280296E+00
         21   -1    0    0  503  502  0.00000000000E+00  0.00000000000E+00  0.64706963896E+02  0.64706963896E+02  0.00000000000E+00 0. -1.
         21   -1    0    0  501  503 -0.00000000000E+00 -0.00000000000E+00 -0.15310322196E+04  0.15310322196E+04  0.00000000000E+00 0. -1.
          6    1    1    2  501    0  0.37042574056E+02 -0.16344132896E+03 -0.12467841018E+04  0.12698365315E+04  0.17300000000E+03 0. -1.
         -6    1    1    2    0  502 -0.37042574056E+02  0.16344132896E+03 -0.21954115391E+03  0.32590265198E+03  0.17300000000E+03 0. -1.
</event>
<event>
 4    1  0.5876320E+000  0.1000000E+03  0.7546771E-02  0.1280296E+00
         21   -1    0    0  503  502  0.00000000000E+00  0.00000000000E+00  0.30473523772E+02  0.30473523772E+02  0.00000000000E+00 0. -1.
         21   -1    0    0  501  503 -0.00000000000E+00 -0.00000000000E+00 -0.25503874555E+04  0.25503874555E+04  0.00000000000E+00 0. -1.
          6    1    1    2  501    0  0.25423528371E+00 -0.42333610244E+02 -0.22527074602E+04  0.22597371751E+04  0.17300000000E+03 0. -1.
         -6    1    1    2    0  502 -0.25423528371E+00  0.42333610244E+02 -0.26720647152E+03  0.32112380419E+03  0.17300000000E+03 0. -1.
</event>
<event>
 4    1  0.5876320E+000  0.1000000E+03  0.7546771E-02  0.1280296E+00
         21   -1    0    0  503  502  0.00000000000E+00  0.00000000000E+00  0.72245231983E+03  0.72245231983E+03  0.00000000000E+00 0. -1.
         21   -1    0    0  501  503 -0.00000000000E+00 -0.00000000000E+00 -0.11051121136E+03  0.11051121136E+03  0.00000000000E+00 0. -1.
          6    1    1    2  501    0  0.43452553748E-01 -0.75991868568E+00 -0.23320432819E+02  0.17456638265E+03  0.17300000000E+03 0. -1.
         -6    1    1    2    0  502 -0.43452553748E-01  0.75991868568E+00  0.63526154129E+03  0.65839714854E+03  0.17300000000E+03 0. -1.
</event>
<event>
 4    1  0.5876320E+000  0.1000000E+03  0.7546771E-02  0.1280296E+00
         21   -1    0    0  503  502  0.00000000000E+00  0.00000000000E+00  0.12087258944E+03  0.12087258944E+03  0.00000000000E+00 0. -1.
         21   -1    0    0  501  503 -0.00000000000E+00 -0.00000000000E+00 -0.38155931861E+03  0.38155931861E+03  0.00000000000E+00 0. -1.
          6    1    1    2  501    0 -0.15303011119E+02  0.70249724852E+02 -0.25315221188E+03  0.31493530823E+03  0.17300000000E+03 0. -1.
         -6    1    1    2    0  502  0.15303011119E+02 -0.70249724852E+02 -0.75345172831E+01  0.18749659981E+03  0.17300000000E+03 0. -1.
</event>
<event>
 4    1  0.5876320E+000  0.1000000E+03  0.7546771E-02  0.1280296E+00
         21   -1    0    0  503  502  0.00000000000E+00  0.00000000000E+00  0.13943619906E+03  0.13943619906E+03  0.00000000000E+00 0. -1.
         21   -1    0    0  501  503 -0.00000000000E+00 -0.00000000000E+00 -0.43353185093E+03  0.43353185093E+03  0.00000000000E+00 0. -1.
          6    1    1    2  501    0 -0.52802554254E+02  0.54401662266E+02 -0.33044590996E+03  0.38061942936E+03  0.17300000000E+03 0. -1.
         -6    1    1    2    0  502  0.52802554254E+02 -0.54401662266E+02  0.36350258091E+02  0.19234862063E+03  0.17300000000E+03 0. -1.
</event>
<event>
 4    1  0.5876320E+000  0.1000000E+03  0.7546771E-02  0.1280296E+00
         21   -1    0    0  503  502  0.00000000000E+00  0.00000000000E+00  0.53612522417E+03  0.53612522417E+03  0.00000000000E+00 0. -1.
         21   -1    0    0  501  503 -0.00000000000E+00 -0.00000000000E+00 -0.22524041950E+03  0.22524041950E+03  0.00000000000E+00 0. -1.
          6    1    1    2  501    0  0.83720992944E+02 -0.12720482920E+03 -0.12946368152E+03  0.26434847846E+03  0.17300000000E+03 0. -1.
         -6    1    1    2    0  502 -0.83720992944E+02  0.12720482920E+03  0.44034848618E+03  0.49701716521E+03  0.17300000000E+03 0. -1.
</event>
<event>
 4    1  0.5876320E+000  0.1000000E+03  0.7546771E-02  0.1280296E+00
         21   -1    0    0  503  502  0.00000000000E+00  0.00000000000E+00  0.86599244778E+02  0.86599244778E+02  0.00000000000E+00 0.  1.
         21   -1    0    0  501  503 -0.00000000000E+00 -0.00000000000E+00 -0.67222232585E+03  0.67222232585E+03  0.00000000000E+00 0.  1.
          6    1    1    2  501    0  0.53952547103E+02 -0.70651677287E+02 -0.51731545033E+03  0.55267242739E+03  0.17300000000E+03 0.  1.
         -6    1    1    2    0  502 -0.53952547103E+02  0.70651677287E+02 -0.68307630743E+02  0.20614914324E+03  0.17300000000E+03 0.  1.
</event>
<event>
 4    1  0.5876320E+000  0.1000000E+03  0.7546771E-02  0.1280296E+00
         21   -1    0    0  503  502  0.00000000000E+00  0.00000000000E+00  0.12151924975E+04  0.12151924975E+04  0.00000000000E+00 0.  1.
         21   -1    0    0  501  503 -0.00000000000E+00 -0.00000000000E+00 -0.27429287252E+02  0.27429287252E+02  0.00000000000E+00 0.  1.
          6    1    1    2  501    0 -0.11977548596E+01  0.49975308118E+02  0.69619650623E+03  0.71910885221E+03  0.17300000000E+03 0.  1.
         -6    1    1    2    0  502  0.11977548596E+01 -0.49975308118E+02  0.49156670398E+03  0.52351293251E+03  0.17300000000E+03 0.  1.
</event>
<event>
 4    1  0.5876320E+000  0.1000000E+03  0.7546771E-02  0.1280296E+00
         21   -1    0    0  503  502  0.00000000000E+00  0.00000000000E+00  0.12530294231E+04  0.12530294231E+04  0.00000000000E+00 0.  1.
         21   -1    0    0  501  503 -0.00000000000E+00 -0.00000000000E+00 -0.27852043407E+02  0.27852043407E+02  0.00000000000E+00 0.  1.
          6    1    1    2  501    0  0.39675309491E+01  0.46909214758E+02  0.43267316812E+03  0.46834953416E+03  0.17300000000E+03 0.  1.
         -6    1    1    2    0  502 -0.39675309491E+01 -0.46909214758E+02  0.79250421152E+03  0.81253193230E+03  0.17300000000E+03 0.  1.
</event>
<event>
 4    1  0.5876320E+000  0.1000000E+03  0.7546771E-02  0.1280296E+00
         21   -1    0    0  503  502  0.00000000000E+00  0.00000000000E+00  0.76743256235E+03  0.76743256235E+03  0.00000000000E+00 0. -1.
         21   -1    0    0  501  503 -0.00000000000E+00 -0.00000000000E+00 -0.59280414256E+02  0.59280414256E+02  0.00000000000E+00 0. -1.
          6    1    1    2  501    0 -0.32642306858E+02  0.72971095035E+02  0.16845027964E+03  0.25435172029E+03  0.17300000000E+03 0. -1.
         -6    1    1    2    0  502  0.32642306858E+02 -0.72971095035E+02  0.53970186845E+03  0.57236125631E+03  0.17300000000E+03 0. -1.
</event>
<event>
 4    1  0.5876320E+000  0.1000000E+03  0.7546771E-02  0.1280296E+00
         21   -1    0    0  503  502  0.00000000000E+00  0.00000000000E+00  0.56319736886E+03  0.56319736886E+03  0.00000000000E+00 0. -1.
         21   -1    0    0  501  503 -0.00000000000E+00 -0.00000000000E+00 -0.79342519824E+02  0.79342519824E+02  0.00000000000E+00 0. -1.
          6    1    1    2  501    0 -0.11015444940E+03  0.67157819941E+01  0.31908475574E+03  0.37937209412E+03  0.17300000000E+03 0. -1.
         -6    1    1    2    0  502  0.11015444940E+03 -0.67157819941E+01  0.16477009329E+03  0.26316779456E+03  0.17300000000E+03 0. -1.
</event>
<event>
 4    1  0.5876320E+000  0.1000000E+03  0.7546771E-02  0.1280296E+00
         21   -1    0    0  501  502  0.00000000000E+00  0.00000000000E+00  0.55646997278E+03  0.55646997278E+03  0.00000000000E+00 0.  1.
         21   -1    0    0  502  503 -0.00000000000E+00 -0.00000000000E+00 -0.98667324370E+02  0.98667324370E+02  0.00000000000E+00 0. -1.
          6    1    1    2  501    0  0.10767762123E+03 -0.92216707875E+02  0.32653872676E+03  0.39579657830E+03  0.17300000000E+03 0.  1.
         -6    1    1    2    0  503 -0.10767762123E+03  0.92216707875E+02  0.13126392165E+03  0.25934071885E+03  0.17300000000E+03 0. -1.
</event>
<event>
 4    1  0.5876320E+000  0.1000000E+03  0.7546771E-02  0.1280296E+00
         21   -1    0    0  501  502  0.00000000000E+00  0.00000000000E+00  0.56769694392E+03  0.56769694392E+03  0.00000000000E+00 0. -1.
         21   -1    0    0  502  503 -0.00000000000E+00 -0.00000000000E+00 -0.67897876138E+02  0.67897876138E+02  0.00000000000E+00 0. -1.
          6    1    1    2  501    0  0.72207510345E+02  0.35995171062E+02  0.17560108503E+03  0.25937293219E+03  0.17300000000E+03 0. -1.
         -6    1    1    2    0  503 -0.72207510345E+02 -0.35995171062E+02  0.32419798275E+03  0.37622188786E+03  0.17300000000E+03 0. -1.
</event>
<event>
 4    1  0.5876320E+000  0.1000000E+03  0.7546771E-02  0.1280296E+00
         21   -1    0    0  503  502  0.00000000000E+00  0.00000000000E+00  0.29400424991E+03  0.29400424991E+03  0.00000000000E+00 0.  1.
         21   -1    0    0  501  503 -0.00000000000E+00 -0.00000000000E+00 -0.13619145570E+03  0.13619145570E+03  0.00000000000E+00 0. -1.
          6    1    1    2  501    0  0.26975868059E+02 -0.15696736365E+02 -0.23849021162E+02  0.17740310257E+03  0.17300000000E+03 0. -1.
         -6    1    1    2    0  502 -0.26975868059E+02  0.15696736365E+02  0.18166181537E+03  0.25279260304E+03  0.17300000000E+03 0.  1.
</event>
<event>
 4    1  0.5876320E+000  0.1000000E+03  0.7546771E-02  0.1280296E+00
         21   -1    0    0  503  502  0.00000000000E+00  0.00000000000E+00  0.55915316944E+03  0.55915316944E+03  0.00000000000E+00 0.  1.
         21   -1    0    0  501  503 -0.00000000000E+00 -0.00000000000E+00 -0.20806984523E+03  0.20806984523E+03  0.00000000000E+00 0. -1.
          6    1    1    2  501    0  0.48421150044E+02  0.26801392200E+02 -0.14915441587E+03  0.23502970487E+03  0.17300000000E+03 0. -1.
         -6    1    1    2    0  502 -0.48421150044E+02 -0.26801392200E+02  0.50023774008E+03  0.53219330980E+03  0.17300000000E+03 0.  1.
</event>
<event>
 4    1  0.5876320E+000  0.1000000E+03  0.7546771E-02  0.1280296E+00
         21   -1    0    0  503  502  0.00000000000E+00  0.00000000000E+00  0.46355383442E+03  0.46355383442E+03  0.00000000000E+00 0.  1.
         21   -1    0    0  501  503 -0.00000000000E+00 -0.00000000000E+00 -0.40652975384E+03  0.40652975384E+03  0.00000000000E+00 0. -1.
          6    1    1    2  501    0  0.31112100694E+03  0.24829927542E+03  0.20090657750E+02  0.43448986831E+03  0.17300000000E+03 0. -1.
         -6    1    1    2    0  502 -0.31112100694E+03 -0.24829927542E+03  0.36933422826E+02  0.43559371995E+03  0.17300000000E+03 0.  1.
</event>
<event>
 4    1  0.5876320E+000  0.1000000E+03  0.7546771E-02  0.1280296E+00
         21   -1    0    0  503  502  0.00000000000E+00  0.00000000000E+00  0.11547998288E+03  0.11547998288E+03  0.00000000000E+00 0.  1.
         21   -1    0    0  501  503 -0.00000000000E+00 -0.00000000000E+00 -0.35098673828E+03  0.35098673828E+03  0.00000000000E+00 0. -1.
          6    1    1    2  501    0 -0.80887194182E+02  0.46803744867E+02 -0.16784532495E+03  0.25852346475E+03  0.17300000000E+03 0. -1.
         -6    1    1    2    0  502  0.80887194182E+02 -0.46803744867E+02 -0.67661430456E+02  0.20794325641E+03  0.17300000000E+03 0.  1.
</event>
<event>
 4    1  0.5876320E+000  0.1000000E+03  0.7546771E-02  0.1280296E+00
         21   -1    0    0  503  502  0.00000000000E+00  0.00000000000E+00  0.10192881065E+03  0.10192881065E+03  0.00000000000E+00 0. -1.
         21   -1    0    0  501  503 -0.00000000000E+00 -0.00000000000E+00 -0.38642443256E+03  0.38642443256E+03  0.00000000000E+00 0. -1.
          6    1    1    2  501    0 -0.54150027104E+02  0.24400161067E+02 -0.23700108255E+03  0.29937619549E+03  0.17300000000E+03 0. -1.
         -6    1    1    2    0  502  0.54150027104E+02 -0.24400161067E+02 -0.47494539368E+02  0.18897704772E+03  0.17300000000E+03 0. -1.
</event>
<event>
 4    1  0.5876320E+000  0.1000000E+03  0.7546771E-02  0.1280296E+00
         21   -1    0    0  503  502  0.00000000000E+00  0.00000000000E+00  0.24231265766E+03  0.24231265766E+03  0.00000000000E+00 0. -1.
         21   -1    0    0  501  503 -0.00000000000E+00 -0.00000000000E+00 -0.83999225624E+03  0.83999225624E+03  0.00000000000E+00 0. -1.
          6    1    1    2  501    0  0.93845904089E+02  0.36193795232E+03 -0.51938032317E+03  0.66294121545E+03  0.17300000000E+03 0. -1.
         -6    1    1    2    0  502 -0.93845904089E+02 -0.36193795232E+03 -0.78299275413E+02  0.41936369845E+03  0.17300000000E+03 0. -1.
</event>
<event>
 4    1  0.5876320E+000  0.1000000E+03  0.7546771E-02  0.1280296E+00
         21   -1    0    0  503  502  0.00000000000E+00  0.00000000000E+00  0.33719621633E+02  0.33719621633E+02  0.00000000000E+00 0. -1.
         21   -1    0    0  501  503 -0.00000000000E+00 -0.00000000000E+00 -0.23661636449E+04  0.23661636449E+04  0.00000000000E+00 0. -1.
          6    1    1    2  501    0 -0.69800031884E+01 -0.14607264883E+03 -0.18830241640E+04  0.18966008914E+04  0.17300000000E+03 0. -1.
         -6    1    1    2    0  502  0.69800031884E+01  0.14607264883E+03 -0.44941985925E+03  0.50328237508E+03  0.17300000000E+03 0. -1.
</event>
<event>
 4    1  0.5876320E+000  0.1000000E+03  0.7546771E-02  0.1280296E+00
         21   -1    0    0  503  502  0.00000000000E+00  0.00000000000E+00  0.30962028233E+03  0.30962028233E+03  0.00000000000E+00 0.  1.
         21   -1    0    0  501  503 -0.00000000000E+00 -0.00000000000E+00 -0.64501823026E+03  0.64501823026E+03  0.00000000000E+00 0. -1.
          6    1    1    2  501    0 -0.11790725059E+02 -0.22445871727E+03 -0.53655549332E+03  0.60691147161E+03  0.17300000000E+03 0. -1.
         -6    1    1    2    0  502  0.11790725059E+02  0.22445871727E+03  0.20115754540E+03  0.34772704098E+03  0.17300000000E+03 0.  1.
</event>
<event>
 4    1  0.5876320E+000  0.1000000E+03  0.7546771E-02  0.1280296E+00
         21   -1    0    0  503  502  0.00000000000E+00  0.00000000000E+00  0.13133823429E+04  0.13133823429E+04  0.00000000000E+00 0. -1.
         21   -1    0    0  501  503 -0.00000000000E+00 -0.00000000000E+00 -0.38806624873E+02  0.38806624873E+02  0.00000000000E+00 0. -1.
          6    1    1    2  501    0 -0.83845240848E+02 -0.42629003683E+01  0.28306286662E+03  0.34220137812E+03  0.17300000000E+03 0. -1.
         -6    1    1    2    0  502  0.83845240848E+02  0.42629003683E+01  0.99151285140E+03  0.10099875896E+04  0.17300000000E+03 0. -1.
</event>
<event>
 4    1  0.5876320E+000  0.1000000E+03  0.7546771E-02  0.1280296E+00
         21   -1    0    0  503  502  0.00000000000E+00  0.00000000000E+00  0.67671889141E+02  0.67671889141E+02  0.00000000000E+00 0. -1.
         21   -1    0    0  501  503 -0.00000000000E+00 -0.00000000000E+00 -0.45099594085E+03  0.45099594085E+03  0.00000000000E+00 0. -1.
          6    1    1    2  501    0 -0.71027903480E+01  0.10681348632E+02 -0.22230838383E+03  0.28198325901E+03  0.17300000000E+03 0. -1.
         -6    1    1    2    0  502  0.71027903480E+01 -0.10681348632E+02 -0.16101566788E+03  0.23668457098E+03  0.17300000000E+03 0. -1.
</event>
<event>
 4    1  0.5876320E+000  0.1000000E+03  0.7546771E-02  0.1280296E+00
         21   -1    0    0  503  502  0.00000000000E+00  0.00000000000E+00  0.13348165649E+04  0.13348165649E+04  0.00000000000E+00 0. -1.
         21   -1    0    0  501  503 -0.00000000000E+00 -0.00000000000E+00 -0.26390653264E+02  0.26390653264E+02  0.00000000000E+00 0. -1.
          6    1    1    2  501    0  0.21976434120E+02  0.52600504702E+02  0.49011120244E+03  0.52286496106E+03  0.17300000000E+03 0. -1.
         -6    1    1    2    0  502 -0.21976434120E+02 -0.52600504702E+02  0.81831470917E+03  0.83834225707E+03  0.17300000000E+03 0. -1.
</event>
<event>
 4    1  0.5876320E+000  0.1000000E+03  0.7546771E-02  0.1280296E+00
         21   -1    0    0  503  502  0.00000000000E+00  0.00000000000E+00  0.67460061426E+03  0.67460061426E+03  0.00000000000E+00 0. -1.
         21   -1    0    0  501  503 -0.00000000000E+00 -0.00000000000E+00 -0.12385088424E+03  0.12385088424E+03  0.00000000000E+00 0. -1.
          6    1    1    2  501    0  0.46253921426E+02 -0.11794750098E+03  0.76644171672E+01  0.21456649674E+03  0.17300000000E+03 0. -1.
         -6    1    1    2    0  502 -0.46253921426E+02  0.11794750098E+03  0.54308531285E+03  0.58388500175E+03  0.17300000000E+03 0. -1.
</event>
<event>
 4    1  0.5876320E+000  0.1000000E+03  0.7546771E-02  0.1280296E+00
         21   -1    0    0  503  502  0.00000000000E+00  0.00000000000E+00  0.26587573046E+03  0.26587573046E+03  0.00000000000E+00 0. -1.
         21   -1    0    0  501  503 -0.00000000000E+00 -0.00000000000E+00 -0.24343387196E+04  0.24343387196E+04  0.00000000000E+00 0. -1.
          6    1    1    2  501    0  0.12798003135E+03 -0.33495447386E+03 -0.22574328403E+04  0.22922707991E+04  0.17300000000E+03 0. -1.
         -6    1    1    2    0  502 -0.12798003135E+03  0.33495447386E+03  0.88969851110E+02  0.40794365100E+03  0.17300000000E+03 0. -1.
</event>
<event>
 4    1  0.5876320E+000  0.1000000E+03  0.7546771E-02  0.1280296E+00
         21   -1    0    0  503  502  0.00000000000E+00  0.00000000000E+00  0.10699236373E+03  0.10699236373E+03  0.00000000000E+00 0. -1.
         21   -1    0    0  501  503 -0.00000000000E+00 -0.00000000000E+00 -0.34735815673E+03  0.34735815673E+03  0.00000000000E+00 0. -1.
          6    1    1    2  501    0  0.33828234658E+02  0.27617644888E+01 -0.21209644927E+03  0.27580043618E+03  0.17300000000E+03 0. -1.
         -6    1    1    2    0  502 -0.33828234658E+02 -0.27617644888E+01 -0.28269343730E+02  0.17855008428E+03  0.17300000000E+03 0. -1.
</event>
<event>
 4    1  0.5876320E+000  0.1000000E+03  0.7546771E-02  0.1280296E+00
         21   -1    0    0  503  502  0.00000000000E+00  0.00000000000E+00  0.64485361490E+03  0.64485361490E+03  0.00000000000E+00 0. -1.
         21   -1    0    0  501  503 -0.00000000000E+00 -0.00000000000E+00 -0.80082442357E+02  0.80082442357E+02  0.00000000000E+00 0. -1.
          6    1    1    2  501    0 -0.49307481839E+02 -0.12221683412E+03  0.17725504682E+03  0.28056466979E+03  0.17300000000E+03 0. -1.
         -6    1    1    2    0  502  0.49307481839E+02  0.12221683412E+03  0.38751612572E+03  0.44437138747E+03  0.17300000000E+03 0. -1.
</event>
<event>
 4    1  0.5876320E+000  0.1000000E+03  0.7546771E-02  0.1280296E+00
         21   -1    0    0  503  502  0.00000000000E+00  0.00000000000E+00  0.12911901902E+03  0.12911901902E+03  0.00000000000E+00 0. -1.
         21   -1    0    0  501  503 -0.00000000000E+00 -0.00000000000E+00 -0.38917893241E+03  0.38917893241E+03  0.00000000000E+00 0. -1.
          6    1    1    2  501    0 -0.93639784470E+02 -0.10418476275E+03 -0.16058420619E+03  0.27447980126E+03  0.17300000000E+03 0. -1.
         -6    1    1    2    0  502  0.93639784470E+02  0.10418476275E+03 -0.99475707199E+02  0.24381815016E+03  0.17300000000E+03 0. -1.
</event>
<event>
 4    1  0.5876320E+000  0.1000000E+03  0.7546771E-02  0.1280296E+00
         21   -1    0    0  503  502  0.00000000000E+00  0.00000000000E+00  0.35998007752E+03  0.35998007752E+03  0.00000000000E+00 0.  1.
         21   -1    0    0  501  503 -0.00000000000E+00 -0.00000000000E+00 -0.25299274226E+03  0.25299274226E+03  0.00000000000E+00 0.  1.
          6    1    1    2  501    0  0.14206845472E+03 -0.13188488105E+03 -0.10241256161E+03  0.27927477590E+03  0.17300000000E+03 0.  1.
         -6    1    1    2    0  502 -0.14206845472E+03  0.13188488105E+03  0.20939989687E+03  0.33369804388E+03  0.17300000000E+03 0.  1.
</event>
<event>
 4    1  0.5876320E+000  0.1000000E+03  0.7546771E-02  0.1280296E+00
         21   -1    0    0  503  502  0.00000000000E+00  0.00000000000E+00  0.19654409363E+03  0.19654409363E+03  0.00000000000E+00 0. -1.
         21   -1    0    0  501  503 -0.00000000000E+00 -0.00000000000E+00 -0.49454412073E+03  0.49454412073E+03  0.00000000000E+00 0. -1.
          6    1    1    2  501    0 -0.89328553178E+02 -0.15085446290E+02 -0.41835858413E+03  0.46169260988E+03  0.17300000000E+03 0. -1.
         -6    1    1    2    0  502  0.89328553178E+02  0.15085446290E+02  0.12035855703E+03  0.22939560447E+03  0.17300000000E+03 0. -1.
</event>
<event>
 4    1  0.5876320E+000  0.1000000E+03  0.7546771E-02  0.1280296E+00
         21   -1    0    0  503  502  0.00000000000E+00  0.00000000000E+00  0.49443800058E+02  0.49443800058E+02  0.00000000000E+00 0. -1.
         21   -1    0    0  501  503 -0.00000000000E+00 -0.00000000000E+00 -0.81102069296E+03  0.81102069296E+03  0.00000000000E+00 0. -1.
          6    1    1    2  501    0 -0.64156410447E+02  0.75806245453E+02 -0.34306363454E+03  0.39684290241E+03  0.17300000000E+03 0. -1.
         -6    1    1    2    0  502  0.64156410447E+02 -0.75806245453E+02 -0.41851325836E+03  0.46362159061E+03  0.17300000000E+03 0. -1.
</event>
<event>
 4    1  0.5876320E+000  0.1000000E+03  0.7546771E-02  0.1280296E+00
         21   -1    0    0  501  502  0.00000000000E+00  0.00000000000E+00  0.62923884698E+03  0.62923884698E+03  0.00000000000E+00 0. -1.
         21   -1    0    0  502  503 -0.00000000000E+00 -0.00000000000E+00 -0.15507157376E+03  0.15507157376E+03  0.00000000000E+00 0. -1.
          6    1    1    2  501    0  0.14358841737E+03 -0.96990079252E+02  0.48059142475E+03  0.53937169616E+03  0.17300000000E+03 0. -1.
         -6    1    1    2    0  503 -0.14358841737E+03  0.96990079252E+02 -0.64241515241E+01  0.24493872458E+03  0.17300000000E+03 0. -1.
</event>
<event>
 4    1  0.5876320E+000  0.1000000E+03  0.7546771E-02  0.1280296E+00
         21   -1    0    0  501  502  0.00000000000E+00  0.00000000000E+00  0.66675095768E+02  0.66675095768E+02  0.00000000000E+00 0. -1.
         21   -1    0    0  502  503 -0.00000000000E+00 -0.00000000000E+00 -0.14326847617E+04  0.14326847617E+04  0.00000000000E+00 0. -1.
          6    1    1    2  501    0 -0.38131678791E+01 -0.66756625516E+02 -0.83315856151E+02  0.20332613995E+03  0.17300000000E+03 0. -1.
         -6    1    1    2    0  503  0.38131678791E+01  0.66756625516E+02 -0.12826938097E+04  0.12960337175E+04  0.17300000000E+03 0. -1.
</event>
<event>
 4    1  0.5876320E+000  0.1000000E+03  0.7546771E-02  0.1280296E+00
         21   -1    0    0  503  502  0.00000000000E+00  0.00000000000E+00  0.10025510222E+03  0.10025510222E+03  0.00000000000E+00 0.  1.
         21   -1    0    0  501  503 -0.00000000000E+00 -0.00000000000E+00 -0.81764479223E+03  0.81764479223E+03  0.00000000000E+00 0.  1.
          6    1    1    2  501    0  0.36993916872E+02  0.16991461469E+01 -0.71953631808E+03  0.74096757690E+03  0.17300000000E+03 0.  1.
         -6    1    1    2    0  502 -0.36993916872E+02 -0.16991461469E+01  0.21466280654E+01  0.17693231755E+03  0.17300000000E+03 0.  1.
</event>
<event>
 4    1  0.5876320E+000  0.1000000E+03  0.7546771E-02  0.1280296E+00
         21   -1    0    0  503  502  0.00000000000E+00  0.00000000000E+00  0.48311594935E+02  0.48311594935E+02  0.00000000000E+00 0.  1.
         21   -1    0    0  501  503 -0.00000000000E+00 -0.00000000000E+00 -0.77728856888E+03  0.77728856888E+03  0.00000000000E+00 0.  1.
          6    1    1    2  501    0 -0.83924229782E+02  0.37439653472E+01 -0.31382000846E+03  0.36806153199E+03  0.17300000000E+03 0.  1.
         -6    1    1    2    0  502  0.83924229782E+02 -0.37439653472E+01 -0.41515696548E+03  0.45753863182E+03  0.17300000000E+03 0.  1.
</event>
<event>
 4    1  0.5876320E+000  0.1000000E+03  0.7546771E-02  0.1280296E+00
         21   -1    0    0  503  502  0.00000000000E+00  0.00000000000E+00  0.29387939463E+03  0.29387939463E+03  0.00000000000E+00 0.  1.
         21   -1    0    0  501  503 -0.00000000000E+00 -0.00000000000E+00 -0.14534841035E+03  0.14534841035E+03  0.00000000000E+00 0.  1.
          6    1    1    2  501    0 -0.16975769321E+02 -0.10781040325E+03  0.42839749941E+02  0.20898685118E+03  0.17300000000E+03 0.  1.
         -6    1    1    2    0  502  0.16975769321E+02  0.10781040325E+03  0.10569123434E+03  0.23024095380E+03  0.17300000000E+03 0.  1.
</event>
<event>
 4    1  0.5876320E+000  0.1000000E+03  0.7546771E-02  0.1280296E+00
         21   -1    0    0  503  502  0.00000000000E+00  0.00000000000E+00  0.14653707570E+03  0.14653707570E+03  0.00000000000E+00 0. -1.
         21   -1    0    0  501  503 -0.00000000000E+00 -0.00000000000E+00 -0.62269472328E+03  0.62269472328E+03  0.00000000000E+00 0. -1.
          6    1    1    2  501    0  0.27655169602E+01 -0.17248635082E+03 -0.46427337451E+03  0.52463125677E+03  0.17300000000E+03 0. -1.
         -6    1    1    2    0  502 -0.27655169602E+01  0.17248635082E+03 -0.11884273076E+02  0.24460054221E+03  0.17300000000E+03 0. -1.
</event>
<event>
 4    1  0.5876320E+000  0.1000000E+03  0.7546771E-02  0.1280296E+00
         21   -1    0    0  503  502  0.00000000000E+00  0.00000000000E+00  0.44906521999E+03  0.44906521999E+03  0.00000000000E+00 0. -1.
         21   -1    0    0  501  503 -0.00000000000E+00 -0.00000000000E+00 -0.42380973945E+03  0.42380973945E+03  0.00000000000E+00 0. -1.
          6    1    1    2  501    0  0.10417839598E+02  0.12055706066E+03 -0.36929999215E+03  0.42538690678E+03  0.17300000000E+03 0. -1.
         -6    1    1    2    0  502 -0.10417839598E+02 -0.12055706066E+03  0.39455547268E+03  0.44748805266E+03  0.17300000000E+03 0. -1.
</event>
<event>
 4    1  0.5876320E+000  0.1000000E+03  0.7546771E-02  0.1280296E+00
         21   -1    0    0  501  502  0.00000000000E+00  0.00000000000E+00  0.14527569779E+03  0.14527569779E+03  0.00000000000E+00 0.  1.
         21   -1    0    0  502  503 -0.00000000000E+00 -0.00000000000E+00 -0.37222652876E+03  0.37222652876E+03  0.00000000000E+00 0. -1.
          6    1    1    2  501    0  0.10265145441E+03 -0.39498331922E+02  0.86646398922E+01  0.20518653782E+03  0.17300000000E+03 0.  1.
         -6    1    1    2    0  503 -0.10265145441E+03  0.39498331922E+02 -0.23561547086E+03  0.31231568873E+03  0.17300000000E+03 0. -1.
</event>
<event>
 4    1  0.5876320E+000  0.1000000E+03  0.7546771E-02  0.1280296E+00
         21   -1    0    0  501  502  0.00000000000E+00  0.00000000000E+00  0.49413253969E+02  0.49413253969E+02  0.00000000000E+00 0.  1.
         21   -1    0    0  502  503 -0.00000000000E+00 -0.00000000000E+00 -0.17007478039E+04  0.17007478039E+04  0.00000000000E+00 0. -1.
          6    1    1    2  501    0 -0.48557544075E+01  0.66142260343E+02 -0.15263263671E+03  0.24005020046E+03  0.17300000000E+03 0.  1.
         -6    1    1    2    0  503  0.48557544075E+01 -0.66142260343E+02 -0.14987019133E+04  0.15101108574E+04  0.17300000000E+03 0. -1.
</event>
<event>
 4    1  0.5876320E+000  0.1000000E+03  0.7546771E-02  0.1280296E+00
         21   -1    0    0  501  502  0.00000000000E+00  0.00000000000E+00  0.52288063726E+02  0.52288063726E+02  0.00000000000E+00 0.  1.
         21   -1    0    0  502  503 -0.00000000000E+00 -0.00000000000E+00 -0.11235259021E+04  0.11235259021E+04  0.00000000000E+00 0. -1.
          6    1    1    2  501    0 -0.10873248257E+02  0.15301083802E+03 -0.35924314779E+03  0.42721795762E+03  0.17300000000E+03 0.  1.
         -6    1    1    2    0  503  0.10873248257E+02 -0.15301083802E+03 -0.71199469057E+03  0.74859600819E+03  0.17300000000E+03 0. -1.
</event>
<event>
 4    1  0.5876320E+000  0.1000000E+03  0.7546771E-02  0.1280296E+00
         21   -1    0    0  501  502  0.00000000000E+00  0.00000000000E+00  0.22164691361E+04  0.22164691361E+04  0.00000000000E+00 0. -1.
         21   -1    0    0  502  503 -0.00000000000E+00 -0.00000000000E+00 -0.19088293401E+02  0.19088293401E+02  0.00000000000E+00 0. -1.
          6    1    1    2  501    0  0.88614173688E+02  0.19005388594E+02  0.74794034923E+03  0.77301839731E+03  0.17300000000E+03 0. -1.
         -6    1    1    2    0  503 -0.88614173688E+02 -0.19005388594E+02  0.14494404935E+04  0.14625390322E+04  0.17300000000E+03 0. -1.
</event>
<event>
 4    1  0.5876320E+000  0.1000000E+03  0.7546771E-02  0.1280296E+00
         21   -1    0    0  501  502  0.00000000000E+00  0.00000000000E+00  0.23843589252E+03  0.23843589252E+03  0.00000000000E+00 0.  1.
         21   -1    0    0  502  503 -0.00000000000E+00 -0.00000000000E+00 -0.47007406780E+03  0.47007406780E+03  0.00000000000E+00 0. -1.
          6    1    1    2  501    0  0.80697856195E+02 -0.71271823400E+02  0.16526195754E+03  0.26235916492E+03  0.17300000000E+03 0.  1.
         -6    1    1    2    0  503 -0.80697856195E+02  0.71271823400E+02 -0.39690013282E+03  0.44615079540E+03  0.17300000000E+03 0.  1.
</event>
<event>
 4    1  0.5876320E+000  0.1000000E+03  0.7546771E-02  0.1280296E+00
         21   -1    0    0  501  502  0.00000000000E+00  0.00000000000E+00  0.14396473542E+04  0.14396473542E+04  0.00000000000E+00 0.  1.
         21   -1    0    0  502  503 -0.00000000000E+00 -0.00000000000E+00 -0.45986732521E+02  0.45986732521E+02  0.00000000000E+00 0. -1.
          6    1    1    2  501    0 -0.40561839218E+02  0.18506052831E+03  0.75332997970E+03  0.79581889915E+03  0.17300000000E+03 0.  1.
         -6    1    1    2    0  503  0.40561839218E+02 -0.18506052831E+03  0.64033064198E+03  0.68981518757E+03  0.17300000000E+03 0.  1.
</event>
<event>
 4    1  0.5876320E+000  0.1000000E+03  0.7546771E-02  0.1280296E+00
         21   -1    0    0  501  502  0.00000000000E+00  0.00000000000E+00  0.97781119275E+03  0.97781119275E+03  0.00000000000E+00 0.  1.
         21   -1    0    0  502  503 -0.00000000000E+00 -0.00000000000E+00 -0.46529941008E+02  0.46529941008E+02  0.00000000000E+00 0. -1.
          6    1    1    2  501    0  0.88212133783E+02  0.73932810099E+02  0.58132206648E+03  0.61734251914E+03  0.17300000000E+03 0.  1.
         -6    1    1    2    0  503 -0.88212133783E+02 -0.73932810099E+02  0.34995918526E+03  0.40699861462E+03  0.17300000000E+03 0.  1.
</event>
<event>
 4    1  0.5876320E+000  0.1000000E+03  0.7546771E-02  0.1280296E+00
         21   -1    0    0  501  502  0.00000000000E+00  0.00000000000E+00  0.82914584489E+02  0.82914584489E+02  0.00000000000E+00 0.  1.
         21   -1    0    0  502  503 -0.00000000000E+00 -0.00000000000E+00 -0.57857476399E+03  0.57857476399E+03  0.00000000000E+00 0. -1.
          6    1    1    2  501    0 -0.22534212164E+02  0.78007089707E+02 -0.86242583024E+02  0.20966563831E+03  0.17300000000E+03 0.  1.
         -6    1    1    2    0  503  0.22534212164E+02 -0.78007089707E+02 -0.40941759647E+03  0.45182371016E+03  0.17300000000E+03 0. -1.
</event>
<event>
 4    1  0.5876320E+000  0.1000000E+03  0.7546771E-02  0.1280296E+00
         21   -1    0    0  501  502  0.00000000000E+00  0.00000000000E+00  0.49263303903E+02  0.49263303903E+02  0.00000000000E+00 0. -1.
         21   -1    0    0  502  503 -0.00000000000E+00 -0.00000000000E+00 -0.14477250293E+04  0.14477250293E+04  0.00000000000E+00 0.  1.
          6    1    1    2  501    0 -0.94707947378E+02  0.35361940119E+02 -0.20440022414E+03  0.28623157361E+03  0.17300000000E+03 0.  1.
         -6    1    1    2    0  503  0.94707947378E+02 -0.35361940119E+02 -0.11940615013E+04  0.12107567596E+04  0.17300000000E+03 0.  1.
</event>
<event>
 4    1  0.5876320E+000  0.1000000E+03  0.7546771E-02  0.1280296E+00
         21   -1    0    0  501  502  0.00000000000E+00  0.00000000000E+00  0.10205016573E+03  0.10205016573E+03  0.00000000000E+00 0. -1.
         21   -1    0    0  502  503 -0.00000000000E+00 -0.00000000000E+00 -0.51951469825E+03  0.51951469825E+03  0.00000000000E+00 0.  1.
          6    1    1    2  501    0  0.14210721670E+03 -0.28507714865E+02 -0.14716850122E+03  0.26943407096E+03  0.17300000000E+03 0.  1.
         -6    1    1    2    0  503 -0.14210721670E+03  0.28507714865E+02 -0.27029603131E+03  0.35213079301E+03  0.17300000000E+03 0.  1.
</event>
<event>
 4    1  0.5876320E+000  0.1000000E+03  0.7546771E-02  0.1280296E+00
         21   -1    0    0  501  502  0.00000000000E+00  0.00000000000E+00  0.47825754604E+03  0.47825754604E+03  0.00000000000E+00 0. -1.
         21   -1    0    0  502  503 -0.00000000000E+00 -0.00000000000E+00 -0.96079573808E+02  0.96079573808E+02  0.00000000000E+00 0.  1.
          6    1    1    2  501    0  0.17869971089E+02 -0.33402269412E+02  0.35288561490E+03  0.39483199550E+03  0.17300000000E+03 0.  1.
         -6    1    1    2    0  503 -0.17869971089E+02  0.33402269412E+02  0.29292357334E+02  0.17950512435E+03  0.17300000000E+03 0.  1.
</event>
<event>
 4    1  0.5876320E+000  0.1000000E+03  0.7546771E-02  0.1280296E+00
         21   -1    0    0  503  502  0.00000000000E+00  0.00000000000E+00  0.52183946156E+02  0.52183946156E+02  0.00000000000E+00 0. -1.
         21   -1    0    0  501  503 -0.00000000000E+00 -0.00000000000E+00 -0.86885619204E+03  0.86885619204E+03  0.00000000000E+00 0. -1.
          6    1    1    2  501    0  0.45757206217E+02 -0.88628032400E+02 -0.56818500992E+03  0.60225563970E+03  0.17300000000E+03 0. -1.
         -6    1    1    2    0  502 -0.45757206217E+02  0.88628032400E+02 -0.24848723597E+03  0.31878449850E+03  0.17300000000E+03 0. -1.
</event>
<event>
 4    1  0.5876320E+000  0.1000000E+03  0.7546771E-02  0.1280296E+00
         21   -1    0    0  503  502  0.00000000000E+00  0.00000000000E+00  0.52224244121E+03  0.52224244121E+03  0.00000000000E+00 0. -1.
         21   -1    0    0  501  503 -0.00000000000E+00 -0.00000000000E+00 -0.18092251618E+03  0.18092251618E+03  0.00000000000E+00 0. -1.
          6    1    1    2  501    0 -0.19032267331E+01 -0.11107994228E+03 -0.90699653998E+02  0.22471716242E+03  0.17300000000E+03 0. -1.
         -6    1    1    2    0  502  0.19032267331E+01  0.11107994228E+03  0.43201957903E+03  0.47844779497E+03  0.17300000000E+03 0. -1.
</event>
<event>
 4    1  0.5876320E+000  0.1000000E+03  0.7546771E-02  0.1280296E+00
         21   -1    0    0  503  502  0.00000000000E+00  0.00000000000E+00  0.40994054226E+03  0.40994054226E+03  0.00000000000E+00 0. -1.
         21   -1    0    0  501  503 -0.00000000000E+00 -0.00000000000E+00 -0.30279704436E+03  0.30279704436E+03  0.00000000000E+00 0. -1.
          6    1    1    2  501    0 -0.66845710059E+02  0.22266249455E+03 -0.14911324604E+03  0.32589982445E+03  0.17300000000E+03 0. -1.
         -6    1    1    2    0  502  0.66845710059E+02 -0.22266249455E+03  0.25625674393E+03  0.38683776217E+03  0.17300000000E+03 0. -1.
</event>
<event>
 4    1  0.5876320E+000  0.1000000E+03  0.7546771E-02  0.1280296E+00
         21   -1    0    0  503  502  0.00000000000E+00  0.00000000000E+00  0.35839670293E+02  0.35839670293E+02  0.00000000000E+00 0. -1.
         21   -1    0    0  501  503 -0.00000000000E+00 -0.00000000000E+00 -0.15200303697E+04  0.15200303697E+04  0.00000000000E+00 0. -1.
          6    1    1    2  501    0  0.10327911252E+03  0.73026049242E+02 -0.43392343464E+03  0.48396066584E+03  0.17300000000E+03 0. -1.
         -6    1    1    2    0  502 -0.10327911252E+03 -0.73026049242E+02 -0.10502672647E+04  0.10719093741E+04  0.17300000000E+03 0. -1.
</event>
<event>
 4    1  0.5876320E+000  0.1000000E+03  0.7546771E-02  0.1280296E+00
         21   -1    0    0  501  502  0.00000000000E+00  0.00000000000E+00  0.22700154791E+04  0.22700154791E+04  0.00000000000E+00 0.  1.
         21   -1    0    0  502  503 -0.00000000000E+00 -0.00000000000E+00 -0.67656055244E+02  0.67656055244E+02  0.00000000000E+00 0. -1.
          6    1    1    2  501    0  0.87692722747E+02 -0.83819158805E+02  0.20855777001E+04  0.20962535648E+04  0.17300000000E+03 0. -1.
         -6    1    1    2    0  503 -0.87692722747E+02  0.83819158805E+02  0.11678172382E+03  0.24141796955E+03  0.17300000000E+03 0.  1.
</event>
<event>
 4    1  0.5876320E+000  0.1000000E+03  0.7546771E-02  0.1280296E+00
         21   -1    0    0  501  502  0.00000000000E+00  0.00000000000E+00  0.36023877631E+03  0.36023877631E+03  0.00000000000E+00 0.  1.
         21   -1    0    0  502  503 -0.00000000000E+00 -0.00000000000E+00 -0.88589100460E+03  0.88589100460E+03  0.00000000000E+00 0. -1.
          6    1    1    2  501    0  0.58230105594E+02 -0.43616141840E+03  0.78148300064E+02  0.47923239134E+03  0.17300000000E+03 0. -1.
         -6    1    1    2    0  503 -0.58230105594E+02  0.43616141840E+03 -0.60380052835E+03  0.76689738958E+03  0.17300000000E+03 0.  1.
</event>
<event>
 4    1  0.5876320E+000  0.1000000E+03  0.7546771E-02  0.1280296E+00
         21   -1    0    0  501  502  0.00000000000E+00  0.00000000000E+00  0.69812028400E+03  0.69812028400E+03  0.00000000000E+00 0.  1.
         21   -1    0    0  502  503 -0.00000000000E+00 -0.00000000000E+00 -0.52036663507E+02  0.52036663507E+02  0.00000000000E+00 0. -1.
          6    1    1    2  501    0 -0.17006455697E+02  0.77650850932E+02  0.34064058588E+03  0.39023567614E+03  0.17300000000E+03 0. -1.
         -6    1    1    2    0  503  0.17006455697E+02 -0.77650850932E+02  0.30544303461E+03  0.35992127136E+03  0.17300000000E+03 0.  1.
</event>
<event>
 4    1  0.5876320E+000  0.1000000E+03  0.7546771E-02  0.1280296E+00
         21   -1    0    0  501  502  0.00000000000E+00  0.00000000000E+00  0.86201484705E+03  0.86201484705E+03  0.00000000000E+00 0.  1.
         21   -1    0    0  502  503 -0.00000000000E+00 -0.00000000000E+00 -0.96950586340E+02  0.96950586340E+02  0.00000000000E+00 0. -1.
          6    1    1    2  501    0  0.41797422433E+02  0.80934691502E+02  0.73572485798E+03  0.76126047806E+03  0.17300000000E+03 0. -1.
         -6    1    1    2    0  503 -0.41797422433E+02 -0.80934691502E+02  0.29339402736E+02  0.19770495533E+03  0.17300000000E+03 0.  1.
</event>
<event>
 4    1  0.5876320E+000  0.1000000E+03  0.7546771E-02  0.1280296E+00
         21   -1    0    0  503  502  0.00000000000E+00  0.00000000000E+00  0.33057792030E+03  0.33057792030E+03  0.00000000000E+00 0. -1.
         21   -1    0    0  501  503 -0.00000000000E+00 -0.00000000000E+00 -0.13670350918E+03  0.13670350918E+03  0.00000000000E+00 0. -1.
          6    1    1    2  501    0  0.97443496967E+02 -0.62768995928E+02  0.49959841222E+02  0.21414987202E+03  0.17300000000E+03 0. -1.
         -6    1    1    2    0  502 -0.97443496967E+02  0.62768995928E+02  0.14391456990E+03  0.25313155746E+03  0.17300000000E+03 0. -1.
</event>
<event>
 4    1  0.5876320E+000  0.1000000E+03  0.7546771E-02  0.1280296E+00
         21   -1    0    0  503  502  0.00000000000E+00  0.00000000000E+00  0.24359500047E+03  0.24359500047E+03  0.00000000000E+00 0. -1.
         21   -1    0    0  501  503 -0.00000000000E+00 -0.00000000000E+00 -0.36527900688E+03  0.36527900688E+03  0.00000000000E+00 0. -1.
          6    1    1    2  501    0  0.59760955852E+02 -0.16076746243E+03 -0.23653038324E+03  0.33954848110E+03  0.17300000000E+03 0. -1.
         -6    1    1    2    0  502 -0.59760955852E+02  0.16076746243E+03  0.11484637683E+03  0.26932552625E+03  0.17300000000E+03 0. -1.
</event>
<event>
 4    1  0.5876320E+000  0.1000000E+03  0.7546771E-02  0.1280296E+00
         21   -1    0    0  501  502  0.00000000000E+00  0.00000000000E+00  0.46966589096E+03  0.46966589096E+03  0.00000000000E+00 0. -1.
         21   -1    0    0  502  503 -0.00000000000E+00 -0.00000000000E+00 -0.30207353529E+03  0.30207353529E+03  0.00000000000E+00 0. -1.
          6    1    1    2  501    0 -0.81388059045E+02  0.40747033596E+02  0.41363067135E+03  0.45749717943E+03  0.17300000000E+03 0. -1.
         -6    1    1    2    0  503  0.81388059045E+02 -0.40747033596E+02 -0.24603831569E+03  0.31424224682E+03  0.17300000000E+03 0. -1.
</event>
<event>
 4    1  0.5876320E+000  0.1000000E+03  0.7546771E-02  0.1280296E+00
         21   -1    0    0  501  502  0.00000000000E+00  0.00000000000E+00  0.25097702058E+03  0.25097702058E+03  0.00000000000E+00 0. -1.
         21   -1    0    0  502  503 -0.00000000000E+00 -0.00000000000E+00 -0.18715959433E+03  0.18715959433E+03  0.00000000000E+00 0. -1.
          6    1    1    2  501    0  0.26912160887E+02  0.31684555308E+01  0.16099384851E+03  0.23787039070E+03  0.17300000000E+03 0. -1.
         -6    1    1    2    0  503 -0.26912160887E+02 -0.31684555308E+01 -0.97176422266E+02  0.20026622421E+03  0.17300000000E+03 0. -1.
</event>
<event>
 4    1  0.5876320E+000  0.1000000E+03  0.7546771E-02  0.1280296E+00
         21   -1    0    0  503  502  0.00000000000E+00  0.00000000000E+00  0.29209424235E+02  0.29209424235E+02  0.00000000000E+00 0. -1.
         21   -1    0    0  501  503 -0.00000000000E+00 -0.00000000000E+00 -0.15432448056E+04  0.15432448056E+04  0.00000000000E+00 0. -1.
          6    1    1    2  501    0  0.61181360421E+02  0.10559768177E+03 -0.69796894675E+03  0.72937211345E+03  0.17300000000E+03 0. -1.
         -6    1    1    2    0  502 -0.61181360421E+02 -0.10559768177E+03 -0.81606643462E+03  0.84308211638E+03  0.17300000000E+03 0. -1.
</event>
<event>
 4    1  0.5876320E+000  0.1000000E+03  0.7546771E-02  0.1280296E+00
         21   -1    0    0  501  502  0.00000000000E+00  0.00000000000E+00  0.41003090868E+03  0.41003090868E+03  0.00000000000E+00 0. -1.
         21   -1    0    0  502  503 -0.00000000000E+00 -0.00000000000E+00 -0.44741168659E+03  0.44741168659E+03  0.00000000000E+00 0. -1.
          6    1    1    2  501    0  0.24395304964E+02  0.17283133967E+03  0.33243942228E+03  0.41341356093E+03  0.17300000000E+03 0. -1.
         -6    1    1    2    0  503 -0.24395304964E+02 -0.17283133967E+03 -0.36982020018E+03  0.44402903434E+03  0.17300000000E+03 0. -1.
</event>
<event>
 4    1  0.5876320E+000  0.1000000E+03  0.7546771E-02  0.1280296E+00
         21   -1    0    0  501  502  0.00000000000E+00  0.00000000000E+00  0.71456141109E+03  0.71456141109E+03  0.00000000000E+00 0. -1.
         21   -1    0    0  502  503 -0.00000000000E+00 -0.00000000000E+00 -0.43298215662E+02  0.43298215662E+02  0.00000000000E+00 0. -1.
          6    1    1    2  501    0 -0.23019776476E+02 -0.64879148645E+00  0.38282494135E+03  0.42073063444E+03  0.17300000000E+03 0. -1.
         -6    1    1    2    0  503  0.23019776476E+02  0.64879148645E+00  0.28843825408E+03  0.33712899231E+03  0.17300000000E+03 0. -1.
</event>
<event>
 4    1  0.5876320E+000  0.1000000E+03  0.7546771E-02  0.1280296E+00
         21   -1    0    0  503  502  0.00000000000E+00  0.00000000000E+00  0.17756691320E+03  0.17756691320E+03  0.00000000000E+00 0.  1.
         21   -1    0    0  501  503 -0.00000000000E+00 -0.00000000000E+00 -0.42831415232E+03  0.42831415232E+03  0.00000000000E+00 0. -1.
          6    1    1    2  501    0  0.18081214022E+03 -0.54041209356E+02 -0.23799907944E+03  0.34955120394E+03  0.17300000000E+03 0. -1.
         -6    1    1    2    0  502 -0.18081214022E+03  0.54041209356E+02 -0.12748159671E+02  0.25632986158E+03  0.17300000000E+03 0.  1.
</event>
<event>
 4    1  0.5876320E+000  0.1000000E+03  0.7546771E-02  0.1280296E+00
         21   -1    0    0  503  502  0.00000000000E+00  0.00000000000E+00  0.19693601506E+03  0.19693601506E+03  0.00000000000E+00 0.  1.
         21   -1    0    0  501  503 -0.00000000000E+00 -0.00000000000E+00 -0.30770039552E+03  0.30770039552E+03  0.00000000000E+00 0. -1.
          6    1    1    2  501    0 -0.59124797928E+02 -0.63932987253E+02 -0.21111784948E+03  0.28650116048E+03  0.17300000000E+03 0. -1.
         -6    1    1    2    0  502  0.59124797928E+02  0.63932987253E+02  0.10035346902E+03  0.21813525009E+03  0.17300000000E+03 0.  1.
</event>
<event>
 4    1  0.5876320E+000  0.1000000E+03  0.7546771E-02  0.1280296E+00
         21   -1    0    0  501  502  0.00000000000E+00  0.00000000000E+00  0.27732771635E+03  0.27732771635E+03  0.00000000000E+00 0. -1.
         21   -1    0    0  502  503 -0.00000000000E+00 -0.00000000000E+00 -0.27416769251E+03  0.27416769251E+03  0.00000000000E+00 0. -1.
          6    1    1    2  501    0 -0.61923352997E+02  0.17264104749E+03  0.11323249254E+03  0.27638746406E+03  0.17300000000E+03 0. -1.
         -6    1    1    2    0  503  0.61923352997E+02 -0.17264104749E+03 -0.11007246870E+03  0.27510794479E+03  0.17300000000E+03 0. -1.
</event>
<event>
 4    1  0.5876320E+000  0.1000000E+03  0.7546771E-02  0.1280296E+00
         21   -1    0    0  501  502  0.00000000000E+00  0.00000000000E+00  0.18069463059E+03  0.18069463059E+03  0.00000000000E+00 0. -1.
         21   -1    0    0  502  503 -0.00000000000E+00 -0.00000000000E+00 -0.26712278987E+03  0.26712278987E+03  0.00000000000E+00 0. -1.
          6    1    1    2  501    0  0.53006686862E+02 -0.99565826975E+02  0.33159057723E+02  0.20916879754E+03  0.17300000000E+03 0. -1.
         -6    1    1    2    0  503 -0.53006686862E+02  0.99565826975E+02 -0.11958721700E+03  0.23864862292E+03  0.17300000000E+03 0. -1.
</event>
<event>
 4    1  0.5876320E+000  0.1000000E+03  0.7546771E-02  0.1280296E+00
         21   -1    0    0  501  502  0.00000000000E+00  0.00000000000E+00  0.95508731900E+02  0.95508731900E+02  0.00000000000E+00 0. -1.
         21   -1    0    0  502  503 -0.00000000000E+00 -0.00000000000E+00 -0.47436194857E+03  0.47436194857E+03  0.00000000000E+00 0. -1.
          6    1    1    2  501    0 -0.10956646538E+03  0.25563298753E+02 -0.25922216610E+03  0.33133581753E+03  0.17300000000E+03 0. -1.
         -6    1    1    2    0  503  0.10956646538E+03 -0.25563298753E+02 -0.11963105058E+03  0.23853486295E+03  0.17300000000E+03 0. -1.
</event>
<event>
 4    1  0.5876320E+000  0.1000000E+03  0.7546771E-02  0.1280296E+00
         21   -1    0    0  501  502  0.00000000000E+00  0.00000000000E+00  0.93525122560E+02  0.93525122560E+02  0.00000000000E+00 0. -1.
         21   -1    0    0  502  503 -0.00000000000E+00 -0.00000000000E+00 -0.74687752131E+03  0.74687752131E+03  0.00000000000E+00 0. -1.
          6    1    1    2  501    0  0.15824081086E+03  0.11725542682E+03 -0.27314079479E+03  0.37858140884E+03  0.17300000000E+03 0. -1.
         -6    1    1    2    0  503 -0.15824081086E+03 -0.11725542682E+03 -0.38021160396E+03  0.46182123503E+03  0.17300000000E+03 0. -1.
</event>
<event>
 4    1  0.5876320E+000  0.1000000E+03  0.7546771E-02  0.1280296E+00
         21   -1    0    0  501  502  0.00000000000E+00  0.00000000000E+00  0.14300579107E+02  0.14300579107E+02  0.00000000000E+00 0.  1.
         21   -1    0    0  502  503 -0.00000000000E+00 -0.00000000000E+00 -0.22912014488E+04  0.22912014488E+04  0.00000000000E+00 0. -1.
          6    1    1    2  501    0  0.38985058955E+02  0.19005698321E+02 -0.94160178085E+03  0.95834438752E+03  0.17300000000E+03 0.  1.
         -6    1    1    2    0  503 -0.38985058955E+02 -0.19005698321E+02 -0.13352990889E+04  0.13471576404E+04  0.17300000000E+03 0. -1.
</event>
<event>
 4    1  0.5876320E+000  0.1000000E+03  0.7546771E-02  0.1280296E+00
         21   -1    0    0  501  502  0.00000000000E+00  0.00000000000E+00  0.86234377766E+02  0.86234377766E+02  0.00000000000E+00 0. -1.
         21   -1    0    0  502  503 -0.00000000000E+00 -0.00000000000E+00 -0.52420487902E+03  0.52420487902E+03  0.00000000000E+00 0. -1.
          6    1    1    2  501    0 -0.29089996214E+01  0.12346702593E+03 -0.21211360532E+03  0.30028944426E+03  0.17300000000E+03 0. -1.
         -6    1    1    2    0  503  0.29089996214E+01 -0.12346702593E+03 -0.22585689593E+03  0.31014981253E+03  0.17300000000E+03 0. -1.
</event>
<event>
 4    1  0.5876320E+000  0.1000000E+03  0.7546771E-02  0.1280296E+00
         21   -1    0    0  501  502  0.00000000000E+00  0.00000000000E+00  0.26044573854E+04  0.26044573854E+04  0.00000000000E+00 0. -1.
         21   -1    0    0  502  503 -0.00000000000E+00 -0.00000000000E+00 -0.43031377412E+02  0.43031377412E+02  0.00000000000E+00 0. -1.
          6    1    1    2  501    0 -0.18100162525E+03  0.20194185804E+03  0.16474543082E+04  0.16785639100E+04  0.17300000000E+03 0. -1.
         -6    1    1    2    0  503  0.18100162525E+03 -0.20194185804E+03  0.91397169977E+03  0.96892485278E+03  0.17300000000E+03 0. -1.
</event>
<event>
 4    1  0.5876320E+000  0.1000000E+03  0.7546771E-02  0.1280296E+00
         21   -1    0    0  501  502  0.00000000000E+00  0.00000000000E+00  0.14439656722E+03  0.14439656722E+03  0.00000000000E+00 0. -1.
         21   -1    0    0  502  503 -0.00000000000E+00 -0.00000000000E+00 -0.28677701411E+03  0.28677701411E+03  0.00000000000E+00 0.  1.
          6    1    1    2  501    0  0.33250138387E+02 -0.12175258497E+02  0.35947296803E+02  0.18020825944E+03  0.17300000000E+03 0. -1.
         -6    1    1    2    0  503 -0.33250138387E+02  0.12175258497E+02 -0.17832774369E+03  0.25096532189E+03  0.17300000000E+03 0. -1.
</event>
<event>
 4    1  0.5876320E+000  0.1000000E+03  0.7546771E-02  0.1280296E+00
         21   -1    0    0  501  502  0.00000000000E+00  0.00000000000E+00  0.30074956229E+02  0.30074956229E+02  0.00000000000E+00 0. -1.
         21   -1    0    0  502  503 -0.00000000000E+00 -0.00000000000E+00 -0.14085944941E+04  0.14085944941E+04  0.00000000000E+00 0.  1.
          6    1    1    2  501    0 -0.20334256490E+02 -0.91101736782E+02 -0.47605876207E+03  0.51504752535E+03  0.17300000000E+03 0. -1.
         -6    1    1    2    0  503  0.20334256490E+02  0.91101736782E+02 -0.90246077584E+03  0.92362192501E+03  0.17300000000E+03 0. -1.
</event>
<event>
 4    1  0.5876320E+000  0.1000000E+03  0.7546771E-02  0.1280296E+00
         21   -1    0    0  501  502  0.00000000000E+00  0.00000000000E+00  0.58830173810E+03  0.58830173810E+03  0.00000000000E+00 0. -1.
         21   -1    0    0  502  503 -0.00000000000E+00 -0.00000000000E+00 -0.80185345443E+02  0.80185345443E+02  0.00000000000E+00 0.  1.
          6    1    1    2  501    0  0.52710760153E+02 -0.86076825770E+02  0.38333219230E+03  0.43250458243E+03  0.17300000000E+03 0. -1.
         -6    1    1    2    0  503 -0.52710760153E+02  0.86076825770E+02  0.12478420035E+03  0.23598250110E+03  0.17300000000E+03 0. -1.
</event>
<event>
 4    1  0.5876320E+000  0.1000000E+03  0.7546771E-02  0.1280296E+00
         21   -1    0    0  503  502  0.00000000000E+00  0.00000000000E+00  0.35581898438E+03  0.35581898438E+03  0.00000000000E+00 0.  1.
         21   -1    0    0  501  503 -0.00000000000E+00 -0.00000000000E+00 -0.29546001270E+03  0.29546001270E+03  0.00000000000E+00 0. -1.
          6    1    1    2  501    0 -0.61060763670E+02  0.85994837800E+02 -0.22405051518E+03  0.30207807325E+03  0.17300000000E+03 0. -1.
         -6    1    1    2    0  502  0.61060763670E+02 -0.85994837800E+02  0.28440948686E+03  0.34920092383E+03  0.17300000000E+03 0.  1.
</event>
<event>
 4    1  0.5876320E+000  0.1000000E+03  0.7546771E-02  0.1280296E+00
         21   -1    0    0  503  502  0.00000000000E+00  0.00000000000E+00  0.14346805682E+04  0.14346805682E+04  0.00000000000E+00 0.  1.
         21   -1    0    0  501  503 -0.00000000000E+00 -0.00000000000E+00 -0.35683527305E+02  0.35683527305E+02  0.00000000000E+00 0.  1.
          6    1    1    2  501    0 -0.13188618989E+03  0.59959229805E+02  0.75351697161E+03  0.78657860563E+03  0.17300000000E+03 0.  1.
         -6    1    1    2    0  502  0.13188618989E+03 -0.59959229805E+02  0.64548006925E+03  0.68378548984E+03  0.17300000000E+03 0.  1.
</event>
<event>
 4    1  0.5876320E+000  0.1000000E+03  0.7546771E-02  0.1280296E+00
         21   -1    0    0  503  502  0.00000000000E+00  0.00000000000E+00  0.39581486846E+03  0.39581486846E+03  0.00000000000E+00 0. -1.
         21   -1    0    0  501  503 -0.00000000000E+00 -0.00000000000E+00 -0.20564170890E+03  0.20564170890E+03  0.00000000000E+00 0. -1.
          6    1    1    2  501    0  0.41680140886E+02 -0.21337204471E+03  0.26756791376E+02  0.27912325144E+03  0.17300000000E+03 0.  1.
         -6    1    1    2    0  502 -0.41680140886E+02  0.21337204471E+03  0.16341636818E+03  0.32233332592E+03  0.17300000000E+03 0.  1.
</event>
<event>
 4    1  0.5876320E+000  0.1000000E+03  0.7546771E-02  0.1280296E+00
         21   -1    0    0  503  502  0.00000000000E+00  0.00000000000E+00  0.28335073032E+02  0.28335073032E+02  0.00000000000E+00 0. -1.
         21   -1    0    0  501  503 -0.00000000000E+00 -0.00000000000E+00 -0.14560082804E+04  0.14560082804E+04  0.00000000000E+00 0. -1.
          6    1    1    2  501    0  0.59696898740E+02 -0.20014632468E+02 -0.10273684514E+04  0.10437333185E+04  0.17300000000E+03 0.  1.
         -6    1    1    2    0  502 -0.59696898740E+02  0.20014632468E+02 -0.40030475606E+03  0.44061003501E+03  0.17300000000E+03 0.  1.
</event>
<event>
 4    1  0.5876320E+000  0.1000000E+03  0.7546771E-02  0.1280296E+00
         21   -1    0    0  503  502  0.00000000000E+00  0.00000000000E+00  0.24326352505E+03  0.24326352505E+03  0.00000000000E+00 0. -1.
         21   -1    0    0  501  503 -0.00000000000E+00 -0.00000000000E+00 -0.23664749450E+03  0.23664749450E+03  0.00000000000E+00 0. -1.
          6    1    1    2  501    0  0.10762326528E+03 -0.12030279884E+03  0.43100904227E+02  0.24050409265E+03  0.17300000000E+03 0.  1.
         -6    1    1    2    0  502 -0.10762326528E+03  0.12030279884E+03 -0.36484873668E+02  0.23940692689E+03  0.17300000000E+03 0.  1.
</event>
<event>
 4    1  0.5876320E+000  0.1000000E+03  0.7546771E-02  0.1280296E+00
         21   -1    0    0  501  502  0.00000000000E+00  0.00000000000E+00  0.35127585673E+03  0.35127585673E+03  0.00000000000E+00 0. -1.
         21   -1    0    0  502  503 -0.00000000000E+00 -0.00000000000E+00 -0.14708692915E+03  0.14708692915E+03  0.00000000000E+00 0. -1.
          6    1    1    2  501    0 -0.43126413599E+02  0.14321150820E+02  0.25585748402E+03  0.31218109334E+03  0.17300000000E+03 0. -1.
         -6    1    1    2    0  503  0.43126413599E+02 -0.14321150820E+02 -0.51668556445E+02  0.18618169254E+03  0.17300000000E+03 0. -1.
</event>
<event>
 4    1  0.5876320E+000  0.1000000E+03  0.7546771E-02  0.1280296E+00
         21   -1    0    0  501  502  0.00000000000E+00  0.00000000000E+00  0.34057618465E+03  0.34057618465E+03  0.00000000000E+00 0. -1.
         21   -1    0    0  502  503 -0.00000000000E+00 -0.00000000000E+00 -0.13995429447E+03  0.13995429447E+03  0.00000000000E+00 0. -1.
          6    1    1    2  501    0  0.32219067891E+02 -0.42050331131E+02  0.23477855943E+03  0.29640558472E+03  0.17300000000E+03 0. -1.
         -6    1    1    2    0  503 -0.32219067891E+02  0.42050331131E+02 -0.34156669245E+02  0.18412489440E+03  0.17300000000E+03 0. -1.
</event>
<event>
 4    1  0.5876320E+000  0.1000000E+03  0.7546771E-02  0.1280296E+00
         21   -1    0    0  501  502  0.00000000000E+00  0.00000000000E+00  0.23318905347E+04  0.23318905347E+04  0.00000000000E+00 0. -1.
         21   -1    0    0  502  503 -0.00000000000E+00 -0.00000000000E+00 -0.30102022171E+02  0.30102022171E+02  0.00000000000E+00 0. -1.
          6    1    1    2  501    0  0.72176235561E+02 -0.16720218734E+03  0.15264849145E+04  0.15470136311E+04  0.17300000000E+03 0. -1.
         -6    1    1    2    0  503 -0.72176235561E+02  0.16720218734E+03  0.77530359800E+03  0.81497892580E+03  0.17300000000E+03 0. -1.
</event>
<event>
 4    1  0.5876320E+000  0.1000000E+03  0.7546771E-02  0.1280296E+00
         21   -1    0    0  503  502  0.00000000000E+00  0.00000000000E+00  0.17135511667E+03  0.17135511667E+03  0.00000000000E+00 0. -1.
         21   -1    0    0  501  503 -0.00000000000E+00 -0.00000000000E+00 -0.32580541360E+03  0.32580541360E+03  0.00000000000E+00 0. -1.
          6    1    1    2  501    0  0.33765073798E+01  0.13613173646E+03 -0.16745805823E+03  0.27661245767E+03  0.17300000000E+03 0. -1.
         -6    1    1    2    0  502 -0.33765073798E+01 -0.13613173646E+03  0.13007761299E+02  0.22054807260E+03  0.17300000000E+03 0. -1.
</event>
<event>
 4    1  0.5876320E+000  0.1000000E+03  0.7546771E-02  0.1280296E+00
         21   -1    0    0  503  502  0.00000000000E+00  0.00000000000E+00  0.74241705541E+02  0.74241705541E+02  0.00000000000E+00 0. -1.
         21   -1    0    0  501  503 -0.00000000000E+00 -0.00000000000E+00 -0.77464884434E+03  0.77464884434E+03  0.00000000000E+00 0. -1.
          6    1    1    2  501    0 -0.74546273557E+02  0.56447711461E+02 -0.59312814651E+03  0.62487877962E+03  0.17300000000E+03 0. -1.
         -6    1    1    2    0  502  0.74546273557E+02 -0.56447711461E+02 -0.10727899229E+03  0.22401177026E+03  0.17300000000E+03 0. -1.
</event>
<event>
 4    1  0.5876320E+000  0.1000000E+03  0.7546771E-02  0.1280296E+00
         21   -1    0    0  501  502  0.00000000000E+00  0.00000000000E+00  0.12405930801E+03  0.12405930801E+03  0.00000000000E+00 0. -1.
         21   -1    0    0  502  503 -0.00000000000E+00 -0.00000000000E+00 -0.33471188440E+03  0.33471188440E+03  0.00000000000E+00 0. -1.
          6    1    1    2  501    0  0.75742886622E+02 -0.76450935304E+02 -0.10944609790E+03  0.23127727672E+03  0.17300000000E+03 0. -1.
         -6    1    1    2    0  503 -0.75742886622E+02  0.76450935304E+02 -0.10120647849E+03  0.22749391568E+03  0.17300000000E+03 0. -1.
</event>
<event>
 4    1  0.5876320E+000  0.1000000E+03  0.7546771E-02  0.1280296E+00
         21   -1    0    0  501  502  0.00000000000E+00  0.00000000000E+00  0.31008309978E+03  0.31008309978E+03  0.00000000000E+00 0. -1.
         21   -1    0    0  502  503 -0.00000000000E+00 -0.00000000000E+00 -0.45518318073E+03  0.45518318073E+03  0.00000000000E+00 0. -1.
          6    1    1    2  501    0  0.25642242493E+03 -0.12717042109E+03  0.10175755478E+03  0.34958314599E+03  0.17300000000E+03 0. -1.
         -6    1    1    2    0  503 -0.25642242493E+03  0.12717042109E+03 -0.24685763572E+03  0.41568313452E+03  0.17300000000E+03 0. -1.
</event>
<event>
 4    1  0.5876320E+000  0.1000000E+03  0.7546771E-02  0.1280296E+00
         21   -1    0    0  501  502  0.00000000000E+00  0.00000000000E+00  0.37554560645E+02  0.37554560645E+02  0.00000000000E+00 0. -1.
         21   -1    0    0  502  503 -0.00000000000E+00 -0.00000000000E+00 -0.13551273350E+04  0.13551273350E+04  0.00000000000E+00 0. -1.
          6    1    1    2  501    0 -0.80099356517E+02 -0.10505369737E+03 -0.47591082645E+03  0.52332810070E+03  0.17300000000E+03 0. -1.
         -6    1    1    2    0  503  0.80099356517E+02  0.10505369737E+03 -0.84166194791E+03  0.86935379496E+03  0.17300000000E+03 0. -1.
</event>
<event>
 4    1  0.5876320E+000  0.1000000E+03  0.7546771E-02  0.1280296E+00
         21   -1    0    0  501  502  0.00000000000E+00  0.00000000000E+00  0.18744357228E+03  0.18744357228E+03  0.00000000000E+00 0.  1.
         21   -1    0    0  502  503 -0.00000000000E+00 -0.00000000000E+00 -0.21225793337E+03  0.21225793337E+03  0.00000000000E+00 0.  1.
          6    1    1    2  501    0 -0.19100587506E+01  0.97489959232E+02  0.63223907700E+01  0.19868797926E+03  0.17300000000E+03 0.  1.
         -6    1    1    2    0  503  0.19100587506E+01 -0.97489959232E+02 -0.31136751863E+02  0.20101352639E+03  0.17300000000E+03 0.  1.
</event>
<event>
 4    1  0.5876320E+000  0.1000000E+03  0.7546771E-02  0.1280296E+00
         21   -1    0    0  503  502  0.00000000000E+00  0.00000000000E+00  0.38636207744E+03  0.38636207744E+03  0.00000000000E+00 0.  1.
         21   -1    0    0  501  503 -0.00000000000E+00 -0.00000000000E+00 -0.22636185501E+03  0.22636185501E+03  0.00000000000E+00 0. -1.
          6    1    1    2  501    0 -0.17411994783E+03  0.30000977040E+02 -0.88036217896E+02  0.26248274328E+03  0.17300000000E+03 0.  1.
         -6    1    1    2    0  502  0.17411994783E+03 -0.30000977040E+02  0.24803644033E+03  0.35024118917E+03  0.17300000000E+03 0. -1.
</event>
<event>
 4    1  0.5876320E+000  0.1000000E+03  0.7546771E-02  0.1280296E+00
         21   -1    0    0  503  502  0.00000000000E+00  0.00000000000E+00  0.39530239579E+03  0.39530239579E+03  0.00000000000E+00 0.  1.
         21   -1    0    0  501  503 -0.00000000000E+00 -0.00000000000E+00 -0.23527270136E+03  0.23527270136E+03  0.00000000000E+00 0. -1.
          6    1    1    2  501    0  0.10245346120E+03  0.21733557884E+03  0.44421283686E+01  0.29610842279E+03  0.17300000000E+03 0.  1.
         -6    1    1    2    0  502 -0.10245346120E+03 -0.21733557884E+03  0.15558756606E+03  0.33446667436E+03  0.17300000000E+03 0. -1.
</event>
<event>
 4    1  0.5876320E+000  0.1000000E+03  0.7546771E-02  0.1280296E+00
         21   -1    0    0  503  502  0.00000000000E+00  0.00000000000E+00  0.85966947158E+03  0.85966947158E+03  0.00000000000E+00 0.  1.
         21   -1    0    0  501  503 -0.00000000000E+00 -0.00000000000E+00 -0.80977216216E+02  0.80977216216E+02  0.00000000000E+00 0. -1.
          6    1    1    2  501    0  0.21446885332E+02 -0.11354686293E+02  0.74180958446E+03  0.76210193373E+03  0.17300000000E+03 0.  1.
         -6    1    1    2    0  502 -0.21446885332E+02  0.11354686293E+02  0.36882670897E+02  0.17854475406E+03  0.17300000000E+03 0. -1.
</event>
<event>
 4    1  0.5876320E+000  0.1000000E+03  0.7546771E-02  0.1280296E+00
         21   -1    0    0  503  502  0.00000000000E+00  0.00000000000E+00  0.63961699246E+03  0.63961699246E+03  0.00000000000E+00 0.  1.
         21   -1    0    0  501  503 -0.00000000000E+00 -0.00000000000E+00 -0.77964645335E+02  0.77964645335E+02  0.00000000000E+00 0. -1.
          6    1    1    2  501    0  0.54452941052E+02  0.13007073528E+03  0.26891138937E+03  0.34946509740E+03  0.17300000000E+03 0.  1.
         -6    1    1    2    0  502 -0.54452941052E+02 -0.13007073528E+03  0.29274095775E+03  0.36811654040E+03  0.17300000000E+03 0. -1.
</event>
<event>
 4    1  0.5876320E+000  0.1000000E+03  0.7546771E-02  0.1280296E+00
         21   -1    0    0  501  502  0.00000000000E+00  0.00000000000E+00  0.51640187484E+03  0.51640187484E+03  0.00000000000E+00 0.  1.
         21   -1    0    0  502  503 -0.00000000000E+00 -0.00000000000E+00 -0.29298012335E+03  0.29298012335E+03  0.00000000000E+00 0. -1.
          6    1    1    2  501    0  0.56721726417E+02  0.36939809641E+02  0.46726303061E+03  0.50283759164E+03  0.17300000000E+03 0.  1.
         -6    1    1    2    0  503 -0.56721726417E+02 -0.36939809641E+02 -0.24384127912E+03  0.30654440655E+03  0.17300000000E+03 0. -1.
</event>
<event>
 4    1  0.5876320E+000  0.1000000E+03  0.7546771E-02  0.1280296E+00
         21   -1    0    0  501  502  0.00000000000E+00  0.00000000000E+00  0.10773761036E+03  0.10773761036E+03  0.00000000000E+00 0. -1.
         21   -1    0    0  502  503 -0.00000000000E+00 -0.00000000000E+00 -0.36829470379E+03  0.36829470379E+03  0.00000000000E+00 0. -1.
          6    1    1    2  501    0  0.67931709340E+02 -0.57504776750E+02 -0.79181797137E+02  0.21004826465E+03  0.17300000000E+03 0. -1.
         -6    1    1    2    0  503 -0.67931709340E+02  0.57504776750E+02 -0.18137529630E+03  0.26598404950E+03  0.17300000000E+03 0. -1.
</event>
<event>
 4    1  0.5876320E+000  0.1000000E+03  0.7546771E-02  0.1280296E+00
         21   -1    0    0  501  502  0.00000000000E+00  0.00000000000E+00  0.52268001180E+03  0.52268001180E+03  0.00000000000E+00 0. -1.
         21   -1    0    0  502  503 -0.00000000000E+00 -0.00000000000E+00 -0.39719957236E+03  0.39719957236E+03  0.00000000000E+00 0. -1.
          6    1    1    2  501    0  0.18820587330E+03  0.85957435173E+02  0.43345077823E+03  0.51050828451E+03  0.17300000000E+03 0. -1.
         -6    1    1    2    0  503 -0.18820587330E+03 -0.85957435173E+02 -0.30797033879E+03  0.40937129965E+03  0.17300000000E+03 0. -1.
</event>
<event>
 4    1  0.5876320E+000  0.1000000E+03  0.7546771E-02  0.1280296E+00
         21   -1    0    0  501  502  0.00000000000E+00  0.00000000000E+00  0.78307600174E+02  0.78307600174E+02  0.00000000000E+00 0. -1.
         21   -1    0    0  502  503 -0.00000000000E+00 -0.00000000000E+00 -0.79798049181E+03  0.79798049181E+03  0.00000000000E+00 0.  1.
          6    1    1    2  501    0 -0.12005584754E+02  0.17926268418E+03 -0.38914941735E+03  0.46221803624E+03  0.17300000000E+03 0. -1.
         -6    1    1    2    0  503  0.12005584754E+02 -0.17926268418E+03 -0.33052347428E+03  0.41407005574E+03  0.17300000000E+03 0.  1.
</event>
<event>
 4    1  0.5876320E+000  0.1000000E+03  0.7546771E-02  0.1280296E+00
         21   -1    0    0  503  502  0.00000000000E+00  0.00000000000E+00  0.43273837090E+03  0.43273837090E+03  0.00000000000E+00 0. -1.
         21   -1    0    0  501  503 -0.00000000000E+00 -0.00000000000E+00 -0.20964575593E+03  0.20964575593E+03  0.00000000000E+00 0.  1.
          6    1    1    2  501    0  0.19905559985E+03 -0.14511428745E+03  0.12280523674E+03  0.32510215998E+03  0.17300000000E+03 0.  1.
         -6    1    1    2    0  502 -0.19905559985E+03  0.14511428745E+03  0.10028737823E+03  0.31728196685E+03  0.17300000000E+03 0. -1.
</event>
<event>
 4    1  0.5876320E+000  0.1000000E+03  0.7546771E-02  0.1280296E+00
         21   -1    0    0  501  502  0.00000000000E+00  0.00000000000E+00  0.25006484578E+02  0.25006484578E+02  0.00000000000E+00 0.  1.
         21   -1    0    0  502  503 -0.00000000000E+00 -0.00000000000E+00 -0.15855216367E+04  0.15855216367E+04  0.00000000000E+00 0.  1.
          6    1    1    2  501    0  0.79730440524E+02  0.46737597099E+02 -0.64145607212E+03  0.67077286661E+03  0.17300000000E+03 0.  1.
         -6    1    1    2    0  503 -0.79730440524E+02 -0.46737597099E+02 -0.91905907998E+03  0.93975525464E+03  0.17300000000E+03 0.  1.
</event>
<event>
 4    1  0.5876320E+000  0.1000000E+03  0.7546771E-02  0.1280296E+00
         21   -1    0    0  501  502  0.00000000000E+00  0.00000000000E+00  0.47580417181E+02  0.47580417181E+02  0.00000000000E+00 0. -1.
         21   -1    0    0  502  503 -0.00000000000E+00 -0.00000000000E+00 -0.11448911180E+04  0.11448911180E+04  0.00000000000E+00 0. -1.
          6    1    1    2  501    0  0.12376404358E+03 -0.28100121038E+02 -0.31399063628E+03  0.38029761366E+03  0.17300000000E+03 0. -1.
         -6    1    1    2    0  503 -0.12376404358E+03  0.28100121038E+02 -0.78332006458E+03  0.81217392156E+03  0.17300000000E+03 0. -1.
</event>
<event>
 4    1  0.5876320E+000  0.1000000E+03  0.7546771E-02  0.1280296E+00
         21   -1    0    0  501  502  0.00000000000E+00  0.00000000000E+00  0.12740308405E+03  0.12740308405E+03  0.00000000000E+00 0. -1.
         21   -1    0    0  502  503 -0.00000000000E+00 -0.00000000000E+00 -0.30860202926E+03  0.30860202926E+03  0.00000000000E+00 0.  1.
          6    1    1    2  501    0  0.41775505797E+02 -0.35651740727E+02 -0.28394257418E+01  0.18153044329E+03  0.17300000000E+03 0. -1.
         -6    1    1    2    0  503 -0.41775505797E+02  0.35651740727E+02 -0.17835951946E+03  0.25447467002E+03  0.17300000000E+03 0.  1.
</event>
<event>
 4    1  0.5876320E+000  0.1000000E+03  0.7546771E-02  0.1280296E+00
         21   -1    0    0  501  502  0.00000000000E+00  0.00000000000E+00  0.24514922721E+03  0.24514922721E+03  0.00000000000E+00 0. -1.
         21   -1    0    0  502  503 -0.00000000000E+00 -0.00000000000E+00 -0.19060526105E+03  0.19060526105E+03  0.00000000000E+00 0.  1.
          6    1    1    2  501    0 -0.40290799837E+02 -0.66966804725E+02  0.13148322848E+03  0.23092150367E+03  0.17300000000E+03 0. -1.
         -6    1    1    2    0  503  0.40290799837E+02  0.66966804725E+02 -0.76939262323E+02  0.20483298458E+03  0.17300000000E+03 0.  1.
</event>
<event>
 4    1  0.5876320E+000  0.1000000E+03  0.7546771E-02  0.1280296E+00
         21   -1    0    0  501  502  0.00000000000E+00  0.00000000000E+00  0.12533394521E+04  0.12533394521E+04  0.00000000000E+00 0. -1.
         21   -1    0    0  502  503 -0.00000000000E+00 -0.00000000000E+00 -0.41019203541E+02  0.41019203541E+02  0.00000000000E+00 0.  1.
          6    1    1    2  501    0 -0.37709729214E+02 -0.41840728972E+02  0.99237831717E+03  0.10089184282E+04  0.17300000000E+03 0. -1.
         -6    1    1    2    0  503  0.37709729214E+02  0.41840728972E+02  0.21994193134E+03  0.28544022744E+03  0.17300000000E+03 0.  1.
</event>
<event>
 4    1  0.5876320E+000  0.1000000E+03  0.7546771E-02  0.1280296E+00
         21   -1    0    0  503  502  0.00000000000E+00  0.00000000000E+00  0.20354635074E+03  0.20354635074E+03  0.00000000000E+00 0.  1.
         21   -1    0    0  501  503 -0.00000000000E+00 -0.00000000000E+00 -0.28535667296E+03  0.28535667296E+03  0.00000000000E+00 0.  1.
          6    1    1    2  501    0  0.87858430711E+02  0.66935644981E+02 -0.16902402348E+03  0.26589021217E+03  0.17300000000E+03 0. -1.
         -6    1    1    2    0  502 -0.87858430711E+02 -0.66935644981E+02  0.87213701268E+02  0.22301281153E+03  0.17300000000E+03 0. -1.
</event>
<event>
 4    1  0.5876320E+000  0.1000000E+03  0.7546771E-02  0.1280296E+00
         21   -1    0    0  503  502  0.00000000000E+00  0.00000000000E+00  0.14831080705E+04  0.14831080705E+04  0.00000000000E+00 0.  1.
         21   -1    0    0  501  503 -0.00000000000E+00 -0.00000000000E+00 -0.77187682378E+02  0.77187682378E+02  0.00000000000E+00 0.  1.
          6    1    1    2  501    0  0.13672732683E+03  0.15438584580E+03  0.23030867441E+03  0.35426040816E+03  0.17300000000E+03 0.  1.
         -6    1    1    2    0  502 -0.13672732683E+03 -0.15438584580E+03  0.11756117137E+04  0.12060353447E+04  0.17300000000E+03 0.  1.
</event>
<event>
 4    1  0.5876320E+000  0.1000000E+03  0.7546771E-02  0.1280296E+00
         21   -1    0    0  503  502  0.00000000000E+00  0.00000000000E+00  0.24571457540E+03  0.24571457540E+03  0.00000000000E+00 0.  1.
         21   -1    0    0  501  503 -0.00000000000E+00 -0.00000000000E+00 -0.16418863250E+03  0.16418863250E+03  0.00000000000E+00 0.  1.
          6    1    1    2  501    0  0.44278620742E+02 -0.49503618605E+02 -0.38297724052E+02  0.18922716554E+03  0.17300000000E+03 0.  1.
         -6    1    1    2    0  502 -0.44278620742E+02  0.49503618605E+02  0.11982366696E+03  0.22067604236E+03  0.17300000000E+03 0.  1.
</event>
<event>
 4    1  0.5876320E+000  0.1000000E+03  0.7546771E-02  0.1280296E+00
         21   -1    0    0  501  502  0.00000000000E+00  0.00000000000E+00  0.11729853741E+04  0.11729853741E+04  0.00000000000E+00 0. -1.
         21   -1    0    0  502  503 -0.00000000000E+00 -0.00000000000E+00 -0.59625393347E+02  0.59625393347E+02  0.00000000000E+00 0. -1.
          6    1    1    2  501    0  0.19352483416E+03  0.20880321307E+02  0.66405302559E+03  0.71329045280E+03  0.17300000000E+03 0. -1.
         -6    1    1    2    0  503 -0.19352483416E+03 -0.20880321307E+02  0.44930695519E+03  0.51932031467E+03  0.17300000000E+03 0. -1.
</event>
<event>
 4    1  0.5876320E+000  0.1000000E+03  0.7546771E-02  0.1280296E+00
         21   -1    0    0  501  502  0.00000000000E+00  0.00000000000E+00  0.67921000405E+03  0.67921000405E+03  0.00000000000E+00 0. -1.
         21   -1    0    0  502  503 -0.00000000000E+00 -0.00000000000E+00 -0.80512870729E+02  0.80512870729E+02  0.00000000000E+00 0.  1.
          6    1    1    2  501    0  0.72833611958E+02  0.12112725608E+03  0.18704687634E+03  0.29136245665E+03  0.17300000000E+03 0. -1.
         -6    1    1    2    0  503 -0.72833611958E+02 -0.12112725608E+03  0.41165025699E+03  0.46836041814E+03  0.17300000000E+03 0.  1.
</event>
<event>
 4    1  0.5876320E+000  0.1000000E+03  0.7546771E-02  0.1280296E+00
         21   -1    0    0  503  502  0.00000000000E+00  0.00000000000E+00  0.18381497359E+02  0.18381497359E+02  0.00000000000E+00 0.  1.
         21   -1    0    0  501  503 -0.00000000000E+00 -0.00000000000E+00 -0.20602900483E+04  0.20602900483E+04  0.00000000000E+00 0.  1.
          6    1    1    2  501    0  0.40388025681E+02 -0.75554814354E+02 -0.88986190092E+03  0.91056187340E+03  0.17300000000E+03 0.  1.
         -6    1    1    2    0  502 -0.40388025681E+02  0.75554814354E+02 -0.11520466501E+04  0.11681096723E+04  0.17300000000E+03 0.  1.
</event>
<event>
 4    1  0.5876320E+000  0.1000000E+03  0.7546771E-02  0.1280296E+00
         21   -1    0    0  503  502  0.00000000000E+00  0.00000000000E+00  0.12816470251E+04  0.12816470251E+04  0.00000000000E+00 0.  1.
         21   -1    0    0  501  503 -0.00000000000E+00 -0.00000000000E+00 -0.37355326464E+02  0.37355326464E+02  0.00000000000E+00 0.  1.
          6    1    1    2  501    0  0.11689375599E+03  0.26806008975E+02  0.44219149388E+03  0.48973975698E+03  0.17300000000E+03 0.  1.
         -6    1    1    2    0  502 -0.11689375599E+03 -0.26806008975E+02  0.80210020476E+03  0.82926259459E+03  0.17300000000E+03 0.  1.
</event>
<event>
 4    1  0.5876320E+000  0.1000000E+03  0.7546771E-02  0.1280296E+00
         21   -1    0    0  501  502  0.00000000000E+00  0.00000000000E+00  0.12989083993E+03  0.12989083993E+03  0.00000000000E+00 0.  1.
         21   -1    0    0  502  503 -0.00000000000E+00 -0.00000000000E+00 -0.40132081767E+03  0.40132081767E+03  0.00000000000E+00 0.  1.
          6    1    1    2  501    0  0.76066450922E+02 -0.41131485730E+02  0.54318196602E+01  0.19348490571E+03  0.17300000000E+03 0. -1.
         -6    1    1    2    0  503 -0.76066450922E+02  0.41131485730E+02 -0.27686179740E+03  0.33772675188E+03  0.17300000000E+03 0. -1.
</event>
<event>
 4    1  0.5876320E+000  0.1000000E+03  0.7546771E-02  0.1280296E+00
         21   -1    0    0  503  502  0.00000000000E+00  0.00000000000E+00  0.16732183695E+03  0.16732183695E+03  0.00000000000E+00 0. -1.
         21   -1    0    0  501  503 -0.00000000000E+00 -0.00000000000E+00 -0.24385195695E+03  0.24385195695E+03  0.00000000000E+00 0. -1.
          6    1    1    2  501    0  0.86398618052E+02 -0.42859593484E+02  0.20768750699E+01  0.19807821527E+03  0.17300000000E+03 0. -1.
         -6    1    1    2    0  502 -0.86398618052E+02  0.42859593484E+02 -0.78606995070E+02  0.21309557862E+03  0.17300000000E+03 0. -1.
</event>
<event>
 4    1  0.5876320E+000  0.1000000E+03  0.7546771E-02  0.1280296E+00
         21   -1    0    0  503  502  0.00000000000E+00  0.00000000000E+00  0.26567964433E+02  0.26567964433E+02  0.00000000000E+00 0. -1.
         21   -1    0    0  501  503 -0.00000000000E+00 -0.00000000000E+00 -0.11810567678E+04  0.11810567678E+04  0.00000000000E+00 0. -1.
          6    1    1    2  501    0  0.88057124203E+01 -0.23932417661E+02 -0.67359480388E+03  0.69592331546E+03  0.17300000000E+03 0. -1.
         -6    1    1    2    0  502 -0.88057124203E+01  0.23932417661E+02 -0.48089399950E+03  0.51170141679E+03  0.17300000000E+03 0. -1.
</event>
<event>
 4    1  0.5876320E+000  0.1000000E+03  0.7546771E-02  0.1280296E+00
         21   -1    0    0  503  502  0.00000000000E+00  0.00000000000E+00  0.21388269481E+04  0.21388269481E+04  0.00000000000E+00 0. -1.
         21   -1    0    0  501  503 -0.00000000000E+00 -0.00000000000E+00 -0.99740359263E+02  0.99740359263E+02  0.00000000000E+00 0. -1.
          6    1    1    2  501    0  0.35942181410E+03  0.98125371683E+02  0.15312426371E+04  0.15853850140E+04  0.17300000000E+03 0. -1.
         -6    1    1    2    0  502 -0.35942181410E+03 -0.98125371683E+02  0.50784395174E+03  0.65318229334E+03  0.17300000000E+03 0. -1.
</event>
<event>
 4    1  0.5876320E+000  0.1000000E+03  0.7546771E-02  0.1280296E+00
         21   -1    0    0  501  502  0.00000000000E+00  0.00000000000E+00  0.57777384519E+03  0.57777384519E+03  0.00000000000E+00 0.  1.
         21   -1    0    0  502  503 -0.00000000000E+00 -0.00000000000E+00 -0.34499749508E+03  0.34499749508E+03  0.00000000000E+00 0.  1.
          6    1    1    2  501    0 -0.26698920319E+03  0.27606742641E+01  0.44008267501E+03  0.54304016130E+03  0.17300000000E+03 0.  1.
         -6    1    1    2    0  503  0.26698920319E+03 -0.27606742641E+01 -0.20730632490E+03  0.37973117897E+03  0.17300000000E+03 0.  1.
</event>
<event>
 4    1  0.5876320E+000  0.1000000E+03  0.7546771E-02  0.1280296E+00
         21   -1    0    0  501  502  0.00000000000E+00  0.00000000000E+00  0.42578642594E+03  0.42578642594E+03  0.00000000000E+00 0.  1.
         21   -1    0    0  502  503 -0.00000000000E+00 -0.00000000000E+00 -0.96911416846E+02  0.96911416846E+02  0.00000000000E+00 0.  1.
          6    1    1    2  501    0 -0.80425945623E+02  0.21068370246E+02  0.24999621433E+03  0.31518140195E+03  0.17300000000E+03 0.  1.
         -6    1    1    2    0  503  0.80425945623E+02 -0.21068370246E+02  0.78878794763E+02  0.20751644084E+03  0.17300000000E+03 0.  1.
</event>
<event>
 4    1  0.5876320E+000  0.1000000E+03  0.7546771E-02  0.1280296E+00
         21   -1    0    0  503  502  0.00000000000E+00  0.00000000000E+00  0.10249114765E+03  0.10249114765E+03  0.00000000000E+00 0. -1.
         21   -1    0    0  501  503 -0.00000000000E+00 -0.00000000000E+00 -0.39174000289E+03  0.39174000289E+03  0.00000000000E+00 0. -1.
          6    1    1    2  501    0 -0.22229790397E+02  0.97773796987E+02 -0.12868690581E+03  0.23778813823E+03  0.17300000000E+03 0. -1.
         -6    1    1    2    0  502  0.22229790397E+02 -0.97773796987E+02 -0.16056194943E+03  0.25644301231E+03  0.17300000000E+03 0. -1.
</event>
<event>
 4    1  0.5876320E+000  0.1000000E+03  0.7546771E-02  0.1280296E+00
         21   -1    0    0  503  502  0.00000000000E+00  0.00000000000E+00  0.74702782213E+03  0.74702782213E+03  0.00000000000E+00 0. -1.
         21   -1    0    0  501  503 -0.00000000000E+00 -0.00000000000E+00 -0.59921109081E+02  0.59921109081E+02  0.00000000000E+00 0. -1.
          6    1    1    2  501    0  0.15315062738E+02 -0.59078293335E+02  0.14255428548E+03  0.23232632265E+03  0.17300000000E+03 0. -1.
         -6    1    1    2    0  502 -0.15315062738E+02  0.59078293335E+02  0.54455242757E+03  0.57462260856E+03  0.17300000000E+03 0. -1.
</event>
<event>
 4    1  0.5876320E+000  0.1000000E+03  0.7546771E-02  0.1280296E+00
         21   -1    0    0  503  502  0.00000000000E+00  0.00000000000E+00  0.15404709271E+03  0.15404709271E+03  0.00000000000E+00 0. -1.
         21   -1    0    0  501  503 -0.00000000000E+00 -0.00000000000E+00 -0.96054226945E+03  0.96054226945E+03  0.00000000000E+00 0. -1.
          6    1    1    2  501    0  0.24476035208E+03  0.85531945096E+02 -0.72983681457E+03  0.79360829096E+03  0.17300000000E+03 0. -1.
         -6    1    1    2    0  502 -0.24476035208E+03 -0.85531945096E+02 -0.76658362173E+02  0.32098107121E+03  0.17300000000E+03 0. -1.
</event>
<event>
 4    1  0.5876320E+000  0.1000000E+03  0.7546771E-02  0.1280296E+00
         21   -1    0    0  501  502  0.00000000000E+00  0.00000000000E+00  0.78293920866E+03  0.78293920866E+03  0.00000000000E+00 0. -1.
         21   -1    0    0  502  503 -0.00000000000E+00 -0.00000000000E+00 -0.16724524513E+03  0.16724524513E+03  0.00000000000E+00 0.  1.
          6    1    1    2  501    0 -0.17495675101E+03  0.23991163058E+03  0.15903845638E+03  0.37866830580E+03  0.17300000000E+03 0.  1.
         -6    1    1    2    0  503  0.17495675101E+03 -0.23991163058E+03  0.45665550715E+03  0.57151614799E+03  0.17300000000E+03 0. -1.
</event>
<event>
 4    1  0.5876320E+000  0.1000000E+03  0.7546771E-02  0.1280296E+00
         21   -1    0    0  503  502  0.00000000000E+00  0.00000000000E+00  0.31825437400E+04  0.31825437400E+04  0.00000000000E+00 0. -1.
         21   -1    0    0  501  503 -0.00000000000E+00 -0.00000000000E+00 -0.18658806844E+02  0.18658806844E+02  0.00000000000E+00 0.  1.
          6    1    1    2  501    0 -0.96714881131E+02 -0.14154246030E+03  0.16350738564E+04  0.16531132908E+04  0.17300000000E+03 0.  1.
         -6    1    1    2    0  502  0.96714881131E+02  0.14154246030E+03  0.15288110767E+04  0.15480892560E+04  0.17300000000E+03 0.  1.
</event>
<event>
 4    1  0.5876320E+000  0.1000000E+03  0.7546771E-02  0.1280296E+00
         21   -1    0    0  503  502  0.00000000000E+00  0.00000000000E+00  0.73716583758E+02  0.73716583758E+02  0.00000000000E+00 0. -1.
         21   -1    0    0  501  503 -0.00000000000E+00 -0.00000000000E+00 -0.53271821190E+03  0.53271821190E+03  0.00000000000E+00 0.  1.
          6    1    1    2  501    0  0.47034849051E+02 -0.16788264616E+02 -0.35611264761E+03  0.39904804302E+03  0.17300000000E+03 0.  1.
         -6    1    1    2    0  502 -0.47034849051E+02  0.16788264616E+02 -0.10288898054E+03  0.20738675264E+03  0.17300000000E+03 0.  1.
</event>
<event>
 4    1  0.5876320E+000  0.1000000E+03  0.7546771E-02  0.1280296E+00
         21   -1    0    0  501  502  0.00000000000E+00  0.00000000000E+00  0.33500373666E+02  0.33500373666E+02  0.00000000000E+00 0. -1.
         21   -1    0    0  502  503 -0.00000000000E+00 -0.00000000000E+00 -0.16387939164E+04  0.16387939164E+04  0.00000000000E+00 0.  1.
          6    1    1    2  501    0 -0.15706538173E+03  0.11626885754E+02 -0.84869253961E+03  0.88034808196E+03  0.17300000000E+03 0.  1.
         -6    1    1    2    0  503  0.15706538173E+03 -0.11626885754E+02 -0.75660100308E+03  0.79194620806E+03  0.17300000000E+03 0. -1.
</event>
<event>
 4    1  0.5876320E+000  0.1000000E+03  0.7546771E-02  0.1280296E+00
         21   -1    0    0  501  502  0.00000000000E+00  0.00000000000E+00  0.27378892215E+02  0.27378892215E+02  0.00000000000E+00 0. -1.
         21   -1    0    0  502  503 -0.00000000000E+00 -0.00000000000E+00 -0.16085133438E+04  0.16085133438E+04  0.00000000000E+00 0.  1.
          6    1    1    2  501    0 -0.13417185639E+02 -0.65071366767E+02 -0.40677077969E+03  0.44699638796E+03  0.17300000000E+03 0.  1.
         -6    1    1    2    0  503  0.13417185639E+02  0.65071366767E+02 -0.11743636719E+04  0.11888958481E+04  0.17300000000E+03 0. -1.
</event>
<event>
 4    1  0.5876320E+000  0.1000000E+03  0.7546771E-02  0.1280296E+00
         21   -1    0    0  503  502  0.00000000000E+00  0.00000000000E+00  0.21738865833E+04  0.21738865833E+04  0.00000000000E+00 0.  1.
         21   -1    0    0  501  503 -0.00000000000E+00 -0.00000000000E+00 -0.19011214391E+03  0.19011214391E+03  0.00000000000E+00 0. -1.
          6    1    1    2  501    0 -0.39195221609E+02  0.27703451618E+02 -0.14308325948E+03  0.22957692779E+03  0.17300000000E+03 0. -1.
         -6    1    1    2    0  502  0.39195221609E+02 -0.27703451618E+02  0.21268576989E+04  0.21344217995E+04  0.17300000000E+03 0.  1.
</event>
<event>
 4    1  0.5876320E+000  0.1000000E+03  0.7546771E-02  0.1280296E+00
         21   -1    0    0  503  502  0.00000000000E+00  0.00000000000E+00  0.26552465472E+03  0.26552465472E+03  0.00000000000E+00 0.  1.
         21   -1    0    0  501  503 -0.00000000000E+00 -0.00000000000E+00 -0.18441118195E+03  0.18441118195E+03  0.00000000000E+00 0. -1.
          6    1    1    2  501    0  0.11376926089E+03  0.77250256324E+02  0.29159805755E+02  0.22291330399E+03  0.17300000000E+03 0. -1.
         -6    1    1    2    0  502 -0.11376926089E+03 -0.77250256324E+02  0.51953667020E+02  0.22702253268E+03  0.17300000000E+03 0.  1.
</event>
<event>
 4    1  0.5876320E+000  0.1000000E+03  0.7546771E-02  0.1280296E+00
         21   -1    0    0  503  502  0.00000000000E+00  0.00000000000E+00  0.13416146335E+03  0.13416146335E+03  0.00000000000E+00 0.  1.
         21   -1    0    0  501  503 -0.00000000000E+00 -0.00000000000E+00 -0.82805722925E+03  0.82805722925E+03  0.00000000000E+00 0.  1.
          6    1    1    2  501    0  0.30090194765E+02 -0.99157652999E+02 -0.73000931086E+03  0.75735081298E+03  0.17300000000E+03 0.  1.
         -6    1    1    2    0  502 -0.30090194765E+02  0.99157652999E+02  0.36113544963E+02  0.20486787962E+03  0.17300000000E+03 0.  1.
</event>
<event>
 4    1  0.5876320E+000  0.1000000E+03  0.7546771E-02  0.1280296E+00
         21   -1    0    0  501  502  0.00000000000E+00  0.00000000000E+00  0.21365362444E+03  0.21365362444E+03  0.00000000000E+00 0. -1.
         21   -1    0    0  502  503 -0.00000000000E+00 -0.00000000000E+00 -0.49760352366E+03  0.49760352366E+03  0.00000000000E+00 0. -1.
          6    1    1    2  501    0  0.35706612387E+02 -0.86759707397E+02  0.14156901848E+03  0.24243142533E+03  0.17300000000E+03 0.  1.
         -6    1    1    2    0  503 -0.35706612387E+02  0.86759707397E+02 -0.42551891771E+03  0.46882572276E+03  0.17300000000E+03 0.  1.
</event>
<event>
 4    1  0.5876320E+000  0.1000000E+03  0.7546771E-02  0.1280296E+00
         21   -1    0    0  501  502  0.00000000000E+00  0.00000000000E+00  0.13568813476E+03  0.13568813476E+03  0.00000000000E+00 0. -1.
         21   -1    0    0  502  503 -0.00000000000E+00 -0.00000000000E+00 -0.61259816393E+03  0.61259816393E+03  0.00000000000E+00 0.  1.
          6    1    1    2  501    0  0.22674599774E+03 -0.41901257515E+02 -0.23211885365E+03  0.37010488390E+03  0.17300000000E+03 0.  1.
         -6    1    1    2    0  503 -0.22674599774E+03  0.41901257515E+02 -0.24479117552E+03  0.37818141478E+03  0.17300000000E+03 0.  1.
</event>
<event>
 4    1  0.5876320E+000  0.1000000E+03  0.7546771E-02  0.1280296E+00
         21   -1    0    0  501  502  0.00000000000E+00  0.00000000000E+00  0.32497747321E+03  0.32497747321E+03  0.00000000000E+00 0. -1.
         21   -1    0    0  502  503 -0.00000000000E+00 -0.00000000000E+00 -0.11474341226E+03  0.11474341226E+03  0.00000000000E+00 0.  1.
          6    1    1    2  501    0  0.80040840550E+02 -0.18339083411E+02  0.76831938097E+02  0.20633711457E+03  0.17300000000E+03 0.  1.
         -6    1    1    2    0  503 -0.80040840550E+02  0.18339083411E+02  0.13340212286E+03  0.23338377090E+03  0.17300000000E+03 0.  1.
</event>
<event>
 4    1  0.5876320E+000  0.1000000E+03  0.7546771E-02  0.1280296E+00
         21   -1    0    0  501  502  0.00000000000E+00  0.00000000000E+00  0.46102413560E+02  0.46102413560E+02  0.00000000000E+00 0. -1.
         21   -1    0    0  502  503 -0.00000000000E+00 -0.00000000000E+00 -0.88682394615E+03  0.88682394615E+03  0.00000000000E+00 0. -1.
          6    1    1    2  501    0  0.21019832399E+02  0.85888050203E+02 -0.29114861640E+03  0.35002158127E+03  0.17300000000E+03 0.  1.
         -6    1    1    2    0  503 -0.21019832399E+02 -0.85888050203E+02 -0.54957291619E+03  0.58290477844E+03  0.17300000000E+03 0.  1.
</event>
<event>
 4    1  0.5876320E+000  0.1000000E+03  0.7546771E-02  0.1280296E+00
         21   -1    0    0  501  502  0.00000000000E+00  0.00000000000E+00  0.14287447602E+04  0.14287447602E+04  0.00000000000E+00 0. -1.
         21   -1    0    0  502  503 -0.00000000000E+00 -0.00000000000E+00 -0.46548340187E+02  0.46548340187E+02  0.00000000000E+00 0. -1.
          6    1    1    2  501    0  0.90102804825E+02  0.13708171035E+03  0.97232711220E+03  0.10011288248E+04  0.17300000000E+03 0.  1.
         -6    1    1    2    0  503 -0.90102804825E+02 -0.13708171035E+03  0.40986930786E+03  0.47416427562E+03  0.17300000000E+03 0.  1.
</event>
<event>
 4    1  0.5876320E+000  0.1000000E+03  0.7546771E-02  0.1280296E+00
         21   -1    0    0  501  502  0.00000000000E+00  0.00000000000E+00  0.84710569250E+02  0.84710569250E+02  0.00000000000E+00 0.  1.
         21   -1    0    0  502  503 -0.00000000000E+00 -0.00000000000E+00 -0.61167723926E+03  0.61167723926E+03  0.00000000000E+00 0. -1.
          6    1    1    2  501    0  0.32995543028E+02 -0.97310974180E+02 -0.10067546057E+03  0.22499484420E+03  0.17300000000E+03 0.  1.
         -6    1    1    2    0  503 -0.32995543028E+02  0.97310974180E+02 -0.42629120944E+03  0.47139296431E+03  0.17300000000E+03 0. -1.
</event>
<event>
 4    1  0.5876320E+000  0.1000000E+03  0.7546771E-02  0.1280296E+00
         21   -1    0    0  501  502  0.00000000000E+00  0.00000000000E+00  0.60527061333E+02  0.60527061333E+02  0.00000000000E+00 0.  1.
         21   -1    0    0  502  503 -0.00000000000E+00 -0.00000000000E+00 -0.53799238424E+03  0.53799238424E+03  0.00000000000E+00 0. -1.
          6    1    1    2  501    0  0.29457946647E+02  0.37548924925E+02 -0.20742449003E+03  0.27428381550E+03  0.17300000000E+03 0.  1.
         -6    1    1    2    0  503 -0.29457946647E+02 -0.37548924925E+02 -0.27004083287E+03  0.32423563006E+03  0.17300000000E+03 0. -1.
</event>
<event>
 4    1  0.5876320E+000  0.1000000E+03  0.7546771E-02  0.1280296E+00
         21   -1    0    0  503  502  0.00000000000E+00  0.00000000000E+00  0.52022321671E+03  0.52022321671E+03  0.00000000000E+00 0.  1.
         21   -1    0    0  501  503 -0.00000000000E+00 -0.00000000000E+00 -0.73732547854E+02  0.73732547854E+02  0.00000000000E+00 0. -1.
          6    1    1    2  501    0 -0.73774552677E+02 -0.48426088739E+02  0.18486600927E+03  0.26812723114E+03  0.17300000000E+03 0.  1.
         -6    1    1    2    0  502  0.73774552677E+02  0.48426088739E+02  0.26162465958E+03  0.32582853343E+03  0.17300000000E+03 0.  1.
</event>
<event>
 4    1  0.5876320E+000  0.1000000E+03  0.7546771E-02  0.1280296E+00
         21   -1    0    0  503  502  0.00000000000E+00  0.00000000000E+00  0.15745574653E+03  0.15745574653E+03  0.00000000000E+00 0.  1.
         21   -1    0    0  501  503 -0.00000000000E+00 -0.00000000000E+00 -0.56098331111E+03  0.56098331111E+03  0.00000000000E+00 0. -1.
          6    1    1    2  501    0  0.69007633837E+01  0.41402347032E+02 -0.48941388841E+03  0.52078472428E+03  0.17300000000E+03 0.  1.
         -6    1    1    2    0  502 -0.69007633837E+01 -0.41402347032E+02  0.85886323836E+02  0.19765433336E+03  0.17300000000E+03 0.  1.
</event>
<event>
 4    1  0.5876320E+000  0.1000000E+03  0.7546771E-02  0.1280296E+00
         21   -1    0    0  503  502  0.00000000000E+00  0.00000000000E+00  0.56914864915E+03  0.56914864915E+03  0.00000000000E+00 0.  1.
         21   -1    0    0  501  503 -0.00000000000E+00 -0.00000000000E+00 -0.13302234397E+03  0.13302234397E+03  0.00000000000E+00 0. -1.
          6    1    1    2  501    0 -0.97913400705E+02 -0.56404817111E+02 -0.13768817152E+02  0.20709205141E+03  0.17300000000E+03 0.  1.
         -6    1    1    2    0  502  0.97913400705E+02  0.56404817111E+02  0.44989512233E+03  0.49507894171E+03  0.17300000000E+03 0.  1.
</event>
<event>
 4    1  0.5876320E+000  0.1000000E+03  0.7546771E-02  0.1280296E+00
         21   -1    0    0  503  502  0.00000000000E+00  0.00000000000E+00  0.52241601186E+03  0.52241601186E+03  0.00000000000E+00 0.  1.
         21   -1    0    0  501  503 -0.00000000000E+00 -0.00000000000E+00 -0.15419498034E+03  0.15419498034E+03  0.00000000000E+00 0. -1.
          6    1    1    2  501    0 -0.19293928356E+03 -0.10932138393E+03  0.13874987818E+03  0.31361961166E+03  0.17300000000E+03 0.  1.
         -6    1    1    2    0  502  0.19293928356E+03  0.10932138393E+03  0.22947115335E+03  0.36299138054E+03  0.17300000000E+03 0.  1.
</event>
<event>
 4    1  0.5876320E+000  0.1000000E+03  0.7546771E-02  0.1280296E+00
         21   -1    0    0  501  502  0.00000000000E+00  0.00000000000E+00  0.85657423811E+02  0.85657423811E+02  0.00000000000E+00 0. -1.
         21   -1    0    0  502  503 -0.00000000000E+00 -0.00000000000E+00 -0.58732562229E+03  0.58732562229E+03  0.00000000000E+00 0.  1.
          6    1    1    2  501    0  0.79298758888E+02 -0.47467401625E+02 -0.87604925950E+02  0.21481403685E+03  0.17300000000E+03 0.  1.
         -6    1    1    2    0  503 -0.79298758888E+02  0.47467401625E+02 -0.41406327253E+03  0.45816900925E+03  0.17300000000E+03 0. -1.
</event>
<event>
 4    1  0.5876320E+000  0.1000000E+03  0.7546771E-02  0.1280296E+00
         21   -1    0    0  501  502  0.00000000000E+00  0.00000000000E+00  0.96536581378E+02  0.96536581378E+02  0.00000000000E+00 0. -1.
         21   -1    0    0  502  503 -0.00000000000E+00 -0.00000000000E+00 -0.57380173460E+03  0.57380173460E+03  0.00000000000E+00 0.  1.
          6    1    1    2  501    0  0.10387634768E+03  0.93984727936E+02 -0.12979980453E+03  0.25768277775E+03  0.17300000000E+03 0.  1.
         -6    1    1    2    0  503 -0.10387634768E+03 -0.93984727936E+02 -0.34746534869E+03  0.41265553823E+03  0.17300000000E+03 0. -1.
</event>
<event>
 4    1  0.5876320E+000  0.1000000E+03  0.7546771E-02  0.1280296E+00
         21   -1    0    0  501  502  0.00000000000E+00  0.00000000000E+00  0.15767719732E+03  0.15767719732E+03  0.00000000000E+00 0.  1.
         21   -1    0    0  502  503 -0.00000000000E+00 -0.00000000000E+00 -0.29054029995E+03  0.29054029995E+03  0.00000000000E+00 0.  1.
          6    1    1    2  501    0 -0.75917648317E+02  0.99744653554E+02 -0.52775758903E+02  0.22006082333E+03  0.17300000000E+03 0.  1.
         -6    1    1    2    0  503  0.75917648317E+02 -0.99744653554E+02 -0.80087343725E+02  0.22815667394E+03  0.17300000000E+03 0.  1.
</event>
<event>
 4    1  0.5876320E+000  0.1000000E+03  0.7546771E-02  0.1280296E+00
         21   -1    0    0  501  502  0.00000000000E+00  0.00000000000E+00  0.75134532177E+03  0.75134532177E+03  0.00000000000E+00 0. -1.
         21   -1    0    0  502  503 -0.00000000000E+00 -0.00000000000E+00 -0.14894493579E+03  0.14894493579E+03  0.00000000000E+00 0.  1.
          6    1    1    2  501    0  0.18158264332E+03 -0.16509330964E+03  0.49965870107E+03  0.58293728205E+03  0.17300000000E+03 0. -1.
         -6    1    1    2    0  503 -0.18158264332E+03  0.16509330964E+03  0.10274168491E+03  0.31735297551E+03  0.17300000000E+03 0.  1.
</event>
<event>
 4    1  0.5876320E+000  0.1000000E+03  0.7546771E-02  0.1280296E+00
         21   -1    0    0  501  502  0.00000000000E+00  0.00000000000E+00  0.83592227746E+02  0.83592227746E+02  0.00000000000E+00 0. -1.
         21   -1    0    0  502  503 -0.00000000000E+00 -0.00000000000E+00 -0.58275840471E+03  0.58275840471E+03  0.00000000000E+00 0.  1.
          6    1    1    2  501    0 -0.68150435013E+01  0.12596994083E+02 -0.43819844216E+02  0.17903716884E+03  0.17300000000E+03 0. -1.
         -6    1    1    2    0  503  0.68150435013E+01 -0.12596994083E+02 -0.45534633275E+03  0.48731346362E+03  0.17300000000E+03 0.  1.
</event>
<event>
 4    1  0.5876320E+000  0.1000000E+03  0.7546771E-02  0.1280296E+00
         21   -1    0    0  501  502  0.00000000000E+00  0.00000000000E+00  0.11271001303E+04  0.11271001303E+04  0.00000000000E+00 0. -1.
         21   -1    0    0  502  503 -0.00000000000E+00 -0.00000000000E+00 -0.61157762613E+02  0.61157762613E+02  0.00000000000E+00 0. -1.
          6    1    1    2  501    0  0.12979327882E+03 -0.10519486655E+03  0.77127605571E+03  0.80790346533E+03  0.17300000000E+03 0. -1.
         -6    1    1    2    0  503 -0.12979327882E+03  0.10519486655E+03  0.29466631200E+03  0.38035442761E+03  0.17300000000E+03 0. -1.
</event>
<event>
 4    1  0.5876320E+000  0.1000000E+03  0.7546771E-02  0.1280296E+00
         21   -1    0    0  501  502  0.00000000000E+00  0.00000000000E+00  0.40115098385E+03  0.40115098385E+03  0.00000000000E+00 0. -1.
         21   -1    0    0  502  503 -0.00000000000E+00 -0.00000000000E+00 -0.11108353847E+03  0.11108353847E+03  0.00000000000E+00 0. -1.
          6    1    1    2  501    0  0.92865113281E+02  0.70486649234E+02  0.10590719959E+03  0.23396074865E+03  0.17300000000E+03 0. -1.
         -6    1    1    2    0  503 -0.92865113281E+02 -0.70486649234E+02  0.18416024579E+03  0.27827377368E+03  0.17300000000E+03 0. -1.
</event>
<event>
 4    1  0.5876320E+000  0.1000000E+03  0.7546771E-02  0.1280296E+00
         21   -1    0    0  501  502  0.00000000000E+00  0.00000000000E+00  0.32340323107E+03  0.32340323107E+03  0.00000000000E+00 0. -1.
         21   -1    0    0  502  503 -0.00000000000E+00 -0.00000000000E+00 -0.51143839155E+03  0.51143839155E+03  0.00000000000E+00 0. -1.
          6    1    1    2  501    0  0.28317009389E+01  0.26223886261E+03  0.17104630361E+03  0.35771927202E+03  0.17300000000E+03 0. -1.
         -6    1    1    2    0  503 -0.28317009389E+01 -0.26223886261E+03 -0.35908146409E+03  0.47712235060E+03  0.17300000000E+03 0. -1.
</event>
<event>
 4    1  0.5876320E+000  0.1000000E+03  0.7546771E-02  0.1280296E+00
         21   -1    0    0  501  502  0.00000000000E+00  0.00000000000E+00  0.67449022077E+02  0.67449022077E+02  0.00000000000E+00 0. -1.
         21   -1    0    0  502  503 -0.00000000000E+00 -0.00000000000E+00 -0.13600171827E+04  0.13600171827E+04  0.00000000000E+00 0. -1.
          6    1    1    2  501    0 -0.17790999124E+03 -0.82643895177E+01 -0.23755716578E+03  0.34363159362E+03  0.17300000000E+03 0. -1.
         -6    1    1    2    0  503  0.17790999124E+03  0.82643895177E+01 -0.10550109948E+04  0.10838346111E+04  0.17300000000E+03 0. -1.
</event>
<event>
 4    1  0.5876320E+000  0.1000000E+03  0.7546771E-02  0.1280296E+00
         21   -1    0    0  501  502  0.00000000000E+00  0.00000000000E+00  0.25482554621E+04  0.25482554621E+04  0.00000000000E+00 0.  1.
         21   -1    0    0  502  503 -0.00000000000E+00 -0.00000000000E+00 -0.38620651478E+02  0.38620651478E+02  0.00000000000E+00 0.  1.
          6    1    1    2  501    0 -0.88207187289E+02 -0.86039114439E+02  0.22067153328E+04  0.22169133490E+04  0.17300000000E+03 0.  1.
         -6    1    1    2    0  503  0.88207187289E+02  0.86039114439E+02  0.30291947779E+03  0.36996276451E+03  0.17300000000E+03 0.  1.
</event>
<event>
 4    1  0.5876320E+000  0.1000000E+03  0.7546771E-02  0.1280296E+00
         21   -1    0    0  501  502  0.00000000000E+00  0.00000000000E+00  0.24120301748E+03  0.24120301748E+03  0.00000000000E+00 0.  1.
         21   -1    0    0  502  503 -0.00000000000E+00 -0.00000000000E+00 -0.26984552046E+03  0.26984552046E+03  0.00000000000E+00 0. -1.
          6    1    1    2  501    0  0.14460690504E+03 -0.64008400253E+02  0.86586163052E+02  0.24986875739E+03  0.17300000000E+03 0. -1.
         -6    1    1    2    0  503 -0.14460690504E+03  0.64008400253E+02 -0.11522866603E+03  0.26117978054E+03  0.17300000000E+03 0.  1.
</event>
<event>
 4    1  0.5876320E+000  0.1000000E+03  0.7546771E-02  0.1280296E+00
         21   -1    0    0  501  502  0.00000000000E+00  0.00000000000E+00  0.19650908368E+02  0.19650908368E+02  0.00000000000E+00 0.  1.
         21   -1    0    0  502  503 -0.00000000000E+00 -0.00000000000E+00 -0.24129902729E+04  0.24129902729E+04  0.00000000000E+00 0. -1.
          6    1    1    2  501    0 -0.10718795035E+03 -0.33434735585E+02 -0.15869235932E+04  0.16002695488E+04  0.17300000000E+03 0. -1.
         -6    1    1    2    0  503  0.10718795035E+03  0.33434735585E+02 -0.80641577140E+03  0.83237163251E+03  0.17300000000E+03 0.  1.
</event>
<event>
 4    1  0.5876320E+000  0.1000000E+03  0.7546771E-02  0.1280296E+00
         21   -1    0    0  501  502  0.00000000000E+00  0.00000000000E+00  0.15932770844E+04  0.15932770844E+04  0.00000000000E+00 0.  1.
         21   -1    0    0  502  503 -0.00000000000E+00 -0.00000000000E+00 -0.90887497637E+02  0.90887497637E+02  0.00000000000E+00 0. -1.
          6    1    1    2  501    0 -0.15607810886E+03 -0.31436547071E+02  0.14133264248E+04  0.14327488320E+04  0.17300000000E+03 0. -1.
         -6    1    1    2    0  503  0.15607810886E+03  0.31436547071E+02  0.89063161991E+02  0.25141575007E+03  0.17300000000E+03 0.  1.
</event>
<event>
 4    1  0.5876320E+000  0.1000000E+03  0.7546771E-02  0.1280296E+00
         21   -1    0    0  501  502  0.00000000000E+00  0.00000000000E+00  0.12003937280E+03  0.12003937280E+03  0.00000000000E+00 0.  1.
         21   -1    0    0  502  503 -0.00000000000E+00 -0.00000000000E+00 -0.41334900722E+03  0.41334900722E+03  0.00000000000E+00 0.  1.
          6    1    1    2  501    0 -0.76204227155E+02  0.11736202330E+03 -0.13419933033E+03  0.25984493262E+03  0.17300000000E+03 0.  1.
         -6    1    1    2    0  503  0.76204227155E+02 -0.11736202330E+03 -0.15911030409E+03  0.27354344740E+03  0.17300000000E+03 0.  1.
</event>
<event>
 4    1  0.5876320E+000  0.1000000E+03  0.7546771E-02  0.1280296E+00
         21   -1    0    0  501  502  0.00000000000E+00  0.00000000000E+00  0.24813577869E+03  0.24813577869E+03  0.00000000000E+00 0.  1.
         21   -1    0    0  502  503 -0.00000000000E+00 -0.00000000000E+00 -0.27744254473E+03  0.27744254473E+03  0.00000000000E+00 0.  1.
          6    1    1    2  501    0  0.55231484478E+02 -0.77574904340E+02  0.15837588786E+03  0.25314087879E+03  0.17300000000E+03 0.  1.
         -6    1    1    2    0  503 -0.55231484478E+02  0.77574904340E+02 -0.18768265390E+03  0.27243744463E+03  0.17300000000E+03 0.  1.
</event>
<event>
 4    1  0.5876320E+000  0.1000000E+03  0.7546771E-02  0.1280296E+00
         21   -1    0    0  501  502  0.00000000000E+00  0.00000000000E+00  0.66578829174E+02  0.66578829174E+02  0.00000000000E+00 0. -1.
         21   -1    0    0  502  503 -0.00000000000E+00 -0.00000000000E+00 -0.14294973933E+04  0.14294973933E+04  0.00000000000E+00 0.  1.
          6    1    1    2  501    0  0.42315582098E+01  0.20510345830E+03 -0.31245401316E+03  0.41187600687E+03  0.17300000000E+03 0. -1.
         -6    1    1    2    0  503 -0.42315582098E+01 -0.20510345830E+03 -0.10504645509E+04  0.10842002156E+04  0.17300000000E+03 0.  1.
</event>
<event>
 4    1  0.5876320E+000  0.1000000E+03  0.7546771E-02  0.1280296E+00
         21   -1    0    0  503  502  0.00000000000E+00  0.00000000000E+00  0.38397720189E+02  0.38397720189E+02  0.00000000000E+00 0.  1.
         21   -1    0    0  501  503 -0.00000000000E+00 -0.00000000000E+00 -0.19931560018E+04  0.19931560018E+04  0.00000000000E+00 0.  1.
          6    1    1    2  501    0 -0.11358518012E+03  0.93440372374E+02 -0.15575988585E+04  0.15740634995E+04  0.17300000000E+03 0.  1.
         -6    1    1    2    0  502  0.11358518012E+03 -0.93440372374E+02 -0.39715942302E+03  0.45749022244E+03  0.17300000000E+03 0.  1.
</event>
<event>
 4    1  0.5876320E+000  0.1000000E+03  0.7546771E-02  0.1280296E+00
         21   -1    0    0  503  502  0.00000000000E+00  0.00000000000E+00  0.17618120968E+04  0.17618120968E+04  0.00000000000E+00 0.  1.
         21   -1    0    0  501  503 -0.00000000000E+00 -0.00000000000E+00 -0.19482614438E+02  0.19482614438E+02  0.00000000000E+00 0.  1.
          6    1    1    2  501    0 -0.35919099500E+02  0.11784471080E+02  0.60932500720E+03  0.63453527866E+03  0.17300000000E+03 0.  1.
         -6    1    1    2    0  502  0.35919099500E+02 -0.11784471080E+02  0.11330044752E+04  0.11467594326E+04  0.17300000000E+03 0.  1.
</event>
<event>
 4    1  0.5876320E+000  0.1000000E+03  0.7546771E-02  0.1280296E+00
         21   -1    0    0  503  502  0.00000000000E+00  0.00000000000E+00  0.12190637658E+03  0.12190637658E+03  0.00000000000E+00 0. -1.
         21   -1    0    0  501  503 -0.00000000000E+00 -0.00000000000E+00 -0.94024361065E+03  0.94024361065E+03  0.00000000000E+00 0.  1.
          6    1    1    2  501    0 -0.26105309907E+03 -0.13535107604E+02 -0.60981176911E+03  0.68566122350E+03  0.17300000000E+03 0. -1.
         -6    1    1    2    0  502  0.26105309907E+03  0.13535107604E+02 -0.20852546497E+03  0.37648876373E+03  0.17300000000E+03 0.  1.
</event>
<event>
 4    1  0.5876320E+000  0.1000000E+03  0.7546771E-02  0.1280296E+00
         21   -1    0    0  503  502  0.00000000000E+00  0.00000000000E+00  0.65208821594E+03  0.65208821594E+03  0.00000000000E+00 0.  1.
         21   -1    0    0  501  503 -0.00000000000E+00 -0.00000000000E+00 -0.17518452999E+03  0.17518452999E+03  0.00000000000E+00 0.  1.
          6    1    1    2  501    0 -0.30383868883E+02 -0.64981478241E+02 -0.10587691259E+03  0.21513877527E+03  0.17300000000E+03 0.  1.
         -6    1    1    2    0  502  0.30383868883E+02  0.64981478241E+02  0.58278059855E+03  0.61213397067E+03  0.17300000000E+03 0.  1.
</event>
<event>
 4    1  0.5876320E+000  0.1000000E+03  0.7546771E-02  0.1280296E+00
         21   -1    0    0  503  502  0.00000000000E+00  0.00000000000E+00  0.25985278601E+03  0.25985278601E+03  0.00000000000E+00 0.  1.
         21   -1    0    0  501  503 -0.00000000000E+00 -0.00000000000E+00 -0.11812476903E+04  0.11812476903E+04  0.00000000000E+00 0.  1.
          6    1    1    2  501    0 -0.70299043322E+02 -0.27941092768E+03 -0.10335477203E+04  0.10868129150E+04  0.17300000000E+03 0.  1.
         -6    1    1    2    0  502  0.70299043322E+02  0.27941092768E+03  0.11215281600E+03  0.35428756136E+03  0.17300000000E+03 0.  1.
</event>
<event>
 4    1  0.5876320E+000  0.1000000E+03  0.7546771E-02  0.1280296E+00
         21   -1    0    0  503  502  0.00000000000E+00  0.00000000000E+00  0.83121167303E+02  0.83121167303E+02  0.00000000000E+00 0.  1.
         21   -1    0    0  501  503 -0.00000000000E+00 -0.00000000000E+00 -0.48462412988E+03  0.48462412988E+03  0.00000000000E+00 0. -1.
          6    1    1    2  501    0 -0.95476168831E+02  0.33812798714E+02 -0.21450219535E+03  0.29359699587E+03  0.17300000000E+03 0.  1.
         -6    1    1    2    0  502  0.95476168831E+02 -0.33812798714E+02 -0.18700076723E+03  0.27414830132E+03  0.17300000000E+03 0. -1.
</event>
<event>
 4    1  0.5876320E+000  0.1000000E+03  0.7546771E-02  0.1280296E+00
         21   -1    0    0  503  502  0.00000000000E+00  0.00000000000E+00  0.87606696081E+02  0.87606696081E+02  0.00000000000E+00 0.  1.
         21   -1    0    0  501  503 -0.00000000000E+00 -0.00000000000E+00 -0.53424085675E+03  0.53424085675E+03  0.00000000000E+00 0. -1.
          6    1    1    2  501    0  0.65447370265E+02  0.86978793853E+02 -0.32520023325E+03  0.38410006581E+03  0.17300000000E+03 0.  1.
         -6    1    1    2    0  502 -0.65447370265E+02 -0.86978793853E+02 -0.12143392743E+03  0.23774748702E+03  0.17300000000E+03 0. -1.
</event>
<event>
 4    1  0.5876320E+000  0.1000000E+03  0.7546771E-02  0.1280296E+00
         21   -1    0    0  503  502  0.00000000000E+00  0.00000000000E+00  0.10008791037E+04  0.10008791037E+04  0.00000000000E+00 0.  1.
         21   -1    0    0  501  503 -0.00000000000E+00 -0.00000000000E+00 -0.61468385546E+02  0.61468385546E+02  0.00000000000E+00 0. -1.
          6    1    1    2  501    0 -0.16657691425E+03  0.29213700312E+02  0.58684636605E+03  0.63475898260E+03  0.17300000000E+03 0.  1.
         -6    1    1    2    0  502  0.16657691425E+03 -0.29213700312E+02  0.35256435215E+03  0.42758850669E+03  0.17300000000E+03 0. -1.
</event>
<event>
 4    1  0.5876320E+000  0.1000000E+03  0.7546771E-02  0.1280296E+00
         21   -1    0    0  503  502  0.00000000000E+00  0.00000000000E+00  0.49800854188E+03  0.49800854188E+03  0.00000000000E+00 0.  1.
         21   -1    0    0  501  503 -0.00000000000E+00 -0.00000000000E+00 -0.14338417427E+03  0.14338417427E+03  0.00000000000E+00 0.  1.
          6    1    1    2  501    0 -0.10234234709E+03  0.45715244807E+02 -0.26756746087E+02  0.20786717653E+03  0.17300000000E+03 0.  1.
         -6    1    1    2    0  502  0.10234234709E+03 -0.45715244807E+02  0.38138111371E+03  0.43352553962E+03  0.17300000000E+03 0.  1.
</event>
<event>
 4    1  0.5876320E+000  0.1000000E+03  0.7546771E-02  0.1280296E+00
         21   -1    0    0  503  502  0.00000000000E+00  0.00000000000E+00  0.20869647395E+03  0.20869647395E+03  0.00000000000E+00 0.  1.
         21   -1    0    0  501  503 -0.00000000000E+00 -0.00000000000E+00 -0.32058499310E+03  0.32058499310E+03  0.00000000000E+00 0.  1.
          6    1    1    2  501    0 -0.65313495368E+02 -0.15214050045E+03 -0.15599794525E+03  0.28579178344E+03  0.17300000000E+03 0. -1.
         -6    1    1    2    0  502  0.65313495368E+02  0.15214050045E+03  0.44109426106E+02  0.24348968361E+03  0.17300000000E+03 0. -1.
</event>
<event>
 4    1  0.5876320E+000  0.1000000E+03  0.7546771E-02  0.1280296E+00
         21   -1    0    0  503  502  0.00000000000E+00  0.00000000000E+00  0.71833171315E+03  0.71833171315E+03  0.00000000000E+00 0.  1.
         21   -1    0    0  501  503 -0.00000000000E+00 -0.00000000000E+00 -0.15307465088E+03  0.15307465088E+03  0.00000000000E+00 0.  1.
          6    1    1    2  501    0  0.12243637492E+03  0.24492295034E+02 -0.50913387192E+02  0.21934382010E+03  0.17300000000E+03 0.  1.
         -6    1    1    2    0  502 -0.12243637492E+03 -0.24492295034E+02  0.61617044946E+03  0.65206254394E+03  0.17300000000E+03 0.  1.
</event>
<event>
 4    1  0.5876320E+000  0.1000000E+03  0.7546771E-02  0.1280296E+00
         21   -1    0    0  503  502  0.00000000000E+00  0.00000000000E+00  0.17273689670E+02  0.17273689670E+02  0.00000000000E+00 0.  1.
         21   -1    0    0  501  503 -0.00000000000E+00 -0.00000000000E+00 -0.28149561605E+04  0.28149561605E+04  0.00000000000E+00 0.  1.
          6    1    1    2  501    0  0.39444900546E+02 -0.75835039478E+02 -0.20841867899E+04  0.20931006733E+04  0.17300000000E+03 0.  1.
         -6    1    1    2    0  502 -0.39444900546E+02  0.75835039478E+02 -0.71349568099E+03  0.73912917693E+03  0.17300000000E+03 0.  1.
</event>
<event>
 4    1  0.5876320E+000  0.1000000E+03  0.7546771E-02  0.1280296E+00
         21   -1    0    0  501  502  0.00000000000E+00  0.00000000000E+00  0.20309513035E+03  0.20309513035E+03  0.00000000000E+00 0.  1.
         21   -1    0    0  502  503 -0.00000000000E+00 -0.00000000000E+00 -0.23232935839E+03  0.23232935839E+03  0.00000000000E+00 0.  1.
          6    1    1    2  501    0  0.74800386756E+02  0.85660610512E+02  0.51282043595E+02  0.21328780098E+03  0.17300000000E+03 0.  1.
         -6    1    1    2    0  503 -0.74800386756E+02 -0.85660610512E+02 -0.80516271631E+02  0.22213668776E+03  0.17300000000E+03 0.  1.
</event>
<event>
 4    1  0.5876320E+000  0.1000000E+03  0.7546771E-02  0.1280296E+00
         21   -1    0    0  501  502  0.00000000000E+00  0.00000000000E+00  0.57618475565E+03  0.57618475565E+03  0.00000000000E+00 0.  1.
         21   -1    0    0  502  503 -0.00000000000E+00 -0.00000000000E+00 -0.19238406500E+03  0.19238406500E+03  0.00000000000E+00 0.  1.
          6    1    1    2  501    0 -0.40885178787E+02  0.13710694623E+03  0.47568242055E+03  0.52599684198E+03  0.17300000000E+03 0.  1.
         -6    1    1    2    0  503  0.40885178787E+02 -0.13710694623E+03 -0.91881729899E+02  0.24257197867E+03  0.17300000000E+03 0.  1.
</event>
<event>
 4    1  0.5876320E+000  0.1000000E+03  0.7546771E-02  0.1280296E+00
         21   -1    0    0  501  502  0.00000000000E+00  0.00000000000E+00  0.71514351454E+02  0.71514351454E+02  0.00000000000E+00 0. -1.
         21   -1    0    0  502  503 -0.00000000000E+00 -0.00000000000E+00 -0.49156142421E+03  0.49156142421E+03  0.00000000000E+00 0.  1.
          6    1    1    2  501    0  0.33103317220E+01 -0.37860370844E+02 -0.30234788083E+03  0.35041062630E+03  0.17300000000E+03 0. -1.
         -6    1    1    2    0  503 -0.33103317220E+01  0.37860370844E+02 -0.11769919192E+03  0.21266514937E+03  0.17300000000E+03 0.  1.
</event>
<event>
 4    1  0.5876320E+000  0.1000000E+03  0.7546771E-02  0.1280296E+00
         21   -1    0    0  501  502  0.00000000000E+00  0.00000000000E+00  0.80043520897E+03  0.80043520897E+03  0.00000000000E+00 0. -1.
         21   -1    0    0  502  503 -0.00000000000E+00 -0.00000000000E+00 -0.21878175105E+03  0.21878175105E+03  0.00000000000E+00 0.  1.
          6    1    1    2  501    0  0.20207688414E+03  0.19487862202E+03  0.60457615638E+03  0.68866107287E+03  0.17300000000E+03 0. -1.
         -6    1    1    2    0  503 -0.20207688414E+03 -0.19487862202E+03 -0.22922698465E+02  0.33055588715E+03  0.17300000000E+03 0.  1.
</event>
<event>
 4    1  0.5876320E+000  0.1000000E+03  0.7546771E-02  0.1280296E+00
         21   -1    0    0  501  502  0.00000000000E+00  0.00000000000E+00  0.72396030268E+03  0.72396030268E+03  0.00000000000E+00 0. -1.
         21   -1    0    0  502  503 -0.00000000000E+00 -0.00000000000E+00 -0.77914337325E+02  0.77914337325E+02  0.00000000000E+00 0.  1.
          6    1    1    2  501    0  0.52981577545E+02 -0.58267838046E+02  0.56340298259E+03  0.59460416186E+03  0.17300000000E+03 0. -1.
         -6    1    1    2    0  503 -0.52981577545E+02  0.58267838046E+02  0.82642982764E+02  0.20727047814E+03  0.17300000000E+03 0.  1.
</event>
<event>
 4    1  0.5876320E+000  0.1000000E+03  0.7546771E-02  0.1280296E+00
         21   -1    0    0  503  502  0.00000000000E+00  0.00000000000E+00  0.66921323117E+02  0.66921323117E+02  0.00000000000E+00 0. -1.
         21   -1    0    0  501  503 -0.00000000000E+00 -0.00000000000E+00 -0.46872939688E+03  0.46872939688E+03  0.00000000000E+00 0.  1.
          6    1    1    2  501    0 -0.31547043580E+02  0.12260153924E+02 -0.17499890395E+03  0.24839312332E+03  0.17300000000E+03 0. -1.
         -6    1    1    2    0  502  0.31547043580E+02 -0.12260153924E+02 -0.22680916982E+03  0.28725759667E+03  0.17300000000E+03 0.  1.
</event>
<event>
 4    1  0.5876320E+000  0.1000000E+03  0.7546771E-02  0.1280296E+00
         21   -1    0    0  501  502  0.00000000000E+00  0.00000000000E+00  0.13272948792E+04  0.13272948792E+04  0.00000000000E+00 0.  1.
         21   -1    0    0  502  503 -0.00000000000E+00 -0.00000000000E+00 -0.84279699431E+02  0.84279699431E+02  0.00000000000E+00 0. -1.
          6    1    1    2  501    0 -0.17442560736E+03 -0.71107852280E+02  0.10763301887E+04  0.11062984653E+04  0.17300000000E+03 0.  1.
         -6    1    1    2    0  503  0.17442560736E+03  0.71107852280E+02  0.16668499113E+03  0.30527611342E+03  0.17300000000E+03 0.  1.
</event>
<event>
 4    1  0.5876320E+000  0.1000000E+03  0.7546771E-02  0.1280296E+00
         21   -1    0    0  501  502  0.00000000000E+00  0.00000000000E+00  0.30549107656E+03  0.30549107656E+03  0.00000000000E+00 0.  1.
         21   -1    0    0  502  503 -0.00000000000E+00 -0.00000000000E+00 -0.51818982720E+03  0.51818982720E+03  0.00000000000E+00 0. -1.
          6    1    1    2  501    0  0.67386002606E+02 -0.14617505423E+03  0.22499057762E+03  0.32627868432E+03  0.17300000000E+03 0.  1.
         -6    1    1    2    0  503 -0.67386002606E+02  0.14617505423E+03 -0.43768932826E+03  0.49740221944E+03  0.17300000000E+03 0.  1.
</event>
<event>
 4    1  0.5876320E+000  0.1000000E+03  0.7546771E-02  0.1280296E+00
         21   -1    0    0  503  502  0.00000000000E+00  0.00000000000E+00  0.50236652250E+03  0.50236652250E+03  0.00000000000E+00 0.  1.
         21   -1    0    0  501  503 -0.00000000000E+00 -0.00000000000E+00 -0.17873623836E+03  0.17873623836E+03  0.00000000000E+00 0.  1.
          6    1    1    2  501    0 -0.87474478723E+02 -0.16918195695E+03 -0.12730720873E+02  0.25761480982E+03  0.17300000000E+03 0.  1.
         -6    1    1    2    0  502  0.87474478723E+02  0.16918195695E+03  0.33636100501E+03  0.42348795104E+03  0.17300000000E+03 0.  1.
</event>
<event>
 4    1  0.5876320E+000  0.1000000E+03  0.7546771E-02  0.1280296E+00
         21   -1    0    0  501  502  0.00000000000E+00  0.00000000000E+00  0.13649965469E+03  0.13649965469E+03  0.00000000000E+00 0.  1.
         21   -1    0    0  502  503 -0.00000000000E+00 -0.00000000000E+00 -0.41335247899E+03  0.41335247899E+03  0.00000000000E+00 0. -1.
          6    1    1    2  501    0 -0.53557177179E+01 -0.11106869378E+03 -0.85176990019E+00  0.20565666525E+03  0.17300000000E+03 0. -1.
         -6    1    1    2    0  503  0.53557177179E+01  0.11106869378E+03 -0.27600105440E+03  0.34419546842E+03  0.17300000000E+03 0. -1.
</event>
<event>
 4    1  0.5876320E+000  0.1000000E+03  0.7546771E-02  0.1280296E+00
         21   -1    0    0  501  502  0.00000000000E+00  0.00000000000E+00  0.79119950127E+03  0.79119950127E+03  0.00000000000E+00 0.  1.
         21   -1    0    0  502  503 -0.00000000000E+00 -0.00000000000E+00 -0.48466512900E+02  0.48466512900E+02  0.00000000000E+00 0. -1.
          6    1    1    2  501    0 -0.64971690293E+02  0.53465248260E+02  0.44978395102E+03  0.48919776769E+03  0.17300000000E+03 0. -1.
         -6    1    1    2    0  503  0.64971690293E+02 -0.53465248260E+02  0.29294903735E+03  0.35046824648E+03  0.17300000000E+03 0. -1.
</event>
<event>
 4    1  0.5876320E+000  0.1000000E+03  0.7546771E-02  0.1280296E+00
         21   -1    0    0  501  502  0.00000000000E+00  0.00000000000E+00  0.11693115663E+03  0.11693115663E+03  0.00000000000E+00 0.  1.
         21   -1    0    0  502  503 -0.00000000000E+00 -0.00000000000E+00 -0.50873015918E+03  0.50873015918E+03  0.00000000000E+00 0. -1.
          6    1    1    2  501    0 -0.86315635684E+02 -0.57783204094E+02 -0.20183703419E+02  0.20279464865E+03  0.17300000000E+03 0. -1.
         -6    1    1    2    0  503  0.86315635684E+02  0.57783204094E+02 -0.37161529913E+03  0.42286666715E+03  0.17300000000E+03 0. -1.
</event>
<event>
 4    1  0.5876320E+000  0.1000000E+03  0.7546771E-02  0.1280296E+00
         21   -1    0    0  501  502  0.00000000000E+00  0.00000000000E+00  0.62488800129E+03  0.62488800129E+03  0.00000000000E+00 0. -1.
         21   -1    0    0  502  503 -0.00000000000E+00 -0.00000000000E+00 -0.10429321163E+03  0.10429321163E+03  0.00000000000E+00 0. -1.
          6    1    1    2  501    0  0.72618709018E+02 -0.38126842737E+02  0.19131202283E+02  0.19241137164E+03  0.17300000000E+03 0. -1.
         -6    1    1    2    0  503 -0.72618709018E+02  0.38126842737E+02  0.50146358738E+03  0.53676984127E+03  0.17300000000E+03 0. -1.
</event>
<event>
 4    1  0.5876320E+000  0.1000000E+03  0.7546771E-02  0.1280296E+00
         21   -1    0    0  501  502  0.00000000000E+00  0.00000000000E+00  0.45194486839E+03  0.45194486839E+03  0.00000000000E+00 0.  1.
         21   -1    0    0  502  503 -0.00000000000E+00 -0.00000000000E+00 -0.17031813892E+03  0.17031813892E+03  0.00000000000E+00 0.  1.
          6    1    1    2  501    0  0.79879324528E+02 -0.50556615963E+02  0.35973216031E+03  0.41021080564E+03  0.17300000000E+03 0.  1.
         -6    1    1    2    0  503 -0.79879324528E+02  0.50556615963E+02 -0.78105430844E+02  0.21205220167E+03  0.17300000000E+03 0.  1.
</event>
<event>
 4    1  0.5876320E+000  0.1000000E+03  0.7546771E-02  0.1280296E+00
         21   -1    0    0  501  502  0.00000000000E+00  0.00000000000E+00  0.61975941641E+03  0.61975941641E+03  0.00000000000E+00 0.  1.
         21   -1    0    0  502  503 -0.00000000000E+00 -0.00000000000E+00 -0.92980767443E+02  0.92980767443E+02  0.00000000000E+00 0. -1.
          6    1    1    2  501    0 -0.33788796706E+02  0.14701562349E+03  0.36774580778E+03  0.43349885291E+03  0.17300000000E+03 0.  1.
         -6    1    1    2    0  503  0.33788796706E+02 -0.14701562349E+03  0.15903284119E+03  0.27924133095E+03  0.17300000000E+03 0. -1.
</event>
<event>
 4    1  0.5876320E+000  0.1000000E+03  0.7546771E-02  0.1280296E+00
         21   -1    0    0  501  502  0.00000000000E+00  0.00000000000E+00  0.19325709109E+04  0.19325709109E+04  0.00000000000E+00 0.  1.
         21   -1    0    0  502  503 -0.00000000000E+00 -0.00000000000E+00 -0.42345276919E+02  0.42345276919E+02  0.00000000000E+00 0. -1.
          6    1    1    2  501    0  0.28681730413E+02 -0.18548409758E+03  0.13909095003E+04  0.14141376277E+04  0.17300000000E+03 0.  1.
         -6    1    1    2    0  503 -0.28681730413E+02  0.18548409758E+03  0.49931613369E+03  0.56077856010E+03  0.17300000000E+03 0. -1.
</event>
<event>
 4    1  0.5876320E+000  0.1000000E+03  0.7546771E-02  0.1280296E+00
         21   -1    0    0  501  502  0.00000000000E+00  0.00000000000E+00  0.26034974120E+03  0.26034974120E+03  0.00000000000E+00 0.  1.
         21   -1    0    0  502  503 -0.00000000000E+00 -0.00000000000E+00 -0.33138481898E+03  0.33138481898E+03  0.00000000000E+00 0. -1.
          6    1    1    2  501    0  0.15046310819E+03  0.15919094517E+03  0.56614829010E+02  0.28480720288E+03  0.17300000000E+03 0.  1.
         -6    1    1    2    0  503 -0.15046310819E+03 -0.15919094517E+03 -0.12764990680E+03  0.30692735730E+03  0.17300000000E+03 0. -1.
</event>
<event>
 4    1  0.5876320E+000  0.1000000E+03  0.7546771E-02  0.1280296E+00
         21   -1    0    0  501  502  0.00000000000E+00  0.00000000000E+00  0.56075810159E+02  0.56075810159E+02  0.00000000000E+00 0. -1.
         21   -1    0    0  502  503 -0.00000000000E+00 -0.00000000000E+00 -0.19033159533E+04  0.19033159533E+04  0.00000000000E+00 0. -1.
          6    1    1    2  501    0  0.72110669865E+02  0.46067940081E+02 -0.13317052819E+03  0.23449007099E+03  0.17300000000E+03 0. -1.
         -6    1    1    2    0  503 -0.72110669865E+02 -0.46067940081E+02 -0.17140696149E+04  0.17249016924E+04  0.17300000000E+03 0. -1.
</event>
<event>
 4    1  0.5876320E+000  0.1000000E+03  0.7546771E-02  0.1280296E+00
         21   -1    0    0  503  502  0.00000000000E+00  0.00000000000E+00  0.22291991680E+04  0.22291991680E+04  0.00000000000E+00 0.  1.
         21   -1    0    0  501  503 -0.00000000000E+00 -0.00000000000E+00 -0.19145991266E+02  0.19145991266E+02  0.00000000000E+00 0. -1.
          6    1    1    2  501    0 -0.55976889710E+02 -0.44735254730E+02  0.15799235781E+04  0.15909815109E+04  0.17300000000E+03 0.  1.
         -6    1    1    2    0  502  0.55976889710E+02  0.44735254730E+02  0.63012959864E+03  0.65736364844E+03  0.17300000000E+03 0. -1.
</event>
<event>
 4    1  0.5876320E+000  0.1000000E+03  0.7546771E-02  0.1280296E+00
         21   -1    0    0  503  502  0.00000000000E+00  0.00000000000E+00  0.44951411182E+03  0.44951411182E+03  0.00000000000E+00 0.  1.
         21   -1    0    0  501  503 -0.00000000000E+00 -0.00000000000E+00 -0.49805694465E+03  0.49805694465E+03  0.00000000000E+00 0. -1.
          6    1    1    2  501    0 -0.15721219419E+03  0.11306212007E+03 -0.42033654770E+03  0.49407542979E+03  0.17300000000E+03 0.  1.
         -6    1    1    2    0  502  0.15721219419E+03 -0.11306212007E+03  0.37179371487E+03  0.45349562668E+03  0.17300000000E+03 0. -1.
</event>
<event>
 4    1  0.5876320E+000  0.1000000E+03  0.7546771E-02  0.1280296E+00
         21   -1    0    0  503  502  0.00000000000E+00  0.00000000000E+00  0.24089181599E+04  0.24089181599E+04  0.00000000000E+00 0.  1.
         21   -1    0    0  501  503 -0.00000000000E+00 -0.00000000000E+00 -0.23825509528E+02  0.23825509528E+02  0.00000000000E+00 0. -1.
          6    1    1    2  501    0  0.90628087805E+02  0.63407300923E+02  0.56593951083E+03  0.60203859181E+03  0.17300000000E+03 0.  1.
         -6    1    1    2    0  502 -0.90628087805E+02 -0.63407300923E+02  0.18191531395E+04  0.18307050776E+04  0.17300000000E+03 0. -1.
</event>
<event>
 4    1  0.5876320E+000  0.1000000E+03  0.7546771E-02  0.1280296E+00
         21   -1    0    0  503  502  0.00000000000E+00  0.00000000000E+00  0.53564859324E+03  0.53564859324E+03  0.00000000000E+00 0.  1.
         21   -1    0    0  501  503 -0.00000000000E+00 -0.00000000000E+00 -0.10079339032E+03  0.10079339032E+03  0.00000000000E+00 0. -1.
          6    1    1    2  501    0  0.61045931602E+02  0.88541806637E+02  0.64342244012E+02  0.21362392575E+03  0.17300000000E+03 0.  1.
         -6    1    1    2    0  502 -0.61045931602E+02 -0.88541806637E+02  0.37051295892E+03  0.42281805781E+03  0.17300000000E+03 0. -1.
</event>
<event>
 4    1  0.5876320E+000  0.1000000E+03  0.7546771E-02  0.1280296E+00
         21   -1    0    0  501  502  0.00000000000E+00  0.00000000000E+00  0.18019061870E+03  0.18019061870E+03  0.00000000000E+00 0.  1.
         21   -1    0    0  502  503 -0.00000000000E+00 -0.00000000000E+00 -0.26308950125E+03  0.26308950125E+03  0.00000000000E+00 0.  1.
          6    1    1    2  501    0 -0.22708596779E+02 -0.41025254544E+02  0.84376702445E+02  0.19810900987E+03  0.17300000000E+03 0.  1.
         -6    1    1    2    0  503  0.22708596779E+02  0.41025254544E+02 -0.16727558499E+03  0.24517111007E+03  0.17300000000E+03 0.  1.
</event>
<event>
 4    1  0.5876320E+000  0.1000000E+03  0.7546771E-02  0.1280296E+00
         21   -1    0    0  501  502  0.00000000000E+00  0.00000000000E+00  0.17209652503E+03  0.17209652503E+03  0.00000000000E+00 0.  1.
         21   -1    0    0  502  503 -0.00000000000E+00 -0.00000000000E+00 -0.55491521525E+03  0.55491521525E+03  0.00000000000E+00 0.  1.
          6    1    1    2  501    0 -0.15898026187E+01 -0.21237995427E+03 -0.23146469522E+02  0.27490458617E+03  0.17300000000E+03 0.  1.
         -6    1    1    2    0  503  0.15898026187E+01  0.21237995427E+03 -0.35967222070E+03  0.45210715410E+03  0.17300000000E+03 0.  1.
</event>
<event>
 4    1  0.5876320E+000  0.1000000E+03  0.7546771E-02  0.1280296E+00
         21   -1    0    0  501  502  0.00000000000E+00  0.00000000000E+00  0.41887182485E+03  0.41887182485E+03  0.00000000000E+00 0.  1.
         21   -1    0    0  502  503 -0.00000000000E+00 -0.00000000000E+00 -0.15563569948E+03  0.15563569948E+03  0.00000000000E+00 0.  1.
          6    1    1    2  501    0  0.12854473354E+03 -0.65558376228E+02  0.26681460006E+03  0.34920005730E+03  0.17300000000E+03 0.  1.
         -6    1    1    2    0  503 -0.12854473354E+03  0.65558376228E+02 -0.35784746850E+01  0.22530746702E+03  0.17300000000E+03 0.  1.
</event>
<event>
 4    1  0.5876320E+000  0.1000000E+03  0.7546771E-02  0.1280296E+00
         21   -1    0    0  501  502  0.00000000000E+00  0.00000000000E+00  0.19863637332E+03  0.19863637332E+03  0.00000000000E+00 0.  1.
         21   -1    0    0  502  503 -0.00000000000E+00 -0.00000000000E+00 -0.18654918482E+03  0.18654918482E+03  0.00000000000E+00 0.  1.
          6    1    1    2  501    0 -0.69507696332E+01 -0.16828478943E+02  0.88515651913E+02  0.19518076631E+03  0.17300000000E+03 0.  1.
         -6    1    1    2    0  503  0.69507696332E+01  0.16828478943E+02 -0.76428463406E+02  0.19000479184E+03  0.17300000000E+03 0.  1.
</event>
<event>
 4    1  0.5876320E+000  0.1000000E+03  0.7546771E-02  0.1280296E+00
         21   -1    0    0  503  502  0.00000000000E+00  0.00000000000E+00  0.28910385664E+03  0.28910385664E+03  0.00000000000E+00 0. -1.
         21   -1    0    0  501  503 -0.00000000000E+00 -0.00000000000E+00 -0.52875618986E+03  0.52875618986E+03  0.00000000000E+00 0.  1.
          6    1    1    2  501    0 -0.77224830753E+02 -0.11132910756E+02 -0.47735125317E+03  0.51369332786E+03  0.17300000000E+03 0. -1.
         -6    1    1    2    0  502  0.77224830753E+02  0.11132910756E+02  0.23769891995E+03  0.30416671864E+03  0.17300000000E+03 0.  1.
</event>
<event>
 4    1  0.5876320E+000  0.1000000E+03  0.7546771E-02  0.1280296E+00
         21   -1    0    0  503  502  0.00000000000E+00  0.00000000000E+00  0.10340637182E+04  0.10340637182E+04  0.00000000000E+00 0. -1.
         21   -1    0    0  501  503 -0.00000000000E+00 -0.00000000000E+00 -0.13838587046E+03  0.13838587046E+03  0.00000000000E+00 0.  1.
          6    1    1    2  501    0  0.99876660676E+02 -0.19495465427E+03  0.52172713684E+02  0.28396066034E+03  0.17300000000E+03 0. -1.
         -6    1    1    2    0  502 -0.99876660676E+02  0.19495465427E+03  0.84350513402E+03  0.88848892829E+03  0.17300000000E+03 0.  1.
</event>
<event>
 4    1  0.5876320E+000  0.1000000E+03  0.7546771E-02  0.1280296E+00
         21   -1    0    0  503  502  0.00000000000E+00  0.00000000000E+00  0.89450623651E+02  0.89450623651E+02  0.00000000000E+00 0. -1.
         21   -1    0    0  501  503 -0.00000000000E+00 -0.00000000000E+00 -0.19702616047E+04  0.19702616047E+04  0.00000000000E+00 0.  1.
          6    1    1    2  501    0  0.14578005011E+03  0.27733481271E+03 -0.14786773884E+04  0.15213751150E+04  0.17300000000E+03 0. -1.
         -6    1    1    2    0  502 -0.14578005011E+03 -0.27733481271E+03 -0.40213359263E+03  0.53833711340E+03  0.17300000000E+03 0.  1.
</event>
<event>
 4    1  0.5876320E+000  0.1000000E+03  0.7546771E-02  0.1280296E+00
         21   -1    0    0  501  502  0.00000000000E+00  0.00000000000E+00  0.22024282167E+04  0.22024282167E+04  0.00000000000E+00 0.  1.
         21   -1    0    0  502  503 -0.00000000000E+00 -0.00000000000E+00 -0.19782737715E+02  0.19782737715E+02  0.00000000000E+00 0.  1.
          6    1    1    2  501    0  0.35399914729E+02  0.10788169980E+03  0.12370467073E+04  0.12542348948E+04  0.17300000000E+03 0.  1.
         -6    1    1    2    0  503 -0.35399914729E+02 -0.10788169980E+03  0.94559877166E+03  0.96797605966E+03  0.17300000000E+03 0.  1.
</event>
<event>
 4    1  0.5876320E+000  0.1000000E+03  0.7546771E-02  0.1280296E+00
         21   -1    0    0  503  502  0.00000000000E+00  0.00000000000E+00  0.29219613362E+03  0.29219613362E+03  0.00000000000E+00 0. -1.
         21   -1    0    0  501  503 -0.00000000000E+00 -0.00000000000E+00 -0.19618810662E+03  0.19618810662E+03  0.00000000000E+00 0. -1.
          6    1    1    2  501    0 -0.41550155726E+02 -0.23140406939E+02 -0.11368976386E+03  0.21240587629E+03  0.17300000000E+03 0. -1.
         -6    1    1    2    0  502  0.41550155726E+02  0.23140406939E+02  0.20969779086E+03  0.27597836395E+03  0.17300000000E+03 0. -1.
</event>
<event>
 4    1  0.5876320E+000  0.1000000E+03  0.7546771E-02  0.1280296E+00
         21   -1    0    0  503  502  0.00000000000E+00  0.00000000000E+00  0.89012249408E+02  0.89012249408E+02  0.00000000000E+00 0. -1.
         21   -1    0    0  501  503 -0.00000000000E+00 -0.00000000000E+00 -0.61691973812E+03  0.61691973812E+03  0.00000000000E+00 0. -1.
          6    1    1    2  501    0  0.65657450675E+02  0.28224376913E+02 -0.47631140959E+03  0.51177052982E+03  0.17300000000E+03 0. -1.
         -6    1    1    2    0  502 -0.65657450675E+02 -0.28224376913E+02 -0.51596079123E+02  0.19416145772E+03  0.17300000000E+03 0. -1.
</event>
<event>
 4    1  0.5876320E+000  0.1000000E+03  0.7546771E-02  0.1280296E+00
         21   -1    0    0  503  502  0.00000000000E+00  0.00000000000E+00  0.13239191012E+03  0.13239191012E+03  0.00000000000E+00 0.  1.
         21   -1    0    0  501  503 -0.00000000000E+00 -0.00000000000E+00 -0.38501270201E+03  0.38501270201E+03  0.00000000000E+00 0. -1.
          6    1    1    2  501    0  0.15893927824E+02 -0.13158029426E+03 -0.58737835048E+02  0.22571026571E+03  0.17300000000E+03 0. -1.
         -6    1    1    2    0  502 -0.15893927824E+02  0.13158029426E+03 -0.19388295685E+03  0.29169434642E+03  0.17300000000E+03 0.  1.
</event>
<event>
 4    1  0.5876320E+000  0.1000000E+03  0.7546771E-02  0.1280296E+00
         21   -1    0    0  503  502  0.00000000000E+00  0.00000000000E+00  0.44442738817E+02  0.44442738817E+02  0.00000000000E+00 0.  1.
         21   -1    0    0  501  503 -0.00000000000E+00 -0.00000000000E+00 -0.21046933775E+04  0.21046933775E+04  0.00000000000E+00 0. -1.
          6    1    1    2  501    0 -0.15331867219E+03 -0.18729202632E+02 -0.17306416517E+04  0.17461119451E+04  0.17300000000E+03 0. -1.
         -6    1    1    2    0  502  0.15331867219E+03  0.18729202632E+02 -0.32960898699E+03  0.40302417121E+03  0.17300000000E+03 0.  1.
</event>
<event>
 4    1  0.5876320E+000  0.1000000E+03  0.7546771E-02  0.1280296E+00
         21   -1    0    0  501  502  0.00000000000E+00  0.00000000000E+00  0.89924353616E+02  0.89924353616E+02  0.00000000000E+00 0. -1.
         21   -1    0    0  502  503 -0.00000000000E+00 -0.00000000000E+00 -0.41738655327E+03  0.41738655327E+03  0.00000000000E+00 0. -1.
          6    1    1    2  501    0 -0.66794724719E+02 -0.20486108426E+02 -0.95409166831E+02  0.20955458717E+03  0.17300000000E+03 0. -1.
         -6    1    1    2    0  503  0.66794724719E+02  0.20486108426E+02 -0.23205303282E+03  0.29775631972E+03  0.17300000000E+03 0. -1.
</event>
<event>
 4    1  0.5876320E+000  0.1000000E+03  0.7546771E-02  0.1280296E+00
         21   -1    0    0  503  502  0.00000000000E+00  0.00000000000E+00  0.21438416835E+04  0.21438416835E+04  0.00000000000E+00 0.  1.
         21   -1    0    0  501  503 -0.00000000000E+00 -0.00000000000E+00 -0.15980463711E+02  0.15980463711E+02  0.00000000000E+00 0.  1.
          6    1    1    2  501    0  0.10323972985E+02  0.60700322523E+02  0.92841764031E+03  0.94640341737E+03  0.17300000000E+03 0.  1.
         -6    1    1    2    0  502 -0.10323972985E+02 -0.60700322523E+02  0.11994435794E+04  0.12134187298E+04  0.17300000000E+03 0.  1.
</event>
<event>
 4    1  0.5876320E+000  0.1000000E+03  0.7546771E-02  0.1280296E+00
         21   -1    0    0  503  502  0.00000000000E+00  0.00000000000E+00  0.88942305783E+03  0.88942305783E+03  0.00000000000E+00 0.  1.
         21   -1    0    0  501  503 -0.00000000000E+00 -0.00000000000E+00 -0.43035125696E+02  0.43035125696E+02  0.00000000000E+00 0.  1.
          6    1    1    2  501    0 -0.69087034423E+02  0.47684805580E+02  0.33725281093E+03  0.38822070719E+03  0.17300000000E+03 0.  1.
         -6    1    1    2    0  502  0.69087034423E+02 -0.47684805580E+02  0.50913512120E+03  0.54423747633E+03  0.17300000000E+03 0.  1.
</event>
<event>
 4    1  0.5876320E+000  0.1000000E+03  0.7546771E-02  0.1280296E+00
         21   -1    0    0  503  502  0.00000000000E+00  0.00000000000E+00  0.45556753712E+02  0.45556753712E+02  0.00000000000E+00 0.  1.
         21   -1    0    0  501  503 -0.00000000000E+00 -0.00000000000E+00 -0.82406708279E+03  0.82406708279E+03  0.00000000000E+00 0.  1.
          6    1    1    2  501    0 -0.65283887914E+02 -0.35074019334E+02 -0.49259745758E+03  0.52732668059E+03  0.17300000000E+03 0.  1.
         -6    1    1    2    0  502  0.65283887914E+02  0.35074019334E+02 -0.28591287150E+03  0.34229715591E+03  0.17300000000E+03 0.  1.
</event>
<event>
 4    1  0.5876320E+000  0.1000000E+03  0.7546771E-02  0.1280296E+00
         21   -1    0    0  503  502  0.00000000000E+00  0.00000000000E+00  0.14511443304E+04  0.14511443304E+04  0.00000000000E+00 0.  1.
         21   -1    0    0  501  503 -0.00000000000E+00 -0.00000000000E+00 -0.39237483948E+02  0.39237483948E+02  0.00000000000E+00 0.  1.
          6    1    1    2  501    0  0.77077949187E+02 -0.25628793701E+02  0.11521320648E+04  0.11678763376E+04  0.17300000000E+03 0. -1.
         -6    1    1    2    0  502 -0.77077949187E+02  0.25628793701E+02  0.25977478168E+03  0.32250547672E+03  0.17300000000E+03 0. -1.
</event>
<event>
 4    1  0.5876320E+000  0.1000000E+03  0.7546771E-02  0.1280296E+00
         21   -1    0    0  501  502  0.00000000000E+00  0.00000000000E+00  0.12136416453E+03  0.12136416453E+03  0.00000000000E+00 0.  1.
         21   -1    0    0  502  503 -0.00000000000E+00 -0.00000000000E+00 -0.48564690172E+03  0.48564690172E+03  0.00000000000E+00 0.  1.
          6    1    1    2  501    0 -0.36027568862E+02  0.15971580403E+03 -0.12345090737E+03  0.26828389870E+03  0.17300000000E+03 0.  1.
         -6    1    1    2    0  503  0.36027568862E+02 -0.15971580403E+03 -0.24083182983E+03  0.33872716755E+03  0.17300000000E+03 0.  1.
</event>
<event>
 4    1  0.5876320E+000  0.1000000E+03  0.7546771E-02  0.1280296E+00
         21   -1    0    0  501  502  0.00000000000E+00  0.00000000000E+00  0.42055158326E+03  0.42055158326E+03  0.00000000000E+00 0.  1.
         21   -1    0    0  502  503 -0.00000000000E+00 -0.00000000000E+00 -0.11978785574E+03  0.11978785574E+03  0.00000000000E+00 0.  1.
          6    1    1    2  501    0  0.89603255676E+02  0.83311048875E+02  0.23947646690E+03  0.31976155568E+03  0.17300000000E+03 0.  1.
         -6    1    1    2    0  503 -0.89603255676E+02 -0.83311048875E+02  0.61287260621E+02  0.22057788331E+03  0.17300000000E+03 0.  1.
</event>
<event>
 4    1  0.5876320E+000  0.1000000E+03  0.7546771E-02  0.1280296E+00
         21   -1    0    0  501  502  0.00000000000E+00  0.00000000000E+00  0.91021054380E+02  0.91021054380E+02  0.00000000000E+00 0. -1.
         21   -1    0    0  502  503 -0.00000000000E+00 -0.00000000000E+00 -0.61781508769E+03  0.61781508769E+03  0.00000000000E+00 0. -1.
          6    1    1    2  501    0 -0.92721158699E+02 -0.14289515720E-01 -0.64512934144E+02  0.20661106492E+03  0.17300000000E+03 0.  1.
         -6    1    1    2    0  503  0.92721158699E+02  0.14289515720E-01 -0.46228109917E+03  0.50222507715E+03  0.17300000000E+03 0.  1.
</event>
<event>
 4    1  0.5876320E+000  0.1000000E+03  0.7546771E-02  0.1280296E+00
         21   -1    0    0  501  502  0.00000000000E+00  0.00000000000E+00  0.15082142186E+03  0.15082142186E+03  0.00000000000E+00 0. -1.
         21   -1    0    0  502  503 -0.00000000000E+00 -0.00000000000E+00 -0.27655199725E+03  0.27655199725E+03  0.00000000000E+00 0. -1.
          6    1    1    2  501    0 -0.51895216923E+02  0.95270513861E+02 -0.66395083715E+02  0.21472515338E+03  0.17300000000E+03 0.  1.
         -6    1    1    2    0  503  0.51895216923E+02 -0.95270513861E+02 -0.59335491676E+02  0.21264826574E+03  0.17300000000E+03 0.  1.
</event>
<event>
 4    1  0.5876320E+000  0.1000000E+03  0.7546771E-02  0.1280296E+00
         21   -1    0    0  501  502  0.00000000000E+00  0.00000000000E+00  0.47296761521E+03  0.47296761521E+03  0.00000000000E+00 0. -1.
         21   -1    0    0  502  503 -0.00000000000E+00 -0.00000000000E+00 -0.13718621829E+03  0.13718621829E+03  0.00000000000E+00 0.  1.
          6    1    1    2  501    0 -0.14987103973E+03  0.11064605765E+03  0.14888728291E+03  0.29461890916E+03  0.17300000000E+03 0. -1.
         -6    1    1    2    0  503  0.14987103973E+03 -0.11064605765E+03  0.18689411402E+03  0.31553492434E+03  0.17300000000E+03 0.  1.
</event>
<event>
 4    1  0.5876320E+000  0.1000000E+03  0.7546771E-02  0.1280296E+00
         21   -1    0    0  501  502  0.00000000000E+00  0.00000000000E+00  0.73260187699E+02  0.73260187699E+02  0.00000000000E+00 0. -1.
         21   -1    0    0  502  503 -0.00000000000E+00 -0.00000000000E+00 -0.59641829762E+03  0.59641829762E+03  0.00000000000E+00 0.  1.
          6    1    1    2  501    0  0.40631809639E+02  0.10983368668E+03 -0.25021439390E+03  0.32596107989E+03  0.17300000000E+03 0. -1.
         -6    1    1    2    0  503 -0.40631809639E+02 -0.10983368668E+03 -0.27294371602E+03  0.34371740543E+03  0.17300000000E+03 0.  1.
</event>
<event>
 4    1  0.5876320E+000  0.1000000E+03  0.7546771E-02  0.1280296E+00
         21   -1    0    0  503  502  0.00000000000E+00  0.00000000000E+00  0.33710346103E+03  0.33710346103E+03  0.00000000000E+00 0. -1.
         21   -1    0    0  501  503 -0.00000000000E+00 -0.00000000000E+00 -0.44077176246E+03  0.44077176246E+03  0.00000000000E+00 0. -1.
          6    1    1    2  501    0  0.12146951404E+03 -0.78811828141E+02 -0.36720221283E+03  0.43096706626E+03  0.17300000000E+03 0. -1.
         -6    1    1    2    0  502 -0.12146951404E+03  0.78811828141E+02  0.26353391140E+03  0.34690815723E+03  0.17300000000E+03 0. -1.
</event>
<event>
 4    1  0.5876320E+000  0.1000000E+03  0.7546771E-02  0.1280296E+00
         21   -1    0    0  503  502  0.00000000000E+00  0.00000000000E+00  0.74093691912E+02  0.74093691912E+02  0.00000000000E+00 0. -1.
         21   -1    0    0  501  503 -0.00000000000E+00 -0.00000000000E+00 -0.13921214874E+04  0.13921214874E+04  0.00000000000E+00 0. -1.
          6    1    1    2  501    0  0.26092964351E+03 -0.20193280288E+00 -0.82257149863E+03  0.88013475673E+03  0.17300000000E+03 0. -1.
         -6    1    1    2    0  502 -0.26092964351E+03  0.20193280288E+00 -0.49545629682E+03  0.58608042255E+03  0.17300000000E+03 0. -1.
</event>
<event>
 4    1  0.5876320E+000  0.1000000E+03  0.7546771E-02  0.1280296E+00
         21   -1    0    0  503  502  0.00000000000E+00  0.00000000000E+00  0.95744888630E+02  0.95744888630E+02  0.00000000000E+00 0. -1.
         21   -1    0    0  501  503 -0.00000000000E+00 -0.00000000000E+00 -0.10105269410E+04  0.10105269410E+04  0.00000000000E+00 0. -1.
          6    1    1    2  501    0 -0.15923175592E+03  0.88543214683E+02 -0.78349640960E+03  0.82279418861E+03  0.17300000000E+03 0.  1.
         -6    1    1    2    0  502  0.15923175592E+03 -0.88543214683E+02 -0.13128564278E+03  0.28347764102E+03  0.17300000000E+03 0.  1.
</event>
<event>
 4    1  0.5876320E+000  0.1000000E+03  0.7546771E-02  0.1280296E+00
         21   -1    0    0  503  502  0.00000000000E+00  0.00000000000E+00  0.59364233929E+03  0.59364233929E+03  0.00000000000E+00 0. -1.
         21   -1    0    0  501  503 -0.00000000000E+00 -0.00000000000E+00 -0.19424632747E+03  0.19424632747E+03  0.00000000000E+00 0. -1.
          6    1    1    2  501    0 -0.23669057947E+02  0.14057775806E+03 -0.96210941989E+02  0.24394236148E+03  0.17300000000E+03 0.  1.
         -6    1    1    2    0  502  0.23669057947E+02 -0.14057775806E+03  0.49560695381E+03  0.54394630528E+03  0.17300000000E+03 0.  1.
</event>
<event>
 4    1  0.5876320E+000  0.1000000E+03  0.7546771E-02  0.1280296E+00
         21   -1    0    0  503  502  0.00000000000E+00  0.00000000000E+00  0.22191910208E+03  0.22191910208E+03  0.00000000000E+00 0. -1.
         21   -1    0    0  501  503 -0.00000000000E+00 -0.00000000000E+00 -0.29124187807E+03  0.29124187807E+03  0.00000000000E+00 0.  1.
          6    1    1    2  501    0 -0.18232948753E+03  0.27317022515E+02 -0.61608105116E+02  0.26022071470E+03  0.17300000000E+03 0.  1.
         -6    1    1    2    0  502  0.18232948753E+03 -0.27317022515E+02 -0.77146708740E+01  0.25294026545E+03  0.17300000000E+03 0. -1.
</event>
<event>
 4    1  0.5876320E+000  0.1000000E+03  0.7546771E-02  0.1280296E+00
         21   -1    0    0  503  502  0.00000000000E+00  0.00000000000E+00  0.46983482393E+03  0.46983482393E+03  0.00000000000E+00 0. -1.
         21   -1    0    0  501  503 -0.00000000000E+00 -0.00000000000E+00 -0.11614393621E+03  0.11614393621E+03  0.00000000000E+00 0.  1.
          6    1    1    2  501    0  0.17268400993E-01  0.98879670430E+00 -0.20028404911E+02  0.17415830448E+03  0.17300000000E+03 0.  1.
         -6    1    1    2    0  502 -0.17268400993E-01 -0.98879670430E+00  0.37371929263E+03  0.41182045566E+03  0.17300000000E+03 0. -1.
</event>
<event>
 4    1  0.5876320E+000  0.1000000E+03  0.7546771E-02  0.1280296E+00
         21   -1    0    0  501  502  0.00000000000E+00  0.00000000000E+00  0.60069116985E+03  0.60069116985E+03  0.00000000000E+00 0.  1.
         21   -1    0    0  502  503 -0.00000000000E+00 -0.00000000000E+00 -0.18337550270E+03  0.18337550270E+03  0.00000000000E+00 0.  1.
          6    1    1    2  501    0  0.21001838112E+02 -0.40664098540E+02  0.53882294442E+03  0.56776210824E+03  0.17300000000E+03 0.  1.
         -6    1    1    2    0  503 -0.21001838112E+02  0.40664098540E+02 -0.12150727727E+03  0.21630456432E+03  0.17300000000E+03 0.  1.
</event>
<event>
 4    1  0.5876320E+000  0.1000000E+03  0.7546771E-02  0.1280296E+00
         21   -1    0    0  501  502  0.00000000000E+00  0.00000000000E+00  0.25487862924E+03  0.25487862924E+03  0.00000000000E+00 0.  1.
         21   -1    0    0  502  503 -0.00000000000E+00 -0.00000000000E+00 -0.17094706156E+03  0.17094706156E+03  0.00000000000E+00 0.  1.
          6    1    1    2  501    0 -0.92083516509E+02  0.25797897137E+02  0.11036614559E+03  0.22639476938E+03  0.17300000000E+03 0.  1.
         -6    1    1    2    0  503  0.92083516509E+02 -0.25797897137E+02 -0.26434577908E+02  0.19943092142E+03  0.17300000000E+03 0.  1.
</event>
<event>
 4    1  0.5876320E+000  0.1000000E+03  0.7546771E-02  0.1280296E+00
         21   -1    0    0  501  502  0.00000000000E+00  0.00000000000E+00  0.61722586892E+03  0.61722586892E+03  0.00000000000E+00 0.  1.
         21   -1    0    0  502  503 -0.00000000000E+00 -0.00000000000E+00 -0.23515696911E+03  0.23515696911E+03  0.00000000000E+00 0.  1.
          6    1    1    2  501    0 -0.14766902561E+03  0.11743594001E+03  0.50668826797E+03  0.56767890751E+03  0.17300000000E+03 0.  1.
         -6    1    1    2    0  503  0.14766902561E+03 -0.11743594001E+03 -0.12461936816E+03  0.28470393052E+03  0.17300000000E+03 0.  1.
</event>
<event>
 4    1  0.5876320E+000  0.1000000E+03  0.7546771E-02  0.1280296E+00
         21   -1    0    0  501  502  0.00000000000E+00  0.00000000000E+00  0.16605717304E+03  0.16605717304E+03  0.00000000000E+00 0.  1.
         21   -1    0    0  502  503 -0.00000000000E+00 -0.00000000000E+00 -0.26504450248E+03  0.26504450248E+03  0.00000000000E+00 0.  1.
          6    1    1    2  501    0 -0.62938424144E+02  0.82510745511E+02  0.96564509439E+01  0.20196909517E+03  0.17300000000E+03 0.  1.
         -6    1    1    2    0  503  0.62938424144E+02 -0.82510745511E+02 -0.10864378038E+03  0.22913258034E+03  0.17300000000E+03 0.  1.
</event>
<event>
 4    1  0.5876320E+000  0.1000000E+03  0.7546771E-02  0.1280296E+00
         21   -1    0    0  501  502  0.00000000000E+00  0.00000000000E+00  0.21792519356E+02  0.21792519356E+02  0.00000000000E+00 0.  1.
         21   -1    0    0  502  503 -0.00000000000E+00 -0.00000000000E+00 -0.21944613811E+04  0.21944613811E+04  0.00000000000E+00 0.  1.
          6    1    1    2  501    0 -0.26285678002E+00 -0.13366430308E+03 -0.11129686269E+04  0.11342373559E+04  0.17300000000E+03 0.  1.
         -6    1    1    2    0  503  0.26285678002E+00  0.13366430308E+03 -0.10597002349E+04  0.10820165446E+04  0.17300000000E+03 0.  1.
</event>
<event>
 4    1  0.5876320E+000  0.1000000E+03  0.7546771E-02  0.1280296E+00
         21   -1    0    0  501  502  0.00000000000E+00  0.00000000000E+00  0.56951005641E+02  0.56951005641E+02  0.00000000000E+00 0.  1.
         21   -1    0    0  502  503 -0.00000000000E+00 -0.00000000000E+00 -0.88875033348E+03  0.88875033348E+03  0.00000000000E+00 0.  1.
          6    1    1    2  501    0  0.12066600153E+02 -0.12451937502E+02 -0.11581426221E+03  0.20890810640E+03  0.17300000000E+03 0.  1.
         -6    1    1    2    0  503 -0.12066600153E+02  0.12451937502E+02 -0.71598506562E+03  0.73679323272E+03  0.17300000000E+03 0.  1.
</event>
<event>
 4    1  0.5876320E+000  0.1000000E+03  0.7546771E-02  0.1280296E+00
         21   -1    0    0  501  502  0.00000000000E+00  0.00000000000E+00  0.52841147385E+02  0.52841147385E+02  0.00000000000E+00 0.  1.
         21   -1    0    0  502  503 -0.00000000000E+00 -0.00000000000E+00 -0.87689427229E+03  0.87689427229E+03  0.00000000000E+00 0.  1.
          6    1    1    2  501    0  0.75738392351E+02 -0.26932513287E+02 -0.19665838194E+03  0.27398026121E+03  0.17300000000E+03 0.  1.
         -6    1    1    2    0  503 -0.75738392351E+02  0.26932513287E+02 -0.62739474296E+03  0.65575515846E+03  0.17300000000E+03 0.  1.
</event>
<event>
 4    1  0.5876320E+000  0.1000000E+03  0.7546771E-02  0.1280296E+00
         21   -1    0    0  503  502  0.00000000000E+00  0.00000000000E+00  0.12698340653E+04  0.12698340653E+04  0.00000000000E+00 0.  1.
         21   -1    0    0  501  503 -0.00000000000E+00 -0.00000000000E+00 -0.10450149904E+03  0.10450149904E+03  0.00000000000E+00 0. -1.
          6    1    1    2  501    0  0.13305013286E+03  0.75160996510E+02  0.51059655547E+02  0.23640558724E+03  0.17300000000E+03 0. -1.
         -6    1    1    2    0  502 -0.13305013286E+03 -0.75160996510E+02  0.11142729107E+04  0.11379299771E+04  0.17300000000E+03 0. -1.
</event>
<event>
 4    1  0.5876320E+000  0.1000000E+03  0.7546771E-02  0.1280296E+00
         21   -1    0    0  503  502  0.00000000000E+00  0.00000000000E+00  0.82188728700E+02  0.82188728700E+02  0.00000000000E+00 0.  1.
         21   -1    0    0  501  503 -0.00000000000E+00 -0.00000000000E+00 -0.97210918413E+03  0.97210918413E+03  0.00000000000E+00 0.  1.
          6    1    1    2  501    0  0.15023778720E+03 -0.89868253080E+02 -0.70418120127E+03  0.74595432825E+03  0.17300000000E+03 0.  1.
         -6    1    1    2    0  502 -0.15023778720E+03  0.89868253080E+02 -0.18573925416E+03  0.30834358458E+03  0.17300000000E+03 0.  1.
</event>
<event>
 4    1  0.5876320E+000  0.1000000E+03  0.7546771E-02  0.1280296E+00
         21   -1    0    0  503  502  0.00000000000E+00  0.00000000000E+00  0.29231170966E+03  0.29231170966E+03  0.00000000000E+00 0.  1.
         21   -1    0    0  501  503 -0.00000000000E+00 -0.00000000000E+00 -0.20450544667E+03  0.20450544667E+03  0.00000000000E+00 0.  1.
          6    1    1    2  501    0  0.18711872063E+02  0.64617056220E+02 -0.11777987875E+03  0.21983311386E+03  0.17300000000E+03 0.  1.
         -6    1    1    2    0  502 -0.18711872063E+02 -0.64617056220E+02  0.20558614174E+03  0.27698404247E+03  0.17300000000E+03 0.  1.
</event>
<event>
 4    1  0.5876320E+000  0.1000000E+03  0.7546771E-02  0.1280296E+00
         21   -1    0    0  503  502  0.00000000000E+00  0.00000000000E+00  0.11535626331E+04  0.11535626331E+04  0.00000000000E+00 0.  1.
         21   -1    0    0  501  503 -0.00000000000E+00 -0.00000000000E+00 -0.19028362015E+03  0.19028362015E+03  0.00000000000E+00 0.  1.
          6    1    1    2  501    0 -0.22093961461E+03  0.24750756614E+03  0.77264829300E+02  0.38206434333E+03  0.17300000000E+03 0.  1.
         -6    1    1    2    0  502  0.22093961461E+03 -0.24750756614E+03  0.88601418363E+03  0.96178190989E+03  0.17300000000E+03 0.  1.
</event>
<event>
 4    1  0.5876320E+000  0.1000000E+03  0.7546771E-02  0.1280296E+00
         21   -1    0    0  503  502  0.00000000000E+00  0.00000000000E+00  0.37224184653E+03  0.37224184653E+03  0.00000000000E+00 0. -1.
         21   -1    0    0  501  503 -0.00000000000E+00 -0.00000000000E+00 -0.20295378348E+03  0.20295378348E+03  0.00000000000E+00 0. -1.
          6    1    1    2  501    0  0.45395681316E+02  0.13211856769E+03 -0.84407075112E+02  0.23784372630E+03  0.17300000000E+03 0.  1.
         -6    1    1    2    0  502 -0.45395681316E+02 -0.13211856769E+03  0.25369513817E+03  0.33735190371E+03  0.17300000000E+03 0.  1.
</event>
<event>
 4    1  0.5876320E+000  0.1000000E+03  0.7546771E-02  0.1280296E+00
         21   -1    0    0  503  502  0.00000000000E+00  0.00000000000E+00  0.25805535468E+02  0.25805535468E+02  0.00000000000E+00 0. -1.
         21   -1    0    0  501  503 -0.00000000000E+00 -0.00000000000E+00 -0.21632574002E+04  0.21632574002E+04  0.00000000000E+00 0. -1.
          6    1    1    2  501    0  0.14477737807E+03  0.31978631142E+02 -0.13584677817E+04  0.13774421353E+04  0.17300000000E+03 0.  1.
         -6    1    1    2    0  502 -0.14477737807E+03 -0.31978631142E+02 -0.77898408301E+03  0.81162080039E+03  0.17300000000E+03 0.  1.
</event>
<event>
 4    1  0.5876320E+000  0.1000000E+03  0.7546771E-02  0.1280296E+00
         21   -1    0    0  503  502  0.00000000000E+00  0.00000000000E+00  0.11225268630E+04  0.11225268630E+04  0.00000000000E+00 0. -1.
         21   -1    0    0  501  503 -0.00000000000E+00 -0.00000000000E+00 -0.29262837973E+02  0.29262837973E+02  0.00000000000E+00 0.  1.
          6    1    1    2  501    0 -0.11424199134E+02 -0.36764484078E+02  0.42617211158E+03  0.46155585611E+03  0.17300000000E+03 0.  1.
         -6    1    1    2    0  502  0.11424199134E+02  0.36764484078E+02  0.66709191342E+03  0.69023384485E+03  0.17300000000E+03 0. -1.
</event>
<event>
 4    1  0.5876320E+000  0.1000000E+03  0.7546771E-02  0.1280296E+00
         21   -1    0    0  503  502  0.00000000000E+00  0.00000000000E+00  0.23506441835E+04  0.23506441835E+04  0.00000000000E+00 0. -1.
         21   -1    0    0  501  503 -0.00000000000E+00 -0.00000000000E+00 -0.13158560627E+02  0.13158560627E+02  0.00000000000E+00 0.  1.
          6    1    1    2  501    0  0.25403899362E+02  0.17923050131E+02  0.12087832497E+04  0.12214960248E+04  0.17300000000E+03 0.  1.
         -6    1    1    2    0  502 -0.25403899362E+02 -0.17923050131E+02  0.11287023732E+04  0.11423067193E+04  0.17300000000E+03 0. -1.
</event>
<event>
 4    1  0.5876320E+000  0.1000000E+03  0.7546771E-02  0.1280296E+00
         21   -1    0    0  503  502  0.00000000000E+00  0.00000000000E+00  0.24824000334E+03  0.24824000334E+03  0.00000000000E+00 0. -1.
         21   -1    0    0  501  503 -0.00000000000E+00 -0.00000000000E+00 -0.44685479898E+03  0.44685479898E+03  0.00000000000E+00 0.  1.
          6    1    1    2  501    0  0.63752414682E+02 -0.38067769147E+01 -0.38871692315E+03  0.43024261559E+03  0.17300000000E+03 0.  1.
         -6    1    1    2    0  502 -0.63752414682E+02  0.38067769147E+01  0.19010212751E+03  0.26485218672E+03  0.17300000000E+03 0. -1.
</event>
<event>
 4    1  0.5876320E+000  0.1000000E+03  0.7546771E-02  0.1280296E+00
         21   -1    0    0  503  502  0.00000000000E+00  0.00000000000E+00  0.33364522444E+03  0.33364522444E+03  0.00000000000E+00 0.  1.
         21   -1    0    0  501  503 -0.00000000000E+00 -0.00000000000E+00 -0.14064140729E+03  0.14064140729E+03  0.00000000000E+00 0.  1.
          6    1    1    2  501    0 -0.45180929010E+02  0.69752223884E+02 -0.13456449475E+02  0.19239741452E+03  0.17300000000E+03 0. -1.
         -6    1    1    2    0  502  0.45180929010E+02 -0.69752223884E+02  0.20646026663E+03  0.28188921721E+03  0.17300000000E+03 0. -1.
</event>
<event>
 4    1  0.5876320E+000  0.1000000E+03  0.7546771E-02  0.1280296E+00
         21   -1    0    0  503  502  0.00000000000E+00  0.00000000000E+00  0.93278134511E+02  0.93278134511E+02  0.00000000000E+00 0.  1.
         21   -1    0    0  501  503 -0.00000000000E+00 -0.00000000000E+00 -0.19117081119E+04  0.19117081119E+04  0.00000000000E+00 0.  1.
          6    1    1    2  501    0  0.40191131219E+02  0.35195611484E+03 -0.54993905355E+03  0.67664643383E+03  0.17300000000E+03 0. -1.
         -6    1    1    2    0  502 -0.40191131219E+02 -0.35195611484E+03 -0.12684909238E+04  0.13283398126E+04  0.17300000000E+03 0. -1.
</event>
<event>
 4    1  0.5876320E+000  0.1000000E+03  0.7546771E-02  0.1280296E+00
         21   -1    0    0  501  502  0.00000000000E+00  0.00000000000E+00  0.38167247623E+03  0.38167247623E+03  0.00000000000E+00 0.  1.
         21   -1    0    0  502  503 -0.00000000000E+00 -0.00000000000E+00 -0.13892921712E+03  0.13892921712E+03  0.00000000000E+00 0. -1.
          6    1    1    2  501    0 -0.26460926707E+02 -0.95362536288E+02  0.25174717919E+03  0.32109163209E+03  0.17300000000E+03 0.  1.
         -6    1    1    2    0  503  0.26460926707E+02  0.95362536288E+02 -0.90039200768E+01  0.19951006127E+03  0.17300000000E+03 0. -1.
</event>
<event>
 4    1  0.5876320E+000  0.1000000E+03  0.7546771E-02  0.1280296E+00
         21   -1    0    0  503  502  0.00000000000E+00  0.00000000000E+00  0.69926883990E+02  0.69926883990E+02  0.00000000000E+00 0.  1.
         21   -1    0    0  501  503 -0.00000000000E+00 -0.00000000000E+00 -0.89701933734E+03  0.89701933734E+03  0.00000000000E+00 0.  1.
          6    1    1    2  501    0 -0.96661336195E+02 -0.88603310759E+02 -0.17241653205E+03  0.27721908505E+03  0.17300000000E+03 0.  1.
         -6    1    1    2    0  502  0.96661336195E+02  0.88603310759E+02 -0.65467592130E+03  0.68972713628E+03  0.17300000000E+03 0.  1.
</event>
<event>
 4    1  0.5876320E+000  0.1000000E+03  0.7546771E-02  0.1280296E+00
         21   -1    0    0  503  502  0.00000000000E+00  0.00000000000E+00  0.15262351410E+03  0.15262351410E+03  0.00000000000E+00 0.  1.
         21   -1    0    0  501  503 -0.00000000000E+00 -0.00000000000E+00 -0.56376747883E+03  0.56376747883E+03  0.00000000000E+00 0.  1.
          6    1    1    2  501    0  0.13282817314E+03  0.80399949551E+02 -0.42403936682E+03  0.48357611612E+03  0.17300000000E+03 0.  1.
         -6    1    1    2    0  502 -0.13282817314E+03 -0.80399949551E+02  0.12895402082E+02  0.23281487681E+03  0.17300000000E+03 0.  1.
</event>
<event>
 4    1  0.5876320E+000  0.1000000E+03  0.7546771E-02  0.1280296E+00
         21   -1    0    0  503  502  0.00000000000E+00  0.00000000000E+00  0.14436135515E+04  0.14436135515E+04  0.00000000000E+00 0.  1.
         21   -1    0    0  501  503 -0.00000000000E+00 -0.00000000000E+00 -0.23873658707E+02  0.23873658707E+02  0.00000000000E+00 0.  1.
          6    1    1    2  501    0  0.39040655585E+02 -0.53802973758E+02  0.66722729785E+03  0.69248841129E+03  0.17300000000E+03 0.  1.
         -6    1    1    2    0  502 -0.39040655585E+02  0.53802973758E+02  0.75251259490E+03  0.77499879888E+03  0.17300000000E+03 0.  1.
</event>
<event>
 4    1  0.5876320E+000  0.1000000E+03  0.7546771E-02  0.1280296E+00
         21   -1    0    0  503  502  0.00000000000E+00  0.00000000000E+00  0.24887177374E+03  0.24887177374E+03  0.00000000000E+00 0. -1.
         21   -1    0    0  501  503 -0.00000000000E+00 -0.00000000000E+00 -0.40490357486E+03  0.40490357486E+03  0.00000000000E+00 0. -1.
          6    1    1    2  501    0  0.15262640632E+03  0.13894775244E+03 -0.25106041227E+03  0.36818694766E+03  0.17300000000E+03 0. -1.
         -6    1    1    2    0  502 -0.15262640632E+03 -0.13894775244E+03  0.95028611148E+02  0.28558840094E+03  0.17300000000E+03 0. -1.
</event>
<event>
 4    1  0.5876320E+000  0.1000000E+03  0.7546771E-02  0.1280296E+00
         21   -1    0    0  503  502  0.00000000000E+00  0.00000000000E+00  0.25035666952E+04  0.25035666952E+04  0.00000000000E+00 0. -1.
         21   -1    0    0  501  503 -0.00000000000E+00 -0.00000000000E+00 -0.15479815111E+02  0.15479815111E+02  0.00000000000E+00 0. -1.
          6    1    1    2  501    0  0.14965145230E+02 -0.51392687448E+02  0.75008752539E+03  0.77163816627E+03  0.17300000000E+03 0. -1.
         -6    1    1    2    0  502 -0.14965145230E+02  0.51392687448E+02  0.17379993547E+04  0.17474083440E+04  0.17300000000E+03 0. -1.
</event>
<event>
 4    1  0.5876320E+000  0.1000000E+03  0.7546771E-02  0.1280296E+00
         21   -1    0    0  501  502  0.00000000000E+00  0.00000000000E+00  0.14375788399E+03  0.14375788399E+03  0.00000000000E+00 0.  1.
         21   -1    0    0  502  503 -0.00000000000E+00 -0.00000000000E+00 -0.29813534560E+03  0.29813534560E+03  0.00000000000E+00 0.  1.
          6    1    1    2  501    0  0.30568251894E+02  0.10307506833E+03 -0.37665738760E+02  0.20713907311E+03  0.17300000000E+03 0.  1.
         -6    1    1    2    0  503 -0.30568251894E+02 -0.10307506833E+03 -0.11671172285E+03  0.23475415648E+03  0.17300000000E+03 0.  1.
</event>
<event>
 4    1  0.5876320E+000  0.1000000E+03  0.7546771E-02  0.1280296E+00
         21   -1    0    0  501  502  0.00000000000E+00  0.00000000000E+00  0.86438554318E+02  0.86438554318E+02  0.00000000000E+00 0.  1.
         21   -1    0    0  502  503 -0.00000000000E+00 -0.00000000000E+00 -0.10853154671E+04  0.10853154671E+04  0.00000000000E+00 0.  1.
          6    1    1    2  501    0  0.23015261759E+03  0.77218698474E+02 -0.63403302780E+03  0.70061389875E+03  0.17300000000E+03 0.  1.
         -6    1    1    2    0  503 -0.23015261759E+03 -0.77218698474E+02 -0.36484388495E+03  0.47114012264E+03  0.17300000000E+03 0.  1.
</event>
<event>
 4    1  0.5876320E+000  0.1000000E+03  0.7546771E-02  0.1280296E+00
         21   -1    0    0  503  502  0.00000000000E+00  0.00000000000E+00  0.38650449952E+03  0.38650449952E+03  0.00000000000E+00 0. -1.
         21   -1    0    0  501  503 -0.00000000000E+00 -0.00000000000E+00 -0.41842043477E+03  0.41842043477E+03  0.00000000000E+00 0. -1.
          6    1    1    2  501    0 -0.60646114949E+02 -0.16168706709E+03 -0.33553940160E+03  0.41513413368E+03  0.17300000000E+03 0.  1.
         -6    1    1    2    0  502  0.60646114949E+02  0.16168706709E+03  0.30362346635E+03  0.38979080061E+03  0.17300000000E+03 0.  1.
</event>
<event>
 4    1  0.5876320E+000  0.1000000E+03  0.7546771E-02  0.1280296E+00
         21   -1    0    0  503  502  0.00000000000E+00  0.00000000000E+00  0.14659393286E+03  0.14659393286E+03  0.00000000000E+00 0. -1.
         21   -1    0    0  501  503 -0.00000000000E+00 -0.00000000000E+00 -0.25561291739E+03  0.25561291739E+03  0.00000000000E+00 0. -1.
          6    1    1    2  501    0 -0.70301739514E+02 -0.46938795538E+02 -0.75201893197E+02  0.20671214247E+03  0.17300000000E+03 0.  1.
         -6    1    1    2    0  502  0.70301739514E+02  0.46938795538E+02 -0.33817091334E+02  0.19549470778E+03  0.17300000000E+03 0.  1.
</event>
<event>
 4    1  0.5876320E+000  0.1000000E+03  0.7546771E-02  0.1280296E+00
         21   -1    0    0  503  502  0.00000000000E+00  0.00000000000E+00  0.95919762252E+02  0.95919762252E+02  0.00000000000E+00 0. -1.
         21   -1    0    0  501  503 -0.00000000000E+00 -0.00000000000E+00 -0.20044977044E+04  0.20044977044E+04  0.00000000000E+00 0. -1.
          6    1    1    2  501    0 -0.12659443558E+02 -0.86591574222E+02 -0.18962672876E+04  0.19061524043E+04  0.17300000000E+03 0.  1.
         -6    1    1    2    0  502  0.12659443558E+02  0.86591574222E+02 -0.12310654509E+02  0.19426506236E+03  0.17300000000E+03 0.  1.
</event>
<event>
 4    1  0.5876320E+000  0.1000000E+03  0.7546771E-02  0.1280296E+00
         21   -1    0    0  503  502  0.00000000000E+00  0.00000000000E+00  0.77257998440E+02  0.77257998440E+02  0.00000000000E+00 0. -1.
         21   -1    0    0  501  503 -0.00000000000E+00 -0.00000000000E+00 -0.47142454371E+03  0.47142454371E+03  0.00000000000E+00 0. -1.
          6    1    1    2  501    0 -0.24585615895E+01  0.25272446973E+02 -0.87157064665E+02  0.19537168429E+03  0.17300000000E+03 0.  1.
         -6    1    1    2    0  502  0.24585615895E+01 -0.25272446973E+02 -0.30700948061E+03  0.35331085787E+03  0.17300000000E+03 0.  1.
</event>
<event>
 4    1  0.5876320E+000  0.1000000E+03  0.7546771E-02  0.1280296E+00
         21   -1    0    0  503  502  0.00000000000E+00  0.00000000000E+00  0.13428662374E+04  0.13428662374E+04  0.00000000000E+00 0. -1.
         21   -1    0    0  501  503 -0.00000000000E+00 -0.00000000000E+00 -0.66697433174E+02  0.66697433174E+02  0.00000000000E+00 0.  1.
          6    1    1    2  501    0  0.21053498077E+03 -0.12360095913E+03  0.62424093360E+03  0.69224845136E+03  0.17300000000E+03 0.  1.
         -6    1    1    2    0  502 -0.21053498077E+03  0.12360095913E+03  0.65192787065E+03  0.71731521924E+03  0.17300000000E+03 0.  1.
</event>
<event>
 4    1  0.5876320E+000  0.1000000E+03  0.7546771E-02  0.1280296E+00
         21   -1    0    0  501  502  0.00000000000E+00  0.00000000000E+00  0.11300151108E+04  0.11300151108E+04  0.00000000000E+00 0. -1.
         21   -1    0    0  502  503 -0.00000000000E+00 -0.00000000000E+00 -0.33076107230E+02  0.33076107230E+02  0.00000000000E+00 0. -1.
          6    1    1    2  501    0 -0.60791564301E+02  0.25530911152E+02  0.71595201062E+03  0.73950234836E+03  0.17300000000E+03 0. -1.
         -6    1    1    2    0  503  0.60791564301E+02 -0.25530911152E+02  0.38098699295E+03  0.42358886968E+03  0.17300000000E+03 0. -1.
</event>
<event>
 4    1  0.5876320E+000  0.1000000E+03  0.7546771E-02  0.1280296E+00
         21   -1    0    0  501  502  0.00000000000E+00  0.00000000000E+00  0.30203318273E+02  0.30203318273E+02  0.00000000000E+00 0. -1.
         21   -1    0    0  502  503 -0.00000000000E+00 -0.00000000000E+00 -0.25077449814E+04  0.25077449814E+04  0.00000000000E+00 0. -1.
          6    1    1    2  501    0 -0.19297420030E+03  0.24913327256E+02 -0.82756145256E+03  0.86755211580E+03  0.17300000000E+03 0. -1.
         -6    1    1    2    0  503  0.19297420030E+03 -0.24913327256E+02 -0.16499802106E+04  0.16703961839E+04  0.17300000000E+03 0. -1.
</event>
<event>
 4    1  0.5876320E+000  0.1000000E+03  0.7546771E-02  0.1280296E+00
         21   -1    0    0  503  502  0.00000000000E+00  0.00000000000E+00  0.60497381230E+03  0.60497381230E+03  0.00000000000E+00 0.  1.
         21   -1    0    0  501  503 -0.00000000000E+00 -0.00000000000E+00 -0.10565033035E+03  0.10565033035E+03  0.00000000000E+00 0. -1.
          6    1    1    2  501    0  0.11005968652E+02 -0.13251862867E+03  0.70205656680E+02  0.22921638798E+03  0.17300000000E+03 0.  1.
         -6    1    1    2    0  502 -0.11005968652E+02  0.13251862867E+03  0.42911782527E+03  0.48140775467E+03  0.17300000000E+03 0. -1.
</event>
<event>
 4    1  0.5876320E+000  0.1000000E+03  0.7546771E-02  0.1280296E+00
         21   -1    0    0  503  502  0.00000000000E+00  0.00000000000E+00  0.14914821301E+04  0.14914821301E+04  0.00000000000E+00 0.  1.
         21   -1    0    0  501  503 -0.00000000000E+00 -0.00000000000E+00 -0.13848956309E+03  0.13848956309E+03  0.00000000000E+00 0. -1.
          6    1    1    2  501    0 -0.14843094653E+03  0.20577668088E+03  0.75702351681E+02  0.31628410382E+03  0.17300000000E+03 0.  1.
         -6    1    1    2    0  502  0.14843094653E+03 -0.20577668088E+03  0.12772902153E+04  0.13136875893E+04  0.17300000000E+03 0. -1.
</event>
<event>
 4    1  0.5876320E+000  0.1000000E+03  0.7546771E-02  0.1280296E+00
         21   -1    0    0  503  502  0.00000000000E+00  0.00000000000E+00  0.34429686252E+03  0.34429686252E+03  0.00000000000E+00 0.  1.
         21   -1    0    0  501  503 -0.00000000000E+00 -0.00000000000E+00 -0.11883296806E+03  0.11883296806E+03  0.00000000000E+00 0. -1.
          6    1    1    2  501    0 -0.11988663955E+01 -0.91140217255E+02  0.53500943816E+02  0.20272969065E+03  0.17300000000E+03 0.  1.
         -6    1    1    2    0  502  0.11988663955E+01  0.91140217255E+02  0.17196295065E+03  0.26040013993E+03  0.17300000000E+03 0. -1.
</event>
<event>
 4    1  0.5876320E+000  0.1000000E+03  0.7546771E-02  0.1280296E+00
         21   -1    0    0  503  502  0.00000000000E+00  0.00000000000E+00  0.55799895534E+03  0.55799895534E+03  0.00000000000E+00 0. -1.
         21   -1    0    0  501  503 -0.00000000000E+00 -0.00000000000E+00 -0.21064507962E+03  0.21064507962E+03  0.00000000000E+00 0. -1.
          6    1    1    2  501    0 -0.68492624679E+01 -0.23020622738E+03 -0.34746131138E+02  0.29013464659E+03  0.17300000000E+03 0. -1.
         -6    1    1    2    0  502  0.68492624679E+01  0.23020622738E+03  0.38210000686E+03  0.47850938837E+03  0.17300000000E+03 0. -1.
</event>
<event>
 4    1  0.5876320E+000  0.1000000E+03  0.7546771E-02  0.1280296E+00
         21   -1    0    0  503  502  0.00000000000E+00  0.00000000000E+00  0.12739547123E+04  0.12739547123E+04  0.00000000000E+00 0. -1.
         21   -1    0    0  501  503 -0.00000000000E+00 -0.00000000000E+00 -0.10655751474E+03  0.10655751474E+03  0.00000000000E+00 0. -1.
          6    1    1    2  501    0 -0.17900040764E+03 -0.88630911477E+02  0.10267924362E+03  0.28349358278E+03  0.17300000000E+03 0. -1.
         -6    1    1    2    0  502  0.17900040764E+03  0.88630911477E+02  0.10647179540E+04  0.10970186443E+04  0.17300000000E+03 0. -1.
</event>
<event>
 4    1  0.5876320E+000  0.1000000E+03  0.7546771E-02  0.1280296E+00
         21   -1    0    0  503  502  0.00000000000E+00  0.00000000000E+00  0.62534434094E+02  0.62534434094E+02  0.00000000000E+00 0. -1.
         21   -1    0    0  501  503 -0.00000000000E+00 -0.00000000000E+00 -0.11355265763E+04  0.11355265763E+04  0.00000000000E+00 0. -1.
          6    1    1    2  501    0  0.46200790383E+02 -0.17034778636E+03 -0.76047825654E+03  0.79963057722E+03  0.17300000000E+03 0. -1.
         -6    1    1    2    0  502 -0.46200790383E+02  0.17034778636E+03 -0.31251388567E+03  0.39843043318E+03  0.17300000000E+03 0. -1.
</event>
<event>
 4    1  0.5876320E+000  0.1000000E+03  0.7546771E-02  0.1280296E+00
         21   -1    0    0  503  502  0.00000000000E+00  0.00000000000E+00  0.19335916668E+03  0.19335916668E+03  0.00000000000E+00 0. -1.
         21   -1    0    0  501  503 -0.00000000000E+00 -0.00000000000E+00 -0.27068446613E+03  0.27068446613E+03  0.00000000000E+00 0. -1.
          6    1    1    2  501    0 -0.50937627787E+02  0.12002653223E+03  0.35928243214E+02  0.21959246122E+03  0.17300000000E+03 0. -1.
         -6    1    1    2    0  502  0.50937627787E+02 -0.12002653223E+03 -0.11325354266E+03  0.24445117159E+03  0.17300000000E+03 0. -1.
</event>
<event>
 4    1  0.5876320E+000  0.1000000E+03  0.7546771E-02  0.1280296E+00
         21   -1    0    0  503  502  0.00000000000E+00  0.00000000000E+00  0.19253663544E+04  0.19253663544E+04  0.00000000000E+00 0. -1.
         21   -1    0    0  501  503 -0.00000000000E+00 -0.00000000000E+00 -0.80627257488E+02  0.80627257488E+02  0.00000000000E+00 0. -1.
          6    1    1    2  501    0  0.22555717123E+03 -0.19966188998E+02  0.22971683879E+03  0.36602392302E+03  0.17300000000E+03 0. -1.
         -6    1    1    2    0  502 -0.22555717123E+03  0.19966188998E+02  0.16150222581E+04  0.16399696888E+04  0.17300000000E+03 0. -1.
</event>
<event>
 4    1  0.5876320E+000  0.1000000E+03  0.7546771E-02  0.1280296E+00
         21   -1    0    0  503  502  0.00000000000E+00  0.00000000000E+00  0.10489415409E+03  0.10489415409E+03  0.00000000000E+00 0. -1.
         21   -1    0    0  501  503 -0.00000000000E+00 -0.00000000000E+00 -0.14601046879E+04  0.14601046879E+04  0.00000000000E+00 0. -1.
          6    1    1    2  501    0  0.31328676570E-01 -0.33948578232E+03 -0.85618495629E+03  0.93714047867E+03  0.17300000000E+03 0. -1.
         -6    1    1    2    0  502 -0.31328676570E-01  0.33948578232E+03 -0.49902557750E+03  0.62785836331E+03  0.17300000000E+03 0. -1.
</event>
<event>
 4    1  0.5876320E+000  0.1000000E+03  0.7546771E-02  0.1280296E+00
         21   -1    0    0  503  502  0.00000000000E+00  0.00000000000E+00  0.24160611780E+03  0.24160611780E+03  0.00000000000E+00 0. -1.
         21   -1    0    0  501  503 -0.00000000000E+00 -0.00000000000E+00 -0.27580152897E+03  0.27580152897E+03  0.00000000000E+00 0.  1.
          6    1    1    2  501    0 -0.46260723242E+02  0.30849120998E+02 -0.20084231746E+03  0.27084748340E+03  0.17300000000E+03 0.  1.
         -6    1    1    2    0  502  0.46260723242E+02 -0.30849120998E+02  0.16664690629E+03  0.24656016336E+03  0.17300000000E+03 0. -1.
</event>
<event>
 4    1  0.5876320E+000  0.1000000E+03  0.7546771E-02  0.1280296E+00
         21   -1    0    0  501  502  0.00000000000E+00  0.00000000000E+00  0.12762386703E+04  0.12762386703E+04  0.00000000000E+00 0. -1.
         21   -1    0    0  502  503 -0.00000000000E+00 -0.00000000000E+00 -0.28658577384E+02  0.28658577384E+02  0.00000000000E+00 0. -1.
          6    1    1    2  501    0  0.63780241350E+02  0.50622712355E+02  0.63726743774E+03  0.66533402543E+03  0.17300000000E+03 0. -1.
         -6    1    1    2    0  503 -0.63780241350E+02 -0.50622712355E+02  0.61031265521E+03  0.63956322228E+03  0.17300000000E+03 0. -1.
</event>
<event>
 4    1  0.5876320E+000  0.1000000E+03  0.7546771E-02  0.1280296E+00
         21   -1    0    0  501  502  0.00000000000E+00  0.00000000000E+00  0.23395181978E+03  0.23395181978E+03  0.00000000000E+00 0.  1.
         21   -1    0    0  502  503 -0.00000000000E+00 -0.00000000000E+00 -0.13232800287E+03  0.13232800287E+03  0.00000000000E+00 0. -1.
          6    1    1    2  501    0  0.25207288002E+02 -0.17692487033E+02  0.60176537319E+02  0.18573811432E+03  0.17300000000E+03 0.  1.
         -6    1    1    2    0  503 -0.25207288002E+02  0.17692487033E+02  0.41447279591E+02  0.18054170834E+03  0.17300000000E+03 0. -1.
</event>
<event>
 4    1  0.5876320E+000  0.1000000E+03  0.7546771E-02  0.1280296E+00
         21   -1    0    0  501  502  0.00000000000E+00  0.00000000000E+00  0.22880928705E+03  0.22880928705E+03  0.00000000000E+00 0.  1.
         21   -1    0    0  502  503 -0.00000000000E+00 -0.00000000000E+00 -0.41700489688E+03  0.41700489688E+03  0.00000000000E+00 0. -1.
          6    1    1    2  501    0 -0.23636520231E+03  0.83259594682E+02 -0.39930628791E+02  0.30712232756E+03  0.17300000000E+03 0.  1.
         -6    1    1    2    0  503  0.23636520231E+03 -0.83259594682E+02 -0.14826498103E+03  0.33869185637E+03  0.17300000000E+03 0. -1.
</event>
<event>
 4    1  0.5876320E+000  0.1000000E+03  0.7546771E-02  0.1280296E+00
         21   -1    0    0  501  502  0.00000000000E+00  0.00000000000E+00  0.77687398821E+03  0.77687398821E+03  0.00000000000E+00 0.  1.
         21   -1    0    0  502  503 -0.00000000000E+00 -0.00000000000E+00 -0.44347646623E+03  0.44347646623E+03  0.00000000000E+00 0. -1.
          6    1    1    2  501    0 -0.36613214688E+03 -0.42275273223E+03  0.21109250903E+03  0.62230351835E+03  0.17300000000E+03 0.  1.
         -6    1    1    2    0  503  0.36613214688E+03  0.42275273223E+03  0.12230501294E+03  0.59804693609E+03  0.17300000000E+03 0. -1.
</event>
<event>
 4    1  0.5876320E+000  0.1000000E+03  0.7546771E-02  0.1280296E+00
         21   -1    0    0  501  502  0.00000000000E+00  0.00000000000E+00  0.10509210977E+04  0.10509210977E+04  0.00000000000E+00 0.  1.
         21   -1    0    0  502  503 -0.00000000000E+00 -0.00000000000E+00 -0.36345276942E+02  0.36345276942E+02  0.00000000000E+00 0. -1.
          6    1    1    2  501    0 -0.71323741364E+02 -0.23986506045E+02  0.36532771733E+03  0.41116392060E+03  0.17300000000E+03 0.  1.
         -6    1    1    2    0  503  0.71323741364E+02  0.23986506045E+02  0.64924810342E+03  0.67610245404E+03  0.17300000000E+03 0. -1.
</event>
<event>
 4    1  0.5876320E+000  0.1000000E+03  0.7546771E-02  0.1280296E+00
         21   -1    0    0  501  502  0.00000000000E+00  0.00000000000E+00  0.99899143753E+03  0.99899143753E+03  0.00000000000E+00 0.  1.
         21   -1    0    0  502  503 -0.00000000000E+00 -0.00000000000E+00 -0.10073587955E+03  0.10073587955E+03  0.00000000000E+00 0.  1.
          6    1    1    2  501    0  0.22833493209E+01  0.56762687066E+02  0.89938776397E+03  0.91763531226E+03  0.17300000000E+03 0.  1.
         -6    1    1    2    0  503 -0.22833493209E+01 -0.56762687066E+02 -0.11322059865E+01  0.18209200481E+03  0.17300000000E+03 0.  1.
</event>
<event>
 4    1  0.5876320E+000  0.1000000E+03  0.7546771E-02  0.1280296E+00
         21   -1    0    0  501  502  0.00000000000E+00  0.00000000000E+00  0.20061009128E+03  0.20061009128E+03  0.00000000000E+00 0.  1.
         21   -1    0    0  502  503 -0.00000000000E+00 -0.00000000000E+00 -0.76738984524E+03  0.76738984524E+03  0.00000000000E+00 0.  1.
          6    1    1    2  501    0 -0.11873563433E+03  0.97792223817E+02  0.10738973195E+03  0.25519213238E+03  0.17300000000E+03 0.  1.
         -6    1    1    2    0  503  0.11873563433E+03 -0.97792223817E+02 -0.67416948592E+03  0.71280780414E+03  0.17300000000E+03 0.  1.
</event>
<event>
 4    1  0.5876320E+000  0.1000000E+03  0.7546771E-02  0.1280296E+00
         21   -1    0    0  501  502  0.00000000000E+00  0.00000000000E+00  0.23526688018E+03  0.23526688018E+03  0.00000000000E+00 0.  1.
         21   -1    0    0  502  503 -0.00000000000E+00 -0.00000000000E+00 -0.25587083304E+03  0.25587083304E+03  0.00000000000E+00 0.  1.
          6    1    1    2  501    0 -0.14934256168E+03  0.61431216679E+02  0.54500245871E+02  0.24285030762E+03  0.17300000000E+03 0.  1.
         -6    1    1    2    0  503  0.14934256168E+03 -0.61431216679E+02 -0.75104198726E+02  0.24828740560E+03  0.17300000000E+03 0.  1.
</event>
<event>
 4    1  0.5876320E+000  0.1000000E+03  0.7546771E-02  0.1280296E+00
         21   -1    0    0  503  502  0.00000000000E+00  0.00000000000E+00  0.15566312462E+04  0.15566312462E+04  0.00000000000E+00 0. -1.
         21   -1    0    0  501  503 -0.00000000000E+00 -0.00000000000E+00 -0.98863936736E+02  0.98863936736E+02  0.00000000000E+00 0.  1.
          6    1    1    2  501    0  0.17962971330E+03 -0.99578446636E+02  0.12546657091E+03  0.29640101442E+03  0.17300000000E+03 0.  1.
         -6    1    1    2    0  502 -0.17962971330E+03  0.99578446636E+02  0.13323007386E+04  0.13590941685E+04  0.17300000000E+03 0. -1.
</event>
<event>
 4    1  0.5876320E+000  0.1000000E+03  0.7546771E-02  0.1280296E+00
         21   -1    0    0  501  502  0.00000000000E+00  0.00000000000E+00  0.12415939831E+03  0.12415939831E+03  0.00000000000E+00 0. -1.
         21   -1    0    0  502  503 -0.00000000000E+00 -0.00000000000E+00 -0.41043836226E+03  0.41043836226E+03  0.00000000000E+00 0.  1.
          6    1    1    2  501    0  0.82459779616E+02  0.77539648344E+02 -0.35793270486E+02  0.20981460991E+03  0.17300000000E+03 0.  1.
         -6    1    1    2    0  503 -0.82459779616E+02 -0.77539648344E+02 -0.25048569346E+03  0.32478315065E+03  0.17300000000E+03 0. -1.
</event>
<event>
 4    1  0.5876320E+000  0.1000000E+03  0.7546771E-02  0.1280296E+00
         21   -1    0    0  501  502  0.00000000000E+00  0.00000000000E+00  0.10452076010E+04  0.10452076010E+04  0.00000000000E+00 0. -1.
         21   -1    0    0  502  503 -0.00000000000E+00 -0.00000000000E+00 -0.40659952098E+02  0.40659952098E+02  0.00000000000E+00 0.  1.
          6    1    1    2  501    0  0.55629428260E+02  0.16998674697E+02  0.75468792687E+03  0.77644475347E+03  0.17300000000E+03 0.  1.
         -6    1    1    2    0  503 -0.55629428260E+02 -0.16998674697E+02  0.24985972200E+03  0.30942279959E+03  0.17300000000E+03 0. -1.
</event>
<event>
 4    1  0.5876320E+000  0.1000000E+03  0.7546771E-02  0.1280296E+00
         21   -1    0    0  503  502  0.00000000000E+00  0.00000000000E+00  0.75454289785E+02  0.75454289785E+02  0.00000000000E+00 0. -1.
         21   -1    0    0  501  503 -0.00000000000E+00 -0.00000000000E+00 -0.11704646529E+04  0.11704646529E+04  0.00000000000E+00 0. -1.
          6    1    1    2  501    0 -0.28097311781E+02  0.38326612184E+02 -0.10441353126E+04  0.10594366140E+04  0.17300000000E+03 0. -1.
         -6    1    1    2    0  502  0.28097311781E+02 -0.38326612184E+02 -0.50875050498E+02  0.18648232864E+03  0.17300000000E+03 0. -1.
</event>
<event>
 4    1  0.5876320E+000  0.1000000E+03  0.7546771E-02  0.1280296E+00
         21   -1    0    0  503  502  0.00000000000E+00  0.00000000000E+00  0.24008704397E+03  0.24008704397E+03  0.00000000000E+00 0. -1.
         21   -1    0    0  501  503 -0.00000000000E+00 -0.00000000000E+00 -0.35916152928E+03  0.35916152928E+03  0.00000000000E+00 0. -1.
          6    1    1    2  501    0  0.22871147867E+02 -0.72550954429E+02 -0.28886409604E+03  0.34519298425E+03  0.17300000000E+03 0. -1.
         -6    1    1    2    0  502 -0.22871147867E+02  0.72550954429E+02  0.16978961072E+03  0.25405558900E+03  0.17300000000E+03 0. -1.
</event>
<event>
 4    1  0.5876320E+000  0.1000000E+03  0.7546771E-02  0.1280296E+00
         21   -1    0    0  503  502  0.00000000000E+00  0.00000000000E+00  0.65107091291E+02  0.65107091291E+02  0.00000000000E+00 0. -1.
         21   -1    0    0  501  503 -0.00000000000E+00 -0.00000000000E+00 -0.92632970875E+03  0.92632970875E+03  0.00000000000E+00 0. -1.
          6    1    1    2  501    0 -0.58005517524E+02  0.22802297258E+02 -0.75918806902E+03  0.78114026203E+03  0.17300000000E+03 0. -1.
         -6    1    1    2    0  502  0.58005517524E+02 -0.22802297258E+02 -0.10203454844E+03  0.21029653801E+03  0.17300000000E+03 0. -1.
</event>
<event>
 4    1  0.5876320E+000  0.1000000E+03  0.7546771E-02  0.1280296E+00
         21   -1    0    0  503  502  0.00000000000E+00  0.00000000000E+00  0.31425514826E+03  0.31425514826E+03  0.00000000000E+00 0. -1.
         21   -1    0    0  501  503 -0.00000000000E+00 -0.00000000000E+00 -0.11619283306E+03  0.11619283306E+03  0.00000000000E+00 0. -1.
          6    1    1    2  501    0  0.44992013535E+02  0.42884510478E+02  0.15779234768E+03  0.24226181603E+03  0.17300000000E+03 0. -1.
         -6    1    1    2    0  502 -0.44992013535E+02 -0.42884510478E+02  0.40269967514E+02  0.18818616528E+03  0.17300000000E+03 0. -1.
</event>
<event>
 4    1  0.5876320E+000  0.1000000E+03  0.7546771E-02  0.1280296E+00
         21   -1    0    0  503  502  0.00000000000E+00  0.00000000000E+00  0.27582567888E+03  0.27582567888E+03  0.00000000000E+00 0.  1.
         21   -1    0    0  501  503 -0.00000000000E+00 -0.00000000000E+00 -0.14542067408E+03  0.14542067408E+03  0.00000000000E+00 0.  1.
          6    1    1    2  501    0  0.19838336126E+02 -0.57914485737E+02  0.14955927149E+03  0.23673745569E+03  0.17300000000E+03 0.  1.
         -6    1    1    2    0  502 -0.19838336126E+02  0.57914485737E+02 -0.19154266690E+02  0.18450889727E+03  0.17300000000E+03 0.  1.
</event>
<event>
 4    1  0.5876320E+000  0.1000000E+03  0.7546771E-02  0.1280296E+00
         21   -1    0    0  503  502  0.00000000000E+00  0.00000000000E+00  0.10945479008E+04  0.10945479008E+04  0.00000000000E+00 0.  1.
         21   -1    0    0  501  503 -0.00000000000E+00 -0.00000000000E+00 -0.88681818589E+02  0.88681818589E+02  0.00000000000E+00 0.  1.
          6    1    1    2  501    0 -0.92807731479E+02  0.16613784318E+03  0.16901393209E+03  0.30774952023E+03  0.17300000000E+03 0.  1.
         -6    1    1    2    0  502  0.92807731479E+02 -0.16613784318E+03  0.83685215011E+03  0.87548019915E+03  0.17300000000E+03 0.  1.
</event>
<event>
 4    1  0.5876320E+000  0.1000000E+03  0.7546771E-02  0.1280296E+00
         21   -1    0    0  503  502  0.00000000000E+00  0.00000000000E+00  0.19806980926E+03  0.19806980926E+03  0.00000000000E+00 0.  1.
         21   -1    0    0  501  503 -0.00000000000E+00 -0.00000000000E+00 -0.23457304043E+03  0.23457304043E+03  0.00000000000E+00 0.  1.
          6    1    1    2  501    0 -0.20623172700E+01  0.32192166525E+00 -0.14727481611E+03  0.22720745640E+03  0.17300000000E+03 0.  1.
         -6    1    1    2    0  502  0.20623172700E+01 -0.32192166525E+00  0.11077158494E+03  0.20543539329E+03  0.17300000000E+03 0.  1.
</event>
<event>
 4    1  0.5876320E+000  0.1000000E+03  0.7546771E-02  0.1280296E+00
         21   -1    0    0  503  502  0.00000000000E+00  0.00000000000E+00  0.36656835380E+02  0.36656835380E+02  0.00000000000E+00 0.  1.
         21   -1    0    0  501  503 -0.00000000000E+00 -0.00000000000E+00 -0.12601949457E+04  0.12601949457E+04  0.00000000000E+00 0.  1.
          6    1    1    2  501    0 -0.45518411016E+02  0.47538636913E+02 -0.94134491360E+03  0.95937015490E+03  0.17300000000E+03 0.  1.
         -6    1    1    2    0  502  0.45518411016E+02 -0.47538636913E+02 -0.28219319675E+03  0.33748162621E+03  0.17300000000E+03 0.  1.
</event>
<event>
 4    1  0.5876320E+000  0.1000000E+03  0.7546771E-02  0.1280296E+00
         21   -1    0    0  503  502  0.00000000000E+00  0.00000000000E+00  0.19801119716E+03  0.19801119716E+03  0.00000000000E+00 0.  1.
         21   -1    0    0  501  503 -0.00000000000E+00 -0.00000000000E+00 -0.24110287416E+03  0.24110287416E+03  0.00000000000E+00 0.  1.
          6    1    1    2  501    0 -0.12636522704E+03 -0.40516413223E+01 -0.64502239273E+02  0.22377248551E+03  0.17300000000E+03 0.  1.
         -6    1    1    2    0  502  0.12636522704E+03  0.40516413223E+01  0.21410562271E+02  0.21534158581E+03  0.17300000000E+03 0.  1.
</event>
<event>
 4    1  0.5876320E+000  0.1000000E+03  0.7546771E-02  0.1280296E+00
         21   -1    0    0  503  502  0.00000000000E+00  0.00000000000E+00  0.57641167518E+03  0.57641167518E+03  0.00000000000E+00 0.  1.
         21   -1    0    0  501  503 -0.00000000000E+00 -0.00000000000E+00 -0.22242583660E+03  0.22242583660E+03  0.00000000000E+00 0.  1.
          6    1    1    2  501    0 -0.20633218577E+03 -0.34642452425E+02 -0.83439300069E+02  0.28401441370E+03  0.17300000000E+03 0.  1.
         -6    1    1    2    0  502  0.20633218577E+03  0.34642452425E+02  0.43742513865E+03  0.51482309808E+03  0.17300000000E+03 0.  1.
</event>
<event>
 4    1  0.5876320E+000  0.1000000E+03  0.7546771E-02  0.1280296E+00
         21   -1    0    0  501  502  0.00000000000E+00  0.00000000000E+00  0.28737716755E+03  0.28737716755E+03  0.00000000000E+00 0. -1.
         21   -1    0    0  502  503 -0.00000000000E+00 -0.00000000000E+00 -0.11786147455E+03  0.11786147455E+03  0.00000000000E+00 0. -1.
          6    1    1    2  501    0 -0.42669215115E+02 -0.38824822609E+02  0.11203100975E+03  0.21402797928E+03  0.17300000000E+03 0. -1.
         -6    1    1    2    0  503  0.42669215115E+02  0.38824822609E+02  0.57484683253E+02  0.19121066282E+03  0.17300000000E+03 0. -1.
</event>
<event>
 4    1  0.5876320E+000  0.1000000E+03  0.7546771E-02  0.1280296E+00
         21   -1    0    0  501  502  0.00000000000E+00  0.00000000000E+00  0.14877846013E+03  0.14877846013E+03  0.00000000000E+00 0. -1.
         21   -1    0    0  502  503 -0.00000000000E+00 -0.00000000000E+00 -0.42013837575E+03  0.42013837575E+03  0.00000000000E+00 0. -1.
          6    1    1    2  501    0  0.23549426371E+02  0.28914255061E+02  0.65250542949E+02  0.18861930703E+03  0.17300000000E+03 0. -1.
         -6    1    1    2    0  503 -0.23549426371E+02 -0.28914255061E+02 -0.33661045857E+03  0.38029752885E+03  0.17300000000E+03 0. -1.
</event>
<event>
 4    1  0.5876320E+000  0.1000000E+03  0.7546771E-02  0.1280296E+00
         21   -1    0    0  501  502  0.00000000000E+00  0.00000000000E+00  0.29725134692E+03  0.29725134692E+03  0.00000000000E+00 0. -1.
         21   -1    0    0  502  503 -0.00000000000E+00 -0.00000000000E+00 -0.34863819881E+03  0.34863819881E+03  0.00000000000E+00 0. -1.
          6    1    1    2  501    0  0.18787109799E+03  0.48692476234E+02  0.16474614580E+03  0.30779343602E+03  0.17300000000E+03 0. -1.
         -6    1    1    2    0  503 -0.18787109799E+03 -0.48692476234E+02 -0.21613299770E+03  0.33809610970E+03  0.17300000000E+03 0. -1.
</event>
<event>
 4    1  0.5876320E+000  0.1000000E+03  0.7546771E-02  0.1280296E+00
         21   -1    0    0  503  502  0.00000000000E+00  0.00000000000E+00  0.36722259013E+03  0.36722259013E+03  0.00000000000E+00 0.  1.
         21   -1    0    0  501  503 -0.00000000000E+00 -0.00000000000E+00 -0.45029605452E+03  0.45029605452E+03  0.00000000000E+00 0.  1.
          6    1    1    2  501    0  0.10242670897E+03 -0.66465327624E+01 -0.39677972535E+03  0.44485790716E+03  0.17300000000E+03 0.  1.
         -6    1    1    2    0  502 -0.10242670897E+03  0.66465327624E+01  0.31370626096E+03  0.37266073750E+03  0.17300000000E+03 0.  1.
</event>
<event>
 4    1  0.5876320E+000  0.1000000E+03  0.7546771E-02  0.1280296E+00
         21   -1    0    0  503  502  0.00000000000E+00  0.00000000000E+00  0.86831157792E+02  0.86831157792E+02  0.00000000000E+00 0.  1.
         21   -1    0    0  501  503 -0.00000000000E+00 -0.00000000000E+00 -0.57405726197E+03  0.57405726197E+03  0.00000000000E+00 0.  1.
          6    1    1    2  501    0  0.13368748057E+03  0.93625357939E+01 -0.30908940758E+03  0.37871527751E+03  0.17300000000E+03 0.  1.
         -6    1    1    2    0  502 -0.13368748057E+03 -0.93625357939E+01 -0.17813669660E+03  0.28217314226E+03  0.17300000000E+03 0.  1.
</event>
<event>
 4    1  0.5876320E+000  0.1000000E+03  0.7546771E-02  0.1280296E+00
         21   -1    0    0  501  502  0.00000000000E+00  0.00000000000E+00  0.13138187158E+03  0.13138187158E+03  0.00000000000E+00 0.  1.
         21   -1    0    0  502  503 -0.00000000000E+00 -0.00000000000E+00 -0.58518997015E+03  0.58518997015E+03  0.00000000000E+00 0.  1.
          6    1    1    2  501    0 -0.63431115746E+02 -0.79308199717E+02 -0.47424588366E+03  0.51492859229E+03  0.17300000000E+03 0.  1.
         -6    1    1    2    0  503  0.63431115746E+02  0.79308199717E+02  0.20437785087E+02  0.20164324944E+03  0.17300000000E+03 0.  1.
</event>
<event>
 4    1  0.5876320E+000  0.1000000E+03  0.7546771E-02  0.1280296E+00
         21   -1    0    0  501  502  0.00000000000E+00  0.00000000000E+00  0.38006463627E+03  0.38006463627E+03  0.00000000000E+00 0.  1.
         21   -1    0    0  502  503 -0.00000000000E+00 -0.00000000000E+00 -0.14915471251E+03  0.14915471251E+03  0.00000000000E+00 0.  1.
          6    1    1    2  501    0  0.96633147043E+01  0.13395449635E+03  0.11660869918E+02  0.21932205232E+03  0.17300000000E+03 0.  1.
         -6    1    1    2    0  503 -0.96633147043E+01 -0.13395449635E+03  0.21924905385E+03  0.30989729647E+03  0.17300000000E+03 0.  1.
</event>
<event>
 4    1  0.5876320E+000  0.1000000E+03  0.7546771E-02  0.1280296E+00
         21   -1    0    0  501  502  0.00000000000E+00  0.00000000000E+00  0.20588069275E+03  0.20588069275E+03  0.00000000000E+00 0.  1.
         21   -1    0    0  502  503 -0.00000000000E+00 -0.00000000000E+00 -0.87879391765E+03  0.87879391765E+03  0.00000000000E+00 0.  1.
          6    1    1    2  501    0  0.69597848303E+02  0.27417808189E+03  0.32365585324E+01  0.33159758200E+03  0.17300000000E+03 0.  1.
         -6    1    1    2    0  503 -0.69597848303E+02 -0.27417808189E+03 -0.67614978343E+03  0.75307702840E+03  0.17300000000E+03 0.  1.
</event>
<event>
 4    1  0.5876320E+000  0.1000000E+03  0.7546771E-02  0.1280296E+00
         21   -1    0    0  503  502  0.00000000000E+00  0.00000000000E+00  0.64607825715E+02  0.64607825715E+02  0.00000000000E+00 0. -1.
         21   -1    0    0  501  503 -0.00000000000E+00 -0.00000000000E+00 -0.59007477619E+03  0.59007477619E+03  0.00000000000E+00 0. -1.
          6    1    1    2  501    0  0.35264615924E+02  0.40043134708E+01 -0.40234534148E+03  0.43939777136E+03  0.17300000000E+03 0. -1.
         -6    1    1    2    0  502 -0.35264615924E+02 -0.40043134708E+01 -0.12312160899E+03  0.21528483055E+03  0.17300000000E+03 0. -1.
</event>
<event>
 4    1  0.5876320E+000  0.1000000E+03  0.7546771E-02  0.1280296E+00
         21   -1    0    0  503  502  0.00000000000E+00  0.00000000000E+00  0.83151513513E+03  0.83151513513E+03  0.00000000000E+00 0. -1.
         21   -1    0    0  501  503 -0.00000000000E+00 -0.00000000000E+00 -0.86809328443E+02  0.86809328443E+02  0.00000000000E+00 0. -1.
          6    1    1    2  501    0  0.23970854170E+01  0.13951242385E+03  0.11438209315E+03  0.24996344865E+03  0.17300000000E+03 0. -1.
         -6    1    1    2    0  502 -0.23970854170E+01 -0.13951242385E+03  0.63032371353E+03  0.66836101492E+03  0.17300000000E+03 0. -1.
</event>
<event>
 4    1  0.5876320E+000  0.1000000E+03  0.7546771E-02  0.1280296E+00
         21   -1    0    0  503  502  0.00000000000E+00  0.00000000000E+00  0.31158483125E+03  0.31158483125E+03  0.00000000000E+00 0. -1.
         21   -1    0    0  501  503 -0.00000000000E+00 -0.00000000000E+00 -0.80308438981E+03  0.80308438981E+03  0.00000000000E+00 0. -1.
          6    1    1    2  501    0 -0.67937911249E+02 -0.81163926439E+02 -0.75522249583E+03  0.78198028168E+03  0.17300000000E+03 0. -1.
         -6    1    1    2    0  502  0.67937911249E+02  0.81163926439E+02  0.26372293727E+03  0.33268893937E+03  0.17300000000E+03 0. -1.
</event>
<event>
 4    1  0.5876320E+000  0.1000000E+03  0.7546771E-02  0.1280296E+00
         21   -1    0    0  503  502  0.00000000000E+00  0.00000000000E+00  0.65230731292E+03  0.65230731292E+03  0.00000000000E+00 0.  1.
         21   -1    0    0  501  503 -0.00000000000E+00 -0.00000000000E+00 -0.93989710030E+02  0.93989710030E+02  0.00000000000E+00 0. -1.
          6    1    1    2  501    0  0.14607806016E+02  0.48694436494E+02  0.23426058778E+02  0.18183046052E+03  0.17300000000E+03 0. -1.
         -6    1    1    2    0  502 -0.14607806016E+02 -0.48694436494E+02  0.53489154411E+03  0.56446656244E+03  0.17300000000E+03 0.  1.
</event>
<event>
 4    1  0.5876320E+000  0.1000000E+03  0.7546771E-02  0.1280296E+00
         21   -1    0    0  503  502  0.00000000000E+00  0.00000000000E+00  0.10553006800E+04  0.10553006800E+04  0.00000000000E+00 0.  1.
         21   -1    0    0  501  503 -0.00000000000E+00 -0.00000000000E+00 -0.10524810549E+03  0.10524810549E+03  0.00000000000E+00 0. -1.
          6    1    1    2  501    0 -0.17012038156E+03  0.87670455031E+02  0.10767768865E+03  0.27955417640E+03  0.17300000000E+03 0. -1.
         -6    1    1    2    0  502  0.17012038156E+03 -0.87670455031E+02  0.84237488583E+03  0.88099460906E+03  0.17300000000E+03 0.  1.
</event>
<event>
 4    1  0.5876320E+000  0.1000000E+03  0.7546771E-02  0.1280296E+00
         21   -1    0    0  501  502  0.00000000000E+00  0.00000000000E+00  0.33826298734E+03  0.33826298734E+03  0.00000000000E+00 0. -1.
         21   -1    0    0  502  503 -0.00000000000E+00 -0.00000000000E+00 -0.67746120468E+03  0.67746120468E+03  0.00000000000E+00 0. -1.
          6    1    1    2  501    0 -0.33247144626E+03  0.28547951007E+03 -0.25959007539E+03  0.53791432449E+03  0.17300000000E+03 0. -1.
         -6    1    1    2    0  503  0.33247144626E+03 -0.28547951007E+03 -0.79608141953E+02  0.47780986753E+03  0.17300000000E+03 0. -1.
</event>
<event>
 4    1  0.5876320E+000  0.1000000E+03  0.7546771E-02  0.1280296E+00
         21   -1    0    0  501  502  0.00000000000E+00  0.00000000000E+00  0.22669818572E+03  0.22669818572E+03  0.00000000000E+00 0. -1.
         21   -1    0    0  502  503 -0.00000000000E+00 -0.00000000000E+00 -0.21229529509E+03  0.21229529509E+03  0.00000000000E+00 0.  1.
          6    1    1    2  501    0 -0.54478641175E+02 -0.55525820891E+02  0.11747387352E+03  0.22311465682E+03  0.17300000000E+03 0. -1.
         -6    1    1    2    0  503  0.54478641175E+02  0.55525820891E+02 -0.10307098289E+03  0.21587882398E+03  0.17300000000E+03 0.  1.
</event>
<event>
 4    1  0.5876320E+000  0.1000000E+03  0.7546771E-02  0.1280296E+00
         21   -1    0    0  501  502  0.00000000000E+00  0.00000000000E+00  0.34813040721E+03  0.34813040721E+03  0.00000000000E+00 0. -1.
         21   -1    0    0  502  503 -0.00000000000E+00 -0.00000000000E+00 -0.23117602930E+03  0.23117602930E+03  0.00000000000E+00 0.  1.
          6    1    1    2  501    0  0.13169273046E+03 -0.17829469528E+03  0.96931069916E+02  0.29741655290E+03  0.17300000000E+03 0. -1.
         -6    1    1    2    0  503 -0.13169273046E+03  0.17829469528E+03  0.20023307993E+02  0.28188988361E+03  0.17300000000E+03 0.  1.
</event>
<event>
 4    1  0.5876320E+000  0.1000000E+03  0.7546771E-02  0.1280296E+00
         21   -1    0    0  501  502  0.00000000000E+00  0.00000000000E+00  0.12013721603E+04  0.12013721603E+04  0.00000000000E+00 0.  1.
         21   -1    0    0  502  503 -0.00000000000E+00 -0.00000000000E+00 -0.13813477295E+03  0.13813477295E+03  0.00000000000E+00 0. -1.
          6    1    1    2  501    0  0.63458615466E+02 -0.17502419468E+03  0.10550525974E+04  0.10852305966E+04  0.17300000000E+03 0.  1.
         -6    1    1    2    0  503 -0.63458615466E+02  0.17502419468E+03  0.81847900006E+01  0.25427633667E+03  0.17300000000E+03 0. -1.
</event>
<event>
 4    1  0.5876320E+000  0.1000000E+03  0.7546771E-02  0.1280296E+00
         21   -1    0    0  501  502  0.00000000000E+00  0.00000000000E+00  0.82352313614E+03  0.82352313614E+03  0.00000000000E+00 0.  1.
         21   -1    0    0  502  503 -0.00000000000E+00 -0.00000000000E+00 -0.86993673658E+02  0.86993673658E+02  0.00000000000E+00 0. -1.
          6    1    1    2  501    0 -0.20090106391E+02  0.14864194763E+02  0.71303705395E+03  0.73414943776E+03  0.17300000000E+03 0. -1.
         -6    1    1    2    0  503  0.20090106391E+02 -0.14864194763E+02  0.23492408533E+02  0.17636737204E+03  0.17300000000E+03 0.  1.
</event>
<event>
 4    1  0.5876320E+000  0.1000000E+03  0.7546771E-02  0.1280296E+00
         21   -1    0    0  501  502  0.00000000000E+00  0.00000000000E+00  0.19746918692E+03  0.19746918692E+03  0.00000000000E+00 0.  1.
         21   -1    0    0  502  503 -0.00000000000E+00 -0.00000000000E+00 -0.28389534500E+03  0.28389534500E+03  0.00000000000E+00 0.  1.
          6    1    1    2  501    0  0.12254031534E+03 -0.21788377093E+02  0.61644737117E+02  0.22185566451E+03  0.17300000000E+03 0. -1.
         -6    1    1    2    0  503 -0.12254031534E+03  0.21788377093E+02 -0.14807089520E+03  0.25950886741E+03  0.17300000000E+03 0. -1.
</event>
<event>
 4    1  0.5876320E+000  0.1000000E+03  0.7546771E-02  0.1280296E+00
         21   -1    0    0  501  502  0.00000000000E+00  0.00000000000E+00  0.41296637306E+02  0.41296637306E+02  0.00000000000E+00 0.  1.
         21   -1    0    0  502  503 -0.00000000000E+00 -0.00000000000E+00 -0.86729678244E+03  0.86729678244E+03  0.00000000000E+00 0.  1.
          6    1    1    2  501    0  0.69768528008E+02  0.23308649681E+02 -0.46539989756E+03  0.50193326778E+03  0.17300000000E+03 0. -1.
         -6    1    1    2    0  503 -0.69768528008E+02 -0.23308649681E+02 -0.36060024757E+03  0.40666015197E+03  0.17300000000E+03 0. -1.
</event>
<event>
 4    1  0.5876320E+000  0.1000000E+03  0.7546771E-02  0.1280296E+00
         21   -1    0    0  501  502  0.00000000000E+00  0.00000000000E+00  0.24049885607E+03  0.24049885607E+03  0.00000000000E+00 0.  1.
         21   -1    0    0  502  503 -0.00000000000E+00 -0.00000000000E+00 -0.26763995225E+03  0.26763995225E+03  0.00000000000E+00 0.  1.
          6    1    1    2  501    0  0.87495549418E+02 -0.17553695165E+02  0.14937191039E+03  0.24536619775E+03  0.17300000000E+03 0.  1.
         -6    1    1    2    0  503 -0.87495549418E+02  0.17553695165E+02 -0.17651300657E+03  0.26277261058E+03  0.17300000000E+03 0.  1.
</event>
<event>
 4    1  0.5876320E+000  0.1000000E+03  0.7546771E-02  0.1280296E+00
         21   -1    0    0  501  502  0.00000000000E+00  0.00000000000E+00  0.52609606494E+03  0.52609606494E+03  0.00000000000E+00 0.  1.
         21   -1    0    0  502  503 -0.00000000000E+00 -0.00000000000E+00 -0.76506253474E+03  0.76506253474E+03  0.00000000000E+00 0. -1.
          6    1    1    2  501    0 -0.31559104463E+03 -0.29645716514E+03  0.31829248302E+03  0.56455616457E+03  0.17300000000E+03 0.  1.
         -6    1    1    2    0  503  0.31559104463E+03  0.29645716514E+03 -0.55725895281E+03  0.72660243511E+03  0.17300000000E+03 0. -1.
</event>
<event>
 4    1  0.5876320E+000  0.1000000E+03  0.7546771E-02  0.1280296E+00
         21   -1    0    0  501  502  0.00000000000E+00  0.00000000000E+00  0.77702283309E+02  0.77702283309E+02  0.00000000000E+00 0.  1.
         21   -1    0    0  502  503 -0.00000000000E+00 -0.00000000000E+00 -0.42377114242E+03  0.42377114242E+03  0.00000000000E+00 0. -1.
          6    1    1    2  501    0  0.51719693550E+01 -0.54437922963E+02 -0.16894741964E+03  0.24791625063E+03  0.17300000000E+03 0.  1.
         -6    1    1    2    0  503 -0.51719693550E+01  0.54437922963E+02 -0.17712143947E+03  0.25355717510E+03  0.17300000000E+03 0. -1.
</event>
<event>
 4    1  0.5876320E+000  0.1000000E+03  0.7546771E-02  0.1280296E+00
         21   -1    0    0  501  502  0.00000000000E+00  0.00000000000E+00  0.22119903349E+03  0.22119903349E+03  0.00000000000E+00 0.  1.
         21   -1    0    0  502  503 -0.00000000000E+00 -0.00000000000E+00 -0.44871565415E+03  0.44871565415E+03  0.00000000000E+00 0. -1.
          6    1    1    2  501    0 -0.53985650992E+02 -0.26471230010E+02  0.15878296622E+03  0.24239679637E+03  0.17300000000E+03 0.  1.
         -6    1    1    2    0  503  0.53985650992E+02  0.26471230010E+02 -0.38629958688E+03  0.42751789127E+03  0.17300000000E+03 0. -1.
</event>
<event>
 4    1  0.5876320E+000  0.1000000E+03  0.7546771E-02  0.1280296E+00
         21   -1    0    0  501  502  0.00000000000E+00  0.00000000000E+00  0.27995142133E+03  0.27995142133E+03  0.00000000000E+00 0. -1.
         21   -1    0    0  502  503 -0.00000000000E+00 -0.00000000000E+00 -0.22782792929E+03  0.22782792929E+03  0.00000000000E+00 0.  1.
          6    1    1    2  501    0  0.15640739527E+03  0.88470225069E+02  0.65787396832E+02  0.25796750881E+03  0.17300000000E+03 0. -1.
         -6    1    1    2    0  503 -0.15640739527E+03 -0.88470225069E+02 -0.13663904790E+02  0.24981184182E+03  0.17300000000E+03 0.  1.
</event>
<event>
 4    1  0.5876320E+000  0.1000000E+03  0.7546771E-02  0.1280296E+00
         21   -1    0    0  501  502  0.00000000000E+00  0.00000000000E+00  0.53039890355E+03  0.53039890355E+03  0.00000000000E+00 0. -1.
         21   -1    0    0  502  503 -0.00000000000E+00 -0.00000000000E+00 -0.95838825132E+02  0.95838825132E+02  0.00000000000E+00 0.  1.
          6    1    1    2  501    0 -0.13754161528E+03  0.44565791567E+02  0.21734299726E+03  0.31316255231E+03  0.17300000000E+03 0. -1.
         -6    1    1    2    0  503  0.13754161528E+03 -0.44565791567E+02  0.21721708116E+03  0.31307517637E+03  0.17300000000E+03 0.  1.
</event>
<event>
 4    1  0.5876320E+000  0.1000000E+03  0.7546771E-02  0.1280296E+00
         21   -1    0    0  503  502  0.00000000000E+00  0.00000000000E+00  0.19688657383E+03  0.19688657383E+03  0.00000000000E+00 0.  1.
         21   -1    0    0  501  503 -0.00000000000E+00 -0.00000000000E+00 -0.24947183496E+03  0.24947183496E+03  0.00000000000E+00 0.  1.
          6    1    1    2  501    0  0.79271684608E+02 -0.99780782166E+02 -0.80973048518E+02  0.22962107712E+03  0.17300000000E+03 0.  1.
         -6    1    1    2    0  502 -0.79271684608E+02  0.99780782166E+02  0.28387787388E+02  0.21673733168E+03  0.17300000000E+03 0.  1.
</event>
<event>
 4    1  0.5876320E+000  0.1000000E+03  0.7546771E-02  0.1280296E+00
         21   -1    0    0  503  502  0.00000000000E+00  0.00000000000E+00  0.54479022779E+03  0.54479022779E+03  0.00000000000E+00 0.  1.
         21   -1    0    0  501  503 -0.00000000000E+00 -0.00000000000E+00 -0.10698564066E+03  0.10698564066E+03  0.00000000000E+00 0.  1.
          6    1    1    2  501    0 -0.55575448158E+02 -0.77403133911E+02  0.31490154623E+02  0.20000126353E+03  0.17300000000E+03 0.  1.
         -6    1    1    2    0  502  0.55575448158E+02  0.77403133911E+02  0.40631443252E+03  0.45177460492E+03  0.17300000000E+03 0.  1.
</event>
<event>
 4    1  0.5876320E+000  0.1000000E+03  0.7546771E-02  0.1280296E+00
         21   -1    0    0  503  502  0.00000000000E+00  0.00000000000E+00  0.69467439012E+02  0.69467439012E+02  0.00000000000E+00 0.  1.
         21   -1    0    0  501  503 -0.00000000000E+00 -0.00000000000E+00 -0.89070583122E+03  0.89070583122E+03  0.00000000000E+00 0.  1.
          6    1    1    2  501    0  0.53835791403E+02 -0.46983596277E+02 -0.72681457979E+03  0.75052926935E+03  0.17300000000E+03 0.  1.
         -6    1    1    2    0  502 -0.53835791403E+02  0.46983596277E+02 -0.94423812420E+02  0.20964400089E+03  0.17300000000E+03 0.  1.
</event>
<event>
 4    1  0.5876320E+000  0.1000000E+03  0.7546771E-02  0.1280296E+00
         21   -1    0    0  503  502  0.00000000000E+00  0.00000000000E+00  0.46313012241E+03  0.46313012241E+03  0.00000000000E+00 0.  1.
         21   -1    0    0  501  503 -0.00000000000E+00 -0.00000000000E+00 -0.15225779028E+03  0.15225779028E+03  0.00000000000E+00 0.  1.
          6    1    1    2  501    0 -0.12133368178E+03  0.48075861932E+02 -0.22392173884E+02  0.21786133270E+03  0.17300000000E+03 0.  1.
         -6    1    1    2    0  502  0.12133368178E+03 -0.48075861932E+02  0.33326450601E+03  0.39752657999E+03  0.17300000000E+03 0.  1.
</event>
<event>
 4    1  0.5876320E+000  0.1000000E+03  0.7546771E-02  0.1280296E+00
         21   -1    0    0  501  502  0.00000000000E+00  0.00000000000E+00  0.92389530328E+03  0.92389530328E+03  0.00000000000E+00 0. -1.
         21   -1    0    0  502  503 -0.00000000000E+00 -0.00000000000E+00 -0.13752858423E+03  0.13752858423E+03  0.00000000000E+00 0. -1.
          6    1    1    2  501    0 -0.57394604582E+02  0.34122012823E+02  0.84642652468E+03  0.86650176807E+03  0.17300000000E+03 0. -1.
         -6    1    1    2    0  503  0.57394604582E+02 -0.34122012823E+02 -0.60059805632E+02  0.19492211944E+03  0.17300000000E+03 0. -1.
</event>
<event>
 4    1  0.5876320E+000  0.1000000E+03  0.7546771E-02  0.1280296E+00
         21   -1    0    0  503  502  0.00000000000E+00  0.00000000000E+00  0.11249845668E+04  0.11249845668E+04  0.00000000000E+00 0. -1.
         21   -1    0    0  501  503 -0.00000000000E+00 -0.00000000000E+00 -0.20922177798E+03  0.20922177798E+03  0.00000000000E+00 0.  1.
          6    1    1    2  501    0  0.28497131014E+02 -0.13791806299E+03 -0.13451929102E+03  0.26049552440E+03  0.17300000000E+03 0.  1.
         -6    1    1    2    0  502 -0.28497131014E+02  0.13791806299E+03  0.10502820799E+04  0.10737108204E+04  0.17300000000E+03 0. -1.
</event>
<event>
 4    1  0.5876320E+000  0.1000000E+03  0.7546771E-02  0.1280296E+00
         21   -1    0    0  501  502  0.00000000000E+00  0.00000000000E+00  0.82970657071E+03  0.82970657071E+03  0.00000000000E+00 0.  1.
         21   -1    0    0  502  503 -0.00000000000E+00 -0.00000000000E+00 -0.18485014026E+03  0.18485014026E+03  0.00000000000E+00 0.  1.
          6    1    1    2  501    0 -0.18735494800E+03 -0.85698543760E+02  0.69107177881E+03  0.74158972512E+03  0.17300000000E+03 0.  1.
         -6    1    1    2    0  503  0.18735494800E+03  0.85698543760E+02 -0.46215348357E+02  0.27296698586E+03  0.17300000000E+03 0.  1.
</event>
<event>
 4    1  0.5876320E+000  0.1000000E+03  0.7546771E-02  0.1280296E+00
         21   -1    0    0  501  502  0.00000000000E+00  0.00000000000E+00  0.12555003266E+03  0.12555003266E+03  0.00000000000E+00 0.  1.
         21   -1    0    0  502  503 -0.00000000000E+00 -0.00000000000E+00 -0.47530683146E+03  0.47530683146E+03  0.00000000000E+00 0.  1.
          6    1    1    2  501    0 -0.22391119813E+02 -0.10902518846E+03 -0.12848707025E+02  0.20611148255E+03  0.17300000000E+03 0.  1.
         -6    1    1    2    0  503  0.22391119813E+02  0.10902518846E+03 -0.33690809177E+03  0.39474538157E+03  0.17300000000E+03 0.  1.
</event>
<event>
 4    1  0.5876320E+000  0.1000000E+03  0.7546771E-02  0.1280296E+00
         21   -1    0    0  503  502  0.00000000000E+00  0.00000000000E+00  0.43521949884E+02  0.43521949884E+02  0.00000000000E+00 0.  1.
         21   -1    0    0  501  503 -0.00000000000E+00 -0.00000000000E+00 -0.81159784518E+03  0.81159784518E+03  0.00000000000E+00 0. -1.
          6    1    1    2  501    0 -0.77842520738E+01 -0.21787243163E+02 -0.54260136271E+03  0.56998290971E+03  0.17300000000E+03 0. -1.
         -6    1    1    2    0  502  0.77842520738E+01  0.21787243163E+02 -0.22547453258E+03  0.28513688535E+03  0.17300000000E+03 0.  1.
</event>
<event>
 4    1  0.5876320E+000  0.1000000E+03  0.7546771E-02  0.1280296E+00
         21   -1    0    0  503  502  0.00000000000E+00  0.00000000000E+00  0.16989217988E+03  0.16989217988E+03  0.00000000000E+00 0.  1.
         21   -1    0    0  501  503 -0.00000000000E+00 -0.00000000000E+00 -0.22603180218E+03  0.22603180218E+03  0.00000000000E+00 0. -1.
          6    1    1    2  501    0 -0.21283390613E+01  0.46513207800E+02  0.52138502660E+02  0.18658893801E+03  0.17300000000E+03 0. -1.
         -6    1    1    2    0  502  0.21283390613E+01 -0.46513207800E+02 -0.10827812496E+03  0.20933504406E+03  0.17300000000E+03 0.  1.
</event>
<event>
 4    1  0.5876320E+000  0.1000000E+03  0.7546771E-02  0.1280296E+00
         21   -1    0    0  503  502  0.00000000000E+00  0.00000000000E+00  0.12198375146E+03  0.12198375146E+03  0.00000000000E+00 0.  1.
         21   -1    0    0  501  503 -0.00000000000E+00 -0.00000000000E+00 -0.47798140017E+03  0.47798140017E+03  0.00000000000E+00 0. -1.
          6    1    1    2  501    0 -0.25551868078E+02 -0.20169124716E+02 -0.38333156705E+03  0.42181960819E+03  0.17300000000E+03 0. -1.
         -6    1    1    2    0  502  0.25551868078E+02  0.20169124716E+02  0.27333918349E+02  0.17814554344E+03  0.17300000000E+03 0.  1.
</event>
<event>
 4    1  0.5876320E+000  0.1000000E+03  0.7546771E-02  0.1280296E+00
         21   -1    0    0  501  502  0.00000000000E+00  0.00000000000E+00  0.39266539790E+03  0.39266539790E+03  0.00000000000E+00 0.  1.
         21   -1    0    0  502  503 -0.00000000000E+00 -0.00000000000E+00 -0.19999000791E+03  0.19999000791E+03  0.00000000000E+00 0.  1.
          6    1    1    2  501    0 -0.55549216729E+02 -0.10251246187E+03  0.29418301152E+03  0.36064825604E+03  0.17300000000E+03 0.  1.
         -6    1    1    2    0  503  0.55549216729E+02  0.10251246187E+03 -0.10150762153E+03  0.23200714977E+03  0.17300000000E+03 0.  1.
</event>
<event>
 4    1  0.5876320E+000  0.1000000E+03  0.7546771E-02  0.1280296E+00
         21   -1    0    0  501  502  0.00000000000E+00  0.00000000000E+00  0.69544644942E+03  0.69544644942E+03  0.00000000000E+00 0.  1.
         21   -1    0    0  502  503 -0.00000000000E+00 -0.00000000000E+00 -0.45301774415E+03  0.45301774415E+03  0.00000000000E+00 0.  1.
          6    1    1    2  501    0 -0.30251164365E+03  0.18057263300E+03  0.53171329495E+03  0.66088410358E+03  0.17300000000E+03 0.  1.
         -6    1    1    2    0  503  0.30251164365E+03 -0.18057263300E+03 -0.28928458968E+03  0.48758009000E+03  0.17300000000E+03 0.  1.
</event>
<event>
 4    1  0.5876320E+000  0.1000000E+03  0.7546771E-02  0.1280296E+00
         21   -1    0    0  503  502  0.00000000000E+00  0.00000000000E+00  0.11914644587E+04  0.11914644587E+04  0.00000000000E+00 0. -1.
         21   -1    0    0  501  503 -0.00000000000E+00 -0.00000000000E+00 -0.34024567094E+02  0.34024567094E+02  0.00000000000E+00 0. -1.
          6    1    1    2  501    0  0.98115954787E+02 -0.12251008313E+02  0.49087308718E+03  0.52977562751E+03  0.17300000000E+03 0. -1.
         -6    1    1    2    0  502 -0.98115954787E+02  0.12251008313E+02  0.66656680446E+03  0.69571339832E+03  0.17300000000E+03 0. -1.
</event>
<event>
 4    1  0.5876320E+000  0.1000000E+03  0.7546771E-02  0.1280296E+00
         21   -1    0    0  503  502  0.00000000000E+00  0.00000000000E+00  0.18597372207E+03  0.18597372207E+03  0.00000000000E+00 0. -1.
         21   -1    0    0  501  503 -0.00000000000E+00 -0.00000000000E+00 -0.53915851311E+03  0.53915851311E+03  0.00000000000E+00 0. -1.
          6    1    1    2  501    0 -0.19660651429E+03 -0.11103572684E+03 -0.17288957683E+02  0.28497537114E+03  0.17300000000E+03 0. -1.
         -6    1    1    2    0  502  0.19660651429E+03  0.11103572684E+03 -0.33589583336E+03  0.44015686404E+03  0.17300000000E+03 0. -1.
</event>
<event>
 4    1  0.5876320E+000  0.1000000E+03  0.7546771E-02  0.1280296E+00
         21   -1    0    0  503  502  0.00000000000E+00  0.00000000000E+00  0.18980477064E+04  0.18980477064E+04  0.00000000000E+00 0. -1.
         21   -1    0    0  501  503 -0.00000000000E+00 -0.00000000000E+00 -0.25967696616E+02  0.25967696616E+02  0.00000000000E+00 0. -1.
          6    1    1    2  501    0 -0.65242232738E+02 -0.11192463557E+03  0.11559365012E+04  0.11759684807E+04  0.17300000000E+03 0. -1.
         -6    1    1    2    0  502  0.65242232738E+02  0.11192463557E+03  0.71614350860E+03  0.74804692225E+03  0.17300000000E+03 0. -1.
</event>
<event>
 4    1  0.5876320E+000  0.1000000E+03  0.7546771E-02  0.1280296E+00
         21   -1    0    0  501  502  0.00000000000E+00  0.00000000000E+00  0.14257432406E+04  0.14257432406E+04  0.00000000000E+00 0.  1.
         21   -1    0    0  502  503 -0.00000000000E+00 -0.00000000000E+00 -0.33893837882E+02  0.33893837882E+02  0.00000000000E+00 0. -1.
          6    1    1    2  501    0 -0.16724109988E+02  0.13291570989E+03  0.62560495893E+03  0.66276454826E+03  0.17300000000E+03 0.  1.
         -6    1    1    2    0  503  0.16724109988E+02 -0.13291570989E+03  0.76624444381E+03  0.79687253025E+03  0.17300000000E+03 0. -1.
</event>
<event>
 4    1  0.5876320E+000  0.1000000E+03  0.7546771E-02  0.1280296E+00
         21   -1    0    0  501  502  0.00000000000E+00  0.00000000000E+00  0.44668872132E+02  0.44668872132E+02  0.00000000000E+00 0.  1.
         21   -1    0    0  502  503 -0.00000000000E+00 -0.00000000000E+00 -0.85412447250E+03  0.85412447250E+03  0.00000000000E+00 0. -1.
          6    1    1    2  501    0  0.62243869604E+02 -0.49574439293E+01 -0.25342224408E+03  0.31313049891E+03  0.17300000000E+03 0.  1.
         -6    1    1    2    0  503 -0.62243869604E+02  0.49574439293E+01 -0.55603335629E+03  0.58566284572E+03  0.17300000000E+03 0. -1.
</event>
<event>
 4    1  0.5876320E+000  0.1000000E+03  0.7546771E-02  0.1280296E+00
         21   -1    0    0  503  502  0.00000000000E+00  0.00000000000E+00  0.62727484418E+03  0.62727484418E+03  0.00000000000E+00 0.  1.
         21   -1    0    0  501  503 -0.00000000000E+00 -0.00000000000E+00 -0.18304054467E+03  0.18304054467E+03  0.00000000000E+00 0.  1.
          6    1    1    2  501    0 -0.84510191671E+02 -0.27877959550E+03  0.21582480411E+03  0.40170807987E+03  0.17300000000E+03 0. -1.
         -6    1    1    2    0  502  0.84510191671E+02  0.27877959550E+03  0.22840949540E+03  0.40860730898E+03  0.17300000000E+03 0. -1.
</event>
<event>
 4    1  0.5876320E+000  0.1000000E+03  0.7546771E-02  0.1280296E+00
         21   -1    0    0  503  502  0.00000000000E+00  0.00000000000E+00  0.29979389419E+02  0.29979389419E+02  0.00000000000E+00 0.  1.
         21   -1    0    0  501  503 -0.00000000000E+00 -0.00000000000E+00 -0.14515917469E+04  0.14515917469E+04  0.00000000000E+00 0.  1.
          6    1    1    2  501    0  0.82717959140E+02  0.68716873024E+02 -0.87058702713E+03  0.89410012930E+03  0.17300000000E+03 0. -1.
         -6    1    1    2    0  502 -0.82717959140E+02 -0.68716873024E+02 -0.55102533035E+03  0.58747100702E+03  0.17300000000E+03 0. -1.
</event>
<event>
 4    1  0.5876320E+000  0.1000000E+03  0.7546771E-02  0.1280296E+00
         21   -1    0    0  503  502  0.00000000000E+00  0.00000000000E+00  0.14556509709E+04  0.14556509709E+04  0.00000000000E+00 0.  1.
         21   -1    0    0  501  503 -0.00000000000E+00 -0.00000000000E+00 -0.27699642673E+02  0.27699642673E+02  0.00000000000E+00 0.  1.
          6    1    1    2  501    0 -0.30047626854E+01 -0.16157553840E+01  0.33765802249E+03  0.37941214980E+03  0.17300000000E+03 0. -1.
         -6    1    1    2    0  502  0.30047626854E+01  0.16157553840E+01  0.10902933058E+04  0.11039384638E+04  0.17300000000E+03 0. -1.
</event>
<event>
 4    1  0.5876320E+000  0.1000000E+03  0.7546771E-02  0.1280296E+00
         21   -1    0    0  501  502  0.00000000000E+00  0.00000000000E+00  0.30714784018E+03  0.30714784018E+03  0.00000000000E+00 0. -1.
         21   -1    0    0  502  503 -0.00000000000E+00 -0.00000000000E+00 -0.30169111116E+03  0.30169111116E+03  0.00000000000E+00 0. -1.
          6    1    1    2  501    0  0.21687991140E+03  0.99084022240E+02  0.79414126790E+02  0.30510677306E+03  0.17300000000E+03 0. -1.
         -6    1    1    2    0  503 -0.21687991140E+03 -0.99084022240E+02 -0.73957397771E+02  0.30373217827E+03  0.17300000000E+03 0. -1.
</event>
<event>
 4    1  0.5876320E+000  0.1000000E+03  0.7546771E-02  0.1280296E+00
         21   -1    0    0  501  502  0.00000000000E+00  0.00000000000E+00  0.64571495213E+03  0.64571495213E+03  0.00000000000E+00 0. -1.
         21   -1    0    0  502  503 -0.00000000000E+00 -0.00000000000E+00 -0.22888336165E+03  0.22888336165E+03  0.00000000000E+00 0. -1.
          6    1    1    2  501    0 -0.34304066779E+03 -0.66012888884E+01  0.19476902137E+03  0.43079513514E+03  0.17300000000E+03 0. -1.
         -6    1    1    2    0  503  0.34304066779E+03  0.66012888884E+01  0.22206256911E+03  0.44380317864E+03  0.17300000000E+03 0. -1.
</event>
<event>
 4    1  0.5876320E+000  0.1000000E+03  0.7546771E-02  0.1280296E+00
         21   -1    0    0  503  502  0.00000000000E+00  0.00000000000E+00  0.90876299900E+02  0.90876299900E+02  0.00000000000E+00 0. -1.
         21   -1    0    0  501  503 -0.00000000000E+00 -0.00000000000E+00 -0.21587796379E+04  0.21587796379E+04  0.00000000000E+00 0.  1.
          6    1    1    2  501    0  0.18270140076E+03 -0.28472302564E+03 -0.16119761792E+04  0.16561531347E+04  0.17300000000E+03 0.  1.
         -6    1    1    2    0  502 -0.18270140076E+03  0.28472302564E+03 -0.45592715871E+03  0.59350280304E+03  0.17300000000E+03 0. -1.
</event>
<event>
 4    1  0.5876320E+000  0.1000000E+03  0.7546771E-02  0.1280296E+00
         21   -1    0    0  503  502  0.00000000000E+00  0.00000000000E+00  0.33576063590E+03  0.33576063590E+03  0.00000000000E+00 0. -1.
         21   -1    0    0  501  503 -0.00000000000E+00 -0.00000000000E+00 -0.14304824994E+03  0.14304824994E+03  0.00000000000E+00 0. -1.
          6    1    1    2  501    0  0.11707401524E+03 -0.64694633909E+02  0.11215809857E+03  0.24576443961E+03  0.17300000000E+03 0. -1.
         -6    1    1    2    0  502 -0.11707401524E+03  0.64694633909E+02  0.80554287393E+02  0.23304444623E+03  0.17300000000E+03 0. -1.
</event>
<event>
 4    1  0.5876320E+000  0.1000000E+03  0.7546771E-02  0.1280296E+00
         21   -1    0    0  503  502  0.00000000000E+00  0.00000000000E+00  0.18235841488E+03  0.18235841488E+03  0.00000000000E+00 0.  1.
         21   -1    0    0  501  503 -0.00000000000E+00 -0.00000000000E+00 -0.21021031204E+03  0.21021031204E+03  0.00000000000E+00 0.  1.
          6    1    1    2  501    0 -0.42754786369E+02 -0.43177192206E+02 -0.82746133172E+02  0.20116700584E+03  0.17300000000E+03 0.  1.
         -6    1    1    2    0  502  0.42754786369E+02  0.43177192206E+02  0.54894236013E+02  0.19140172108E+03  0.17300000000E+03 0.  1.
</event>
<event>
 4    1  0.5876320E+000  0.1000000E+03  0.7546771E-02  0.1280296E+00
         21   -1    0    0  503  502  0.00000000000E+00  0.00000000000E+00  0.57404694227E+03  0.57404694227E+03  0.00000000000E+00 0. -1.
         21   -1    0    0  501  503 -0.00000000000E+00 -0.00000000000E+00 -0.13098695476E+03  0.13098695476E+03  0.00000000000E+00 0. -1.
          6    1    1    2  501    0 -0.33843435868E+02  0.69864510594E+02 -0.33118704993E+02  0.19248967924E+03  0.17300000000E+03 0.  1.
         -6    1    1    2    0  502  0.33843435868E+02 -0.69864510594E+02  0.47617869251E+03  0.51254421779E+03  0.17300000000E+03 0.  1.
</event>
<event>
 4    1  0.5876320E+000  0.1000000E+03  0.7546771E-02  0.1280296E+00
         21   -1    0    0  503  502  0.00000000000E+00  0.00000000000E+00  0.98991952445E+03  0.98991952445E+03  0.00000000000E+00 0. -1.
         21   -1    0    0  501  503 -0.00000000000E+00 -0.00000000000E+00 -0.76698471863E+02  0.76698471863E+02  0.00000000000E+00 0. -1.
          6    1    1    2  501    0 -0.13309587121E+03 -0.13118909854E+03  0.25296098550E+03  0.35894755981E+03  0.17300000000E+03 0.  1.
         -6    1    1    2    0  502  0.13309587121E+03  0.13118909854E+03  0.66026006708E+03  0.70767043650E+03  0.17300000000E+03 0.  1.
</event>
<event>
 4    1  0.5876320E+000  0.1000000E+03  0.7546771E-02  0.1280296E+00
         21   -1    0    0  503  502  0.00000000000E+00  0.00000000000E+00  0.17676352598E+03  0.17676352598E+03  0.00000000000E+00 0.  1.
         21   -1    0    0  501  503 -0.00000000000E+00 -0.00000000000E+00 -0.43397425855E+03  0.43397425855E+03  0.00000000000E+00 0.  1.
          6    1    1    2  501    0 -0.12506849143E+02  0.17262557438E+02 -0.36591504877E+03  0.40531128788E+03  0.17300000000E+03 0.  1.
         -6    1    1    2    0  502  0.12506849143E+02 -0.17262557438E+02  0.10870431620E+03  0.20542649665E+03  0.17300000000E+03 0.  1.
</event>
<event>
 4    1  0.5876320E+000  0.1000000E+03  0.7546771E-02  0.1280296E+00
         21   -1    0    0  503  502  0.00000000000E+00  0.00000000000E+00  0.45082102583E+03  0.45082102583E+03  0.00000000000E+00 0.  1.
         21   -1    0    0  501  503 -0.00000000000E+00 -0.00000000000E+00 -0.22765657734E+03  0.22765657734E+03  0.00000000000E+00 0.  1.
          6    1    1    2  501    0 -0.13032188768E+02 -0.99474589758E+01 -0.17341216920E+03  0.24549861570E+03  0.17300000000E+03 0.  1.
         -6    1    1    2    0  502  0.13032188768E+02  0.99474589758E+01  0.39657661770E+03  0.43297898747E+03  0.17300000000E+03 0.  1.
</event>
<event>
 4    1  0.5876320E+000  0.1000000E+03  0.7546771E-02  0.1280296E+00
         21   -1    0    0  503  502  0.00000000000E+00  0.00000000000E+00  0.71559344864E+03  0.71559344864E+03  0.00000000000E+00 0.  1.
         21   -1    0    0  501  503 -0.00000000000E+00 -0.00000000000E+00 -0.13705169489E+03  0.13705169489E+03  0.00000000000E+00 0.  1.
          6    1    1    2  501    0  0.42492013825E+02  0.90373639707E+02 -0.39064316991E+02  0.20353866182E+03  0.17300000000E+03 0.  1.
         -6    1    1    2    0  502 -0.42492013825E+02 -0.90373639707E+02  0.61760607073E+03  0.64910648171E+03  0.17300000000E+03 0.  1.
</event>
<event>
 4    1  0.5876320E+000  0.1000000E+03  0.7546771E-02  0.1280296E+00
         21   -1    0    0  503  502  0.00000000000E+00  0.00000000000E+00  0.36916342602E+03  0.36916342602E+03  0.00000000000E+00 0.  1.
         21   -1    0    0  501  503 -0.00000000000E+00 -0.00000000000E+00 -0.11205036826E+03  0.11205036826E+03  0.00000000000E+00 0.  1.
          6    1    1    2  501    0  0.49960744224E+02  0.77507415428E+02  0.64493810913E+02  0.20637811671E+03  0.17300000000E+03 0.  1.
         -6    1    1    2    0  502 -0.49960744224E+02 -0.77507415428E+02  0.19261924685E+03  0.27483567757E+03  0.17300000000E+03 0.  1.
</event>
<event>
 4    1  0.5876320E+000  0.1000000E+03  0.7546771E-02  0.1280296E+00
         21   -1    0    0  503  502  0.00000000000E+00  0.00000000000E+00  0.27277975768E+03  0.27277975768E+03  0.00000000000E+00 0.  1.
         21   -1    0    0  501  503 -0.00000000000E+00 -0.00000000000E+00 -0.28383905846E+03  0.28383905846E+03  0.00000000000E+00 0.  1.
          6    1    1    2  501    0 -0.12839714431E+03  0.31183720903E+02 -0.17887947371E+03  0.28175364635E+03  0.17300000000E+03 0.  1.
         -6    1    1    2    0  502  0.12839714431E+03 -0.31183720903E+02  0.16782017293E+03  0.27486516979E+03  0.17300000000E+03 0.  1.
</event>
<event>
 4    1  0.5876320E+000  0.1000000E+03  0.7546771E-02  0.1280296E+00
         21   -1    0    0  501  502  0.00000000000E+00  0.00000000000E+00  0.12246718620E+03  0.12246718620E+03  0.00000000000E+00 0.  1.
         21   -1    0    0  502  503 -0.00000000000E+00 -0.00000000000E+00 -0.73942046896E+03  0.73942046896E+03  0.00000000000E+00 0.  1.
          6    1    1    2  501    0  0.18731176146E+03  0.15981252997E+03 -0.30856181127E+03  0.43100479358E+03  0.17300000000E+03 0.  1.
         -6    1    1    2    0  503 -0.18731176146E+03 -0.15981252997E+03 -0.30839147149E+03  0.43088286158E+03  0.17300000000E+03 0.  1.
</event>
<event>
 4    1  0.5876320E+000  0.1000000E+03  0.7546771E-02  0.1280296E+00
         21   -1    0    0  501  502  0.00000000000E+00  0.00000000000E+00  0.47071688889E+03  0.47071688889E+03  0.00000000000E+00 0.  1.
         21   -1    0    0  502  503 -0.00000000000E+00 -0.00000000000E+00 -0.68142942779E+02  0.68142942779E+02  0.00000000000E+00 0.  1.
          6    1    1    2  501    0 -0.44644201766E+01 -0.43221450357E+02  0.17707595324E+03  0.25134223289E+03  0.17300000000E+03 0.  1.
         -6    1    1    2    0  503  0.44644201766E+01  0.43221450357E+02  0.22549799288E+03  0.28751759878E+03  0.17300000000E+03 0.  1.
</event>
<event>
 4    1  0.5876320E+000  0.1000000E+03  0.7546771E-02  0.1280296E+00
         21   -1    0    0  503  502  0.00000000000E+00  0.00000000000E+00  0.10228665996E+03  0.10228665996E+03  0.00000000000E+00 0. -1.
         21   -1    0    0  501  503 -0.00000000000E+00 -0.00000000000E+00 -0.26451160552E+04  0.26451160552E+04  0.00000000000E+00 0. -1.
          6    1    1    2  501    0  0.11737278047E+03  0.15165271155E+03 -0.24638158725E+04  0.24773155972E+04  0.17300000000E+03 0. -1.
         -6    1    1    2    0  502 -0.11737278047E+03 -0.15165271155E+03 -0.79013522729E+02  0.27008711796E+03  0.17300000000E+03 0. -1.
</event>
<event>
 4    1  0.5876320E+000  0.1000000E+03  0.7546771E-02  0.1280296E+00
         21   -1    0    0  503  502  0.00000000000E+00  0.00000000000E+00  0.11598206953E+03  0.11598206953E+03  0.00000000000E+00 0. -1.
         21   -1    0    0  501  503 -0.00000000000E+00 -0.00000000000E+00 -0.19460807463E+04  0.19460807463E+04  0.00000000000E+00 0. -1.
          6    1    1    2  501    0  0.18109880469E+03  0.12988444660E+02 -0.17907276129E+04  0.18082034898E+04  0.17300000000E+03 0. -1.
         -6    1    1    2    0  502 -0.18109880469E+03 -0.12988444660E+02 -0.39371063837E+02  0.25385932605E+03  0.17300000000E+03 0. -1.
</event>
<event>
 4    1  0.5876320E+000  0.1000000E+03  0.7546771E-02  0.1280296E+00
         21   -1    0    0  503  502  0.00000000000E+00  0.00000000000E+00  0.79970359228E+03  0.79970359228E+03  0.00000000000E+00 0. -1.
         21   -1    0    0  501  503 -0.00000000000E+00 -0.00000000000E+00 -0.51090784581E+02  0.51090784581E+02  0.00000000000E+00 0. -1.
          6    1    1    2  501    0 -0.43552358036E+02 -0.63066831003E+01  0.17474130852E+03  0.24980013420E+03  0.17300000000E+03 0. -1.
         -6    1    1    2    0  502  0.43552358036E+02  0.63066831003E+01  0.57387149918E+03  0.60099424266E+03  0.17300000000E+03 0. -1.
</event>
<event>
 4    1  0.5876320E+000  0.1000000E+03  0.7546771E-02  0.1280296E+00
         21   -1    0    0  503  502  0.00000000000E+00  0.00000000000E+00  0.10418048667E+03  0.10418048667E+03  0.00000000000E+00 0. -1.
         21   -1    0    0  501  503 -0.00000000000E+00 -0.00000000000E+00 -0.61915794666E+03  0.61915794666E+03  0.00000000000E+00 0. -1.
          6    1    1    2  501    0  0.31243589000E+02  0.24041284034E+02 -0.51625814469E+03  0.54589890745E+03  0.17300000000E+03 0. -1.
         -6    1    1    2    0  502 -0.31243589000E+02 -0.24041284034E+02  0.12806847041E+01  0.17743952588E+03  0.17300000000E+03 0. -1.
</event>
<event>
 4    1  0.5876320E+000  0.1000000E+03  0.7546771E-02  0.1280296E+00
         21   -1    0    0  503  502  0.00000000000E+00  0.00000000000E+00  0.24368025277E+03  0.24368025277E+03  0.00000000000E+00 0. -1.
         21   -1    0    0  501  503 -0.00000000000E+00 -0.00000000000E+00 -0.24077166957E+03  0.24077166957E+03  0.00000000000E+00 0. -1.
          6    1    1    2  501    0  0.22862662709E+02  0.11806721902E+03 -0.11804569375E+03  0.24150849957E+03  0.17300000000E+03 0. -1.
         -6    1    1    2    0  502 -0.22862662709E+02 -0.11806721902E+03  0.12095427695E+03  0.24294342276E+03  0.17300000000E+03 0. -1.
</event>
<event>
 4    1  0.5876320E+000  0.1000000E+03  0.7546771E-02  0.1280296E+00
         21   -1    0    0  503  502  0.00000000000E+00  0.00000000000E+00  0.31183133863E+02  0.31183133863E+02  0.00000000000E+00 0.  1.
         21   -1    0    0  501  503 -0.00000000000E+00 -0.00000000000E+00 -0.18590839288E+04  0.18590839288E+04  0.00000000000E+00 0.  1.
          6    1    1    2  501    0  0.43741320645E+02 -0.60359040785E+02 -0.15025841621E+04  0.15143462884E+04  0.17300000000E+03 0.  1.
         -6    1    1    2    0  502 -0.43741320645E+02  0.60359040785E+02 -0.32531663283E+03  0.37592077427E+03  0.17300000000E+03 0.  1.
</event>
<event>
 4    1  0.5876320E+000  0.1000000E+03  0.7546771E-02  0.1280296E+00
         21   -1    0    0  503  502  0.00000000000E+00  0.00000000000E+00  0.10690624895E+04  0.10690624895E+04  0.00000000000E+00 0.  1.
         21   -1    0    0  501  503 -0.00000000000E+00 -0.00000000000E+00 -0.47968043629E+02  0.47968043629E+02  0.00000000000E+00 0.  1.
          6    1    1    2  501    0  0.12358383261E+03  0.58094544706E+02  0.63879578901E+03  0.67574921373E+03  0.17300000000E+03 0.  1.
         -6    1    1    2    0  502 -0.12358383261E+03 -0.58094544706E+02  0.38229865685E+03  0.44128131939E+03  0.17300000000E+03 0.  1.
</event>
<event>
 4    1  0.5876320E+000  0.1000000E+03  0.7546771E-02  0.1280296E+00
         21   -1    0    0  501  502  0.00000000000E+00  0.00000000000E+00  0.28607057033E+02  0.28607057033E+02  0.00000000000E+00 0.  1.
         21   -1    0    0  502  503 -0.00000000000E+00 -0.00000000000E+00 -0.15170350923E+04  0.15170350923E+04  0.00000000000E+00 0.  1.
          6    1    1    2  501    0  0.40604558790E+02 -0.12933886975E+02 -0.34375189399E+03  0.38718261873E+03  0.17300000000E+03 0.  1.
         -6    1    1    2    0  503 -0.40604558790E+02  0.12933886975E+02 -0.11446761412E+04  0.11584595306E+04  0.17300000000E+03 0.  1.
</event>
<event>
 4    1  0.5876320E+000  0.1000000E+03  0.7546771E-02  0.1280296E+00
         21   -1    0    0  501  502  0.00000000000E+00  0.00000000000E+00  0.12578781174E+03  0.12578781174E+03  0.00000000000E+00 0.  1.
         21   -1    0    0  502  503 -0.00000000000E+00 -0.00000000000E+00 -0.63359535585E+03  0.63359535585E+03  0.00000000000E+00 0.  1.
          6    1    1    2  501    0  0.15255320864E+02  0.13927214040E+03 -0.20408451404E+02  0.22355079690E+03  0.17300000000E+03 0.  1.
         -6    1    1    2    0  503 -0.15255320864E+02 -0.13927214040E+03 -0.48739909271E+03  0.53583237069E+03  0.17300000000E+03 0.  1.
</event>
<event>
 4    1  0.5876320E+000  0.1000000E+03  0.7546771E-02  0.1280296E+00
         21   -1    0    0  501  502  0.00000000000E+00  0.00000000000E+00  0.87954270487E+03  0.87954270487E+03  0.00000000000E+00 0.  1.
         21   -1    0    0  502  503 -0.00000000000E+00 -0.00000000000E+00 -0.17094311961E+03  0.17094311961E+03  0.00000000000E+00 0.  1.
          6    1    1    2  501    0  0.11733966221E+02  0.35952448848E+02  0.82156746320E+03  0.84043581618E+03  0.17300000000E+03 0.  1.
         -6    1    1    2    0  503 -0.11733966221E+02 -0.35952448848E+02 -0.11296787793E+03  0.21005000830E+03  0.17300000000E+03 0.  1.
</event>
<event>
 4    1  0.5876320E+000  0.1000000E+03  0.7546771E-02  0.1280296E+00
         21   -1    0    0  501  502  0.00000000000E+00  0.00000000000E+00  0.57389982869E+03  0.57389982869E+03  0.00000000000E+00 0.  1.
         21   -1    0    0  502  503 -0.00000000000E+00 -0.00000000000E+00 -0.13778431211E+03  0.13778431211E+03  0.00000000000E+00 0.  1.
          6    1    1    2  501    0 -0.33806403702E+01 -0.18814752936E+03  0.36635918745E+03  0.44672024328E+03  0.17300000000E+03 0.  1.
         -6    1    1    2    0  503  0.33806403702E+01  0.18814752936E+03  0.69756329129E+02  0.26496389752E+03  0.17300000000E+03 0.  1.
</event>
<event>
 4    1  0.5876320E+000  0.1000000E+03  0.7546771E-02  0.1280296E+00
         21   -1    0    0  501  502  0.00000000000E+00  0.00000000000E+00  0.14496854689E+03  0.14496854689E+03  0.00000000000E+00 0.  1.
         21   -1    0    0  502  503 -0.00000000000E+00 -0.00000000000E+00 -0.25698034846E+03  0.25698034846E+03  0.00000000000E+00 0.  1.
          6    1    1    2  501    0 -0.85507614719E+02  0.36760342645E+01 -0.55956025312E+02  0.20096054879E+03  0.17300000000E+03 0.  1.
         -6    1    1    2    0  503  0.85507614719E+02 -0.36760342645E+01 -0.56055776257E+02  0.20098834656E+03  0.17300000000E+03 0.  1.
</event>
<event>
 4    1  0.5876320E+000  0.1000000E+03  0.7546771E-02  0.1280296E+00
         21   -1    0    0  503  502  0.00000000000E+00  0.00000000000E+00  0.57838260059E+03  0.57838260059E+03  0.00000000000E+00 0.  1.
         21   -1    0    0  501  503 -0.00000000000E+00 -0.00000000000E+00 -0.14713970724E+03  0.14713970724E+03  0.00000000000E+00 0. -1.
          6    1    1    2  501    0 -0.11603636485E+03 -0.70034799960E+02 -0.22939896136E+02  0.22096277969E+03  0.17300000000E+03 0. -1.
         -6    1    1    2    0  502  0.11603636485E+03  0.70034799960E+02  0.45418278948E+03  0.50455952814E+03  0.17300000000E+03 0.  1.
</event>
<event>
 4    1  0.5876320E+000  0.1000000E+03  0.7546771E-02  0.1280296E+00
         21   -1    0    0  503  502  0.00000000000E+00  0.00000000000E+00  0.34873829348E+03  0.34873829348E+03  0.00000000000E+00 0. -1.
         21   -1    0    0  501  503 -0.00000000000E+00 -0.00000000000E+00 -0.11746050689E+03  0.11746050689E+03  0.00000000000E+00 0. -1.
          6    1    1    2  501    0  0.11307170892E+02  0.19799481296E+02 -0.24561200643E+01  0.17451333502E+03  0.17300000000E+03 0. -1.
         -6    1    1    2    0  502 -0.11307170892E+02 -0.19799481296E+02  0.23373390665E+03  0.29168546534E+03  0.17300000000E+03 0. -1.
</event>
<event>
 4    1  0.5876320E+000  0.1000000E+03  0.7546771E-02  0.1280296E+00
         21   -1    0    0  503  502  0.00000000000E+00  0.00000000000E+00  0.14075584761E+04  0.14075584761E+04  0.00000000000E+00 0. -1.
         21   -1    0    0  501  503 -0.00000000000E+00 -0.00000000000E+00 -0.68621492265E+02  0.68621492265E+02  0.00000000000E+00 0. -1.
          6    1    1    2  501    0  0.67568322269E+02 -0.29000687644E+01  0.77712844731E+02  0.20135087487E+03  0.17300000000E+03 0. -1.
         -6    1    1    2    0  502 -0.67568322269E+02  0.29000687644E+01  0.12612241391E+04  0.12748290935E+04  0.17300000000E+03 0. -1.
</event>
<event>
 4    1  0.5876320E+000  0.1000000E+03  0.7546771E-02  0.1280296E+00
         21   -1    0    0  503  502  0.00000000000E+00  0.00000000000E+00  0.10966916328E+03  0.10966916328E+03  0.00000000000E+00 0. -1.
         21   -1    0    0  501  503 -0.00000000000E+00 -0.00000000000E+00 -0.94123550861E+03  0.94123550861E+03  0.00000000000E+00 0. -1.
          6    1    1    2  501    0 -0.74591842555E+02 -0.23481322164E+03 -0.23224379740E+03  0.38022016446E+03  0.17300000000E+03 0. -1.
         -6    1    1    2    0  502  0.74591842555E+02  0.23481322164E+03 -0.59932254793E+03  0.67068450742E+03  0.17300000000E+03 0. -1.
</event>
<event>
 4    1  0.5876320E+000  0.1000000E+03  0.7546771E-02  0.1280296E+00
         21   -1    0    0  501  502  0.00000000000E+00  0.00000000000E+00  0.44768627748E+03  0.44768627748E+03  0.00000000000E+00 0. -1.
         21   -1    0    0  502  503 -0.00000000000E+00 -0.00000000000E+00 -0.10609203809E+03  0.10609203809E+03  0.00000000000E+00 0.  1.
          6    1    1    2  501    0 -0.65625636596E+02 -0.11093779006E+03  0.13157496568E+03  0.25269524934E+03  0.17300000000E+03 0.  1.
         -6    1    1    2    0  503  0.65625636596E+02  0.11093779006E+03  0.21001927371E+03  0.30108306623E+03  0.17300000000E+03 0. -1.
</event>
<event>
 4    1  0.5876320E+000  0.1000000E+03  0.7546771E-02  0.1280296E+00
         21   -1    0    0  503  502  0.00000000000E+00  0.00000000000E+00  0.15514489701E+04  0.15514489701E+04  0.00000000000E+00 0. -1.
         21   -1    0    0  501  503 -0.00000000000E+00 -0.00000000000E+00 -0.98237401168E+02  0.98237401168E+02  0.00000000000E+00 0. -1.
          6    1    1    2  501    0  0.92997154926E+01  0.99881941641E+01 -0.12265313532E+02  0.17397036140E+03  0.17300000000E+03 0. -1.
         -6    1    1    2    0  502 -0.92997154926E+01 -0.99881941641E+01  0.14654768825E+04  0.14757160099E+04  0.17300000000E+03 0. -1.
</event>
<event>
 4    1  0.5876320E+000  0.1000000E+03  0.7546771E-02  0.1280296E+00
         21   -1    0    0  503  502  0.00000000000E+00  0.00000000000E+00  0.99023413824E+02  0.99023413824E+02  0.00000000000E+00 0.  1.
         21   -1    0    0  501  503 -0.00000000000E+00 -0.00000000000E+00 -0.31210255740E+03  0.31210255740E+03  0.00000000000E+00 0. -1.
          6    1    1    2  501    0 -0.30175085804E+02 -0.23648046161E+01 -0.97457115823E+02  0.20085571321E+03  0.17300000000E+03 0. -1.
         -6    1    1    2    0  502  0.30175085804E+02  0.23648046161E+01 -0.11562202776E+03  0.21027025802E+03  0.17300000000E+03 0. -1.
</event>
<event>
 4    1  0.5876320E+000  0.1000000E+03  0.7546771E-02  0.1280296E+00
         21   -1    0    0  503  502  0.00000000000E+00  0.00000000000E+00  0.60318504252E+03  0.60318504252E+03  0.00000000000E+00 0.  1.
         21   -1    0    0  501  503 -0.00000000000E+00 -0.00000000000E+00 -0.41797944180E+03  0.41797944180E+03  0.00000000000E+00 0. -1.
          6    1    1    2  501    0  0.16380346247E+03  0.20218138670E+01 -0.35684000714E+03  0.42906812133E+03  0.17300000000E+03 0. -1.
         -6    1    1    2    0  502 -0.16380346247E+03 -0.20218138670E+01  0.54204560786E+03  0.59209636298E+03  0.17300000000E+03 0. -1.
</event>
<event>
 4    1  0.5876320E+000  0.1000000E+03  0.7546771E-02  0.1280296E+00
         21   -1    0    0  503  502  0.00000000000E+00  0.00000000000E+00  0.18753352697E+03  0.18753352697E+03  0.00000000000E+00 0.  1.
         21   -1    0    0  501  503 -0.00000000000E+00 -0.00000000000E+00 -0.45069778518E+03  0.45069778518E+03  0.00000000000E+00 0.  1.
          6    1    1    2  501    0  0.10540876005E+03 -0.80738689980E+02 -0.34261245025E+03  0.40613056253E+03  0.17300000000E+03 0.  1.
         -6    1    1    2    0  502 -0.10540876005E+03  0.80738689980E+02  0.79448192034E+02  0.23210074962E+03  0.17300000000E+03 0.  1.
</event>
<event>
 4    1  0.5876320E+000  0.1000000E+03  0.7546771E-02  0.1280296E+00
         21   -1    0    0  503  502  0.00000000000E+00  0.00000000000E+00  0.31795819213E+03  0.31795819213E+03  0.00000000000E+00 0. -1.
         21   -1    0    0  501  503 -0.00000000000E+00 -0.00000000000E+00 -0.19083568002E+03  0.19083568002E+03  0.00000000000E+00 0. -1.
          6    1    1    2  501    0 -0.88963456098E+02 -0.76568876191E+02 -0.70980446010E+02  0.22078159579E+03  0.17300000000E+03 0. -1.
         -6    1    1    2    0  502  0.88963456098E+02  0.76568876191E+02  0.19810295812E+03  0.28801227637E+03  0.17300000000E+03 0. -1.
</event>
<event>
 4    1  0.5876320E+000  0.1000000E+03  0.7546771E-02  0.1280296E+00
         21   -1    0    0  503  502  0.00000000000E+00  0.00000000000E+00  0.20421364459E+04  0.20421364459E+04  0.00000000000E+00 0.  1.
         21   -1    0    0  501  503 -0.00000000000E+00 -0.00000000000E+00 -0.30914240211E+02  0.30914240211E+02  0.00000000000E+00 0.  1.
          6    1    1    2  501    0  0.10692591563E+03 -0.16517803275E+02  0.40077435475E+03  0.44972777620E+03  0.17300000000E+03 0.  1.
         -6    1    1    2    0  502 -0.10692591563E+03  0.16517803275E+02  0.16104478509E+04  0.16233229099E+04  0.17300000000E+03 0.  1.
</event>
<event>
 4    1  0.5876320E+000  0.1000000E+03  0.7546771E-02  0.1280296E+00
         21   -1    0    0  501  502  0.00000000000E+00  0.00000000000E+00  0.58087681435E+02  0.58087681435E+02  0.00000000000E+00 0.  1.
         21   -1    0    0  502  503 -0.00000000000E+00 -0.00000000000E+00 -0.90948171603E+03  0.90948171603E+03  0.00000000000E+00 0.  1.
          6    1    1    2  501    0 -0.12901622964E+03  0.66593159249E+01 -0.25981506555E+03  0.33782007384E+03  0.17300000000E+03 0.  1.
         -6    1    1    2    0  503  0.12901622964E+03 -0.66593159249E+01 -0.59157896905E+03  0.62974932363E+03  0.17300000000E+03 0.  1.
</event>
<event>
 4    1  0.5876320E+000  0.1000000E+03  0.7546771E-02  0.1280296E+00
         21   -1    0    0  501  502  0.00000000000E+00  0.00000000000E+00  0.18426291713E+03  0.18426291713E+03  0.00000000000E+00 0.  1.
         21   -1    0    0  502  503 -0.00000000000E+00 -0.00000000000E+00 -0.18987620671E+03  0.18987620671E+03  0.00000000000E+00 0.  1.
          6    1    1    2  501    0 -0.45286657396E+02 -0.52222601403E+02  0.13930301216E+02  0.18681845393E+03  0.17300000000E+03 0.  1.
         -6    1    1    2    0  503  0.45286657396E+02  0.52222601403E+02 -0.19543590791E+02  0.18732066991E+03  0.17300000000E+03 0.  1.
</event>
<event>
 4    1  0.5876320E+000  0.1000000E+03  0.7546771E-02  0.1280296E+00
         21   -1    0    0  501  502  0.00000000000E+00  0.00000000000E+00  0.90738273758E+02  0.90738273758E+02  0.00000000000E+00 0.  1.
         21   -1    0    0  502  503 -0.00000000000E+00 -0.00000000000E+00 -0.55586621183E+03  0.55586621183E+03  0.00000000000E+00 0.  1.
          6    1    1    2  501    0 -0.54767826057E+01  0.14277396957E+03 -0.21853742835E+03  0.31321240257E+03  0.17300000000E+03 0.  1.
         -6    1    1    2    0  503  0.54767826057E+01 -0.14277396957E+03 -0.24659050972E+03  0.33339208302E+03  0.17300000000E+03 0.  1.
</event>
<event>
 4    1  0.5876320E+000  0.1000000E+03  0.7546771E-02  0.1280296E+00
         21   -1    0    0  503  502  0.00000000000E+00  0.00000000000E+00  0.20431192672E+04  0.20431192672E+04  0.00000000000E+00 0. -1.
         21   -1    0    0  501  503 -0.00000000000E+00 -0.00000000000E+00 -0.82130988119E+02  0.82130988119E+02  0.00000000000E+00 0.  1.
          6    1    1    2  501    0 -0.32223708752E+03 -0.14829293589E+03  0.69577491709E+03  0.79991203933E+03  0.17300000000E+03 0.  1.
         -6    1    1    2    0  502  0.32223708752E+03  0.14829293589E+03  0.12652133620E+04  0.13253382160E+04  0.17300000000E+03 0. -1.
</event>
<event>
 4    1  0.5876320E+000  0.1000000E+03  0.7546771E-02  0.1280296E+00
         21   -1    0    0  503  502  0.00000000000E+00  0.00000000000E+00  0.66446994388E+03  0.66446994388E+03  0.00000000000E+00 0. -1.
         21   -1    0    0  501  503 -0.00000000000E+00 -0.00000000000E+00 -0.11434189447E+03  0.11434189447E+03  0.00000000000E+00 0.  1.
          6    1    1    2  501    0  0.27172006095E+02  0.19859796662E+03  0.16684149733E+03  0.31296094883E+03  0.17300000000E+03 0.  1.
         -6    1    1    2    0  502 -0.27172006095E+02 -0.19859796662E+03  0.38328655207E+03  0.46585088952E+03  0.17300000000E+03 0. -1.
</event>
<event>
 4    1  0.5876320E+000  0.1000000E+03  0.7546771E-02  0.1280296E+00
         21   -1    0    0  501  502  0.00000000000E+00  0.00000000000E+00  0.38042619256E+03  0.38042619256E+03  0.00000000000E+00 0. -1.
         21   -1    0    0  502  503 -0.00000000000E+00 -0.00000000000E+00 -0.13111536598E+03  0.13111536598E+03  0.00000000000E+00 0.  1.
          6    1    1    2  501    0  0.34106879636E+02  0.13287825661E+03  0.16316630566E+03  0.27453989441E+03  0.17300000000E+03 0.  1.
         -6    1    1    2    0  503 -0.34106879636E+02 -0.13287825661E+03  0.86144520921E+02  0.23700166413E+03  0.17300000000E+03 0. -1.
</event>
<event>
 4    1  0.5876320E+000  0.1000000E+03  0.7546771E-02  0.1280296E+00
         21   -1    0    0  501  502  0.00000000000E+00  0.00000000000E+00  0.39900727605E+03  0.39900727605E+03  0.00000000000E+00 0. -1.
         21   -1    0    0  502  503 -0.00000000000E+00 -0.00000000000E+00 -0.50176547577E+03  0.50176547577E+03  0.00000000000E+00 0.  1.
          6    1    1    2  501    0 -0.40376182545E+03  0.77318791197E+02 -0.87352836942E+02  0.45449018173E+03  0.17300000000E+03 0.  1.
         -6    1    1    2    0  503  0.40376182545E+03 -0.77318791197E+02 -0.15405362778E+02  0.44628257009E+03  0.17300000000E+03 0. -1.
</event>
<event>
 4    1  0.5876320E+000  0.1000000E+03  0.7546771E-02  0.1280296E+00
         21   -1    0    0  501  502  0.00000000000E+00  0.00000000000E+00  0.10269489535E+03  0.10269489535E+03  0.00000000000E+00 0. -1.
         21   -1    0    0  502  503 -0.00000000000E+00 -0.00000000000E+00 -0.65255911856E+03  0.65255911856E+03  0.00000000000E+00 0.  1.
          6    1    1    2  501    0 -0.49772338485E+02 -0.39689792902E+02 -0.98061829521E+01  0.18460153456E+03  0.17300000000E+03 0.  1.
         -6    1    1    2    0  503  0.49772338485E+02  0.39689792902E+02 -0.54005804026E+03  0.57065247935E+03  0.17300000000E+03 0. -1.
</event>
<event>
 4    1  0.5876320E+000  0.1000000E+03  0.7546771E-02  0.1280296E+00
         21   -1    0    0  503  502  0.00000000000E+00  0.00000000000E+00  0.63089721191E+03  0.63089721191E+03  0.00000000000E+00 0.  1.
         21   -1    0    0  501  503 -0.00000000000E+00 -0.00000000000E+00 -0.14881794297E+03  0.14881794297E+03  0.00000000000E+00 0.  1.
          6    1    1    2  501    0 -0.10634202747E+03 -0.12358384238E+03 -0.49452421209E+01  0.23777099975E+03  0.17300000000E+03 0. -1.
         -6    1    1    2    0  502  0.10634202747E+03  0.12358384238E+03  0.48702451106E+03  0.54194415512E+03  0.17300000000E+03 0. -1.
</event>
<event>
 4    1  0.5876320E+000  0.1000000E+03  0.7546771E-02  0.1280296E+00
         21   -1    0    0  503  502  0.00000000000E+00  0.00000000000E+00  0.25574919570E+04  0.25574919570E+04  0.00000000000E+00 0. -1.
         21   -1    0    0  501  503 -0.00000000000E+00 -0.00000000000E+00 -0.40413202917E+02  0.40413202917E+02  0.00000000000E+00 0. -1.
          6    1    1    2  501    0  0.24968006952E+03 -0.86542499584E+02  0.10161927386E+04  0.10641458656E+04  0.17300000000E+03 0.  1.
         -6    1    1    2    0  502 -0.24968006952E+03  0.86542499584E+02  0.15008860155E+04  0.15337592943E+04  0.17300000000E+03 0.  1.
</event>
<event>
 4    1  0.5876320E+000  0.1000000E+03  0.7546771E-02  0.1280296E+00
         21   -1    0    0  503  502  0.00000000000E+00  0.00000000000E+00  0.51834574648E+03  0.51834574648E+03  0.00000000000E+00 0. -1.
         21   -1    0    0  501  503 -0.00000000000E+00 -0.00000000000E+00 -0.21865501655E+03  0.21865501655E+03  0.00000000000E+00 0. -1.
          6    1    1    2  501    0  0.21934542985E+03 -0.12937456708E+03  0.72603493056E+00  0.30786315682E+03  0.17300000000E+03 0.  1.
         -6    1    1    2    0  502 -0.21934542985E+03  0.12937456708E+03  0.29896469500E+03  0.42913760620E+03  0.17300000000E+03 0.  1.
</event>
<event>
 4    1  0.5876320E+000  0.1000000E+03  0.7546771E-02  0.1280296E+00
         21   -1    0    0  501  502  0.00000000000E+00  0.00000000000E+00  0.82097068278E+02  0.82097068278E+02  0.00000000000E+00 0. -1.
         21   -1    0    0  502  503 -0.00000000000E+00 -0.00000000000E+00 -0.73221719881E+03  0.73221719881E+03  0.00000000000E+00 0. -1.
          6    1    1    2  501    0 -0.10912200480E+02  0.63988403892E+02 -0.57441221975E+02  0.19349957606E+03  0.17300000000E+03 0. -1.
         -6    1    1    2    0  503  0.10912200480E+02 -0.63988403892E+02 -0.59267890856E+03  0.62081469103E+03  0.17300000000E+03 0. -1.
</event>
<event>
 4    1  0.5876320E+000  0.1000000E+03  0.7546771E-02  0.1280296E+00
         21   -1    0    0  501  502  0.00000000000E+00  0.00000000000E+00  0.52661105635E+03  0.52661105635E+03  0.00000000000E+00 0. -1.
         21   -1    0    0  502  503 -0.00000000000E+00 -0.00000000000E+00 -0.17400064135E+03  0.17400064135E+03  0.00000000000E+00 0. -1.
          6    1    1    2  501    0  0.17534074538E+02 -0.14735139335E+03  0.40683261991E+03  0.46632784338E+03  0.17300000000E+03 0. -1.
         -6    1    1    2    0  503 -0.17534074538E+02  0.14735139335E+03 -0.54222204905E+02  0.23428385432E+03  0.17300000000E+03 0. -1.
</event>
<event>
 4    1  0.5876320E+000  0.1000000E+03  0.7546771E-02  0.1280296E+00
         21   -1    0    0  501  502  0.00000000000E+00  0.00000000000E+00  0.83681183521E+03  0.83681183521E+03  0.00000000000E+00 0. -1.
         21   -1    0    0  502  503 -0.00000000000E+00 -0.00000000000E+00 -0.58180044031E+02  0.58180044031E+02  0.00000000000E+00 0. -1.
          6    1    1    2  501    0 -0.11926730365E+03  0.53852084093E+01  0.52541084201E+03  0.56589684846E+03  0.17300000000E+03 0. -1.
         -6    1    1    2    0  503  0.11926730365E+03 -0.53852084093E+01  0.25322094917E+03  0.32909503079E+03  0.17300000000E+03 0. -1.
</event>
<event>
 4    1  0.5876320E+000  0.1000000E+03  0.7546771E-02  0.1280296E+00
         21   -1    0    0  503  502  0.00000000000E+00  0.00000000000E+00  0.26503893521E+03  0.26503893521E+03  0.00000000000E+00 0. -1.
         21   -1    0    0  501  503 -0.00000000000E+00 -0.00000000000E+00 -0.31845835885E+03  0.31845835885E+03  0.00000000000E+00 0. -1.
          6    1    1    2  501    0 -0.12418316896E+03 -0.11960664222E+03 -0.18468702411E+03  0.30621153667E+03  0.17300000000E+03 0. -1.
         -6    1    1    2    0  502  0.12418316896E+03  0.11960664222E+03  0.13126760047E+03  0.27728575739E+03  0.17300000000E+03 0. -1.
</event>
<event>
 4    1  0.5876320E+000  0.1000000E+03  0.7546771E-02  0.1280296E+00
         21   -1    0    0  503  502  0.00000000000E+00  0.00000000000E+00  0.23222663680E+03  0.23222663680E+03  0.00000000000E+00 0. -1.
         21   -1    0    0  501  503 -0.00000000000E+00 -0.00000000000E+00 -0.35014971414E+03  0.35014971414E+03  0.00000000000E+00 0. -1.
          6    1    1    2  501    0  0.21227918731E+03  0.26222510475E+02 -0.13561617877E+03  0.30670966950E+03  0.17300000000E+03 0. -1.
         -6    1    1    2    0  502 -0.21227918731E+03 -0.26222510475E+02  0.17693101430E+02  0.27566668145E+03  0.17300000000E+03 0. -1.
</event>
<event>
 4    1  0.5876320E+000  0.1000000E+03  0.7546771E-02  0.1280296E+00
         21   -1    0    0  503  502  0.00000000000E+00  0.00000000000E+00  0.37613080122E+03  0.37613080122E+03  0.00000000000E+00 0.  1.
         21   -1    0    0  501  503 -0.00000000000E+00 -0.00000000000E+00 -0.13598810613E+03  0.13598810613E+03  0.00000000000E+00 0.  1.
          6    1    1    2  501    0  0.52157484544E+02  0.10989390142E+03  0.29331496265E+02  0.21350974085E+03  0.17300000000E+03 0.  1.
         -6    1    1    2    0  502 -0.52157484544E+02 -0.10989390142E+03  0.21081119883E+03  0.29860916650E+03  0.17300000000E+03 0.  1.
</event>
<event>
 4    1  0.5876320E+000  0.1000000E+03  0.7546771E-02  0.1280296E+00
         21   -1    0    0  503  502  0.00000000000E+00  0.00000000000E+00  0.46569920651E+02  0.46569920651E+02  0.00000000000E+00 0.  1.
         21   -1    0    0  501  503 -0.00000000000E+00 -0.00000000000E+00 -0.86794910299E+03  0.86794910299E+03  0.00000000000E+00 0.  1.
          6    1    1    2  501    0 -0.46764229784E+02  0.90042967733E+01 -0.61693641332E+03  0.64250097948E+03  0.17300000000E+03 0.  1.
         -6    1    1    2    0  502  0.46764229784E+02 -0.90042967733E+01 -0.20444276902E+03  0.27201804417E+03  0.17300000000E+03 0.  1.
</event>
<event>
 4    1  0.5876320E+000  0.1000000E+03  0.7546771E-02  0.1280296E+00
         21   -1    0    0  503  502  0.00000000000E+00  0.00000000000E+00  0.30258643147E+02  0.30258643147E+02  0.00000000000E+00 0.  1.
         21   -1    0    0  501  503 -0.00000000000E+00 -0.00000000000E+00 -0.12359301265E+04  0.12359301265E+04  0.00000000000E+00 0.  1.
          6    1    1    2  501    0 -0.65895810085E+02  0.24721363673E+02 -0.76701943535E+03  0.78943094556E+03  0.17300000000E+03 0.  1.
         -6    1    1    2    0  502  0.65895810085E+02 -0.24721363673E+02 -0.43865204803E+03  0.47675782410E+03  0.17300000000E+03 0.  1.
</event>
<event>
 4    1  0.5876320E+000  0.1000000E+03  0.7546771E-02  0.1280296E+00
         21   -1    0    0  501  502  0.00000000000E+00  0.00000000000E+00  0.12451334253E+04  0.12451334253E+04  0.00000000000E+00 0.  1.
         21   -1    0    0  502  503 -0.00000000000E+00 -0.00000000000E+00 -0.40763269708E+02  0.40763269708E+02  0.00000000000E+00 0. -1.
          6    1    1    2  501    0 -0.79199633504E+01 -0.78094972984E+02  0.94778769326E+03  0.96663957198E+03  0.17300000000E+03 0.  1.
         -6    1    1    2    0  503  0.79199633504E+01  0.78094972984E+02  0.25658246231E+03  0.31925712301E+03  0.17300000000E+03 0. -1.
</event>
<event>
 4    1  0.5876320E+000  0.1000000E+03  0.7546771E-02  0.1280296E+00
         21   -1    0    0  501  502  0.00000000000E+00  0.00000000000E+00  0.41997856918E+03  0.41997856918E+03  0.00000000000E+00 0.  1.
         21   -1    0    0  502  503 -0.00000000000E+00 -0.00000000000E+00 -0.13399615509E+03  0.13399615509E+03  0.00000000000E+00 0. -1.
          6    1    1    2  501    0 -0.87216185307E+02  0.10051865443E+03  0.34485449875E+02  0.22097264337E+03  0.17300000000E+03 0.  1.
         -6    1    1    2    0  503  0.87216185307E+02 -0.10051865443E+03  0.25149696422E+03  0.33300208089E+03  0.17300000000E+03 0. -1.
</event>
<event>
 4    1  0.5876320E+000  0.1000000E+03  0.7546771E-02  0.1280296E+00
         21   -1    0    0  501  502  0.00000000000E+00  0.00000000000E+00  0.31756735788E+02  0.31756735788E+02  0.00000000000E+00 0.  1.
         21   -1    0    0  502  503 -0.00000000000E+00 -0.00000000000E+00 -0.13075631898E+04  0.13075631898E+04  0.00000000000E+00 0. -1.
          6    1    1    2  501    0  0.16401025987E+02  0.86464556047E+02 -0.43399929821E+03  0.47542560297E+03  0.17300000000E+03 0.  1.
         -6    1    1    2    0  503 -0.16401025987E+02 -0.86464556047E+02 -0.84180715579E+03  0.86389432262E+03  0.17300000000E+03 0. -1.
</event>
<event>
 4    1  0.5876320E+000  0.1000000E+03  0.7546771E-02  0.1280296E+00
         21   -1    0    0  501  502  0.00000000000E+00  0.00000000000E+00  0.16341027296E+03  0.16341027296E+03  0.00000000000E+00 0.  1.
         21   -1    0    0  502  503 -0.00000000000E+00 -0.00000000000E+00 -0.22620479426E+03  0.22620479426E+03  0.00000000000E+00 0. -1.
          6    1    1    2  501    0 -0.45718859217E+02  0.63314146605E+02 -0.62401480408E+02  0.19980450447E+03  0.17300000000E+03 0.  1.
         -6    1    1    2    0  503  0.45718859217E+02 -0.63314146605E+02 -0.39304088928E+00  0.18981056275E+03  0.17300000000E+03 0. -1.
</event>
<event>
 4    1  0.5876320E+000  0.1000000E+03  0.7546771E-02  0.1280296E+00
         21   -1    0    0  503  502  0.00000000000E+00  0.00000000000E+00  0.13952875662E+03  0.13952875662E+03  0.00000000000E+00 0. -1.
         21   -1    0    0  501  503 -0.00000000000E+00 -0.00000000000E+00 -0.32371028333E+03  0.32371028333E+03  0.00000000000E+00 0. -1.
          6    1    1    2  501    0  0.12220360583E+03  0.14199997292E+02 -0.81055186098E+02  0.22723182962E+03  0.17300000000E+03 0. -1.
         -6    1    1    2    0  502 -0.12220360583E+03 -0.14199997292E+02 -0.10312634061E+03  0.23600721033E+03  0.17300000000E+03 0. -1.
</event>
<event>
 4    1  0.5876320E+000  0.1000000E+03  0.7546771E-02  0.1280296E+00
         21   -1    0    0  503  502  0.00000000000E+00  0.00000000000E+00  0.14393507801E+03  0.14393507801E+03  0.00000000000E+00 0. -1.
         21   -1    0    0  501  503 -0.00000000000E+00 -0.00000000000E+00 -0.37006875218E+03  0.37006875218E+03  0.00000000000E+00 0.  1.
          6    1    1    2  501    0 -0.89628779548E+02 -0.71902445867E+02 -0.22516373559E+03  0.30631844161E+03  0.17300000000E+03 0.  1.
         -6    1    1    2    0  502  0.89628779548E+02  0.71902445867E+02 -0.96993857836E+00  0.20768538857E+03  0.17300000000E+03 0. -1.
</event>
<event>
 4    1  0.5876320E+000  0.1000000E+03  0.7546771E-02  0.1280296E+00
         21   -1    0    0  503  502  0.00000000000E+00  0.00000000000E+00  0.29339642793E+03  0.29339642793E+03  0.00000000000E+00 0. -1.
         21   -1    0    0  501  503 -0.00000000000E+00 -0.00000000000E+00 -0.54915368659E+03  0.54915368659E+03  0.00000000000E+00 0.  1.
          6    1    1    2  501    0  0.91836625141E+02 -0.53785325523E+02 -0.49123735285E+03  0.53157310296E+03  0.17300000000E+03 0.  1.
         -6    1    1    2    0  502 -0.91836625141E+02  0.53785325523E+02  0.23548009419E+03  0.31097701156E+03  0.17300000000E+03 0. -1.
</event>
<event>
 4    1  0.5876320E+000  0.1000000E+03  0.7546771E-02  0.1280296E+00
         21   -1    0    0  503  502  0.00000000000E+00  0.00000000000E+00  0.17136850919E+03  0.17136850919E+03  0.00000000000E+00 0. -1.
         21   -1    0    0  501  503 -0.00000000000E+00 -0.00000000000E+00 -0.76418135052E+03  0.76418135052E+03  0.00000000000E+00 0.  1.
          6    1    1    2  501    0  0.57123541607E+02 -0.11866184347E+02 -0.70028505344E+03  0.72369334763E+03  0.17300000000E+03 0.  1.
         -6    1    1    2    0  502 -0.57123541607E+02  0.11866184347E+02  0.10747221210E+03  0.21185651208E+03  0.17300000000E+03 0. -1.
</event>
<event>
 4    1  0.5876320E+000  0.1000000E+03  0.7546771E-02  0.1280296E+00
         21   -1    0    0  503  502  0.00000000000E+00  0.00000000000E+00  0.29622572673E+02  0.29622572673E+02  0.00000000000E+00 0. -1.
         21   -1    0    0  501  503 -0.00000000000E+00 -0.00000000000E+00 -0.12970040710E+04  0.12970040710E+04  0.00000000000E+00 0.  1.
          6    1    1    2  501    0 -0.68136726172E+02 -0.51343947583E+02 -0.75154037370E+03  0.77589995986E+03  0.17300000000E+03 0.  1.
         -6    1    1    2    0  502  0.68136726172E+02  0.51343947583E+02 -0.51584112460E+03  0.55072668379E+03  0.17300000000E+03 0. -1.
</event>
<event>
 4    1  0.5876320E+000  0.1000000E+03  0.7546771E-02  0.1280296E+00
         21   -1    0    0  503  502  0.00000000000E+00  0.00000000000E+00  0.17833056207E+04  0.17833056207E+04  0.00000000000E+00 0. -1.
         21   -1    0    0  501  503 -0.00000000000E+00 -0.00000000000E+00 -0.25834149064E+02  0.25834149064E+02  0.00000000000E+00 0. -1.
          6    1    1    2  501    0 -0.77620903318E+02 -0.38499952748E+02  0.48714133523E+03  0.52415926156E+03  0.17300000000E+03 0. -1.
         -6    1    1    2    0  502  0.77620903318E+02  0.38499952748E+02  0.12703301364E+04  0.12849805082E+04  0.17300000000E+03 0. -1.
</event>
<event>
 4    1  0.5876320E+000  0.1000000E+03  0.7546771E-02  0.1280296E+00
         21   -1    0    0  503  502  0.00000000000E+00  0.00000000000E+00  0.23531329457E+03  0.23531329457E+03  0.00000000000E+00 0.  1.
         21   -1    0    0  501  503 -0.00000000000E+00 -0.00000000000E+00 -0.14816802283E+03  0.14816802283E+03  0.00000000000E+00 0. -1.
          6    1    1    2  501    0  0.37760241466E+02 -0.35611233778E+02 -0.50590856865E+01  0.18068920874E+03  0.17300000000E+03 0. -1.
         -6    1    1    2    0  502 -0.37760241466E+02  0.35611233778E+02  0.92204357433E+02  0.20279210866E+03  0.17300000000E+03 0.  1.
</event>
<event>
 4    1  0.5876320E+000  0.1000000E+03  0.7546771E-02  0.1280296E+00
         21   -1    0    0  503  502  0.00000000000E+00  0.00000000000E+00  0.59457514732E+03  0.59457514732E+03  0.00000000000E+00 0.  1.
         21   -1    0    0  501  503 -0.00000000000E+00 -0.00000000000E+00 -0.49483537372E+03  0.49483537372E+03  0.00000000000E+00 0.  1.
          6    1    1    2  501    0  0.22247104077E+03  0.35841039788E+03 -0.24519999842E+03  0.51769046400E+03  0.17300000000E+03 0.  1.
         -6    1    1    2    0  502 -0.22247104077E+03 -0.35841039788E+03  0.34493977202E+03  0.57172005703E+03  0.17300000000E+03 0.  1.
</event>
<event>
 4    1  0.5876320E+000  0.1000000E+03  0.7546771E-02  0.1280296E+00
         21   -1    0    0  503  502  0.00000000000E+00  0.00000000000E+00  0.22839000470E+03  0.22839000470E+03  0.00000000000E+00 0.  1.
         21   -1    0    0  501  503 -0.00000000000E+00 -0.00000000000E+00 -0.41759973118E+03  0.41759973118E+03  0.00000000000E+00 0.  1.
          6    1    1    2  501    0  0.49976032183E+02  0.16872666316E+02 -0.35641539603E+03  0.39967890260E+03  0.17300000000E+03 0.  1.
         -6    1    1    2    0  502 -0.49976032183E+02 -0.16872666316E+02  0.16720566955E+03  0.24631083328E+03  0.17300000000E+03 0.  1.
</event>
<event>
 4    1  0.5876320E+000  0.1000000E+03  0.7546771E-02  0.1280296E+00
         21   -1    0    0  503  502  0.00000000000E+00  0.00000000000E+00  0.22694598254E+04  0.22694598254E+04  0.00000000000E+00 0.  1.
         21   -1    0    0  501  503 -0.00000000000E+00 -0.00000000000E+00 -0.40430541001E+02  0.40430541001E+02  0.00000000000E+00 0.  1.
          6    1    1    2  501    0  0.95387809205E+02 -0.22840671734E+03  0.12045830543E+04  0.12418606191E+04  0.17300000000E+03 0.  1.
         -6    1    1    2    0  502 -0.95387809205E+02  0.22840671734E+03  0.10244462302E+04  0.10680297473E+04  0.17300000000E+03 0.  1.
</event>
<event>
 4    1  0.5876320E+000  0.1000000E+03  0.7546771E-02  0.1280296E+00
         21   -1    0    0  501  502  0.00000000000E+00  0.00000000000E+00  0.71122421062E+02  0.71122421062E+02  0.00000000000E+00 0. -1.
         21   -1    0    0  502  503 -0.00000000000E+00 -0.00000000000E+00 -0.15168638675E+04  0.15168638675E+04  0.00000000000E+00 0. -1.
          6    1    1    2  501    0 -0.40087868811E+02 -0.27630768173E+03 -0.72535774079E+03  0.79625738574E+03  0.17300000000E+03 0. -1.
         -6    1    1    2    0  503  0.40087868811E+02  0.27630768173E+03 -0.72038370563E+03  0.79172890281E+03  0.17300000000E+03 0. -1.
</event>
<event>
 4    1  0.5876320E+000  0.1000000E+03  0.7546771E-02  0.1280296E+00
         21   -1    0    0  501  502  0.00000000000E+00  0.00000000000E+00  0.16323197731E+03  0.16323197731E+03  0.00000000000E+00 0. -1.
         21   -1    0    0  502  503 -0.00000000000E+00 -0.00000000000E+00 -0.26211889279E+03  0.26211889279E+03  0.00000000000E+00 0. -1.
          6    1    1    2  501    0 -0.46976358271E+02  0.81919195696E+01 -0.15521676589E+03  0.23726594824E+03  0.17300000000E+03 0. -1.
         -6    1    1    2    0  503  0.46976358271E+02 -0.81919195696E+01  0.56329850405E+02  0.18808492186E+03  0.17300000000E+03 0. -1.
</event>
<event>
 4    1  0.5876320E+000  0.1000000E+03  0.7546771E-02  0.1280296E+00
         21   -1    0    0  501  502  0.00000000000E+00  0.00000000000E+00  0.10843732788E+03  0.10843732788E+03  0.00000000000E+00 0. -1.
         21   -1    0    0  502  503 -0.00000000000E+00 -0.00000000000E+00 -0.42742805712E+03  0.42742805712E+03  0.00000000000E+00 0. -1.
          6    1    1    2  501    0  0.67048110749E+02  0.10732420608E+03 -0.13441195813E+03  0.25300100564E+03  0.17300000000E+03 0. -1.
         -6    1    1    2    0  503 -0.67048110749E+02 -0.10732420608E+03 -0.18457877112E+03  0.28286437936E+03  0.17300000000E+03 0. -1.
</event>
<event>
 4    1  0.5876320E+000  0.1000000E+03  0.7546771E-02  0.1280296E+00
         21   -1    0    0  503  502  0.00000000000E+00  0.00000000000E+00  0.45503781471E+02  0.45503781471E+02  0.00000000000E+00 0. -1.
         21   -1    0    0  501  503 -0.00000000000E+00 -0.00000000000E+00 -0.68955914999E+03  0.68955914999E+03  0.00000000000E+00 0. -1.
          6    1    1    2  501    0 -0.16178119001E+01 -0.80105662488E+01 -0.24490152546E+03  0.29995423595E+03  0.17300000000E+03 0. -1.
         -6    1    1    2    0  502  0.16178119001E+01  0.80105662488E+01 -0.39915384305E+03  0.43510869551E+03  0.17300000000E+03 0. -1.
</event>
<event>
 4    1  0.5876320E+000  0.1000000E+03  0.7546771E-02  0.1280296E+00
         21   -1    0    0  503  502  0.00000000000E+00  0.00000000000E+00  0.30577972967E+03  0.30577972967E+03  0.00000000000E+00 0. -1.
         21   -1    0    0  501  503 -0.00000000000E+00 -0.00000000000E+00 -0.50632648371E+03  0.50632648371E+03  0.00000000000E+00 0.  1.
          6    1    1    2  501    0  0.87629865814E+02  0.66904275236E+02 -0.44677284302E+03  0.49161992300E+03  0.17300000000E+03 0. -1.
         -6    1    1    2    0  502 -0.87629865814E+02 -0.66904275236E+02  0.24622608898E+03  0.32048629038E+03  0.17300000000E+03 0.  1.
</event>
<event>
 4    1  0.5876320E+000  0.1000000E+03  0.7546771E-02  0.1280296E+00
         21   -1    0    0  501  502  0.00000000000E+00  0.00000000000E+00  0.11886048972E+04  0.11886048972E+04  0.00000000000E+00 0.  1.
         21   -1    0    0  502  503 -0.00000000000E+00 -0.00000000000E+00 -0.29407949598E+02  0.29407949598E+02  0.00000000000E+00 0.  1.
          6    1    1    2  501    0  0.31648663032E+02  0.10696858961E+02  0.78326715713E+03  0.80284027060E+03  0.17300000000E+03 0.  1.
         -6    1    1    2    0  503 -0.31648663032E+02 -0.10696858961E+02  0.37592979052E+03  0.41517257624E+03  0.17300000000E+03 0.  1.
</event>
<event>
 4    1  0.5876320E+000  0.1000000E+03  0.7546771E-02  0.1280296E+00
         21   -1    0    0  501  502  0.00000000000E+00  0.00000000000E+00  0.10138893776E+04  0.10138893776E+04  0.00000000000E+00 0.  1.
         21   -1    0    0  502  503 -0.00000000000E+00 -0.00000000000E+00 -0.53673834607E+02  0.53673834607E+02  0.00000000000E+00 0.  1.
          6    1    1    2  501    0  0.22321253455E+02  0.46531706674E+02  0.81815934544E+03  0.83784076805E+03  0.17300000000E+03 0.  1.
         -6    1    1    2    0  503 -0.22321253455E+02 -0.46531706674E+02  0.14205619754E+03  0.22972244414E+03  0.17300000000E+03 0.  1.
</event>
<event>
 4    1  0.5876320E+000  0.1000000E+03  0.7546771E-02  0.1280296E+00
         21   -1    0    0  501  502  0.00000000000E+00  0.00000000000E+00  0.14374434969E+03  0.14374434969E+03  0.00000000000E+00 0.  1.
         21   -1    0    0  502  503 -0.00000000000E+00 -0.00000000000E+00 -0.79790314101E+03  0.79790314101E+03  0.00000000000E+00 0.  1.
          6    1    1    2  501    0 -0.27850465120E+03  0.68517528332E+02 -0.25749022784E+03  0.42248042542E+03  0.17300000000E+03 0.  1.
         -6    1    1    2    0  503  0.27850465120E+03 -0.68517528332E+02 -0.39666856347E+03  0.51916706528E+03  0.17300000000E+03 0.  1.
</event>
<event>
 4    1  0.5876320E+000  0.1000000E+03  0.7546771E-02  0.1280296E+00
         21   -1    0    0  503  502  0.00000000000E+00  0.00000000000E+00  0.12991928303E+03  0.12991928303E+03  0.00000000000E+00 0. -1.
         21   -1    0    0  501  503 -0.00000000000E+00 -0.00000000000E+00 -0.49225030097E+03  0.49225030097E+03  0.00000000000E+00 0.  1.
          6    1    1    2  501    0  0.54507208263E+02  0.13112976132E+03 -0.36356548996E+02  0.22675283617E+03  0.17300000000E+03 0.  1.
         -6    1    1    2    0  502 -0.54507208263E+02 -0.13112976132E+03 -0.32597446895E+03  0.39541674783E+03  0.17300000000E+03 0. -1.
</event>
<event>
 4    1  0.5876320E+000  0.1000000E+03  0.7546771E-02  0.1280296E+00
         21   -1    0    0  503  502  0.00000000000E+00  0.00000000000E+00  0.86907555944E+02  0.86907555944E+02  0.00000000000E+00 0.  1.
         21   -1    0    0  501  503 -0.00000000000E+00 -0.00000000000E+00 -0.11258064387E+04  0.11258064387E+04  0.00000000000E+00 0. -1.
          6    1    1    2  501    0 -0.12597314917E+03  0.21682365453E+03 -0.65693815873E+03  0.72413981791E+03  0.17300000000E+03 0. -1.
         -6    1    1    2    0  502  0.12597314917E+03 -0.21682365453E+03 -0.38196072400E+03  0.48857417672E+03  0.17300000000E+03 0.  1.
</event>
<event>
 4    1  0.5876320E+000  0.1000000E+03  0.7546771E-02  0.1280296E+00
         21   -1    0    0  501  502  0.00000000000E+00  0.00000000000E+00  0.67687794878E+02  0.67687794878E+02  0.00000000000E+00 0.  1.
         21   -1    0    0  502  503 -0.00000000000E+00 -0.00000000000E+00 -0.91537428584E+03  0.91537428584E+03  0.00000000000E+00 0.  1.
          6    1    1    2  501    0 -0.66241993386E+02 -0.13119511054E+02 -0.96555278182E+02  0.20931327001E+03  0.17300000000E+03 0.  1.
         -6    1    1    2    0  503  0.66241993386E+02  0.13119511054E+02 -0.75113121278E+03  0.77374881071E+03  0.17300000000E+03 0.  1.
</event>
<event>
 4    1  0.5876320E+000  0.1000000E+03  0.7546771E-02  0.1280296E+00
         21   -1    0    0  501  502  0.00000000000E+00  0.00000000000E+00  0.78298790021E+02  0.78298790021E+02  0.00000000000E+00 0.  1.
         21   -1    0    0  502  503 -0.00000000000E+00 -0.00000000000E+00 -0.17693467490E+04  0.17693467490E+04  0.00000000000E+00 0.  1.
          6    1    1    2  501    0 -0.24991652664E+03  0.18588018879E+03 -0.11128337516E+04  0.11684766466E+04  0.17300000000E+03 0.  1.
         -6    1    1    2    0  503  0.24991652664E+03 -0.18588018879E+03 -0.57821420739E+03  0.67916889247E+03  0.17300000000E+03 0.  1.
</event>
<event>
 4    1  0.5876320E+000  0.1000000E+03  0.7546771E-02  0.1280296E+00
         21   -1    0    0  501  502  0.00000000000E+00  0.00000000000E+00  0.12905499619E+04  0.12905499619E+04  0.00000000000E+00 0.  1.
         21   -1    0    0  502  503 -0.00000000000E+00 -0.00000000000E+00 -0.17420945035E+03  0.17420945035E+03  0.00000000000E+00 0.  1.
          6    1    1    2  501    0  0.54794832661E+02 -0.60160576803E+02  0.12283782899E+04  0.12431669203E+04  0.17300000000E+03 0.  1.
         -6    1    1    2    0  503 -0.54794832661E+02  0.60160576803E+02 -0.11203777837E+03  0.22159249191E+03  0.17300000000E+03 0.  1.
</event>
<event>
 4    1  0.5876320E+000  0.1000000E+03  0.7546771E-02  0.1280296E+00
         21   -1    0    0  501  502  0.00000000000E+00  0.00000000000E+00  0.17626508008E+03  0.17626508008E+03  0.00000000000E+00 0.  1.
         21   -1    0    0  502  503 -0.00000000000E+00 -0.00000000000E+00 -0.37423464093E+03  0.37423464093E+03  0.00000000000E+00 0.  1.
          6    1    1    2  501    0 -0.62978894202E+02  0.63214217516E+02  0.80578412298E+02  0.21067571986E+03  0.17300000000E+03 0.  1.
         -6    1    1    2    0  503  0.62978894202E+02 -0.63214217516E+02 -0.27854797314E+03  0.33982400114E+03  0.17300000000E+03 0.  1.
</event>
<event>
 4    1  0.5876320E+000  0.1000000E+03  0.7546771E-02  0.1280296E+00
         21   -1    0    0  501  502  0.00000000000E+00  0.00000000000E+00  0.37153030809E+02  0.37153030809E+02  0.00000000000E+00 0.  1.
         21   -1    0    0  502  503 -0.00000000000E+00 -0.00000000000E+00 -0.87158940230E+03  0.87158940230E+03  0.00000000000E+00 0.  1.
          6    1    1    2  501    0  0.20271456001E+02 -0.14926757295E+02 -0.30951525276E+03  0.35547493822E+03  0.17300000000E+03 0.  1.
         -6    1    1    2    0  503 -0.20271456001E+02  0.14926757295E+02 -0.52492111873E+03  0.55326749489E+03  0.17300000000E+03 0.  1.
</event>
<event>
 4    1  0.5876320E+000  0.1000000E+03  0.7546771E-02  0.1280296E+00
         21   -1    0    0  503  502  0.00000000000E+00  0.00000000000E+00  0.16895183978E+03  0.16895183978E+03  0.00000000000E+00 0. -1.
         21   -1    0    0  501  503 -0.00000000000E+00 -0.00000000000E+00 -0.34848186444E+03  0.34848186444E+03  0.00000000000E+00 0. -1.
          6    1    1    2  501    0  0.60172661523E+01 -0.10149552266E+03 -0.23521964548E+03  0.30918413645E+03  0.17300000000E+03 0. -1.
         -6    1    1    2    0  502 -0.60172661523E+01  0.10149552266E+03  0.55689620821E+02  0.20824956778E+03  0.17300000000E+03 0. -1.
</event>
<event>
 4    1  0.5876320E+000  0.1000000E+03  0.7546771E-02  0.1280296E+00
         21   -1    0    0  503  502  0.00000000000E+00  0.00000000000E+00  0.13603914579E+03  0.13603914579E+03  0.00000000000E+00 0. -1.
         21   -1    0    0  501  503 -0.00000000000E+00 -0.00000000000E+00 -0.35726831718E+03  0.35726831718E+03  0.00000000000E+00 0. -1.
          6    1    1    2  501    0 -0.23358413749E+01  0.81384044899E+02 -0.23340252817E+03  0.30171933825E+03  0.17300000000E+03 0. -1.
         -6    1    1    2    0  502  0.23358413749E+01 -0.81384044899E+02  0.12173356785E+02  0.19158812472E+03  0.17300000000E+03 0. -1.
</event>
<event>
 4    1  0.5876320E+000  0.1000000E+03  0.7546771E-02  0.1280296E+00
         21   -1    0    0  503  502  0.00000000000E+00  0.00000000000E+00  0.51140644182E+02  0.51140644182E+02  0.00000000000E+00 0. -1.
         21   -1    0    0  501  503 -0.00000000000E+00 -0.00000000000E+00 -0.17301668590E+04  0.17301668590E+04  0.00000000000E+00 0. -1.
          6    1    1    2  501    0  0.52702812928E+02  0.51010349402E+02 -0.15299567435E+04  0.15414526522E+04  0.17300000000E+03 0. -1.
         -6    1    1    2    0  502 -0.52702812928E+02 -0.51010349402E+02 -0.14906947140E+03  0.23985485098E+03  0.17300000000E+03 0. -1.
</event>
<event>
 4    1  0.5876320E+000  0.1000000E+03  0.7546771E-02  0.1280296E+00
         21   -1    0    0  501  502  0.00000000000E+00  0.00000000000E+00  0.28179998593E+03  0.28179998593E+03  0.00000000000E+00 0.  1.
         21   -1    0    0  502  503 -0.00000000000E+00 -0.00000000000E+00 -0.17279617511E+03  0.17279617511E+03  0.00000000000E+00 0.  1.
          6    1    1    2  501    0  0.10941614262E+03  0.24130522197E+02  0.13567862216E+03  0.24676276639E+03  0.17300000000E+03 0.  1.
         -6    1    1    2    0  503 -0.10941614262E+03 -0.24130522197E+02 -0.26674811336E+02  0.20783339464E+03  0.17300000000E+03 0.  1.
</event>
<event>
 4    1  0.5876320E+000  0.1000000E+03  0.7546771E-02  0.1280296E+00
         21   -1    0    0  501  502  0.00000000000E+00  0.00000000000E+00  0.13229306008E+03  0.13229306008E+03  0.00000000000E+00 0.  1.
         21   -1    0    0  502  503 -0.00000000000E+00 -0.00000000000E+00 -0.24411456286E+03  0.24411456286E+03  0.00000000000E+00 0.  1.
          6    1    1    2  501    0  0.43348363271E+02 -0.20038225382E+02 -0.65569123098E+02  0.19107307759E+03  0.17300000000E+03 0.  1.
         -6    1    1    2    0  503 -0.43348363271E+02  0.20038225382E+02 -0.46252379690E+02  0.18533454535E+03  0.17300000000E+03 0.  1.
</event>
<event>
 4    1  0.5876320E+000  0.1000000E+03  0.7546771E-02  0.1280296E+00
         21   -1    0    0  501  502  0.00000000000E+00  0.00000000000E+00  0.41737888106E+03  0.41737888106E+03  0.00000000000E+00 0.  1.
         21   -1    0    0  502  503 -0.00000000000E+00 -0.00000000000E+00 -0.12449092163E+03  0.12449092163E+03  0.00000000000E+00 0.  1.
          6    1    1    2  501    0 -0.61721476272E+02 -0.92981997891E+02  0.26275366855E+03  0.33380186174E+03  0.17300000000E+03 0.  1.
         -6    1    1    2    0  503  0.61721476272E+02  0.92981997891E+02  0.30134290873E+02  0.20806794095E+03  0.17300000000E+03 0.  1.
</event>
<event>
 4    1  0.5876320E+000  0.1000000E+03  0.7546771E-02  0.1280296E+00
         21   -1    0    0  501  502  0.00000000000E+00  0.00000000000E+00  0.68114986997E+02  0.68114986997E+02  0.00000000000E+00 0.  1.
         21   -1    0    0  502  503 -0.00000000000E+00 -0.00000000000E+00 -0.65306256584E+03  0.65306256584E+03  0.00000000000E+00 0.  1.
          6    1    1    2  501    0 -0.10635644925E+03 -0.47086645574E+02 -0.23772409983E+03  0.31618126784E+03  0.17300000000E+03 0.  1.
         -6    1    1    2    0  503  0.10635644925E+03  0.47086645574E+02 -0.34722347901E+03  0.40499628500E+03  0.17300000000E+03 0.  1.
</event>
<event>
 4    1  0.5876320E+000  0.1000000E+03  0.7546771E-02  0.1280296E+00
         21   -1    0    0  501  502  0.00000000000E+00  0.00000000000E+00  0.53624344956E+03  0.53624344956E+03  0.00000000000E+00 0.  1.
         21   -1    0    0  502  503 -0.00000000000E+00 -0.00000000000E+00 -0.17077432923E+03  0.17077432923E+03  0.00000000000E+00 0.  1.
          6    1    1    2  501    0  0.10245258387E+03  0.22611938772E+03  0.17736781951E+03  0.35073473287E+03  0.17300000000E+03 0.  1.
         -6    1    1    2    0  503 -0.10245258387E+03 -0.22611938772E+03  0.18810130082E+03  0.35628304592E+03  0.17300000000E+03 0.  1.
</event>
<event>
 4    1  0.5876320E+000  0.1000000E+03  0.7546771E-02  0.1280296E+00
         21   -1    0    0  501  502  0.00000000000E+00  0.00000000000E+00  0.22514434716E+03  0.22514434716E+03  0.00000000000E+00 0.  1.
         21   -1    0    0  502  503 -0.00000000000E+00 -0.00000000000E+00 -0.17323054614E+03  0.17323054614E+03  0.00000000000E+00 0.  1.
          6    1    1    2  501    0 -0.26510282580E+02  0.23942372576E-02  0.11823190802E+03  0.21121216623E+03  0.17300000000E+03 0.  1.
         -6    1    1    2    0  503  0.26510282580E+02 -0.23942372576E-02 -0.66318106997E+02  0.18716272707E+03  0.17300000000E+03 0.  1.
</event>
<event>
 4    1  0.5876320E+000  0.1000000E+03  0.7546771E-02  0.1280296E+00
         21   -1    0    0  503  502  0.00000000000E+00  0.00000000000E+00  0.30481404589E+03  0.30481404589E+03  0.00000000000E+00 0. -1.
         21   -1    0    0  501  503 -0.00000000000E+00 -0.00000000000E+00 -0.15551526087E+03  0.15551526087E+03  0.00000000000E+00 0. -1.
          6    1    1    2  501    0 -0.29383498560E+02  0.36148097325E+02 -0.56130024494E+02  0.18774891365E+03  0.17300000000E+03 0. -1.
         -6    1    1    2    0  502  0.29383498560E+02 -0.36148097325E+02  0.20542880952E+03  0.27258039311E+03  0.17300000000E+03 0. -1.
</event>
<event>
 4    1  0.5876320E+000  0.1000000E+03  0.7546771E-02  0.1280296E+00
         21   -1    0    0  503  502  0.00000000000E+00  0.00000000000E+00  0.97995499304E+03  0.97995499304E+03  0.00000000000E+00 0. -1.
         21   -1    0    0  501  503 -0.00000000000E+00 -0.00000000000E+00 -0.65013846561E+03  0.65013846561E+03  0.00000000000E+00 0. -1.
          6    1    1    2  501    0 -0.38185842328E+02 -0.49762005966E+03 -0.44613894450E+03  0.69141365342E+03  0.17300000000E+03 0. -1.
         -6    1    1    2    0  502  0.38185842328E+02  0.49762005966E+03  0.77595547193E+03  0.93867980523E+03  0.17300000000E+03 0. -1.
</event>
<event>
 4    1  0.5876320E+000  0.1000000E+03  0.7546771E-02  0.1280296E+00
         21   -1    0    0  503  502  0.00000000000E+00  0.00000000000E+00  0.11010338194E+04  0.11010338194E+04  0.00000000000E+00 0. -1.
         21   -1    0    0  501  503 -0.00000000000E+00 -0.00000000000E+00 -0.12510737096E+03  0.12510737096E+03  0.00000000000E+00 0. -1.
          6    1    1    2  501    0 -0.34488051946E+02  0.28623613449E+02 -0.49354874215E+02  0.18540129607E+03  0.17300000000E+03 0. -1.
         -6    1    1    2    0  502  0.34488051946E+02 -0.28623613449E+02  0.10252813226E+04  0.10407398943E+04  0.17300000000E+03 0. -1.
</event>
<event>
 4    1  0.5876320E+000  0.1000000E+03  0.7546771E-02  0.1280296E+00
         21   -1    0    0  501  502  0.00000000000E+00  0.00000000000E+00  0.10641588576E+04  0.10641588576E+04  0.00000000000E+00 0. -1.
         21   -1    0    0  502  503 -0.00000000000E+00 -0.00000000000E+00 -0.67000034354E+02  0.67000034354E+02  0.00000000000E+00 0.  1.
          6    1    1    2  501    0 -0.27934018305E+02  0.18002509789E+03  0.69015422528E+03  0.73445980143E+03  0.17300000000E+03 0. -1.
         -6    1    1    2    0  503  0.27934018305E+02 -0.18002509789E+03  0.30700459798E+03  0.39669909053E+03  0.17300000000E+03 0.  1.
</event>
<event>
 4    1  0.5876320E+000  0.1000000E+03  0.7546771E-02  0.1280296E+00
         21   -1    0    0  501  502  0.00000000000E+00  0.00000000000E+00  0.23164831516E+04  0.23164831516E+04  0.00000000000E+00 0. -1.
         21   -1    0    0  502  503 -0.00000000000E+00 -0.00000000000E+00 -0.32135118505E+02  0.32135118505E+02  0.00000000000E+00 0.  1.
          6    1    1    2  501    0 -0.57481178375E+02  0.15487713202E+02  0.20133335099E+04  0.20216292383E+04  0.17300000000E+03 0. -1.
         -6    1    1    2    0  503  0.57481178375E+02 -0.15487713202E+02  0.27101452320E+03  0.32698903179E+03  0.17300000000E+03 0.  1.
</event>
<event>
 4    1  0.5876320E+000  0.1000000E+03  0.7546771E-02  0.1280296E+00
         21   -1    0    0  501  502  0.00000000000E+00  0.00000000000E+00  0.87222979125E+03  0.87222979125E+03  0.00000000000E+00 0. -1.
         21   -1    0    0  502  503 -0.00000000000E+00 -0.00000000000E+00 -0.58979186661E+02  0.58979186661E+02  0.00000000000E+00 0.  1.
          6    1    1    2  501    0 -0.10207477307E+03 -0.93892675248E+02  0.30861900084E+03  0.38001287010E+03  0.17300000000E+03 0. -1.
         -6    1    1    2    0  503  0.10207477307E+03  0.93892675248E+02  0.50463160375E+03  0.55119610781E+03  0.17300000000E+03 0.  1.
</event>
<event>
 4    1  0.5876320E+000  0.1000000E+03  0.7546771E-02  0.1280296E+00
         21   -1    0    0  501  502  0.00000000000E+00  0.00000000000E+00  0.69513640952E+03  0.69513640952E+03  0.00000000000E+00 0. -1.
         21   -1    0    0  502  503 -0.00000000000E+00 -0.00000000000E+00 -0.29158156479E+03  0.29158156479E+03  0.00000000000E+00 0.  1.
          6    1    1    2  501    0 -0.39453575354E+03 -0.11560343013E+02  0.34452262668E+03  0.55173992301E+03  0.17300000000E+03 0. -1.
         -6    1    1    2    0  503  0.39453575354E+03  0.11560343013E+02  0.59032218051E+02  0.43497805131E+03  0.17300000000E+03 0.  1.
</event>
<event>
 4    1  0.5876320E+000  0.1000000E+03  0.7546771E-02  0.1280296E+00
         21   -1    0    0  503  502  0.00000000000E+00  0.00000000000E+00  0.85279085326E+03  0.85279085326E+03  0.00000000000E+00 0. -1.
         21   -1    0    0  501  503 -0.00000000000E+00 -0.00000000000E+00 -0.31005522782E+03  0.31005522782E+03  0.00000000000E+00 0.  1.
          6    1    1    2  501    0  0.12119995968E+02 -0.89429975884E+02 -0.26656842354E+03  0.33035184171E+03  0.17300000000E+03 0.  1.
         -6    1    1    2    0  502 -0.12119995968E+02  0.89429975884E+02  0.80930404899E+03  0.83249423938E+03  0.17300000000E+03 0. -1.
</event>
<event>
 4    1  0.5876320E+000  0.1000000E+03  0.7546771E-02  0.1280296E+00
         21   -1    0    0  503  502  0.00000000000E+00  0.00000000000E+00  0.56570895060E+03  0.56570895060E+03  0.00000000000E+00 0. -1.
         21   -1    0    0  501  503 -0.00000000000E+00 -0.00000000000E+00 -0.21814478931E+03  0.21814478931E+03  0.00000000000E+00 0. -1.
          6    1    1    2  501    0 -0.45054664030E+02  0.11021533094E+02 -0.16337591232E+03  0.24242954784E+03  0.17300000000E+03 0. -1.
         -6    1    1    2    0  502  0.45054664030E+02 -0.11021533094E+02  0.51094007360E+03  0.54142419207E+03  0.17300000000E+03 0. -1.
</event>
<event>
 4    1  0.5876320E+000  0.1000000E+03  0.7546771E-02  0.1280296E+00
         21   -1    0    0  503  502  0.00000000000E+00  0.00000000000E+00  0.93860339256E+03  0.93860339256E+03  0.00000000000E+00 0. -1.
         21   -1    0    0  501  503 -0.00000000000E+00 -0.00000000000E+00 -0.11178470956E+03  0.11178470956E+03  0.00000000000E+00 0. -1.
          6    1    1    2  501    0 -0.19583115761E+03  0.17118202192E+03  0.27450454416E+03  0.41585438759E+03  0.17300000000E+03 0. -1.
         -6    1    1    2    0  502  0.19583115761E+03 -0.17118202192E+03  0.55231413884E+03  0.63453371453E+03  0.17300000000E+03 0. -1.
</event>
<event>
 4    1  0.5876320E+000  0.1000000E+03  0.7546771E-02  0.1280296E+00
         21   -1    0    0  503  502  0.00000000000E+00  0.00000000000E+00  0.31378207249E+03  0.31378207249E+03  0.00000000000E+00 0. -1.
         21   -1    0    0  501  503 -0.00000000000E+00 -0.00000000000E+00 -0.33230336599E+03  0.33230336599E+03  0.00000000000E+00 0. -1.
          6    1    1    2  501    0 -0.18416160717E+03 -0.17966625717E+03 -0.99555040264E+02  0.32563118334E+03  0.17300000000E+03 0. -1.
         -6    1    1    2    0  502  0.18416160717E+03  0.17966625717E+03  0.81033746762E+02  0.32045425514E+03  0.17300000000E+03 0. -1.
</event>
<event>
 4    1  0.5876320E+000  0.1000000E+03  0.7546771E-02  0.1280296E+00
         21   -1    0    0  501  502  0.00000000000E+00  0.00000000000E+00  0.45842255714E+03  0.45842255714E+03  0.00000000000E+00 0. -1.
         21   -1    0    0  502  503 -0.00000000000E+00 -0.00000000000E+00 -0.12751036291E+03  0.12751036291E+03  0.00000000000E+00 0. -1.
          6    1    1    2  501    0  0.35076921606E+02 -0.16074186576E+03  0.21169802433E+03  0.31908210753E+03  0.17300000000E+03 0. -1.
         -6    1    1    2    0  503 -0.35076921606E+02  0.16074186576E+03  0.11921416990E+03  0.26685081252E+03  0.17300000000E+03 0. -1.
</event>
<event>
 4    1  0.5876320E+000  0.1000000E+03  0.7546771E-02  0.1280296E+00
         21   -1    0    0  501  502  0.00000000000E+00  0.00000000000E+00  0.26476931876E+03  0.26476931876E+03  0.00000000000E+00 0. -1.
         21   -1    0    0  502  503 -0.00000000000E+00 -0.00000000000E+00 -0.21705900681E+03  0.21705900681E+03  0.00000000000E+00 0. -1.
          6    1    1    2  501    0  0.34848895565E+02  0.81704230852E+02  0.16473143610E+03  0.25486363590E+03  0.17300000000E+03 0. -1.
         -6    1    1    2    0  503 -0.34848895565E+02 -0.81704230852E+02 -0.11702112415E+03  0.22696468967E+03  0.17300000000E+03 0. -1.
</event>
<event>
 4    1  0.5876320E+000  0.1000000E+03  0.7546771E-02  0.1280296E+00
         21   -1    0    0  501  502  0.00000000000E+00  0.00000000000E+00  0.19863238583E+02  0.19863238583E+02  0.00000000000E+00 0. -1.
         21   -1    0    0  502  503 -0.00000000000E+00 -0.00000000000E+00 -0.23746737531E+04  0.23746737531E+04  0.00000000000E+00 0.  1.
          6    1    1    2  501    0  0.12332705083E+03 -0.13572611379E+02 -0.94055566475E+03  0.96434834772E+03  0.17300000000E+03 0. -1.
         -6    1    1    2    0  503 -0.12332705083E+03  0.13572611379E+02 -0.14142548498E+04  0.14301886440E+04  0.17300000000E+03 0.  1.
</event>
<event>
 4    1  0.5876320E+000  0.1000000E+03  0.7546771E-02  0.1280296E+00
         21   -1    0    0  503  502  0.00000000000E+00  0.00000000000E+00  0.69978632927E+03  0.69978632927E+03  0.00000000000E+00 0. -1.
         21   -1    0    0  501  503 -0.00000000000E+00 -0.00000000000E+00 -0.68965703467E+02  0.68965703467E+02  0.00000000000E+00 0. -1.
          6    1    1    2  501    0 -0.66271682759E+02  0.85411282455E+02  0.17277991696E+03  0.26733672178E+03  0.17300000000E+03 0.  1.
         -6    1    1    2    0  502  0.66271682759E+02 -0.85411282455E+02  0.45804070884E+03  0.50141531096E+03  0.17300000000E+03 0.  1.
</event>
<event>
 4    1  0.5876320E+000  0.1000000E+03  0.7546771E-02  0.1280296E+00
         21   -1    0    0  503  502  0.00000000000E+00  0.00000000000E+00  0.39682729581E+03  0.39682729581E+03  0.00000000000E+00 0. -1.
         21   -1    0    0  501  503 -0.00000000000E+00 -0.00000000000E+00 -0.15229697359E+03  0.15229697359E+03  0.00000000000E+00 0. -1.
          6    1    1    2  501    0  0.17152294758E+03  0.30472690786E+02  0.10823149230E+03  0.26831280692E+03  0.17300000000E+03 0. -1.
         -6    1    1    2    0  502 -0.17152294758E+03 -0.30472690786E+02  0.13629882992E+03  0.28081146249E+03  0.17300000000E+03 0. -1.
</event>
<event>
 4    1  0.5876320E+000  0.1000000E+03  0.7546771E-02  0.1280296E+00
         21   -1    0    0  503  502  0.00000000000E+00  0.00000000000E+00  0.42307284853E+02  0.42307284853E+02  0.00000000000E+00 0. -1.
         21   -1    0    0  501  503 -0.00000000000E+00 -0.00000000000E+00 -0.31192726431E+04  0.31192726431E+04  0.00000000000E+00 0. -1.
          6    1    1    2  501    0  0.68447164762E+02 -0.16805310964E+03 -0.26824587787E+04  0.26941493948E+04  0.17300000000E+03 0. -1.
         -6    1    1    2    0  502 -0.68447164762E+02  0.16805310964E+03 -0.39450657953E+03  0.46743053314E+03  0.17300000000E+03 0. -1.
</event>
<event>
 4    1  0.5876320E+000  0.1000000E+03  0.7546771E-02  0.1280296E+00
         21   -1    0    0  503  502  0.00000000000E+00  0.00000000000E+00  0.99931643939E+01  0.99931643939E+01  0.00000000000E+00 0. -1.
         21   -1    0    0  501  503 -0.00000000000E+00 -0.00000000000E+00 -0.36279054882E+04  0.36279054882E+04  0.00000000000E+00 0. -1.
          6    1    1    2  501    0  0.20897255895E+02  0.11188964375E+02 -0.10837203070E+04  0.10976978601E+04  0.17300000000E+03 0. -1.
         -6    1    1    2    0  502 -0.20897255895E+02 -0.11188964375E+02 -0.25341920168E+04  0.25402007925E+04  0.17300000000E+03 0. -1.
</event>
<event>
 4    1  0.5876320E+000  0.1000000E+03  0.7546771E-02  0.1280296E+00
         21   -1    0    0  503  502  0.00000000000E+00  0.00000000000E+00  0.20201102554E+03  0.20201102554E+03  0.00000000000E+00 0. -1.
         21   -1    0    0  501  503 -0.00000000000E+00 -0.00000000000E+00 -0.18133757874E+03  0.18133757874E+03  0.00000000000E+00 0.  1.
          6    1    1    2  501    0  0.47460807344E+02 -0.63781196100E+02 -0.92524843342E+01  0.19061788394E+03  0.17300000000E+03 0.  1.
         -6    1    1    2    0  502 -0.47460807344E+02  0.63781196100E+02  0.29925931136E+02  0.19273072034E+03  0.17300000000E+03 0. -1.
</event>
<event>
 4    1  0.5876320E+000  0.1000000E+03  0.7546771E-02  0.1280296E+00
         21   -1    0    0  503  502  0.00000000000E+00  0.00000000000E+00  0.15003968144E+03  0.15003968144E+03  0.00000000000E+00 0. -1.
         21   -1    0    0  501  503 -0.00000000000E+00 -0.00000000000E+00 -0.43085102668E+03  0.43085102668E+03  0.00000000000E+00 0.  1.
          6    1    1    2  501    0 -0.13755681730E+03  0.94485082170E+02 -0.23506505809E+03  0.33620513125E+03  0.17300000000E+03 0.  1.
         -6    1    1    2    0  502  0.13755681730E+03 -0.94485082170E+02 -0.45746287144E+02  0.24468557687E+03  0.17300000000E+03 0. -1.
</event>
<event>
 4    1  0.5876320E+000  0.1000000E+03  0.7546771E-02  0.1280296E+00
         21   -1    0    0  503  502  0.00000000000E+00  0.00000000000E+00  0.75677545030E+03  0.75677545030E+03  0.00000000000E+00 0.  1.
         21   -1    0    0  501  503 -0.00000000000E+00 -0.00000000000E+00 -0.81780310351E+02  0.81780310351E+02  0.00000000000E+00 0.  1.
          6    1    1    2  501    0  0.84640228174E+02 -0.13798509207E+03  0.20962645391E+03  0.31634807418E+03  0.17300000000E+03 0.  1.
         -6    1    1    2    0  502 -0.84640228174E+02  0.13798509207E+03  0.46536868604E+03  0.52220768647E+03  0.17300000000E+03 0.  1.
</event>
<event>
 4    1  0.5876320E+000  0.1000000E+03  0.7546771E-02  0.1280296E+00
         21   -1    0    0  501  502  0.00000000000E+00  0.00000000000E+00  0.49203438866E+03  0.49203438866E+03  0.00000000000E+00 0.  1.
         21   -1    0    0  502  503 -0.00000000000E+00 -0.00000000000E+00 -0.62101120043E+02  0.62101120043E+02  0.00000000000E+00 0.  1.
          6    1    1    2  501    0  0.43550801919E+01  0.89863245561E+01  0.17857410942E+03  0.24883213882E+03  0.17300000000E+03 0. -1.
         -6    1    1    2    0  503 -0.43550801919E+01 -0.89863245561E+01  0.25135915920E+03  0.30530336989E+03  0.17300000000E+03 0. -1.
</event>
<event>
 4    1  0.5876320E+000  0.1000000E+03  0.7546771E-02  0.1280296E+00
         21   -1    0    0  501  502  0.00000000000E+00  0.00000000000E+00  0.14040609188E+03  0.14040609188E+03  0.00000000000E+00 0.  1.
         21   -1    0    0  502  503 -0.00000000000E+00 -0.00000000000E+00 -0.45540468267E+03  0.45540468267E+03  0.00000000000E+00 0.  1.
          6    1    1    2  501    0  0.14720648128E+03 -0.10336732290E+03 -0.10952770063E+03  0.27254333376E+03  0.17300000000E+03 0. -1.
         -6    1    1    2    0  503 -0.14720648128E+03  0.10336732290E+03 -0.20547089015E+03  0.32326744079E+03  0.17300000000E+03 0. -1.
</event>
<event>
 4    1  0.5876320E+000  0.1000000E+03  0.7546771E-02  0.1280296E+00
         21   -1    0    0  501  502  0.00000000000E+00  0.00000000000E+00  0.68311516287E+03  0.68311516287E+03  0.00000000000E+00 0. -1.
         21   -1    0    0  502  503 -0.00000000000E+00 -0.00000000000E+00 -0.58097344527E+02  0.58097344527E+02  0.00000000000E+00 0. -1.
          6    1    1    2  501    0  0.48995451889E+02  0.83902978000E+02  0.27933919369E+03  0.34263632200E+03  0.17300000000E+03 0. -1.
         -6    1    1    2    0  503 -0.48995451889E+02 -0.83902978000E+02  0.34567862464E+03  0.39857618539E+03  0.17300000000E+03 0. -1.
</event>
<event>
 4    1  0.5876320E+000  0.1000000E+03  0.7546771E-02  0.1280296E+00
         21   -1    0    0  501  502  0.00000000000E+00  0.00000000000E+00  0.23670732381E+03  0.23670732381E+03  0.00000000000E+00 0. -1.
         21   -1    0    0  502  503 -0.00000000000E+00 -0.00000000000E+00 -0.73974702664E+03  0.73974702664E+03  0.00000000000E+00 0. -1.
          6    1    1    2  501    0 -0.23123926997E+03  0.13477968294E+03  0.64874376528E+02  0.32523045312E+03  0.17300000000E+03 0. -1.
         -6    1    1    2    0  503  0.23123926997E+03 -0.13477968294E+03 -0.56791407936E+03  0.65122389732E+03  0.17300000000E+03 0. -1.
</event>
<event>
 4    1  0.5876320E+000  0.1000000E+03  0.7546771E-02  0.1280296E+00
         21   -1    0    0  503  502  0.00000000000E+00  0.00000000000E+00  0.18325092563E+03  0.18325092563E+03  0.00000000000E+00 0. -1.
         21   -1    0    0  501  503 -0.00000000000E+00 -0.00000000000E+00 -0.35941484001E+03  0.35941484001E+03  0.00000000000E+00 0.  1.
          6    1    1    2  501    0  0.18843890052E+03  0.92189051221E+01 -0.10757382775E+03  0.27766046866E+03  0.17300000000E+03 0.  1.
         -6    1    1    2    0  502 -0.18843890052E+03 -0.92189051221E+01 -0.68590086637E+02  0.26500529698E+03  0.17300000000E+03 0. -1.
</event>
<event>
 4    1  0.5876320E+000  0.1000000E+03  0.7546771E-02  0.1280296E+00
         21   -1    0    0  503  502  0.00000000000E+00  0.00000000000E+00  0.70792301399E+03  0.70792301399E+03  0.00000000000E+00 0. -1.
         21   -1    0    0  501  503 -0.00000000000E+00 -0.00000000000E+00 -0.77752001755E+02  0.77752001755E+02  0.00000000000E+00 0.  1.
          6    1    1    2  501    0  0.10764269295E+03  0.64332109236E+02  0.47732160176E+03  0.52296317378E+03  0.17300000000E+03 0.  1.
         -6    1    1    2    0  502 -0.10764269295E+03 -0.64332109236E+02  0.15284941047E+03  0.26271184196E+03  0.17300000000E+03 0. -1.
</event>
<event>
 4    1  0.5876320E+000  0.1000000E+03  0.7546771E-02  0.1280296E+00
         21   -1    0    0  503  502  0.00000000000E+00  0.00000000000E+00  0.14855274828E+04  0.14855274828E+04  0.00000000000E+00 0. -1.
         21   -1    0    0  501  503 -0.00000000000E+00 -0.00000000000E+00 -0.33507217813E+02  0.33507217813E+02  0.00000000000E+00 0. -1.
          6    1    1    2  501    0 -0.28195602145E+02 -0.22767087080E+02  0.26255510058E+03  0.31650831438E+03  0.17300000000E+03 0. -1.
         -6    1    1    2    0  502  0.28195602145E+02  0.22767087080E+02  0.11894651645E+04  0.12025263863E+04  0.17300000000E+03 0. -1.
</event>
<event>
 4    1  0.5876320E+000  0.1000000E+03  0.7546771E-02  0.1280296E+00
         21   -1    0    0  503  502  0.00000000000E+00  0.00000000000E+00  0.25862315478E+03  0.25862315478E+03  0.00000000000E+00 0. -1.
         21   -1    0    0  501  503 -0.00000000000E+00 -0.00000000000E+00 -0.20709242208E+03  0.20709242208E+03  0.00000000000E+00 0. -1.
          6    1    1    2  501    0 -0.12410243970E+01  0.12569776137E+03 -0.63259688080E+02  0.22300729918E+03  0.17300000000E+03 0. -1.
         -6    1    1    2    0  502  0.12410243970E+01 -0.12569776137E+03  0.11479042078E+03  0.24270827768E+03  0.17300000000E+03 0. -1.
</event>
<event>
 4    1  0.5876320E+000  0.1000000E+03  0.7546771E-02  0.1280296E+00
         21   -1    0    0  503  502  0.00000000000E+00  0.00000000000E+00  0.22971087334E+03  0.22971087334E+03  0.00000000000E+00 0. -1.
         21   -1    0    0  501  503 -0.00000000000E+00 -0.00000000000E+00 -0.60963623930E+03  0.60963623930E+03  0.00000000000E+00 0. -1.
          6    1    1    2  501    0  0.16780141424E+03 -0.93813449408E+02 -0.49328258230E+03  0.55696946407E+03  0.17300000000E+03 0. -1.
         -6    1    1    2    0  502 -0.16780141424E+03  0.93813449408E+02  0.11335721634E+03  0.28237764856E+03  0.17300000000E+03 0. -1.
</event>
<event>
 4    1  0.5876320E+000  0.1000000E+03  0.7546771E-02  0.1280296E+00
         21   -1    0    0  501  502  0.00000000000E+00  0.00000000000E+00  0.83488346295E+03  0.83488346295E+03  0.00000000000E+00 0. -1.
         21   -1    0    0  502  503 -0.00000000000E+00 -0.00000000000E+00 -0.50496936534E+02  0.50496936534E+02  0.00000000000E+00 0. -1.
          6    1    1    2  501    0 -0.16434341098E+02 -0.10884739281E+03  0.41503238712E+03  0.46292410268E+03  0.17300000000E+03 0. -1.
         -6    1    1    2    0  503  0.16434341098E+02  0.10884739281E+03  0.36935413929E+03  0.42245629680E+03  0.17300000000E+03 0. -1.
</event>
<event>
 4    1  0.5876320E+000  0.1000000E+03  0.7546771E-02  0.1280296E+00
         21   -1    0    0  501  502  0.00000000000E+00  0.00000000000E+00  0.22413526918E+03  0.22413526918E+03  0.00000000000E+00 0. -1.
         21   -1    0    0  502  503 -0.00000000000E+00 -0.00000000000E+00 -0.57034130665E+03  0.57034130665E+03  0.00000000000E+00 0. -1.
          6    1    1    2  501    0 -0.21303984334E+03 -0.20714950887E+03 -0.64200356962E+02  0.34978218895E+03  0.17300000000E+03 0. -1.
         -6    1    1    2    0  503  0.21303984334E+03  0.20714950887E+03 -0.28200568051E+03  0.44469438687E+03  0.17300000000E+03 0. -1.
</event>
<event>
 4    1  0.5876320E+000  0.1000000E+03  0.7546771E-02  0.1280296E+00
         21   -1    0    0  503  502  0.00000000000E+00  0.00000000000E+00  0.17579182782E+04  0.17579182782E+04  0.00000000000E+00 0. -1.
         21   -1    0    0  501  503 -0.00000000000E+00 -0.00000000000E+00 -0.33193516127E+02  0.33193516127E+02  0.00000000000E+00 0. -1.
          6    1    1    2  501    0 -0.56949293490E+02  0.65502170561E+02  0.32653763076E+03  0.37959133378E+03  0.17300000000E+03 0. -1.
         -6    1    1    2    0  502  0.56949293490E+02 -0.65502170561E+02  0.13981871313E+04  0.14115204605E+04  0.17300000000E+03 0. -1.
</event>
<event>
 4    1  0.5876320E+000  0.1000000E+03  0.7546771E-02  0.1280296E+00
         21   -1    0    0  501  502  0.00000000000E+00  0.00000000000E+00  0.22538342951E+04  0.22538342951E+04  0.00000000000E+00 0.  1.
         21   -1    0    0  502  503 -0.00000000000E+00 -0.00000000000E+00 -0.14152766692E+03  0.14152766692E+03  0.00000000000E+00 0. -1.
          6    1    1    2  501    0 -0.17370512292E+03  0.40155724521E+02  0.21317508658E+04  0.21461772307E+04  0.17300000000E+03 0. -1.
         -6    1    1    2    0  503  0.17370512292E+03 -0.40155724521E+02 -0.19444237592E+02  0.24918473130E+03  0.17300000000E+03 0.  1.
</event>
<event>
 4    1  0.5876320E+000  0.1000000E+03  0.7546771E-02  0.1280296E+00
         21   -1    0    0  501  502  0.00000000000E+00  0.00000000000E+00  0.51322930365E+03  0.51322930365E+03  0.00000000000E+00 0.  1.
         21   -1    0    0  502  503 -0.00000000000E+00 -0.00000000000E+00 -0.25756950459E+03  0.25756950459E+03  0.00000000000E+00 0. -1.
          6    1    1    2  501    0  0.17525127388E+03  0.25741762125E+03  0.20490021751E+03  0.41096221221E+03  0.17300000000E+03 0. -1.
         -6    1    1    2    0  503 -0.17525127388E+03 -0.25741762125E+03  0.50759581538E+02  0.35983659603E+03  0.17300000000E+03 0.  1.
</event>
<event>
 4    1  0.5876320E+000  0.1000000E+03  0.7546771E-02  0.1280296E+00
         21   -1    0    0  501  502  0.00000000000E+00  0.00000000000E+00  0.10877814752E+04  0.10877814752E+04  0.00000000000E+00 0.  1.
         21   -1    0    0  502  503 -0.00000000000E+00 -0.00000000000E+00 -0.45945252559E+02  0.45945252559E+02  0.00000000000E+00 0. -1.
          6    1    1    2  501    0 -0.10966889558E+03 -0.49752611696E+02  0.33207171117E+03  0.39332328991E+03  0.17300000000E+03 0. -1.
         -6    1    1    2    0  503  0.10966889558E+03  0.49752611696E+02  0.70976451145E+03  0.74040343782E+03  0.17300000000E+03 0.  1.
</event>
<event>
 4    1  0.5876320E+000  0.1000000E+03  0.7546771E-02  0.1280296E+00
         21   -1    0    0  503  502  0.00000000000E+00  0.00000000000E+00  0.89642867667E+03  0.89642867667E+03  0.00000000000E+00 0.  1.
         21   -1    0    0  501  503 -0.00000000000E+00 -0.00000000000E+00 -0.16880666182E+03  0.16880666182E+03  0.00000000000E+00 0. -1.
          6    1    1    2  501    0 -0.58728517501E+02  0.14236634419E+01 -0.10640684825E+03  0.21142961699E+03  0.17300000000E+03 0.  1.
         -6    1    1    2    0  502  0.58728517501E+02 -0.14236634419E+01  0.83402886310E+03  0.85380572150E+03  0.17300000000E+03 0.  1.
</event>
<event>
 4    1  0.5876320E+000  0.1000000E+03  0.7546771E-02  0.1280296E+00
         21   -1    0    0  503  502  0.00000000000E+00  0.00000000000E+00  0.58523133563E+02  0.58523133563E+02  0.00000000000E+00 0.  1.
         21   -1    0    0  501  503 -0.00000000000E+00 -0.00000000000E+00 -0.65779021779E+03  0.65779021779E+03  0.00000000000E+00 0. -1.
          6    1    1    2  501    0  0.31770215247E+02 -0.68421753200E+02 -0.39752948020E+03  0.44005632653E+03  0.17300000000E+03 0.  1.
         -6    1    1    2    0  502 -0.31770215247E+02  0.68421753200E+02 -0.20173760403E+03  0.27625702483E+03  0.17300000000E+03 0.  1.
</event>
<event>
 4    1  0.5876320E+000  0.1000000E+03  0.7546771E-02  0.1280296E+00
         21   -1    0    0  503  502  0.00000000000E+00  0.00000000000E+00  0.71888909315E+02  0.71888909315E+02  0.00000000000E+00 0. -1.
         21   -1    0    0  501  503 -0.00000000000E+00 -0.00000000000E+00 -0.13932579802E+04  0.13932579802E+04  0.00000000000E+00 0.  1.
          6    1    1    2  501    0  0.75713891040E+02  0.11810767997E+03 -0.11811115004E+04  0.12019298622E+04  0.17300000000E+03 0. -1.
         -6    1    1    2    0  502 -0.75713891040E+02 -0.11810767997E+03 -0.14025757047E+03  0.26321702726E+03  0.17300000000E+03 0.  1.
</event>
<event>
 4    1  0.5876320E+000  0.1000000E+03  0.7546771E-02  0.1280296E+00
         21   -1    0    0  503  502  0.00000000000E+00  0.00000000000E+00  0.62487257260E+02  0.62487257260E+02  0.00000000000E+00 0. -1.
         21   -1    0    0  501  503 -0.00000000000E+00 -0.00000000000E+00 -0.10186243422E+04  0.10186243422E+04  0.00000000000E+00 0.  1.
          6    1    1    2  501    0 -0.86614493440E+02  0.24004622796E+02 -0.82117471644E+03  0.84399953040E+03  0.17300000000E+03 0. -1.
         -6    1    1    2    0  502  0.86614493440E+02 -0.24004622796E+02 -0.13496236853E+03  0.23711206909E+03  0.17300000000E+03 0.  1.
</event>
<event>
 4    1  0.5876320E+000  0.1000000E+03  0.7546771E-02  0.1280296E+00
         21   -1    0    0  503  502  0.00000000000E+00  0.00000000000E+00  0.43978680638E+03  0.43978680638E+03  0.00000000000E+00 0. -1.
         21   -1    0    0  501  503 -0.00000000000E+00 -0.00000000000E+00 -0.40595975843E+03  0.40595975843E+03  0.00000000000E+00 0.  1.
          6    1    1    2  501    0 -0.93365596256E+02 -0.84978828049E+02 -0.34761464198E+03  0.40829336892E+03  0.17300000000E+03 0. -1.
         -6    1    1    2    0  502  0.93365596256E+02  0.84978828049E+02  0.38144168993E+03  0.43745319590E+03  0.17300000000E+03 0.  1.
</event>
<event>
 4    1  0.5876320E+000  0.1000000E+03  0.7546771E-02  0.1280296E+00
         21   -1    0    0  503  502  0.00000000000E+00  0.00000000000E+00  0.18096965227E+03  0.18096965227E+03  0.00000000000E+00 0. -1.
         21   -1    0    0  501  503 -0.00000000000E+00 -0.00000000000E+00 -0.30089432242E+03  0.30089432242E+03  0.00000000000E+00 0.  1.
          6    1    1    2  501    0 -0.33041748349E+02  0.54820063132E+02 -0.20752760894E+03  0.27765753174E+03  0.17300000000E+03 0. -1.
         -6    1    1    2    0  502  0.33041748349E+02 -0.54820063132E+02  0.87602938797E+02  0.20420644295E+03  0.17300000000E+03 0.  1.
</event>
<event>
 4    1  0.5876320E+000  0.1000000E+03  0.7546771E-02  0.1280296E+00
         21   -1    0    0  503  502  0.00000000000E+00  0.00000000000E+00  0.15604396415E+03  0.15604396415E+03  0.00000000000E+00 0. -1.
         21   -1    0    0  501  503 -0.00000000000E+00 -0.00000000000E+00 -0.43908952546E+03  0.43908952546E+03  0.00000000000E+00 0. -1.
          6    1    1    2  501    0  0.83643493570E+02  0.38815130528E+02 -0.33870258011E+03  0.39134548183E+03  0.17300000000E+03 0. -1.
         -6    1    1    2    0  502 -0.83643493570E+02 -0.38815130528E+02  0.55657018794E+02  0.20378800778E+03  0.17300000000E+03 0. -1.
</event>
<event>
 4    1  0.5876320E+000  0.1000000E+03  0.7546771E-02  0.1280296E+00
         21   -1    0    0  503  502  0.00000000000E+00  0.00000000000E+00  0.58022385793E+03  0.58022385793E+03  0.00000000000E+00 0. -1.
         21   -1    0    0  501  503 -0.00000000000E+00 -0.00000000000E+00 -0.16848742923E+03  0.16848742923E+03  0.00000000000E+00 0. -1.
          6    1    1    2  501    0 -0.25193048495E+03 -0.22485600744E+02  0.28022480716E+03  0.41524632935E+03  0.17300000000E+03 0. -1.
         -6    1    1    2    0  502  0.25193048495E+03  0.22485600744E+02  0.13151162154E+03  0.33346495781E+03  0.17300000000E+03 0. -1.
</event>
<event>
 4    1  0.5876320E+000  0.1000000E+03  0.7546771E-02  0.1280296E+00
         21   -1    0    0  503  502  0.00000000000E+00  0.00000000000E+00  0.68928396966E+02  0.68928396966E+02  0.00000000000E+00 0.  1.
         21   -1    0    0  501  503 -0.00000000000E+00 -0.00000000000E+00 -0.47916690253E+03  0.47916690253E+03  0.00000000000E+00 0.  1.
          6    1    1    2  501    0 -0.32190217359E+02  0.45395289739E+02 -0.20285029598E+03  0.27234938040E+03  0.17300000000E+03 0.  1.
         -6    1    1    2    0  502  0.32190217359E+02 -0.45395289739E+02 -0.20738820958E+03  0.27574591910E+03  0.17300000000E+03 0.  1.
</event>
<event>
 4    1  0.5876320E+000  0.1000000E+03  0.7546771E-02  0.1280296E+00
         21   -1    0    0  503  502  0.00000000000E+00  0.00000000000E+00  0.18901152863E+04  0.18901152863E+04  0.00000000000E+00 0.  1.
         21   -1    0    0  501  503 -0.00000000000E+00 -0.00000000000E+00 -0.39157362636E+02  0.39157362636E+02  0.00000000000E+00 0.  1.
          6    1    1    2  501    0 -0.11446085016E+03  0.92491957446E+02  0.39447569864E+03  0.45518801086E+03  0.17300000000E+03 0.  1.
         -6    1    1    2    0  502  0.11446085016E+03 -0.92491957446E+02  0.14564822250E+04  0.14740846381E+04  0.17300000000E+03 0.  1.
</event>
<event>
 4    1  0.5876320E+000  0.1000000E+03  0.7546771E-02  0.1280296E+00
         21   -1    0    0  503  502  0.00000000000E+00  0.00000000000E+00  0.35199909347E+02  0.35199909347E+02  0.00000000000E+00 0.  1.
         21   -1    0    0  501  503 -0.00000000000E+00 -0.00000000000E+00 -0.12454860368E+04  0.12454860368E+04  0.00000000000E+00 0.  1.
          6    1    1    2  501    0 -0.83750356318E+02 -0.31912048678E+02 -0.83964284409E+03  0.86195220672E+03  0.17300000000E+03 0.  1.
         -6    1    1    2    0  502  0.83750356318E+02  0.31912048678E+02 -0.37064328337E+03  0.41873373943E+03  0.17300000000E+03 0.  1.
</event>
<event>
 4    1  0.5876320E+000  0.1000000E+03  0.7546771E-02  0.1280296E+00
         21   -1    0    0  503  502  0.00000000000E+00  0.00000000000E+00  0.26310932656E+04  0.26310932656E+04  0.00000000000E+00 0.  1.
         21   -1    0    0  501  503 -0.00000000000E+00 -0.00000000000E+00 -0.48775935335E+02  0.48775935335E+02  0.00000000000E+00 0.  1.
          6    1    1    2  501    0  0.14222340607E+03 -0.19609444749E+03  0.54566848594E+03  0.62158155227E+03  0.17300000000E+03 0.  1.
         -6    1    1    2    0  502 -0.14222340607E+03  0.19609444749E+03  0.20366488443E+04  0.20582876487E+04  0.17300000000E+03 0.  1.
</event>
<event>
 4    1  0.5876320E+000  0.1000000E+03  0.7546771E-02  0.1280296E+00
         21   -1    0    0  503  502  0.00000000000E+00  0.00000000000E+00  0.78283234498E+02  0.78283234498E+02  0.00000000000E+00 0.  1.
         21   -1    0    0  501  503 -0.00000000000E+00 -0.00000000000E+00 -0.55268383050E+03  0.55268383050E+03  0.00000000000E+00 0.  1.
          6    1    1    2  501    0 -0.11083814834E+03  0.23637029227E+02 -0.27087934717E+03  0.34080555307E+03  0.17300000000E+03 0.  1.
         -6    1    1    2    0  502  0.11083814834E+03 -0.23637029227E+02 -0.20352124883E+03  0.29016151192E+03  0.17300000000E+03 0.  1.
</event>
<event>
 4    1  0.5876320E+000  0.1000000E+03  0.7546771E-02  0.1280296E+00
         21   -1    0    0  503  502  0.00000000000E+00  0.00000000000E+00  0.19172524118E+03  0.19172524118E+03  0.00000000000E+00 0.  1.
         21   -1    0    0  501  503 -0.00000000000E+00 -0.00000000000E+00 -0.69451940442E+03  0.69451940442E+03  0.00000000000E+00 0.  1.
          6    1    1    2  501    0 -0.26187112166E+03 -0.11560388468E+03 -0.74222820582E+02  0.34260585168E+03  0.17300000000E+03 0.  1.
         -6    1    1    2    0  502  0.26187112166E+03  0.11560388468E+03 -0.42857134265E+03  0.54363879392E+03  0.17300000000E+03 0.  1.
</event>
<event>
 4    1  0.5876320E+000  0.1000000E+03  0.7546771E-02  0.1280296E+00
         21   -1    0    0  503  502  0.00000000000E+00  0.00000000000E+00  0.18454381030E+04  0.18454381030E+04  0.00000000000E+00 0.  1.
         21   -1    0    0  501  503 -0.00000000000E+00 -0.00000000000E+00 -0.25987743044E+02  0.25987743044E+02  0.00000000000E+00 0.  1.
          6    1    1    2  501    0 -0.24246586611E+02 -0.73306975606E+02  0.44034411773E+03  0.47936807534E+03  0.17300000000E+03 0.  1.
         -6    1    1    2    0  502  0.24246586611E+02  0.73306975606E+02  0.13791062422E+04  0.13920577707E+04  0.17300000000E+03 0.  1.
</event>
<event>
 4    1  0.5876320E+000  0.1000000E+03  0.7546771E-02  0.1280296E+00
         21   -1    0    0  503  502  0.00000000000E+00  0.00000000000E+00  0.11208310411E+04  0.11208310411E+04  0.00000000000E+00 0.  1.
         21   -1    0    0  501  503 -0.00000000000E+00 -0.00000000000E+00 -0.21331118221E+03  0.21331118221E+03  0.00000000000E+00 0.  1.
          6    1    1    2  501    0 -0.27744807244E+03  0.28843167512E+03  0.75570892339E+03  0.87246503712E+03  0.17300000000E+03 0.  1.
         -6    1    1    2    0  502  0.27744807244E+03 -0.28843167512E+03  0.15181093550E+03  0.46167718619E+03  0.17300000000E+03 0.  1.
</event>
<event>
 4    1  0.5876320E+000  0.1000000E+03  0.7546771E-02  0.1280296E+00
         21   -1    0    0  501  502  0.00000000000E+00  0.00000000000E+00  0.28748395976E+03  0.28748395976E+03  0.00000000000E+00 0. -1.
         21   -1    0    0  502  503 -0.00000000000E+00 -0.00000000000E+00 -0.19600168141E+03  0.19600168141E+03  0.00000000000E+00 0.  1.
          6    1    1    2  501    0 -0.37160722922E+02  0.56063260904E+01 -0.11530076525E+03  0.21127142894E+03  0.17300000000E+03 0. -1.
         -6    1    1    2    0  503  0.37160722922E+02 -0.56063260904E+01  0.20678304360E+03  0.27221421223E+03  0.17300000000E+03 0.  1.
</event>
<event>
 4    1  0.5876320E+000  0.1000000E+03  0.7546771E-02  0.1280296E+00
         21   -1    0    0  501  502  0.00000000000E+00  0.00000000000E+00  0.34025694725E+03  0.34025694725E+03  0.00000000000E+00 0. -1.
         21   -1    0    0  502  503 -0.00000000000E+00 -0.00000000000E+00 -0.11334454667E+03  0.11334454667E+03  0.00000000000E+00 0.  1.
          6    1    1    2  501    0  0.66494444277E+01 -0.20245550671E+02  0.21792858422E+03  0.27906265471E+03  0.17300000000E+03 0. -1.
         -6    1    1    2    0  503 -0.66494444277E+01  0.20245550671E+02  0.89838163585E+01  0.17453883920E+03  0.17300000000E+03 0.  1.
</event>
<event>
 4    1  0.5876320E+000  0.1000000E+03  0.7546771E-02  0.1280296E+00
         21   -1    0    0  503  502  0.00000000000E+00  0.00000000000E+00  0.27520402155E+03  0.27520402155E+03  0.00000000000E+00 0. -1.
         21   -1    0    0  501  503 -0.00000000000E+00 -0.00000000000E+00 -0.23523668788E+03  0.23523668788E+03  0.00000000000E+00 0.  1.
          6    1    1    2  501    0 -0.14400742295E+03  0.99469120329E+02 -0.44843829162E+02  0.25014438386E+03  0.17300000000E+03 0.  1.
         -6    1    1    2    0  502  0.14400742295E+03 -0.99469120329E+02  0.84811162825E+02  0.26029632557E+03  0.17300000000E+03 0. -1.
</event>
<event>
 4    1  0.5876320E+000  0.1000000E+03  0.7546771E-02  0.1280296E+00
         21   -1    0    0  503  502  0.00000000000E+00  0.00000000000E+00  0.43091336410E+03  0.43091336410E+03  0.00000000000E+00 0. -1.
         21   -1    0    0  501  503 -0.00000000000E+00 -0.00000000000E+00 -0.87738996163E+02  0.87738996163E+02  0.00000000000E+00 0.  1.
          6    1    1    2  501    0 -0.71817678913E+02  0.42416589015E+02  0.21208308659E+03  0.28612092137E+03  0.17300000000E+03 0.  1.
         -6    1    1    2    0  502  0.71817678913E+02 -0.42416589015E+02  0.13109128134E+03  0.23253143889E+03  0.17300000000E+03 0. -1.
</event>
<event>
 4    1  0.5876320E+000  0.1000000E+03  0.7546771E-02  0.1280296E+00
         21   -1    0    0  503  502  0.00000000000E+00  0.00000000000E+00  0.48347631291E+03  0.48347631291E+03  0.00000000000E+00 0.  1.
         21   -1    0    0  501  503 -0.00000000000E+00 -0.00000000000E+00 -0.35111311584E+03  0.35111311584E+03  0.00000000000E+00 0.  1.
          6    1    1    2  501    0 -0.11517579643E+03 -0.14119190719E+03  0.39690261946E+03  0.46974600379E+03  0.17300000000E+03 0.  1.
         -6    1    1    2    0  502  0.11517579643E+03  0.14119190719E+03 -0.26453942240E+03  0.36484342497E+03  0.17300000000E+03 0.  1.
</event>
<event>
 4    1  0.5876320E+000  0.1000000E+03  0.7546771E-02  0.1280296E+00
         21   -1    0    0  503  502  0.00000000000E+00  0.00000000000E+00  0.78583773864E+03  0.78583773864E+03  0.00000000000E+00 0.  1.
         21   -1    0    0  501  503 -0.00000000000E+00 -0.00000000000E+00 -0.20046269967E+03  0.20046269967E+03  0.00000000000E+00 0.  1.
          6    1    1    2  501    0 -0.40257782087E+02 -0.99873818883E+02 -0.13050454202E+03  0.24198327257E+03  0.17300000000E+03 0.  1.
         -6    1    1    2    0  502  0.40257782087E+02  0.99873818883E+02  0.71587958100E+03  0.74431716574E+03  0.17300000000E+03 0.  1.
</event>
<event>
 4    1  0.5876320E+000  0.1000000E+03  0.7546771E-02  0.1280296E+00
         21   -1    0    0  501  502  0.00000000000E+00  0.00000000000E+00  0.31195207468E+03  0.31195207468E+03  0.00000000000E+00 0. -1.
         21   -1    0    0  502  503 -0.00000000000E+00 -0.00000000000E+00 -0.50809810186E+03  0.50809810186E+03  0.00000000000E+00 0.  1.
          6    1    1    2  501    0  0.25207066702E+03 -0.15424154608E+03  0.11108224304E+03  0.35999769503E+03  0.17300000000E+03 0. -1.
         -6    1    1    2    0  503 -0.25207066702E+03  0.15424154608E+03 -0.30722827023E+03  0.46005248150E+03  0.17300000000E+03 0.  1.
</event>
<event>
 4    1  0.5876320E+000  0.1000000E+03  0.7546771E-02  0.1280296E+00
         21   -1    0    0  501  502  0.00000000000E+00  0.00000000000E+00  0.39345700275E+03  0.39345700275E+03  0.00000000000E+00 0. -1.
         21   -1    0    0  502  503 -0.00000000000E+00 -0.00000000000E+00 -0.11571495261E+03  0.11571495261E+03  0.00000000000E+00 0. -1.
          6    1    1    2  501    0  0.68125346634E+02  0.25023955347E+02  0.26015288523E+03  0.32074255235E+03  0.17300000000E+03 0. -1.
         -6    1    1    2    0  503 -0.68125346634E+02 -0.25023955347E+02  0.17589164916E+02  0.18842940301E+03  0.17300000000E+03 0. -1.
</event>
<event>
 4    1  0.5876320E+000  0.1000000E+03  0.7546771E-02  0.1280296E+00
         21   -1    0    0  501  502  0.00000000000E+00  0.00000000000E+00  0.16356067586E+03  0.16356067586E+03  0.00000000000E+00 0.  1.
         21   -1    0    0  502  503 -0.00000000000E+00 -0.00000000000E+00 -0.47295077598E+03  0.47295077598E+03  0.00000000000E+00 0.  1.
          6    1    1    2  501    0 -0.82544092553E+02  0.15059949351E+02  0.75263007819E+02  0.20647965913E+03  0.17300000000E+03 0.  1.
         -6    1    1    2    0  503  0.82544092553E+02 -0.15059949351E+02 -0.38465310794E+03  0.43003179270E+03  0.17300000000E+03 0.  1.
</event>
<event>
 4    1  0.5876320E+000  0.1000000E+03  0.7546771E-02  0.1280296E+00
         21   -1    0    0  501  502  0.00000000000E+00  0.00000000000E+00  0.30664179811E+03  0.30664179811E+03  0.00000000000E+00 0.  1.
         21   -1    0    0  502  503 -0.00000000000E+00 -0.00000000000E+00 -0.25528710365E+03  0.25528710365E+03  0.00000000000E+00 0.  1.
          6    1    1    2  501    0 -0.46765582114E+01 -0.11693910811E+03  0.21262108589E+03  0.29804924319E+03  0.17300000000E+03 0.  1.
         -6    1    1    2    0  503  0.46765582114E+01  0.11693910811E+03 -0.16126639143E+03  0.26387965857E+03  0.17300000000E+03 0.  1.
</event>
<event>
 4    1  0.5876320E+000  0.1000000E+03  0.7546771E-02  0.1280296E+00
         21   -1    0    0  501  502  0.00000000000E+00  0.00000000000E+00  0.12272332662E+04  0.12272332662E+04  0.00000000000E+00 0.  1.
         21   -1    0    0  502  503 -0.00000000000E+00 -0.00000000000E+00 -0.50394543478E+02  0.50394543478E+02  0.00000000000E+00 0.  1.
          6    1    1    2  501    0 -0.28124767981E+02  0.11273437256E+03  0.93701853378E+03  0.95991289917E+03  0.17300000000E+03 0.  1.
         -6    1    1    2    0  503  0.28124767981E+02 -0.11273437256E+03  0.23982018889E+03  0.31771491046E+03  0.17300000000E+03 0.  1.
</event>
<event>
 4    1  0.5876320E+000  0.1000000E+03  0.7546771E-02  0.1280296E+00
         21   -1    0    0  503  502  0.00000000000E+00  0.00000000000E+00  0.59216472082E+03  0.59216472082E+03  0.00000000000E+00 0. -1.
         21   -1    0    0  501  503 -0.00000000000E+00 -0.00000000000E+00 -0.13598414032E+03  0.13598414032E+03  0.00000000000E+00 0. -1.
          6    1    1    2  501    0  0.48157845444E+02 -0.15544768316E+03  0.28862894465E+02  0.23925974788E+03  0.17300000000E+03 0.  1.
         -6    1    1    2    0  502 -0.48157845444E+02  0.15544768316E+03  0.42731768603E+03  0.48888911326E+03  0.17300000000E+03 0.  1.
</event>
<event>
 4    1  0.5876320E+000  0.1000000E+03  0.7546771E-02  0.1280296E+00
         21   -1    0    0  501  502  0.00000000000E+00  0.00000000000E+00  0.77521035689E+02  0.77521035689E+02  0.00000000000E+00 0.  1.
         21   -1    0    0  502  503 -0.00000000000E+00 -0.00000000000E+00 -0.70889644505E+03  0.70889644505E+03  0.00000000000E+00 0. -1.
          6    1    1    2  501    0 -0.10849974372E+03 -0.88382304132E+02 -0.19195295207E+03  0.29386827301E+03  0.17300000000E+03 0.  1.
         -6    1    1    2    0  503  0.10849974372E+03  0.88382304132E+02 -0.43942245728E+03  0.49254920773E+03  0.17300000000E+03 0.  1.
</event>
<event>
 4    1  0.5876320E+000  0.1000000E+03  0.7546771E-02  0.1280296E+00
         21   -1    0    0  501  502  0.00000000000E+00  0.00000000000E+00  0.14154728407E+03  0.14154728407E+03  0.00000000000E+00 0.  1.
         21   -1    0    0  502  503 -0.00000000000E+00 -0.00000000000E+00 -0.61135361250E+03  0.61135361250E+03  0.00000000000E+00 0. -1.
          6    1    1    2  501    0 -0.23524857976E+03 -0.20744967082E+02 -0.19794207744E+03  0.35338691820E+03  0.17300000000E+03 0.  1.
         -6    1    1    2    0  503  0.23524857976E+03  0.20744967082E+02 -0.27186425099E+03  0.39951397836E+03  0.17300000000E+03 0.  1.
</event>
<event>
 4    1  0.5876320E+000  0.1000000E+03  0.7546771E-02  0.1280296E+00
         21   -1    0    0  501  502  0.00000000000E+00  0.00000000000E+00  0.15378657863E+03  0.15378657863E+03  0.00000000000E+00 0. -1.
         21   -1    0    0  502  503 -0.00000000000E+00 -0.00000000000E+00 -0.44437798173E+03  0.44437798173E+03  0.00000000000E+00 0. -1.
          6    1    1    2  501    0 -0.14334406365E+03  0.66162136694E+02 -0.12437782382E+02  0.23453922347E+03  0.17300000000E+03 0. -1.
         -6    1    1    2    0  503  0.14334406365E+03 -0.66162136694E+02 -0.27815362071E+03  0.36362533689E+03  0.17300000000E+03 0. -1.
</event>
<event>
 4    1  0.5876320E+000  0.1000000E+03  0.7546771E-02  0.1280296E+00
         21   -1    0    0  503  502  0.00000000000E+00  0.00000000000E+00  0.73996876504E+03  0.73996876504E+03  0.00000000000E+00 0.  1.
         21   -1    0    0  501  503 -0.00000000000E+00 -0.00000000000E+00 -0.78865656871E+02  0.78865656871E+02  0.00000000000E+00 0.  1.
          6    1    1    2  501    0 -0.49195643066E+02 -0.12329717537E+03  0.15436922468E+03  0.26717271994E+03  0.17300000000E+03 0.  1.
         -6    1    1    2    0  502  0.49195643066E+02  0.12329717537E+03  0.50673388348E+03  0.55166170197E+03  0.17300000000E+03 0.  1.
</event>
<event>
 4    1  0.5876320E+000  0.1000000E+03  0.7546771E-02  0.1280296E+00
         21   -1    0    0  501  502  0.00000000000E+00  0.00000000000E+00  0.13975971943E+04  0.13975971943E+04  0.00000000000E+00 0. -1.
         21   -1    0    0  502  503 -0.00000000000E+00 -0.00000000000E+00 -0.60199583523E+02  0.60199583523E+02  0.00000000000E+00 0. -1.
          6    1    1    2  501    0  0.10124753260E+02 -0.17017071966E+03  0.10671789174E+04  0.10944681019E+04  0.17300000000E+03 0. -1.
         -6    1    1    2    0  503 -0.10124753260E+02  0.17017071966E+03  0.27021869339E+03  0.36332867587E+03  0.17300000000E+03 0. -1.
</event>
<event>
 4    1  0.5876320E+000  0.1000000E+03  0.7546771E-02  0.1280296E+00
         21   -1    0    0  501  502  0.00000000000E+00  0.00000000000E+00  0.56229985778E+02  0.56229985778E+02  0.00000000000E+00 0. -1.
         21   -1    0    0  502  503 -0.00000000000E+00 -0.00000000000E+00 -0.63939235791E+03  0.63939235791E+03  0.00000000000E+00 0. -1.
          6    1    1    2  501    0 -0.41435194198E+02 -0.46868797480E+02 -0.20731278314E+03  0.27716628502E+03  0.17300000000E+03 0. -1.
         -6    1    1    2    0  503  0.41435194198E+02  0.46868797480E+02 -0.37584958899E+03  0.41845605867E+03  0.17300000000E+03 0. -1.
</event>
<event>
 4    1  0.5876320E+000  0.1000000E+03  0.7546771E-02  0.1280296E+00
         21   -1    0    0  501  502  0.00000000000E+00  0.00000000000E+00  0.11070205523E+03  0.11070205523E+03  0.00000000000E+00 0.  1.
         21   -1    0    0  502  503 -0.00000000000E+00 -0.00000000000E+00 -0.50512985504E+03  0.50512985504E+03  0.00000000000E+00 0.  1.
          6    1    1    2  501    0 -0.51896917065E+02 -0.55469813614E+02 -0.12056773496E+02  0.18932658559E+03  0.17300000000E+03 0.  1.
         -6    1    1    2    0  503  0.51896917065E+02  0.55469813614E+02 -0.38237102631E+03  0.42650532469E+03  0.17300000000E+03 0.  1.
</event>
<event>
 4    1  0.5876320E+000  0.1000000E+03  0.7546771E-02  0.1280296E+00
         21   -1    0    0  501  502  0.00000000000E+00  0.00000000000E+00  0.29170490090E+03  0.29170490090E+03  0.00000000000E+00 0.  1.
         21   -1    0    0  502  503 -0.00000000000E+00 -0.00000000000E+00 -0.16548427148E+03  0.16548427148E+03  0.00000000000E+00 0.  1.
          6    1    1    2  501    0 -0.99987665950E+02  0.47353317566E+02  0.14439568956E+03  0.25103582451E+03  0.17300000000E+03 0.  1.
         -6    1    1    2    0  503  0.99987665950E+02 -0.47353317566E+02 -0.18175060133E+02  0.20615334787E+03  0.17300000000E+03 0.  1.
</event>
<event>
 4    1  0.5876320E+000  0.1000000E+03  0.7546771E-02  0.1280296E+00
         21   -1    0    0  501  502  0.00000000000E+00  0.00000000000E+00  0.88297845980E+02  0.88297845980E+02  0.00000000000E+00 0.  1.
         21   -1    0    0  502  503 -0.00000000000E+00 -0.00000000000E+00 -0.52387444899E+03  0.52387444899E+03  0.00000000000E+00 0.  1.
          6    1    1    2  501    0  0.82798941407E+02 -0.87570283802E+02 -0.15734542518E+03  0.26307945972E+03  0.17300000000E+03 0.  1.
         -6    1    1    2    0  503 -0.82798941407E+02  0.87570283802E+02 -0.27823117783E+03  0.34909283525E+03  0.17300000000E+03 0.  1.
</event>
<event>
 4    1  0.5876320E+000  0.1000000E+03  0.7546771E-02  0.1280296E+00
         21   -1    0    0  501  502  0.00000000000E+00  0.00000000000E+00  0.31656805609E+02  0.31656805609E+02  0.00000000000E+00 0.  1.
         21   -1    0    0  502  503 -0.00000000000E+00 -0.00000000000E+00 -0.16780019019E+04  0.16780019019E+04  0.00000000000E+00 0.  1.
          6    1    1    2  501    0  0.13064914367E+03  0.54238190963E+02 -0.61401339780E+03  0.65341597224E+03  0.17300000000E+03 0.  1.
         -6    1    1    2    0  503 -0.13064914367E+03 -0.54238190963E+02 -0.10323316985E+04  0.10562427353E+04  0.17300000000E+03 0.  1.
</event>
<event>
 4    1  0.5876320E+000  0.1000000E+03  0.7546771E-02  0.1280296E+00
         21   -1    0    0  501  502  0.00000000000E+00  0.00000000000E+00  0.33334904476E+03  0.33334904476E+03  0.00000000000E+00 0.  1.
         21   -1    0    0  502  503 -0.00000000000E+00 -0.00000000000E+00 -0.99538582115E+02  0.99538582115E+02  0.00000000000E+00 0.  1.
          6    1    1    2  501    0  0.16455967136E+02  0.39005921045E+02  0.16230473093E+03  0.24096490702E+03  0.17300000000E+03 0.  1.
         -6    1    1    2    0  503 -0.16455967136E+02 -0.39005921045E+02  0.71505731719E+02  0.19192271986E+03  0.17300000000E+03 0.  1.
</event>
<event>
 4    1  0.5876320E+000  0.1000000E+03  0.7546771E-02  0.1280296E+00
         21   -1    0    0  503  502  0.00000000000E+00  0.00000000000E+00  0.31486445587E+03  0.31486445587E+03  0.00000000000E+00 0. -1.
         21   -1    0    0  501  503 -0.00000000000E+00 -0.00000000000E+00 -0.14697441410E+03  0.14697441410E+03  0.00000000000E+00 0. -1.
          6    1    1    2  501    0  0.83169828113E+02 -0.50787382010E+02  0.17279733479E+03  0.26321948520E+03  0.17300000000E+03 0. -1.
         -6    1    1    2    0  502 -0.83169828113E+02  0.50787382010E+02 -0.49072930163E+01  0.19861938477E+03  0.17300000000E+03 0. -1.
</event>
<event>
 4    1  0.5876320E+000  0.1000000E+03  0.7546771E-02  0.1280296E+00
         21   -1    0    0  503  502  0.00000000000E+00  0.00000000000E+00  0.54555190258E+03  0.54555190258E+03  0.00000000000E+00 0. -1.
         21   -1    0    0  501  503 -0.00000000000E+00 -0.00000000000E+00 -0.74589074979E+02  0.74589074979E+02  0.00000000000E+00 0. -1.
          6    1    1    2  501    0  0.25937661844E+02  0.90924129300E+02  0.16984752210E+03  0.26022517241E+03  0.17300000000E+03 0. -1.
         -6    1    1    2    0  502 -0.25937661844E+02 -0.90924129300E+02  0.30111530551E+03  0.35991580516E+03  0.17300000000E+03 0. -1.
</event>
<event>
 4    1  0.5876320E+000  0.1000000E+03  0.7546771E-02  0.1280296E+00
         21   -1    0    0  501  502  0.00000000000E+00  0.00000000000E+00  0.16544298924E+03  0.16544298924E+03  0.00000000000E+00 0.  1.
         21   -1    0    0  502  503 -0.00000000000E+00 -0.00000000000E+00 -0.26844836194E+03  0.26844836194E+03  0.00000000000E+00 0. -1.
          6    1    1    2  501    0  0.48791154193E+02  0.71335977011E+02  0.34714695103E+02  0.19647775548E+03  0.17300000000E+03 0.  1.
         -6    1    1    2    0  503 -0.48791154193E+02 -0.71335977011E+02 -0.13772006780E+03  0.23741359569E+03  0.17300000000E+03 0.  1.
</event>
<event>
 4    1  0.5876320E+000  0.1000000E+03  0.7546771E-02  0.1280296E+00
         21   -1    0    0  501  502  0.00000000000E+00  0.00000000000E+00  0.66935994210E+03  0.66935994210E+03  0.00000000000E+00 0.  1.
         21   -1    0    0  502  503 -0.00000000000E+00 -0.00000000000E+00 -0.54212302634E+02  0.54212302634E+02  0.00000000000E+00 0. -1.
          6    1    1    2  501    0  0.63731224411E+02  0.46384231597E+02  0.33047312113E+03  0.38125404876E+03  0.17300000000E+03 0.  1.
         -6    1    1    2    0  503 -0.63731224411E+02 -0.46384231597E+02  0.28467451834E+03  0.34231819598E+03  0.17300000000E+03 0.  1.
</event>
<event>
 4    1  0.5876320E+000  0.1000000E+03  0.7546771E-02  0.1280296E+00
         21   -1    0    0  501  502  0.00000000000E+00  0.00000000000E+00  0.17038565200E+04  0.17038565200E+04  0.00000000000E+00 0.  1.
         21   -1    0    0  502  503 -0.00000000000E+00 -0.00000000000E+00 -0.54888098083E+02  0.54888098083E+02  0.00000000000E+00 0.  1.
          6    1    1    2  501    0  0.26442668712E+02 -0.39761650006E+02  0.15365018895E+04  0.15469477238E+04  0.17300000000E+03 0.  1.
         -6    1    1    2    0  503 -0.26442668712E+02  0.39761650006E+02  0.11246653241E+03  0.21179689434E+03  0.17300000000E+03 0.  1.
</event>
<event>
 4    1  0.5876320E+000  0.1000000E+03  0.7546771E-02  0.1280296E+00
         21   -1    0    0  501  502  0.00000000000E+00  0.00000000000E+00  0.26093611601E+03  0.26093611601E+03  0.00000000000E+00 0.  1.
         21   -1    0    0  502  503 -0.00000000000E+00 -0.00000000000E+00 -0.17744856652E+03  0.17744856652E+03  0.00000000000E+00 0.  1.
          6    1    1    2  501    0 -0.12165108299E+03 -0.34784596705E+02  0.61199205949E+02  0.22289750328E+03  0.17300000000E+03 0.  1.
         -6    1    1    2    0  503  0.12165108299E+03  0.34784596705E+02  0.22288343541E+02  0.21548717924E+03  0.17300000000E+03 0.  1.
</event>
<event>
 4    1  0.5876320E+000  0.1000000E+03  0.7546771E-02  0.1280296E+00
         21   -1    0    0  501  502  0.00000000000E+00  0.00000000000E+00  0.58916980384E+03  0.58916980384E+03  0.00000000000E+00 0.  1.
         21   -1    0    0  502  503 -0.00000000000E+00 -0.00000000000E+00 -0.69513971196E+02  0.69513971196E+02  0.00000000000E+00 0.  1.
          6    1    1    2  501    0 -0.80544707887E+02  0.56208164132E+02  0.32027661575E+03  0.37703172052E+03  0.17300000000E+03 0.  1.
         -6    1    1    2    0  503  0.80544707887E+02 -0.56208164132E+02  0.19937921690E+03  0.28165205452E+03  0.17300000000E+03 0.  1.
</event>
<event>
 4    1  0.5876320E+000  0.1000000E+03  0.7546771E-02  0.1280296E+00
         21   -1    0    0  503  502  0.00000000000E+00  0.00000000000E+00  0.67683902627E+03  0.67683902627E+03  0.00000000000E+00 0.  1.
         21   -1    0    0  501  503 -0.00000000000E+00 -0.00000000000E+00 -0.20260464161E+03  0.20260464161E+03  0.00000000000E+00 0.  1.
          6    1    1    2  501    0 -0.17293476333E+03  0.11150450488E+03 -0.65299629996E+02  0.27664549274E+03  0.17300000000E+03 0.  1.
         -6    1    1    2    0  502  0.17293476333E+03 -0.11150450488E+03  0.53953401466E+03  0.60279817513E+03  0.17300000000E+03 0.  1.
</event>
<event>
 4    1  0.5876320E+000  0.1000000E+03  0.7546771E-02  0.1280296E+00
         21   -1    0    0  503  502  0.00000000000E+00  0.00000000000E+00  0.84660998132E+02  0.84660998132E+02  0.00000000000E+00 0.  1.
         21   -1    0    0  501  503 -0.00000000000E+00 -0.00000000000E+00 -0.12810885133E+04  0.12810885133E+04  0.00000000000E+00 0.  1.
          6    1    1    2  501    0 -0.50307723977E+02 -0.25899216284E+02 -0.11673114838E+04  0.11814172577E+04  0.17300000000E+03 0.  1.
         -6    1    1    2    0  502  0.50307723977E+02  0.25899216284E+02 -0.29116031364E+02  0.18433225377E+03  0.17300000000E+03 0.  1.
</event>
<event>
 4    1  0.5876320E+000  0.1000000E+03  0.7546771E-02  0.1280296E+00
         21   -1    0    0  503  502  0.00000000000E+00  0.00000000000E+00  0.74851631775E+03  0.74851631775E+03  0.00000000000E+00 0. -1.
         21   -1    0    0  501  503 -0.00000000000E+00 -0.00000000000E+00 -0.11456965287E+03  0.11456965287E+03  0.00000000000E+00 0. -1.
          6    1    1    2  501    0 -0.15260995259E+03 -0.68892630591E+02  0.71304207814E+02  0.25109616132E+03  0.17300000000E+03 0. -1.
         -6    1    1    2    0  502  0.15260995259E+03  0.68892630591E+02  0.56264245707E+03  0.61198980929E+03  0.17300000000E+03 0. -1.
</event>
<event>
 4    1  0.5876320E+000  0.1000000E+03  0.7546771E-02  0.1280296E+00
         21   -1    0    0  503  502  0.00000000000E+00  0.00000000000E+00  0.66140790786E+02  0.66140790786E+02  0.00000000000E+00 0. -1.
         21   -1    0    0  501  503 -0.00000000000E+00 -0.00000000000E+00 -0.12469654070E+04  0.12469654070E+04  0.00000000000E+00 0. -1.
          6    1    1    2  501    0  0.64162905213E+02 -0.24844953588E+02 -0.10903052419E+04  0.11060870990E+04  0.17300000000E+03 0. -1.
         -6    1    1    2    0  502 -0.64162905213E+02  0.24844953588E+02 -0.90519374315E+02  0.20701909876E+03  0.17300000000E+03 0. -1.
</event>
<event>
 4    1  0.5876320E+000  0.1000000E+03  0.7546771E-02  0.1280296E+00
         21   -1    0    0  501  502  0.00000000000E+00  0.00000000000E+00  0.15048229017E+04  0.15048229017E+04  0.00000000000E+00 0.  1.
         21   -1    0    0  502  503 -0.00000000000E+00 -0.00000000000E+00 -0.60497429317E+02  0.60497429317E+02  0.00000000000E+00 0. -1.
          6    1    1    2  501    0  0.94042506569E+02  0.19278505400E+02  0.13130676005E+04  0.13278897459E+04  0.17300000000E+03 0.  1.
         -6    1    1    2    0  503 -0.94042506569E+02 -0.19278505400E+02  0.13125787188E+03  0.23743058510E+03  0.17300000000E+03 0. -1.
</event>
<event>
 4    1  0.5876320E+000  0.1000000E+03  0.7546771E-02  0.1280296E+00
         21   -1    0    0  501  502  0.00000000000E+00  0.00000000000E+00  0.14999644221E+03  0.14999644221E+03  0.00000000000E+00 0.  1.
         21   -1    0    0  502  503 -0.00000000000E+00 -0.00000000000E+00 -0.33927236559E+03  0.33927236559E+03  0.00000000000E+00 0. -1.
          6    1    1    2  501    0  0.10585760713E+03  0.32807682266E+02  0.63860042334E+01  0.20555281086E+03  0.17300000000E+03 0.  1.
         -6    1    1    2    0  503 -0.10585760713E+03 -0.32807682266E+02 -0.19566192761E+03  0.28371599694E+03  0.17300000000E+03 0. -1.
</event>
<event>
 4    1  0.5876320E+000  0.1000000E+03  0.7546771E-02  0.1280296E+00
         21   -1    0    0  501  502  0.00000000000E+00  0.00000000000E+00  0.14766739243E+04  0.14766739243E+04  0.00000000000E+00 0.  1.
         21   -1    0    0  502  503 -0.00000000000E+00 -0.00000000000E+00 -0.29330845660E+02  0.29330845660E+02  0.00000000000E+00 0.  1.
          6    1    1    2  501    0 -0.10505490266E+03  0.46252640086E+02  0.67158266485E+03  0.70294246920E+03  0.17300000000E+03 0.  1.
         -6    1    1    2    0  503  0.10505490266E+03 -0.46252640086E+02  0.77576041377E+03  0.80306230073E+03  0.17300000000E+03 0.  1.
</event>
<event>
 4    1  0.5876320E+000  0.1000000E+03  0.7546771E-02  0.1280296E+00
         21   -1    0    0  501  502  0.00000000000E+00  0.00000000000E+00  0.20522069057E+03  0.20522069057E+03  0.00000000000E+00 0.  1.
         21   -1    0    0  502  503 -0.00000000000E+00 -0.00000000000E+00 -0.35120103301E+03  0.35120103301E+03  0.00000000000E+00 0.  1.
          6    1    1    2  501    0  0.34763400919E+02 -0.10492687021E+03  0.10628251870E+03  0.23117767175E+03  0.17300000000E+03 0.  1.
         -6    1    1    2    0  503 -0.34763400919E+02  0.10492687021E+03 -0.25226286114E+03  0.32524405182E+03  0.17300000000E+03 0.  1.
</event>
<event>
 4    1  0.5876320E+000  0.1000000E+03  0.7546771E-02  0.1280296E+00
         21   -1    0    0  501  502  0.00000000000E+00  0.00000000000E+00  0.14186267433E+03  0.14186267433E+03  0.00000000000E+00 0.  1.
         21   -1    0    0  502  503 -0.00000000000E+00 -0.00000000000E+00 -0.47188838014E+03  0.47188838014E+03  0.00000000000E+00 0.  1.
          6    1    1    2  501    0  0.18685141205E+03  0.58540138076E+01 -0.11109411851E+03  0.27788239028E+03  0.17300000000E+03 0.  1.
         -6    1    1    2    0  503 -0.18685141205E+03 -0.58540138076E+01 -0.21893158731E+03  0.33586866419E+03  0.17300000000E+03 0.  1.
</event>
<event>
 4    1  0.5876320E+000  0.1000000E+03  0.7546771E-02  0.1280296E+00
         21   -1    0    0  503  502  0.00000000000E+00  0.00000000000E+00  0.40972961345E+03  0.40972961345E+03  0.00000000000E+00 0. -1.
         21   -1    0    0  501  503 -0.00000000000E+00 -0.00000000000E+00 -0.22041882934E+03  0.22041882934E+03  0.00000000000E+00 0. -1.
          6    1    1    2  501    0 -0.41297697713E+02 -0.23040131769E+03  0.16248070596E+02  0.29151889618E+03  0.17300000000E+03 0. -1.
         -6    1    1    2    0  502  0.41297697713E+02  0.23040131769E+03  0.17306271351E+03  0.33862954661E+03  0.17300000000E+03 0. -1.
</event>
<event>
 4    1  0.5876320E+000  0.1000000E+03  0.7546771E-02  0.1280296E+00
         21   -1    0    0  503  502  0.00000000000E+00  0.00000000000E+00  0.11015243696E+03  0.11015243696E+03  0.00000000000E+00 0. -1.
         21   -1    0    0  501  503 -0.00000000000E+00 -0.00000000000E+00 -0.31276640151E+03  0.31276640151E+03  0.00000000000E+00 0. -1.
          6    1    1    2  501    0 -0.64635207313E+02 -0.17954947017E+01 -0.12237691477E+03  0.22155370250E+03  0.17300000000E+03 0. -1.
         -6    1    1    2    0  502  0.64635207313E+02  0.17954947017E+01 -0.80237049786E+02  0.20136513597E+03  0.17300000000E+03 0. -1.
</event>
<event>
 4    1  0.5876320E+000  0.1000000E+03  0.7546771E-02  0.1280296E+00
         21   -1    0    0  503  502  0.00000000000E+00  0.00000000000E+00  0.57124408700E+03  0.57124408700E+03  0.00000000000E+00 0.  1.
         21   -1    0    0  501  503 -0.00000000000E+00 -0.00000000000E+00 -0.17397311851E+03  0.17397311851E+03  0.00000000000E+00 0.  1.
          6    1    1    2  501    0 -0.64590017939E+02  0.14804326607E+02 -0.10284664082E+03  0.21189023109E+03  0.17300000000E+03 0.  1.
         -6    1    1    2    0  502  0.64590017939E+02 -0.14804326607E+02  0.50011760930E+03  0.53332697442E+03  0.17300000000E+03 0.  1.
</event>
<event>
 4    1  0.5876320E+000  0.1000000E+03  0.7546771E-02  0.1280296E+00
         21   -1    0    0  503  502  0.00000000000E+00  0.00000000000E+00  0.17131430026E+03  0.17131430026E+03  0.00000000000E+00 0. -1.
         21   -1    0    0  501  503 -0.00000000000E+00 -0.00000000000E+00 -0.34304092901E+03  0.34304092901E+03  0.00000000000E+00 0.  1.
          6    1    1    2  501    0 -0.72739345048E+02 -0.24027964251E+02 -0.24664931929E+03  0.31085887809E+03  0.17300000000E+03 0.  1.
         -6    1    1    2    0  502  0.72739345048E+02  0.24027964251E+02  0.74922690537E+02  0.20349635117E+03  0.17300000000E+03 0.  1.
</event>
<event>
 4    1  0.5876320E+000  0.1000000E+03  0.7546771E-02  0.1280296E+00
         21   -1    0    0  501  502  0.00000000000E+00  0.00000000000E+00  0.48268188459E+02  0.48268188459E+02  0.00000000000E+00 0.  1.
         21   -1    0    0  502  503 -0.00000000000E+00 -0.00000000000E+00 -0.13915667925E+04  0.13915667925E+04  0.00000000000E+00 0. -1.
          6    1    1    2  501    0 -0.13766991933E+03 -0.10362583628E+03 -0.43031521845E+03  0.49476409314E+03  0.17300000000E+03 0. -1.
         -6    1    1    2    0  503  0.13766991933E+03  0.10362583628E+03 -0.91298338563E+03  0.94507088786E+03  0.17300000000E+03 0.  1.
</event>
<event>
 4    1  0.5876320E+000  0.1000000E+03  0.7546771E-02  0.1280296E+00
         21   -1    0    0  501  502  0.00000000000E+00  0.00000000000E+00  0.23244621805E+03  0.23244621805E+03  0.00000000000E+00 0.  1.
         21   -1    0    0  502  503 -0.00000000000E+00 -0.00000000000E+00 -0.47085131648E+03  0.47085131648E+03  0.00000000000E+00 0.  1.
          6    1    1    2  501    0  0.12164119844E+03  0.65707612444E+02  0.14203809128E+03  0.26309293199E+03  0.17300000000E+03 0.  1.
         -6    1    1    2    0  503 -0.12164119844E+03 -0.65707612444E+02 -0.38044318971E+03  0.44020460253E+03  0.17300000000E+03 0.  1.
</event>
<event>
 4    1  0.5876320E+000  0.1000000E+03  0.7546771E-02  0.1280296E+00
         21   -1    0    0  503  502  0.00000000000E+00  0.00000000000E+00  0.34379712229E+03  0.34379712229E+03  0.00000000000E+00 0.  1.
         21   -1    0    0  501  503 -0.00000000000E+00 -0.00000000000E+00 -0.24959322336E+03  0.24959322336E+03  0.00000000000E+00 0.  1.
          6    1    1    2  501    0  0.19664984271E+03 -0.38341394314E+02 -0.79965529967E+02  0.27652252917E+03  0.17300000000E+03 0.  1.
         -6    1    1    2    0  502 -0.19664984271E+03  0.38341394314E+02  0.17416942890E+03  0.31686781648E+03  0.17300000000E+03 0.  1.
</event>
<event>
 4    1  0.5876320E+000  0.1000000E+03  0.7546771E-02  0.1280296E+00
         21   -1    0    0  503  502  0.00000000000E+00  0.00000000000E+00  0.64744435807E+02  0.64744435807E+02  0.00000000000E+00 0.  1.
         21   -1    0    0  501  503 -0.00000000000E+00 -0.00000000000E+00 -0.89633762722E+03  0.89633762722E+03  0.00000000000E+00 0.  1.
          6    1    1    2  501    0  0.52347070973E+02  0.15255811868E+02 -0.73202262610E+03  0.75416117691E+03  0.17300000000E+03 0.  1.
         -6    1    1    2    0  502 -0.52347070973E+02 -0.15255811868E+02 -0.99570565316E+02  0.20692088612E+03  0.17300000000E+03 0.  1.
</event>
<event>
 4    1  0.5876320E+000  0.1000000E+03  0.7546771E-02  0.1280296E+00
         21   -1    0    0  503  502  0.00000000000E+00  0.00000000000E+00  0.37905749438E+03  0.37905749438E+03  0.00000000000E+00 0.  1.
         21   -1    0    0  501  503 -0.00000000000E+00 -0.00000000000E+00 -0.13154855620E+03  0.13154855620E+03  0.00000000000E+00 0. -1.
          6    1    1    2  501    0 -0.62219057090E+02 -0.57782989118E+01 -0.21002296387E+02  0.18513426549E+03  0.17300000000E+03 0. -1.
         -6    1    1    2    0  502  0.62219057090E+02  0.57782989118E+01  0.26851123457E+03  0.32547178509E+03  0.17300000000E+03 0.  1.
</event>
<event>
 4    1  0.5876320E+000  0.1000000E+03  0.7546771E-02  0.1280296E+00
         21   -1    0    0  503  502  0.00000000000E+00  0.00000000000E+00  0.16442325407E+03  0.16442325407E+03  0.00000000000E+00 0.  1.
         21   -1    0    0  501  503 -0.00000000000E+00 -0.00000000000E+00 -0.32606210323E+03  0.32606210323E+03  0.00000000000E+00 0. -1.
          6    1    1    2  501    0  0.15353148939E+03  0.81792782507E+01 -0.73763974564E+02  0.24291756374E+03  0.17300000000E+03 0. -1.
         -6    1    1    2    0  502 -0.15353148939E+03 -0.81792782507E+01 -0.87874874595E+02  0.24756779357E+03  0.17300000000E+03 0.  1.
</event>
<event>
 4    1  0.5876320E+000  0.1000000E+03  0.7546771E-02  0.1280296E+00
         21   -1    0    0  503  502  0.00000000000E+00  0.00000000000E+00  0.51176629468E+03  0.51176629468E+03  0.00000000000E+00 0.  1.
         21   -1    0    0  501  503 -0.00000000000E+00 -0.00000000000E+00 -0.31440199501E+03  0.31440199501E+03  0.00000000000E+00 0. -1.
          6    1    1    2  501    0  0.25827113779E+03  0.13154375488E+03 -0.12449038602E+03  0.35977019926E+03  0.17300000000E+03 0. -1.
         -6    1    1    2    0  502 -0.25827113779E+03 -0.13154375488E+03  0.32185468569E+03  0.46639809044E+03  0.17300000000E+03 0.  1.
</event>
<event>
 4    1  0.5876320E+000  0.1000000E+03  0.7546771E-02  0.1280296E+00
         21   -1    0    0  503  502  0.00000000000E+00  0.00000000000E+00  0.12197581748E+03  0.12197581748E+03  0.00000000000E+00 0.  1.
         21   -1    0    0  501  503 -0.00000000000E+00 -0.00000000000E+00 -0.43124520491E+03  0.43124520491E+03  0.00000000000E+00 0. -1.
          6    1    1    2  501    0  0.13900646289E+02  0.11312407327E+03 -0.27330901357E+03  0.34295349658E+03  0.17300000000E+03 0. -1.
         -6    1    1    2    0  502 -0.13900646289E+02 -0.11312407327E+03 -0.35960373859E+02  0.21026752581E+03  0.17300000000E+03 0.  1.
</event>
<event>
 4    1  0.5876320E+000  0.1000000E+03  0.7546771E-02  0.1280296E+00
         21   -1    0    0  503  502  0.00000000000E+00  0.00000000000E+00  0.67153867852E+03  0.67153867852E+03  0.00000000000E+00 0.  1.
         21   -1    0    0  501  503 -0.00000000000E+00 -0.00000000000E+00 -0.13705487536E+03  0.13705487536E+03  0.00000000000E+00 0. -1.
          6    1    1    2  501    0  0.84820267338E+02 -0.57941218435E+02 -0.35352775975E+02  0.20428039875E+03  0.17300000000E+03 0. -1.
         -6    1    1    2    0  502 -0.84820267338E+02  0.57941218435E+02  0.56983657913E+03  0.60431315513E+03  0.17300000000E+03 0.  1.
</event>
<event>
 4    1  0.5876320E+000  0.1000000E+03  0.7546771E-02  0.1280296E+00
         21   -1    0    0  503  502  0.00000000000E+00  0.00000000000E+00  0.13792785639E+03  0.13792785639E+03  0.00000000000E+00 0.  1.
         21   -1    0    0  501  503 -0.00000000000E+00 -0.00000000000E+00 -0.56277961808E+03  0.56277961808E+03  0.00000000000E+00 0. -1.
          6    1    1    2  501    0 -0.19050053957E+03  0.22826674707E+02 -0.34360822699E+03  0.42989199377E+03  0.17300000000E+03 0. -1.
         -6    1    1    2    0  502  0.19050053957E+03 -0.22826674707E+02 -0.81243534702E+02  0.27081548070E+03  0.17300000000E+03 0.  1.
</event>
<event>
 4    1  0.5876320E+000  0.1000000E+03  0.7546771E-02  0.1280296E+00
         21   -1    0    0  503  502  0.00000000000E+00  0.00000000000E+00  0.16893266629E+03  0.16893266629E+03  0.00000000000E+00 0.  1.
         21   -1    0    0  501  503 -0.00000000000E+00 -0.00000000000E+00 -0.87115621446E+03  0.87115621446E+03  0.00000000000E+00 0. -1.
          6    1    1    2  501    0  0.26649117988E+03  0.85432897067E+02 -0.61855396438E+03  0.70060997402E+03  0.17300000000E+03 0. -1.
         -6    1    1    2    0  502 -0.26649117988E+03 -0.85432897067E+02 -0.83669583792E+02  0.33947890672E+03  0.17300000000E+03 0.  1.
</event>
<event>
 4    1  0.5876320E+000  0.1000000E+03  0.7546771E-02  0.1280296E+00
         21   -1    0    0  501  502  0.00000000000E+00  0.00000000000E+00  0.10419685918E+04  0.10419685918E+04  0.00000000000E+00 0. -1.
         21   -1    0    0  502  503 -0.00000000000E+00 -0.00000000000E+00 -0.80584894644E+02  0.80584894644E+02  0.00000000000E+00 0. -1.
          6    1    1    2  501    0 -0.14879188507E+03  0.17414246048E+03  0.55752165348E+03  0.62707576552E+03  0.17300000000E+03 0. -1.
         -6    1    1    2    0  503  0.14879188507E+03 -0.17414246048E+03  0.40386204367E+03  0.49547772092E+03  0.17300000000E+03 0. -1.
</event>
<event>
 4    1  0.5876320E+000  0.1000000E+03  0.7546771E-02  0.1280296E+00
         21   -1    0    0  501  502  0.00000000000E+00  0.00000000000E+00  0.39974750048E+03  0.39974750048E+03  0.00000000000E+00 0. -1.
         21   -1    0    0  502  503 -0.00000000000E+00 -0.00000000000E+00 -0.33602762021E+03  0.33602762021E+03  0.00000000000E+00 0. -1.
          6    1    1    2  501    0 -0.17397983971E+03  0.45861915862E+02  0.30124659186E+03  0.39121708687E+03  0.17300000000E+03 0. -1.
         -6    1    1    2    0  503  0.17397983971E+03 -0.45861915862E+02 -0.23752671159E+03  0.34455803382E+03  0.17300000000E+03 0. -1.
</event>
<event>
 4    1  0.5876320E+000  0.1000000E+03  0.7546771E-02  0.1280296E+00
         21   -1    0    0  501  502  0.00000000000E+00  0.00000000000E+00  0.43978962414E+03  0.43978962414E+03  0.00000000000E+00 0. -1.
         21   -1    0    0  502  503 -0.00000000000E+00 -0.00000000000E+00 -0.11943670438E+03  0.11943670438E+03  0.00000000000E+00 0. -1.
          6    1    1    2  501    0 -0.83799296962E+02 -0.21228709564E+02  0.31021904177E+03  0.36556508881E+03  0.17300000000E+03 0. -1.
         -6    1    1    2    0  503  0.83799296962E+02  0.21228709564E+02  0.10133877997E+02  0.19366123971E+03  0.17300000000E+03 0. -1.
</event>
<event>
 4    1  0.5876320E+000  0.1000000E+03  0.7546771E-02  0.1280296E+00
         21   -1    0    0  501  502  0.00000000000E+00  0.00000000000E+00  0.70545161747E+02  0.70545161747E+02  0.00000000000E+00 0. -1.
         21   -1    0    0  502  503 -0.00000000000E+00 -0.00000000000E+00 -0.63690346398E+03  0.63690346398E+03  0.00000000000E+00 0. -1.
          6    1    1    2  501    0  0.70665137979E+02  0.15177322840E+02 -0.11816947885E+03  0.22162341615E+03  0.17300000000E+03 0. -1.
         -6    1    1    2    0  503 -0.70665137979E+02 -0.15177322840E+02 -0.44818882339E+03  0.48582520958E+03  0.17300000000E+03 0. -1.
</event>
<event>
 4    1  0.5876320E+000  0.1000000E+03  0.7546771E-02  0.1280296E+00
         21   -1    0    0  501  502  0.00000000000E+00  0.00000000000E+00  0.80873494408E+03  0.80873494408E+03  0.00000000000E+00 0. -1.
         21   -1    0    0  502  503 -0.00000000000E+00 -0.00000000000E+00 -0.58470238107E+02  0.58470238107E+02  0.00000000000E+00 0. -1.
          6    1    1    2  501    0  0.62773325715E+02  0.36181895419E+01  0.60598991230E+03  0.63332957892E+03  0.17300000000E+03 0. -1.
         -6    1    1    2    0  503 -0.62773325715E+02 -0.36181895419E+01  0.14427479367E+03  0.23387560327E+03  0.17300000000E+03 0. -1.
</event>
<event>
 4    1  0.5876320E+000  0.1000000E+03  0.7546771E-02  0.1280296E+00
         21   -1    0    0  501  502  0.00000000000E+00  0.00000000000E+00  0.87816557420E+02  0.87816557420E+02  0.00000000000E+00 0. -1.
         21   -1    0    0  502  503 -0.00000000000E+00 -0.00000000000E+00 -0.76009357565E+03  0.76009357565E+03  0.00000000000E+00 0. -1.
          6    1    1    2  501    0  0.14741058649E+03  0.28096117551E+02 -0.13990456370E+03  0.26836832856E+03  0.17300000000E+03 0. -1.
         -6    1    1    2    0  503 -0.14741058649E+03 -0.28096117551E+02 -0.53237245453E+03  0.57954180451E+03  0.17300000000E+03 0. -1.
</event>
<event>
 4    1  0.5876320E+000  0.1000000E+03  0.7546771E-02  0.1280296E+00
         21   -1    0    0  503  502  0.00000000000E+00  0.00000000000E+00  0.45059964182E+03  0.45059964182E+03  0.00000000000E+00 0.  1.
         21   -1    0    0  501  503 -0.00000000000E+00 -0.00000000000E+00 -0.35777541487E+03  0.35777541487E+03  0.00000000000E+00 0. -1.
          6    1    1    2  501    0  0.29475865962E+03 -0.52878440808E+02 -0.15892078447E+03  0.38060952781E+03  0.17300000000E+03 0. -1.
         -6    1    1    2    0  502 -0.29475865962E+03  0.52878440808E+02  0.25174501143E+03  0.42776552888E+03  0.17300000000E+03 0.  1.
</event>
<event>
 4    1  0.5876320E+000  0.1000000E+03  0.7546771E-02  0.1280296E+00
         21   -1    0    0  503  502  0.00000000000E+00  0.00000000000E+00  0.47630665525E+03  0.47630665525E+03  0.00000000000E+00 0.  1.
         21   -1    0    0  501  503 -0.00000000000E+00 -0.00000000000E+00 -0.11212463572E+03  0.11212463572E+03  0.00000000000E+00 0. -1.
          6    1    1    2  501    0 -0.10239251147E+03  0.36830667172E+02  0.44758452675E+02  0.20922008397E+03  0.17300000000E+03 0. -1.
         -6    1    1    2    0  502  0.10239251147E+03 -0.36830667172E+02  0.31942356686E+03  0.37921120700E+03  0.17300000000E+03 0.  1.
</event>
<event>
 4    1  0.5876320E+000  0.1000000E+03  0.7546771E-02  0.1280296E+00
         21   -1    0    0  503  502  0.00000000000E+00  0.00000000000E+00  0.54071035778E+02  0.54071035778E+02  0.00000000000E+00 0.  1.
         21   -1    0    0  501  503 -0.00000000000E+00 -0.00000000000E+00 -0.10610737071E+04  0.10610737071E+04  0.00000000000E+00 0. -1.
          6    1    1    2  501    0 -0.53058529656E+01  0.16543163399E+03 -0.48727724057E+03  0.54292162121E+03  0.17300000000E+03 0. -1.
         -6    1    1    2    0  502  0.53058529656E+01 -0.16543163399E+03 -0.51972543078E+03  0.57222312170E+03  0.17300000000E+03 0.  1.
</event>
<event>
 4    1  0.5876320E+000  0.1000000E+03  0.7546771E-02  0.1280296E+00
         21   -1    0    0  503  502  0.00000000000E+00  0.00000000000E+00  0.27508947239E+03  0.27508947239E+03  0.00000000000E+00 0. -1.
         21   -1    0    0  501  503 -0.00000000000E+00 -0.00000000000E+00 -0.16267174159E+03  0.16267174159E+03  0.00000000000E+00 0.  1.
          6    1    1    2  501    0  0.42438021644E+02 -0.59627942629E+02 -0.44448871876E+02  0.19303155036E+03  0.17300000000E+03 0.  1.
         -6    1    1    2    0  502 -0.42438021644E+02  0.59627942629E+02  0.15686660267E+03  0.24472966362E+03  0.17300000000E+03 0. -1.
</event>
<event>
 4    1  0.5876320E+000  0.1000000E+03  0.7546771E-02  0.1280296E+00
         21   -1    0    0  501  502  0.00000000000E+00  0.00000000000E+00  0.12449899243E+03  0.12449899243E+03  0.00000000000E+00 0. -1.
         21   -1    0    0  502  503 -0.00000000000E+00 -0.00000000000E+00 -0.87697640401E+03  0.87697640401E+03  0.00000000000E+00 0.  1.
          6    1    1    2  501    0  0.41918302118E+02  0.85393626254E+01  0.45428800610E+02  0.18390987111E+03  0.17300000000E+03 0. -1.
         -6    1    1    2    0  503 -0.41918302118E+02 -0.85393626254E+01 -0.79790621218E+03  0.81756552533E+03  0.17300000000E+03 0.  1.
</event>
<event>
 4    1  0.5876320E+000  0.1000000E+03  0.7546771E-02  0.1280296E+00
         21   -1    0    0  501  502  0.00000000000E+00  0.00000000000E+00  0.14363688835E+04  0.14363688835E+04  0.00000000000E+00 0. -1.
         21   -1    0    0  502  503 -0.00000000000E+00 -0.00000000000E+00 -0.22949570142E+03  0.22949570142E+03  0.00000000000E+00 0.  1.
          6    1    1    2  501    0 -0.17746664014E+03 -0.39137182118E+03  0.10955028994E+04  0.11894208310E+04  0.17300000000E+03 0. -1.
         -6    1    1    2    0  503  0.17746664014E+03  0.39137182118E+03  0.11137028274E+03  0.47644375392E+03  0.17300000000E+03 0.  1.
</event>
<event>
 4    1  0.5876320E+000  0.1000000E+03  0.7546771E-02  0.1280296E+00
         21   -1    0    0  501  502  0.00000000000E+00  0.00000000000E+00  0.40602813157E+03  0.40602813157E+03  0.00000000000E+00 0. -1.
         21   -1    0    0  502  503 -0.00000000000E+00 -0.00000000000E+00 -0.94480347890E+02  0.94480347890E+02  0.00000000000E+00 0.  1.
          6    1    1    2  501    0 -0.37395045569E+02 -0.48634345326E+01  0.26275605391E+03  0.31684662898E+03  0.17300000000E+03 0. -1.
         -6    1    1    2    0  503  0.37395045569E+02  0.48634345326E+01  0.48791729770E+02  0.18366185048E+03  0.17300000000E+03 0.  1.
</event>
<event>
 4    1  0.5876320E+000  0.1000000E+03  0.7546771E-02  0.1280296E+00
         21   -1    0    0  503  502  0.00000000000E+00  0.00000000000E+00  0.39113753874E+02  0.39113753874E+02  0.00000000000E+00 0.  1.
         21   -1    0    0  501  503 -0.00000000000E+00 -0.00000000000E+00 -0.25519981003E+04  0.25519981003E+04  0.00000000000E+00 0.  1.
          6    1    1    2  501    0  0.97793915724E+01 -0.87950988108E+02 -0.22779715840E+04  0.22862446392E+04  0.17300000000E+03 0.  1.
         -6    1    1    2    0  502 -0.97793915724E+01  0.87950988108E+02 -0.23491276243E+03  0.30486721496E+03  0.17300000000E+03 0.  1.
</event>
<event>
 4    1  0.5876320E+000  0.1000000E+03  0.7546771E-02  0.1280296E+00
         21   -1    0    0  503  502  0.00000000000E+00  0.00000000000E+00  0.72393936333E+02  0.72393936333E+02  0.00000000000E+00 0.  1.
         21   -1    0    0  501  503 -0.00000000000E+00 -0.00000000000E+00 -0.78490731364E+03  0.78490731364E+03  0.00000000000E+00 0.  1.
          6    1    1    2  501    0  0.54231970683E+01  0.18821125265E+02 -0.64904052262E+03  0.67198678992E+03  0.17300000000E+03 0.  1.
         -6    1    1    2    0  502 -0.54231970683E+01 -0.18821125265E+02 -0.63472854685E+02  0.18531446005E+03  0.17300000000E+03 0.  1.
</event>
<event>
 4    1  0.5876320E+000  0.1000000E+03  0.7546771E-02  0.1280296E+00
         21   -1    0    0  503  502  0.00000000000E+00  0.00000000000E+00  0.16286706086E+03  0.16286706086E+03  0.00000000000E+00 0. -1.
         21   -1    0    0  501  503 -0.00000000000E+00 -0.00000000000E+00 -0.30985112806E+03  0.30985112806E+03  0.00000000000E+00 0. -1.
          6    1    1    2  501    0 -0.58086638562E+02 -0.12002155428E+03 -0.12873071367E+03  0.25353466768E+03  0.17300000000E+03 0. -1.
         -6    1    1    2    0  502  0.58086638562E+02  0.12002155428E+03 -0.18253353525E+02  0.21918352125E+03  0.17300000000E+03 0. -1.
</event>
<event>
 4    1  0.5876320E+000  0.1000000E+03  0.7546771E-02  0.1280296E+00
         21   -1    0    0  503  502  0.00000000000E+00  0.00000000000E+00  0.40117305240E+03  0.40117305240E+03  0.00000000000E+00 0. -1.
         21   -1    0    0  501  503 -0.00000000000E+00 -0.00000000000E+00 -0.30629025440E+03  0.30629025440E+03  0.00000000000E+00 0. -1.
          6    1    1    2  501    0 -0.52586172032E+01 -0.25434517921E+03 -0.12210006164E+03  0.33099327530E+03  0.17300000000E+03 0. -1.
         -6    1    1    2    0  502  0.52586172032E+01  0.25434517921E+03  0.21698285964E+03  0.37647003150E+03  0.17300000000E+03 0. -1.
</event>
<event>
 4    1  0.5876320E+000  0.1000000E+03  0.7546771E-02  0.1280296E+00
         21   -1    0    0  501  502  0.00000000000E+00  0.00000000000E+00  0.10260942180E+04  0.10260942180E+04  0.00000000000E+00 0. -1.
         21   -1    0    0  502  503 -0.00000000000E+00 -0.00000000000E+00 -0.38070407560E+02  0.38070407560E+02  0.00000000000E+00 0. -1.
          6    1    1    2  501    0 -0.26620638705E+02  0.86161454321E+02  0.40877933817E+03  0.45294812278E+03  0.17300000000E+03 0. -1.
         -6    1    1    2    0  503  0.26620638705E+02 -0.86161454321E+02  0.57924447230E+03  0.61121650280E+03  0.17300000000E+03 0. -1.
</event>
<event>
 4    1  0.5876320E+000  0.1000000E+03  0.7546771E-02  0.1280296E+00
         21   -1    0    0  501  502  0.00000000000E+00  0.00000000000E+00  0.25125346067E+03  0.25125346067E+03  0.00000000000E+00 0. -1.
         21   -1    0    0  502  503 -0.00000000000E+00 -0.00000000000E+00 -0.29872914473E+03  0.29872914473E+03  0.00000000000E+00 0. -1.
          6    1    1    2  501    0  0.49201306142E+02  0.57929451714E+02  0.17537661876E+03  0.25780331323E+03  0.17300000000E+03 0. -1.
         -6    1    1    2    0  503 -0.49201306142E+02 -0.57929451714E+02 -0.22285230282E+03  0.29217929217E+03  0.17300000000E+03 0. -1.
</event>
<event>
 4    1  0.5876320E+000  0.1000000E+03  0.7546771E-02  0.1280296E+00
         21   -1    0    0  501  502  0.00000000000E+00  0.00000000000E+00  0.62728706470E+02  0.62728706470E+02  0.00000000000E+00 0. -1.
         21   -1    0    0  502  503 -0.00000000000E+00 -0.00000000000E+00 -0.11891163527E+04  0.11891163527E+04  0.00000000000E+00 0. -1.
          6    1    1    2  501    0  0.19182479182E+02  0.49875873877E+01 -0.80991332306E+02  0.19204540985E+03  0.17300000000E+03 0. -1.
         -6    1    1    2    0  503 -0.19182479182E+02 -0.49875873877E+01 -0.10453963139E+04  0.10597996493E+04  0.17300000000E+03 0. -1.
</event>
<event>
 4    1  0.5876320E+000  0.1000000E+03  0.7546771E-02  0.1280296E+00
         21   -1    0    0  501  502  0.00000000000E+00  0.00000000000E+00  0.57250897700E+03  0.57250897700E+03  0.00000000000E+00 0.  1.
         21   -1    0    0  502  503 -0.00000000000E+00 -0.00000000000E+00 -0.80919785190E+02  0.80919785190E+02  0.00000000000E+00 0.  1.
          6    1    1    2  501    0 -0.42130525337E+02 -0.61956914130E+02  0.88159457996E+02  0.20812191237E+03  0.17300000000E+03 0.  1.
         -6    1    1    2    0  503  0.42130525337E+02  0.61956914130E+02  0.40342973382E+03  0.44530684983E+03  0.17300000000E+03 0.  1.
</event>
<event>
 4    1  0.5876320E+000  0.1000000E+03  0.7546771E-02  0.1280296E+00
         21   -1    0    0  501  502  0.00000000000E+00  0.00000000000E+00  0.36736067766E+03  0.36736067766E+03  0.00000000000E+00 0.  1.
         21   -1    0    0  502  503 -0.00000000000E+00 -0.00000000000E+00 -0.66850901016E+03  0.66850901016E+03  0.00000000000E+00 0.  1.
          6    1    1    2  501    0 -0.52227403616E+02 -0.33850624471E+03  0.17717523479E+03  0.42265144412E+03  0.17300000000E+03 0.  1.
         -6    1    1    2    0  503  0.52227403616E+02  0.33850624471E+03 -0.47832356729E+03  0.61321824371E+03  0.17300000000E+03 0.  1.
</event>
<event>
 4    1  0.5876320E+000  0.1000000E+03  0.7546771E-02  0.1280296E+00
         21   -1    0    0  501  502  0.00000000000E+00  0.00000000000E+00  0.14991025680E+04  0.14991025680E+04  0.00000000000E+00 0.  1.
         21   -1    0    0  502  503 -0.00000000000E+00 -0.00000000000E+00 -0.25339540346E+02  0.25339540346E+02  0.00000000000E+00 0. -1.
          6    1    1    2  501    0 -0.12750975060E+02  0.51520177201E+02  0.10199937522E+04  0.10359214113E+04  0.17300000000E+03 0.  1.
         -6    1    1    2    0  503  0.12750975060E+02 -0.51520177201E+02  0.45376927550E+03  0.48852069702E+03  0.17300000000E+03 0. -1.
</event>
<event>
 4    1  0.5876320E+000  0.1000000E+03  0.7546771E-02  0.1280296E+00
         21   -1    0    0  501  502  0.00000000000E+00  0.00000000000E+00  0.15281146086E+04  0.15281146086E+04  0.00000000000E+00 0.  1.
         21   -1    0    0  502  503 -0.00000000000E+00 -0.00000000000E+00 -0.85099217995E+02  0.85099217995E+02  0.00000000000E+00 0. -1.
          6    1    1    2  501    0 -0.15196060491E+03  0.13464372317E+03  0.12643168118E+04  0.12921481951E+04  0.17300000000E+03 0.  1.
         -6    1    1    2    0  503  0.15196060491E+03 -0.13464372317E+03  0.17869857882E+03  0.32106563146E+03  0.17300000000E+03 0. -1.
</event>
<event>
 4    1  0.5876320E+000  0.1000000E+03  0.7546771E-02  0.1280296E+00
         21   -1    0    0  501  502  0.00000000000E+00  0.00000000000E+00  0.22027876082E+03  0.22027876082E+03  0.00000000000E+00 0. -1.
         21   -1    0    0  502  503 -0.00000000000E+00 -0.00000000000E+00 -0.25150735597E+03  0.25150735597E+03  0.00000000000E+00 0.  1.
          6    1    1    2  501    0 -0.27848466567E+02 -0.13759510235E+03  0.60478727626E+02  0.23085628815E+03  0.17300000000E+03 0. -1.
         -6    1    1    2    0  503  0.27848466567E+02  0.13759510235E+03 -0.91707322780E+02  0.24092982865E+03  0.17300000000E+03 0.  1.
</event>
<event>
 4    1  0.5876320E+000  0.1000000E+03  0.7546771E-02  0.1280296E+00
         21   -1    0    0  501  502  0.00000000000E+00  0.00000000000E+00  0.57297799692E+03  0.57297799692E+03  0.00000000000E+00 0. -1.
         21   -1    0    0  502  503 -0.00000000000E+00 -0.00000000000E+00 -0.19978216710E+03  0.19978216710E+03  0.00000000000E+00 0.  1.
          6    1    1    2  501    0 -0.19157994707E+03 -0.10377631947E+03  0.40647252909E+03  0.49256605395E+03  0.17300000000E+03 0. -1.
         -6    1    1    2    0  503  0.19157994707E+03  0.10377631947E+03 -0.33276699272E+02  0.28019411007E+03  0.17300000000E+03 0.  1.
</event>
<event>
 4    1  0.5876320E+000  0.1000000E+03  0.7546771E-02  0.1280296E+00
         21   -1    0    0  503  502  0.00000000000E+00  0.00000000000E+00  0.33616043001E+03  0.33616043001E+03  0.00000000000E+00 0.  1.
         21   -1    0    0  501  503 -0.00000000000E+00 -0.00000000000E+00 -0.31011461754E+03  0.31011461754E+03  0.00000000000E+00 0.  1.
          6    1    1    2  501    0  0.15353964583E+03  0.71604229816E+02 -0.20073370219E+03  0.31452282550E+03  0.17300000000E+03 0.  1.
         -6    1    1    2    0  502 -0.15353964583E+03 -0.71604229816E+02  0.22677951465E+03  0.33175222205E+03  0.17300000000E+03 0.  1.
</event>
<event>
 4    1  0.5876320E+000  0.1000000E+03  0.7546771E-02  0.1280296E+00
         21   -1    0    0  503  502  0.00000000000E+00  0.00000000000E+00  0.65819389853E+02  0.65819389853E+02  0.00000000000E+00 0.  1.
         21   -1    0    0  501  503 -0.00000000000E+00 -0.00000000000E+00 -0.87374036516E+03  0.87374036516E+03  0.00000000000E+00 0.  1.
          6    1    1    2  501    0  0.57767438572E+02 -0.92297552298E+02 -0.64960652991E+03  0.68100922080E+03  0.17300000000E+03 0.  1.
         -6    1    1    2    0  502 -0.57767438572E+02  0.92297552298E+02 -0.15831444540E+03  0.25855053422E+03  0.17300000000E+03 0.  1.
</event>
<event>
 4    1  0.5876320E+000  0.1000000E+03  0.7546771E-02  0.1280296E+00
         21   -1    0    0  503  502  0.00000000000E+00  0.00000000000E+00  0.22048347189E+03  0.22048347189E+03  0.00000000000E+00 0.  1.
         21   -1    0    0  501  503 -0.00000000000E+00 -0.00000000000E+00 -0.12565700014E+04  0.12565700014E+04  0.00000000000E+00 0.  1.
          6    1    1    2  501    0  0.73329597401E+02  0.10713408980E+03 -0.11913338968E+04  0.12108098103E+04  0.17300000000E+03 0.  1.
         -6    1    1    2    0  502 -0.73329597401E+02 -0.10713408980E+03  0.15524736726E+03  0.26624366301E+03  0.17300000000E+03 0.  1.
</event>
<event>
 4    1  0.5876320E+000  0.1000000E+03  0.7546771E-02  0.1280296E+00
         21   -1    0    0  503  502  0.00000000000E+00  0.00000000000E+00  0.27037618289E+03  0.27037618289E+03  0.00000000000E+00 0. -1.
         21   -1    0    0  501  503 -0.00000000000E+00 -0.00000000000E+00 -0.27601286595E+03  0.27601286595E+03  0.00000000000E+00 0. -1.
          6    1    1    2  501    0 -0.11303329394E+03 -0.71758166282E+02 -0.16645022940E+03  0.27488259100E+03  0.17300000000E+03 0. -1.
         -6    1    1    2    0  502  0.11303329394E+03  0.71758166282E+02  0.16081354633E+03  0.27150645785E+03  0.17300000000E+03 0. -1.
</event>
<event>
 4    1  0.5876320E+000  0.1000000E+03  0.7546771E-02  0.1280296E+00
         21   -1    0    0  503  502  0.00000000000E+00  0.00000000000E+00  0.38384510533E+03  0.38384510533E+03  0.00000000000E+00 0. -1.
         21   -1    0    0  501  503 -0.00000000000E+00 -0.00000000000E+00 -0.10152688336E+04  0.10152688336E+04  0.00000000000E+00 0. -1.
          6    1    1    2  501    0  0.41037328925E+03 -0.43743262552E+03 -0.31028714360E+03  0.69710877909E+03  0.17300000000E+03 0. -1.
         -6    1    1    2    0  502 -0.41037328925E+03  0.43743262552E+03 -0.32113658464E+03  0.70200515980E+03  0.17300000000E+03 0. -1.
</event>
<event>
 4    1  0.5876320E+000  0.1000000E+03  0.7546771E-02  0.1280296E+00
         21   -1    0    0  503  502  0.00000000000E+00  0.00000000000E+00  0.50078707491E+03  0.50078707491E+03  0.00000000000E+00 0.  1.
         21   -1    0    0  501  503 -0.00000000000E+00 -0.00000000000E+00 -0.21806353211E+03  0.21806353211E+03  0.00000000000E+00 0.  1.
          6    1    1    2  501    0  0.19227239628E+03  0.16254325040E+03  0.42767941565E+01  0.30550985842E+03  0.17300000000E+03 0. -1.
         -6    1    1    2    0  502 -0.19227239628E+03 -0.16254325040E+03  0.27844674864E+03  0.41334074860E+03  0.17300000000E+03 0. -1.
</event>
<event>
 4    1  0.5876320E+000  0.1000000E+03  0.7546771E-02  0.1280296E+00
         21   -1    0    0  503  502  0.00000000000E+00  0.00000000000E+00  0.10903356724E+03  0.10903356724E+03  0.00000000000E+00 0.  1.
         21   -1    0    0  501  503 -0.00000000000E+00 -0.00000000000E+00 -0.33100935019E+03  0.33100935019E+03  0.00000000000E+00 0. -1.
          6    1    1    2  501    0 -0.67050916831E+01  0.14874703384E+02 -0.19991627785E+03  0.26488060179E+03  0.17300000000E+03 0. -1.
         -6    1    1    2    0  502  0.67050916831E+01 -0.14874703384E+02 -0.22059505101E+02  0.17516231564E+03  0.17300000000E+03 0. -1.
</event>
<event>
 4    1  0.5876320E+000  0.1000000E+03  0.7546771E-02  0.1280296E+00
         21   -1    0    0  503  502  0.00000000000E+00  0.00000000000E+00  0.41145716921E+03  0.41145716921E+03  0.00000000000E+00 0.  1.
         21   -1    0    0  501  503 -0.00000000000E+00 -0.00000000000E+00 -0.13576308604E+03  0.13576308604E+03  0.00000000000E+00 0. -1.
          6    1    1    2  501    0  0.61979320436E+02  0.10835525866E+03  0.20076541101E+02  0.21427637701E+03  0.17300000000E+03 0. -1.
         -6    1    1    2    0  502 -0.61979320436E+02 -0.10835525866E+03  0.25561754207E+03  0.33294387823E+03  0.17300000000E+03 0. -1.
</event>
<event>
 4    1  0.5876320E+000  0.1000000E+03  0.7546771E-02  0.1280296E+00
         21   -1    0    0  501  502  0.00000000000E+00  0.00000000000E+00  0.10636216467E+03  0.10636216467E+03  0.00000000000E+00 0.  1.
         21   -1    0    0  502  503 -0.00000000000E+00 -0.00000000000E+00 -0.53780575454E+03  0.53780575454E+03  0.00000000000E+00 0.  1.
          6    1    1    2  501    0 -0.18508086530E+02 -0.45969907172E+02 -0.35728122853E+01  0.17999318493E+03  0.17300000000E+03 0.  1.
         -6    1    1    2    0  503  0.18508086530E+02  0.45969907172E+02 -0.42787077758E+03  0.46417473428E+03  0.17300000000E+03 0.  1.
</event>
<event>
 4    1  0.5876320E+000  0.1000000E+03  0.7546771E-02  0.1280296E+00
         21   -1    0    0  501  502  0.00000000000E+00  0.00000000000E+00  0.49116767018E+03  0.49116767018E+03  0.00000000000E+00 0. -1.
         21   -1    0    0  502  503 -0.00000000000E+00 -0.00000000000E+00 -0.22693505190E+03  0.22693505190E+03  0.00000000000E+00 0.  1.
          6    1    1    2  501    0 -0.28134635490E+02 -0.16934407413E+03  0.37751069288E+03  0.44934652151E+03  0.17300000000E+03 0.  1.
         -6    1    1    2    0  503  0.28134635490E+02  0.16934407413E+03 -0.11327807460E+03  0.26875620056E+03  0.17300000000E+03 0.  1.
</event>
<event>
 4    1  0.5876320E+000  0.1000000E+03  0.7546771E-02  0.1280296E+00
         21   -1    0    0  501  502  0.00000000000E+00  0.00000000000E+00  0.39413192926E+02  0.39413192926E+02  0.00000000000E+00 0. -1.
         21   -1    0    0  502  503 -0.00000000000E+00 -0.00000000000E+00 -0.27950424466E+04  0.27950424466E+04  0.00000000000E+00 0.  1.
          6    1    1    2  501    0  0.15010512598E+03 -0.29408601578E+02 -0.35984009115E+03  0.42756321859E+03  0.17300000000E+03 0.  1.
         -6    1    1    2    0  503 -0.15010512598E+03  0.29408601578E+02 -0.23957891626E+04  0.24068924210E+04  0.17300000000E+03 0.  1.
</event>
<event>
 4    1  0.5876320E+000  0.1000000E+03  0.7546771E-02  0.1280296E+00
         21   -1    0    0  503  502  0.00000000000E+00  0.00000000000E+00  0.61738946619E+03  0.61738946619E+03  0.00000000000E+00 0. -1.
         21   -1    0    0  501  503 -0.00000000000E+00 -0.00000000000E+00 -0.71231983134E+02  0.71231983134E+02  0.00000000000E+00 0. -1.
          6    1    1    2  501    0  0.77528049590E+02  0.24801410108E+02  0.41453691914E+03  0.45650363169E+03  0.17300000000E+03 0. -1.
         -6    1    1    2    0  502 -0.77528049590E+02 -0.24801410108E+02  0.13162056391E+03  0.23211781763E+03  0.17300000000E+03 0. -1.
</event>
<event>
 4    1  0.5876320E+000  0.1000000E+03  0.7546771E-02  0.1280296E+00
         21   -1    0    0  503  502  0.00000000000E+00  0.00000000000E+00  0.46542453525E+03  0.46542453525E+03  0.00000000000E+00 0. -1.
         21   -1    0    0  501  503 -0.00000000000E+00 -0.00000000000E+00 -0.46358427941E+03  0.46358427941E+03  0.00000000000E+00 0. -1.
          6    1    1    2  501    0 -0.17546908512E+02  0.72648187755E+02 -0.42363793865E+03  0.46366340835E+03  0.17300000000E+03 0. -1.
         -6    1    1    2    0  502  0.17546908512E+02 -0.72648187755E+02  0.42547819449E+03  0.46534540631E+03  0.17300000000E+03 0. -1.
</event>
<event>
 4    1  0.5876320E+000  0.1000000E+03  0.7546771E-02  0.1280296E+00
         21   -1    0    0  503  502  0.00000000000E+00  0.00000000000E+00  0.64001484898E+02  0.64001484898E+02  0.00000000000E+00 0.  1.
         21   -1    0    0  501  503 -0.00000000000E+00 -0.00000000000E+00 -0.15604845312E+04  0.15604845312E+04  0.00000000000E+00 0.  1.
          6    1    1    2  501    0  0.55061706620E+02 -0.18736275032E+01 -0.14130607541E+04  0.14246771553E+04  0.17300000000E+03 0.  1.
         -6    1    1    2    0  502 -0.55061706620E+02  0.18736275032E+01 -0.83422292174E+02  0.19980886078E+03  0.17300000000E+03 0.  1.
</event>
<event>
 4    1  0.5876320E+000  0.1000000E+03  0.7546771E-02  0.1280296E+00
         21   -1    0    0  503  502  0.00000000000E+00  0.00000000000E+00  0.40841836637E+02  0.40841836637E+02  0.00000000000E+00 0.  1.
         21   -1    0    0  501  503 -0.00000000000E+00 -0.00000000000E+00 -0.13220037655E+04  0.13220037655E+04  0.00000000000E+00 0.  1.
          6    1    1    2  501    0 -0.28145078824E+02 -0.58316089533E+02 -0.10539702203E+04  0.10700351102E+04  0.17300000000E+03 0.  1.
         -6    1    1    2    0  502  0.28145078824E+02  0.58316089533E+02 -0.22719170861E+03  0.29281049200E+03  0.17300000000E+03 0.  1.
</event>
<event>
 4    1  0.5876320E+000  0.1000000E+03  0.7546771E-02  0.1280296E+00
         21   -1    0    0  503  502  0.00000000000E+00  0.00000000000E+00  0.17923156503E+03  0.17923156503E+03  0.00000000000E+00 0.  1.
         21   -1    0    0  501  503 -0.00000000000E+00 -0.00000000000E+00 -0.62790748153E+03  0.62790748153E+03  0.00000000000E+00 0. -1.
          6    1    1    2  501    0 -0.11450444498E+03 -0.87684584644E+02 -0.52342640290E+03  0.56982809123E+03  0.17300000000E+03 0.  1.
         -6    1    1    2    0  502  0.11450444498E+03  0.87684584644E+02  0.74750486400E+02  0.23731095534E+03  0.17300000000E+03 0. -1.
</event>
<event>
 4    1  0.5876320E+000  0.1000000E+03  0.7546771E-02  0.1280296E+00
         21   -1    0    0  503  502  0.00000000000E+00  0.00000000000E+00  0.92608558132E+03  0.92608558132E+03  0.00000000000E+00 0.  1.
         21   -1    0    0  501  503 -0.00000000000E+00 -0.00000000000E+00 -0.78005871519E+02  0.78005871519E+02  0.00000000000E+00 0. -1.
          6    1    1    2  501    0  0.22412780066E+02 -0.36897745375E+02  0.48376328503E+02  0.18475130712E+03  0.17300000000E+03 0.  1.
         -6    1    1    2    0  502 -0.22412780066E+02  0.36897745375E+02  0.79970338130E+03  0.81934014572E+03  0.17300000000E+03 0. -1.
</event>
<event>
 4    1  0.5876320E+000  0.1000000E+03  0.7546771E-02  0.1280296E+00
         21   -1    0    0  503  502  0.00000000000E+00  0.00000000000E+00  0.23490242247E+04  0.23490242247E+04  0.00000000000E+00 0.  1.
         21   -1    0    0  501  503 -0.00000000000E+00 -0.00000000000E+00 -0.23835049738E+02  0.23835049738E+02  0.00000000000E+00 0. -1.
          6    1    1    2  501    0  0.47722449108E+02 -0.39651378144E+02  0.41533956840E+03  0.45418676887E+03  0.17300000000E+03 0.  1.
         -6    1    1    2    0  502 -0.47722449108E+02  0.39651378144E+02  0.19098496066E+04  0.19186725056E+04  0.17300000000E+03 0. -1.
</event>
<event>
 4    1  0.5876320E+000  0.1000000E+03  0.7546771E-02  0.1280296E+00
         21   -1    0    0  501  502  0.00000000000E+00  0.00000000000E+00  0.37290720587E+03  0.37290720587E+03  0.00000000000E+00 0. -1.
         21   -1    0    0  502  503 -0.00000000000E+00 -0.00000000000E+00 -0.19087404037E+03  0.19087404037E+03  0.00000000000E+00 0. -1.
          6    1    1    2  501    0  0.15018233818E+03 -0.18809250306E+02  0.23410870948E+03  0.32809207618E+03  0.17300000000E+03 0. -1.
         -6    1    1    2    0  503 -0.15018233818E+03  0.18809250306E+02 -0.52075543977E+02  0.23568917005E+03  0.17300000000E+03 0. -1.
</event>
<event>
 4    1  0.5876320E+000  0.1000000E+03  0.7546771E-02  0.1280296E+00
         21   -1    0    0  503  502  0.00000000000E+00  0.00000000000E+00  0.10088428993E+04  0.10088428993E+04  0.00000000000E+00 0. -1.
         21   -1    0    0  501  503 -0.00000000000E+00 -0.00000000000E+00 -0.52972831098E+03  0.52972831098E+03  0.00000000000E+00 0. -1.
          6    1    1    2  501    0 -0.48631877385E+03  0.51763035158E+03  0.23319840305E+03  0.76730543192E+03  0.17300000000E+03 0. -1.
         -6    1    1    2    0  502  0.48631877385E+03 -0.51763035158E+03  0.24591618528E+03  0.77126577835E+03  0.17300000000E+03 0. -1.
</event>
<event>
 4    1  0.5876320E+000  0.1000000E+03  0.7546771E-02  0.1280296E+00
         21   -1    0    0  503  502  0.00000000000E+00  0.00000000000E+00  0.26457159597E+03  0.26457159597E+03  0.00000000000E+00 0. -1.
         21   -1    0    0  501  503 -0.00000000000E+00 -0.00000000000E+00 -0.19655278374E+03  0.19655278374E+03  0.00000000000E+00 0. -1.
          6    1    1    2  501    0  0.31504762027E+02 -0.13221140945E+03 -0.26661574671E+02  0.22161282992E+03  0.17300000000E+03 0. -1.
         -6    1    1    2    0  502 -0.31504762027E+02  0.13221140945E+03  0.94680386902E+02  0.23951154979E+03  0.17300000000E+03 0. -1.
</event>
<event>
 4    1  0.5876320E+000  0.1000000E+03  0.7546771E-02  0.1280296E+00
         21   -1    0    0  503  502  0.00000000000E+00  0.00000000000E+00  0.12423141131E+03  0.12423141131E+03  0.00000000000E+00 0.  1.
         21   -1    0    0  501  503 -0.00000000000E+00 -0.00000000000E+00 -0.33181853310E+03  0.33181853310E+03  0.00000000000E+00 0. -1.
          6    1    1    2  501    0 -0.86205659930E+02  0.57311944364E+02 -0.13077612805E+03  0.24030703368E+03  0.17300000000E+03 0. -1.
         -6    1    1    2    0  502  0.86205659930E+02 -0.57311944364E+02 -0.76810993734E+02  0.21574291073E+03  0.17300000000E+03 0.  1.
</event>
<event>
 4    1  0.5876320E+000  0.1000000E+03  0.7546771E-02  0.1280296E+00
         21   -1    0    0  503  502  0.00000000000E+00  0.00000000000E+00  0.42709339363E+03  0.42709339363E+03  0.00000000000E+00 0.  1.
         21   -1    0    0  501  503 -0.00000000000E+00 -0.00000000000E+00 -0.10739656102E+03  0.10739656102E+03  0.00000000000E+00 0. -1.
          6    1    1    2  501    0  0.72810578928E+02  0.51184281786E+02  0.48113208233E+02  0.20041230479E+03  0.17300000000E+03 0. -1.
         -6    1    1    2    0  502 -0.72810578928E+02 -0.51184281786E+02  0.27158362438E+03  0.33407764986E+03  0.17300000000E+03 0.  1.
</event>
<event>
 4    1  0.5876320E+000  0.1000000E+03  0.7546771E-02  0.1280296E+00
         21   -1    0    0  503  502  0.00000000000E+00  0.00000000000E+00  0.30278616012E+03  0.30278616012E+03  0.00000000000E+00 0.  1.
         21   -1    0    0  501  503 -0.00000000000E+00 -0.00000000000E+00 -0.21501514124E+03  0.21501514124E+03  0.00000000000E+00 0. -1.
          6    1    1    2  501    0  0.56178170957E+02 -0.20999955237E+02 -0.13642470683E+03  0.22833678119E+03  0.17300000000E+03 0. -1.
         -6    1    1    2    0  502 -0.56178170957E+02  0.20999955237E+02  0.22419572571E+03  0.28946452017E+03  0.17300000000E+03 0.  1.
</event>
<event>
 4    1  0.5876320E+000  0.1000000E+03  0.7546771E-02  0.1280296E+00
         21   -1    0    0  503  502  0.00000000000E+00  0.00000000000E+00  0.76154772460E+03  0.76154772460E+03  0.00000000000E+00 0.  1.
         21   -1    0    0  501  503 -0.00000000000E+00 -0.00000000000E+00 -0.10155610144E+03  0.10155610144E+03  0.00000000000E+00 0. -1.
          6    1    1    2  501    0  0.30279191485E+02 -0.15106862655E+03  0.91241445833E+02  0.24898305324E+03  0.17300000000E+03 0. -1.
         -6    1    1    2    0  502 -0.30279191485E+02  0.15106862655E+03  0.56875017733E+03  0.61412077280E+03  0.17300000000E+03 0.  1.
</event>
<event>
 4    1  0.5876320E+000  0.1000000E+03  0.7546771E-02  0.1280296E+00
         21   -1    0    0  501  502  0.00000000000E+00  0.00000000000E+00  0.29810690738E+03  0.29810690738E+03  0.00000000000E+00 0. -1.
         21   -1    0    0  502  503 -0.00000000000E+00 -0.00000000000E+00 -0.16691058088E+03  0.16691058088E+03  0.00000000000E+00 0.  1.
          6    1    1    2  501    0 -0.95235931058E+02  0.38937786270E+02  0.16580518524E+03  0.26078035435E+03  0.17300000000E+03 0. -1.
         -6    1    1    2    0  503  0.95235931058E+02 -0.38937786270E+02 -0.34608858742E+02  0.20423713391E+03  0.17300000000E+03 0.  1.
</event>
<event>
 4    1  0.5876320E+000  0.1000000E+03  0.7546771E-02  0.1280296E+00
         21   -1    0    0  501  502  0.00000000000E+00  0.00000000000E+00  0.30473967937E+03  0.30473967937E+03  0.00000000000E+00 0. -1.
         21   -1    0    0  502  503 -0.00000000000E+00 -0.00000000000E+00 -0.22616368449E+03  0.22616368449E+03  0.00000000000E+00 0.  1.
          6    1    1    2  501    0 -0.86631520466E+01 -0.16728663250E+03  0.14500940857E+03  0.28109890819E+03  0.17300000000E+03 0. -1.
         -6    1    1    2    0  503  0.86631520466E+01  0.16728663250E+03 -0.66433413695E+02  0.24980445567E+03  0.17300000000E+03 0.  1.
</event>
<event>
 4    1  0.5876320E+000  0.1000000E+03  0.7546771E-02  0.1280296E+00
         21   -1    0    0  501  502  0.00000000000E+00  0.00000000000E+00  0.65304683235E+03  0.65304683235E+03  0.00000000000E+00 0. -1.
         21   -1    0    0  502  503 -0.00000000000E+00 -0.00000000000E+00 -0.98436057706E+02  0.98436057706E+02  0.00000000000E+00 0.  1.
          6    1    1    2  501    0 -0.55582174224E+02 -0.30484105677E+02  0.53542251262E+03  0.56623751713E+03  0.17300000000E+03 0. -1.
         -6    1    1    2    0  503  0.55582174224E+02  0.30484105677E+02  0.19188262029E+02  0.18524537292E+03  0.17300000000E+03 0.  1.
</event>
<event>
 4    1  0.5876320E+000  0.1000000E+03  0.7546771E-02  0.1280296E+00
         21   -1    0    0  503  502  0.00000000000E+00  0.00000000000E+00  0.39397956917E+03  0.39397956917E+03  0.00000000000E+00 0. -1.
         21   -1    0    0  501  503 -0.00000000000E+00 -0.00000000000E+00 -0.30530969763E+03  0.30530969763E+03  0.00000000000E+00 0. -1.
          6    1    1    2  501    0  0.59139919351E+02  0.29123980379E+03  0.89853535852E+02  0.35541639140E+03  0.17300000000E+03 0. -1.
         -6    1    1    2    0  502 -0.59139919351E+02 -0.29123980379E+03 -0.11836643105E+01  0.34387287540E+03  0.17300000000E+03 0. -1.
</event>
<event>
 4    1  0.5876320E+000  0.1000000E+03  0.7546771E-02  0.1280296E+00
         21   -1    0    0  503  502  0.00000000000E+00  0.00000000000E+00  0.19343283988E+03  0.19343283988E+03  0.00000000000E+00 0. -1.
         21   -1    0    0  501  503 -0.00000000000E+00 -0.00000000000E+00 -0.49998556175E+03  0.49998556175E+03  0.00000000000E+00 0. -1.
          6    1    1    2  501    0  0.10683490768E+03  0.34874279177E+02 -0.41271799180E+03  0.46140551969E+03  0.17300000000E+03 0. -1.
         -6    1    1    2    0  502 -0.10683490768E+03 -0.34874279177E+02  0.10616526992E+03  0.23201288194E+03  0.17300000000E+03 0. -1.
</event>
<event>
 4    1  0.5876320E+000  0.1000000E+03  0.7546771E-02  0.1280296E+00
         21   -1    0    0  503  502  0.00000000000E+00  0.00000000000E+00  0.74123584517E+03  0.74123584517E+03  0.00000000000E+00 0. -1.
         21   -1    0    0  501  503 -0.00000000000E+00 -0.00000000000E+00 -0.78235676697E+02  0.78235676697E+02  0.00000000000E+00 0. -1.
          6    1    1    2  501    0 -0.86876590551E+02  0.15795167321E+00  0.87800980309E+02  0.21256899839E+03  0.17300000000E+03 0. -1.
         -6    1    1    2    0  502  0.86876590551E+02 -0.15795167321E+00  0.57519918817E+03  0.60690252348E+03  0.17300000000E+03 0. -1.
</event>
<event>
 4    1  0.5876320E+000  0.1000000E+03  0.7546771E-02  0.1280296E+00
         21   -1    0    0  503  502  0.00000000000E+00  0.00000000000E+00  0.57248604974E+03  0.57248604974E+03  0.00000000000E+00 0.  1.
         21   -1    0    0  501  503 -0.00000000000E+00 -0.00000000000E+00 -0.86086284588E+02  0.86086284588E+02  0.00000000000E+00 0.  1.
          6    1    1    2  501    0 -0.13732458206E+03  0.22105806066E+02  0.23914058912E+03  0.32628810715E+03  0.17300000000E+03 0.  1.
         -6    1    1    2    0  502  0.13732458206E+03 -0.22105806066E+02  0.24725917603E+03  0.33228422718E+03  0.17300000000E+03 0.  1.
</event>
<event>
 4    1  0.5876320E+000  0.1000000E+03  0.7546771E-02  0.1280296E+00
         21   -1    0    0  501  502  0.00000000000E+00  0.00000000000E+00  0.27232645408E+04  0.27232645408E+04  0.00000000000E+00 0. -1.
         21   -1    0    0  502  503 -0.00000000000E+00 -0.00000000000E+00 -0.11803343815E+02  0.11803343815E+02  0.00000000000E+00 0. -1.
          6    1    1    2  501    0  0.41426642423E+02 -0.55698586876E+01  0.15206426947E+04  0.15310226632E+04  0.17300000000E+03 0. -1.
         -6    1    1    2    0  503 -0.41426642423E+02  0.55698586876E+01  0.11908185022E+04  0.12040452214E+04  0.17300000000E+03 0. -1.
</event>
<event>
 4    1  0.5876320E+000  0.1000000E+03  0.7546771E-02  0.1280296E+00
         21   -1    0    0  501  502  0.00000000000E+00  0.00000000000E+00  0.15262655170E+03  0.15262655170E+03  0.00000000000E+00 0. -1.
         21   -1    0    0  502  503 -0.00000000000E+00 -0.00000000000E+00 -0.38921863390E+03  0.38921863390E+03  0.00000000000E+00 0. -1.
          6    1    1    2  501    0  0.36806166518E+02 -0.98431646194E+02 -0.26920910699E+03  0.33681749680E+03  0.17300000000E+03 0. -1.
         -6    1    1    2    0  503 -0.36806166518E+02  0.98431646194E+02  0.32617024786E+02  0.20502768879E+03  0.17300000000E+03 0. -1.
</event>
<event>
 4    1  0.5876320E+000  0.1000000E+03  0.7546771E-02  0.1280296E+00
         21   -1    0    0  503  502  0.00000000000E+00  0.00000000000E+00  0.68611166526E+02  0.68611166526E+02  0.00000000000E+00 0. -1.
         21   -1    0    0  501  503 -0.00000000000E+00 -0.00000000000E+00 -0.91294348460E+03  0.91294348460E+03  0.00000000000E+00 0.  1.
          6    1    1    2  501    0 -0.93259207846E+02  0.80130368259E+02 -0.68224794130E+03  0.71449941160E+03  0.17300000000E+03 0. -1.
         -6    1    1    2    0  502  0.93259207846E+02 -0.80130368259E+02 -0.16208437677E+03  0.26705523953E+03  0.17300000000E+03 0.  1.
</event>
<event>
 4    1  0.5876320E+000  0.1000000E+03  0.7546771E-02  0.1280296E+00
         21   -1    0    0  503  502  0.00000000000E+00  0.00000000000E+00  0.10401617226E+03  0.10401617226E+03  0.00000000000E+00 0. -1.
         21   -1    0    0  501  503 -0.00000000000E+00 -0.00000000000E+00 -0.41791400012E+03  0.41791400012E+03  0.00000000000E+00 0.  1.
          6    1    1    2  501    0 -0.33300713743E+02  0.23368592096E+02 -0.29340800281E+03  0.34303394110E+03  0.17300000000E+03 0. -1.
         -6    1    1    2    0  502  0.33300713743E+02 -0.23368592096E+02 -0.20489825048E+02  0.17889623127E+03  0.17300000000E+03 0.  1.
</event>
<event>
 4    1  0.5876320E+000  0.1000000E+03  0.7546771E-02  0.1280296E+00
         21   -1    0    0  503  502  0.00000000000E+00  0.00000000000E+00  0.22999976219E+03  0.22999976219E+03  0.00000000000E+00 0. -1.
         21   -1    0    0  501  503 -0.00000000000E+00 -0.00000000000E+00 -0.33014203821E+03  0.33014203821E+03  0.00000000000E+00 0.  1.
          6    1    1    2  501    0 -0.16935310625E+01 -0.10367392273E+02 -0.26780613346E+03  0.31899761126E+03  0.17300000000E+03 0. -1.
         -6    1    1    2    0  502  0.16935310625E+01  0.10367392273E+02  0.16766385743E+03  0.24114418915E+03  0.17300000000E+03 0.  1.
</event>
<event>
 4    1  0.5876320E+000  0.1000000E+03  0.7546771E-02  0.1280296E+00
         21   -1    0    0  501  502  0.00000000000E+00  0.00000000000E+00  0.32163127410E+03  0.32163127410E+03  0.00000000000E+00 0. -1.
         21   -1    0    0  502  503 -0.00000000000E+00 -0.00000000000E+00 -0.63953477975E+03  0.63953477975E+03  0.00000000000E+00 0. -1.
          6    1    1    2  501    0 -0.12947158157E+03  0.23489441047E+03  0.18248682999E+03  0.36765298533E+03  0.17300000000E+03 0. -1.
         -6    1    1    2    0  503  0.12947158157E+03 -0.23489441047E+03 -0.50039033564E+03  0.59351306852E+03  0.17300000000E+03 0. -1.
</event>
<event>
 4    1  0.5876320E+000  0.1000000E+03  0.7546771E-02  0.1280296E+00
         21   -1    0    0  501  502  0.00000000000E+00  0.00000000000E+00  0.58858730176E+03  0.58858730176E+03  0.00000000000E+00 0. -1.
         21   -1    0    0  502  503 -0.00000000000E+00 -0.00000000000E+00 -0.11171861629E+04  0.11171861629E+04  0.00000000000E+00 0.  1.
          6    1    1    2  501    0  0.28460761873E+02  0.13933121902E+03  0.55541747033E+03  0.59886623708E+03  0.17300000000E+03 0. -1.
         -6    1    1    2    0  503 -0.28460761873E+02 -0.13933121902E+03 -0.10840163315E+04  0.11069072276E+04  0.17300000000E+03 0.  1.
</event>
<event>
 4    1  0.5876320E+000  0.1000000E+03  0.7546771E-02  0.1280296E+00
         21   -1    0    0  501  502  0.00000000000E+00  0.00000000000E+00  0.23224579029E+03  0.23224579029E+03  0.00000000000E+00 0. -1.
         21   -1    0    0  502  503 -0.00000000000E+00 -0.00000000000E+00 -0.14260789365E+03  0.14260789365E+03  0.00000000000E+00 0.  1.
          6    1    1    2  501    0  0.18113872771E+02 -0.39588817833E+02  0.81890234286E+02  0.19629161305E+03  0.17300000000E+03 0. -1.
         -6    1    1    2    0  503 -0.18113872771E+02  0.39588817833E+02  0.77476623545E+01  0.17856207088E+03  0.17300000000E+03 0.  1.
</event>
<event>
 4    1  0.5876320E+000  0.1000000E+03  0.7546771E-02  0.1280296E+00
         21   -1    0    0  501  502  0.00000000000E+00  0.00000000000E+00  0.78312417160E+02  0.78312417160E+02  0.00000000000E+00 0.  1.
         21   -1    0    0  502  503 -0.00000000000E+00 -0.00000000000E+00 -0.52952423463E+03  0.52952423463E+03  0.00000000000E+00 0.  1.
          6    1    1    2  501    0  0.37556558186E+00  0.98041049547E+02 -0.16008881184E+03  0.25528340354E+03  0.17300000000E+03 0. -1.
         -6    1    1    2    0  503 -0.37556558186E+00 -0.98041049547E+02 -0.29112300563E+03  0.35255324825E+03  0.17300000000E+03 0. -1.
</event>
<event>
 4    1  0.5876320E+000  0.1000000E+03  0.7546771E-02  0.1280296E+00
         21   -1    0    0  501  502  0.00000000000E+00  0.00000000000E+00  0.73377738437E+03  0.73377738437E+03  0.00000000000E+00 0.  1.
         21   -1    0    0  502  503 -0.00000000000E+00 -0.00000000000E+00 -0.72633457905E+02  0.72633457905E+02  0.00000000000E+00 0.  1.
          6    1    1    2  501    0 -0.43217078857E+02  0.29281742532E+02  0.58150543261E+03  0.60893571459E+03  0.17300000000E+03 0. -1.
         -6    1    1    2    0  503  0.43217078857E+02 -0.29281742532E+02  0.79638493857E+02  0.19747512769E+03  0.17300000000E+03 0. -1.
</event>
<event>
 4    1  0.5876320E+000  0.1000000E+03  0.7546771E-02  0.1280296E+00
         21   -1    0    0  501  502  0.00000000000E+00  0.00000000000E+00  0.51675686805E+02  0.51675686805E+02  0.00000000000E+00 0.  1.
         21   -1    0    0  502  503 -0.00000000000E+00 -0.00000000000E+00 -0.90955856697E+03  0.90955856697E+03  0.00000000000E+00 0.  1.
          6    1    1    2  501    0 -0.11697087252E+03  0.77324182188E+01 -0.30099333625E+03  0.36642593218E+03  0.17300000000E+03 0. -1.
         -6    1    1    2    0  503  0.11697087252E+03 -0.77324182188E+01 -0.55688954392E+03  0.59480832159E+03  0.17300000000E+03 0. -1.
</event>
<event>
 4    1  0.5876320E+000  0.1000000E+03  0.7546771E-02  0.1280296E+00
         21   -1    0    0  501  502  0.00000000000E+00  0.00000000000E+00  0.38061334911E+03  0.38061334911E+03  0.00000000000E+00 0. -1.
         21   -1    0    0  502  503 -0.00000000000E+00 -0.00000000000E+00 -0.18007540954E+03  0.18007540954E+03  0.00000000000E+00 0. -1.
          6    1    1    2  501    0  0.90024286806E+02 -0.21947382660E+01  0.28728510512E+03  0.34723323676E+03  0.17300000000E+03 0. -1.
         -6    1    1    2    0  503 -0.90024286806E+02  0.21947382660E+01 -0.86747165550E+02  0.21345552188E+03  0.17300000000E+03 0. -1.
</event>
<event>
 4    1  0.5876320E+000  0.1000000E+03  0.7546771E-02  0.1280296E+00
         21   -1    0    0  501  502  0.00000000000E+00  0.00000000000E+00  0.47354458982E+03  0.47354458982E+03  0.00000000000E+00 0. -1.
         21   -1    0    0  502  503 -0.00000000000E+00 -0.00000000000E+00 -0.12746101502E+03  0.12746101502E+03  0.00000000000E+00 0. -1.
          6    1    1    2  501    0  0.38368485699E+02 -0.63219544592E+02  0.36628627184E+03  0.41178086946E+03  0.17300000000E+03 0. -1.
         -6    1    1    2    0  503 -0.38368485699E+02  0.63219544592E+02 -0.20202697047E+02  0.18922473538E+03  0.17300000000E+03 0. -1.
</event>
<event>
 4    1  0.5876320E+000  0.1000000E+03  0.7546771E-02  0.1280296E+00
         21   -1    0    0  501  502  0.00000000000E+00  0.00000000000E+00  0.19394771192E+02  0.19394771192E+02  0.00000000000E+00 0. -1.
         21   -1    0    0  502  503 -0.00000000000E+00 -0.00000000000E+00 -0.18049098761E+04  0.18049098761E+04  0.00000000000E+00 0. -1.
          6    1    1    2  501    0 -0.36893420208E+01  0.71133866917E+02 -0.88406946786E+03  0.90364897072E+03  0.17300000000E+03 0. -1.
         -6    1    1    2    0  503  0.36893420208E+01 -0.71133866917E+02 -0.90144563709E+03  0.92065567663E+03  0.17300000000E+03 0. -1.
</event>
<event>
 4    1  0.5876320E+000  0.1000000E+03  0.7546771E-02  0.1280296E+00
         21   -1    0    0  501  502  0.00000000000E+00  0.00000000000E+00  0.54250107753E+03  0.54250107753E+03  0.00000000000E+00 0.  1.
         21   -1    0    0  502  503 -0.00000000000E+00 -0.00000000000E+00 -0.87542714489E+02  0.87542714489E+02  0.00000000000E+00 0.  1.
          6    1    1    2  501    0 -0.12458060049E+03 -0.18557442073E+02  0.28705077358E+03  0.35803889634E+03  0.17300000000E+03 0.  1.
         -6    1    1    2    0  503  0.12458060049E+03  0.18557442073E+02  0.16790758945E+03  0.27200489568E+03  0.17300000000E+03 0.  1.
</event>
<event>
 4    1  0.5876320E+000  0.1000000E+03  0.7546771E-02  0.1280296E+00
         21   -1    0    0  501  502  0.00000000000E+00  0.00000000000E+00  0.53689329991E+03  0.53689329991E+03  0.00000000000E+00 0.  1.
         21   -1    0    0  502  503 -0.00000000000E+00 -0.00000000000E+00 -0.34131726925E+03  0.34131726925E+03  0.00000000000E+00 0.  1.
          6    1    1    2  501    0 -0.27259653813E+01 -0.17535627710E+03  0.45689863152E+03  0.51907862053E+03  0.17300000000E+03 0.  1.
         -6    1    1    2    0  503  0.27259653813E+01  0.17535627710E+03 -0.26132260086E+03  0.35913194863E+03  0.17300000000E+03 0.  1.
</event>
<event>
 4    1  0.5876320E+000  0.1000000E+03  0.7546771E-02  0.1280296E+00
         21   -1    0    0  503  502  0.00000000000E+00  0.00000000000E+00  0.43238921324E+02  0.43238921324E+02  0.00000000000E+00 0. -1.
         21   -1    0    0  501  503 -0.00000000000E+00 -0.00000000000E+00 -0.11586712244E+04  0.11586712244E+04  0.00000000000E+00 0.  1.
          6    1    1    2  501    0  0.77759436504E+01  0.76104438874E+02 -0.87898665222E+03  0.89911005205E+03  0.17300000000E+03 0. -1.
         -6    1    1    2    0  502 -0.77759436504E+01 -0.76104438874E+02 -0.23644565083E+03  0.30280009364E+03  0.17300000000E+03 0.  1.
</event>
<event>
 4    1  0.5876320E+000  0.1000000E+03  0.7546771E-02  0.1280296E+00
         21   -1    0    0  503  502  0.00000000000E+00  0.00000000000E+00  0.11363848890E+04  0.11363848890E+04  0.00000000000E+00 0.  1.
         21   -1    0    0  501  503 -0.00000000000E+00 -0.00000000000E+00 -0.63012051126E+02  0.63012051126E+02  0.00000000000E+00 0.  1.
          6    1    1    2  501    0 -0.13278326272E+03  0.13014285266E+03  0.72563511618E+03  0.76879378170E+03  0.17300000000E+03 0.  1.
         -6    1    1    2    0  502  0.13278326272E+03 -0.13014285266E+03  0.34773772172E+03  0.43060315845E+03  0.17300000000E+03 0.  1.
</event>
<event>
 4    1  0.5876320E+000  0.1000000E+03  0.7546771E-02  0.1280296E+00
         21   -1    0    0  503  502  0.00000000000E+00  0.00000000000E+00  0.57218183313E+03  0.57218183313E+03  0.00000000000E+00 0.  1.
         21   -1    0    0  501  503 -0.00000000000E+00 -0.00000000000E+00 -0.23874970361E+03  0.23874970361E+03  0.00000000000E+00 0.  1.
          6    1    1    2  501    0 -0.27966336338E+03  0.23016159176E+02 -0.16647330365E+02  0.33007192248E+03  0.17300000000E+03 0.  1.
         -6    1    1    2    0  502  0.27966336338E+03 -0.23016159176E+02  0.35007945988E+03  0.48085961426E+03  0.17300000000E+03 0.  1.
</event>
<event>
 4    1  0.5876320E+000  0.1000000E+03  0.7546771E-02  0.1280296E+00
         21   -1    0    0  501  502  0.00000000000E+00  0.00000000000E+00  0.65668264134E+03  0.65668264134E+03  0.00000000000E+00 0. -1.
         21   -1    0    0  502  503 -0.00000000000E+00 -0.00000000000E+00 -0.66858582874E+02  0.66858582874E+02  0.00000000000E+00 0. -1.
          6    1    1    2  501    0  0.10380178031E+03  0.56411862473E+02  0.30239075787E+03  0.36786720195E+03  0.17300000000E+03 0. -1.
         -6    1    1    2    0  503 -0.10380178031E+03 -0.56411862473E+02  0.28743330060E+03  0.35567402227E+03  0.17300000000E+03 0. -1.
</event>
<event>
 4    1  0.5876320E+000  0.1000000E+03  0.7546771E-02  0.1280296E+00
         21   -1    0    0  501  502  0.00000000000E+00  0.00000000000E+00  0.15631598248E+03  0.15631598248E+03  0.00000000000E+00 0. -1.
         21   -1    0    0  502  503 -0.00000000000E+00 -0.00000000000E+00 -0.61343001108E+03  0.61343001108E+03  0.00000000000E+00 0. -1.
          6    1    1    2  501    0  0.56391743993E+02 -0.10631712306E+03  0.53435758936E+02  0.21741145273E+03  0.17300000000E+03 0. -1.
         -6    1    1    2    0  503 -0.56391743993E+02  0.10631712306E+03 -0.51054978753E+03  0.55233454083E+03  0.17300000000E+03 0. -1.
</event>
<event>
 4    1  0.5876320E+000  0.1000000E+03  0.7546771E-02  0.1280296E+00
         21   -1    0    0  501  502  0.00000000000E+00  0.00000000000E+00  0.62625794130E+03  0.62625794130E+03  0.00000000000E+00 0. -1.
         21   -1    0    0  502  503 -0.00000000000E+00 -0.00000000000E+00 -0.22088128443E+03  0.22088128443E+03  0.00000000000E+00 0. -1.
          6    1    1    2  501    0 -0.16884864409E+03 -0.19476390988E+03  0.43596427528E+03  0.53519780878E+03  0.17300000000E+03 0. -1.
         -6    1    1    2    0  503  0.16884864409E+03  0.19476390988E+03 -0.30587618415E+02  0.31194141694E+03  0.17300000000E+03 0. -1.
</event>
<event>
 4    1  0.5876320E+000  0.1000000E+03  0.7546771E-02  0.1280296E+00
         21   -1    0    0  503  502  0.00000000000E+00  0.00000000000E+00  0.56874931071E+03  0.56874931071E+03  0.00000000000E+00 0.  1.
         21   -1    0    0  501  503 -0.00000000000E+00 -0.00000000000E+00 -0.19503387137E+03  0.19503387137E+03  0.00000000000E+00 0.  1.
          6    1    1    2  501    0  0.85977195875E+02 -0.59813453396E+02 -0.11657074270E+03  0.23342550304E+03  0.17300000000E+03 0.  1.
         -6    1    1    2    0  502 -0.85977195875E+02  0.59813453396E+02  0.49028618204E+03  0.53035767904E+03  0.17300000000E+03 0.  1.
</event>
<event>
 4    1  0.5876320E+000  0.1000000E+03  0.7546771E-02  0.1280296E+00
         21   -1    0    0  503  502  0.00000000000E+00  0.00000000000E+00  0.38785059637E+03  0.38785059637E+03  0.00000000000E+00 0.  1.
         21   -1    0    0  501  503 -0.00000000000E+00 -0.00000000000E+00 -0.21796640753E+03  0.21796640753E+03  0.00000000000E+00 0.  1.
          6    1    1    2  501    0  0.21946865508E+03  0.24428910221E+01  0.13578779915E+01  0.27946968013E+03  0.17300000000E+03 0.  1.
         -6    1    1    2    0  502 -0.21946865508E+03 -0.24428910221E+01  0.16852631085E+03  0.32634732377E+03  0.17300000000E+03 0.  1.
</event>
<event>
 4    1  0.5876320E+000  0.1000000E+03  0.7546771E-02  0.1280296E+00
         21   -1    0    0  503  502  0.00000000000E+00  0.00000000000E+00  0.14469004523E+02  0.14469004523E+02  0.00000000000E+00 0.  1.
         21   -1    0    0  501  503 -0.00000000000E+00 -0.00000000000E+00 -0.30921649599E+04  0.30921649599E+04  0.00000000000E+00 0.  1.
          6    1    1    2  501    0 -0.91437939519E+02  0.49273279295E+02 -0.10730759111E+04  0.10918835395E+04  0.17300000000E+03 0.  1.
         -6    1    1    2    0  502  0.91437939519E+02 -0.49273279295E+02 -0.20046200442E+04  0.20147504249E+04  0.17300000000E+03 0.  1.
</event>
<event>
 4    1  0.5876320E+000  0.1000000E+03  0.7546771E-02  0.1280296E+00
         21   -1    0    0  501  502  0.00000000000E+00  0.00000000000E+00  0.70283093402E+02  0.70283093402E+02  0.00000000000E+00 0. -1.
         21   -1    0    0  502  503 -0.00000000000E+00 -0.00000000000E+00 -0.12055231111E+04  0.12055231111E+04  0.00000000000E+00 0. -1.
          6    1    1    2  501    0 -0.66240605436E+02 -0.22430472264E+03 -0.54587363382E+03  0.61855270633E+03  0.17300000000E+03 0. -1.
         -6    1    1    2    0  503  0.66240605436E+02  0.22430472264E+03 -0.58936638384E+03  0.65725349814E+03  0.17300000000E+03 0. -1.
</event>
<event>
 4    1  0.5876320E+000  0.1000000E+03  0.7546771E-02  0.1280296E+00
         21   -1    0    0  501  502  0.00000000000E+00  0.00000000000E+00  0.88357052402E+03  0.88357052402E+03  0.00000000000E+00 0. -1.
         21   -1    0    0  502  503 -0.00000000000E+00 -0.00000000000E+00 -0.47951900431E+02  0.47951900431E+02  0.00000000000E+00 0. -1.
          6    1    1    2  501    0 -0.52733304593E+02  0.37973535357E+02  0.62292503405E+03  0.64975948538E+03  0.17300000000E+03 0. -1.
         -6    1    1    2    0  503  0.52733304593E+02 -0.37973535357E+02  0.21269358954E+03  0.28176293907E+03  0.17300000000E+03 0. -1.
</event>
<event>
 4    1  0.5876320E+000  0.1000000E+03  0.7546771E-02  0.1280296E+00
         21   -1    0    0  501  502  0.00000000000E+00  0.00000000000E+00  0.21018190859E+03  0.21018190859E+03  0.00000000000E+00 0. -1.
         21   -1    0    0  502  503 -0.00000000000E+00 -0.00000000000E+00 -0.20787779579E+03  0.20787779579E+03  0.00000000000E+00 0. -1.
          6    1    1    2  501    0 -0.10453755929E+03  0.26458407198E+02  0.47358853668E+02  0.20928451838E+03  0.17300000000E+03 0. -1.
         -6    1    1    2    0  503  0.10453755929E+03 -0.26458407198E+02 -0.45054740870E+02  0.20877518600E+03  0.17300000000E+03 0. -1.
</event>
<event>
 4    1  0.5876320E+000  0.1000000E+03  0.7546771E-02  0.1280296E+00
         21   -1    0    0  501  502  0.00000000000E+00  0.00000000000E+00  0.78971492915E+02  0.78971492915E+02  0.00000000000E+00 0. -1.
         21   -1    0    0  502  503 -0.00000000000E+00 -0.00000000000E+00 -0.57764255952E+03  0.57764255952E+03  0.00000000000E+00 0. -1.
          6    1    1    2  501    0 -0.10916979082E+01  0.51382698906E+02 -0.73757799138E+02  0.19496303877E+03  0.17300000000E+03 0. -1.
         -6    1    1    2    0  503  0.10916979082E+01 -0.51382698906E+02 -0.42491326746E+03  0.46165101367E+03  0.17300000000E+03 0. -1.
</event>
<event>
 4    1  0.5876320E+000  0.1000000E+03  0.7546771E-02  0.1280296E+00
         21   -1    0    0  501  502  0.00000000000E+00  0.00000000000E+00  0.12702833995E+04  0.12702833995E+04  0.00000000000E+00 0. -1.
         21   -1    0    0  502  503 -0.00000000000E+00 -0.00000000000E+00 -0.35018184098E+02  0.35018184098E+02  0.00000000000E+00 0. -1.
          6    1    1    2  501    0  0.87748342288E+02  0.75837037398E+02  0.72040336561E+03  0.74990735228E+03  0.17300000000E+03 0. -1.
         -6    1    1    2    0  503 -0.87748342288E+02 -0.75837037398E+02  0.51486184980E+03  0.55539423133E+03  0.17300000000E+03 0. -1.
</event>
<event>
 4    1  0.5876320E+000  0.1000000E+03  0.7546771E-02  0.1280296E+00
         21   -1    0    0  503  502  0.00000000000E+00  0.00000000000E+00  0.37838141064E+03  0.37838141064E+03  0.00000000000E+00 0. -1.
         21   -1    0    0  501  503 -0.00000000000E+00 -0.00000000000E+00 -0.17874410237E+03  0.17874410237E+03  0.00000000000E+00 0. -1.
          6    1    1    2  501    0  0.14684557826E+03  0.48774715415E+02 -0.25836609879E+02  0.23353613667E+03  0.17300000000E+03 0. -1.
         -6    1    1    2    0  502 -0.14684557826E+03 -0.48774715415E+02  0.22547391815E+03  0.32358937635E+03  0.17300000000E+03 0. -1.
</event>
<event>
 4    1  0.5876320E+000  0.1000000E+03  0.7546771E-02  0.1280296E+00
         21   -1    0    0  503  502  0.00000000000E+00  0.00000000000E+00  0.73599089731E+03  0.73599089731E+03  0.00000000000E+00 0.  1.
         21   -1    0    0  501  503 -0.00000000000E+00 -0.00000000000E+00 -0.89717950109E+02  0.89717950109E+02  0.00000000000E+00 0.  1.
          6    1    1    2  501    0 -0.98248402940E+02  0.15805145574E+03  0.26154534695E+03  0.36464774763E+03  0.17300000000E+03 0.  1.
         -6    1    1    2    0  502  0.98248402940E+02 -0.15805145574E+03  0.38472760025E+03  0.46106109979E+03  0.17300000000E+03 0.  1.
</event>
<event>
 4    1  0.5876320E+000  0.1000000E+03  0.7546771E-02  0.1280296E+00
         21   -1    0    0  503  502  0.00000000000E+00  0.00000000000E+00  0.59004993705E+03  0.59004993705E+03  0.00000000000E+00 0.  1.
         21   -1    0    0  501  503 -0.00000000000E+00 -0.00000000000E+00 -0.13075997520E+03  0.13075997520E+03  0.00000000000E+00 0.  1.
          6    1    1    2  501    0  0.84301764222E+02  0.16261344300E+03  0.77909049261E+02  0.26372094959E+03  0.17300000000E+03 0.  1.
         -6    1    1    2    0  502 -0.84301764222E+02 -0.16261344300E+03  0.38138091259E+03  0.45708896265E+03  0.17300000000E+03 0.  1.
</event>
<event>
 4    1  0.5876320E+000  0.1000000E+03  0.7546771E-02  0.1280296E+00
         21   -1    0    0  503  502  0.00000000000E+00  0.00000000000E+00  0.57274070933E+03  0.57274070933E+03  0.00000000000E+00 0.  1.
         21   -1    0    0  501  503 -0.00000000000E+00 -0.00000000000E+00 -0.78715223103E+02  0.78715223103E+02  0.00000000000E+00 0.  1.
          6    1    1    2  501    0 -0.40165990211E+02  0.98795181950E+01  0.42488280195E+03  0.46061405433E+03  0.17300000000E+03 0. -1.
         -6    1    1    2    0  502  0.40165990211E+02 -0.98795181950E+01  0.69142684273E+02  0.19084187810E+03  0.17300000000E+03 0. -1.
</event>
<event>
 4    1  0.5876320E+000  0.1000000E+03  0.7546771E-02  0.1280296E+00
         21   -1    0    0  503  502  0.00000000000E+00  0.00000000000E+00  0.17916491980E+03  0.17916491980E+03  0.00000000000E+00 0.  1.
         21   -1    0    0  501  503 -0.00000000000E+00 -0.00000000000E+00 -0.17193339051E+04  0.17193339051E+04  0.00000000000E+00 0.  1.
          6    1    1    2  501    0 -0.69187870019E+01  0.51257737607E+03 -0.98185794285E+03  0.11210519417E+04  0.17300000000E+03 0. -1.
         -6    1    1    2    0  502  0.69187870019E+01 -0.51257737607E+03 -0.55831104250E+03  0.77744688324E+03  0.17300000000E+03 0. -1.
</event>
<event>
 4    1  0.5876320E+000  0.1000000E+03  0.7546771E-02  0.1280296E+00
         21   -1    0    0  501  502  0.00000000000E+00  0.00000000000E+00  0.54252595784E+03  0.54252595784E+03  0.00000000000E+00 0. -1.
         21   -1    0    0  502  503 -0.00000000000E+00 -0.00000000000E+00 -0.76077411212E+02  0.76077411212E+02  0.00000000000E+00 0. -1.
          6    1    1    2  501    0  0.19302090172E+02 -0.10192383732E+03  0.27001386439E+03  0.33704232118E+03  0.17300000000E+03 0. -1.
         -6    1    1    2    0  503 -0.19302090172E+02  0.10192383732E+03  0.19643468224E+03  0.28156104788E+03  0.17300000000E+03 0. -1.
</event>
<event>
 4    1  0.5876320E+000  0.1000000E+03  0.7546771E-02  0.1280296E+00
         21   -1    0    0  501  502  0.00000000000E+00  0.00000000000E+00  0.16793953412E+02  0.16793953412E+02  0.00000000000E+00 0. -1.
         21   -1    0    0  502  503 -0.00000000000E+00 -0.00000000000E+00 -0.27215704856E+04  0.27215704856E+04  0.00000000000E+00 0. -1.
          6    1    1    2  501    0 -0.78002338789E+02 -0.18714543250E+02 -0.73337128478E+03  0.75775790351E+03  0.17300000000E+03 0. -1.
         -6    1    1    2    0  503  0.78002338789E+02  0.18714543250E+02 -0.19714052474E+04  0.19806065355E+04  0.17300000000E+03 0. -1.
</event>
<event>
 4    1  0.5876320E+000  0.1000000E+03  0.7546771E-02  0.1280296E+00
         21   -1    0    0  501  502  0.00000000000E+00  0.00000000000E+00  0.28238117252E+03  0.28238117252E+03  0.00000000000E+00 0.  1.
         21   -1    0    0  502  503 -0.00000000000E+00 -0.00000000000E+00 -0.19290561677E+03  0.19290561677E+03  0.00000000000E+00 0. -1.
          6    1    1    2  501    0 -0.99684570627E+02  0.10915135180E+03 -0.80999564686E+01  0.22769637792E+03  0.17300000000E+03 0.  1.
         -6    1    1    2    0  503  0.99684570627E+02 -0.10915135180E+03  0.97575512215E+02  0.24759041138E+03  0.17300000000E+03 0. -1.
</event>
<event>
 4    1  0.5876320E+000  0.1000000E+03  0.7546771E-02  0.1280296E+00
         21   -1    0    0  501  502  0.00000000000E+00  0.00000000000E+00  0.56721060381E+03  0.56721060381E+03  0.00000000000E+00 0. -1.
         21   -1    0    0  502  503 -0.00000000000E+00 -0.00000000000E+00 -0.98639588448E+02  0.98639588448E+02  0.00000000000E+00 0. -1.
          6    1    1    2  501    0 -0.42473604777E+02  0.56099564152E+02  0.43858782820E+03  0.47669639316E+03  0.17300000000E+03 0. -1.
         -6    1    1    2    0  503  0.42473604777E+02 -0.56099564152E+02  0.29983187154E+02  0.18915379910E+03  0.17300000000E+03 0. -1.
</event>
<event>
 4    1  0.5876320E+000  0.1000000E+03  0.7546771E-02  0.1280296E+00
         21   -1    0    0  501  502  0.00000000000E+00  0.00000000000E+00  0.81866531277E+02  0.81866531277E+02  0.00000000000E+00 0. -1.
         21   -1    0    0  502  503 -0.00000000000E+00 -0.00000000000E+00 -0.88775973809E+03  0.88775973809E+03  0.00000000000E+00 0. -1.
          6    1    1    2  501    0 -0.57193258574E+02 -0.28624899363E+01 -0.45670034602E+02  0.18786701343E+03  0.17300000000E+03 0. -1.
         -6    1    1    2    0  503  0.57193258574E+02  0.28624899363E+01 -0.76022317221E+03  0.78175925594E+03  0.17300000000E+03 0. -1.
</event>
<event>
 4    1  0.5876320E+000  0.1000000E+03  0.7546771E-02  0.1280296E+00
         21   -1    0    0  501  502  0.00000000000E+00  0.00000000000E+00  0.18942167560E+03  0.18942167560E+03  0.00000000000E+00 0.  1.
         21   -1    0    0  502  503 -0.00000000000E+00 -0.00000000000E+00 -0.34861958043E+03  0.34861958043E+03  0.00000000000E+00 0. -1.
          6    1    1    2  501    0  0.14859317458E+03 -0.74632497180E+02  0.16674651838E+02  0.24053478996E+03  0.17300000000E+03 0. -1.
         -6    1    1    2    0  503 -0.14859317458E+03  0.74632497180E+02 -0.17587255666E+03  0.29750646607E+03  0.17300000000E+03 0. -1.
</event>
<event>
 4    1  0.5876320E+000  0.1000000E+03  0.7546771E-02  0.1280296E+00
         21   -1    0    0  501  502  0.00000000000E+00  0.00000000000E+00  0.66089544424E+02  0.66089544424E+02  0.00000000000E+00 0.  1.
         21   -1    0    0  502  503 -0.00000000000E+00 -0.00000000000E+00 -0.77730997804E+03  0.77730997804E+03  0.00000000000E+00 0. -1.
          6    1    1    2  501    0  0.79186951893E+02  0.15442359043E+02 -0.12824278531E+03  0.22996576221E+03  0.17300000000E+03 0. -1.
         -6    1    1    2    0  503 -0.79186951893E+02 -0.15442359043E+02 -0.58297764830E+03  0.61343376026E+03  0.17300000000E+03 0. -1.
</event>
<event>
 4    1  0.5876320E+000  0.1000000E+03  0.7546771E-02  0.1280296E+00
         21   -1    0    0  501  502  0.00000000000E+00  0.00000000000E+00  0.52556971957E+03  0.52556971957E+03  0.00000000000E+00 0. -1.
         21   -1    0    0  502  503 -0.00000000000E+00 -0.00000000000E+00 -0.84050783710E+02  0.84050783710E+02  0.00000000000E+00 0. -1.
          6    1    1    2  501    0  0.10942979643E+03 -0.32136290841E+02  0.16973356067E+03  0.26785463064E+03  0.17300000000E+03 0. -1.
         -6    1    1    2    0  503 -0.10942979643E+03  0.32136290841E+02  0.27178537519E+03  0.34176587264E+03  0.17300000000E+03 0. -1.
</event>
<event>
 4    1  0.5876320E+000  0.1000000E+03  0.7546771E-02  0.1280296E+00
         21   -1    0    0  501  502  0.00000000000E+00  0.00000000000E+00  0.75041001275E+02  0.75041001275E+02  0.00000000000E+00 0. -1.
         21   -1    0    0  502  503 -0.00000000000E+00 -0.00000000000E+00 -0.55432788753E+03  0.55432788753E+03  0.00000000000E+00 0. -1.
          6    1    1    2  501    0  0.29932621200E+02 -0.67811439134E+02 -0.11840935788E+03  0.22236035870E+03  0.17300000000E+03 0. -1.
         -6    1    1    2    0  503 -0.29932621200E+02  0.67811439134E+02 -0.36087752838E+03  0.40700853011E+03  0.17300000000E+03 0. -1.
</event>
<event>
 4    1  0.5876320E+000  0.1000000E+03  0.7546771E-02  0.1280296E+00
         21   -1    0    0  503  502  0.00000000000E+00  0.00000000000E+00  0.11733360585E+03  0.11733360585E+03  0.00000000000E+00 0. -1.
         21   -1    0    0  501  503 -0.00000000000E+00 -0.00000000000E+00 -0.30532095428E+03  0.30532095428E+03  0.00000000000E+00 0.  1.
          6    1    1    2  501    0 -0.24919673672E+02  0.71043747989E+02 -0.11082329260E+03  0.21881272003E+03  0.17300000000E+03 0.  1.
         -6    1    1    2    0  502  0.24919673672E+02 -0.71043747989E+02 -0.77164055822E+02  0.20384184010E+03  0.17300000000E+03 0. -1.
</event>
<event>
 4    1  0.5876320E+000  0.1000000E+03  0.7546771E-02  0.1280296E+00
         21   -1    0    0  503  502  0.00000000000E+00  0.00000000000E+00  0.71150935248E+03  0.71150935248E+03  0.00000000000E+00 0. -1.
         21   -1    0    0  501  503 -0.00000000000E+00 -0.00000000000E+00 -0.23011235873E+03  0.23011235873E+03  0.00000000000E+00 0.  1.
          6    1    1    2  501    0 -0.52560390773E+02 -0.60310471201E+02 -0.17460706395E+03  0.25848902181E+03  0.17300000000E+03 0.  1.
         -6    1    1    2    0  502  0.52560390773E+02  0.60310471201E+02  0.65600405770E+03  0.68313268940E+03  0.17300000000E+03 0. -1.
</event>
<event>
 4    1  0.5876320E+000  0.1000000E+03  0.7546771E-02  0.1280296E+00
         21   -1    0    0  501  502  0.00000000000E+00  0.00000000000E+00  0.17839420592E+03  0.17839420592E+03  0.00000000000E+00 0.  1.
         21   -1    0    0  502  503 -0.00000000000E+00 -0.00000000000E+00 -0.19614759758E+03  0.19614759758E+03  0.00000000000E+00 0.  1.
          6    1    1    2  501    0 -0.23191391829E+02  0.67156573039E+02 -0.50319372409E+01  0.18708865906E+03  0.17300000000E+03 0.  1.
         -6    1    1    2    0  503  0.23191391829E+02 -0.67156573039E+02 -0.12721454423E+02  0.18745314444E+03  0.17300000000E+03 0.  1.
</event>
<event>
 4    1  0.5876320E+000  0.1000000E+03  0.7546771E-02  0.1280296E+00
         21   -1    0    0  501  502  0.00000000000E+00  0.00000000000E+00  0.12777679124E+04  0.12777679124E+04  0.00000000000E+00 0.  1.
         21   -1    0    0  502  503 -0.00000000000E+00 -0.00000000000E+00 -0.12804644986E+03  0.12804644986E+03  0.00000000000E+00 0.  1.
          6    1    1    2  501    0  0.67060704052E+02  0.15427306639E+03  0.11389949153E+04  0.11642747674E+04  0.17300000000E+03 0.  1.
         -6    1    1    2    0  503 -0.67060704052E+02 -0.15427306639E+03  0.10726547223E+02  0.24153959480E+03  0.17300000000E+03 0.  1.
</event>
<event>
 4    1  0.5876320E+000  0.1000000E+03  0.7546771E-02  0.1280296E+00
         21   -1    0    0  501  502  0.00000000000E+00  0.00000000000E+00  0.29078494095E+02  0.29078494095E+02  0.00000000000E+00 0.  1.
         21   -1    0    0  502  503 -0.00000000000E+00 -0.00000000000E+00 -0.20408113419E+04  0.20408113419E+04  0.00000000000E+00 0.  1.
          6    1    1    2  501    0 -0.15824028254E+03 -0.49055387032E+02 -0.81738186516E+03  0.85175614556E+03  0.17300000000E+03 0.  1.
         -6    1    1    2    0  503  0.15824028254E+03  0.49055387032E+02 -0.11943509826E+04  0.12181336904E+04  0.17300000000E+03 0.  1.
</event>
<event>
 4    1  0.5876320E+000  0.1000000E+03  0.7546771E-02  0.1280296E+00
         21   -1    0    0  501  502  0.00000000000E+00  0.00000000000E+00  0.35692156376E+03  0.35692156376E+03  0.00000000000E+00 0.  1.
         21   -1    0    0  502  503 -0.00000000000E+00 -0.00000000000E+00 -0.53028422664E+03  0.53028422664E+03  0.00000000000E+00 0.  1.
          6    1    1    2  501    0  0.14189364019E+02 -0.11722360739E+02  0.31990716421E+03  0.36415428805E+03  0.17300000000E+03 0.  1.
         -6    1    1    2    0  503 -0.14189364019E+02  0.11722360739E+02 -0.49326982709E+03  0.52305150235E+03  0.17300000000E+03 0.  1.
</event>
<event>
 4    1  0.5876320E+000  0.1000000E+03  0.7546771E-02  0.1280296E+00
         21   -1    0    0  501  502  0.00000000000E+00  0.00000000000E+00  0.93587254933E+03  0.93587254933E+03  0.00000000000E+00 0.  1.
         21   -1    0    0  502  503 -0.00000000000E+00 -0.00000000000E+00 -0.52534567609E+02  0.52534567609E+02  0.00000000000E+00 0.  1.
          6    1    1    2  501    0 -0.18463376027E+02 -0.51161266939E+02  0.72603605852E+03  0.74834198717E+03  0.17300000000E+03 0.  1.
         -6    1    1    2    0  503  0.18463376027E+02  0.51161266939E+02  0.15730192320E+03  0.24006512977E+03  0.17300000000E+03 0.  1.
</event>
<event>
 4    1  0.5876320E+000  0.1000000E+03  0.7546771E-02  0.1280296E+00
         21   -1    0    0  501  502  0.00000000000E+00  0.00000000000E+00  0.10985280014E+03  0.10985280014E+03  0.00000000000E+00 0.  1.
         21   -1    0    0  502  503 -0.00000000000E+00 -0.00000000000E+00 -0.48151379198E+03  0.48151379198E+03  0.00000000000E+00 0.  1.
          6    1    1    2  501    0 -0.34211595336E+02  0.55274817987E+02 -0.98307355803E+01  0.18507128929E+03  0.17300000000E+03 0.  1.
         -6    1    1    2    0  503  0.34211595336E+02 -0.55274817987E+02 -0.36183025626E+03  0.40629530283E+03  0.17300000000E+03 0.  1.
</event>
<event>
 4    1  0.5876320E+000  0.1000000E+03  0.7546771E-02  0.1280296E+00
         21   -1    0    0  501  502  0.00000000000E+00  0.00000000000E+00  0.84827319305E+03  0.84827319305E+03  0.00000000000E+00 0.  1.
         21   -1    0    0  502  503 -0.00000000000E+00 -0.00000000000E+00 -0.29239817839E+03  0.29239817839E+03  0.00000000000E+00 0.  1.
          6    1    1    2  501    0 -0.25721848906E+03  0.34775050058E+02  0.72254910218E+03  0.78700499381E+03  0.17300000000E+03 0.  1.
         -6    1    1    2    0  503  0.25721848906E+03 -0.34775050058E+02 -0.16667408752E+03  0.35366637763E+03  0.17300000000E+03 0.  1.
</event>
<event>
 4    1  0.5876320E+000  0.1000000E+03  0.7546771E-02  0.1280296E+00
         21   -1    0    0  501  502  0.00000000000E+00  0.00000000000E+00  0.28362627342E+02  0.28362627342E+02  0.00000000000E+00 0.  1.
         21   -1    0    0  502  503 -0.00000000000E+00 -0.00000000000E+00 -0.19566770817E+04  0.19566770817E+04  0.00000000000E+00 0.  1.
          6    1    1    2  501    0  0.14739272647E+02  0.71738231841E+02 -0.15630151717E+04  0.15742646052E+04  0.17300000000E+03 0.  1.
         -6    1    1    2    0  503 -0.14739272647E+02 -0.71738231841E+02 -0.36529928264E+03  0.41077510388E+03  0.17300000000E+03 0.  1.
</event>
<event>
 4    1  0.5876320E+000  0.1000000E+03  0.7546771E-02  0.1280296E+00
         21   -1    0    0  501  502  0.00000000000E+00  0.00000000000E+00  0.18423456850E+04  0.18423456850E+04  0.00000000000E+00 0. -1.
         21   -1    0    0  502  503 -0.00000000000E+00 -0.00000000000E+00 -0.44711564982E+02  0.44711564982E+02  0.00000000000E+00 0.  1.
          6    1    1    2  501    0  0.87640458169E+02 -0.51743406993E+01  0.15941544933E+04  0.16059156803E+04  0.17300000000E+03 0. -1.
         -6    1    1    2    0  503 -0.87640458169E+02  0.51743406993E+01  0.20347962668E+03  0.28114156964E+03  0.17300000000E+03 0.  1.
</event>
<event>
 4    1  0.5876320E+000  0.1000000E+03  0.7546771E-02  0.1280296E+00
         21   -1    0    0  501  502  0.00000000000E+00  0.00000000000E+00  0.11058795392E+03  0.11058795392E+03  0.00000000000E+00 0. -1.
         21   -1    0    0  502  503 -0.00000000000E+00 -0.00000000000E+00 -0.34325031842E+03  0.34325031842E+03  0.00000000000E+00 0.  1.
          6    1    1    2  501    0  0.32798963364E+02 -0.91075154722E+01 -0.19783540872E+02  0.17742352529E+03  0.17300000000E+03 0. -1.
         -6    1    1    2    0  503 -0.32798963364E+02  0.91075154722E+01 -0.21287882363E+03  0.27641474705E+03  0.17300000000E+03 0.  1.
</event>
<event>
 4    1  0.5876320E+000  0.1000000E+03  0.7546771E-02  0.1280296E+00
         21   -1    0    0  501  502  0.00000000000E+00  0.00000000000E+00  0.59282366062E+03  0.59282366062E+03  0.00000000000E+00 0. -1.
         21   -1    0    0  502  503 -0.00000000000E+00 -0.00000000000E+00 -0.11941895656E+03  0.11941895656E+03  0.00000000000E+00 0. -1.
          6    1    1    2  501    0 -0.20139568646E+03  0.41104077200E+01  0.25942686147E+03  0.37122555734E+03  0.17300000000E+03 0. -1.
         -6    1    1    2    0  503  0.20139568646E+03 -0.41104077200E+01  0.21397784260E+03  0.34101705984E+03  0.17300000000E+03 0. -1.
</event>
<event>
 4    1  0.5876320E+000  0.1000000E+03  0.7546771E-02  0.1280296E+00
         21   -1    0    0  503  502  0.00000000000E+00  0.00000000000E+00  0.31001184475E+03  0.31001184475E+03  0.00000000000E+00 0. -1.
         21   -1    0    0  501  503 -0.00000000000E+00 -0.00000000000E+00 -0.21669975591E+03  0.21669975591E+03  0.00000000000E+00 0.  1.
          6    1    1    2  501    0  0.44305209255E+02 -0.17976657757E+03 -0.87316963052E+01  0.25354332273E+03  0.17300000000E+03 0.  1.
         -6    1    1    2    0  502 -0.44305209255E+02  0.17976657757E+03  0.10204378514E+03  0.27316827793E+03  0.17300000000E+03 0. -1.
</event>
<event>
 4    1  0.5876320E+000  0.1000000E+03  0.7546771E-02  0.1280296E+00
         21   -1    0    0  503  502  0.00000000000E+00  0.00000000000E+00  0.23905724040E+03  0.23905724040E+03  0.00000000000E+00 0. -1.
         21   -1    0    0  501  503 -0.00000000000E+00 -0.00000000000E+00 -0.45586335726E+03  0.45586335726E+03  0.00000000000E+00 0.  1.
          6    1    1    2  501    0 -0.14783338856E+03  0.23777120183E+03 -0.13541411002E+03  0.35588739284E+03  0.17300000000E+03 0. -1.
         -6    1    1    2    0  502  0.14783338856E+03 -0.23777120183E+03 -0.81392006836E+02  0.33903320482E+03  0.17300000000E+03 0.  1.
</event>
<event>
 4    1  0.5876320E+000  0.1000000E+03  0.7546771E-02  0.1280296E+00
         21   -1    0    0  503  502  0.00000000000E+00  0.00000000000E+00  0.60462614103E+02  0.60462614103E+02  0.00000000000E+00 0.  1.
         21   -1    0    0  501  503 -0.00000000000E+00 -0.00000000000E+00 -0.58580297938E+03  0.58580297938E+03  0.00000000000E+00 0.  1.
          6    1    1    2  501    0 -0.45045860624E+02  0.30480484990E+02 -0.34906601257E+03  0.39336277233E+03  0.17300000000E+03 0.  1.
         -6    1    1    2    0  502  0.45045860624E+02 -0.30480484990E+02 -0.17627435271E+03  0.25290282115E+03  0.17300000000E+03 0.  1.
</event>
<event>
 4    1  0.5876320E+000  0.1000000E+03  0.7546771E-02  0.1280296E+00
         21   -1    0    0  503  502  0.00000000000E+00  0.00000000000E+00  0.39841230782E+03  0.39841230782E+03  0.00000000000E+00 0. -1.
         21   -1    0    0  501  503 -0.00000000000E+00 -0.00000000000E+00 -0.84804447245E+02  0.84804447245E+02  0.00000000000E+00 0. -1.
          6    1    1    2  501    0 -0.58007951814E+02 -0.20025531768E+02  0.14418330410E+03  0.23341758626E+03  0.17300000000E+03 0.  1.
         -6    1    1    2    0  502  0.58007951814E+02  0.20025531768E+02  0.16942455647E+03  0.24979916880E+03  0.17300000000E+03 0.  1.
</event>
<event>
 4    1  0.5876320E+000  0.1000000E+03  0.7546771E-02  0.1280296E+00
         21   -1    0    0  503  502  0.00000000000E+00  0.00000000000E+00  0.11063721610E+03  0.11063721610E+03  0.00000000000E+00 0. -1.
         21   -1    0    0  501  503 -0.00000000000E+00 -0.00000000000E+00 -0.91993754280E+03  0.91993754280E+03  0.00000000000E+00 0. -1.
          6    1    1    2  501    0 -0.34325445587E+02 -0.30236145704E+02 -0.83124570671E+03  0.85028870723E+03  0.17300000000E+03 0.  1.
         -6    1    1    2    0  502  0.34325445587E+02  0.30236145704E+02  0.21945380008E+02  0.18028605167E+03  0.17300000000E+03 0.  1.
</event>
<event>
 4    1  0.5876320E+000  0.1000000E+03  0.7546771E-02  0.1280296E+00
         21   -1    0    0  503  502  0.00000000000E+00  0.00000000000E+00  0.30728548604E+03  0.30728548604E+03  0.00000000000E+00 0. -1.
         21   -1    0    0  501  503 -0.00000000000E+00 -0.00000000000E+00 -0.61891211457E+03  0.61891211457E+03  0.00000000000E+00 0. -1.
          6    1    1    2  501    0 -0.21307142690E+02  0.12058451329E+02 -0.58011862046E+03  0.60585973161E+03  0.17300000000E+03 0.  1.
         -6    1    1    2    0  502  0.21307142690E+02 -0.12058451329E+02  0.26849199193E+03  0.32033786899E+03  0.17300000000E+03 0.  1.
</event>
<event>
 4    1  0.5876320E+000  0.1000000E+03  0.7546771E-02  0.1280296E+00
         21   -1    0    0  503  502  0.00000000000E+00  0.00000000000E+00  0.43042888753E+03  0.43042888753E+03  0.00000000000E+00 0.  1.
         21   -1    0    0  501  503 -0.00000000000E+00 -0.00000000000E+00 -0.16922118213E+03  0.16922118213E+03  0.00000000000E+00 0. -1.
          6    1    1    2  501    0 -0.54463376885E+02  0.56681233002E+02 -0.82307245692E+02  0.20708091242E+03  0.17300000000E+03 0. -1.
         -6    1    1    2    0  502  0.54463376885E+02 -0.56681233002E+02  0.34351495109E+03  0.39256915724E+03  0.17300000000E+03 0.  1.
</event>
<event>
 4    1  0.5876320E+000  0.1000000E+03  0.7546771E-02  0.1280296E+00
         21   -1    0    0  503  502  0.00000000000E+00  0.00000000000E+00  0.64325262197E+02  0.64325262197E+02  0.00000000000E+00 0.  1.
         21   -1    0    0  501  503 -0.00000000000E+00 -0.00000000000E+00 -0.51761002032E+03  0.51761002032E+03  0.00000000000E+00 0. -1.
          6    1    1    2  501    0 -0.10858050536E+02  0.46558044792E+01 -0.31722406100E+03  0.36152410522E+03  0.17300000000E+03 0. -1.
         -6    1    1    2    0  502  0.10858050536E+02 -0.46558044792E+01 -0.13606069713E+03  0.22041117730E+03  0.17300000000E+03 0.  1.
</event>
<event>
 4    1  0.5876320E+000  0.1000000E+03  0.7546771E-02  0.1280296E+00
         21   -1    0    0  501  502  0.00000000000E+00  0.00000000000E+00  0.10385741669E+04  0.10385741669E+04  0.00000000000E+00 0.  1.
         21   -1    0    0  502  503 -0.00000000000E+00 -0.00000000000E+00 -0.45454334232E+02  0.45454334232E+02  0.00000000000E+00 0.  1.
          6    1    1    2  501    0  0.11251165494E+03  0.17768171351E+02  0.66022134034E+03  0.69195071982E+03  0.17300000000E+03 0.  1.
         -6    1    1    2    0  503 -0.11251165494E+03 -0.17768171351E+02  0.33289849233E+03  0.39207778132E+03  0.17300000000E+03 0.  1.
</event>
<event>
 4    1  0.5876320E+000  0.1000000E+03  0.7546771E-02  0.1280296E+00
         21   -1    0    0  501  502  0.00000000000E+00  0.00000000000E+00  0.24519687922E+03  0.24519687922E+03  0.00000000000E+00 0.  1.
         21   -1    0    0  502  503 -0.00000000000E+00 -0.00000000000E+00 -0.97670790539E+03  0.97670790539E+03  0.00000000000E+00 0.  1.
          6    1    1    2  501    0  0.22815246741E+03 -0.13803534433E+03  0.98773804213E+02  0.33285517732E+03  0.17300000000E+03 0.  1.
         -6    1    1    2    0  503 -0.22815246741E+03  0.13803534433E+03 -0.83028483038E+03  0.88904960730E+03  0.17300000000E+03 0.  1.
</event>
<event>
 4    1  0.5876320E+000  0.1000000E+03  0.7546771E-02  0.1280296E+00
         21   -1    0    0  501  502  0.00000000000E+00  0.00000000000E+00  0.19830551898E+03  0.19830551898E+03  0.00000000000E+00 0.  1.
         21   -1    0    0  502  503 -0.00000000000E+00 -0.00000000000E+00 -0.30012939110E+03  0.30012939110E+03  0.00000000000E+00 0.  1.
          6    1    1    2  501    0 -0.36604192845E+02  0.62039790100E+02  0.10865663810E+03  0.21661963783E+03  0.17300000000E+03 0.  1.
         -6    1    1    2    0  503  0.36604192845E+02 -0.62039790100E+02 -0.21048051022E+03  0.28181527225E+03  0.17300000000E+03 0.  1.
</event>
<event>
 4    1  0.5876320E+000  0.1000000E+03  0.7546771E-02  0.1280296E+00
         21   -1    0    0  501  502  0.00000000000E+00  0.00000000000E+00  0.74836190674E+02  0.74836190674E+02  0.00000000000E+00 0.  1.
         21   -1    0    0  502  503 -0.00000000000E+00 -0.00000000000E+00 -0.16186396741E+04  0.16186396741E+04  0.00000000000E+00 0.  1.
          6    1    1    2  501    0 -0.12226012778E+02 -0.16180115006E+02 -0.38835518122E+02  0.17846139352E+03  0.17300000000E+03 0.  1.
         -6    1    1    2    0  503  0.12226012778E+02  0.16180115006E+02 -0.15049679653E+04  0.15150144712E+04  0.17300000000E+03 0.  1.
</event>
<event>
 4    1  0.5876320E+000  0.1000000E+03  0.7546771E-02  0.1280296E+00
         21   -1    0    0  501  502  0.00000000000E+00  0.00000000000E+00  0.17230726049E+03  0.17230726049E+03  0.00000000000E+00 0.  1.
         21   -1    0    0  502  503 -0.00000000000E+00 -0.00000000000E+00 -0.72767837021E+03  0.72767837021E+03  0.00000000000E+00 0.  1.
          6    1    1    2  501    0  0.18911764982E+03  0.24418475111E+03 -0.26755174351E+03  0.44373935323E+03  0.17300000000E+03 0.  1.
         -6    1    1    2    0  503 -0.18911764982E+03 -0.24418475111E+03 -0.28781936620E+03  0.45624627747E+03  0.17300000000E+03 0.  1.
</event>
<event>
 4    1  0.5876320E+000  0.1000000E+03  0.7546771E-02  0.1280296E+00
         21   -1    0    0  501  502  0.00000000000E+00  0.00000000000E+00  0.31178987395E+03  0.31178987395E+03  0.00000000000E+00 0.  1.
         21   -1    0    0  502  503 -0.00000000000E+00 -0.00000000000E+00 -0.33118100908E+03  0.33118100908E+03  0.00000000000E+00 0.  1.
          6    1    1    2  501    0  0.13459149101E+03  0.23337623301E+03  0.17713058241E+02  0.32065883431E+03  0.17300000000E+03 0.  1.
         -6    1    1    2    0  503 -0.13459149101E+03 -0.23337623301E+03 -0.37104193369E+02  0.32231204872E+03  0.17300000000E+03 0.  1.
</event>
<event>
 4    1  0.5876320E+000  0.1000000E+03  0.7546771E-02  0.1280296E+00
         21   -1    0    0  501  502  0.00000000000E+00  0.00000000000E+00  0.29222458668E+03  0.29222458668E+03  0.00000000000E+00 0.  1.
         21   -1    0    0  502  503 -0.00000000000E+00 -0.00000000000E+00 -0.10693474990E+03  0.10693474990E+03  0.00000000000E+00 0.  1.
          6    1    1    2  501    0  0.34133577791E+02 -0.10895562204E+02  0.99432963700E+02  0.20273068016E+03  0.17300000000E+03 0.  1.
         -6    1    1    2    0  503 -0.34133577791E+02  0.10895562204E+02  0.85856873084E+02  0.19642865642E+03  0.17300000000E+03 0.  1.
</event>
<event>
 4    1  0.5876320E+000  0.1000000E+03  0.7546771E-02  0.1280296E+00
         21   -1    0    0  503  502  0.00000000000E+00  0.00000000000E+00  0.48433669904E+02  0.48433669904E+02  0.00000000000E+00 0.  1.
         21   -1    0    0  501  503 -0.00000000000E+00 -0.00000000000E+00 -0.69081893741E+03  0.69081893741E+03  0.00000000000E+00 0.  1.
          6    1    1    2  501    0  0.13585131454E+02  0.56695518529E+02 -0.29806802780E+03  0.34953181088E+03  0.17300000000E+03 0.  1.
         -6    1    1    2    0  502 -0.13585131454E+02 -0.56695518529E+02 -0.34431723971E+03  0.38972079644E+03  0.17300000000E+03 0.  1.
</event>
<event>
 4    1  0.5876320E+000  0.1000000E+03  0.7546771E-02  0.1280296E+00
         21   -1    0    0  501  502  0.00000000000E+00  0.00000000000E+00  0.15779792574E+04  0.15779792574E+04  0.00000000000E+00 0.  1.
         21   -1    0    0  502  503 -0.00000000000E+00 -0.00000000000E+00 -0.35053642812E+03  0.35053642812E+03  0.00000000000E+00 0.  1.
          6    1    1    2  501    0  0.55737539171E+03  0.21837362313E+03  0.11401362651E+04  0.12993052257E+04  0.17300000000E+03 0.  1.
         -6    1    1    2    0  503 -0.55737539171E+03 -0.21837362313E+03  0.87306564152E+02  0.62921045978E+03  0.17300000000E+03 0.  1.
</event>
<event>
 4    1  0.5876320E+000  0.1000000E+03  0.7546771E-02  0.1280296E+00
         21   -1    0    0  503  502  0.00000000000E+00  0.00000000000E+00  0.14928111805E+03  0.14928111805E+03  0.00000000000E+00 0.  1.
         21   -1    0    0  501  503 -0.00000000000E+00 -0.00000000000E+00 -0.48626291214E+03  0.48626291214E+03  0.00000000000E+00 0. -1.
          6    1    1    2  501    0  0.11180575234E+03 -0.77802886049E+02 -0.35161677600E+03  0.41487006700E+03  0.17300000000E+03 0.  1.
         -6    1    1    2    0  502 -0.11180575234E+03  0.77802886049E+02  0.14634981907E+02  0.22067396319E+03  0.17300000000E+03 0.  1.
</event>
<event>
 4    1  0.5876320E+000  0.1000000E+03  0.7546771E-02  0.1280296E+00
         21   -1    0    0  503  502  0.00000000000E+00  0.00000000000E+00  0.57804642416E+03  0.57804642416E+03  0.00000000000E+00 0.  1.
         21   -1    0    0  501  503 -0.00000000000E+00 -0.00000000000E+00 -0.17032823709E+03  0.17032823709E+03  0.00000000000E+00 0. -1.
          6    1    1    2  501    0  0.67576038959E+02 -0.26128263806E+02 -0.96123214814E+02  0.21075549729E+03  0.17300000000E+03 0.  1.
         -6    1    1    2    0  502 -0.67576038959E+02  0.26128263806E+02  0.50384140188E+03  0.53761916396E+03  0.17300000000E+03 0.  1.
</event>
<event>
 4    1  0.5876320E+000  0.1000000E+03  0.7546771E-02  0.1280296E+00
         21   -1    0    0  501  502  0.00000000000E+00  0.00000000000E+00  0.21519150171E+03  0.21519150171E+03  0.00000000000E+00 0.  1.
         21   -1    0    0  502  503 -0.00000000000E+00 -0.00000000000E+00 -0.32275121325E+03  0.32275121325E+03  0.00000000000E+00 0. -1.
          6    1    1    2  501    0  0.14091128134E+03  0.63480229799E+02  0.73851776832E+02  0.24345187148E+03  0.17300000000E+03 0. -1.
         -6    1    1    2    0  503 -0.14091128134E+03 -0.63480229799E+02 -0.18141148837E+03  0.29449084348E+03  0.17300000000E+03 0. -1.
</event>
<event>
 4    1  0.5876320E+000  0.1000000E+03  0.7546771E-02  0.1280296E+00
         21   -1    0    0  501  502  0.00000000000E+00  0.00000000000E+00  0.27029754542E+03  0.27029754542E+03  0.00000000000E+00 0.  1.
         21   -1    0    0  502  503 -0.00000000000E+00 -0.00000000000E+00 -0.15269031071E+04  0.15269031071E+04  0.00000000000E+00 0. -1.
          6    1    1    2  501    0  0.37057256831E+02 -0.18020240294E+03  0.19795780497E+03  0.32087760728E+03  0.17300000000E+03 0. -1.
         -6    1    1    2    0  503 -0.37057256831E+02  0.18020240294E+03 -0.14545633667E+04  0.14763230452E+04  0.17300000000E+03 0. -1.
</event>
<event>
 4    1  0.5876320E+000  0.1000000E+03  0.7546771E-02  0.1280296E+00
         21   -1    0    0  501  502  0.00000000000E+00  0.00000000000E+00  0.13512044240E+04  0.13512044240E+04  0.00000000000E+00 0.  1.
         21   -1    0    0  502  503 -0.00000000000E+00 -0.00000000000E+00 -0.24913609473E+02  0.24913609473E+02  0.00000000000E+00 0. -1.
          6    1    1    2  501    0 -0.55904364603E+02  0.50010430309E+01  0.57251381113E+03  0.60070905799E+03  0.17300000000E+03 0. -1.
         -6    1    1    2    0  503  0.55904364603E+02 -0.50010430309E+01  0.75377700337E+03  0.77540897546E+03  0.17300000000E+03 0. -1.
</event>
<event>
 4    1  0.5876320E+000  0.1000000E+03  0.7546771E-02  0.1280296E+00
         21   -1    0    0  501  502  0.00000000000E+00  0.00000000000E+00  0.53460215126E+03  0.53460215126E+03  0.00000000000E+00 0.  1.
         21   -1    0    0  502  503 -0.00000000000E+00 -0.00000000000E+00 -0.19881215605E+03  0.19881215605E+03  0.00000000000E+00 0. -1.
          6    1    1    2  501    0 -0.27222136877E+03  0.36087415459E+02  0.20255751016E+03  0.38257720801E+03  0.17300000000E+03 0. -1.
         -6    1    1    2    0  503  0.27222136877E+03 -0.36087415459E+02  0.13323248506E+03  0.35083709930E+03  0.17300000000E+03 0. -1.
</event>
<event>
 4    1  0.5876320E+000  0.1000000E+03  0.7546771E-02  0.1280296E+00
         21   -1    0    0  501  502  0.00000000000E+00  0.00000000000E+00  0.32571627895E+03  0.32571627895E+03  0.00000000000E+00 0.  1.
         21   -1    0    0  502  503 -0.00000000000E+00 -0.00000000000E+00 -0.30227802366E+03  0.30227802366E+03  0.00000000000E+00 0.  1.
          6    1    1    2  501    0 -0.17992973216E+03 -0.18780103147E+03  0.41470936821E+02  0.31510756026E+03  0.17300000000E+03 0.  1.
         -6    1    1    2    0  503  0.17992973216E+03  0.18780103147E+03 -0.18032681534E+02  0.31288674235E+03  0.17300000000E+03 0.  1.
</event>
<event>
 4    1  0.5876320E+000  0.1000000E+03  0.7546771E-02  0.1280296E+00
         21   -1    0    0  501  502  0.00000000000E+00  0.00000000000E+00  0.18440600353E+03  0.18440600353E+03  0.00000000000E+00 0.  1.
         21   -1    0    0  502  503 -0.00000000000E+00 -0.00000000000E+00 -0.24905042617E+03  0.24905042617E+03  0.00000000000E+00 0.  1.
          6    1    1    2  501    0  0.99229456085E+02 -0.74488021715E+02 -0.74998885439E+01  0.21302628632E+03  0.17300000000E+03 0.  1.
         -6    1    1    2    0  503 -0.99229456085E+02  0.74488021715E+02 -0.57144534095E+02  0.22043014338E+03  0.17300000000E+03 0.  1.
</event>
<event>
 4    1  0.5876320E+000  0.1000000E+03  0.7546771E-02  0.1280296E+00
         21   -1    0    0  501  502  0.00000000000E+00  0.00000000000E+00  0.25606550494E+03  0.25606550494E+03  0.00000000000E+00 0.  1.
         21   -1    0    0  502  503 -0.00000000000E+00 -0.00000000000E+00 -0.10440787299E+04  0.10440787299E+04  0.00000000000E+00 0.  1.
          6    1    1    2  501    0 -0.87954886515E+02 -0.19127935689E+03  0.15846525378E+03  0.31522070219E+03  0.17300000000E+03 0.  1.
         -6    1    1    2    0  503  0.87954886515E+02  0.19127935689E+03 -0.94647847876E+03  0.98492353267E+03  0.17300000000E+03 0.  1.
</event>
<event>
 4    1  0.5876320E+000  0.1000000E+03  0.7546771E-02  0.1280296E+00
         21   -1    0    0  501  502  0.00000000000E+00  0.00000000000E+00  0.49321677512E+02  0.49321677512E+02  0.00000000000E+00 0.  1.
         21   -1    0    0  502  503 -0.00000000000E+00 -0.00000000000E+00 -0.95355646716E+03  0.95355646716E+03  0.00000000000E+00 0.  1.
          6    1    1    2  501    0  0.72517067701E+02 -0.65377749929E+01 -0.20094209558E+03  0.27496944082E+03  0.17300000000E+03 0.  1.
         -6    1    1    2    0  503 -0.72517067701E+02  0.65377749929E+01 -0.70329269408E+03  0.72790870386E+03  0.17300000000E+03 0.  1.
</event>
<event>
 4    1  0.5876320E+000  0.1000000E+03  0.7546771E-02  0.1280296E+00
         21   -1    0    0  501  502  0.00000000000E+00  0.00000000000E+00  0.17243396951E+03  0.17243396951E+03  0.00000000000E+00 0.  1.
         21   -1    0    0  502  503 -0.00000000000E+00 -0.00000000000E+00 -0.18051259164E+03  0.18051259164E+03  0.00000000000E+00 0. -1.
          6    1    1    2  501    0 -0.23155111610E+02 -0.90235665545E+01 -0.28127124561E+02  0.17702462846E+03  0.17300000000E+03 0.  1.
         -6    1    1    2    0  503  0.23155111610E+02  0.90235665545E+01  0.20048502430E+02  0.17592193268E+03  0.17300000000E+03 0. -1.
</event>
<event>
 4    1  0.5876320E+000  0.1000000E+03  0.7546771E-02  0.1280296E+00
         21   -1    0    0  501  502  0.00000000000E+00  0.00000000000E+00  0.33259089481E+02  0.33259089481E+02  0.00000000000E+00 0.  1.
         21   -1    0    0  502  503 -0.00000000000E+00 -0.00000000000E+00 -0.21322225830E+04  0.21322225830E+04  0.00000000000E+00 0. -1.
          6    1    1    2  501    0  0.85476775403E+02  0.85212272955E+02 -0.38861438013E+03  0.44217366163E+03  0.17300000000E+03 0.  1.
         -6    1    1    2    0  503 -0.85476775403E+02 -0.85212272955E+02 -0.17103491134E+04  0.17233080108E+04  0.17300000000E+03 0. -1.
</event>
<event>
 4    1  0.5876320E+000  0.1000000E+03  0.7546771E-02  0.1280296E+00
         21   -1    0    0  501  502  0.00000000000E+00  0.00000000000E+00  0.34747864203E+03  0.34747864203E+03  0.00000000000E+00 0.  1.
         21   -1    0    0  502  503 -0.00000000000E+00 -0.00000000000E+00 -0.25686677566E+03  0.25686677566E+03  0.00000000000E+00 0. -1.
          6    1    1    2  501    0 -0.51899030207E+02 -0.40038571112E+02  0.28257299392E+03  0.33774708497E+03  0.17300000000E+03 0.  1.
         -6    1    1    2    0  503  0.51899030207E+02  0.40038571112E+02 -0.19196112755E+03  0.26659833271E+03  0.17300000000E+03 0. -1.
</event>
<event>
 4    1  0.5876320E+000  0.1000000E+03  0.7546771E-02  0.1280296E+00
         21   -1    0    0  501  502  0.00000000000E+00  0.00000000000E+00  0.51566606663E+03  0.51566606663E+03  0.00000000000E+00 0.  1.
         21   -1    0    0  502  503 -0.00000000000E+00 -0.00000000000E+00 -0.90367075457E+02  0.90367075457E+02  0.00000000000E+00 0.  1.
          6    1    1    2  501    0 -0.67482666642E+02  0.10740016190E+03  0.24649981583E+03  0.32677188416E+03  0.17300000000E+03 0. -1.
         -6    1    1    2    0  503  0.67482666642E+02 -0.10740016190E+03  0.17879917534E+03  0.27926125792E+03  0.17300000000E+03 0. -1.
</event>
<event>
 4    1  0.5876320E+000  0.1000000E+03  0.7546771E-02  0.1280296E+00
         21   -1    0    0  501  502  0.00000000000E+00  0.00000000000E+00  0.10844684556E+03  0.10844684556E+03  0.00000000000E+00 0.  1.
         21   -1    0    0  502  503 -0.00000000000E+00 -0.00000000000E+00 -0.37529216775E+03  0.37529216775E+03  0.00000000000E+00 0.  1.
          6    1    1    2  501    0  0.86316916578E+00  0.93357256002E+02 -0.79087536532E+02  0.21189658030E+03  0.17300000000E+03 0. -1.
         -6    1    1    2    0  503 -0.86316916578E+00 -0.93357256002E+02 -0.18775778566E+03  0.27184243301E+03  0.17300000000E+03 0. -1.
</event>
<event>
 4    1  0.5876320E+000  0.1000000E+03  0.7546771E-02  0.1280296E+00
         21   -1    0    0  501  502  0.00000000000E+00  0.00000000000E+00  0.74480326655E+03  0.74480326655E+03  0.00000000000E+00 0.  1.
         21   -1    0    0  502  503 -0.00000000000E+00 -0.00000000000E+00 -0.68890854267E+02  0.68890854267E+02  0.00000000000E+00 0.  1.
          6    1    1    2  501    0 -0.31607910296E+02  0.12104553468E+03  0.47391549562E+03  0.51978455003E+03  0.17300000000E+03 0. -1.
         -6    1    1    2    0  503  0.31607910296E+02 -0.12104553468E+03  0.20199691667E+03  0.29390957079E+03  0.17300000000E+03 0. -1.
</event>
<event>
 4    1  0.5876320E+000  0.1000000E+03  0.7546771E-02  0.1280296E+00
         21   -1    0    0  503  502  0.00000000000E+00  0.00000000000E+00  0.30230587163E+03  0.30230587163E+03  0.00000000000E+00 0. -1.
         21   -1    0    0  501  503 -0.00000000000E+00 -0.00000000000E+00 -0.43947147952E+03  0.43947147952E+03  0.00000000000E+00 0. -1.
          6    1    1    2  501    0  0.16473008520E+03 -0.16261625335E+03 -0.29461997495E+03  0.41268629304E+03  0.17300000000E+03 0.  1.
         -6    1    1    2    0  502 -0.16473008520E+03  0.16261625335E+03  0.15745436707E+03  0.32909105811E+03  0.17300000000E+03 0.  1.
</event>
<event>
 4    1  0.5876320E+000  0.1000000E+03  0.7546771E-02  0.1280296E+00
         21   -1    0    0  503  502  0.00000000000E+00  0.00000000000E+00  0.17244727773E+03  0.17244727773E+03  0.00000000000E+00 0.  1.
         21   -1    0    0  501  503 -0.00000000000E+00 -0.00000000000E+00 -0.21281638592E+03  0.21281638592E+03  0.00000000000E+00 0.  1.
          6    1    1    2  501    0 -0.29283721471E+02  0.19939296964E+02 -0.94862021205E+02  0.20045676585E+03  0.17300000000E+03 0.  1.
         -6    1    1    2    0  502  0.29283721471E+02 -0.19939296964E+02  0.54492913019E+02  0.18480689780E+03  0.17300000000E+03 0.  1.
</event>
<event>
 4    1  0.5876320E+000  0.1000000E+03  0.7546771E-02  0.1280296E+00
         21   -1    0    0  501  502  0.00000000000E+00  0.00000000000E+00  0.21031139398E+03  0.21031139398E+03  0.00000000000E+00 0.  1.
         21   -1    0    0  502  503 -0.00000000000E+00 -0.00000000000E+00 -0.17004026853E+03  0.17004026853E+03  0.00000000000E+00 0.  1.
          6    1    1    2  501    0  0.10287449724E+02 -0.68711475414E+02  0.52021374468E+02  0.19355185837E+03  0.17300000000E+03 0.  1.
         -6    1    1    2    0  503 -0.10287449724E+02  0.68711475414E+02 -0.11750249013E+02  0.18679980414E+03  0.17300000000E+03 0.  1.
</event>
<event>
 4    1  0.5876320E+000  0.1000000E+03  0.7546771E-02  0.1280296E+00
         21   -1    0    0  501  502  0.00000000000E+00  0.00000000000E+00  0.12767893621E+04  0.12767893621E+04  0.00000000000E+00 0.  1.
         21   -1    0    0  502  503 -0.00000000000E+00 -0.00000000000E+00 -0.62107850287E+02  0.62107850287E+02  0.00000000000E+00 0.  1.
          6    1    1    2  501    0  0.83895513467E+02  0.19648743614E+02  0.10942242432E+04  0.11111616555E+04  0.17300000000E+03 0.  1.
         -6    1    1    2    0  503 -0.83895513467E+02 -0.19648743614E+02  0.12045726865E+03  0.22773555690E+03  0.17300000000E+03 0.  1.
</event>
<event>
 4    1  0.5876320E+000  0.1000000E+03  0.7546771E-02  0.1280296E+00
         21   -1    0    0  501  502  0.00000000000E+00  0.00000000000E+00  0.59080623825E+02  0.59080623825E+02  0.00000000000E+00 0.  1.
         21   -1    0    0  502  503 -0.00000000000E+00 -0.00000000000E+00 -0.87283354177E+03  0.87283354177E+03  0.00000000000E+00 0.  1.
          6    1    1    2  501    0 -0.12670771714E+03 -0.34849799728E+02 -0.27124562489E+03  0.34752344258E+03  0.17300000000E+03 0.  1.
         -6    1    1    2    0  503  0.12670771714E+03  0.34849799728E+02 -0.54250729305E+03  0.58439072301E+03  0.17300000000E+03 0.  1.
</event>
<event>
 4    1  0.5876320E+000  0.1000000E+03  0.7546771E-02  0.1280296E+00
         21   -1    0    0  501  502  0.00000000000E+00  0.00000000000E+00  0.20840709543E+03  0.20840709543E+03  0.00000000000E+00 0.  1.
         21   -1    0    0  502  503 -0.00000000000E+00 -0.00000000000E+00 -0.16350136859E+03  0.16350136859E+03  0.00000000000E+00 0.  1.
          6    1    1    2  501    0 -0.51688352880E+02 -0.87315860135E+01  0.60117181599E+02  0.19050197359E+03  0.17300000000E+03 0.  1.
         -6    1    1    2    0  503  0.51688352880E+02  0.87315860135E+01 -0.15211454760E+02  0.18140649044E+03  0.17300000000E+03 0.  1.
</event>
<event>
 4    1  0.5876320E+000  0.1000000E+03  0.7546771E-02  0.1280296E+00
         21   -1    0    0  503  502  0.00000000000E+00  0.00000000000E+00  0.22983937100E+03  0.22983937100E+03  0.00000000000E+00 0. -1.
         21   -1    0    0  501  503 -0.00000000000E+00 -0.00000000000E+00 -0.12844400756E+04  0.12844400756E+04  0.00000000000E+00 0.  1.
          6    1    1    2  501    0  0.30548270732E+03  0.79037140996E+01 -0.11050631396E+04  0.11595152848E+04  0.17300000000E+03 0.  1.
         -6    1    1    2    0  502 -0.30548270732E+03 -0.79037140996E+01  0.50462434990E+02  0.35476416182E+03  0.17300000000E+03 0. -1.
</event>
<event>
 4    1  0.5876320E+000  0.1000000E+03  0.7546771E-02  0.1280296E+00
         21   -1    0    0  503  502  0.00000000000E+00  0.00000000000E+00  0.67284257945E+03  0.67284257945E+03  0.00000000000E+00 0. -1.
         21   -1    0    0  501  503 -0.00000000000E+00 -0.00000000000E+00 -0.74886117991E+03  0.74886117991E+03  0.00000000000E+00 0.  1.
          6    1    1    2  501    0 -0.13385062423E+03  0.50333351740E+02 -0.71238865309E+03  0.74691099132E+03  0.17300000000E+03 0. -1.
         -6    1    1    2    0  502  0.13385062423E+03 -0.50333351740E+02  0.63637005263E+03  0.67479276803E+03  0.17300000000E+03 0.  1.
</event>
<event>
 4    1  0.5876320E+000  0.1000000E+03  0.7546771E-02  0.1280296E+00
         21   -1    0    0  503  502  0.00000000000E+00  0.00000000000E+00  0.22071833323E+03  0.22071833323E+03  0.00000000000E+00 0. -1.
         21   -1    0    0  501  503 -0.00000000000E+00 -0.00000000000E+00 -0.22113571421E+03  0.22113571421E+03  0.00000000000E+00 0.  1.
          6    1    1    2  501    0  0.98331420839E+02  0.84094894975E+02 -0.46454646866E+02  0.22097070824E+03  0.17300000000E+03 0. -1.
         -6    1    1    2    0  502 -0.98331420839E+02 -0.84094894975E+02  0.46037265884E+02  0.22088333920E+03  0.17300000000E+03 0.  1.
</event>
<event>
 4    1  0.5876320E+000  0.1000000E+03  0.7546771E-02  0.1280296E+00
         21   -1    0    0  503  502  0.00000000000E+00  0.00000000000E+00  0.51255316905E+03  0.51255316905E+03  0.00000000000E+00 0. -1.
         21   -1    0    0  501  503 -0.00000000000E+00 -0.00000000000E+00 -0.95586148251E+02  0.95586148251E+02  0.00000000000E+00 0.  1.
          6    1    1    2  501    0 -0.11511009641E+03 -0.24172725320E+01  0.10379182688E+03  0.23228844317E+03  0.17300000000E+03 0. -1.
         -6    1    1    2    0  502  0.11511009641E+03  0.24172725320E+01  0.31317519391E+03  0.37585087413E+03  0.17300000000E+03 0.  1.
</event>
<event>
 4    1  0.5876320E+000  0.1000000E+03  0.7546771E-02  0.1280296E+00
         21   -1    0    0  501  502  0.00000000000E+00  0.00000000000E+00  0.45477209335E+03  0.45477209335E+03  0.00000000000E+00 0.  1.
         21   -1    0    0  502  503 -0.00000000000E+00 -0.00000000000E+00 -0.39164260387E+03  0.39164260387E+03  0.00000000000E+00 0. -1.
          6    1    1    2  501    0 -0.27768029463E+03  0.28752572726E+02  0.29734477669E+03  0.44303044217E+03  0.17300000000E+03 0.  1.
         -6    1    1    2    0  503  0.27768029463E+03 -0.28752572726E+02 -0.23421528721E+03  0.40338425505E+03  0.17300000000E+03 0. -1.
</event>
<event>
 4    1  0.5876320E+000  0.1000000E+03  0.7546771E-02  0.1280296E+00
         21   -1    0    0  501  502  0.00000000000E+00  0.00000000000E+00  0.25303650138E+02  0.25303650138E+02  0.00000000000E+00 0.  1.
         21   -1    0    0  502  503 -0.00000000000E+00 -0.00000000000E+00 -0.22972921819E+04  0.22972921819E+04  0.00000000000E+00 0. -1.
          6    1    1    2  501    0  0.60759976636E+02 -0.77536148139E+02 -0.48090948619E+03  0.52048685184E+03  0.17300000000E+03 0.  1.
         -6    1    1    2    0  503 -0.60759976636E+02  0.77536148139E+02 -0.17910790456E+04  0.18021089802E+04  0.17300000000E+03 0. -1.
</event>
<event>
 4    1  0.5876320E+000  0.1000000E+03  0.7546771E-02  0.1280296E+00
         21   -1    0    0  503  502  0.00000000000E+00  0.00000000000E+00  0.53930018750E+03  0.53930018750E+03  0.00000000000E+00 0.  1.
         21   -1    0    0  501  503 -0.00000000000E+00 -0.00000000000E+00 -0.15419212204E+03  0.15419212204E+03  0.00000000000E+00 0.  1.
          6    1    1    2  501    0  0.34372152898E+02  0.10150797464E+03 -0.53114447447E+02  0.21032227257E+03  0.17300000000E+03 0.  1.
         -6    1    1    2    0  502 -0.34372152898E+02 -0.10150797464E+03  0.43822251290E+03  0.48317003697E+03  0.17300000000E+03 0.  1.
</event>
<event>
 4    1  0.5876320E+000  0.1000000E+03  0.7546771E-02  0.1280296E+00
         21   -1    0    0  503  502  0.00000000000E+00  0.00000000000E+00  0.94859064038E+03  0.94859064038E+03  0.00000000000E+00 0.  1.
         21   -1    0    0  501  503 -0.00000000000E+00 -0.00000000000E+00 -0.95942769194E+02  0.95942769194E+02  0.00000000000E+00 0.  1.
          6    1    1    2  501    0 -0.23117220477E+02 -0.13918060444E+03  0.75032434471E+02  0.23550905027E+03  0.17300000000E+03 0.  1.
         -6    1    1    2    0  502  0.23117220477E+02  0.13918060444E+03  0.77761543672E+03  0.80902435931E+03  0.17300000000E+03 0.  1.
</event>
<event>
 4    1  0.5876320E+000  0.1000000E+03  0.7546771E-02  0.1280296E+00
         21   -1    0    0  503  502  0.00000000000E+00  0.00000000000E+00  0.26628595360E+03  0.26628595360E+03  0.00000000000E+00 0.  1.
         21   -1    0    0  501  503 -0.00000000000E+00 -0.00000000000E+00 -0.18278561978E+03  0.18278561978E+03  0.00000000000E+00 0.  1.
          6    1    1    2  501    0  0.43152743085E+02  0.82986099933E+02 -0.60001216340E+02  0.20561614231E+03  0.17300000000E+03 0.  1.
         -6    1    1    2    0  502 -0.43152743085E+02 -0.82986099933E+02  0.14350155016E+03  0.24345543107E+03  0.17300000000E+03 0.  1.
</event>
<event>
 4    1  0.5876320E+000  0.1000000E+03  0.7546771E-02  0.1280296E+00
         21   -1    0    0  503  502  0.00000000000E+00  0.00000000000E+00  0.20165463978E+02  0.20165463978E+02  0.00000000000E+00 0.  1.
         21   -1    0    0  501  503 -0.00000000000E+00 -0.00000000000E+00 -0.22895285741E+04  0.22895285741E+04  0.00000000000E+00 0.  1.
          6    1    1    2  501    0  0.38919708002E+02 -0.41607425032E+02 -0.17473518749E+04  0.17568191415E+04  0.17300000000E+03 0.  1.
         -6    1    1    2    0  502 -0.38919708002E+02  0.41607425032E+02 -0.52201123527E+03  0.55287489655E+03  0.17300000000E+03 0.  1.
</event>
<event>
 4    1  0.5876320E+000  0.1000000E+03  0.7546771E-02  0.1280296E+00
         21   -1    0    0  503  502  0.00000000000E+00  0.00000000000E+00  0.23417885647E+02  0.23417885647E+02  0.00000000000E+00 0.  1.
         21   -1    0    0  501  503 -0.00000000000E+00 -0.00000000000E+00 -0.14182958434E+04  0.14182958434E+04  0.00000000000E+00 0.  1.
          6    1    1    2  501    0  0.49499161780E+02 -0.16677172464E+02 -0.60415539217E+03  0.63060370518E+03  0.17300000000E+03 0.  1.
         -6    1    1    2    0  502 -0.49499161780E+02  0.16677172464E+02 -0.79072256561E+03  0.81111002389E+03  0.17300000000E+03 0.  1.
</event>
<event>
 4    1  0.5876320E+000  0.1000000E+03  0.7546771E-02  0.1280296E+00
         21   -1    0    0  503  502  0.00000000000E+00  0.00000000000E+00  0.44278853555E+03  0.44278853555E+03  0.00000000000E+00 0.  1.
         21   -1    0    0  501  503 -0.00000000000E+00 -0.00000000000E+00 -0.40891481259E+03  0.40891481259E+03  0.00000000000E+00 0.  1.
          6    1    1    2  501    0  0.62088872046E+02  0.25423617357E+03 -0.27076726031E+03  0.41440918093E+03  0.17300000000E+03 0.  1.
         -6    1    1    2    0  502 -0.62088872046E+02 -0.25423617357E+03  0.30464098327E+03  0.43729416721E+03  0.17300000000E+03 0.  1.
</event>
<event>
 4    1  0.5876320E+000  0.1000000E+03  0.7546771E-02  0.1280296E+00
         21   -1    0    0  501  502  0.00000000000E+00  0.00000000000E+00  0.35342373743E+03  0.35342373743E+03  0.00000000000E+00 0.  1.
         21   -1    0    0  502  503 -0.00000000000E+00 -0.00000000000E+00 -0.27229298509E+03  0.27229298509E+03  0.00000000000E+00 0. -1.
          6    1    1    2  501    0  0.27502678953E+02  0.34433615304E+02  0.29642531704E+03  0.34603329290E+03  0.17300000000E+03 0.  1.
         -6    1    1    2    0  503 -0.27502678953E+02 -0.34433615304E+02 -0.21529456470E+03  0.27968342962E+03  0.17300000000E+03 0. -1.
</event>
<event>
 4    1  0.5876320E+000  0.1000000E+03  0.7546771E-02  0.1280296E+00
         21   -1    0    0  501  502  0.00000000000E+00  0.00000000000E+00  0.60525254298E+03  0.60525254298E+03  0.00000000000E+00 0.  1.
         21   -1    0    0  502  503 -0.00000000000E+00 -0.00000000000E+00 -0.19400664230E+03  0.19400664230E+03  0.00000000000E+00 0. -1.
          6    1    1    2  501    0  0.10865133827E+02  0.28231303051E+02  0.54877547746E+03  0.57619318138E+03  0.17300000000E+03 0.  1.
         -6    1    1    2    0  503 -0.10865133827E+02 -0.28231303051E+02 -0.13752957679E+03  0.22306600390E+03  0.17300000000E+03 0. -1.
</event>
<event>
 4    1  0.5876320E+000  0.1000000E+03  0.7546771E-02  0.1280296E+00
         21   -1    0    0  503  502  0.00000000000E+00  0.00000000000E+00  0.12129316542E+03  0.12129316542E+03  0.00000000000E+00 0. -1.
         21   -1    0    0  501  503 -0.00000000000E+00 -0.00000000000E+00 -0.10759648535E+04  0.10759648535E+04  0.00000000000E+00 0.  1.
          6    1    1    2  501    0 -0.20440396253E+03  0.89939932652E+02 -0.85048188794E+03  0.89616885300E+03  0.17300000000E+03 0.  1.
         -6    1    1    2    0  502  0.20440396253E+03 -0.89939932652E+02 -0.10418980017E+03  0.30108916594E+03  0.17300000000E+03 0. -1.
</event>
<event>
 4    1  0.5876320E+000  0.1000000E+03  0.7546771E-02  0.1280296E+00
         21   -1    0    0  503  502  0.00000000000E+00  0.00000000000E+00  0.10951433202E+04  0.10951433202E+04  0.00000000000E+00 0.  1.
         21   -1    0    0  501  503 -0.00000000000E+00 -0.00000000000E+00 -0.41516739801E+02  0.41516739801E+02  0.00000000000E+00 0. -1.
          6    1    1    2  501    0  0.84089497414E+02 -0.40933306278E+02  0.30716551915E+03  0.36472761795E+03  0.17300000000E+03 0. -1.
         -6    1    1    2    0  502 -0.84089497414E+02  0.40933306278E+02  0.74646106128E+03  0.77193244209E+03  0.17300000000E+03 0.  1.
</event>
<event>
 4    1  0.5876320E+000  0.1000000E+03  0.7546771E-02  0.1280296E+00
         21   -1    0    0  503  502  0.00000000000E+00  0.00000000000E+00  0.82460797427E+03  0.82460797427E+03  0.00000000000E+00 0.  1.
         21   -1    0    0  501  503 -0.00000000000E+00 -0.00000000000E+00 -0.45980482901E+02  0.45980482901E+02  0.00000000000E+00 0. -1.
          6    1    1    2  501    0 -0.39046234184E+02  0.79557307997E+02  0.41508488189E+03  0.45834313874E+03  0.17300000000E+03 0. -1.
         -6    1    1    2    0  502  0.39046234184E+02 -0.79557307997E+02  0.36354260948E+03  0.41224531843E+03  0.17300000000E+03 0.  1.
</event>
<event>
 4    1  0.5876320E+000  0.1000000E+03  0.7546771E-02  0.1280296E+00
         21   -1    0    0  503  502  0.00000000000E+00  0.00000000000E+00  0.12543234861E+03  0.12543234861E+03  0.00000000000E+00 0.  1.
         21   -1    0    0  501  503 -0.00000000000E+00 -0.00000000000E+00 -0.30218461612E+03  0.30218461612E+03  0.00000000000E+00 0. -1.
          6    1    1    2  501    0 -0.58606081302E+02 -0.43357691478E+02 -0.14501808150E+03  0.23722100695E+03  0.17300000000E+03 0. -1.
         -6    1    1    2    0  502  0.58606081302E+02  0.43357691478E+02 -0.31734186007E+02  0.19039595778E+03  0.17300000000E+03 0.  1.
</event>
<event>
 4    1  0.5876320E+000  0.1000000E+03  0.7546771E-02  0.1280296E+00
         21   -1    0    0  503  502  0.00000000000E+00  0.00000000000E+00  0.16982425380E+03  0.16982425380E+03  0.00000000000E+00 0. -1.
         21   -1    0    0  501  503 -0.00000000000E+00 -0.00000000000E+00 -0.43578406569E+03  0.43578406569E+03  0.00000000000E+00 0. -1.
          6    1    1    2  501    0 -0.22262057935E+02  0.19926581516E+03 -0.20227070633E+03  0.33323400630E+03  0.17300000000E+03 0. -1.
         -6    1    1    2    0  502  0.22262057935E+02 -0.19926581516E+03 -0.63689105561E+02  0.27237431319E+03  0.17300000000E+03 0. -1.
</event>
<event>
 4    1  0.5876320E+000  0.1000000E+03  0.7546771E-02  0.1280296E+00
         21   -1    0    0  503  502  0.00000000000E+00  0.00000000000E+00  0.19197088778E+03  0.19197088778E+03  0.00000000000E+00 0. -1.
         21   -1    0    0  501  503 -0.00000000000E+00 -0.00000000000E+00 -0.46308368131E+03  0.46308368131E+03  0.00000000000E+00 0. -1.
          6    1    1    2  501    0  0.88555165186E+02 -0.14385829243E+02 -0.38343947693E+03  0.43012068287E+03  0.17300000000E+03 0. -1.
         -6    1    1    2    0  502 -0.88555165186E+02  0.14385829243E+02  0.11232668341E+03  0.22493388622E+03  0.17300000000E+03 0. -1.
</event>
<event>
 4    1  0.5876320E+000  0.1000000E+03  0.7546771E-02  0.1280296E+00
         21   -1    0    0  503  502  0.00000000000E+00  0.00000000000E+00  0.44065770187E+03  0.44065770187E+03  0.00000000000E+00 0. -1.
         21   -1    0    0  501  503 -0.00000000000E+00 -0.00000000000E+00 -0.17742192934E+03  0.17742192934E+03  0.00000000000E+00 0. -1.
          6    1    1    2  501    0 -0.18419852622E+03  0.11442431082E+02 -0.56711430959E-01  0.25296052954E+03  0.17300000000E+03 0. -1.
         -6    1    1    2    0  502  0.18419852622E+03 -0.11442431082E+02  0.26329248396E+03  0.36511910166E+03  0.17300000000E+03 0. -1.
</event>
<event>
 4    1  0.5876320E+000  0.1000000E+03  0.7546771E-02  0.1280296E+00
         21   -1    0    0  503  502  0.00000000000E+00  0.00000000000E+00  0.62461631606E+03  0.62461631606E+03  0.00000000000E+00 0.  1.
         21   -1    0    0  501  503 -0.00000000000E+00 -0.00000000000E+00 -0.51079703249E+03  0.51079703249E+03  0.00000000000E+00 0.  1.
          6    1    1    2  501    0 -0.26196429720E+03 -0.55726851086E+02 -0.41170442318E+03  0.52073055125E+03  0.17300000000E+03 0.  1.
         -6    1    1    2    0  502  0.26196429720E+03  0.55726851086E+02  0.52552370675E+03  0.61468279730E+03  0.17300000000E+03 0.  1.
</event>
<event>
 4    1  0.5876320E+000  0.1000000E+03  0.7546771E-02  0.1280296E+00
         21   -1    0    0  503  502  0.00000000000E+00  0.00000000000E+00  0.31616671942E+02  0.31616671942E+02  0.00000000000E+00 0.  1.
         21   -1    0    0  501  503 -0.00000000000E+00 -0.00000000000E+00 -0.11063865333E+04  0.11063865333E+04  0.00000000000E+00 0.  1.
          6    1    1    2  501    0 -0.39658785550E+02  0.39342949623E+02 -0.67105836272E+03  0.69524744741E+03  0.17300000000E+03 0.  1.
         -6    1    1    2    0  502  0.39658785550E+02 -0.39342949623E+02 -0.40371149861E+03  0.44275575780E+03  0.17300000000E+03 0.  1.
</event>
<event>
 4    1  0.5876320E+000  0.1000000E+03  0.7546771E-02  0.1280296E+00
         21   -1    0    0  503  502  0.00000000000E+00  0.00000000000E+00  0.42489947602E+02  0.42489947602E+02  0.00000000000E+00 0. -1.
         21   -1    0    0  501  503 -0.00000000000E+00 -0.00000000000E+00 -0.11572336638E+04  0.11572336638E+04  0.00000000000E+00 0.  1.
          6    1    1    2  501    0 -0.12297246922E+03  0.26221742739E+01 -0.73085639424E+03  0.76105793012E+03  0.17300000000E+03 0. -1.
         -6    1    1    2    0  502  0.12297246922E+03 -0.26221742739E+01 -0.38388732198E+03  0.43866568131E+03  0.17300000000E+03 0.  1.
</event>
<event>
 4    1  0.5876320E+000  0.1000000E+03  0.7546771E-02  0.1280296E+00
         21   -1    0    0  503  502  0.00000000000E+00  0.00000000000E+00  0.21205685528E+03  0.21205685528E+03  0.00000000000E+00 0. -1.
         21   -1    0    0  501  503 -0.00000000000E+00 -0.00000000000E+00 -0.27160806753E+03  0.27160806753E+03  0.00000000000E+00 0.  1.
          6    1    1    2  501    0 -0.10733878717E+03  0.14262201698E+02 -0.15700661240E+03  0.25749777080E+03  0.17300000000E+03 0. -1.
         -6    1    1    2    0  502  0.10733878717E+03 -0.14262201698E+02  0.97455400156E+02  0.22616715201E+03  0.17300000000E+03 0.  1.
</event>
<event>
 4    1  0.5876320E+000  0.1000000E+03  0.7546771E-02  0.1280296E+00
         21   -1    0    0  501  502  0.00000000000E+00  0.00000000000E+00  0.32216255112E+03  0.32216255112E+03  0.00000000000E+00 0.  1.
         21   -1    0    0  502  503 -0.00000000000E+00 -0.00000000000E+00 -0.17742135789E+03  0.17742135789E+03  0.00000000000E+00 0.  1.
          6    1    1    2  501    0  0.91930451767E+02  0.87433132047E+02  0.18261557917E+03  0.28173251551E+03  0.17300000000E+03 0.  1.
         -6    1    1    2    0  503 -0.91930451767E+02 -0.87433132047E+02 -0.37874385935E+02  0.21785139350E+03  0.17300000000E+03 0.  1.
</event>
<event>
 4    1  0.5876320E+000  0.1000000E+03  0.7546771E-02  0.1280296E+00
         21   -1    0    0  503  502  0.00000000000E+00  0.00000000000E+00  0.24576184721E+03  0.24576184721E+03  0.00000000000E+00 0.  1.
         21   -1    0    0  501  503 -0.00000000000E+00 -0.00000000000E+00 -0.21475028317E+03  0.21475028317E+03  0.00000000000E+00 0.  1.
          6    1    1    2  501    0  0.92008711686E+02 -0.92061195318E+02 -0.61529739989E+02  0.22506837986E+03  0.17300000000E+03 0.  1.
         -6    1    1    2    0  502 -0.92008711686E+02  0.92061195318E+02  0.92541304021E+02  0.23544375052E+03  0.17300000000E+03 0.  1.
</event>
<event>
 4    1  0.5876320E+000  0.1000000E+03  0.7546771E-02  0.1280296E+00
         21   -1    0    0  503  502  0.00000000000E+00  0.00000000000E+00  0.39519694513E+03  0.39519694513E+03  0.00000000000E+00 0. -1.
         21   -1    0    0  501  503 -0.00000000000E+00 -0.00000000000E+00 -0.10412391827E+03  0.10412391827E+03  0.00000000000E+00 0.  1.
          6    1    1    2  501    0 -0.54453227933E+02 -0.73323053257E+02  0.21157403872E+03  0.28815620422E+03  0.17300000000E+03 0.  1.
         -6    1    1    2    0  502  0.54453227933E+02  0.73323053257E+02  0.79498988134E+02  0.21116465918E+03  0.17300000000E+03 0. -1.
</event>
<event>
 4    1  0.5876320E+000  0.1000000E+03  0.7546771E-02  0.1280296E+00
         21   -1    0    0  503  502  0.00000000000E+00  0.00000000000E+00  0.70367157030E+02  0.70367157030E+02  0.00000000000E+00 0. -1.
         21   -1    0    0  501  503 -0.00000000000E+00 -0.00000000000E+00 -0.55174877110E+03  0.55174877110E+03  0.00000000000E+00 0.  1.
          6    1    1    2  501    0  0.49978657406E+02  0.43604245719E+02 -0.34655210808E+03  0.39297144941E+03  0.17300000000E+03 0.  1.
         -6    1    1    2    0  502 -0.49978657406E+02 -0.43604245719E+02 -0.13482950599E+03  0.22914447872E+03  0.17300000000E+03 0. -1.
</event>
<event>
 4    1  0.5876320E+000  0.1000000E+03  0.7546771E-02  0.1280296E+00
         21   -1    0    0  501  502  0.00000000000E+00  0.00000000000E+00  0.40203831176E+03  0.40203831176E+03  0.00000000000E+00 0. -1.
         21   -1    0    0  502  503 -0.00000000000E+00 -0.00000000000E+00 -0.82693811863E+03  0.82693811863E+03  0.00000000000E+00 0. -1.
          6    1    1    2  501    0  0.33665509458E+03 -0.25757573863E+03  0.16108459705E+03  0.48534437387E+03  0.17300000000E+03 0. -1.
         -6    1    1    2    0  503 -0.33665509458E+03  0.25757573863E+03 -0.58598440393E+03  0.74363205652E+03  0.17300000000E+03 0. -1.
</event>
<event>
 4    1  0.5876320E+000  0.1000000E+03  0.7546771E-02  0.1280296E+00
         21   -1    0    0  501  502  0.00000000000E+00  0.00000000000E+00  0.13509107146E+03  0.13509107146E+03  0.00000000000E+00 0. -1.
         21   -1    0    0  502  503 -0.00000000000E+00 -0.00000000000E+00 -0.46990390199E+03  0.46990390199E+03  0.00000000000E+00 0. -1.
          6    1    1    2  501    0  0.80980454366E+02 -0.35108270050E+02  0.25292911643E+02  0.19585493610E+03  0.17300000000E+03 0. -1.
         -6    1    1    2    0  503 -0.80980454366E+02  0.35108270050E+02 -0.36010574218E+03  0.40914003735E+03  0.17300000000E+03 0. -1.
</event>
<event>
 4    1  0.5876320E+000  0.1000000E+03  0.7546771E-02  0.1280296E+00
         21   -1    0    0  501  502  0.00000000000E+00  0.00000000000E+00  0.15301318323E+03  0.15301318323E+03  0.00000000000E+00 0. -1.
         21   -1    0    0  502  503 -0.00000000000E+00 -0.00000000000E+00 -0.27073268397E+03  0.27073268397E+03  0.00000000000E+00 0. -1.
          6    1    1    2  501    0  0.10313099076E+03 -0.62492427917E+01 -0.29021385554E+02  0.20358363173E+03  0.17300000000E+03 0. -1.
         -6    1    1    2    0  503 -0.10313099076E+03  0.62492427917E+01 -0.88698115178E+02  0.22016223547E+03  0.17300000000E+03 0. -1.
</event>
<event>
 4    1  0.5876320E+000  0.1000000E+03  0.7546771E-02  0.1280296E+00
         21   -1    0    0  503  502  0.00000000000E+00  0.00000000000E+00  0.51325970534E+03  0.51325970534E+03  0.00000000000E+00 0.  1.
         21   -1    0    0  501  503 -0.00000000000E+00 -0.00000000000E+00 -0.10254756478E+03  0.10254756478E+03  0.00000000000E+00 0.  1.
          6    1    1    2  501    0 -0.21159754974E+01 -0.98663178518E+02  0.52535993669E+02  0.20598041358E+03  0.17300000000E+03 0.  1.
         -6    1    1    2    0  502  0.21159754974E+01  0.98663178518E+02  0.35817614688E+03  0.40982685654E+03  0.17300000000E+03 0.  1.
</event>
<event>
 4    1  0.5876320E+000  0.1000000E+03  0.7546771E-02  0.1280296E+00
         21   -1    0    0  503  502  0.00000000000E+00  0.00000000000E+00  0.47841621865E+03  0.47841621865E+03  0.00000000000E+00 0.  1.
         21   -1    0    0  501  503 -0.00000000000E+00 -0.00000000000E+00 -0.95074286329E+02  0.95074286329E+02  0.00000000000E+00 0.  1.
          6    1    1    2  501    0 -0.60914871508E+02 -0.71144630924E+02  0.80931739559E+02  0.21272312180E+03  0.17300000000E+03 0.  1.
         -6    1    1    2    0  502  0.60914871508E+02  0.71144630924E+02  0.30241019277E+03  0.36076738318E+03  0.17300000000E+03 0.  1.
</event>
<event>
 4    1  0.5876320E+000  0.1000000E+03  0.7546771E-02  0.1280296E+00
         21   -1    0    0  501  502  0.00000000000E+00  0.00000000000E+00  0.13868943032E+03  0.13868943032E+03  0.00000000000E+00 0. -1.
         21   -1    0    0  502  503 -0.00000000000E+00 -0.00000000000E+00 -0.35439594545E+03  0.35439594545E+03  0.00000000000E+00 0.  1.
          6    1    1    2  501    0 -0.97704738735E+02  0.41701421722E+02 -0.87820750373E+01  0.20320272977E+03  0.17300000000E+03 0. -1.
         -6    1    1    2    0  503  0.97704738735E+02 -0.41701421722E+02 -0.20692444010E+03  0.28988264600E+03  0.17300000000E+03 0.  1.
</event>
<event>
 4    1  0.5876320E+000  0.1000000E+03  0.7546771E-02  0.1280296E+00
         21   -1    0    0  501  502  0.00000000000E+00  0.00000000000E+00  0.17964433168E+04  0.17964433168E+04  0.00000000000E+00 0. -1.
         21   -1    0    0  502  503 -0.00000000000E+00 -0.00000000000E+00 -0.33960877449E+02  0.33960877449E+02  0.00000000000E+00 0.  1.
          6    1    1    2  501    0 -0.39084626247E+02 -0.97248177344E+02  0.14064893736E+04  0.14209595962E+04  0.17300000000E+03 0. -1.
         -6    1    1    2    0  503  0.39084626247E+02  0.97248177344E+02  0.35599306578E+03  0.40944459807E+03  0.17300000000E+03 0.  1.
</event>
<event>
 4    1  0.5876320E+000  0.1000000E+03  0.7546771E-02  0.1280296E+00
         21   -1    0    0  503  502  0.00000000000E+00  0.00000000000E+00  0.20212628466E+03  0.20212628466E+03  0.00000000000E+00 0.  1.
         21   -1    0    0  501  503 -0.00000000000E+00 -0.00000000000E+00 -0.21429972113E+03  0.21429972113E+03  0.00000000000E+00 0.  1.
          6    1    1    2  501    0  0.46708544686E+01  0.98227729435E+02 -0.67072627524E+02  0.20999581204E+03  0.17300000000E+03 0.  1.
         -6    1    1    2    0  502 -0.46708544686E+01 -0.98227729435E+02  0.54899191053E+02  0.20643019375E+03  0.17300000000E+03 0.  1.
</event>
<event>
 4    1  0.5876320E+000  0.1000000E+03  0.7546771E-02  0.1280296E+00
         21   -1    0    0  503  502  0.00000000000E+00  0.00000000000E+00  0.20596034745E+03  0.20596034745E+03  0.00000000000E+00 0.  1.
         21   -1    0    0  501  503 -0.00000000000E+00 -0.00000000000E+00 -0.22499478677E+03  0.22499478677E+03  0.00000000000E+00 0.  1.
          6    1    1    2  501    0 -0.11962371860E+03  0.42557538744E+02  0.75295746767E+01  0.21472464379E+03  0.17300000000E+03 0.  1.
         -6    1    1    2    0  502  0.11962371860E+03 -0.42557538744E+02 -0.26564013998E+02  0.21623049044E+03  0.17300000000E+03 0.  1.
</event>
<event>
 4    1  0.5876320E+000  0.1000000E+03  0.7546771E-02  0.1280296E+00
         21   -1    0    0  503  502  0.00000000000E+00  0.00000000000E+00  0.84414230418E+02  0.84414230418E+02  0.00000000000E+00 0.  1.
         21   -1    0    0  501  503 -0.00000000000E+00 -0.00000000000E+00 -0.12234097534E+04  0.12234097534E+04  0.00000000000E+00 0.  1.
          6    1    1    2  501    0 -0.62518369157E+01  0.25884108133E+03 -0.73108844740E+03  0.79464275544E+03  0.17300000000E+03 0.  1.
         -6    1    1    2    0  502  0.62518369157E+01 -0.25884108133E+03 -0.40790707559E+03  0.51318122839E+03  0.17300000000E+03 0.  1.
</event>
<event>
 4    1  0.5876320E+000  0.1000000E+03  0.7546771E-02  0.1280296E+00
         21   -1    0    0  503  502  0.00000000000E+00  0.00000000000E+00  0.40824127369E+03  0.40824127369E+03  0.00000000000E+00 0.  1.
         21   -1    0    0  501  503 -0.00000000000E+00 -0.00000000000E+00 -0.14745592770E+03  0.14745592770E+03  0.00000000000E+00 0.  1.
          6    1    1    2  501    0  0.12949394503E+03  0.10550154359E+02 -0.64203852241E+00  0.21635480066E+03  0.17300000000E+03 0.  1.
         -6    1    1    2    0  502 -0.12949394503E+03 -0.10550154359E+02  0.26142738452E+03  0.33934240073E+03  0.17300000000E+03 0.  1.
</event>
<event>
 4    1  0.5876320E+000  0.1000000E+03  0.7546771E-02  0.1280296E+00
         21   -1    0    0  503  502  0.00000000000E+00  0.00000000000E+00  0.12532633053E+03  0.12532633053E+03  0.00000000000E+00 0.  1.
         21   -1    0    0  501  503 -0.00000000000E+00 -0.00000000000E+00 -0.17164209269E+04  0.17164209269E+04  0.00000000000E+00 0.  1.
          6    1    1    2  501    0  0.10746969864E+03  0.30632398558E+03 -0.23467062924E+03  0.43632949075E+03  0.17300000000E+03 0.  1.
         -6    1    1    2    0  502 -0.10746969864E+03 -0.30632398558E+03 -0.13564239671E+04  0.14054177666E+04  0.17300000000E+03 0.  1.
</event>
<event>
 4    1  0.5876320E+000  0.1000000E+03  0.7546771E-02  0.1280296E+00
         21   -1    0    0  503  502  0.00000000000E+00  0.00000000000E+00  0.96263579162E+02  0.96263579162E+02  0.00000000000E+00 0.  1.
         21   -1    0    0  501  503 -0.00000000000E+00 -0.00000000000E+00 -0.49951247406E+03  0.49951247406E+03  0.00000000000E+00 0. -1.
          6    1    1    2  501    0  0.13080176246E+03 -0.30173816759E+02 -0.21748411602E+03  0.30862258667E+03  0.17300000000E+03 0. -1.
         -6    1    1    2    0  502 -0.13080176246E+03  0.30173816759E+02 -0.18576477888E+03  0.28715346655E+03  0.17300000000E+03 0.  1.
</event>
<event>
 4    1  0.5876320E+000  0.1000000E+03  0.7546771E-02  0.1280296E+00
         21   -1    0    0  503  502  0.00000000000E+00  0.00000000000E+00  0.14324226177E+03  0.14324226177E+03  0.00000000000E+00 0.  1.
         21   -1    0    0  501  503 -0.00000000000E+00 -0.00000000000E+00 -0.36462205202E+03  0.36462205202E+03  0.00000000000E+00 0. -1.
          6    1    1    2  501    0  0.24591356547E+02  0.14247635346E+03 -0.15220534861E+03  0.27202888497E+03  0.17300000000E+03 0. -1.
         -6    1    1    2    0  502 -0.24591356547E+02 -0.14247635346E+03 -0.69174441632E+02  0.23583542882E+03  0.17300000000E+03 0.  1.
</event>
<event>
 4    1  0.5876320E+000  0.1000000E+03  0.7546771E-02  0.1280296E+00
         21   -1    0    0  501  502  0.00000000000E+00  0.00000000000E+00  0.37668965636E+03  0.37668965636E+03  0.00000000000E+00 0.  1.
         21   -1    0    0  502  503 -0.00000000000E+00 -0.00000000000E+00 -0.12843815846E+03  0.12843815846E+03  0.00000000000E+00 0. -1.
          6    1    1    2  501    0  0.39870414169E+02  0.98126500529E+01  0.27280561399E+03  0.32563452067E+03  0.17300000000E+03 0.  1.
         -6    1    1    2    0  503 -0.39870414169E+02 -0.98126500529E+01 -0.24554116099E+02  0.17949329415E+03  0.17300000000E+03 0.  1.
</event>
<event>
 4    1  0.5876320E+000  0.1000000E+03  0.7546771E-02  0.1280296E+00
         21   -1    0    0  501  502  0.00000000000E+00  0.00000000000E+00  0.24109657171E+03  0.24109657171E+03  0.00000000000E+00 0.  1.
         21   -1    0    0  502  503 -0.00000000000E+00 -0.00000000000E+00 -0.28533398256E+03  0.28533398256E+03  0.00000000000E+00 0. -1.
          6    1    1    2  501    0  0.17286655061E+03  0.90161849572E+02  0.71746561179E+01  0.26075367520E+03  0.17300000000E+03 0.  1.
         -6    1    1    2    0  503 -0.17286655061E+03 -0.90161849572E+02 -0.51412066968E+02  0.26567687906E+03  0.17300000000E+03 0.  1.
</event>
<event>
 4    1  0.5876320E+000  0.1000000E+03  0.7546771E-02  0.1280296E+00
         21   -1    0    0  501  502  0.00000000000E+00  0.00000000000E+00  0.37228484864E+03  0.37228484864E+03  0.00000000000E+00 0.  1.
         21   -1    0    0  502  503 -0.00000000000E+00 -0.00000000000E+00 -0.74384510351E+03  0.74384510351E+03  0.00000000000E+00 0. -1.
          6    1    1    2  501    0 -0.19349556998E+03 -0.10341152309E+03  0.28712957128E+03  0.40063308577E+03  0.17300000000E+03 0.  1.
         -6    1    1    2    0  503  0.19349556998E+03  0.10341152309E+03 -0.65868982615E+03  0.71549686637E+03  0.17300000000E+03 0.  1.
</event>
<event>
 4    1  0.5876320E+000  0.1000000E+03  0.7546771E-02  0.1280296E+00
         21   -1    0    0  503  502  0.00000000000E+00  0.00000000000E+00  0.62209789567E+03  0.62209789567E+03  0.00000000000E+00 0.  1.
         21   -1    0    0  501  503 -0.00000000000E+00 -0.00000000000E+00 -0.12845903460E+03  0.12845903460E+03  0.00000000000E+00 0.  1.
          6    1    1    2  501    0  0.15957350870E+03  0.55138426727E+02  0.52251769953E+02  0.24731194521E+03  0.17300000000E+03 0.  1.
         -6    1    1    2    0  502 -0.15957350870E+03 -0.55138426727E+02  0.44138709112E+03  0.50324498506E+03  0.17300000000E+03 0.  1.
</event>
<event>
 4    1  0.5876320E+000  0.1000000E+03  0.7546771E-02  0.1280296E+00
         21   -1    0    0  503  502  0.00000000000E+00  0.00000000000E+00  0.63806589925E+03  0.63806589925E+03  0.00000000000E+00 0.  1.
         21   -1    0    0  501  503 -0.00000000000E+00 -0.00000000000E+00 -0.15711501783E+03  0.15711501783E+03  0.00000000000E+00 0.  1.
          6    1    1    2  501    0 -0.15846468592E+02 -0.22262110566E+03  0.60641553027E+02  0.28882116474E+03  0.17300000000E+03 0.  1.
         -6    1    1    2    0  502  0.15846468592E+02  0.22262110566E+03  0.42030932840E+03  0.50635975234E+03  0.17300000000E+03 0.  1.
</event>
<event>
 4    1  0.5876320E+000  0.1000000E+03  0.7546771E-02  0.1280296E+00
         21   -1    0    0  503  502  0.00000000000E+00  0.00000000000E+00  0.10017100308E+04  0.10017100308E+04  0.00000000000E+00 0.  1.
         21   -1    0    0  501  503 -0.00000000000E+00 -0.00000000000E+00 -0.52787132098E+02  0.52787132098E+02  0.00000000000E+00 0.  1.
          6    1    1    2  501    0  0.21043811139E+01  0.23585691699E+02  0.13138967975E+03  0.21852450942E+03  0.17300000000E+03 0.  1.
         -6    1    1    2    0  502 -0.21043811139E+01 -0.23585691699E+02  0.81753321895E+03  0.83597265348E+03  0.17300000000E+03 0.  1.
</event>
<event>
 4    1  0.5876320E+000  0.1000000E+03  0.7546771E-02  0.1280296E+00
         21   -1    0    0  501  502  0.00000000000E+00  0.00000000000E+00  0.42039740502E+03  0.42039740502E+03  0.00000000000E+00 0.  1.
         21   -1    0    0  502  503 -0.00000000000E+00 -0.00000000000E+00 -0.68513497065E+03  0.68513497065E+03  0.00000000000E+00 0.  1.
          6    1    1    2  501    0  0.18061812474E+03 -0.17700209305E+03  0.32145691503E+03  0.44409030180E+03  0.17300000000E+03 0.  1.
         -6    1    1    2    0  503 -0.18061812474E+03  0.17700209305E+03 -0.58619448066E+03  0.66144207387E+03  0.17300000000E+03 0.  1.
</event>
<event>
 4    1  0.5876320E+000  0.1000000E+03  0.7546771E-02  0.1280296E+00
         21   -1    0    0  501  502  0.00000000000E+00  0.00000000000E+00  0.82178713087E+03  0.82178713087E+03  0.00000000000E+00 0.  1.
         21   -1    0    0  502  503 -0.00000000000E+00 -0.00000000000E+00 -0.48580485541E+02  0.48580485541E+02  0.00000000000E+00 0.  1.
          6    1    1    2  501    0  0.34871347359E+02 -0.84100198568E+02  0.47653644793E+03  0.51507750919E+03  0.17300000000E+03 0.  1.
         -6    1    1    2    0  503 -0.34871347359E+02  0.84100198568E+02  0.29667019740E+03  0.35529010723E+03  0.17300000000E+03 0.  1.
</event>
<event>
 4    1  0.5876320E+000  0.1000000E+03  0.7546771E-02  0.1280296E+00
         21   -1    0    0  503  502  0.00000000000E+00  0.00000000000E+00  0.13020939570E+04  0.13020939570E+04  0.00000000000E+00 0.  1.
         21   -1    0    0  501  503 -0.00000000000E+00 -0.00000000000E+00 -0.45013798711E+02  0.45013798711E+02  0.00000000000E+00 0.  1.
          6    1    1    2  501    0  0.15065974511E+03 -0.65646104004E+02  0.51466179645E+03  0.56728611343E+03  0.17300000000E+03 0.  1.
         -6    1    1    2    0  502 -0.15065974511E+03  0.65646104004E+02  0.74241836180E+03  0.77982164224E+03  0.17300000000E+03 0.  1.
</event>
<event>
 4    1  0.5876320E+000  0.1000000E+03  0.7546771E-02  0.1280296E+00
         21   -1    0    0  503  502  0.00000000000E+00  0.00000000000E+00  0.13101086026E+04  0.13101086026E+04  0.00000000000E+00 0.  1.
         21   -1    0    0  501  503 -0.00000000000E+00 -0.00000000000E+00 -0.46570974960E+02  0.46570974960E+02  0.00000000000E+00 0.  1.
          6    1    1    2  501    0  0.12622017384E+03 -0.28361777975E+02  0.30281618634E+03  0.37197118900E+03  0.17300000000E+03 0.  1.
         -6    1    1    2    0  502 -0.12622017384E+03  0.28361777975E+02  0.96072144131E+03  0.98470838858E+03  0.17300000000E+03 0.  1.
</event>
<event>
 4    1  0.5876320E+000  0.1000000E+03  0.7546771E-02  0.1280296E+00
         21   -1    0    0  503  502  0.00000000000E+00  0.00000000000E+00  0.46577746713E+02  0.46577746713E+02  0.00000000000E+00 0. -1.
         21   -1    0    0  501  503 -0.00000000000E+00 -0.00000000000E+00 -0.68046724614E+03  0.68046724614E+03  0.00000000000E+00 0. -1.
          6    1    1    2  501    0  0.31225609330E+02  0.25510555472E+02 -0.34108813216E+03  0.38457241323E+03  0.17300000000E+03 0. -1.
         -6    1    1    2    0  502 -0.31225609330E+02 -0.25510555472E+02 -0.29280136727E+03  0.34247257962E+03  0.17300000000E+03 0. -1.
</event>
<event>
 4    1  0.5876320E+000  0.1000000E+03  0.7546771E-02  0.1280296E+00
         21   -1    0    0  503  502  0.00000000000E+00  0.00000000000E+00  0.39685401733E+03  0.39685401733E+03  0.00000000000E+00 0. -1.
         21   -1    0    0  501  503 -0.00000000000E+00 -0.00000000000E+00 -0.12083199166E+03  0.12083199166E+03  0.00000000000E+00 0. -1.
          6    1    1    2  501    0  0.17274659483E+02  0.13274793977E+03  0.15002084990E+03  0.26524646044E+03  0.17300000000E+03 0. -1.
         -6    1    1    2    0  502 -0.17274659483E+02 -0.13274793977E+03  0.12600117577E+03  0.25243954854E+03  0.17300000000E+03 0. -1.
</event>
<event>
 4    1  0.5876320E+000  0.1000000E+03  0.7546771E-02  0.1280296E+00
         21   -1    0    0  503  502  0.00000000000E+00  0.00000000000E+00  0.24379133785E+03  0.24379133785E+03  0.00000000000E+00 0. -1.
         21   -1    0    0  501  503 -0.00000000000E+00 -0.00000000000E+00 -0.39150038792E+03  0.39150038792E+03  0.00000000000E+00 0. -1.
          6    1    1    2  501    0  0.23712318649E+02  0.23517019445E+02 -0.33477680812E+03  0.37831182312E+03  0.17300000000E+03 0. -1.
         -6    1    1    2    0  502 -0.23712318649E+02 -0.23517019445E+02  0.18706775805E+03  0.25697990264E+03  0.17300000000E+03 0. -1.
</event>
<event>
 4    1  0.5876320E+000  0.1000000E+03  0.7546771E-02  0.1280296E+00
         21   -1    0    0  503  502  0.00000000000E+00  0.00000000000E+00  0.12955533637E+04  0.12955533637E+04  0.00000000000E+00 0. -1.
         21   -1    0    0  501  503 -0.00000000000E+00 -0.00000000000E+00 -0.40448782156E+02  0.40448782156E+02  0.00000000000E+00 0. -1.
          6    1    1    2  501    0  0.16264610809E+02 -0.91028604370E+02  0.28322150961E+03  0.34452019953E+03  0.17300000000E+03 0. -1.
         -6    1    1    2    0  502 -0.16264610809E+02  0.91028604370E+02  0.97188307193E+03  0.99148194633E+03  0.17300000000E+03 0. -1.
</event>
<event>
 4    1  0.5876320E+000  0.1000000E+03  0.7546771E-02  0.1280296E+00
         21   -1    0    0  503  502  0.00000000000E+00  0.00000000000E+00  0.17424595786E+03  0.17424595786E+03  0.00000000000E+00 0. -1.
         21   -1    0    0  501  503 -0.00000000000E+00 -0.00000000000E+00 -0.42140851620E+03  0.42140851620E+03  0.00000000000E+00 0. -1.
          6    1    1    2  501    0 -0.12394967491E+03  0.89452000022E+02 -0.27953737276E+03  0.36254010121E+03  0.17300000000E+03 0. -1.
         -6    1    1    2    0  502  0.12394967491E+03 -0.89452000022E+02  0.32374814422E+02  0.23311437284E+03  0.17300000000E+03 0. -1.
</event>
<event>
 4    1  0.5876320E+000  0.1000000E+03  0.7546771E-02  0.1280296E+00
         21   -1    0    0  503  502  0.00000000000E+00  0.00000000000E+00  0.23439340516E+03  0.23439340516E+03  0.00000000000E+00 0.  1.
         21   -1    0    0  501  503 -0.00000000000E+00 -0.00000000000E+00 -0.44558666149E+03  0.44558666149E+03  0.00000000000E+00 0.  1.
          6    1    1    2  501    0  0.93861967958E+02 -0.19513745489E+03 -0.28045144377E+03  0.39429773984E+03  0.17300000000E+03 0.  1.
         -6    1    1    2    0  502 -0.93861967958E+02  0.19513745489E+03  0.69258187433E+02  0.28568232682E+03  0.17300000000E+03 0.  1.
</event>
<event>
 4    1  0.5876320E+000  0.1000000E+03  0.7546771E-02  0.1280296E+00
         21   -1    0    0  503  502  0.00000000000E+00  0.00000000000E+00  0.84611413707E+02  0.84611413707E+02  0.00000000000E+00 0.  1.
         21   -1    0    0  501  503 -0.00000000000E+00 -0.00000000000E+00 -0.39748616783E+03  0.39748616783E+03  0.00000000000E+00 0.  1.
          6    1    1    2  501    0 -0.30272176375E+02 -0.22047194075E+02 -0.21947931589E+03  0.28196214911E+03  0.17300000000E+03 0.  1.
         -6    1    1    2    0  502  0.30272176375E+02  0.22047194075E+02 -0.93395438234E+02  0.20013543243E+03  0.17300000000E+03 0.  1.
</event>
<event>
 4    1  0.5876320E+000  0.1000000E+03  0.7546771E-02  0.1280296E+00
         21   -1    0    0  503  502  0.00000000000E+00  0.00000000000E+00  0.17316892553E+03  0.17316892553E+03  0.00000000000E+00 0.  1.
         21   -1    0    0  501  503 -0.00000000000E+00 -0.00000000000E+00 -0.22057742106E+03  0.22057742106E+03  0.00000000000E+00 0.  1.
          6    1    1    2  501    0  0.74461965140E+02 -0.29523308377E+02 -0.67053845966E+02  0.20209262295E+03  0.17300000000E+03 0.  1.
         -6    1    1    2    0  502 -0.74461965140E+02  0.29523308377E+02  0.19645350437E+02  0.19165372364E+03  0.17300000000E+03 0.  1.
</event>
<event>
 4    1  0.5876320E+000  0.1000000E+03  0.7546771E-02  0.1280296E+00
         21   -1    0    0  503  502  0.00000000000E+00  0.00000000000E+00  0.97522603770E+02  0.97522603770E+02  0.00000000000E+00 0.  1.
         21   -1    0    0  501  503 -0.00000000000E+00 -0.00000000000E+00 -0.73241613967E+03  0.73241613967E+03  0.00000000000E+00 0.  1.
          6    1    1    2  501    0  0.60209457043E+02 -0.65307570237E+01 -0.61944495509E+03  0.64599449060E+03  0.17300000000E+03 0. -1.
         -6    1    1    2    0  502 -0.60209457043E+02  0.65307570237E+01 -0.15448580817E+02  0.18394425284E+03  0.17300000000E+03 0. -1.
</event>
<event>
 4    1  0.5876320E+000  0.1000000E+03  0.7546771E-02  0.1280296E+00
         21   -1    0    0  503  502  0.00000000000E+00  0.00000000000E+00  0.54554919131E+03  0.54554919131E+03  0.00000000000E+00 0.  1.
         21   -1    0    0  501  503 -0.00000000000E+00 -0.00000000000E+00 -0.19859581511E+03  0.19859581511E+03  0.00000000000E+00 0.  1.
          6    1    1    2  501    0  0.13505832635E+03 -0.24293144093E+03  0.21194874799E+03  0.39000988228E+03  0.17300000000E+03 0. -1.
         -6    1    1    2    0  502 -0.13505832635E+03  0.24293144093E+03  0.13500462821E+03  0.35413512413E+03  0.17300000000E+03 0. -1.
</event>
<event>
 4    1  0.5876320E+000  0.1000000E+03  0.7546771E-02  0.1280296E+00
         21   -1    0    0  503  502  0.00000000000E+00  0.00000000000E+00  0.20584349619E+03  0.20584349619E+03  0.00000000000E+00 0. -1.
         21   -1    0    0  501  503 -0.00000000000E+00 -0.00000000000E+00 -0.26275260419E+03  0.26275260419E+03  0.00000000000E+00 0. -1.
          6    1    1    2  501    0 -0.36023970863E+02 -0.14866662942E+03 -0.72803176456E+00  0.23093077580E+03  0.17300000000E+03 0. -1.
         -6    1    1    2    0  502  0.36023970863E+02  0.14866662942E+03 -0.56181076233E+02  0.23766532458E+03  0.17300000000E+03 0. -1.
</event>
<event>
 4    1  0.5876320E+000  0.1000000E+03  0.7546771E-02  0.1280296E+00
         21   -1    0    0  503  502  0.00000000000E+00  0.00000000000E+00  0.82961007487E+02  0.82961007487E+02  0.00000000000E+00 0. -1.
         21   -1    0    0  501  503 -0.00000000000E+00 -0.00000000000E+00 -0.72818436478E+03  0.72818436478E+03  0.00000000000E+00 0. -1.
          6    1    1    2  501    0 -0.12040655415E+03  0.10281394206E+03 -0.20120330962E+03  0.30899873263E+03  0.17300000000E+03 0.  1.
         -6    1    1    2    0  502  0.12040655415E+03 -0.10281394206E+03 -0.44402004767E+03  0.50214663964E+03  0.17300000000E+03 0.  1.
</event>
<event>
 4    1  0.5876320E+000  0.1000000E+03  0.7546771E-02  0.1280296E+00
         21   -1    0    0  501  502  0.00000000000E+00  0.00000000000E+00  0.97441494630E+02  0.97441494630E+02  0.00000000000E+00 0. -1.
         21   -1    0    0  502  503 -0.00000000000E+00 -0.00000000000E+00 -0.43254078031E+03  0.43254078031E+03  0.00000000000E+00 0. -1.
          6    1    1    2  501    0  0.16565367900E+02 -0.18948742010E+02 -0.28620612064E+02  0.17714854127E+03  0.17300000000E+03 0. -1.
         -6    1    1    2    0  503 -0.16565367900E+02  0.18948742010E+02 -0.30647867361E+03  0.35283373367E+03  0.17300000000E+03 0. -1.
</event>
<event>
 4    1  0.5876320E+000  0.1000000E+03  0.7546771E-02  0.1280296E+00
         21   -1    0    0  503  502  0.00000000000E+00  0.00000000000E+00  0.43875765665E+03  0.43875765665E+03  0.00000000000E+00 0. -1.
         21   -1    0    0  501  503 -0.00000000000E+00 -0.00000000000E+00 -0.85023901095E+02  0.85023901095E+02  0.00000000000E+00 0.  1.
          6    1    1    2  501    0  0.55109947732E+02 -0.65859870150E+02  0.17838816182E+03  0.26291817189E+03  0.17300000000E+03 0.  1.
         -6    1    1    2    0  502 -0.55109947732E+02  0.65859870150E+02  0.17534559374E+03  0.26086338585E+03  0.17300000000E+03 0. -1.
</event>
<event>
 4    1  0.5876320E+000  0.1000000E+03  0.7546771E-02  0.1280296E+00
         21   -1    0    0  503  502  0.00000000000E+00  0.00000000000E+00  0.14887840830E+02  0.14887840830E+02  0.00000000000E+00 0. -1.
         21   -1    0    0  501  503 -0.00000000000E+00 -0.00000000000E+00 -0.24059920149E+04  0.24059920149E+04  0.00000000000E+00 0.  1.
          6    1    1    2  501    0 -0.48216048772E+02 -0.51600268021E+02 -0.13878084363E+04  0.14003316146E+04  0.17300000000E+03 0.  1.
         -6    1    1    2    0  502  0.48216048772E+02  0.51600268021E+02 -0.10032957378E+04  0.10205482411E+04  0.17300000000E+03 0. -1.
</event>
<event>
 4    1  0.5876320E+000  0.1000000E+03  0.7546771E-02  0.1280296E+00
         21   -1    0    0  503  502  0.00000000000E+00  0.00000000000E+00  0.12312924426E+03  0.12312924426E+03  0.00000000000E+00 0.  1.
         21   -1    0    0  501  503 -0.00000000000E+00 -0.00000000000E+00 -0.28136121603E+03  0.28136121603E+03  0.00000000000E+00 0.  1.
          6    1    1    2  501    0  0.97546641997E+01 -0.63018040781E+02 -0.51448098391E+02  0.19142187379E+03  0.17300000000E+03 0.  1.
         -6    1    1    2    0  502 -0.97546641997E+01  0.63018040781E+02 -0.10678387338E+03  0.21306858650E+03  0.17300000000E+03 0.  1.
</event>
<event>
 4    1  0.5876320E+000  0.1000000E+03  0.7546771E-02  0.1280296E+00
         21   -1    0    0  501  502  0.00000000000E+00  0.00000000000E+00  0.65006779182E+03  0.65006779182E+03  0.00000000000E+00 0.  1.
         21   -1    0    0  502  503 -0.00000000000E+00 -0.00000000000E+00 -0.38878348792E+03  0.38878348792E+03  0.00000000000E+00 0. -1.
          6    1    1    2  501    0  0.74435432304E+02  0.16645775201E+03  0.58048517657E+03  0.63256687947E+03  0.17300000000E+03 0. -1.
         -6    1    1    2    0  503 -0.74435432304E+02 -0.16645775201E+03 -0.31920087267E+03  0.40628440027E+03  0.17300000000E+03 0.  1.
</event>
<event>
 4    1  0.5876320E+000  0.1000000E+03  0.7546771E-02  0.1280296E+00
         21   -1    0    0  501  502  0.00000000000E+00  0.00000000000E+00  0.98531806505E+02  0.98531806505E+02  0.00000000000E+00 0. -1.
         21   -1    0    0  502  503 -0.00000000000E+00 -0.00000000000E+00 -0.46781644752E+03  0.46781644752E+03  0.00000000000E+00 0. -1.
          6    1    1    2  501    0  0.36050529639E+02 -0.23621370976E+02 -0.26873945986E+02  0.18030202114E+03  0.17300000000E+03 0. -1.
         -6    1    1    2    0  503 -0.36050529639E+02  0.23621370976E+02 -0.34241069503E+03  0.38604623288E+03  0.17300000000E+03 0. -1.
</event>
<event>
 4    1  0.5876320E+000  0.1000000E+03  0.7546771E-02  0.1280296E+00
         21   -1    0    0  501  502  0.00000000000E+00  0.00000000000E+00  0.46077266766E+03  0.46077266766E+03  0.00000000000E+00 0. -1.
         21   -1    0    0  502  503 -0.00000000000E+00 -0.00000000000E+00 -0.72133371093E+02  0.72133371093E+02  0.00000000000E+00 0. -1.
          6    1    1    2  501    0  0.24702219218E+02  0.14725296233E+02  0.26711893031E+03  0.31954429570E+03  0.17300000000E+03 0. -1.
         -6    1    1    2    0  503 -0.24702219218E+02 -0.14725296233E+02  0.12152036625E+03  0.21336174305E+03  0.17300000000E+03 0. -1.
</event>
<event>
 4    1  0.5876320E+000  0.1000000E+03  0.7546771E-02  0.1280296E+00
         21   -1    0    0  501  502  0.00000000000E+00  0.00000000000E+00  0.13863969190E+03  0.13863969190E+03  0.00000000000E+00 0.  1.
         21   -1    0    0  502  503 -0.00000000000E+00 -0.00000000000E+00 -0.41693888491E+03  0.41693888491E+03  0.00000000000E+00 0.  1.
          6    1    1    2  501    0 -0.13755793632E+03 -0.90488707442E+02 -0.17110424237E+03  0.29379593901E+03  0.17300000000E+03 0. -1.
         -6    1    1    2    0  503  0.13755793632E+03  0.90488707442E+02 -0.10719495064E+03  0.26178263781E+03  0.17300000000E+03 0. -1.
</event>
<event>
 4    1  0.5876320E+000  0.1000000E+03  0.7546771E-02  0.1280296E+00
         21   -1    0    0  501  502  0.00000000000E+00  0.00000000000E+00  0.15279372601E+03  0.15279372601E+03  0.00000000000E+00 0.  1.
         21   -1    0    0  502  503 -0.00000000000E+00 -0.00000000000E+00 -0.37380427106E+03  0.37380427106E+03  0.00000000000E+00 0.  1.
          6    1    1    2  501    0 -0.28063734264E+02  0.82580391429E+00  0.68496485959E+02  0.18817285596E+03  0.17300000000E+03 0. -1.
         -6    1    1    2    0  503  0.28063734264E+02 -0.82580391429E+00 -0.28950703100E+03  0.33842514111E+03  0.17300000000E+03 0. -1.
</event>
<event>
 4    1  0.5876320E+000  0.1000000E+03  0.7546771E-02  0.1280296E+00
         21   -1    0    0  501  502  0.00000000000E+00  0.00000000000E+00  0.97383558037E+03  0.97383558037E+03  0.00000000000E+00 0.  1.
         21   -1    0    0  502  503 -0.00000000000E+00 -0.00000000000E+00 -0.76553813535E+02  0.76553813535E+02  0.00000000000E+00 0.  1.
          6    1    1    2  501    0 -0.13084946020E+03 -0.12370518991E+03  0.66107558255E+03  0.70666433410E+03  0.17300000000E+03 0.  1.
         -6    1    1    2    0  503  0.13084946020E+03  0.12370518991E+03  0.23620618429E+03  0.34372505981E+03  0.17300000000E+03 0.  1.
</event>
<event>
 4    1  0.5876320E+000  0.1000000E+03  0.7546771E-02  0.1280296E+00
         21   -1    0    0  503  502  0.00000000000E+00  0.00000000000E+00  0.92574754924E+02  0.92574754924E+02  0.00000000000E+00 0.  1.
         21   -1    0    0  501  503 -0.00000000000E+00 -0.00000000000E+00 -0.63882277433E+03  0.63882277433E+03  0.00000000000E+00 0.  1.
          6    1    1    2  501    0 -0.96748377866E+02 -0.13214684979E+03 -0.34659182775E+03  0.42056858370E+03  0.17300000000E+03 0.  1.
         -6    1    1    2    0  502  0.96748377866E+02  0.13214684979E+03 -0.19965619165E+03  0.31082894555E+03  0.17300000000E+03 0.  1.
</event>
<event>
 4    1  0.5876320E+000  0.1000000E+03  0.7546771E-02  0.1280296E+00
         21   -1    0    0  503  502  0.00000000000E+00  0.00000000000E+00  0.72284567090E+02  0.72284567090E+02  0.00000000000E+00 0.  1.
         21   -1    0    0  501  503 -0.00000000000E+00 -0.00000000000E+00 -0.79008233600E+03  0.79008233600E+03  0.00000000000E+00 0.  1.
          6    1    1    2  501    0  0.49962759946E+02  0.94044744308E+02 -0.58598749323E+03  0.62020241336E+03  0.17300000000E+03 0.  1.
         -6    1    1    2    0  502 -0.49962759946E+02 -0.94044744308E+02 -0.13181027569E+03  0.24216448974E+03  0.17300000000E+03 0.  1.
</event>
<event>
 4    1  0.5876320E+000  0.1000000E+03  0.7546771E-02  0.1280296E+00
         21   -1    0    0  501  502  0.00000000000E+00  0.00000000000E+00  0.66438811374E+03  0.66438811374E+03  0.00000000000E+00 0.  1.
         21   -1    0    0  502  503 -0.00000000000E+00 -0.00000000000E+00 -0.48615584117E+02  0.48615584117E+02  0.00000000000E+00 0. -1.
          6    1    1    2  501    0  0.14676271098E+02 -0.40141411361E+01  0.39963068518E+03  0.43573523015E+03  0.17300000000E+03 0.  1.
         -6    1    1    2    0  503 -0.14676271098E+02  0.40141411361E+01  0.21614184445E+03  0.27726846771E+03  0.17300000000E+03 0. -1.
</event>
<event>
 4    1  0.5876320E+000  0.1000000E+03  0.7546771E-02  0.1280296E+00
         21   -1    0    0  501  502  0.00000000000E+00  0.00000000000E+00  0.12930212376E+04  0.12930212376E+04  0.00000000000E+00 0.  1.
         21   -1    0    0  502  503 -0.00000000000E+00 -0.00000000000E+00 -0.10880910383E+03  0.10880910383E+03  0.00000000000E+00 0. -1.
          6    1    1    2  501    0  0.39288239770E+02 -0.28004477446E+03  0.92002688927E+03  0.97793001716E+03  0.17300000000E+03 0.  1.
         -6    1    1    2    0  503 -0.39288239770E+02  0.28004477446E+03  0.26418524447E+03  0.42390032423E+03  0.17300000000E+03 0. -1.
</event>
<event>
 4    1  0.5876320E+000  0.1000000E+03  0.7546771E-02  0.1280296E+00
         21   -1    0    0  501  502  0.00000000000E+00  0.00000000000E+00  0.20644834234E+03  0.20644834234E+03  0.00000000000E+00 0.  1.
         21   -1    0    0  502  503 -0.00000000000E+00 -0.00000000000E+00 -0.64934995191E+03  0.64934995191E+03  0.00000000000E+00 0. -1.
          6    1    1    2  501    0  0.13240157741E+03 -0.60902356337E+02  0.11501785967E+03  0.25376639405E+03  0.17300000000E+03 0.  1.
         -6    1    1    2    0  503 -0.13240157741E+03  0.60902356337E+02 -0.55791946923E+03  0.60203190020E+03  0.17300000000E+03 0. -1.
</event>
<event>
 4    1  0.5876320E+000  0.1000000E+03  0.7546771E-02  0.1280296E+00
         21   -1    0    0  501  502  0.00000000000E+00  0.00000000000E+00  0.24997119816E+03  0.24997119816E+03  0.00000000000E+00 0. -1.
         21   -1    0    0  502  503 -0.00000000000E+00 -0.00000000000E+00 -0.31435612315E+03  0.31435612315E+03  0.00000000000E+00 0. -1.
          6    1    1    2  501    0  0.10294681951E+02  0.85239301719E+02  0.17231590063E+03  0.25883100402E+03  0.17300000000E+03 0. -1.
         -6    1    1    2    0  503 -0.10294681951E+02 -0.85239301719E+02 -0.23670082561E+03  0.30549631729E+03  0.17300000000E+03 0. -1.
</event>
<event>
 4    1  0.5876320E+000  0.1000000E+03  0.7546771E-02  0.1280296E+00
         21   -1    0    0  503  502  0.00000000000E+00  0.00000000000E+00  0.41470640885E+03  0.41470640885E+03  0.00000000000E+00 0.  1.
         21   -1    0    0  501  503 -0.00000000000E+00 -0.00000000000E+00 -0.25038729276E+03  0.25038729276E+03  0.00000000000E+00 0. -1.
          6    1    1    2  501    0 -0.17024421197E+03 -0.20222636734E+03  0.16649444647E+02  0.31636181717E+03  0.17300000000E+03 0. -1.
         -6    1    1    2    0  502  0.17024421197E+03  0.20222636734E+03  0.14766967145E+03  0.34873188444E+03  0.17300000000E+03 0.  1.
</event>
<event>
 4    1  0.5876320E+000  0.1000000E+03  0.7546771E-02  0.1280296E+00
         21   -1    0    0  503  502  0.00000000000E+00  0.00000000000E+00  0.19526987289E+03  0.19526987289E+03  0.00000000000E+00 0. -1.
         21   -1    0    0  501  503 -0.00000000000E+00 -0.00000000000E+00 -0.10983930252E+04  0.10983930252E+04  0.00000000000E+00 0. -1.
          6    1    1    2  501    0 -0.25800624186E+02 -0.22077424518E+03 -0.96501142564E+03  0.10052775692E+04  0.17300000000E+03 0. -1.
         -6    1    1    2    0  502  0.25800624186E+02  0.22077424518E+03  0.61888273323E+02  0.28838532889E+03  0.17300000000E+03 0. -1.
</event>
<event>
 4    1  0.5876320E+000  0.1000000E+03  0.7546771E-02  0.1280296E+00
         21   -1    0    0  503  502  0.00000000000E+00  0.00000000000E+00  0.24190008837E+03  0.24190008837E+03  0.00000000000E+00 0. -1.
         21   -1    0    0  501  503 -0.00000000000E+00 -0.00000000000E+00 -0.17128845795E+03  0.17128845795E+03  0.00000000000E+00 0. -1.
          6    1    1    2  501    0 -0.46182255734E+02 -0.13597636836E+02 -0.61979351893E+02  0.18996877779E+03  0.17300000000E+03 0. -1.
         -6    1    1    2    0  502  0.46182255734E+02  0.13597636836E+02  0.13259098232E+03  0.22321976853E+03  0.17300000000E+03 0. -1.
</event>
<event>
 4    1  0.5876320E+000  0.1000000E+03  0.7546771E-02  0.1280296E+00
         21   -1    0    0  503  502  0.00000000000E+00  0.00000000000E+00  0.12852318928E+04  0.12852318928E+04  0.00000000000E+00 0. -1.
         21   -1    0    0  501  503 -0.00000000000E+00 -0.00000000000E+00 -0.30768789304E+02  0.30768789304E+02  0.00000000000E+00 0. -1.
          6    1    1    2  501    0 -0.88450484459E+02 -0.94077754199E+01  0.76382170977E+03  0.78820339936E+03  0.17300000000E+03 0.  1.
         -6    1    1    2    0  502  0.88450484459E+02  0.94077754199E+01  0.49064139373E+03  0.52779728275E+03  0.17300000000E+03 0.  1.
</event>
<event>
 4    1  0.5876320E+000  0.1000000E+03  0.7546771E-02  0.1280296E+00
         21   -1    0    0  503  502  0.00000000000E+00  0.00000000000E+00  0.22383564047E+03  0.22383564047E+03  0.00000000000E+00 0. -1.
         21   -1    0    0  501  503 -0.00000000000E+00 -0.00000000000E+00 -0.20742736573E+03  0.20742736573E+03  0.00000000000E+00 0. -1.
          6    1    1    2  501    0  0.11056134862E+02  0.39018724582E+02 -0.11376911606E+03  0.21099078358E+03  0.17300000000E+03 0.  1.
         -6    1    1    2    0  502 -0.11056134862E+02 -0.39018724582E+02  0.13017739080E+03  0.22027222263E+03  0.17300000000E+03 0.  1.
</event>
<event>
 4    1  0.5876320E+000  0.1000000E+03  0.7546771E-02  0.1280296E+00
         21   -1    0    0  503  502  0.00000000000E+00  0.00000000000E+00  0.12288999669E+03  0.12288999669E+03  0.00000000000E+00 0. -1.
         21   -1    0    0  501  503 -0.00000000000E+00 -0.00000000000E+00 -0.28491435376E+03  0.28491435376E+03  0.00000000000E+00 0. -1.
          6    1    1    2  501    0 -0.69975178770E+02 -0.77451626617E+01 -0.93321954503E+02  0.20879296056E+03  0.17300000000E+03 0.  1.
         -6    1    1    2    0  502  0.69975178770E+02  0.77451626617E+01 -0.68702402567E+02  0.19901138989E+03  0.17300000000E+03 0.  1.
</event>
<event>
 4    1  0.5876320E+000  0.1000000E+03  0.7546771E-02  0.1280296E+00
         21   -1    0    0  501  502  0.00000000000E+00  0.00000000000E+00  0.32291271936E+03  0.32291271936E+03  0.00000000000E+00 0.  1.
         21   -1    0    0  502  503 -0.00000000000E+00 -0.00000000000E+00 -0.13996722983E+03  0.13996722983E+03  0.00000000000E+00 0. -1.
          6    1    1    2  501    0 -0.52277383149E+02  0.90606777150E+02  0.16307226401E+03  0.25973847644E+03  0.17300000000E+03 0.  1.
         -6    1    1    2    0  503  0.52277383149E+02 -0.90606777150E+02  0.19873225516E+02  0.20314147274E+03  0.17300000000E+03 0. -1.
</event>
<event>
 4    1  0.5876320E+000  0.1000000E+03  0.7546771E-02  0.1280296E+00
         21   -1    0    0  501  502  0.00000000000E+00  0.00000000000E+00  0.96863410555E+02  0.96863410555E+02  0.00000000000E+00 0.  1.
         21   -1    0    0  502  503 -0.00000000000E+00 -0.00000000000E+00 -0.83024311086E+03  0.83024311086E+03  0.00000000000E+00 0. -1.
          6    1    1    2  501    0  0.51446401309E+01 -0.14528067102E+03 -0.86609835971E+02  0.24199835616E+03  0.17300000000E+03 0.  1.
         -6    1    1    2    0  503 -0.51446401309E+01  0.14528067102E+03 -0.64676986433E+03  0.68510816526E+03  0.17300000000E+03 0. -1.
</event>
<event>
 4    1  0.5876320E+000  0.1000000E+03  0.7546771E-02  0.1280296E+00
         21   -1    0    0  501  502  0.00000000000E+00  0.00000000000E+00  0.38919768844E+03  0.38919768844E+03  0.00000000000E+00 0.  1.
         21   -1    0    0  502  503 -0.00000000000E+00 -0.00000000000E+00 -0.17222224922E+03  0.17222224922E+03  0.00000000000E+00 0. -1.
          6    1    1    2  501    0 -0.79698899527E+02 -0.13944187279E+03  0.22376282478E+03  0.32526105243E+03  0.17300000000E+03 0.  1.
         -6    1    1    2    0  503  0.79698899527E+02  0.13944187279E+03 -0.67873855589E+01  0.23615888523E+03  0.17300000000E+03 0. -1.
</event>
<event>
 4    1  0.5876320E+000  0.1000000E+03  0.7546771E-02  0.1280296E+00
         21   -1    0    0  503  502  0.00000000000E+00  0.00000000000E+00  0.11290326771E+04  0.11290326771E+04  0.00000000000E+00 0. -1.
         21   -1    0    0  501  503 -0.00000000000E+00 -0.00000000000E+00 -0.39665135804E+02  0.39665135804E+02  0.00000000000E+00 0. -1.
          6    1    1    2  501    0  0.83113358222E+02 -0.20027994187E+02  0.30482682948E+03  0.36077326236E+03  0.17300000000E+03 0. -1.
         -6    1    1    2    0  502 -0.83113358222E+02  0.20027994187E+02  0.78454071177E+03  0.80792455050E+03  0.17300000000E+03 0. -1.
</event>
<event>
 4    1  0.5876320E+000  0.1000000E+03  0.7546771E-02  0.1280296E+00
         21   -1    0    0  503  502  0.00000000000E+00  0.00000000000E+00  0.39249875780E+03  0.39249875780E+03  0.00000000000E+00 0. -1.
         21   -1    0    0  501  503 -0.00000000000E+00 -0.00000000000E+00 -0.85960482604E+03  0.85960482604E+03  0.00000000000E+00 0. -1.
          6    1    1    2  501    0 -0.53150782660E+03 -0.12574465620E+03 -0.13044026020E+03  0.58758484475E+03  0.17300000000E+03 0. -1.
         -6    1    1    2    0  502  0.53150782660E+03  0.12574465620E+03 -0.33666580803E+03  0.66451873909E+03  0.17300000000E+03 0. -1.
</event>
<event>
 4    1  0.5876320E+000  0.1000000E+03  0.7546771E-02  0.1280296E+00
         21   -1    0    0  503  502  0.00000000000E+00  0.00000000000E+00  0.11949105734E+03  0.11949105734E+03  0.00000000000E+00 0. -1.
         21   -1    0    0  501  503 -0.00000000000E+00 -0.00000000000E+00 -0.36566467256E+03  0.36566467256E+03  0.00000000000E+00 0. -1.
          6    1    1    2  501    0  0.35748180847E+02  0.10809767272E+03 -0.15594366225E+03  0.25924981210E+03  0.17300000000E+03 0. -1.
         -6    1    1    2    0  502 -0.35748180847E+02 -0.10809767272E+03 -0.90229952978E+02  0.22590591780E+03  0.17300000000E+03 0. -1.
</event>
<event>
 4    1  0.5876320E+000  0.1000000E+03  0.7546771E-02  0.1280296E+00
         21   -1    0    0  503  502  0.00000000000E+00  0.00000000000E+00  0.10625552791E+03  0.10625552791E+03  0.00000000000E+00 0.  1.
         21   -1    0    0  501  503 -0.00000000000E+00 -0.00000000000E+00 -0.30337396592E+03  0.30337396592E+03  0.00000000000E+00 0.  1.
          6    1    1    2  501    0 -0.46383155109E+02 -0.11085840636E+01 -0.11269434917E+03  0.21161673462E+03  0.17300000000E+03 0.  1.
         -6    1    1    2    0  502  0.46383155109E+02  0.11085840636E+01 -0.84424088841E+02  0.19801275922E+03  0.17300000000E+03 0.  1.
</event>
<event>
 4    1  0.5876320E+000  0.1000000E+03  0.7546771E-02  0.1280296E+00
         21   -1    0    0  503  502  0.00000000000E+00  0.00000000000E+00  0.18708412441E+03  0.18708412441E+03  0.00000000000E+00 0.  1.
         21   -1    0    0  501  503 -0.00000000000E+00 -0.00000000000E+00 -0.10516026312E+04  0.10516026312E+04  0.00000000000E+00 0.  1.
          6    1    1    2  501    0 -0.29236204084E+02 -0.39120506041E+03 -0.59093144377E+03  0.73008569781E+03  0.17300000000E+03 0.  1.
         -6    1    1    2    0  502  0.29236204084E+02  0.39120506041E+03 -0.27358706300E+03  0.50860105776E+03  0.17300000000E+03 0.  1.
</event>
<event>
 4    1  0.5876320E+000  0.1000000E+03  0.7546771E-02  0.1280296E+00
         21   -1    0    0  503  502  0.00000000000E+00  0.00000000000E+00  0.65134621459E+03  0.65134621459E+03  0.00000000000E+00 0. -1.
         21   -1    0    0  501  503 -0.00000000000E+00 -0.00000000000E+00 -0.50952838346E+02  0.50952838346E+02  0.00000000000E+00 0.  1.
          6    1    1    2  501    0  0.18203839281E+02  0.83735574926E+01  0.19716028896E+03  0.26306401459E+03  0.17300000000E+03 0.  1.
         -6    1    1    2    0  502 -0.18203839281E+02 -0.83735574926E+01  0.40323308728E+03  0.43923503834E+03  0.17300000000E+03 0. -1.
</event>
<event>
 4    1  0.5876320E+000  0.1000000E+03  0.7546771E-02  0.1280296E+00
         21   -1    0    0  503  502  0.00000000000E+00  0.00000000000E+00  0.22836367931E+03  0.22836367931E+03  0.00000000000E+00 0. -1.
         21   -1    0    0  501  503 -0.00000000000E+00 -0.00000000000E+00 -0.23310515981E+03  0.23310515981E+03  0.00000000000E+00 0.  1.
          6    1    1    2  501    0  0.83941278136E+02 -0.17657326045E+02 -0.12865421586E+03  0.23203195167E+03  0.17300000000E+03 0.  1.
         -6    1    1    2    0  502 -0.83941278136E+02  0.17657326045E+02  0.12391273536E+03  0.22943688745E+03  0.17300000000E+03 0. -1.
</event>
<event>
 4    1  0.5876320E+000  0.1000000E+03  0.7546771E-02  0.1280296E+00
         21   -1    0    0  503  502  0.00000000000E+00  0.00000000000E+00  0.73662654369E+03  0.73662654369E+03  0.00000000000E+00 0. -1.
         21   -1    0    0  501  503 -0.00000000000E+00 -0.00000000000E+00 -0.15072126697E+03  0.15072126697E+03  0.00000000000E+00 0.  1.
          6    1    1    2  501    0 -0.29114181080E+02  0.71992112448E+02 -0.71863426862E+02  0.20279016721E+03  0.17300000000E+03 0.  1.
         -6    1    1    2    0  502  0.29114181080E+02 -0.71992112448E+02  0.65776870358E+03  0.68455764345E+03  0.17300000000E+03 0. -1.
</event>
<event>
 4    1  0.5876320E+000  0.1000000E+03  0.7546771E-02  0.1280296E+00
         21   -1    0    0  501  502  0.00000000000E+00  0.00000000000E+00  0.17920242824E+04  0.17920242824E+04  0.00000000000E+00 0.  1.
         21   -1    0    0  502  503 -0.00000000000E+00 -0.00000000000E+00 -0.49691867870E+02  0.49691867870E+02  0.00000000000E+00 0. -1.
          6    1    1    2  501    0 -0.18077321007E+02 -0.58290223105E+02  0.15974649887E+04  0.16079639081E+04  0.17300000000E+03 0.  1.
         -6    1    1    2    0  503  0.18077321007E+02  0.58290223105E+02  0.14486742579E+03  0.23375224213E+03  0.17300000000E+03 0. -1.
</event>
<event>
 4    1  0.5876320E+000  0.1000000E+03  0.7546771E-02  0.1280296E+00
         21   -1    0    0  501  502  0.00000000000E+00  0.00000000000E+00  0.62237839134E+02  0.62237839134E+02  0.00000000000E+00 0.  1.
         21   -1    0    0  502  503 -0.00000000000E+00 -0.00000000000E+00 -0.59171809915E+03  0.59171809915E+03  0.00000000000E+00 0. -1.
          6    1    1    2  501    0 -0.62440947399E+02 -0.13061359170E+01 -0.17145201876E+03  0.25144656021E+03  0.17300000000E+03 0.  1.
         -6    1    1    2    0  503  0.62440947399E+02  0.13061359170E+01 -0.35802824126E+03  0.40250937808E+03  0.17300000000E+03 0. -1.
</event>
<event>
 4    1  0.5876320E+000  0.1000000E+03  0.7546771E-02  0.1280296E+00
         21   -1    0    0  503  502  0.00000000000E+00  0.00000000000E+00  0.13117225894E+03  0.13117225894E+03  0.00000000000E+00 0. -1.
         21   -1    0    0  501  503 -0.00000000000E+00 -0.00000000000E+00 -0.14728145234E+04  0.14728145234E+04  0.00000000000E+00 0.  1.
          6    1    1    2  501    0 -0.31983135879E+03  0.33869898963E+02 -0.11171078825E+04  0.11752864711E+04  0.17300000000E+03 0. -1.
         -6    1    1    2    0  502  0.31983135879E+03 -0.33869898963E+02 -0.22453438193E+03  0.42870031116E+03  0.17300000000E+03 0. -1.
</event>
<event>
 4    1  0.5876320E+000  0.1000000E+03  0.7546771E-02  0.1280296E+00
         21   -1    0    0  503  502  0.00000000000E+00  0.00000000000E+00  0.12970638239E+04  0.12970638239E+04  0.00000000000E+00 0. -1.
         21   -1    0    0  501  503 -0.00000000000E+00 -0.00000000000E+00 -0.48861617648E+02  0.48861617648E+02  0.00000000000E+00 0. -1.
          6    1    1    2  501    0 -0.87013611273E+02 -0.74068140210E+02  0.24238812254E+03  0.31896466872E+03  0.17300000000E+03 0. -1.
         -6    1    1    2    0  502  0.87013611273E+02  0.74068140210E+02  0.10058140837E+04  0.10269607728E+04  0.17300000000E+03 0. -1.
</event>
<event>
 4    1  0.5876320E+000  0.1000000E+03  0.7546771E-02  0.1280296E+00
         21   -1    0    0  503  502  0.00000000000E+00  0.00000000000E+00  0.21930014024E+03  0.21930014024E+03  0.00000000000E+00 0. -1.
         21   -1    0    0  501  503 -0.00000000000E+00 -0.00000000000E+00 -0.33709732587E+03  0.33709732587E+03  0.00000000000E+00 0. -1.
          6    1    1    2  501    0  0.11375292026E+02  0.91331552027E+02 -0.25175274863E+03  0.31902867600E+03  0.17300000000E+03 0. -1.
         -6    1    1    2    0  502 -0.11375292026E+02 -0.91331552027E+02  0.13395556300E+03  0.23736879012E+03  0.17300000000E+03 0. -1.
</event>
<event>
 4    1  0.5876320E+000  0.1000000E+03  0.7546771E-02  0.1280296E+00
         21   -1    0    0  501  502  0.00000000000E+00  0.00000000000E+00  0.49133461793E+02  0.49133461793E+02  0.00000000000E+00 0. -1.
         21   -1    0    0  502  503 -0.00000000000E+00 -0.00000000000E+00 -0.94847693031E+03  0.94847693031E+03  0.00000000000E+00 0.  1.
          6    1    1    2  501    0  0.70973124014E+02 -0.56438785976E+02 -0.23726493682E+03  0.30732095786E+03  0.17300000000E+03 0. -1.
         -6    1    1    2    0  503 -0.70973124014E+02  0.56438785976E+02 -0.66207853170E+03  0.69028943425E+03  0.17300000000E+03 0.  1.
</event>
<event>
 4    1  0.5876320E+000  0.1000000E+03  0.7546771E-02  0.1280296E+00
         21   -1    0    0  501  502  0.00000000000E+00  0.00000000000E+00  0.10879258245E+04  0.10879258245E+04  0.00000000000E+00 0. -1.
         21   -1    0    0  502  503 -0.00000000000E+00 -0.00000000000E+00 -0.73301811614E+02  0.73301811614E+02  0.00000000000E+00 0.  1.
          6    1    1    2  501    0 -0.10441067360E+03  0.35135956619E+02  0.90642534829E+03  0.92933956993E+03  0.17300000000E+03 0. -1.
         -6    1    1    2    0  503  0.10441067360E+03 -0.35135956619E+02  0.10819866456E+03  0.23188806615E+03  0.17300000000E+03 0.  1.
</event>
<event>
 4    1  0.5876320E+000  0.1000000E+03  0.7546771E-02  0.1280296E+00
         21   -1    0    0  501  502  0.00000000000E+00  0.00000000000E+00  0.30273702184E+03  0.30273702184E+03  0.00000000000E+00 0. -1.
         21   -1    0    0  502  503 -0.00000000000E+00 -0.00000000000E+00 -0.43798361394E+03  0.43798361394E+03  0.00000000000E+00 0.  1.
          6    1    1    2  501    0 -0.15184885836E+03 -0.16030852743E+03  0.16852737219E+03  0.32724207390E+03  0.17300000000E+03 0. -1.
         -6    1    1    2    0  503  0.15184885836E+03  0.16030852743E+03 -0.30377396429E+03  0.41347856188E+03  0.17300000000E+03 0.  1.
</event>
<event>
 4    1  0.5876320E+000  0.1000000E+03  0.7546771E-02  0.1280296E+00
         21   -1    0    0  501  502  0.00000000000E+00  0.00000000000E+00  0.92967428704E+03  0.92967428704E+03  0.00000000000E+00 0. -1.
         21   -1    0    0  502  503 -0.00000000000E+00 -0.00000000000E+00 -0.81095317408E+02  0.81095317408E+02  0.00000000000E+00 0.  1.
          6    1    1    2  501    0  0.14656959190E+03 -0.11389995395E+03  0.61739780652E+03  0.66750647657E+03  0.17300000000E+03 0.  1.
         -6    1    1    2    0  503 -0.14656959190E+03  0.11389995395E+03  0.23118116312E+03  0.34326312788E+03  0.17300000000E+03 0. -1.
</event>
<event>
 4    1  0.5876320E+000  0.1000000E+03  0.7546771E-02  0.1280296E+00
         21   -1    0    0  501  502  0.00000000000E+00  0.00000000000E+00  0.47479845899E+03  0.47479845899E+03  0.00000000000E+00 0. -1.
         21   -1    0    0  502  503 -0.00000000000E+00 -0.00000000000E+00 -0.19329110510E+03  0.19329110510E+03  0.00000000000E+00 0.  1.
          6    1    1    2  501    0  0.21228586444E+03 -0.97959877878E+02  0.23421330159E+03  0.37342508828E+03  0.17300000000E+03 0.  1.
         -6    1    1    2    0  503 -0.21228586444E+03  0.97959877878E+02  0.47294052294E+02  0.29466447580E+03  0.17300000000E+03 0. -1.
</event>
<event>
 4    1  0.5876320E+000  0.1000000E+03  0.7546771E-02  0.1280296E+00
         21   -1    0    0  501  502  0.00000000000E+00  0.00000000000E+00  0.35270897806E+03  0.35270897806E+03  0.00000000000E+00 0. -1.
         21   -1    0    0  502  503 -0.00000000000E+00 -0.00000000000E+00 -0.15864281351E+03  0.15864281351E+03  0.00000000000E+00 0.  1.
          6    1    1    2  501    0 -0.58259493301E+02  0.13168957964E+03  0.17564271957E+03  0.28550950752E+03  0.17300000000E+03 0.  1.
         -6    1    1    2    0  503  0.58259493301E+02 -0.13168957964E+03  0.18423444983E+02  0.22584228406E+03  0.17300000000E+03 0. -1.
</event>
<event>
 4    1  0.5876320E+000  0.1000000E+03  0.7546771E-02  0.1280296E+00
         21   -1    0    0  501  502  0.00000000000E+00  0.00000000000E+00  0.23529552690E+02  0.23529552690E+02  0.00000000000E+00 0. -1.
         21   -1    0    0  502  503 -0.00000000000E+00 -0.00000000000E+00 -0.17635305806E+04  0.17635305806E+04  0.00000000000E+00 0. -1.
          6    1    1    2  501    0 -0.90578640506E+02 -0.57073312643E+02 -0.82521757530E+03  0.84992640841E+03  0.17300000000E+03 0. -1.
         -6    1    1    2    0  503  0.90578640506E+02  0.57073312643E+02 -0.91478345259E+03  0.93713372485E+03  0.17300000000E+03 0. -1.
</event>
<event>
 4    1  0.5876320E+000  0.1000000E+03  0.7546771E-02  0.1280296E+00
         21   -1    0    0  501  502  0.00000000000E+00  0.00000000000E+00  0.23691163622E+03  0.23691163622E+03  0.00000000000E+00 0. -1.
         21   -1    0    0  502  503 -0.00000000000E+00 -0.00000000000E+00 -0.20538892496E+03  0.20538892496E+03  0.00000000000E+00 0. -1.
          6    1    1    2  501    0 -0.32556359234E+02  0.13013081373E+03 -0.11438626007E+02  0.21921174096E+03  0.17300000000E+03 0. -1.
         -6    1    1    2    0  503  0.32556359234E+02 -0.13013081373E+03  0.42961337270E+02  0.22308882023E+03  0.17300000000E+03 0. -1.
</event>
<event>
 4    1  0.5876320E+000  0.1000000E+03  0.7546771E-02  0.1280296E+00
         21   -1    0    0  501  502  0.00000000000E+00  0.00000000000E+00  0.34292283474E+02  0.34292283474E+02  0.00000000000E+00 0. -1.
         21   -1    0    0  502  503 -0.00000000000E+00 -0.00000000000E+00 -0.12677604318E+04  0.12677604318E+04  0.00000000000E+00 0. -1.
          6    1    1    2  501    0  0.11444987143E+03  0.21193264884E+01 -0.55108033566E+03  0.58883087637E+03  0.17300000000E+03 0. -1.
         -6    1    1    2    0  503 -0.11444987143E+03 -0.21193264884E+01 -0.68238781268E+03  0.71322183892E+03  0.17300000000E+03 0. -1.
</event>
<event>
 4    1  0.5876320E+000  0.1000000E+03  0.7546771E-02  0.1280296E+00
         21   -1    0    0  503  502  0.00000000000E+00  0.00000000000E+00  0.69972539014E+03  0.69972539014E+03  0.00000000000E+00 0.  1.
         21   -1    0    0  501  503 -0.00000000000E+00 -0.00000000000E+00 -0.66318553553E+02  0.66318553553E+02  0.00000000000E+00 0. -1.
          6    1    1    2  501    0 -0.69810934537E+00 -0.40496858765E+02  0.10013735096E+03  0.20395335737E+03  0.17300000000E+03 0.  1.
         -6    1    1    2    0  502  0.69810934537E+00  0.40496858765E+02  0.53326948563E+03  0.56209058632E+03  0.17300000000E+03 0.  1.
</event>
<event>
 4    1  0.5876320E+000  0.1000000E+03  0.7546771E-02  0.1280296E+00
         21   -1    0    0  503  502  0.00000000000E+00  0.00000000000E+00  0.16478227314E+04  0.16478227314E+04  0.00000000000E+00 0.  1.
         21   -1    0    0  501  503 -0.00000000000E+00 -0.00000000000E+00 -0.24251266553E+02  0.24251266553E+02  0.00000000000E+00 0. -1.
          6    1    1    2  501    0 -0.81445243517E+02  0.47138061132E+02  0.66827749816E+03  0.69669156666E+03  0.17300000000E+03 0.  1.
         -6    1    1    2    0  502  0.81445243517E+02 -0.47138061132E+02  0.95529396666E+03  0.97538243127E+03  0.17300000000E+03 0.  1.
</event>
<event>
 4    1  0.5876320E+000  0.1000000E+03  0.7546771E-02  0.1280296E+00
         21   -1    0    0  503  502  0.00000000000E+00  0.00000000000E+00  0.12235219954E+02  0.12235219954E+02  0.00000000000E+00 0.  1.
         21   -1    0    0  501  503 -0.00000000000E+00 -0.00000000000E+00 -0.27940005331E+04  0.27940005331E+04  0.00000000000E+00 0. -1.
          6    1    1    2  501    0  0.14116375992E+02  0.43330195852E+02 -0.10366025234E+04  0.10519270742E+04  0.17300000000E+03 0.  1.
         -6    1    1    2    0  502 -0.14116375992E+02 -0.43330195852E+02 -0.17451627897E+04  0.17543086788E+04  0.17300000000E+03 0.  1.
</event>
<event>
 4    1  0.5876320E+000  0.1000000E+03  0.7546771E-02  0.1280296E+00
         21   -1    0    0  503  502  0.00000000000E+00  0.00000000000E+00  0.59787959712E+03  0.59787959712E+03  0.00000000000E+00 0. -1.
         21   -1    0    0  501  503 -0.00000000000E+00 -0.00000000000E+00 -0.16435068243E+03  0.16435068243E+03  0.00000000000E+00 0. -1.
          6    1    1    2  501    0 -0.14493890393E+02 -0.95363307542E+02 -0.78625100504E+02  0.21310828166E+03  0.17300000000E+03 0. -1.
         -6    1    1    2    0  502  0.14493890393E+02  0.95363307542E+02  0.51215401520E+03  0.54912199789E+03  0.17300000000E+03 0. -1.
</event>
<event>
 4    1  0.5876320E+000  0.1000000E+03  0.7546771E-02  0.1280296E+00
         21   -1    0    0  503  502  0.00000000000E+00  0.00000000000E+00  0.64488849887E+03  0.64488849887E+03  0.00000000000E+00 0. -1.
         21   -1    0    0  501  503 -0.00000000000E+00 -0.00000000000E+00 -0.64094058105E+02  0.64094058105E+02  0.00000000000E+00 0. -1.
          6    1    1    2  501    0 -0.47972471794E+02 -0.48598629822E+02  0.14723535703E+03  0.23721390185E+03  0.17300000000E+03 0. -1.
         -6    1    1    2    0  502  0.47972471794E+02  0.48598629822E+02  0.43355908374E+03  0.47176865513E+03  0.17300000000E+03 0. -1.
</event>
<event>
 4    1  0.5876320E+000  0.1000000E+03  0.7546771E-02  0.1280296E+00
         21   -1    0    0  503  502  0.00000000000E+00  0.00000000000E+00  0.11039367490E+03  0.11039367490E+03  0.00000000000E+00 0. -1.
         21   -1    0    0  501  503 -0.00000000000E+00 -0.00000000000E+00 -0.78229899846E+03  0.78229899846E+03  0.00000000000E+00 0. -1.
          6    1    1    2  501    0 -0.81524112662E+02 -0.21643238263E+03 -0.41834499292E+03  0.50836078753E+03  0.17300000000E+03 0. -1.
         -6    1    1    2    0  502  0.81524112662E+02  0.21643238263E+03 -0.25356033064E+03  0.38433188584E+03  0.17300000000E+03 0. -1.
</event>
<event>
 4    1  0.5876320E+000  0.1000000E+03  0.7546771E-02  0.1280296E+00
         21   -1    0    0  503  502  0.00000000000E+00  0.00000000000E+00  0.34521446062E+03  0.34521446062E+03  0.00000000000E+00 0. -1.
         21   -1    0    0  501  503 -0.00000000000E+00 -0.00000000000E+00 -0.30001148531E+03  0.30001148531E+03  0.00000000000E+00 0. -1.
          6    1    1    2  501    0  0.21195520092E+03  0.28682168073E+02 -0.14481774145E+03  0.31088398512E+03  0.17300000000E+03 0. -1.
         -6    1    1    2    0  502 -0.21195520092E+03 -0.28682168073E+02  0.19002071676E+03  0.33434196081E+03  0.17300000000E+03 0. -1.
</event>
<event>
 4    1  0.5876320E+000  0.1000000E+03  0.7546771E-02  0.1280296E+00
         21   -1    0    0  503  502  0.00000000000E+00  0.00000000000E+00  0.18247748013E+03  0.18247748013E+03  0.00000000000E+00 0. -1.
         21   -1    0    0  501  503 -0.00000000000E+00 -0.00000000000E+00 -0.30634494324E+03  0.30634494324E+03  0.00000000000E+00 0. -1.
          6    1    1    2  501    0 -0.11626383081E+03  0.34585641022E+02 -0.17162030887E+03  0.27220575919E+03  0.17300000000E+03 0. -1.
         -6    1    1    2    0  502  0.11626383081E+03 -0.34585641022E+02  0.47752845758E+02  0.21661666418E+03  0.17300000000E+03 0. -1.
</event>
<event>
 4    1  0.5876320E+000  0.1000000E+03  0.7546771E-02  0.1280296E+00
         21   -1    0    0  503  502  0.00000000000E+00  0.00000000000E+00  0.63136983842E+03  0.63136983842E+03  0.00000000000E+00 0. -1.
         21   -1    0    0  501  503 -0.00000000000E+00 -0.00000000000E+00 -0.79016926978E+02  0.79016926978E+02  0.00000000000E+00 0. -1.
          6    1    1    2  501    0  0.11412519104E+03  0.57124834080E+02  0.17981129609E+03  0.28026578118E+03  0.17300000000E+03 0. -1.
         -6    1    1    2    0  502 -0.11412519104E+03 -0.57124834080E+02  0.37254161535E+03  0.43012098422E+03  0.17300000000E+03 0. -1.
</event>
<event>
 4    1  0.5876320E+000  0.1000000E+03  0.7546771E-02  0.1280296E+00
         21   -1    0    0  501  502  0.00000000000E+00  0.00000000000E+00  0.30220935176E+03  0.30220935176E+03  0.00000000000E+00 0.  1.
         21   -1    0    0  502  503 -0.00000000000E+00 -0.00000000000E+00 -0.39366908179E+03  0.39366908179E+03  0.00000000000E+00 0.  1.
          6    1    1    2  501    0  0.20397159585E+01 -0.94218807335E+01  0.25512234371E+03  0.30839802616E+03  0.17300000000E+03 0.  1.
         -6    1    1    2    0  503 -0.20397159585E+01  0.94218807335E+01 -0.34658207374E+03  0.38748040739E+03  0.17300000000E+03 0.  1.
</event>
<event>
 4    1  0.5876320E+000  0.1000000E+03  0.7546771E-02  0.1280296E+00
         21   -1    0    0  501  502  0.00000000000E+00  0.00000000000E+00  0.68447915892E+03  0.68447915892E+03  0.00000000000E+00 0. -1.
         21   -1    0    0  502  503 -0.00000000000E+00 -0.00000000000E+00 -0.52270181160E+02  0.52270181160E+02  0.00000000000E+00 0. -1.
          6    1    1    2  501    0 -0.68557730070E+02 -0.84232016944E+01  0.38003954204E+03  0.42323771830E+03  0.17300000000E+03 0.  1.
         -6    1    1    2    0  503  0.68557730070E+02  0.84232016944E+01  0.25216943572E+03  0.31351162178E+03  0.17300000000E+03 0.  1.
</event>
<event>
 4    1  0.5876320E+000  0.1000000E+03  0.7546771E-02  0.1280296E+00
         21   -1    0    0  503  502  0.00000000000E+00  0.00000000000E+00  0.83642372031E+02  0.83642372031E+02  0.00000000000E+00 0. -1.
         21   -1    0    0  501  503 -0.00000000000E+00 -0.00000000000E+00 -0.66861150317E+03  0.66861150317E+03  0.00000000000E+00 0. -1.
          6    1    1    2  501    0 -0.47705524722E+02  0.20638312235E+02 -0.49738793664E+02  0.18736249522E+03  0.17300000000E+03 0. -1.
         -6    1    1    2    0  502  0.47705524722E+02 -0.20638312235E+02 -0.53523033747E+03  0.56489137998E+03  0.17300000000E+03 0. -1.
</event>
<event>
 4    1  0.5876320E+000  0.1000000E+03  0.7546771E-02  0.1280296E+00
         21   -1    0    0  503  502  0.00000000000E+00  0.00000000000E+00  0.13014501430E+03  0.13014501430E+03  0.00000000000E+00 0. -1.
         21   -1    0    0  501  503 -0.00000000000E+00 -0.00000000000E+00 -0.26005103624E+03  0.26005103624E+03  0.00000000000E+00 0. -1.
          6    1    1    2  501    0  0.45033683449E+01  0.12226646064E+02 -0.12985664869E+03  0.21670606916E+03  0.17300000000E+03 0. -1.
         -6    1    1    2    0  502 -0.45033683449E+01 -0.12226646064E+02 -0.49373251023E-01  0.17348998138E+03  0.17300000000E+03 0. -1.
</event>
<event>
 4    1  0.5876320E+000  0.1000000E+03  0.7546771E-02  0.1280296E+00
         21   -1    0    0  503  502  0.00000000000E+00  0.00000000000E+00  0.47869937025E+03  0.47869937025E+03  0.00000000000E+00 0. -1.
         21   -1    0    0  501  503 -0.00000000000E+00 -0.00000000000E+00 -0.20293734654E+03  0.20293734654E+03  0.00000000000E+00 0. -1.
          6    1    1    2  501    0  0.22085410608E+02  0.12804184835E+03 -0.10744491118E+03  0.24156963640E+03  0.17300000000E+03 0. -1.
         -6    1    1    2    0  502 -0.22085410608E+02 -0.12804184835E+03  0.38320693489E+03  0.44006708039E+03  0.17300000000E+03 0. -1.
</event>
<event>
 4    1  0.5876320E+000  0.1000000E+03  0.7546771E-02  0.1280296E+00
         21   -1    0    0  501  502  0.00000000000E+00  0.00000000000E+00  0.20783546462E+03  0.20783546462E+03  0.00000000000E+00 0.  1.
         21   -1    0    0  502  503 -0.00000000000E+00 -0.00000000000E+00 -0.32975361477E+03  0.32975361477E+03  0.00000000000E+00 0.  1.
          6    1    1    2  501    0  0.66978042129E+00  0.15511364038E+03  0.62869191463E+02  0.24071191344E+03  0.17300000000E+03 0.  1.
         -6    1    1    2    0  503 -0.66978042129E+00 -0.15511364038E+03 -0.18478734161E+03  0.29687716594E+03  0.17300000000E+03 0.  1.
</event>
<event>
 4    1  0.5876320E+000  0.1000000E+03  0.7546771E-02  0.1280296E+00
         21   -1    0    0  501  502  0.00000000000E+00  0.00000000000E+00  0.27787734040E+03  0.27787734040E+03  0.00000000000E+00 0.  1.
         21   -1    0    0  502  503 -0.00000000000E+00 -0.00000000000E+00 -0.20537635936E+03  0.20537635936E+03  0.00000000000E+00 0.  1.
          6    1    1    2  501    0 -0.36936534856E+02  0.48603154031E+02  0.19101804846E+03  0.26484612330E+03  0.17300000000E+03 0.  1.
         -6    1    1    2    0  503  0.36936534856E+02 -0.48603154031E+02 -0.11851706742E+03  0.21840757647E+03  0.17300000000E+03 0.  1.
</event>
<event>
 4    1  0.5876320E+000  0.1000000E+03  0.7546771E-02  0.1280296E+00
         21   -1    0    0  501  502  0.00000000000E+00  0.00000000000E+00  0.28769084835E+03  0.28769084835E+03  0.00000000000E+00 0.  1.
         21   -1    0    0  502  503 -0.00000000000E+00 -0.00000000000E+00 -0.29058527619E+03  0.29058527619E+03  0.00000000000E+00 0.  1.
          6    1    1    2  501    0  0.16282927187E+03  0.20293844179E+02  0.16209233107E+03  0.28831950278E+03  0.17300000000E+03 0.  1.
         -6    1    1    2    0  503 -0.16282927187E+03 -0.20293844179E+02 -0.16498675891E+03  0.28995662177E+03  0.17300000000E+03 0.  1.
</event>
<event>
 4    1  0.5876320E+000  0.1000000E+03  0.7546771E-02  0.1280296E+00
         21   -1    0    0  501  502  0.00000000000E+00  0.00000000000E+00  0.26073031101E+03  0.26073031101E+03  0.00000000000E+00 0.  1.
         21   -1    0    0  502  503 -0.00000000000E+00 -0.00000000000E+00 -0.15761306842E+03  0.15761306842E+03  0.00000000000E+00 0.  1.
          6    1    1    2  501    0 -0.56996205588E+02  0.12666742038E+02  0.14243346251E+03  0.23157138219E+03  0.17300000000E+03 0.  1.
         -6    1    1    2    0  503  0.56996205588E+02 -0.12666742038E+02 -0.39316219921E+02  0.18677199724E+03  0.17300000000E+03 0.  1.
</event>
<event>
 4    1  0.5876320E+000  0.1000000E+03  0.7546771E-02  0.1280296E+00
         21   -1    0    0  501  502  0.00000000000E+00  0.00000000000E+00  0.53083565282E+02  0.53083565282E+02  0.00000000000E+00 0.  1.
         21   -1    0    0  502  503 -0.00000000000E+00 -0.00000000000E+00 -0.57386839790E+03  0.57386839790E+03  0.00000000000E+00 0.  1.
          6    1    1    2  501    0  0.10179076735E+02  0.10738067308E+02 -0.29227219578E+03  0.33995728573E+03  0.17300000000E+03 0.  1.
         -6    1    1    2    0  503 -0.10179076735E+02 -0.10738067308E+02 -0.22851263683E+03  0.28699467745E+03  0.17300000000E+03 0.  1.
</event>
<event>
 4    1  0.5876320E+000  0.1000000E+03  0.7546771E-02  0.1280296E+00
         21   -1    0    0  501  502  0.00000000000E+00  0.00000000000E+00  0.17798283273E+03  0.17798283273E+03  0.00000000000E+00 0.  1.
         21   -1    0    0  502  503 -0.00000000000E+00 -0.00000000000E+00 -0.24007030924E+03  0.24007030924E+03  0.00000000000E+00 0.  1.
          6    1    1    2  501    0  0.45333022431E+02  0.88482169189E+02  0.23554498834E+02  0.20091787278E+03  0.17300000000E+03 0.  1.
         -6    1    1    2    0  503 -0.45333022431E+02 -0.88482169189E+02 -0.85641975347E+02  0.21713526920E+03  0.17300000000E+03 0.  1.
</event>
<event>
 4    1  0.5876320E+000  0.1000000E+03  0.7546771E-02  0.1280296E+00
         21   -1    0    0  503  502  0.00000000000E+00  0.00000000000E+00  0.87851224013E+02  0.87851224013E+02  0.00000000000E+00 0.  1.
         21   -1    0    0  501  503 -0.00000000000E+00 -0.00000000000E+00 -0.42208587839E+03  0.42208587839E+03  0.00000000000E+00 0. -1.
          6    1    1    2  501    0  0.60524637556E+02 -0.33042035395E+01 -0.24519966917E+03  0.30614706805E+03  0.17300000000E+03 0.  1.
         -6    1    1    2    0  502 -0.60524637556E+02  0.33042035395E+01 -0.89034985206E+02  0.20379003436E+03  0.17300000000E+03 0. -1.
</event>
<event>
 4    1  0.5876320E+000  0.1000000E+03  0.7546771E-02  0.1280296E+00
         21   -1    0    0  501  502  0.00000000000E+00  0.00000000000E+00  0.19849362413E+03  0.19849362413E+03  0.00000000000E+00 0.  1.
         21   -1    0    0  502  503 -0.00000000000E+00 -0.00000000000E+00 -0.46091886937E+03  0.46091886937E+03  0.00000000000E+00 0. -1.
          6    1    1    2  501    0  0.18579936449E+03 -0.16439390682E+03 -0.13524670132E+03  0.33131168205E+03  0.17300000000E+03 0.  1.
         -6    1    1    2    0  503 -0.18579936449E+03  0.16439390682E+03 -0.12717854391E+03  0.32810081145E+03  0.17300000000E+03 0. -1.
</event>
<event>
 4    1  0.5876320E+000  0.1000000E+03  0.7546771E-02  0.1280296E+00
         21   -1    0    0  501  502  0.00000000000E+00  0.00000000000E+00  0.13726456998E+03  0.13726456998E+03  0.00000000000E+00 0. -1.
         21   -1    0    0  502  503 -0.00000000000E+00 -0.00000000000E+00 -0.40927219372E+03  0.40927219372E+03  0.00000000000E+00 0. -1.
          6    1    1    2  501    0 -0.51447554010E+02 -0.11226462843E+03 -0.15086627901E+02  0.21308872319E+03  0.17300000000E+03 0. -1.
         -6    1    1    2    0  503  0.51447554010E+02  0.11226462843E+03 -0.25692099584E+03  0.33344804050E+03  0.17300000000E+03 0. -1.
</event>
<event>
 4    1  0.5876320E+000  0.1000000E+03  0.7546771E-02  0.1280296E+00
         21   -1    0    0  501  502  0.00000000000E+00  0.00000000000E+00  0.37285789376E+03  0.37285789376E+03  0.00000000000E+00 0. -1.
         21   -1    0    0  502  503 -0.00000000000E+00 -0.00000000000E+00 -0.10231517303E+03  0.10231517303E+03  0.00000000000E+00 0. -1.
          6    1    1    2  501    0 -0.24904582920E+02  0.87125459342E+02  0.13163512719E+03  0.23551622158E+03  0.17300000000E+03 0. -1.
         -6    1    1    2    0  503  0.24904582920E+02 -0.87125459342E+02  0.13890759353E+03  0.23965684521E+03  0.17300000000E+03 0. -1.
</event>
<event>
 4    1  0.5876320E+000  0.1000000E+03  0.7546771E-02  0.1280296E+00
         21   -1    0    0  501  502  0.00000000000E+00  0.00000000000E+00  0.72883520813E+02  0.72883520813E+02  0.00000000000E+00 0. -1.
         21   -1    0    0  502  503 -0.00000000000E+00 -0.00000000000E+00 -0.54933872206E+03  0.54933872206E+03  0.00000000000E+00 0. -1.
          6    1    1    2  501    0  0.63858570953E+02  0.27030120881E+02 -0.12503274000E+03  0.22443424559E+03  0.17300000000E+03 0. -1.
         -6    1    1    2    0  503 -0.63858570953E+02 -0.27030120881E+02 -0.35142246124E+03  0.39778799728E+03  0.17300000000E+03 0. -1.
</event>
<event>
 4    1  0.5876320E+000  0.1000000E+03  0.7546771E-02  0.1280296E+00
         21   -1    0    0  503  502  0.00000000000E+00  0.00000000000E+00  0.49753593205E+03  0.49753593205E+03  0.00000000000E+00 0.  1.
         21   -1    0    0  501  503 -0.00000000000E+00 -0.00000000000E+00 -0.87940929273E+02  0.87940929273E+02  0.00000000000E+00 0. -1.
          6    1    1    2  501    0 -0.56820263671E+02  0.95251604724E+02  0.15017475933E+03  0.25452479035E+03  0.17300000000E+03 0.  1.
         -6    1    1    2    0  502  0.56820263671E+02 -0.95251604724E+02  0.25942024345E+03  0.33095207097E+03  0.17300000000E+03 0. -1.
</event>
<event>
 4    1  0.5876320E+000  0.1000000E+03  0.7546771E-02  0.1280296E+00
         21   -1    0    0  501  502  0.00000000000E+00  0.00000000000E+00  0.73147467521E+02  0.73147467521E+02  0.00000000000E+00 0. -1.
         21   -1    0    0  502  503 -0.00000000000E+00 -0.00000000000E+00 -0.46511257124E+03  0.46511257124E+03  0.00000000000E+00 0. -1.
          6    1    1    2  501    0 -0.52061008846E+02 -0.17641378961E+02 -0.14822667683E+03  0.23435382356E+03  0.17300000000E+03 0. -1.
         -6    1    1    2    0  503  0.52061008846E+02  0.17641378961E+02 -0.24373842689E+03  0.30390621520E+03  0.17300000000E+03 0. -1.
</event>
<event>
 4    1  0.5876320E+000  0.1000000E+03  0.7546771E-02  0.1280296E+00
         21   -1    0    0  501  502  0.00000000000E+00  0.00000000000E+00  0.19045889589E+04  0.19045889589E+04  0.00000000000E+00 0. -1.
         21   -1    0    0  502  503 -0.00000000000E+00 -0.00000000000E+00 -0.44525047965E+02  0.44525047965E+02  0.00000000000E+00 0. -1.
          6    1    1    2  501    0  0.18243582710E+03  0.93198387407E+02  0.13101942352E+04  0.13373506288E+04  0.17300000000E+03 0. -1.
         -6    1    1    2    0  503 -0.18243582710E+03 -0.93198387407E+02  0.54986967565E+03  0.61176337797E+03  0.17300000000E+03 0. -1.
</event>
<event>
 4    1  0.5876320E+000  0.1000000E+03  0.7546771E-02  0.1280296E+00
         21   -1    0    0  501  502  0.00000000000E+00  0.00000000000E+00  0.13353379270E+04  0.13353379270E+04  0.00000000000E+00 0.  1.
         21   -1    0    0  502  503 -0.00000000000E+00 -0.00000000000E+00 -0.58845810836E+02  0.58845810836E+02  0.00000000000E+00 0.  1.
          6    1    1    2  501    0 -0.70420597684E+02  0.20794962841E+03  0.69087733601E+03  0.74528021707E+03  0.17300000000E+03 0.  1.
         -6    1    1    2    0  503  0.70420597684E+02 -0.20794962841E+03  0.58561478011E+03  0.64890352073E+03  0.17300000000E+03 0.  1.
</event>
<event>
 4    1  0.5876320E+000  0.1000000E+03  0.7546771E-02  0.1280296E+00
         21   -1    0    0  501  502  0.00000000000E+00  0.00000000000E+00  0.35265274003E+03  0.35265274003E+03  0.00000000000E+00 0.  1.
         21   -1    0    0  502  503 -0.00000000000E+00 -0.00000000000E+00 -0.40974469675E+03  0.40974469675E+03  0.00000000000E+00 0.  1.
          6    1    1    2  501    0 -0.13377166976E+03 -0.36028769087E+01  0.28323255479E+03  0.35785125464E+03  0.17300000000E+03 0.  1.
         -6    1    1    2    0  503  0.13377166976E+03  0.36028769087E+01 -0.34032451150E+03  0.40454618214E+03  0.17300000000E+03 0.  1.
</event>
<event>
 4    1  0.5876320E+000  0.1000000E+03  0.7546771E-02  0.1280296E+00
         21   -1    0    0  501  502  0.00000000000E+00  0.00000000000E+00  0.10111070293E+04  0.10111070293E+04  0.00000000000E+00 0. -1.
         21   -1    0    0  502  503 -0.00000000000E+00 -0.00000000000E+00 -0.90760090006E+02  0.90760090006E+02  0.00000000000E+00 0.  1.
          6    1    1    2  501    0 -0.16183348974E+01  0.10616146919E+03  0.86913621057E+03  0.89252430167E+03  0.17300000000E+03 0. -1.
         -6    1    1    2    0  503  0.16183348974E+01 -0.10616146919E+03  0.51210728694E+02  0.20934281760E+03  0.17300000000E+03 0. -1.
</event>
<event>
 4    1  0.5876320E+000  0.1000000E+03  0.7546771E-02  0.1280296E+00
         21   -1    0    0  501  502  0.00000000000E+00  0.00000000000E+00  0.27725917618E+02  0.27725917618E+02  0.00000000000E+00 0. -1.
         21   -1    0    0  502  503 -0.00000000000E+00 -0.00000000000E+00 -0.10898943928E+04  0.10898943928E+04  0.00000000000E+00 0.  1.
          6    1    1    2  501    0 -0.94367833638E+01 -0.14123780001E+02 -0.52823045319E+03  0.55609796414E+03  0.17300000000E+03 0. -1.
         -6    1    1    2    0  503  0.94367833638E+01  0.14123780001E+02 -0.53393802196E+03  0.56152234625E+03  0.17300000000E+03 0. -1.
</event>
<event>
 4    1  0.5876320E+000  0.1000000E+03  0.7546771E-02  0.1280296E+00
         21   -1    0    0  501  502  0.00000000000E+00  0.00000000000E+00  0.30594776453E+03  0.30594776453E+03  0.00000000000E+00 0. -1.
         21   -1    0    0  502  503 -0.00000000000E+00 -0.00000000000E+00 -0.13816316780E+03  0.13816316780E+03  0.00000000000E+00 0.  1.
          6    1    1    2  501    0  0.88268712132E+02 -0.64905433660E+02  0.10373784855E+03  0.22955309208E+03  0.17300000000E+03 0. -1.
         -6    1    1    2    0  503 -0.88268712132E+02  0.64905433660E+02  0.64046748186E+02  0.21455784025E+03  0.17300000000E+03 0. -1.
</event>
<event>
 4    1  0.5876320E+000  0.1000000E+03  0.7546771E-02  0.1280296E+00
         21   -1    0    0  503  502  0.00000000000E+00  0.00000000000E+00  0.85756274374E+03  0.85756274374E+03  0.00000000000E+00 0. -1.
         21   -1    0    0  501  503 -0.00000000000E+00 -0.00000000000E+00 -0.10466222524E+03  0.10466222524E+03  0.00000000000E+00 0. -1.
          6    1    1    2  501    0  0.46723161463E+02 -0.74554319776E+01 -0.89217070979E+01  0.17957514901E+03  0.17300000000E+03 0. -1.
         -6    1    1    2    0  502 -0.46723161463E+02  0.74554319776E+01  0.76182222560E+03  0.78264981997E+03  0.17300000000E+03 0. -1.
</event>
<event>
 4    1  0.5876320E+000  0.1000000E+03  0.7546771E-02  0.1280296E+00
         21   -1    0    0  503  502  0.00000000000E+00  0.00000000000E+00  0.31596212275E+03  0.31596212275E+03  0.00000000000E+00 0. -1.
         21   -1    0    0  501  503 -0.00000000000E+00 -0.00000000000E+00 -0.14116128467E+03  0.14116128467E+03  0.00000000000E+00 0. -1.
          6    1    1    2  501    0  0.77438059947E+02  0.85199783243E+02  0.46661696979E+02  0.21298349738E+03  0.17300000000E+03 0. -1.
         -6    1    1    2    0  502 -0.77438059947E+02 -0.85199783243E+02  0.12813914110E+03  0.24413991004E+03  0.17300000000E+03 0. -1.
</event>
<event>
 4    1  0.5876320E+000  0.1000000E+03  0.7546771E-02  0.1280296E+00
         21   -1    0    0  503  502  0.00000000000E+00  0.00000000000E+00  0.71851525088E+02  0.71851525088E+02  0.00000000000E+00 0. -1.
         21   -1    0    0  501  503 -0.00000000000E+00 -0.00000000000E+00 -0.71188107369E+03  0.71188107369E+03  0.00000000000E+00 0. -1.
          6    1    1    2  501    0 -0.47277076884E+02  0.10381895215E+03 -0.47698412777E+03  0.52005418464E+03  0.17300000000E+03 0. -1.
         -6    1    1    2    0  502  0.47277076884E+02 -0.10381895215E+03 -0.16304542084E+03  0.26367841414E+03  0.17300000000E+03 0. -1.
</event>
<event>
 4    1  0.5876320E+000  0.1000000E+03  0.7546771E-02  0.1280296E+00
         21   -1    0    0  503  502  0.00000000000E+00  0.00000000000E+00  0.15569489345E+04  0.15569489345E+04  0.00000000000E+00 0. -1.
         21   -1    0    0  501  503 -0.00000000000E+00 -0.00000000000E+00 -0.24572488704E+02  0.24572488704E+02  0.00000000000E+00 0. -1.
          6    1    1    2  501    0 -0.63583200752E+02 -0.55233357681E+02  0.62408113016E+03  0.65306952481E+03  0.17300000000E+03 0. -1.
         -6    1    1    2    0  502  0.63583200752E+02  0.55233357681E+02  0.90829531568E+03  0.92845189843E+03  0.17300000000E+03 0. -1.
</event>
<event>
 4    1  0.5876320E+000  0.1000000E+03  0.7546771E-02  0.1280296E+00
         21   -1    0    0  501  502  0.00000000000E+00  0.00000000000E+00  0.14106669537E+03  0.14106669537E+03  0.00000000000E+00 0.  1.
         21   -1    0    0  502  503 -0.00000000000E+00 -0.00000000000E+00 -0.22312068673E+03  0.22312068673E+03  0.00000000000E+00 0.  1.
          6    1    1    2  501    0  0.33862726619E+02  0.15806551486E+01 -0.20583640900E+02  0.17748765872E+03  0.17300000000E+03 0.  1.
         -6    1    1    2    0  503 -0.33862726619E+02 -0.15806551486E+01 -0.61470350464E+02  0.18669972338E+03  0.17300000000E+03 0.  1.
</event>
<event>
 4    1  0.5876320E+000  0.1000000E+03  0.7546771E-02  0.1280296E+00
         21   -1    0    0  501  502  0.00000000000E+00  0.00000000000E+00  0.49969938432E+03  0.49969938432E+03  0.00000000000E+00 0.  1.
         21   -1    0    0  502  503 -0.00000000000E+00 -0.00000000000E+00 -0.96417265769E+02  0.96417265769E+02  0.00000000000E+00 0.  1.
          6    1    1    2  501    0 -0.25880367205E+01  0.13416884870E+03  0.22279434761E+03  0.31236885124E+03  0.17300000000E+03 0.  1.
         -6    1    1    2    0  503  0.25880367205E+01 -0.13416884870E+03  0.18048777094E+03  0.28374779885E+03  0.17300000000E+03 0.  1.
</event>
<event>
 4    1  0.5876320E+000  0.1000000E+03  0.7546771E-02  0.1280296E+00
         21   -1    0    0  503  502  0.00000000000E+00  0.00000000000E+00  0.10363088568E+03  0.10363088568E+03  0.00000000000E+00 0. -1.
         21   -1    0    0  501  503 -0.00000000000E+00 -0.00000000000E+00 -0.47142399682E+03  0.47142399682E+03  0.00000000000E+00 0.  1.
          6    1    1    2  501    0 -0.87810808221E+02  0.25203314469E+02 -0.31769592265E+03  0.37310272629E+03  0.17300000000E+03 0.  1.
         -6    1    1    2    0  502  0.87810808221E+02 -0.25203314469E+02 -0.50097188500E+02  0.20195215621E+03  0.17300000000E+03 0. -1.
</event>
<event>
 4    1  0.5876320E+000  0.1000000E+03  0.7546771E-02  0.1280296E+00
         21   -1    0    0  503  502  0.00000000000E+00  0.00000000000E+00  0.61048528207E+03  0.61048528207E+03  0.00000000000E+00 0. -1.
         21   -1    0    0  501  503 -0.00000000000E+00 -0.00000000000E+00 -0.15317367248E+03  0.15317367248E+03  0.00000000000E+00 0.  1.
          6    1    1    2  501    0 -0.20910513517E+02 -0.18149035127E+03  0.11645082889E+02  0.25187418513E+03  0.17300000000E+03 0.  1.
         -6    1    1    2    0  502  0.20910513517E+02  0.18149035127E+03  0.44566652670E+03  0.51178476941E+03  0.17300000000E+03 0. -1.
</event>
<event>
 4    1  0.5876320E+000  0.1000000E+03  0.7546771E-02  0.1280296E+00
         21   -1    0    0  501  502  0.00000000000E+00  0.00000000000E+00  0.39123912725E+03  0.39123912725E+03  0.00000000000E+00 0.  1.
         21   -1    0    0  502  503 -0.00000000000E+00 -0.00000000000E+00 -0.15485958333E+03  0.15485958333E+03  0.00000000000E+00 0. -1.
          6    1    1    2  501    0 -0.55806943453E+02  0.15811773491E+03  0.17412443705E+03  0.29726074851E+03  0.17300000000E+03 0. -1.
         -6    1    1    2    0  503  0.55806943453E+02 -0.15811773491E+03  0.62255106870E+02  0.24883796206E+03  0.17300000000E+03 0.  1.
</event>
<event>
 4    1  0.5876320E+000  0.1000000E+03  0.7546771E-02  0.1280296E+00
         21   -1    0    0  503  502  0.00000000000E+00  0.00000000000E+00  0.13387505438E+04  0.13387505438E+04  0.00000000000E+00 0.  1.
         21   -1    0    0  501  503 -0.00000000000E+00 -0.00000000000E+00 -0.88348544547E+02  0.88348544547E+02  0.00000000000E+00 0.  1.
          6    1    1    2  501    0  0.18158466944E+03  0.30858232666E+02  0.14118066754E+03  0.28945846608E+03  0.17300000000E+03 0.  1.
         -6    1    1    2    0  502 -0.18158466944E+03 -0.30858232666E+02  0.11092213318E+04  0.11376406223E+04  0.17300000000E+03 0.  1.
</event>
<event>
 4    1  0.5876320E+000  0.1000000E+03  0.7546771E-02  0.1280296E+00
         21   -1    0    0  503  502  0.00000000000E+00  0.00000000000E+00  0.20693008034E+03  0.20693008034E+03  0.00000000000E+00 0.  1.
         21   -1    0    0  501  503 -0.00000000000E+00 -0.00000000000E+00 -0.38074445193E+03  0.38074445193E+03  0.00000000000E+00 0.  1.
          6    1    1    2  501    0 -0.11307198495E+03 -0.18753775858E+03 -0.55453399766E+02  0.28453429357E+03  0.17300000000E+03 0.  1.
         -6    1    1    2    0  502  0.11307198495E+03  0.18753775858E+03 -0.11836097183E+03  0.30314023871E+03  0.17300000000E+03 0.  1.
</event>
<event>
 4    1  0.5876320E+000  0.1000000E+03  0.7546771E-02  0.1280296E+00
         21   -1    0    0  503  502  0.00000000000E+00  0.00000000000E+00  0.55087051206E+03  0.55087051206E+03  0.00000000000E+00 0.  1.
         21   -1    0    0  501  503 -0.00000000000E+00 -0.00000000000E+00 -0.97792847931E+02  0.97792847931E+02  0.00000000000E+00 0. -1.
          6    1    1    2  501    0 -0.58661923751E+02  0.13877270264E+03  0.27580697327E+03  0.35874443662E+03  0.17300000000E+03 0. -1.
         -6    1    1    2    0  502  0.58661923751E+02 -0.13877270264E+03  0.17727069085E+03  0.28991892337E+03  0.17300000000E+03 0. -1.
</event>
<event>
 4    1  0.5876320E+000  0.1000000E+03  0.7546771E-02  0.1280296E+00
         21   -1    0    0  503  502  0.00000000000E+00  0.00000000000E+00  0.64320635297E+03  0.64320635297E+03  0.00000000000E+00 0.  1.
         21   -1    0    0  501  503 -0.00000000000E+00 -0.00000000000E+00 -0.19705229463E+03  0.19705229463E+03  0.00000000000E+00 0. -1.
          6    1    1    2  501    0 -0.10223462361E+03  0.54538230730E+02 -0.11770284894E+03  0.23918465152E+03  0.17300000000E+03 0. -1.
         -6    1    1    2    0  502  0.10223462361E+03 -0.54538230730E+02  0.56385690728E+03  0.60107399608E+03  0.17300000000E+03 0. -1.
</event>
<event>
 4    1  0.5876320E+000  0.1000000E+03  0.7546771E-02  0.1280296E+00
         21   -1    0    0  503  502  0.00000000000E+00  0.00000000000E+00  0.32179172286E+03  0.32179172286E+03  0.00000000000E+00 0. -1.
         21   -1    0    0  501  503 -0.00000000000E+00 -0.00000000000E+00 -0.14375707884E+03  0.14375707884E+03  0.00000000000E+00 0. -1.
          6    1    1    2  501    0 -0.10970690935E+03 -0.39062066681E+02  0.32063222126E+02  0.21099407865E+03  0.17300000000E+03 0. -1.
         -6    1    1    2    0  502  0.10970690935E+03  0.39062066681E+02  0.14597142190E+03  0.25455472305E+03  0.17300000000E+03 0. -1.
</event>
<event>
 4    1  0.5876320E+000  0.1000000E+03  0.7546771E-02  0.1280296E+00
         21   -1    0    0  503  502  0.00000000000E+00  0.00000000000E+00  0.20346699788E+03  0.20346699788E+03  0.00000000000E+00 0. -1.
         21   -1    0    0  501  503 -0.00000000000E+00 -0.00000000000E+00 -0.47358352762E+03  0.47358352762E+03  0.00000000000E+00 0. -1.
          6    1    1    2  501    0 -0.45430003684E+02 -0.68245394411E+02 -0.40153736463E+03  0.44483994232E+03  0.17300000000E+03 0. -1.
         -6    1    1    2    0  502  0.45430003684E+02  0.68245394411E+02  0.13142083490E+03  0.23221058317E+03  0.17300000000E+03 0. -1.
</event>
<event>
 4    1  0.5876320E+000  0.1000000E+03  0.7546771E-02  0.1280296E+00
         21   -1    0    0  501  502  0.00000000000E+00  0.00000000000E+00  0.98547006513E+02  0.98547006513E+02  0.00000000000E+00 0. -1.
         21   -1    0    0  502  503 -0.00000000000E+00 -0.00000000000E+00 -0.57007031393E+03  0.57007031393E+03  0.00000000000E+00 0. -1.
          6    1    1    2  501    0  0.76236230791E+02 -0.14171116445E+03 -0.20916008513E+03  0.31554866222E+03  0.17300000000E+03 0. -1.
         -6    1    1    2    0  503 -0.76236230791E+02  0.14171116445E+03 -0.26236322228E+03  0.35306865822E+03  0.17300000000E+03 0. -1.
</event>
<event>
 4    1  0.5876320E+000  0.1000000E+03  0.7546771E-02  0.1280296E+00
         21   -1    0    0  501  502  0.00000000000E+00  0.00000000000E+00  0.79403099777E+02  0.79403099777E+02  0.00000000000E+00 0. -1.
         21   -1    0    0  502  503 -0.00000000000E+00 -0.00000000000E+00 -0.13515741958E+04  0.13515741958E+04  0.00000000000E+00 0. -1.
          6    1    1    2  501    0  0.29298218023E+02  0.27659895739E+03 -0.64696467994E+03  0.72516044149E+03  0.17300000000E+03 0. -1.
         -6    1    1    2    0  503 -0.29298218023E+02 -0.27659895739E+03 -0.62520641612E+03  0.70581685413E+03  0.17300000000E+03 0. -1.
</event>
<event>
 4    1  0.5876320E+000  0.1000000E+03  0.7546771E-02  0.1280296E+00
         21   -1    0    0  501  502  0.00000000000E+00  0.00000000000E+00  0.20799714218E+03  0.20799714218E+03  0.00000000000E+00 0. -1.
         21   -1    0    0  502  503 -0.00000000000E+00 -0.00000000000E+00 -0.16142965106E+03  0.16142965106E+03  0.00000000000E+00 0. -1.
          6    1    1    2  501    0 -0.58016698286E+01 -0.27971606000E+02  0.76926627661E+02  0.19147526252E+03  0.17300000000E+03 0. -1.
         -6    1    1    2    0  503  0.58016698286E+01  0.27971606000E+02 -0.30359136543E+02  0.17795153072E+03  0.17300000000E+03 0. -1.
</event>
<event>
 4    1  0.5876320E+000  0.1000000E+03  0.7546771E-02  0.1280296E+00
         21   -1    0    0  501  502  0.00000000000E+00  0.00000000000E+00  0.45703700284E+03  0.45703700284E+03  0.00000000000E+00 0. -1.
         21   -1    0    0  502  503 -0.00000000000E+00 -0.00000000000E+00 -0.10908940876E+03  0.10908940876E+03  0.00000000000E+00 0. -1.
          6    1    1    2  501    0  0.47993827269E+02  0.12732022433E+03  0.12628654987E+03  0.25375409289E+03  0.17300000000E+03 0. -1.
         -6    1    1    2    0  503 -0.47993827269E+02 -0.12732022433E+03  0.22166104421E+03  0.31237231872E+03  0.17300000000E+03 0. -1.
</event>
<event>
 4    1  0.5876320E+000  0.1000000E+03  0.7546771E-02  0.1280296E+00
         21   -1    0    0  503  502  0.00000000000E+00  0.00000000000E+00  0.26184153987E+03  0.26184153987E+03  0.00000000000E+00 0.  1.
         21   -1    0    0  501  503 -0.00000000000E+00 -0.00000000000E+00 -0.44135391847E+03  0.44135391847E+03  0.00000000000E+00 0. -1.
          6    1    1    2  501    0  0.10243888300E+02 -0.32771668122E+02 -0.39032975715E+03  0.42832842398E+03  0.17300000000E+03 0. -1.
         -6    1    1    2    0  502 -0.10243888300E+02  0.32771668122E+02  0.21081737854E+03  0.27486703435E+03  0.17300000000E+03 0. -1.
</event>
<event>
 4    1  0.5876320E+000  0.1000000E+03  0.7546771E-02  0.1280296E+00
         21   -1    0    0  503  502  0.00000000000E+00  0.00000000000E+00  0.14242489551E+04  0.14242489551E+04  0.00000000000E+00 0.  1.
         21   -1    0    0  501  503 -0.00000000000E+00 -0.00000000000E+00 -0.50731382476E+02  0.50731382476E+02  0.00000000000E+00 0. -1.
          6    1    1    2  501    0  0.17028500321E+03  0.11401696641E+03  0.73646822954E+03  0.78378013758E+03  0.17300000000E+03 0. -1.
         -6    1    1    2    0  502 -0.17028500321E+03 -0.11401696641E+03  0.63704934306E+03  0.69120019997E+03  0.17300000000E+03 0. -1.
</event>
<event>
 4    1  0.5876320E+000  0.1000000E+03  0.7546771E-02  0.1280296E+00
         21   -1    0    0  503  502  0.00000000000E+00  0.00000000000E+00  0.24171808456E+03  0.24171808456E+03  0.00000000000E+00 0. -1.
         21   -1    0    0  501  503 -0.00000000000E+00 -0.00000000000E+00 -0.27241291462E+03  0.27241291462E+03  0.00000000000E+00 0. -1.
          6    1    1    2  501    0  0.10042347078E+03 -0.65570756883E+02 -0.16235339807E+03  0.26584210259E+03  0.17300000000E+03 0. -1.
         -6    1    1    2    0  502 -0.10042347078E+03  0.65570756883E+02  0.13165856801E+03  0.24828889660E+03  0.17300000000E+03 0. -1.
</event>
<event>
 4    1  0.5876320E+000  0.1000000E+03  0.7546771E-02  0.1280296E+00
         21   -1    0    0  503  502  0.00000000000E+00  0.00000000000E+00  0.31373990183E+03  0.31373990183E+03  0.00000000000E+00 0. -1.
         21   -1    0    0  501  503 -0.00000000000E+00 -0.00000000000E+00 -0.31704917547E+03  0.31704917547E+03  0.00000000000E+00 0. -1.
          6    1    1    2  501    0 -0.14781029010E+02 -0.22046222814E+03 -0.14560071917E+03  0.31614971497E+03  0.17300000000E+03 0. -1.
         -6    1    1    2    0  502  0.14781029010E+02  0.22046222814E+03  0.14229144553E+03  0.31463936233E+03  0.17300000000E+03 0. -1.
</event>
<event>
 4    1  0.5876320E+000  0.1000000E+03  0.7546771E-02  0.1280296E+00
         21   -1    0    0  503  502  0.00000000000E+00  0.00000000000E+00  0.31892062007E+02  0.31892062007E+02  0.00000000000E+00 0. -1.
         21   -1    0    0  501  503 -0.00000000000E+00 -0.00000000000E+00 -0.12709532472E+04  0.12709532472E+04  0.00000000000E+00 0. -1.
          6    1    1    2  501    0 -0.98036588798E+01 -0.71382129420E+02 -0.85758035165E+03  0.87781807891E+03  0.17300000000E+03 0. -1.
         -6    1    1    2    0  502  0.98036588798E+01  0.71382129420E+02 -0.38148083351E+03  0.42502723026E+03  0.17300000000E+03 0. -1.
</event>
<event>
 4    1  0.5876320E+000  0.1000000E+03  0.7546771E-02  0.1280296E+00
         21   -1    0    0  501  502  0.00000000000E+00  0.00000000000E+00  0.36405307867E+03  0.36405307867E+03  0.00000000000E+00 0. -1.
         21   -1    0    0  502  503 -0.00000000000E+00 -0.00000000000E+00 -0.47763073873E+03  0.47763073873E+03  0.00000000000E+00 0. -1.
          6    1    1    2  501    0  0.25870476833E+03  0.27243083702E+03 -0.11026113845E+03  0.42805751573E+03  0.17300000000E+03 0.  1.
         -6    1    1    2    0  503 -0.25870476833E+03 -0.27243083702E+03 -0.33165216003E+01  0.41362630167E+03  0.17300000000E+03 0.  1.
</event>
<event>
 4    1  0.5876320E+000  0.1000000E+03  0.7546771E-02  0.1280296E+00
         21   -1    0    0  501  502  0.00000000000E+00  0.00000000000E+00  0.11647345808E+03  0.11647345808E+03  0.00000000000E+00 0. -1.
         21   -1    0    0  502  503 -0.00000000000E+00 -0.00000000000E+00 -0.51160939794E+03  0.51160939794E+03  0.00000000000E+00 0. -1.
          6    1    1    2  501    0 -0.26905805851E+02  0.11409272211E+03 -0.35252479955E+02  0.21192642348E+03  0.17300000000E+03 0.  1.
         -6    1    1    2    0  503  0.26905805851E+02 -0.11409272211E+03 -0.35988345990E+03  0.41615643253E+03  0.17300000000E+03 0.  1.
</event>
<event>
 4    1  0.5876320E+000  0.1000000E+03  0.7546771E-02  0.1280296E+00
         21   -1    0    0  501  502  0.00000000000E+00  0.00000000000E+00  0.60495043169E+03  0.60495043169E+03  0.00000000000E+00 0. -1.
         21   -1    0    0  502  503 -0.00000000000E+00 -0.00000000000E+00 -0.63321667197E+02  0.63321667197E+02  0.00000000000E+00 0.  1.
          6    1    1    2  501    0 -0.47096659420E+02  0.14544647800E+02  0.40247820513E+03  0.44084844075E+03  0.17300000000E+03 0. -1.
         -6    1    1    2    0  503  0.47096659420E+02 -0.14544647800E+02  0.13915055936E+03  0.22742365813E+03  0.17300000000E+03 0.  1.
</event>
<event>
 4    1  0.5876320E+000  0.1000000E+03  0.7546771E-02  0.1280296E+00
         21   -1    0    0  503  502  0.00000000000E+00  0.00000000000E+00  0.24384227044E+03  0.24384227044E+03  0.00000000000E+00 0. -1.
         21   -1    0    0  501  503 -0.00000000000E+00 -0.00000000000E+00 -0.18022264700E+03  0.18022264700E+03  0.00000000000E+00 0.  1.
          6    1    1    2  501    0  0.25014641899E+02  0.54409368810E+02 -0.71490521843E+02  0.19653500054E+03  0.17300000000E+03 0.  1.
         -6    1    1    2    0  502 -0.25014641899E+02 -0.54409368810E+02  0.13511014529E+03  0.22752991690E+03  0.17300000000E+03 0. -1.
</event>
<event>
 4    1  0.5876320E+000  0.1000000E+03  0.7546771E-02  0.1280296E+00
         21   -1    0    0  503  502  0.00000000000E+00  0.00000000000E+00  0.12497034066E+03  0.12497034066E+03  0.00000000000E+00 0. -1.
         21   -1    0    0  501  503 -0.00000000000E+00 -0.00000000000E+00 -0.40713202979E+03  0.40713202979E+03  0.00000000000E+00 0.  1.
          6    1    1    2  501    0 -0.43526436360E+02 -0.52574752042E+02 -0.29162997948E+03  0.34588394028E+03  0.17300000000E+03 0.  1.
         -6    1    1    2    0  502  0.43526436360E+02  0.52574752042E+02  0.94682903465E+01  0.18621843017E+03  0.17300000000E+03 0. -1.
</event>
<event>
 4    1  0.5876320E+000  0.1000000E+03  0.7546771E-02  0.1280296E+00
         21   -1    0    0  501  502  0.00000000000E+00  0.00000000000E+00  0.17612797615E+03  0.17612797615E+03  0.00000000000E+00 0.  1.
         21   -1    0    0  502  503 -0.00000000000E+00 -0.00000000000E+00 -0.35678701109E+03  0.35678701109E+03  0.00000000000E+00 0. -1.
          6    1    1    2  501    0 -0.20786387311E+02  0.73511641593E+02  0.84572409586E+02  0.20716545998E+03  0.17300000000E+03 0.  1.
         -6    1    1    2    0  503  0.20786387311E+02 -0.73511641593E+02 -0.26523144452E+03  0.32574952726E+03  0.17300000000E+03 0. -1.
</event>
<event>
 4    1  0.5876320E+000  0.1000000E+03  0.7546771E-02  0.1280296E+00
         21   -1    0    0  503  502  0.00000000000E+00  0.00000000000E+00  0.27981824954E+03  0.27981824954E+03  0.00000000000E+00 0.  1.
         21   -1    0    0  501  503 -0.00000000000E+00 -0.00000000000E+00 -0.39434317623E+03  0.39434317623E+03  0.00000000000E+00 0.  1.
          6    1    1    2  501    0  0.40409571616E+02  0.13160732679E+03 -0.30883431633E+03  0.37981713612E+03  0.17300000000E+03 0.  1.
         -6    1    1    2    0  502 -0.40409571616E+02 -0.13160732679E+03  0.19430938964E+03  0.29434428965E+03  0.17300000000E+03 0.  1.
</event>
<event>
 4    1  0.5876320E+000  0.1000000E+03  0.7546771E-02  0.1280296E+00
         21   -1    0    0  503  502  0.00000000000E+00  0.00000000000E+00  0.27548949664E+02  0.27548949664E+02  0.00000000000E+00 0.  1.
         21   -1    0    0  501  503 -0.00000000000E+00 -0.00000000000E+00 -0.23438762964E+04  0.23438762964E+04  0.00000000000E+00 0.  1.
          6    1    1    2  501    0  0.85566803914E+02  0.58082638984E+02 -0.18802442637E+04  0.18910163305E+04  0.17300000000E+03 0.  1.
         -6    1    1    2    0  502 -0.85566803914E+02 -0.58082638984E+02 -0.43608308304E+03  0.48040891561E+03  0.17300000000E+03 0.  1.
</event>
<event>
 4    1  0.5876320E+000  0.1000000E+03  0.7546771E-02  0.1280296E+00
         21   -1    0    0  501  502  0.00000000000E+00  0.00000000000E+00  0.35406597559E+02  0.35406597559E+02  0.00000000000E+00 0.  1.
         21   -1    0    0  502  503 -0.00000000000E+00 -0.00000000000E+00 -0.12796730281E+04  0.12796730281E+04  0.00000000000E+00 0.  1.
          6    1    1    2  501    0  0.27803828699E+02  0.57900272775E+02 -0.29442214758E+03  0.34747502854E+03  0.17300000000E+03 0.  1.
         -6    1    1    2    0  503 -0.27803828699E+02 -0.57900272775E+02 -0.94984428295E+03  0.96760459710E+03  0.17300000000E+03 0.  1.
</event>
<event>
 4    1  0.5876320E+000  0.1000000E+03  0.7546771E-02  0.1280296E+00
         21   -1    0    0  501  502  0.00000000000E+00  0.00000000000E+00  0.79651446031E+03  0.79651446031E+03  0.00000000000E+00 0.  1.
         21   -1    0    0  502  503 -0.00000000000E+00 -0.00000000000E+00 -0.95771865551E+02  0.95771865551E+02  0.00000000000E+00 0.  1.
          6    1    1    2  501    0  0.24855193837E+02 -0.67818297991E+02  0.67799685426E+03  0.70343858054E+03  0.17300000000E+03 0.  1.
         -6    1    1    2    0  503 -0.24855193837E+02  0.67818297991E+02  0.22745740499E+02  0.18884774532E+03  0.17300000000E+03 0.  1.
</event>
<event>
 4    1  0.5876320E+000  0.1000000E+03  0.7546771E-02  0.1280296E+00
         21   -1    0    0  501  502  0.00000000000E+00  0.00000000000E+00  0.14107093466E+04  0.14107093466E+04  0.00000000000E+00 0.  1.
         21   -1    0    0  502  503 -0.00000000000E+00 -0.00000000000E+00 -0.32405968326E+02  0.32405968326E+02  0.00000000000E+00 0.  1.
          6    1    1    2  501    0 -0.64061402141E+02  0.42298881595E+02  0.10248207524E+04  0.10421514444E+04  0.17300000000E+03 0.  1.
         -6    1    1    2    0  503  0.64061402141E+02 -0.42298881595E+02  0.35348262588E+03  0.40096387048E+03  0.17300000000E+03 0.  1.
</event>
<event>
 4    1  0.5876320E+000  0.1000000E+03  0.7546771E-02  0.1280296E+00
         21   -1    0    0  501  502  0.00000000000E+00  0.00000000000E+00  0.10496408944E+03  0.10496408944E+03  0.00000000000E+00 0.  1.
         21   -1    0    0  502  503 -0.00000000000E+00 -0.00000000000E+00 -0.61251017613E+03  0.61251017613E+03  0.00000000000E+00 0.  1.
          6    1    1    2  501    0 -0.40463963849E+02 -0.17357923971E+03 -0.18169403110E+03  0.30774795818E+03  0.17300000000E+03 0.  1.
         -6    1    1    2    0  503  0.40463963849E+02  0.17357923971E+03 -0.32585205559E+03  0.40972630738E+03  0.17300000000E+03 0.  1.
</event>
<event>
 4    1  0.5876320E+000  0.1000000E+03  0.7546771E-02  0.1280296E+00
         21   -1    0    0  503  502  0.00000000000E+00  0.00000000000E+00  0.40194235206E+03  0.40194235206E+03  0.00000000000E+00 0.  1.
         21   -1    0    0  501  503 -0.00000000000E+00 -0.00000000000E+00 -0.29219489562E+03  0.29219489562E+03  0.00000000000E+00 0.  1.
          6    1    1    2  501    0 -0.86931664592E+02  0.14584896548E+03 -0.19046711017E+03  0.30827869712E+03  0.17300000000E+03 0.  1.
         -6    1    1    2    0  502  0.86931664592E+02 -0.14584896548E+03  0.30021456661E+03  0.38585855056E+03  0.17300000000E+03 0.  1.
</event>
<event>
 4    1  0.5876320E+000  0.1000000E+03  0.7546771E-02  0.1280296E+00
         21   -1    0    0  503  502  0.00000000000E+00  0.00000000000E+00  0.87526499815E+02  0.87526499815E+02  0.00000000000E+00 0.  1.
         21   -1    0    0  501  503 -0.00000000000E+00 -0.00000000000E+00 -0.47483657258E+03  0.47483657258E+03  0.00000000000E+00 0.  1.
          6    1    1    2  501    0 -0.57283378070E+02 -0.89161977204E+02 -0.22125875983E+03  0.30019274206E+03  0.17300000000E+03 0.  1.
         -6    1    1    2    0  502  0.57283378070E+02  0.89161977204E+02 -0.16605131294E+03  0.26217033034E+03  0.17300000000E+03 0.  1.
</event>
<event>
 4    1  0.5876320E+000  0.1000000E+03  0.7546771E-02  0.1280296E+00
         21   -1    0    0  501  502  0.00000000000E+00  0.00000000000E+00  0.97490670910E+02  0.97490670910E+02  0.00000000000E+00 0.  1.
         21   -1    0    0  502  503 -0.00000000000E+00 -0.00000000000E+00 -0.49892491543E+03  0.49892491543E+03  0.00000000000E+00 0. -1.
          6    1    1    2  501    0  0.94722881519E+02  0.96747040713E+02 -0.17439003524E+03  0.28048760857E+03  0.17300000000E+03 0. -1.
         -6    1    1    2    0  503 -0.94722881519E+02 -0.96747040713E+02 -0.22704420928E+03  0.31592797777E+03  0.17300000000E+03 0. -1.
</event>
<event>
 4    1  0.5876320E+000  0.1000000E+03  0.7546771E-02  0.1280296E+00
         21   -1    0    0  501  502  0.00000000000E+00  0.00000000000E+00  0.25910696700E+02  0.25910696700E+02  0.00000000000E+00 0.  1.
         21   -1    0    0  502  503 -0.00000000000E+00 -0.00000000000E+00 -0.22100841117E+04  0.22100841117E+04  0.00000000000E+00 0. -1.
          6    1    1    2  501    0  0.14604804381E+02 -0.14130827069E+01 -0.32269788855E+03  0.36643993285E+03  0.17300000000E+03 0. -1.
         -6    1    1    2    0  503 -0.14604804381E+02  0.14130827069E+01 -0.18614755265E+04  0.18695548756E+04  0.17300000000E+03 0. -1.
</event>
<event>
 4    1  0.5876320E+000  0.1000000E+03  0.7546771E-02  0.1280296E+00
         21   -1    0    0  501  502  0.00000000000E+00  0.00000000000E+00  0.26352409238E+03  0.26352409238E+03  0.00000000000E+00 0. -1.
         21   -1    0    0  502  503 -0.00000000000E+00 -0.00000000000E+00 -0.48224792918E+03  0.48224792918E+03  0.00000000000E+00 0. -1.
          6    1    1    2  501    0 -0.19984060939E+03  0.18589774365E+03  0.48097076575E+02  0.32670563055E+03  0.17300000000E+03 0. -1.
         -6    1    1    2    0  503  0.19984060939E+03 -0.18589774365E+03 -0.26682091338E+03  0.41906639101E+03  0.17300000000E+03 0. -1.
</event>
<event>
 4    1  0.5876320E+000  0.1000000E+03  0.7546771E-02  0.1280296E+00
         21   -1    0    0  501  502  0.00000000000E+00  0.00000000000E+00  0.12863082592E+03  0.12863082592E+03  0.00000000000E+00 0. -1.
         21   -1    0    0  502  503 -0.00000000000E+00 -0.00000000000E+00 -0.10131781329E+04  0.10131781329E+04  0.00000000000E+00 0. -1.
          6    1    1    2  501    0  0.19753239495E+03  0.87773528718E+01 -0.50729025775E+02  0.26757900335E+03  0.17300000000E+03 0. -1.
         -6    1    1    2    0  503 -0.19753239495E+03 -0.87773528718E+01 -0.83381828121E+03  0.87422995548E+03  0.17300000000E+03 0. -1.
</event>
<event>
 4    1  0.5876320E+000  0.1000000E+03  0.7546771E-02  0.1280296E+00
         21   -1    0    0  501  502  0.00000000000E+00  0.00000000000E+00  0.47526948281E+03  0.47526948281E+03  0.00000000000E+00 0. -1.
         21   -1    0    0  502  503 -0.00000000000E+00 -0.00000000000E+00 -0.11363003588E+03  0.11363003588E+03  0.00000000000E+00 0. -1.
          6    1    1    2  501    0  0.86282684203E+02  0.12295557573E+03  0.23010649551E+03  0.32471645242E+03  0.17300000000E+03 0. -1.
         -6    1    1    2    0  503 -0.86282684203E+02 -0.12295557573E+03  0.13153295142E+03  0.26418306627E+03  0.17300000000E+03 0. -1.
</event>
<event>
 4    1  0.5876320E+000  0.1000000E+03  0.7546771E-02  0.1280296E+00
         21   -1    0    0  501  502  0.00000000000E+00  0.00000000000E+00  0.33220939044E+03  0.33220939044E+03  0.00000000000E+00 0. -1.
         21   -1    0    0  502  503 -0.00000000000E+00 -0.00000000000E+00 -0.72453255268E+03  0.72453255268E+03  0.00000000000E+00 0. -1.
          6    1    1    2  501    0 -0.10588349583E+03 -0.62110518522E+02  0.28026696983E+03  0.35149339336E+03  0.17300000000E+03 0. -1.
         -6    1    1    2    0  503  0.10588349583E+03  0.62110518522E+02 -0.67259013206E+03  0.70524854977E+03  0.17300000000E+03 0. -1.
</event>
<event>
 4    1  0.5876320E+000  0.1000000E+03  0.7546771E-02  0.1280296E+00
         21   -1    0    0  503  502  0.00000000000E+00  0.00000000000E+00  0.65957183383E+02  0.65957183383E+02  0.00000000000E+00 0. -1.
         21   -1    0    0  501  503 -0.00000000000E+00 -0.00000000000E+00 -0.72056402218E+03  0.72056402218E+03  0.00000000000E+00 0. -1.
          6    1    1    2  501    0 -0.10347014904E+03 -0.26233772867E+02 -0.46937825787E+03  0.51150682454E+03  0.17300000000E+03 0. -1.
         -6    1    1    2    0  502  0.10347014904E+03  0.26233772867E+02 -0.18522858093E+03  0.27501438103E+03  0.17300000000E+03 0. -1.
</event>
<event>
 4    1  0.5876320E+000  0.1000000E+03  0.7546771E-02  0.1280296E+00
         21   -1    0    0  501  502  0.00000000000E+00  0.00000000000E+00  0.25326019686E+04  0.25326019686E+04  0.00000000000E+00 0.  1.
         21   -1    0    0  502  503 -0.00000000000E+00 -0.00000000000E+00 -0.37041161103E+02  0.37041161103E+02  0.00000000000E+00 0.  1.
          6    1    1    2  501    0 -0.25116913794E+01  0.60899986956E+02  0.22767299183E+04  0.22841066608E+04  0.17300000000E+03 0.  1.
         -6    1    1    2    0  503  0.25116913794E+01 -0.60899986956E+02  0.21883088916E+03  0.28553646887E+03  0.17300000000E+03 0.  1.
</event>
<event>
 4    1  0.5876320E+000  0.1000000E+03  0.7546771E-02  0.1280296E+00
         21   -1    0    0  501  502  0.00000000000E+00  0.00000000000E+00  0.54672267977E+03  0.54672267977E+03  0.00000000000E+00 0.  1.
         21   -1    0    0  502  503 -0.00000000000E+00 -0.00000000000E+00 -0.13019236893E+03  0.13019236893E+03  0.00000000000E+00 0.  1.
          6    1    1    2  501    0  0.22316012762E+02 -0.17508695343E+03  0.33573781742E+03  0.41689606347E+03  0.17300000000E+03 0.  1.
         -6    1    1    2    0  503 -0.22316012762E+02  0.17508695343E+03  0.80792493420E+02  0.26001898523E+03  0.17300000000E+03 0.  1.
</event>
<event>
 4    1  0.5876320E+000  0.1000000E+03  0.7546771E-02  0.1280296E+00
         21   -1    0    0  503  502  0.00000000000E+00  0.00000000000E+00  0.17565064380E+04  0.17565064380E+04  0.00000000000E+00 0.  1.
         21   -1    0    0  501  503 -0.00000000000E+00 -0.00000000000E+00 -0.29126119576E+02  0.29126119576E+02  0.00000000000E+00 0. -1.
          6    1    1    2  501    0 -0.71897409621E+02  0.88129485109E+02  0.50418209690E+03  0.54503635703E+03  0.17300000000E+03 0. -1.
         -6    1    1    2    0  502  0.71897409621E+02 -0.88129485109E+02  0.12231982215E+04  0.12405962005E+04  0.17300000000E+03 0.  1.
</event>
<event>
 4    1  0.5876320E+000  0.1000000E+03  0.7546771E-02  0.1280296E+00
         21   -1    0    0  503  502  0.00000000000E+00  0.00000000000E+00  0.96977667485E+03  0.96977667485E+03  0.00000000000E+00 0.  1.
         21   -1    0    0  501  503 -0.00000000000E+00 -0.00000000000E+00 -0.42866759138E+02  0.42866759138E+02  0.00000000000E+00 0. -1.
          6    1    1    2  501    0  0.44378138552E+02  0.68529900395E+02  0.28827325938E+03  0.34597144174E+03  0.17300000000E+03 0. -1.
         -6    1    1    2    0  502 -0.44378138552E+02 -0.68529900395E+02  0.63863665634E+03  0.66667199225E+03  0.17300000000E+03 0.  1.
</event>
<event>
 4    1  0.5876320E+000  0.1000000E+03  0.7546771E-02  0.1280296E+00
         21   -1    0    0  503  502  0.00000000000E+00  0.00000000000E+00  0.41924136402E+02  0.41924136402E+02  0.00000000000E+00 0.  1.
         21   -1    0    0  501  503 -0.00000000000E+00 -0.00000000000E+00 -0.10982554586E+04  0.10982554586E+04  0.00000000000E+00 0. -1.
          6    1    1    2  501    0 -0.10333964807E+03  0.31296513358E+02 -0.70551319149E+03  0.73439527366E+03  0.17300000000E+03 0. -1.
         -6    1    1    2    0  502  0.10333964807E+03 -0.31296513358E+02 -0.35081813072E+03  0.40578432135E+03  0.17300000000E+03 0.  1.
</event>
<event>
 4    1  0.5876320E+000  0.1000000E+03  0.7546771E-02  0.1280296E+00
         21   -1    0    0  501  502  0.00000000000E+00  0.00000000000E+00  0.36036428468E+03  0.36036428468E+03  0.00000000000E+00 0.  1.
         21   -1    0    0  502  503 -0.00000000000E+00 -0.00000000000E+00 -0.21718135900E+03  0.21718135900E+03  0.00000000000E+00 0.  1.
          6    1    1    2  501    0 -0.11187941723E+03  0.56502669873E+02  0.25803832812E+03  0.33499602159E+03  0.17300000000E+03 0.  1.
         -6    1    1    2    0  503  0.11187941723E+03 -0.56502669873E+02 -0.11485540244E+03  0.24254962208E+03  0.17300000000E+03 0.  1.
</event>
